<LesHouchesEvents version="3.0">
  <!--
  <scalesfunctionalform>
    muR  H_T/2 := sum_i mT(i)/2, i=final state
    muF1 H_T/2 := sum_i mT(i)/2, i=final state
    muF2 H_T/2 := sum_i mT(i)/2, i=final state
    QES  H_T/2 := sum_i mT(i)/2, i=final state
  </scalesfunctionalform>
HERWIG6   
  -->
  <header>
      427
  </header>
  <init>
   2212   2212 0.65000000D+04 0.65000000D+04 -1 -1   247000   247000 -3   1
 0.17512390D+00 0.65443785D-03 0.45228882D-03     66
  </init>
  <event>
  4     66 0.45228882E-03 0.12305629E+03 0.75467711E-02 0.11299425E+00
        2 -1    0    0  501    0 0.00000000E+00 0.00000000E+00 0.17966984E+04 0.17966984E+04 0.32000000E+00 0.0000E+00 0.9000E+01
       -2 -1    0    0    0  501 0.00000000E+00 0.00000000E+00 -.10704097E+02 0.10708879E+02 0.32000000E+00 0.0000E+00 0.9000E+01
       25  1    1    2    0    0 0.86675724E+00 0.58245241E+02 0.13923167E+04 0.13991297E+04 0.12500000E+03 0.0000E+00 0.9000E+01
       23  1    1    2    0    0 -.86675724E+00 -.58245241E+02 0.39367761E+03 0.40827757E+03 0.91188000E+02 0.0000E+00 0.9000E+01
#aMCatNLO 1  0  0  1  2 0.15799602D+03 0.00000000D+00  -5  5  0 0.00000000D+00 0.00000000D+00 0.00000000D+00 0.00000000D+00 0.00000000D+00
  <mgrwgt>
 0.1986084334D+00    5    2    0
 0.138695282100602D+03 0.000000000000000D+00 0.000000000000000D+00 0.138695282100602D+03
 0.138695282100602D+03 0.000000000000000D+00 0.000000000000000D+00 -.138695282100602D+03
 0.151871196495978D+03 0.866757242287325D+00 0.582452405910654D+02 0.636128996783806D+02
 0.125519367705227D+03 -.866757242287325D+00 -.582452405910654D+02 -.636128996783806D+02
 0.000000000000000D+00 0.000000000000000D+00 0.000000000000000D+00 0.000000000000000D+00
 0.445941508016202D+03 0.000000000000000D+00 0.000000000000000D+00 0.445941508016202D+03
 0.181411095637336D+03 0.000000000000000D+00 0.000000000000000D+00 -.181411095637336D+03
 0.165271360821642D+03 -.799456598242718D+02 0.353795587537131D+02 0.636128996783806D+02
 0.153959381995682D+03 -.720819024851600D+02 -.783953971169268D+02 -.636128996783806D+02
 0.308121860836214D+03 0.152027562309432D+03 0.430158383632137D+02 0.264530412378866D+03
0.203462627320D-03 0.000000000000D+00 0.000000000000D+00 0.119586417122D-02 0.000000000000D+00  5 2 -2 25 23 21 0 0.27641551D+00 0.16471542D-02 0.15142850D+05 0.15142850D+05 0.15142850D+05 0.12473535D+01  1  2  2  1  5  1        2 0.194277186637D+00 0.100000000000D+01
-.111067686761D-04 0.000000000000D+00 -.781350061850D-06 0.119586417122D-02 0.000000000000D+00  5 2 -2 25 23 21 2 0.27641551D+00 0.16471542D-02 0.15142850D+05 0.15142850D+05 0.15142850D+05 0.12473535D+01  1  2  3  1  5  1        2 -.165007623651D-01 0.100000000000D+01
0.140429630350D-04 0.000000000000D+00 0.000000000000D+00 0.119586417122D-02 0.000000000000D+00  5 2 -2 25 23 21 2 0.27641551D+00 0.16471542D-02 0.15142850D+05 0.15142850D+05 0.15142850D+05 0.12473535D+01  1  2 15  1  5  1        2 0.208629172625D-01 0.100000000000D+01
-.848927042143D-04 0.000000000000D+00 -.624391123473D-04 0.119586417122D-02 0.000000000000D+00  5 2 -2 25 23 21 2 0.89796254D+00 0.16471542D-02 0.15142850D+05 0.15142850D+05 0.15142850D+05 0.12473535D+01  1  2  5  1  5  1        2 -.308944366903D-04 0.100000000000D+01
-.896002361722D-05 0.000000000000D+00 -.849559863689D-05 0.119586417122D-02 0.000000000000D+00  5 21 -2 25 23 -2 2 0.89796254D+00 0.16471542D-02 0.15142850D+05 0.15142850D+05 0.15142850D+05 0.12473535D+01  1  2  5  3  5  1        2 -.136779251790D-07 0.100000000000D+01
  </mgrwgt>
  </event>
  <event>
  4     66 0.45228882E-03 0.70059321E+02 0.75467711E-02 0.11987576E+00
        2 -1    0    0  501    0 0.00000000E+00 0.00000000E+00 0.16066886E+04 0.16066886E+04 0.32000000E+00 0.0000E+00 0.9000E+01
       -2 -1    0    0    0  501 0.00000000E+00 0.00000000E+00 -.93890397E+01 0.93944912E+01 0.32000000E+00 0.0000E+00 0.9000E+01
       25  1    1    2    0    0 -.33115116E+02 -.41856605E+02 0.74941978E+03 0.76164532E+03 0.12500000E+03 0.0000E+00 0.9000E+01
       23  1    1    2    0    0 0.33115116E+02 0.41856605E+02 0.84787974E+03 0.85443776E+03 0.91188000E+02 0.0000E+00 0.9000E+01
#aMCatNLO 1  0  0  1  2 0.55057185D+02 0.00000000D+00  -5  5  0 0.00000000D+00 0.00000000D+00 0.00000000D+00 0.00000000D+00 0.00000000D+00
  <mgrwgt>
 0.1381608423D+00    7    2    0
 0.122840113496021D+03 0.000000000000000D+00 0.000000000000000D+00 0.122840113496021D+03
 0.122840113496021D+03 0.000000000000000D+00 0.000000000000000D+00 -.122840113496021D+03
 0.137716664094936D+03 -.331151157590539D+02 -.418566051409856D+02 -.221876831547030D+02
 0.107963562897106D+03 0.331151157590539D+02 0.418566051409856D+02 0.221876831547030D+02
 0.000000000000000D+00 0.000000000000000D+00 -.000000000000000D+00 0.000000000000000D+00
 0.471841895336497D+03 0.000000000000000D+00 0.000000000000000D+00 0.471841895336497D+03
 0.128077447161583D+03 0.000000000000000D+00 0.000000000000000D+00 -.128077447161583D+03
 0.143336114310752D+03 -.606482309671270D+02 -.273813889802827D+02 -.221876831547030D+02
 0.108437727778823D+03 0.119155328865598D+02 0.530020400936607D+02 0.221876831547030D+02
 0.348145500408505D+03 0.487326980805672D+02 -.256206511133780D+02 0.343764448174914D+03
0.939294945456D-04 0.000000000000D+00 0.000000000000D+00 0.158692564794D-02 0.000000000000D+00  5 2 -2 25 23 21 0 0.24718328D+00 0.14448894D-02 0.14589818D+05 0.14589818D+05 0.14589818D+05 0.12491976D+01  1  2  2  1  5  1        2 0.135254942223D+00 0.100000000000D+01
-.521650512214D-05 0.000000000000D+00 -.360713991259D-06 0.158692564794D-02 0.000000000000D+00  5 2 -2 25 23 21 2 0.24718328D+00 0.14448894D-02 0.14589818D+05 0.14589818D+05 0.14589818D+05 0.12491976D+01  1  2  3  1  5  1        2 -.117217669391D-01 0.100000000000D+01
0.650243878295D-05 0.000000000000D+00 0.000000000000D+00 0.158692564794D-02 0.000000000000D+00  5 2 -2 25 23 21 2 0.24718328D+00 0.14448894D-02 0.14589818D+05 0.14589818D+05 0.14589818D+05 0.12491976D+01  1  2 15  1  5  1        2 0.146113288811D-01 0.100000000000D+01
0.491477669677D-03 0.000000000000D+00 0.000000000000D+00 0.158692564794D-02 0.000000000000D+00  5 2 -2 25 23 21 2 0.93486726D+00 0.14448894D-02 0.22923344D+05 0.22923344D+05 0.22923344D+05 0.12273562D+01  1  2 12  1  5  1        2 0.353204080117D-04 0.100000000000D+01
-.645911418077D-03 0.000000000000D+00 -.323734946409D-04 0.158692564794D-02 0.000000000000D+00  5 2 -2 25 23 21 2 0.94990608D+00 0.14448894D-02 0.14589818D+05 0.14589818D+05 0.14589818D+05 0.12491976D+01  1  2  5  1  5  1        2 -.189896509956D-04 0.100000000000D+01
0.774239590830D-04 0.000000000000D+00 0.000000000000D+00 0.158692564794D-02 0.000000000000D+00  5 21 -2 25 23 -2 2 0.93486726D+00 0.14448894D-02 0.22923344D+05 0.22923344D+05 0.22923344D+05 0.12273562D+01  1  2 12  3  5  1        2 0.121333451483D-07 0.100000000000D+01
-.102622813394D-03 0.000000000000D+00 -.517294169558D-05 0.158692564794D-02 0.000000000000D+00  5 21 -2 25 23 -2 2 0.94990608D+00 0.14448894D-02 0.14589818D+05 0.14589818D+05 0.14589818D+05 0.12491976D+01  1  2  5  3  5  1        2 -.473222278695D-08 0.100000000000D+01
  </mgrwgt>
  </event>
  <event>
  5     66 0.45228882E-03 0.11242263E+03 0.75467711E-02 0.12398150E+00
        2 -1    0    0  501    0 0.00000000E+00 0.00000000E+00 0.15502158E+04 0.15502158E+04 0.32000000E+00 0.0000E+00 0.9000E+01
       21 -1    0    0  502  501 0.00000000E+00 0.00000000E+00 -.18896354E+02 0.18911232E+02 0.75000000E+00 0.0000E+00 0.9000E+01
       25  1    1    2    0    0 0.32247288E+02 -.15013306E+02 0.57080424E+03 0.58541248E+03 0.12500000E+03 0.0000E+00 0.9000E+01
       23  1    1    2    0    0 -.28558219E+02 -.30700285E+01 0.18739257E+03 0.21037163E+03 0.91188000E+02 0.0000E+00 0.9000E+01
        2  1    1    2  502    0 -.36890694E+01 0.18083334E+02 0.77312262E+03 0.77334294E+03 0.32000000E+00 0.0000E+00 0.9000E+01
#aMCatNLO 2  0  0  2  2 0.18455791D+02 0.00000000D+00  -5  5  0 0.00000000D+00 0.00000000D+00 0.00000000D+00 0.00000000D+00 0.00000000D+00
  <mgrwgt>
 0.5291380800D-01    1    2    0
 0.120487891533661D+03 0.000000000000000D+00 0.000000000000000D+00 0.120487891533661D+03
 0.120487891533661D+03 0.000000000000000D+00 0.000000000000000D+00 -.120487891533661D+03
 0.135654869233569D+03 0.301642801092067D+02 -.480267243478486D+01 0.429452452519984D+02
 0.105320913833753D+03 -.301642801092067D+02 0.480267243478486D+01 -.429452452519984D+02
 0.000000000000000D+00 -.000000000000000D+00 0.000000000000000D+00 0.000000000000000D+00
 0.241096665563208D+03 0.000000000000000D+00 0.000000000000000D+00 0.241096665563208D+03
 0.121548853658772D+03 0.000000000000000D+00 0.000000000000000D+00 -.121548853658772D+03
 0.136874325776779D+03 0.322472884281040D+02 -.150133059693087D+02 0.429452452519984D+02
 0.104807167602233D+03 -.285582189984017D+02 -.307002845061560D+01 -.429452452519984D+02
 0.120964025842969D+03 -.368906942970232D+01 0.180833344199243D+02 0.119547811904436D+03
0.307695711332D-05 0.000000000000D+00 0.000000000000D+00 0.150618906015D-02 0.101416149981D-06  5 2 21 25 23 2 2 0.23849547D+00 0.29082733D-02 0.14886815D+05 0.14886815D+05 0.14886815D+05 0.12481977D+01  1  2  1  4  5  2       -2 0.529138079972D-01 0.100000000000D+01
  </mgrwgt>
  </event>
  <event>
  5     66 0.45228882E-03 0.13763826E+03 0.75467711E-02 0.11358046E+00
       21 -1    0    0  501  502 0.00000000E+00 0.00000000E+00 0.72570302E+02 0.72574178E+02 0.75000000E+00 0.0000E+00 0.9000E+01
       -4 -1    0    0    0  501 0.00000000E+00 0.00000000E+00 -.77293483E+03 0.77293638E+03 0.15500000E+01 0.0000E+00 0.9000E+01
       25  1    1    2    0    0 -.92026921E+01 0.26511306E+02 -.10677375E+03 0.16677282E+03 0.12500000E+03 0.0000E+00 0.9000E+01
       23  1    1    2    0    0 -.54818836E+02 -.14037734E+03 -.45681045E+03 0.48959365E+03 0.91188000E+02 0.0000E+00 0.9000E+01
       -4  1    1    2    0  502 0.64021528E+02 0.11386603E+03 -.13678032E+03 0.18914409E+03 0.15500000E+01 0.0000E+00 0.9000E+01
#aMCatNLO 2  0  0  1  1 0.13063012D+03 0.00000000D+00  -5  5  0 0.00000000D+00 0.00000000D+00 0.00000000D+00 0.00000000D+00 0.00000000D+00
  <mgrwgt>
 0.1271924900D-01    1    2    0
 0.155020608365613D+03 0.000000000000000D+00 0.000000000000000D+00 0.155020608365613D+03
 0.155020608365613D+03 0.000000000000000D+00 0.000000000000000D+00 -.155020608365613D+03
 0.166808958206752D+03 0.218247055866319D+02 0.816953463146151D+02 0.710618122103131D+02
 0.143232258524474D+03 -.218247055866319D+02 -.816953463146151D+02 -.710618122103131D+02
 0.000000000000000D+00 0.000000000000000D+00 0.000000000000000D+00 0.000000000000000D+00
 0.263151407444861D+03 0.000000000000000D+00 0.000000000000000D+00 0.263151407444861D+03
 0.213156025190650D+03 0.000000000000000D+00 0.000000000000000D+00 -.213156025190650D+03
 0.146500238988325D+03 -.920269208273775D+01 0.265113056534943D+02 0.710618122103131D+02
 0.189936656858439D+03 -.548188357341161D+02 -.140377335666063D+03 -.710618122103131D+02
 0.139870536788746D+03 0.640215278168539D+02 0.113866030012569D+03 0.499953822542104D+02
0.559063008529D-04 0.000000000000D+00 0.000000000000D+00 0.108383494720D-02 0.567657218598D-07  5 21 -4 25 23 -4 2 0.11164870D-01 0.11891124D+00 0.47281018D+05 0.47281018D+05 0.47281018D+05 0.11946942D+01  1  2  1  3  5  1        4 0.127192490000D-01 0.100000000000D+01
  </mgrwgt>
  </event>
  <event>
  4     66 0.45228882E-03 0.81278899E+02 0.75467711E-02 0.11859582E+00
        2 -1    0    0  501    0 0.00000000E+00 0.00000000E+00 0.38485616E+03 0.38485629E+03 0.32000000E+00 0.0000E+00 0.9000E+01
       -2 -1    0    0    0  501 0.00000000E+00 0.00000000E+00 -.47754402E+02 0.47755474E+02 0.32000000E+00 0.0000E+00 0.9000E+01
       25  1    1    2    0    0 0.32061911E+02 -.73124851E+02 0.16190368E+03 0.21957461E+03 0.12500000E+03 0.0000E+00 0.9000E+01
       23  1    1    2    0    0 -.32061911E+02 0.73124851E+02 0.17519808E+03 0.21303715E+03 0.91188000E+02 0.0000E+00 0.9000E+01
#aMCatNLO 1  0  0  2  1 0.50639473D+02 0.00000000D+00  -5  5  0 0.00000000D+00 0.00000000D+00 0.00000000D+00 0.00000000D+00 0.00000000D+00
  <mgrwgt>
 0.1727549307D+00    9    2    0
 0.135568566829414D+03 0.000000000000000D+00 0.000000000000000D+00 0.135568566829414D+03
 0.135568566829414D+03 0.000000000000000D+00 0.000000000000000D+00 -.135568566829414D+03
 0.149048366806200D+03 0.320619113572685D+02 -.731248507685065D+02 -.146698905175803D+02
 0.122088766852629D+03 -.320619113572685D+02 0.731248507685065D+02 0.146698905175803D+02
 0.000000000000000D+00 -.000000000000000D+00 -.000000000000000D+00 -.000000000000000D+00
 0.155370613315713D+03 0.000000000000000D+00 0.000000000000000D+00 0.155370613315713D+03
 0.174634815502377D+03 0.000000000000000D+00 0.000000000000000D+00 -.174634815502377D+03
 0.138938476791669D+03 0.357856533179401D+02 -.467234594395527D+02 -.146698905175803D+02
 0.136887014116541D+03 -.287132896968319D+02 0.968666330411572D+02 0.146698905175803D+02
 0.541799379098801D+02 -.707236362110820D+01 -.501431736016044D+02 -.192642021866635D+02
0.154154614887D-03 0.000000000000D+00 0.000000000000D+00 0.145445748322D-02 0.000000000000D+00  5 2 -2 25 23 21 0 0.59208733D-01 0.73469237D-02 0.18161456D+05 0.18161456D+05 0.18161456D+05 0.12384634D+01  1  2  2  2  5  2       -2 0.131957390333D+00 0.100000000000D+01
-.856377674120D-05 0.000000000000D+00 -.591994311009D-06 0.145445748322D-02 0.000000000000D+00  5 2 -2 25 23 21 2 0.59208733D-01 0.73469237D-02 0.18161456D+05 0.18161456D+05 0.18161456D+05 0.12384634D+01  1  2  3  2  5  2       -2 -.112436905359D-01 0.100000000000D+01
0.106447341371D-04 0.000000000000D+00 0.000000000000D+00 0.145445748322D-02 0.000000000000D+00  5 2 -2 25 23 21 2 0.59208733D-01 0.73469237D-02 0.18161456D+05 0.18161456D+05 0.18161456D+05 0.12384634D+01  1  2 15  2  5  2       -2 0.139758543563D-01 0.100000000000D+01
0.766679851640D-04 0.000000000000D+00 0.000000000000D+00 0.145445748322D-02 0.000000000000D+00  5 2 -2 25 23 21 2 0.59208733D-01 0.98771491D-02 0.26390001D+05 0.26390001D+05 0.26390001D+05 0.12207862D+01  1  2 12  2  5  2       -2 0.624355286003D-01 0.100000000000D+01
-.863669749239D-04 0.000000000000D+00 0.000000000000D+00 0.145445748322D-02 0.000000000000D+00  5 2 -2 25 23 21 2 0.59208733D-01 0.73469237D-02 0.18161456D+05 0.18161456D+05 0.18161456D+05 0.12384634D+01  1  2  4  2  5  2       -2 -.113394308132D+00 0.100000000000D+01
-.149370499220D-03 0.000000000000D+00 -.586532065326D-04 0.145445748322D-02 0.000000000000D+00  5 2 -2 25 23 21 2 0.59208733D-01 0.10818206D-01 0.18161456D+05 0.18161456D+05 0.18161456D+05 0.12384634D+01  1  2  5  2  5  2       -2 -.107359449008D+00 0.100000000000D+01
0.163783742638D-03 0.000000000000D+00 0.545203733074D-04 0.145445748322D-02 0.000000000000D+00  5 2 -2 25 23 21 2 0.59208733D-01 0.73469237D-02 0.18161456D+05 0.18161456D+05 0.18161456D+05 0.12384634D+01  1  2  6  2  5  2       -2 0.215037567266D+00 0.100000000000D+01
0.293458846607D-05 0.000000000000D+00 0.000000000000D+00 0.145445748322D-02 0.000000000000D+00  5 2 21 25 23 2 2 0.59208733D-01 0.98771491D-02 0.26390001D+05 0.26390001D+05 0.26390001D+05 0.12207862D+01  1  2 12  4  5  2       -2 0.375656746019D-01 0.100000000000D+01
-.502648576879D-05 0.000000000000D+00 -.272493492952D-05 0.145445748322D-02 0.000000000000D+00  5 2 21 25 23 2 2 0.59208733D-01 0.10818206D-01 0.18161456D+05 0.18161456D+05 0.18161456D+05 0.12384634D+01  1  2  5  4  5  2       -2 -.562196367536D-01 0.100000000000D+01
  </mgrwgt>
  </event>
  <event>
  4     66 0.45228882E-03 0.67741715E+02 0.75467711E-02 0.12162706E+00
        2 -1    0    0  501    0 0.00000000E+00 0.00000000E+00 0.46226935E+03 0.46226946E+03 0.32000000E+00 0.0000E+00 0.9000E+01
       -2 -1    0    0    0  501 0.00000000E+00 0.00000000E+00 -.69360520E+02 0.69361259E+02 0.32000000E+00 0.0000E+00 0.9000E+01
       25  1    1    2    0    0 -.48279627E+02 0.27059361E+02 0.40196733E+03 0.42457728E+03 0.12500000E+03 0.0000E+00 0.9000E+01
       23  1    1    2    0    0 0.48279627E+02 -.27059361E+02 -.90584998E+01 0.10705344E+03 0.91188000E+02 0.0000E+00 0.9000E+01
#aMCatNLO 1  0  0  2  1 0.30353944D+02 0.00000000D+00  -5  5  0 0.00000000D+00 0.00000000D+00 0.00000000D+00 0.00000000D+00 0.00000000D+00
  <mgrwgt>
 0.1376347369D+00    6    2    0
 0.179062749143986D+03 0.000000000000000D+00 0.000000000000000D+00 0.179062749143986D+03
 0.179062749143986D+03 0.000000000000000D+00 0.000000000000000D+00 -.179062749143986D+03
 0.189268317709956D+03 -.482796272374921D+02 0.270593613253610D+02 0.130898298870646D+03
 0.168857180578016D+03 0.482796272374921D+02 -.270593613253610D+02 -.130898298870646D+03
 0.000000000000000D+00 -.000000000000000D+00 -.000000000000000D+00 0.000000000000000D+00
 0.195512460179186D+03 0.000000000000000D+00 0.000000000000000D+00 0.195512460179186D+03
 0.194276211974861D+03 0.000000000000000D+00 0.000000000000000D+00 -.194276211974861D+03
 0.189684622022639D+03 -.396721282100065D+02 0.405834132119413D+02 0.130898298870646D+03
 0.169724941633521D+03 0.559701475688987D+02 -.149760609770686D+02 -.130898298870646D+03
 0.303791084978866D+02 -.162980193588923D+02 -.256073522348727D+02 0.123624820432542D+01
0.254230344877D-03 0.000000000000D+00 0.000000000000D+00 0.641897370481D-03 0.000000000000D+00  5 2 -2 25 23 21 0 0.71118426D-01 0.10670915D-01 0.14807731D+05 0.14807731D+05 0.14807731D+05 0.12484618D+01  1  2  2  2  5  2       -2 0.994948528489D-01 0.100000000000D+01
-.115614916734D-04 0.000000000000D+00 -.976311464713D-06 0.641897370481D-03 0.000000000000D+00  5 2 -2 25 23 21 2 0.71118426D-01 0.10670915D-01 0.14807731D+05 0.14807731D+05 0.14807731D+05 0.12484618D+01  1  2  3  2  5  2       -2 -.705241053127D-02 0.100000000000D+01
0.173426554371D-04 0.000000000000D+00 0.000000000000D+00 0.641897370481D-03 0.000000000000D+00  5 2 -2 25 23 21 2 0.71118426D-01 0.10670915D-01 0.14807731D+05 0.14807731D+05 0.14807731D+05 0.12484618D+01  1  2 15  2  5  2       -2 0.105788707287D-01 0.100000000000D+01
0.220715327561D-03 0.000000000000D+00 0.000000000000D+00 0.641897370481D-03 0.000000000000D+00  5 2 -2 25 23 21 2 0.71118426D-01 0.12026373D-01 0.18998790D+05 0.18998790D+05 0.18998790D+05 0.12362891D+01  1  2 12  2  5  2       -2 0.109829661810D+00 0.100000000000D+01
-.175281341626D-03 0.000000000000D+00 0.000000000000D+00 0.641897370481D-03 0.000000000000D+00  5 2 -2 25 23 21 2 0.71118426D-01 0.10670915D-01 0.14807731D+05 0.14807731D+05 0.14807731D+05 0.12484618D+01  1  2  4  2  5  2       -2 -.106920111568D+00 0.100000000000D+01
0.417547483460D-05 0.000000000000D+00 0.000000000000D+00 0.641897370481D-03 0.000000000000D+00  5 2 21 25 23 2 2 0.71118426D-01 0.12026373D-01 0.18998790D+05 0.18998790D+05 0.18998790D+05 0.12362891D+01  1  2 12  4  5  2       -2 0.317038736033D-01 0.100000000000D+01
  </mgrwgt>
  </event>
  <event>
  4     66 0.45228882E-03 0.11209840E+03 0.75467711E-02 0.10953123E+00
        2 -1    0    0  501    0 0.00000000E+00 0.00000000E+00 0.70276473E+02 0.70277201E+02 0.32000000E+00 0.0000E+00 0.9000E+01
       -2 -1    0    0    0  501 0.00000000E+00 0.00000000E+00 -.25955734E+03 0.25955754E+03 0.32000000E+00 0.0000E+00 0.9000E+01
       25  1    1    2    0    0 -.29229067E+02 -.27101650E+01 -.19543515E+03 0.23384094E+03 0.12500000E+03 0.0000E+00 0.9000E+01
       23  1    1    2    0    0 0.29229067E+02 0.27101650E+01 0.61542884E+01 0.95993802E+02 0.91188000E+02 0.0000E+00 0.9000E+01
#aMCatNLO 1  0  0  2  2 0.23566559D+03 0.00000000D+00  -5  5  0 0.00000000D+00 0.00000000D+00 0.00000000D+00 0.00000000D+00 0.00000000D+00
  <mgrwgt>
 0.1389620165D+00    5    2    0
 0.135058975464640D+03 0.000000000000000D+00 0.000000000000000D+00 0.135058975464640D+03
 0.135058975464640D+03 0.000000000000000D+00 0.000000000000000D+00 -.135058975464640D+03
 0.148589636109096D+03 -.292290672653145D+02 -.271016497547234D+01 -.747809908441914D+02
 0.121528314820183D+03 0.292290672653145D+02 0.271016497547234D+01 0.747809908441914D+02
 0.000000000000000D+00 -.000000000000000D+00 -.000000000000000D+00 -.000000000000000D+00
 0.184712173533311D+03 0.000000000000000D+00 0.000000000000000D+00 0.184712173533311D+03
 0.271462252315846D+04 0.000000000000000D+00 0.000000000000000D+00 -.271462252315846D+04
 0.172146409244860D+03 0.855476944769738D+02 0.331478746518387D+02 -.747809908441914D+02
 0.186325314645170D+03 0.139395801539441D+03 0.371279605574993D+02 0.747809908441914D+02
 0.254086297280174D+04 -.224943496016415D+03 -.702758352093380D+02 -.252991034962515D+04
0.412546574768D-03 0.000000000000D+00 0.000000000000D+00 0.111639622720D-02 0.000000000000D+00  5 2 -2 25 23 21 0 0.10811836D-01 0.39931969D-01 0.12566051D+05 0.12566051D+05 0.12566051D+05 0.12566848D+01  1  2  2  2  5  2       -2 0.135729745042D+00 0.100000000000D+01
-.219517152117D-04 0.000000000000D+00 -.158428747312D-05 0.111639622720D-02 0.000000000000D+00  5 2 -2 25 23 21 2 0.10811836D-01 0.39931969D-01 0.12566051D+05 0.12566051D+05 0.12566051D+05 0.12566848D+01  1  2  3  2  5  2       -2 -.114057341160D-01 0.100000000000D+01
0.282961128455D-04 0.000000000000D+00 0.000000000000D+00 0.111639622720D-02 0.000000000000D+00  5 2 -2 25 23 21 2 0.10811836D-01 0.39931969D-01 0.12566051D+05 0.12566051D+05 0.12566051D+05 0.12566848D+01  1  2 15  2  5  2       -2 0.147021741363D-01 0.100000000000D+01
-.552935931754D-02 0.000000000000D+00 -.486335289182D-03 0.111639622720D-02 0.000000000000D+00  5 2 -2 25 23 21 2 0.10811836D-01 0.81371894D+00 0.12566051D+05 0.12566051D+05 0.12566051D+05 0.12566848D+01  1  2  5  2  5  2       -2 -.565524686092D-04 0.100000000000D+01
-.190879253988D-02 0.000000000000D+00 -.156862259330D-03 0.111639622720D-02 0.000000000000D+00  5 2 21 25 23 2 2 0.10811836D-01 0.81371894D+00 0.12566051D+05 0.12566051D+05 0.12566051D+05 0.12566848D+01  1  2  5  4  5  2       -2 -.761604643251D-05 0.100000000000D+01
  </mgrwgt>
  </event>
  <event>
  4     66 0.45228882E-03 0.17299031E+03 0.75467711E-02 0.11459978E+00
        4 -1    0    0  501    0 0.00000000E+00 0.00000000E+00 0.35870035E+03 0.35870370E+03 0.15500000E+01 0.0000E+00 0.9000E+01
       -4 -1    0    0    0  501 0.00000000E+00 0.00000000E+00 -.10882649E+03 0.10883753E+03 0.15500000E+01 0.0000E+00 0.9000E+01
       25  1    1    2    0    0 -.12120515E+02 0.13386638E+03 0.17996272E+02 0.18443422E+03 0.12500000E+03 0.0000E+00 0.9000E+01
       23  1    1    2    0    0 0.12120515E+02 -.13386638E+03 0.23187759E+03 0.28310701E+03 0.91188000E+02 0.0000E+00 0.9000E+01
#aMCatNLO 1  0  0  1  1 0.58051244D+02 0.00000000D+00  -5  5  0 0.00000000D+00 0.00000000D+00 0.00000000D+00 0.00000000D+00 0.00000000D+00
  <mgrwgt>
 0.1281789560D-01    3    2    0
 0.197584068171065D+03 0.000000000000000D+00 0.000000000000000D+00 0.197584068171065D+03
 0.197584068171065D+03 0.000000000000000D+00 0.000000000000000D+00 -.197584068171065D+03
 0.206832977665214D+03 -.121205147005589D+02 0.133866379349527D+03 -.953297763193700D+02
 0.188335158676916D+03 0.121205147005589D+02 -.133866379349527D+03 0.953297763193700D+02
 0.000000000000000D+00 -.000000000000000D+00 0.000000000000000D+00 -.000000000000000D+00
 0.203958030072120D+03 0.000000000000000D+00 0.000000000000000D+00 0.203958030072120D+03
 0.397779712098913D+03 0.000000000000000D+00 0.000000000000000D+00 -.397779712098913D+03
 0.196350441045989D+03 0.120485359629788D+02 0.117028040345048D+03 -.953297763193700D+02
 0.203058876520870D+03 0.355828443180316D+02 -.150212352777844D+03 0.953297763193700D+02
 0.202328424604174D+03 -.476313802810104D+02 0.331843124327963D+02 -.193821682026793D+03
0.735256516641D-03 0.000000000000D+00 0.000000000000D+00 0.906258591010D-03 0.000000000000D+00  5 4 -4 25 23 21 0 0.55185776D-01 0.16743644D-01 0.29925646D+05 0.29925646D+05 0.29925646D+05 0.12150115D+01  1  2  2  1  5  1        4 0.125519418347D-01 0.100000000000D+01
-.399700082834D-04 0.000000000000D+00 -.282357862139D-05 0.906258591010D-03 0.000000000000D+00  5 4 -4 25 23 21 2 0.55185776D-01 0.16743644D-01 0.29925646D+05 0.29925646D+05 0.29925646D+05 0.12150115D+01  1  2  3  1  5  1        4 -.100731910128D-02 0.100000000000D+01
0.505229443732D-04 0.000000000000D+00 0.000000000000D+00 0.906258591010D-03 0.000000000000D+00  5 4 -4 25 23 21 2 0.55185776D-01 0.16743644D-01 0.29925646D+05 0.29925646D+05 0.29925646D+05 0.12150115D+01  1  2 15  1  5  1        4 0.127327286397D-02 0.100000000000D+01
  </mgrwgt>
  </event>
  <event>
  4     66 0.45228882E-03 0.14617583E+03 0.75467711E-02 0.11170887E+00
        2 -1    0    0  501    0 0.00000000E+00 0.00000000E+00 0.11824334E+04 0.11824335E+04 0.32000000E+00 0.0000E+00 0.9000E+01
       -2 -1    0    0    0  501 0.00000000E+00 0.00000000E+00 -.18133150E+02 0.18135974E+02 0.32000000E+00 0.0000E+00 0.9000E+01
       25  1    1    2    0    0 -.17232839E+02 -.96211066E+02 0.66727317E+03 0.68588047E+03 0.12500000E+03 0.0000E+00 0.9000E+01
       23  1    1    2    0    0 0.17232839E+02 0.96211066E+02 0.49702709E+03 0.51468895E+03 0.91188000E+02 0.0000E+00 0.9000E+01
#aMCatNLO 1  0  0  2  1 0.15656771D+03 0.00000000D+00  -5  5  0 0.00000000D+00 0.00000000D+00 0.00000000D+00 0.00000000D+00 0.00000000D+00
  <mgrwgt>
 0.1849427887D+00    3    2    0
 0.146434160803012D+03 0.000000000000000D+00 0.000000000000000D+00 0.146434160803012D+03
 0.146434160803012D+03 0.000000000000000D+00 0.000000000000000D+00 -.146434160803012D+03
 0.158913743121637D+03 -.172328390010132D+02 -.962110655649574D+02 0.866244051929141D+01
 0.133954578484386D+03 0.172328390010132D+02 0.962110655649574D+02 -.866244051929141D+01
 0.000000000000000D+00 0.000000000000000D+00 -.000000000000000D+00 0.000000000000000D+00
 0.281503600522213D+03 0.000000000000000D+00 0.000000000000000D+00 0.281503600522213D+03
 0.219125122379312D+03 0.000000000000000D+00 0.000000000000000D+00 -.219125122379312D+03
 0.165424551959051D+03 -.899015605417284D+02 -.598577808414619D+02 0.866244051929141D+01
 0.166667757419213D+03 -.501222687615877D+02 0.129906159659927D+03 -.866244051929141D+01
 0.168536413523261D+03 0.140023829303316D+03 -.700483788184651D+02 0.623784781429010D+02
0.192962379888D-03 0.000000000000D+00 0.000000000000D+00 0.136851595457D-02 0.000000000000D+00  5 2 -2 25 23 21 0 0.18191305D+00 0.27899359D-02 0.21367375D+05 0.21367375D+05 0.21367375D+05 0.12306766D+01  1  2  2  2  5  2       -2 0.181246181752D+00 0.100000000000D+01
-.107200915810D-04 0.000000000000D+00 -.741026346930D-06 0.136851595457D-02 0.000000000000D+00  5 2 -2 25 23 21 2 0.18191305D+00 0.27899359D-02 0.21367375D+05 0.21367375D+05 0.21367375D+05 0.12306766D+01  1  2  3  2  5  2       -2 -.152504472761D-01 0.100000000000D+01
0.133185704297D-04 0.000000000000D+00 0.000000000000D+00 0.136851595457D-02 0.000000000000D+00  5 2 -2 25 23 21 2 0.18191305D+00 0.27899359D-02 0.21367375D+05 0.21367375D+05 0.21367375D+05 0.12306766D+01  1  2 15  2  5  2       -2 0.189470541923D-01 0.100000000000D+01
  </mgrwgt>
  </event>
  <event>
  4     66 0.45228882E-03 0.11897475E+03 0.75467711E-02 0.12225540E+00
        4 -1    0    0  501    0 0.00000000E+00 0.00000000E+00 0.59023378E+03 0.59023582E+03 0.15500000E+01 0.0000E+00 0.9000E+01
       -4 -1    0    0    0  501 0.00000000E+00 0.00000000E+00 -.24198207E+02 0.24247798E+02 0.15500000E+01 0.0000E+00 0.9000E+01
       25  1    1    2    0    0 0.10867976E+02 -.47986227E+02 0.28866805E+03 0.31839446E+03 0.12500000E+03 0.0000E+00 0.9000E+01
       23  1    1    2    0    0 -.10867976E+02 0.47986227E+02 0.27736753E+03 0.29608915E+03 0.91188000E+02 0.0000E+00 0.9000E+01
#aMCatNLO 1  0  0  2  1 0.27231440D+02 0.00000000D+00  -5  5  0 0.00000000D+00 0.00000000D+00 0.00000000D+00 0.00000000D+00 0.00000000D+00
  <mgrwgt>
 0.7367654331D-02    4    2    0
 0.119576169361424D+03 0.000000000000000D+00 0.000000000000000D+00 0.119576169361424D+03
 0.119576169361424D+03 0.000000000000000D+00 0.000000000000000D+00 -.119576169361424D+03
 0.134858789416567D+03 0.108679759263132D+02 -.479862265909933D+02 -.118786463759466D+02
 0.104293549306282D+03 -.108679759263132D+02 0.479862265909933D+02 0.118786463759466D+02
 0.000000000000000D+00 -.000000000000000D+00 0.000000000000000D+00 0.000000000000000D+00
 0.176622564775063D+03 0.000000000000000D+00 0.000000000000000D+00 0.176622564775063D+03
 0.123643255365920D+03 0.000000000000000D+00 0.000000000000000D+00 -.123643255365920D+03
 0.140541689047596D+03 0.216414350190535D+02 -.593086200391016D+02 -.118786463759466D+02
 0.100156031006266D+03 -.287006247929003D+01 0.395807996959178D+02 0.118786463759466D+02
 0.595681000871206D+02 -.187713725397634D+02 0.197278203431838D+02 0.529793094091428D+02
0.118751336465D-03 0.000000000000D+00 0.000000000000D+00 0.166730953245D-02 0.000000000000D+00  5 4 -4 25 23 21 0 0.90809168D-01 0.37267723D-02 0.14154991D+05 0.14154991D+05 0.14154991D+05 0.12507035D+01  1  2  2  2  5  2       -4 0.783644218621D-02 0.100000000000D+01
-.659709252945D-05 0.000000000000D+00 -.456036399969D-06 0.166730953245D-02 0.000000000000D+00  5 4 -4 25 23 21 2 0.90809168D-01 0.37267723D-02 0.14154991D+05 0.14154991D+05 0.14154991D+05 0.12507035D+01  1  2  3  2  5  2       -4 -.680991597856D-03 0.100000000000D+01
0.819401927459D-05 0.000000000000D+00 0.000000000000D+00 0.166730953245D-02 0.000000000000D+00  5 4 -4 25 23 21 2 0.90809168D-01 0.37267723D-02 0.14154991D+05 0.14154991D+05 0.14154991D+05 0.12507035D+01  1  2 15  2  5  2       -4 0.845835988165D-03 0.100000000000D+01
-.613829974719D-05 0.000000000000D+00 0.000000000000D+00 0.166730953245D-02 0.000000000000D+00  5 4 -4 25 23 21 2 0.90809168D-01 0.37267723D-02 0.14154991D+05 0.14154991D+05 0.14154991D+05 0.12507035D+01  1  2  4  2  5  2       -4 -.633632245462D-03 0.100000000000D+01
  </mgrwgt>
  </event>
  <event>
  4     66 0.45228882E-03 0.37813426E+02 0.75467711E-02 0.12053467E+00
        4 -1    0    0  501    0 0.00000000E+00 0.00000000E+00 0.23438055E+02 0.23489251E+02 0.15500000E+01 0.0000E+00 0.9000E+01
       -4 -1    0    0    0  501 0.00000000E+00 0.00000000E+00 -.61688420E+03 0.61688615E+03 0.15500000E+01 0.0000E+00 0.9000E+01
       25  1    1    2    0    0 0.27881186E+01 0.51284203E+02 -.30779508E+03 0.33615570E+03 0.12500000E+03 0.0000E+00 0.9000E+01
       23  1    1    2    0    0 -.27881186E+01 -.51284203E+02 -.28565106E+03 0.30421969E+03 0.91188000E+02 0.0000E+00 0.9000E+01
#aMCatNLO 1  0  0  2  1 0.47702243D+02 0.00000000D+00  -5  5  0 0.00000000D+00 0.00000000D+00 0.00000000D+00 0.00000000D+00 0.00000000D+00
  <mgrwgt>
 0.3528478607D-01    9    2    0
 0.120314508845242D+03 0.000000000000000D+00 0.000000000000000D+00 0.120314508845242D+03
 0.120314508845242D+03 0.000000000000000D+00 0.000000000000000D+00 -.120314508845242D+03
 0.135503343355223D+03 0.278811859547741D+01 0.512842030157642D+02 0.991529001990839D+01
 0.105125674335262D+03 -.278811859547741D+01 -.512842030157642D+02 -.991529001990839D+01
 0.000000000000000D+00 -.000000000000000D+00 0.000000000000000D+00 -.000000000000000D+00
 0.134572039636171D+03 0.000000000000000D+00 0.000000000000000D+00 0.134572039636171D+03
 0.170395596485211D+03 0.000000000000000D+00 0.000000000000000D+00 -.170395596485211D+03
 0.134547315164414D+03 0.270477037144898D+02 0.405966595367956D+02 0.991529001990839D+01
 0.110764380715476D+03 0.166060321004032D+02 -.598282827179949D+02 -.991529001990839D+01
 0.596559402414925D+02 -.436537358148930D+02 0.192316231811993D+02 -.358235568490401D+02
0.439538075977D-03 0.000000000000D+00 0.000000000000D+00 0.165876007497D-02 0.000000000000D+00  5 4 -4 25 23 21 0 0.36099426D-02 0.94909349D-01 0.14375665D+05 0.14375665D+05 0.14375665D+05 0.12499329D+01  1  2  2  2  5  2       -4 0.276386929060D-01 0.100000000000D+01
-.244184259137D-04 0.000000000000D+00 -.168794194478D-05 0.165876007497D-02 0.000000000000D+00  5 4 -4 25 23 21 2 0.36099426D-02 0.94909349D-01 0.14375665D+05 0.14375665D+05 0.14375665D+05 0.12499329D+01  1  2  3  2  5  2       -4 -.239889946557D-02 0.100000000000D+01
0.303588993529D-04 0.000000000000D+00 0.000000000000D+00 0.165876007497D-02 0.000000000000D+00  5 4 -4 25 23 21 2 0.36099426D-02 0.94909349D-01 0.14375665D+05 0.14375665D+05 0.14375665D+05 0.12499329D+01  1  2 15  2  5  2       -4 0.298249967833D-02 0.100000000000D+01
0.255286455842D-03 0.000000000000D+00 0.000000000000D+00 0.165876007497D-02 0.000000000000D+00  5 4 -4 25 23 21 2 0.36099426D-02 0.13820021D+00 0.21345708D+05 0.21345708D+05 0.21345708D+05 0.12307247D+01  1  2 12  2  5  2       -4 0.103225777658D-01 0.100000000000D+01
-.308672835535D-03 0.000000000000D+00 0.000000000000D+00 0.165876007497D-02 0.000000000000D+00  5 4 -4 25 23 21 2 0.36099426D-02 0.94909349D-01 0.14375665D+05 0.14375665D+05 0.14375665D+05 0.12499329D+01  1  2  4  2  5  2       -4 -.303244403558D-01 0.100000000000D+01
-.436659636045D-03 0.000000000000D+00 -.144531373360D-03 0.165876007497D-02 0.000000000000D+00  5 4 -4 25 23 21 2 0.36099426D-02 0.14441774D+00 0.14375665D+05 0.14375665D+05 0.14375665D+05 0.12499329D+01  1  2  5  2  5  2       -4 -.157547583783D-01 0.100000000000D+01
0.467402786206D-03 0.000000000000D+00 0.132669101709D-03 0.165876007497D-02 0.000000000000D+00  5 4 -4 25 23 21 2 0.36099426D-02 0.94909349D-01 0.14375665D+05 0.14375665D+05 0.14375665D+05 0.12499329D+01  1  2  6  2  5  2       -4 0.459182871983D-01 0.100000000000D+01
0.116100697609D-04 0.000000000000D+00 0.000000000000D+00 0.165876007497D-02 0.000000000000D+00  5 4 21 25 23 4 2 0.36099426D-02 0.13820021D+00 0.21345708D+05 0.21345708D+05 0.21345708D+05 0.12307247D+01  1  2 12  4  5  2       -4 0.109571567981D-01 0.100000000000D+01
-.162771721451D-04 0.000000000000D+00 -.712920984563D-05 0.165876007497D-02 0.000000000000D+00  5 4 21 25 23 4 2 0.36099426D-02 0.14441774D+00 0.14375665D+05 0.14375665D+05 0.14375665D+05 0.12499329D+01  1  2  5  4  5  2       -4 -.140563300764D-01 0.100000000000D+01
  </mgrwgt>
  </event>
  <event>
  4     66 0.45228882E-03 0.10852334E+03 0.75467711E-02 0.11220310E+00
        2 -1    0    0  501    0 0.00000000E+00 0.00000000E+00 0.13228389E+03 0.13228428E+03 0.32000000E+00 0.0000E+00 0.9000E+01
       -2 -1    0    0    0  501 0.00000000E+00 0.00000000E+00 -.99623007E+02 0.99623521E+02 0.32000000E+00 0.0000E+00 0.9000E+01
       25  1    1    2    0    0 0.45326758E+01 0.83785577E+01 0.55996858E+02 0.13730038E+03 0.12500000E+03 0.0000E+00 0.9000E+01
       23  1    1    2    0    0 -.45326758E+01 -.83785577E+01 -.23335974E+02 0.94607423E+02 0.91188000E+02 0.0000E+00 0.9000E+01
#aMCatNLO 1  0  0  1  1 0.18701384D+03 0.00000000D+00  -5  5  0 0.00000000D+00 0.00000000D+00 0.00000000D+00 0.00000000D+00 0.00000000D+00
  <mgrwgt>
 0.1674170263D+00    3    2    0
 0.114798186101465D+03 0.000000000000000D+00 0.000000000000000D+00 0.114798186101465D+03
 0.114798186101465D+03 0.000000000000000D+00 0.000000000000000D+00 -.114798186101465D+03
 0.130716879820064D+03 0.453267584609805D+01 0.837855772116141D+01 0.370291410929342D+02
 0.988794923828650D+02 -.453267584609805D+01 -.837855772116141D+01 -.370291410929342D+02
 0.000000000000000D+00 -.000000000000000D+00 -.000000000000000D+00 -.000000000000000D+00
 0.225894943667798D+03 0.000000000000000D+00 0.000000000000000D+00 0.225894943667798D+03
 0.260397770831298D+03 0.000000000000000D+00 0.000000000000000D+00 -.260397770831298D+03
 0.176235327044348D+03 0.722882122352098D+02 0.940061039517385D+02 0.370291410929342D+02
 0.119887403807202D+03 0.437571492929883D+02 0.526487686779265D+02 -.370291410929342D+02
 0.190169983647546D+03 -.116045361528198D+03 -.146654872629665D+03 -.345028271634996D+02
0.196800342040D-03 0.000000000000D+00 0.000000000000D+00 0.163465283288D-02 0.000000000000D+00  5 2 -2 25 23 21 0 0.20351437D-01 0.15326686D-01 0.11777315D+05 0.11777315D+05 0.11777315D+05 0.12599786D+01  1  2  2  1  5  1        2 0.164005155591D+00 0.100000000000D+01
-.108913504723D-04 0.000000000000D+00 -.755765132152D-06 0.163465283288D-02 0.000000000000D+00  5 2 -2 25 23 21 2 0.20351437D-01 0.15326686D-01 0.11777315D+05 0.11777315D+05 0.11777315D+05 0.12599786D+01  1  2  3  1  5  1        2 -.144091958610D-01 0.100000000000D+01
0.134702508108D-04 0.000000000000D+00 0.000000000000D+00 0.163465283288D-02 0.000000000000D+00  5 2 -2 25 23 21 2 0.20351437D-01 0.15326686D-01 0.11777315D+05 0.11777315D+05 0.11777315D+05 0.12599786D+01  1  2 15  1  5  1        2 0.178210666090D-01 0.100000000000D+01
  </mgrwgt>
  </event>
  <event>
  5     66 -.45228882E-03 0.22846409E+03 0.75467711E-02 0.11145933E+00
        2 -1    0    0  501    0 0.00000000E+00 0.00000000E+00 0.20436431E+04 0.20436431E+04 0.32000000E+00 0.0000E+00 0.9000E+01
       -2 -1    0    0    0  502 0.00000000E+00 0.00000000E+00 -.70408502E+02 0.70409229E+02 0.32000000E+00 0.0000E+00 0.9000E+01
       25  1    1    2    0    0 -.12895187E+03 0.13105167E+03 0.65881326E+03 0.69531507E+03 0.12500000E+03 0.0000E+00 0.9000E+01
       23  1    1    2    0    0 0.16456518E+03 -.14271446E+03 0.13479312E+04 0.13684601E+04 0.91188000E+02 0.0000E+00 0.9000E+01
       21  1    1    2  501  502 -.35613312E+02 0.11662785E+02 -.33509862E+02 0.50277250E+02 0.75000000E+00 0.0000E+00 0.9000E+01
#aMCatNLO 2  0  0  2  1 0.37474371D+02 0.00000000D+00  -5  5  0 0.00000000D+00 0.00000000D+00 0.00000000D+00 0.00000000D+00 0.00000000D+00
  <mgrwgt>
 -.2571152016D-01    2    2    0
 0.240177033387931D+03 0.000000000000000D+00 0.000000000000000D+00 0.240177033387931D+03
 0.240177033387931D+03 0.000000000000000D+00 0.000000000000000D+00 -.240177033387931D+03
 0.247785742423188D+03 -.146796771176492D+03 0.136895590839972D+03 -.740478178540200D+02
 0.232568324352674D+03 0.146796771176492D+03 -.136895590839972D+03 0.740478178540200D+02
 0.000000000000000D+00 -.000000000000000D+00 0.000000000000000D+00 -.000000000000000D+00
 0.241898761494193D+03 0.000000000000000D+00 0.000000000000000D+00 0.241898761494193D+03
 0.594836351713365D+03 0.000000000000000D+00 0.000000000000000D+00 -.594836351713365D+03
 0.234331399978527D+03 -.128951869162681D+03 0.131051673497156D+03 -.740478178540200D+02
 0.247482213329732D+03 0.164565180662919D+03 -.142714458114873D+03 0.740478178540200D+02
 0.354921499899299D+03 -.356133115002375D+02 0.116627846177166D+02 -.352937590219172D+03
-.121652573461D-01 0.000000000000D+00 0.000000000000D+00 0.970535485860D-03 0.000000000000D+00  5 2 -2 25 23 21 2 0.31216838D+00 0.10821627D-01 0.61489999D+05 0.61489999D+05 0.61489999D+05 0.11834861D+01  1  2 13  2  5  2       -2 -.719262404600D+00 0.100000000000D+01
0.119572141510D-01 0.000000000000D+00 0.000000000000D+00 0.970535485860D-03 0.722450177205D-05  5 2 -2 25 23 21 2 0.31440618D+00 0.10832117D-01 0.61489999D+05 0.61489999D+05 0.61489999D+05 0.11834861D+01  1  2  1  2  5  2       -2 0.693550884440D+00 0.100000000000D+01
  </mgrwgt>
  </event>
  <event>
  4     66 0.45228882E-03 0.93658981E+02 0.75467711E-02 0.11397556E+00
        2 -1    0    0  501    0 0.00000000E+00 0.00000000E+00 0.13669844E+04 0.13669845E+04 0.32000000E+00 0.0000E+00 0.9000E+01
       -2 -1    0    0    0  501 0.00000000E+00 0.00000000E+00 -.24642252E+02 0.24644329E+02 0.32000000E+00 0.0000E+00 0.9000E+01
       25  1    1    2    0    0 0.97465121E+02 0.11091267E+03 0.69290550E+03 0.71940538E+03 0.12500000E+03 0.0000E+00 0.9000E+01
       23  1    1    2    0    0 -.97465121E+02 -.11091267E+03 0.64943668E+03 0.67222342E+03 0.91188000E+02 0.0000E+00 0.9000E+01
#aMCatNLO 1  0  0  2  1 0.53698278D+02 0.00000000D+00  -5  5  0 0.00000000D+00 0.00000000D+00 0.00000000D+00 0.00000000D+00 0.00000000D+00
  <mgrwgt>
 0.2078009431D+00    9    2    0
 0.183540312648094D+03 0.000000000000000D+00 0.000000000000000D+00 0.183540312648094D+03
 0.183540312648094D+03 0.000000000000000D+00 0.000000000000000D+00 -.183540312648094D+03
 0.193496910943226D+03 0.974651206469402D+02 0.110912671938613D+03 -.387091788672281D+01
 0.173583714352962D+03 -.974651206469402D+02 -.110912671938613D+03 0.387091788672281D+01
 0.000000000000000D+00 -.000000000000000D+00 0.000000000000000D+00 -.000000000000000D+00
 0.195632593746127D+03 0.000000000000000D+00 0.000000000000000D+00 0.195632593746127D+03
 0.256594003429474D+03 0.000000000000000D+00 0.000000000000000D+00 -.256594003429474D+03
 0.194898853087891D+03 0.118114134471931D+03 0.916222143785879D+02 -.387091788672281D+01
 0.176088600199816D+03 -.788748343305360D+02 -.128279851420148D+03 0.387091788672281D+01
 0.812391438878947D+02 -.392393001413953D+02 0.366576370415601D+02 -.609614096833463D+02
0.364171659749D-03 0.000000000000D+00 0.000000000000D+00 0.118434478727D-02 0.000000000000D+00  5 2 -2 25 23 21 0 0.21030546D+00 0.37912784D-02 0.33672018D+05 0.33672018D+05 0.33672018D+05 0.12096702D+01  1  2  2  2  5  2       -2 0.173453005788D+00 0.100000000000D+01
-.202317576505D-04 0.000000000000D+00 -.139851506204D-05 0.118434478727D-02 0.000000000000D+00  5 2 -2 25 23 21 2 0.21030546D+00 0.37912784D-02 0.33672018D+05 0.33672018D+05 0.33672018D+05 0.12096702D+01  1  2  3  2  5  2       -2 -.141007832215D-01 0.100000000000D+01
0.249986366211D-04 0.000000000000D+00 0.000000000000D+00 0.118434478727D-02 0.000000000000D+00  5 2 -2 25 23 21 2 0.21030546D+00 0.37912784D-02 0.33672018D+05 0.33672018D+05 0.33672018D+05 0.12096702D+01  1  2 15  2  5  2       -2 0.174231207153D-01 0.100000000000D+01
0.414746610192D-03 0.000000000000D+00 0.000000000000D+00 0.118434478727D-02 0.000000000000D+00  5 2 -2 25 23 21 2 0.21030546D+00 0.53870089D-02 0.45072295D+05 0.45072295D+05 0.45072295D+05 0.11967703D+01  1  2 12  2  5  2       -2 0.166912483625D+00 0.100000000000D+01
-.437301966558D-03 0.000000000000D+00 0.000000000000D+00 0.118434478727D-02 0.000000000000D+00  5 2 -2 25 23 21 2 0.21030546D+00 0.37912784D-02 0.33672018D+05 0.33672018D+05 0.33672018D+05 0.12096702D+01  1  2  4  2  5  2       -2 -.304783219495D+00 0.100000000000D+01
-.572359648004D-03 0.000000000000D+00 -.135722619391D-03 0.118434478727D-02 0.000000000000D+00  5 2 -2 25 23 21 2 0.21030546D+00 0.56630827D-02 0.33672018D+05 0.33672018D+05 0.33672018D+05 0.12096702D+01  1  2  5  2  5  2       -2 -.217865038738D+00 0.100000000000D+01
0.589000732902D-03 0.000000000000D+00 0.125484015581D-03 0.118434478727D-02 0.000000000000D+00  5 2 -2 25 23 21 2 0.21030546D+00 0.37912784D-02 0.33672018D+05 0.33672018D+05 0.33672018D+05 0.12096702D+01  1  2  6  2  5  2       -2 0.410511622145D+00 0.100000000000D+01
0.179640341840D-04 0.000000000000D+00 0.000000000000D+00 0.118434478727D-02 0.000000000000D+00  5 2 21 25 23 2 2 0.21030546D+00 0.53870089D-02 0.45072295D+05 0.45072295D+05 0.45072295D+05 0.11967703D+01  1  2 12  4  5  2       -2 0.125603128908D+00 0.100000000000D+01
-.226550685091D-04 0.000000000000D+00 -.647536204396D-05 0.118434478727D-02 0.000000000000D+00  5 2 21 25 23 2 2 0.21030546D+00 0.56630827D-02 0.33672018D+05 0.33672018D+05 0.33672018D+05 0.12096702D+01  1  2  5  4  5  2       -2 -.149353376605D+00 0.100000000000D+01
  </mgrwgt>
  </event>
  <event>
  5     66 0.45228882E-03 0.16951167E+03 0.75467711E-02 0.11139637E+00
        2 -1    0    0  501    0 0.00000000E+00 0.00000000E+00 0.22810275E+04 0.22810275E+04 0.32000000E+00 0.0000E+00 0.9000E+01
       -2 -1    0    0    0  502 0.00000000E+00 0.00000000E+00 -.54456525E+02 0.54457465E+02 0.32000000E+00 0.0000E+00 0.9000E+01
       25  1    1    2    0    0 0.95554057E+02 -.11504648E+03 0.16225713E+04 0.16342365E+04 0.12500000E+03 0.0000E+00 0.9000E+01
       23  1    1    2    0    0 -.14245359E+03 -.10019638E+02 0.51134568E+03 0.53868643E+03 0.91188000E+02 0.0000E+00 0.9000E+01
       21  1    1    2  501  502 0.46899533E+02 0.12506611E+03 0.92653987E+02 0.16256206E+03 0.75000000E+00 0.0000E+00 0.9000E+01
#aMCatNLO 2  0  0  2  1 0.13357058D+03 0.00000000D+00  -5  5  0 0.00000000D+00 0.00000000D+00 0.00000000D+00 0.00000000D+00 0.00000000D+00
  <mgrwgt>
 0.4999019455D-01    2    2    0
 0.193746769917325D+03 0.000000000000000D+00 0.000000000000000D+00 0.193746769917325D+03
 0.193746769917325D+03 0.000000000000000D+00 0.000000000000000D+00 -.193746769917325D+03
 0.203178860913112D+03 0.120224655050503D+03 -.492578510431575D+02 0.936821538530551D+02
 0.184314678921538D+03 -.120224655050503D+03 0.492578510431575D+02 -.936821538530551D+02
 0.000000000000000D+00 0.000000000000000D+00 0.000000000000000D+00 -.000000000000000D+00
 0.217078054939656D+03 0.000000000000000D+00 0.000000000000000D+00 0.217078054939656D+03
 0.572225288896582D+03 0.000000000000000D+00 0.000000000000000D+00 -.572225288896582D+03
 0.216258215020363D+03 0.955540569230584D+02 -.115046476776957D+03 0.936821538530551D+02
 0.193610474419550D+03 -.142453590247947D+03 -.100196375126921D+02 -.936821538530551D+02
 0.379434654396326D+03 0.468995333248883D+02 0.125066114289649D+03 -.355147233956926D+03
-.660349421499D-04 0.000000000000D+00 0.000000000000D+00 0.914384136136D-03 0.000000000000D+00  5 2 -2 25 23 21 2 0.31320963D+00 0.81750130D-02 0.61981181D+05 0.61981181D+05 0.61981181D+05 0.11831518D+01  1  2 13  2  5  2       -2 -.603682914818D-02 0.100000000000D+01
0.858674182729D-03 0.000000000000D+00 0.000000000000D+00 0.914384136136D-03 0.660116972887D-06  5 2 -2 25 23 21 2 0.35092682D+00 0.83779873D-02 0.61981181D+05 0.61981181D+05 0.61981181D+05 0.11831518D+01  1  2  1  2  5  2       -2 0.560270236998D-01 0.100000000000D+01
  </mgrwgt>
  </event>
  <event>
  4     66 0.45228882E-03 0.75428646E+02 0.75467711E-02 0.11804796E+00
        2 -1    0    0  501    0 0.00000000E+00 0.00000000E+00 0.18066223E+04 0.18066223E+04 0.32000000E+00 0.0000E+00 0.9000E+01
       -2 -1    0    0    0  501 0.00000000E+00 0.00000000E+00 -.11613036E+02 0.11617444E+02 0.32000000E+00 0.0000E+00 0.9000E+01
       25  1    1    2    0    0 0.44214132E+02 0.61597132E+02 0.60841557E+03 0.62573445E+03 0.12500000E+03 0.0000E+00 0.9000E+01
       23  1    1    2    0    0 -.44214132E+02 -.61597132E+02 0.11865937E+04 0.11925053E+04 0.91188000E+02 0.0000E+00 0.9000E+01
#aMCatNLO 1  0  0  1  2 0.62675049D+02 0.00000000D+00  -5  5  0 0.00000000D+00 0.00000000D+00 0.00000000D+00 0.00000000D+00 0.00000000D+00
  <mgrwgt>
 0.1845447061D+00    9    2    0
 0.144859940793718D+03 0.000000000000000D+00 0.000000000000000D+00 0.144859940793718D+03
 0.144859940793718D+03 0.000000000000000D+00 0.000000000000000D+00 -.144859940793718D+03
 0.157475141062247D+03 0.442141322639620D+02 0.615971319675883D+02 -.585177229058594D+02
 0.132244740525189D+03 -.442141322639620D+02 -.615971319675883D+02 0.585177229058594D+02
 0.000000000000000D+00 0.000000000000000D+00 0.000000000000000D+00 0.000000000000000D+00
 0.228016449659580D+03 0.000000000000000D+00 0.000000000000000D+00 0.228016449659580D+03
 0.160516206380520D+03 0.000000000000000D+00 0.000000000000000D+00 -.160516206380520D+03
 0.145161997321039D+03 0.197632396773265D+02 0.403992070417580D+02 -.585177229058594D+02
 0.151259613801023D+03 -.671192342369210D+02 -.814549195849885D+02 0.585177229058594D+02
 0.921110449180391D+02 0.473559945595945D+02 0.410557125432305D+02 0.675002432790600D+02
0.182478270683D-03 0.000000000000D+00 0.000000000000D+00 0.120086321219D-02 0.000000000000D+00  5 2 -2 25 23 21 0 0.27794223D+00 0.17869621D-02 0.17528704D+05 0.17528704D+05 0.17528704D+05 0.12401824D+01  1  2  2  1  5  1        2 0.153489046657D+00 0.100000000000D+01
-.100379085131D-04 0.000000000000D+00 -.700764607056D-06 0.120086321219D-02 0.000000000000D+00  5 2 -2 25 23 21 2 0.27794223D+00 0.17869621D-02 0.17528704D+05 0.17528704D+05 0.17528704D+05 0.12401824D+01  1  2  3  1  5  1        2 -.129861548724D-01 0.100000000000D+01
0.125765833307D-04 0.000000000000D+00 0.000000000000D+00 0.120086321219D-02 0.000000000000D+00  5 2 -2 25 23 21 2 0.27794223D+00 0.17869621D-02 0.17528704D+05 0.17528704D+05 0.17528704D+05 0.12401824D+01  1  2 15  1  5  1        2 0.162704669689D-01 0.100000000000D+01
0.122764339310D-03 0.000000000000D+00 0.000000000000D+00 0.120086321219D-02 0.000000000000D+00  5 2 -2 25 23 21 2 0.44544088D+00 0.17869621D-02 0.28056473D+05 0.28056473D+05 0.28056473D+05 0.12179632D+01  1  2 12  1  5  1        2 0.404396682786D-01 0.100000000000D+01
-.174951302875D-03 0.000000000000D+00 0.000000000000D+00 0.120086321219D-02 0.000000000000D+00  5 2 -2 25 23 21 2 0.27794223D+00 0.17869621D-02 0.17528704D+05 0.17528704D+05 0.17528704D+05 0.12401824D+01  1  2  4  1  5  1        2 -.226336463547D+00 0.100000000000D+01
-.206272101088D-03 0.000000000000D+00 -.635985832805D-04 0.120086321219D-02 0.000000000000D+00  5 2 -2 25 23 21 2 0.45014669D+00 0.17869621D-02 0.17528704D+05 0.17528704D+05 0.17528704D+05 0.12401824D+01  1  2  5  1  5  1        2 -.680757715701D-01 0.100000000000D+01
0.217857253948D-03 0.000000000000D+00 0.568601608372D-04 0.120086321219D-02 0.000000000000D+00  5 2 -2 25 23 21 2 0.27794223D+00 0.17869621D-02 0.17528704D+05 0.17528704D+05 0.17528704D+05 0.12401824D+01  1  2  6  1  5  1        2 0.281844373871D+00 0.100000000000D+01
0.661296352373D-05 0.000000000000D+00 0.000000000000D+00 0.120086321219D-02 0.000000000000D+00  5 21 -2 25 23 -2 2 0.44544088D+00 0.17869621D-02 0.28056473D+05 0.28056473D+05 0.28056473D+05 0.12179632D+01  1  2 12  3  5  1        2 0.316375480275D-03 0.100000000000D+01
-.855159850917D-05 0.000000000000D+00 -.348493115100D-05 0.120086321219D-02 0.000000000000D+00  5 21 -2 25 23 -2 2 0.45014669D+00 0.17869621D-02 0.17528704D+05 0.17528704D+05 0.17528704D+05 0.12401824D+01  1  2  5  3  5  1        2 -.416835166447D-03 0.100000000000D+01
  </mgrwgt>
  </event>
  <event>
  4     66 0.45228882E-03 0.72034730E+02 0.75467711E-02 0.11864293E+00
        2 -1    0    0  501    0 0.00000000E+00 0.00000000E+00 0.53765715E+03 0.53765724E+03 0.32000000E+00 0.0000E+00 0.9000E+01
       -2 -1    0    0    0  501 0.00000000E+00 0.00000000E+00 -.47217277E+02 0.47218361E+02 0.32000000E+00 0.0000E+00 0.9000E+01
       25  1    1    2    0    0 0.15098770E+02 0.63314984E+02 0.43998121E+03 0.46200133E+03 0.12500000E+03 0.0000E+00 0.9000E+01
       23  1    1    2    0    0 -.15098770E+02 -.63314984E+02 0.50458659E+02 0.12287428E+03 0.91188000E+02 0.0000E+00 0.9000E+01
#aMCatNLO 1  0  0  1  2 0.64309270D+02 0.00000000D+00  -5  5  0 0.00000000D+00 0.00000000D+00 0.00000000D+00 0.00000000D+00 0.00000000D+00
  <mgrwgt>
 0.4215997442D+00    8    2    0
 0.159333145327723D+03 0.000000000000000D+00 0.000000000000000D+00 0.159333145327723D+03
 0.159333145327723D+03 0.000000000000000D+00 0.000000000000000D+00 -.159333145327723D+03
 0.170802429764688D+03 0.150987697761886D+02 0.633149839926098D+02 0.964972018598599D+02
 0.147863860890758D+03 -.150987697761886D+02 -.633149839926098D+02 -.964972018598599D+02
 0.000000000000000D+00 -.000000000000000D+00 -.000000000000000D+00 0.000000000000000D+00
 0.308323645399236D+03 0.000000000000000D+00 0.000000000000000D+00 0.308323645399236D+03
 0.169637706060332D+03 0.000000000000000D+00 0.000000000000000D+00 -.169637706060332D+03
 0.183254118667496D+03 0.457648528042006D+02 0.809378792014474D+02 0.964972018598599D+02
 0.141836464043700D+03 0.999319436632386D+01 -.488953708237716D+02 -.964972018598599D+02
 0.152870768748372D+03 -.557580471705244D+02 -.320425083776757D+02 0.138685939338905D+03
0.196111692485D-03 0.000000000000D+00 0.000000000000D+00 0.891220603439D-03 0.000000000000D+00  5 2 -2 25 23 21 0 0.82716575D-01 0.72642871D-02 0.15998141D+05 0.15998141D+05 0.15998141D+05 0.12446455D+01  1  2  2  1  5  1        2 0.118424020402D+00 0.100000000000D+01
-.101889427539D-04 0.000000000000D+00 -.753120536536D-06 0.891220603439D-03 0.000000000000D+00  5 2 -2 25 23 21 2 0.82716575D-01 0.72642871D-02 0.15998141D+05 0.15998141D+05 0.15998141D+05 0.12446455D+01  1  2  3  1  5  1        2 -.953140256210D-02 0.100000000000D+01
0.133358433748D-04 0.000000000000D+00 0.000000000000D+00 0.891220603439D-03 0.000000000000D+00  5 2 -2 25 23 21 2 0.82716575D-01 0.72642871D-02 0.15998141D+05 0.15998141D+05 0.15998141D+05 0.12446455D+01  1  2 15  1  5  1        2 0.124752189487D-01 0.100000000000D+01
0.271811754720D-03 0.000000000000D+00 0.000000000000D+00 0.891220603439D-03 0.000000000000D+00  5 2 -2 25 23 21 2 0.16038580D+00 0.72642871D-02 0.26252108D+05 0.26252108D+05 0.26252108D+05 0.12210287D+01  1  2 12  1  5  1        2 0.109276817857D+00 0.100000000000D+01
-.410551440845D-03 0.000000000000D+00 -.744404075154D-04 0.891220603439D-03 0.000000000000D+00  5 2 -2 25 23 21 2 0.16436778D+00 0.72642871D-02 0.15998141D+05 0.15998141D+05 0.15998141D+05 0.12446455D+01  1  2  5  1  5  1        2 -.164850555754D+00 0.100000000000D+01
0.382535892732D-03 0.000000000000D+00 0.597828230269D-04 0.891220603439D-03 0.000000000000D+00  5 2 -2 25 23 21 2 0.82716575D-01 0.72642871D-02 0.15998141D+05 0.15998141D+05 0.15998141D+05 0.12446455D+01  1  2  6  1  5  1        2 0.357849060118D+00 0.100000000000D+01
0.195143776646D-04 0.000000000000D+00 0.000000000000D+00 0.891220603439D-03 0.000000000000D+00  5 21 -2 25 23 -2 2 0.16038580D+00 0.72642871D-02 0.26252108D+05 0.26252108D+05 0.26252108D+05 0.12210287D+01  1  2 12  3  5  1        2 0.633204357755D-02 0.100000000000D+01
-.260708830245D-04 0.000000000000D+00 -.553268580591D-05 0.891220603439D-03 0.000000000000D+00  5 21 -2 25 23 -2 2 0.16436778D+00 0.72642871D-02 0.15998141D+05 0.15998141D+05 0.15998141D+05 0.12446455D+01  1  2  5  3  5  1        2 -.837545838505D-02 0.100000000000D+01
  </mgrwgt>
  </event>
  <event>
  4     66 0.45228882E-03 0.10165949E+03 0.75467711E-02 0.11307380E+00
        2 -1    0    0  501    0 0.00000000E+00 0.00000000E+00 0.42586481E+04 0.42586481E+04 0.32000000E+00 0.0000E+00 0.9000E+01
       -2 -1    0    0    0  501 0.00000000E+00 0.00000000E+00 -.10454776E+02 0.10459672E+02 0.32000000E+00 0.0000E+00 0.9000E+01
       25  1    1    2    0    0 0.16047539E+03 0.72009591E+02 0.17941093E+04 0.18070393E+04 0.12500000E+03 0.0000E+00 0.9000E+01
       23  1    1    2    0    0 -.16047539E+03 -.72009591E+02 0.24540840E+04 0.24620685E+04 0.91188000E+02 0.0000E+00 0.9000E+01
#aMCatNLO 1  0  0  2  1 0.33355383D+02 0.00000000D+00  -5  5  0 0.00000000D+00 0.00000000D+00 0.00000000D+00 0.00000000D+00 0.00000000D+00
  <mgrwgt>
 0.1332932994D+00    6    2    0
 0.211030063427041D+03 0.000000000000000D+00 0.000000000000000D+00 0.211030063427041D+03
 0.211030063427041D+03 0.000000000000000D+00 0.000000000000000D+00 -.211030063427041D+03
 0.219689669240181D+03 0.160475391914541D+03 0.720095908580385D+02 -.412409770154936D+02
 0.202370457613902D+03 -.160475391914541D+03 -.720095908580385D+02 0.412409770154936D+02
 0.000000000000000D+00 -.000000000000000D+00 -.000000000000000D+00 0.000000000000000D+00
 0.231457640453378D+03 0.000000000000000D+00 0.000000000000000D+00 0.231457640453378D+03
 0.225757415849420D+03 0.000000000000000D+00 0.000000000000000D+00 -.225757415849420D+03
 0.231637021809254D+03 0.169364771210371D+03 0.874383552014063D+02 -.412409770154936D+02
 0.191739090255091D+03 -.152712967656030D+03 -.585368150170992D+02 0.412409770154936D+02
 0.338389442384520D+02 -.166518035543413D+02 -.289015401843071D+02 0.570022460395850D+01
0.333311211228D-02 0.000000000000D+00 0.000000000000D+00 0.107418399110D-02 0.000000000000D+00  5 2 -2 25 23 21 0 0.65517700D+00 0.16088046D-02 0.42829886D+05 0.42829886D+05 0.42829886D+05 0.11989972D+01  1  2  2  2  5  2       -2 0.101053429256D+00 0.100000000000D+01
-.185087241421D-03 0.000000000000D+00 -.128000281397D-04 0.107418399110D-02 0.000000000000D+00  5 2 -2 25 23 21 2 0.65517700D+00 0.16088046D-02 0.42829886D+05 0.42829886D+05 0.42829886D+05 0.11989972D+01  1  2  3  2  5  2       -2 -.806703512788D-02 0.100000000000D+01
0.229249925132D-03 0.000000000000D+00 0.000000000000D+00 0.107418399110D-02 0.000000000000D+00  5 2 -2 25 23 21 2 0.65517700D+00 0.16088046D-02 0.42829886D+05 0.42829886D+05 0.42829886D+05 0.11989972D+01  1  2 15  2  5  2       -2 0.999186753718D-02 0.100000000000D+01
0.153442251592D-02 0.000000000000D+00 0.000000000000D+00 0.107418399110D-02 0.000000000000D+00  5 2 -2 25 23 21 2 0.65517700D+00 0.17928777D-02 0.50297677D+05 0.50297677D+05 0.50297677D+05 0.11920265D+01  1  2 12  2  5  2       -2 0.559808415858D-01 0.100000000000D+01
-.105727075876D-02 0.000000000000D+00 0.000000000000D+00 0.107418399110D-02 0.000000000000D+00  5 2 -2 25 23 21 2 0.65517700D+00 0.16088046D-02 0.42829886D+05 0.42829886D+05 0.42829886D+05 0.11989972D+01  1  2  4  2  5  2       -2 -.460811900653D-01 0.100000000000D+01
0.266958445355D-04 0.000000000000D+00 0.000000000000D+00 0.107418399110D-02 0.000000000000D+00  5 2 21 25 23 2 2 0.65517700D+00 0.17928777D-02 0.50297677D+05 0.50297677D+05 0.50297677D+05 0.11920265D+01  1  2 12  4  5  2       -2 0.204153861798D-01 0.100000000000D+01
  </mgrwgt>
  </event>
  <event>
  4     66 0.45228882E-03 0.13354886E+03 0.75467711E-02 0.11874063E+00
        2 -1    0    0  501    0 0.00000000E+00 0.00000000E+00 0.14393977E+02 0.14397534E+02 0.32000000E+00 0.0000E+00 0.9000E+01
       -2 -1    0    0    0  501 0.00000000E+00 0.00000000E+00 -.13042368E+04 0.13042369E+04 0.32000000E+00 0.0000E+00 0.9000E+01
       25  1    1    2    0    0 -.37207687E+02 -.68322791E+02 -.85449634E+03 0.86708789E+03 0.12500000E+03 0.0000E+00 0.9000E+01
       23  1    1    2    0    0 0.37207687E+02 0.68322791E+02 -.43534653E+03 0.45154653E+03 0.91188000E+02 0.0000E+00 0.9000E+01
#aMCatNLO 1  0  0  2  1 0.50490886D+02 0.00000000D+00  -5  5  0 0.00000000D+00 0.00000000D+00 0.00000000D+00 0.00000000D+00 0.00000000D+00
  <mgrwgt>
 0.1091923986D+00    4    2    0
 0.137023817190895D+03 0.000000000000000D+00 0.000000000000000D+00 0.137023817190895D+03
 0.137023817190895D+03 0.000000000000000D+00 0.000000000000000D+00 -.137023817190895D+03
 0.150360456042914D+03 -.372076870764145D+02 -.683227913150729D+02 -.305098500614748D+02
 0.123687178338877D+03 0.372076870764145D+02 0.683227913150729D+02 0.305098500614748D+02
 0.000000000000000D+00 0.000000000000000D+00 -.000000000000000D+00 0.000000000000000D+00
 0.180414863764552D+03 0.000000000000000D+00 0.000000000000000D+00 0.180414863764552D+03
 0.154842633247292D+03 0.000000000000000D+00 0.000000000000000D+00 -.154842633247292D+03
 0.154911862497180D+03 -.633343677425128D+02 -.585712562117942D+02 -.305098500614748D+02
 0.123748209096496D+03 0.160309705502246D+02 0.762267993755106D+02 0.305098500614748D+02
 0.565974254181679D+02 0.473033971922882D+02 -.176555431637163D+02 0.255722305172592D+02
0.222848206556D-02 0.000000000000D+00 0.000000000000D+00 0.139621752626D-02 0.000000000000D+00  5 2 -2 25 23 21 0 0.22147347D-02 0.20065210D+00 0.17835299D+05 0.17835299D+05 0.17835299D+05 0.12393409D+01  1  2  2  2  5  2       -2 0.147380831128D+00 0.100000000000D+01
-.123705234774D-03 0.000000000000D+00 -.855795790457D-05 0.139621752626D-02 0.000000000000D+00  5 2 -2 25 23 21 2 0.22147347D-02 0.20065210D+00 0.17835299D+05 0.17835299D+05 0.17835299D+05 0.12393409D+01  1  2  3  2  5  2       -2 -.125661292143D-01 0.100000000000D+01
0.153767400859D-03 0.000000000000D+00 0.000000000000D+00 0.139621752626D-02 0.000000000000D+00  5 2 -2 25 23 21 2 0.22147347D-02 0.20065210D+00 0.17835299D+05 0.17835299D+05 0.17835299D+05 0.12393409D+01  1  2 15  2  5  2       -2 0.156198808536D-01 0.100000000000D+01
-.406002038007D-03 0.000000000000D+00 0.000000000000D+00 0.139621752626D-02 0.000000000000D+00  5 2 -2 25 23 21 2 0.22147347D-02 0.20065210D+00 0.17835299D+05 0.17835299D+05 0.17835299D+05 0.12393409D+01  1  2  4  2  5  2       -2 -.412421841339D-01 0.100000000000D+01
  </mgrwgt>
  </event>
  <event>
  4     66 0.45228882E-03 0.15733331E+03 0.75467711E-02 0.11448071E+00
        2 -1    0    0  501    0 0.00000000E+00 0.00000000E+00 0.12612774E+04 0.12612774E+04 0.32000000E+00 0.0000E+00 0.9000E+01
       -2 -1    0    0    0  501 0.00000000E+00 0.00000000E+00 -.21350946E+02 0.21353344E+02 0.32000000E+00 0.0000E+00 0.9000E+01
       25  1    1    2    0    0 -.95735635E+02 -.61263714E+02 0.84392197E+03 0.86066709E+03 0.12500000E+03 0.0000E+00 0.9000E+01
       23  1    1    2    0    0 0.95735635E+02 0.61263714E+02 0.39600448E+03 0.42196369E+03 0.91188000E+02 0.0000E+00 0.9000E+01
#aMCatNLO 1  0  0  2  1 0.86237667D+02 0.00000000D+00  -5  5  0 0.00000000D+00 0.00000000D+00 0.00000000D+00 0.00000000D+00 0.00000000D+00
  <mgrwgt>
 0.1757816695D+00    4    2    0
 0.164106763977510D+03 0.000000000000000D+00 0.000000000000000D+00 0.164106763977510D+03
 0.164106763977510D+03 0.000000000000000D+00 0.000000000000000D+00 -.164106763977510D+03
 0.175242424200817D+03 -.957356347174165D+02 -.612637135733545D+02 0.465440961265185D+02
 0.152971103754203D+03 0.957356347174165D+02 0.612637135733545D+02 -.465440961265185D+02
 0.000000000000000D+00 0.000000000000000D+00 -.000000000000000D+00 0.000000000000000D+00
 0.246780354419225D+03 0.000000000000000D+00 0.000000000000000D+00 0.246780354419225D+03
 0.193790447186846D+03 0.000000000000000D+00 0.000000000000000D+00 -.193790447186846D+03
 0.205037225818465D+03 -.144716398813143D+03 -.574984782551052D+02 0.465440961265185D+02
 0.134316653060876D+03 0.587324086877397D+02 0.641082150038305D+02 -.465440961265185D+02
 0.101216922726731D+03 0.859839901254035D+02 -.660973674872533D+01 0.529899072323785D+02
0.311540400323D-03 0.000000000000D+00 0.000000000000D+00 0.117758695308D-02 0.000000000000D+00  5 2 -2 25 23 21 0 0.19404286D+00 0.32849486D-02 0.24753770D+05 0.24753770D+05 0.24753770D+05 0.12237588D+01  1  2  2  2  5  2       -2 0.208671519716D+00 0.100000000000D+01
-.172704120062D-04 0.000000000000D+00 -.119639716771D-05 0.117758695308D-02 0.000000000000D+00  5 2 -2 25 23 21 2 0.19404286D+00 0.32849486D-02 0.24753770D+05 0.24753770D+05 0.24753770D+05 0.12237588D+01  1  2  3  2  5  2       -2 -.173237993638D-01 0.100000000000D+01
0.214164658931D-04 0.000000000000D+00 0.000000000000D+00 0.117758695308D-02 0.000000000000D+00  5 2 -2 25 23 21 2 0.19404286D+00 0.32849486D-02 0.24753770D+05 0.24753770D+05 0.24753770D+05 0.12237588D+01  1  2 15  2  5  2       -2 0.214826697869D-01 0.100000000000D+01
-.369345462981D-04 0.000000000000D+00 0.000000000000D+00 0.117758695308D-02 0.000000000000D+00  5 2 -2 25 23 21 2 0.19404286D+00 0.32849486D-02 0.24753770D+05 0.24753770D+05 0.24753770D+05 0.12237588D+01  1  2  4  2  5  2       -2 -.370487206345D-01 0.100000000000D+01
  </mgrwgt>
  </event>
  <event>
  4     66 0.45228882E-03 0.75186249E+02 0.75467711E-02 0.12354016E+00
        2 -1    0    0  501    0 0.00000000E+00 0.00000000E+00 0.35344899E+03 0.35344913E+03 0.32000000E+00 0.0000E+00 0.9000E+01
       -2 -1    0    0    0  501 0.00000000E+00 0.00000000E+00 -.38002960E+02 0.38004307E+02 0.32000000E+00 0.0000E+00 0.9000E+01
       25  1    1    2    0    0 -.34831628E+02 -.17852034E+02 0.20177220E+03 0.24055967E+03 0.12500000E+03 0.0000E+00 0.9000E+01
       23  1    1    2    0    0 0.34831628E+02 0.17852034E+02 0.11367383E+03 0.15089377E+03 0.91188000E+02 0.0000E+00 0.9000E+01
#aMCatNLO 1  0  0  1  2 0.18619219D+02 0.00000000D+00  -5  5  0 0.00000000D+00 0.00000000D+00 0.00000000D+00 0.00000000D+00 0.00000000D+00
  <mgrwgt>
 0.2028540710D+00    6    2    0
 0.115898230368321D+03 0.000000000000000D+00 0.000000000000000D+00 0.115898230368321D+03
 0.115898230368321D+03 0.000000000000000D+00 0.000000000000000D+00 -.115898230368321D+03
 0.131665832325594D+03 -.348316275041752D+02 -.178520340090431D+02 0.133773692907739D+02
 0.100130628411048D+03 0.348316275041752D+02 0.178520340090431D+02 -.133773692907739D+02
 0.000000000000000D+00 0.000000000000000D+00 0.000000000000000D+00 -.000000000000000D+00
 0.123978527943453D+03 0.000000000000000D+00 0.000000000000000D+00 0.123978527943453D+03
 0.127517001012855D+03 0.000000000000000D+00 0.000000000000000D+00 -.127517001012855D+03
 0.135233502368058D+03 -.444287800518357D+02 -.225882636936862D+02 0.133773692907739D+02
 0.973095571224831D+02 0.277320834690482D+02 0.143483832084942D+02 -.133773692907739D+02
 0.189524694657661D+02 0.166966965827876D+02 0.823988048519196D+01 -.353847306940149D+01
0.103171051873D-03 0.000000000000D+00 0.000000000000D+00 0.172973685502D-02 0.000000000000D+00  5 2 -2 25 23 21 0 0.54376882D-01 0.58467240D-02 0.13250024D+05 0.13250024D+05 0.13250024D+05 0.12540115D+01  1  2  2  1  5  1        2 0.135176353208D+00 0.100000000000D+01
-.573139951833D-05 0.000000000000D+00 -.396204004753D-06 0.172973685502D-02 0.000000000000D+00  5 2 -2 25 23 21 2 0.54376882D-01 0.58467240D-02 0.13250024D+05 0.13250024D+05 0.13250024D+05 0.12540115D+01  1  2  3  1  5  1        2 -.118088218261D-01 0.100000000000D+01
0.713272211057D-05 0.000000000000D+00 0.000000000000D+00 0.172973685502D-02 0.000000000000D+00  5 2 -2 25 23 21 2 0.54376882D-01 0.58467240D-02 0.13250024D+05 0.13250024D+05 0.13250024D+05 0.12540115D+01  1  2 15  1  5  1        2 0.146960693055D-01 0.100000000000D+01
0.127728970549D-03 0.000000000000D+00 0.000000000000D+00 0.172973685502D-02 0.000000000000D+00  5 2 -2 25 23 21 2 0.60677800D-01 0.58467240D-02 0.15571934D+05 0.15571934D+05 0.15571934D+05 0.12459741D+01  1  2 12  1  5  1        2 0.232818968090D+00 0.100000000000D+01
-.866552367882D-04 0.000000000000D+00 0.000000000000D+00 0.172973685502D-02 0.000000000000D+00  5 2 -2 25 23 21 2 0.54376882D-01 0.58467240D-02 0.13250024D+05 0.13250024D+05 0.13250024D+05 0.12540115D+01  1  2  4  1  5  1        2 -.178542125402D+00 0.100000000000D+01
0.224510460749D-05 0.000000000000D+00 0.000000000000D+00 0.172973685502D-02 0.000000000000D+00  5 21 -2 25 23 -2 2 0.60677800D-01 0.58467240D-02 0.15571934D+05 0.15571934D+05 0.15571934D+05 0.12459741D+01  1  2 12  3  5  1        2 0.105136276112D-01 0.100000000000D+01
  </mgrwgt>
  </event>
  <event>
  5     66 0.45228882E-03 0.11565581E+03 0.75467711E-02 0.12423219E+00
        2 -1    0    0  501    0 0.00000000E+00 0.00000000E+00 0.12980963E+04 0.12980963E+04 0.32000000E+00 0.0000E+00 0.9000E+01
       -2 -1    0    0    0  502 0.00000000E+00 0.00000000E+00 -.17412289E+02 0.17415229E+02 0.32000000E+00 0.0000E+00 0.9000E+01
       25  1    1    2    0    0 -.26881198E+02 0.24938969E+02 0.28824008E+03 0.31630981E+03 0.12500000E+03 0.0000E+00 0.9000E+01
       23  1    1    2    0    0 0.36212454E+02 -.25341385E+02 0.78050465E+03 0.78705546E+03 0.91188000E+02 0.0000E+00 0.9000E+01
       21  1    1    2  501  502 -.93312563E+01 0.40241671E+00 0.21193927E+03 0.21214630E+03 0.75000000E+00 0.0000E+00 0.9000E+01
#aMCatNLO 2  0  0  2  1 0.93399295D+01 0.00000000D+00  -5  5  0 0.00000000D+00 0.00000000D+00 0.00000000D+00 0.00000000D+00 0.00000000D+00
  <mgrwgt>
 0.1221399393D-01    1    2    0
 0.137033179591015D+03 0.000000000000000D+00 0.000000000000000D+00 0.137033179591015D+03
 0.137033179591015D+03 0.000000000000000D+00 0.000000000000000D+00 -.137033179591015D+03
 0.150368907255323D+03 -.319817130649080D+02 0.251589317727183D+02 -.730068931721496D+02
 0.123697451926707D+03 0.319817130649080D+02 -.251589317727183D+02 0.730068931721496D+02
 0.000000000000000D+00 -.000000000000000D+00 0.000000000000000D+00 0.000000000000000D+00
 0.163876774089063D+03 0.000000000000000D+00 0.000000000000000D+00 0.163876774089063D+03
 0.137927576435719D+03 0.000000000000000D+00 0.000000000000000D+00 -.137927576435719D+03
 0.149330363328699D+03 -.268811979843760D+02 0.249389686265587D+02 -.730068931721496D+02
 0.124895097776003D+03 0.362124542548874D+02 -.253413853343766D+02 0.730068931721496D+02
 0.275788894200797D+02 -.933125627051132D+01 0.402416707817842D+00 0.259491976533436D+02
0.916092767473D-05 0.000000000000D+00 0.000000000000D+00 0.112539758754D-02 0.109337362713D-03  5 2 -2 25 23 21 2 0.19970001D+00 0.26789445D-02 0.14513279D+05 0.14513279D+05 0.14513279D+05 0.12494590D+01  1  2  1  2  5  2       -2 0.122139939319D-01 0.100000000000D+01
  </mgrwgt>
  </event>
  <event>
  4     66 0.45228882E-03 0.11400186E+03 0.75467711E-02 0.12190655E+00
        2 -1    0    0  501    0 0.00000000E+00 0.00000000E+00 0.54366284E+03 0.54366294E+03 0.32000000E+00 0.0000E+00 0.9000E+01
       -2 -1    0    0    0  501 0.00000000E+00 0.00000000E+00 -.23904187E+02 0.23906329E+02 0.32000000E+00 0.0000E+00 0.9000E+01
       25  1    1    2    0    0 0.35822014E+02 -.19758237E+00 0.29683906E+03 0.32407049E+03 0.12500000E+03 0.0000E+00 0.9000E+01
       23  1    1    2    0    0 -.35822014E+02 0.19758237E+00 0.22291959E+03 0.24349877E+03 0.91188000E+02 0.0000E+00 0.9000E+01
#aMCatNLO 1  0  0  2  2 0.40132866D+02 0.00000000D+00  -5  5  0 0.00000000D+00 0.00000000D+00 0.00000000D+00 0.00000000D+00 0.00000000D+00
  <mgrwgt>
 0.5961241843D-01    4    2    0
 0.114001985878747D+03 0.000000000000000D+00 0.000000000000000D+00 0.114001985878747D+03
 0.114001985878747D+03 0.000000000000000D+00 0.000000000000000D+00 -.114001985878747D+03
 0.130031857199968D+03 0.358220135363952D+02 -.197582373014913D+00 0.167911515872428D+00
 0.979721145575259D+02 -.358220135363952D+02 0.197582373014913D+00 -.167911515872428D+00
 0.000000000000000D+00 -.000000000000000D+00 -.000000000000000D+00 0.000000000000000D+00
 0.136576462857129D+03 0.000000000000000D+00 0.000000000000000D+00 0.136576462857129D+03
 0.135092902719650D+03 0.000000000000000D+00 0.000000000000000D+00 -.135092902719650D+03
 0.137384335044615D+03 0.557193189668959D+02 0.120326562004935D+02 0.167911515872428D+00
 0.941247534246370D+02 -.215288997858719D+02 0.898310319329793D+01 -.167911515872428D+00
 0.401602771075273D+02 -.341904191810240D+02 -.210157593937914D+02 0.148356013747886D+01
0.815093354268D-04 0.000000000000D+00 0.000000000000D+00 0.178513710320D-02 0.000000000000D+00  5 2 -2 25 23 21 0 0.83640609D-01 0.36777392D-02 0.12996424D+05 0.12996424D+05 0.12996424D+05 0.12549842D+01  1  2  2  2  5  2       -2 0.134016419445D+00 0.100000000000D+01
-.452829641260D-05 0.000000000000D+00 -.313017309940D-06 0.178513710320D-02 0.000000000000D+00  5 2 -2 25 23 21 2 0.83640609D-01 0.36777392D-02 0.12996424D+05 0.12996424D+05 0.12996424D+05 0.12549842D+01  1  2  3  2  5  2       -2 -.117263273742D-01 0.100000000000D+01
0.563743391304D-05 0.000000000000D+00 0.000000000000D+00 0.178513710320D-02 0.000000000000D+00  5 2 -2 25 23 21 2 0.83640609D-01 0.36777392D-02 0.12996424D+05 0.12996424D+05 0.12996424D+05 0.12549842D+01  1  2 15  2  5  2       -2 0.145985133461D-01 0.100000000000D+01
-.298413534903D-04 0.000000000000D+00 0.000000000000D+00 0.178513710320D-02 0.000000000000D+00  5 2 -2 25 23 21 2 0.83640609D-01 0.36777392D-02 0.12996424D+05 0.12996424D+05 0.12996424D+05 0.12549842D+01  1  2  4  2  5  2       -2 -.772761869878D-01 0.100000000000D+01
  </mgrwgt>
  </event>
  <event>
  4     66 0.45228882E-03 0.13295775E+03 0.75467711E-02 0.11292075E+00
        2 -1    0    0  501    0 0.00000000E+00 0.00000000E+00 0.10964303E+03 0.10964350E+03 0.32000000E+00 0.0000E+00 0.9000E+01
       -2 -1    0    0    0  501 0.00000000E+00 0.00000000E+00 -.18424348E+03 0.18424376E+03 0.32000000E+00 0.0000E+00 0.9000E+01
       25  1    1    2    0    0 0.73646584E+02 0.21742319E+02 0.11016218E+02 0.14711528E+03 0.12500000E+03 0.0000E+00 0.9000E+01
       23  1    1    2    0    0 -.73646584E+02 -.21742319E+02 -.85616670E+02 0.14677198E+03 0.91188000E+02 0.0000E+00 0.9000E+01
#aMCatNLO 1  0  0  1  2 0.14923702D+03 0.00000000D+00  -5  5  0 0.00000000D+00 0.00000000D+00 0.00000000D+00 0.00000000D+00 0.00000000D+00
  <mgrwgt>
 0.1647260415D+00    3    2    0
 0.142130653612812D+03 0.000000000000000D+00 0.000000000000000D+00 0.142130653612812D+03
 0.142130653612812D+03 0.000000000000000D+00 0.000000000000000D+00 -.142130653612812D+03
 0.154988099332989D+03 0.736465836197334D+02 0.217423192018649D+02 0.499976320611108D+02
 0.129273207892635D+03 -.736465836197334D+02 -.217423192018649D+02 -.499976320611108D+02
 0.000000000000000D+00 -.000000000000000D+00 0.000000000000000D+00 -.000000000000000D+00
 0.181846975297009D+03 0.000000000000000D+00 0.000000000000000D+00 0.181846975297009D+03
 0.421692091235930D+03 0.000000000000000D+00 0.000000000000000D+00 -.421692091235930D+03
 0.205017913123251D+03 0.153736471918736D+03 -.165129855469658D+02 0.499976320611108D+02
 0.116036876422976D+03 -.190728915932863D+02 -.478096950476941D+02 -.499976320611108D+02
 0.282484276986713D+03 -.134663580325449D+03 0.643226805946599D+02 -.239845115938921D+03
0.438213842584D-03 0.000000000000D+00 0.000000000000D+00 0.126641921198D-02 0.000000000000D+00  5 2 -2 25 23 21 0 0.16868216D-01 0.28345208D-01 0.17677762D+05 0.17677762D+05 0.17677762D+05 0.12397712D+01  1  2  2  1  5  1        2 0.161326462829D+00 0.100000000000D+01
-.242134646837D-04 0.000000000000D+00 -.168285653988D-05 0.126641921198D-02 0.000000000000D+00  5 2 -2 25 23 21 2 0.16868216D-01 0.28345208D-01 0.17677762D+05 0.17677762D+05 0.17677762D+05 0.12397712D+01  1  2  3  1  5  1        2 -.137012305778D-01 0.100000000000D+01
0.302213614591D-04 0.000000000000D+00 0.000000000000D+00 0.126641921198D-02 0.000000000000D+00  5 2 -2 25 23 21 2 0.16868216D-01 0.28345208D-01 0.17677762D+05 0.17677762D+05 0.17677762D+05 0.12397712D+01  1  2 15  1  5  1        2 0.171008092867D-01 0.100000000000D+01
  </mgrwgt>
  </event>
  <event>
  5     66 0.45228882E-03 0.12778294E+03 0.75467711E-02 0.12027259E+00
        2 -1    0    0  501    0 0.00000000E+00 0.00000000E+00 0.13350089E+04 0.13350090E+04 0.32000000E+00 0.0000E+00 0.9000E+01
       -2 -1    0    0    0  502 0.00000000E+00 0.00000000E+00 -.19798170E+02 0.19800756E+02 0.32000000E+00 0.0000E+00 0.9000E+01
       25  1    1    2    0    0 0.62878035E+01 0.88941144E+02 0.40016600E+03 0.42861158E+03 0.12500000E+03 0.0000E+00 0.9000E+01
       23  1    1    2    0    0 -.22826765E+01 -.50679255E+02 0.70063124E+03 0.70835936E+03 0.91188000E+02 0.0000E+00 0.9000E+01
       21  1    1    2  501  502 -.40051270E+01 -.38261890E+02 0.21441350E+03 0.21783876E+03 0.75000000E+00 0.0000E+00 0.9000E+01
#aMCatNLO 2  0  0  2  2 0.38470940D+02 0.00000000D+00  -5  5  0 0.00000000D+00 0.00000000D+00 0.00000000D+00 0.00000000D+00 0.00000000D+00
  <mgrwgt>
 0.4976784977D-01    1    2    0
 0.140950660467769D+03 0.000000000000000D+00 0.000000000000000D+00 0.140950660467769D+03
 0.140950660467769D+03 0.000000000000000D+00 0.000000000000000D+00 -.140950660467769D+03
 0.153915744547086D+03 0.403591927476330D+01 0.674283815191737D+02 -.591792289641923D+02
 0.127985576388451D+03 -.403591927476330D+01 -.674283815191737D+02 0.591792289641923D+02
 0.000000000000000D+00 -.000000000000000D+00 -.000000000000000D+00 0.000000000000000D+00
 0.169732200970812D+03 0.000000000000000D+00 0.000000000000000D+00 0.169732200970812D+03
 0.155724008861286D+03 0.000000000000000D+00 0.000000000000000D+00 -.155724008861286D+03
 0.164551647807623D+03 0.628780353771946D+01 0.889411444837464D+02 -.591792289641923D+02
 0.119962618970140D+03 -.228267654863046D+01 -.506792546625634D+02 0.591792289641923D+02
 0.409419430543355D+02 -.400512698908900D+01 -.382618898211830D+02 0.140081921095256D+02
0.483138678635D-04 0.000000000000D+00 0.000000000000D+00 0.121616164889D-02 0.673658571573D-05  5 2 -2 25 23 21 2 0.20538179D+00 0.30460089D-02 0.21957656D+05 0.21957656D+05 0.21957656D+05 0.12293860D+01  1  2  1  2  5  2       -2 0.497678497671D-01 0.100000000000D+01
  </mgrwgt>
  </event>
  <event>
  5     66 0.45228882E-03 0.11933739E+03 0.75467711E-02 0.11259405E+00
        2 -1    0    0  501    0 0.00000000E+00 0.00000000E+00 0.65866361E+03 0.65866369E+03 0.32000000E+00 0.0000E+00 0.9000E+01
       21 -1    0    0  502  501 0.00000000E+00 0.00000000E+00 -.12934507E+03 0.12934725E+03 0.75000000E+00 0.0000E+00 0.9000E+01
       25  1    1    2    0    0 0.24436008E+02 0.41069866E+02 -.17736156E+02 0.13499416E+03 0.12500000E+03 0.0000E+00 0.9000E+01
       23  1    1    2    0    0 0.12362877E+03 0.40840871E+02 0.13858894E+03 0.21088906E+03 0.91188000E+02 0.0000E+00 0.9000E+01
        2  1    1    2  502    0 -.14806478E+03 -.81910737E+02 0.40846575E+03 0.44212772E+03 0.32000000E+00 0.0000E+00 0.9000E+01
#aMCatNLO 2  0  0  2  2 0.16921154D+03 0.00000000D+00  -5  5  0 0.00000000D+00 0.00000000D+00 0.00000000D+00 0.00000000D+00 0.00000000D+00
  <mgrwgt>
 0.5185904787D-01    1    2    0
 0.138200271341925D+03 0.000000000000000D+00 0.000000000000000D+00 0.138200271341925D+03
 0.138200271341925D+03 0.000000000000000D+00 0.000000000000000D+00 -.138200271341925D+03
 0.151423379706732D+03 -.500575730516454D+02 -.140638289610617D+00 -.692694703520951D+02
 0.124977162977118D+03 0.500575730516454D+02 0.140638289610617D+00 0.692694703520951D+02
 0.000000000000000D+00 -.000000000000000D+00 -.000000000000000D+00 0.000000000000000D+00
 0.457350564962997D+03 0.000000000000000D+00 0.000000000000000D+00 0.457350564962997D+03
 0.186280988449455D+03 0.000000000000000D+00 0.000000000000000D+00 -.186280988449455D+03
 0.150688791475901D+03 0.244360078006294D+02 0.410698657944636D+02 -.692694703520951D+02
 0.173394233215001D+03 0.123628768939703D+03 0.408408708992828D+02 0.692694703520951D+02
 0.319548528721550D+03 -.148064776740332D+03 -.819107366937464D+02 0.271069576513542D+03
0.278929612876D-04 0.000000000000D+00 0.000000000000D+00 0.115306781293D-02 0.544776161632D-07  5 2 21 25 23 2 2 0.10133300D+00 0.19899408D-01 0.53359249D+05 0.53359249D+05 0.53359249D+05 0.11894951D+01  1  2  1  4  5  2       -2 0.518590478654D-01 0.100000000000D+01
  </mgrwgt>
  </event>
  <event>
  4     66 0.45228882E-03 0.12157507E+03 0.75467711E-02 0.11972449E+00
        2 -1    0    0  501    0 0.00000000E+00 0.00000000E+00 0.83868755E+03 0.83868762E+03 0.32000000E+00 0.0000E+00 0.9000E+01
       -2 -1    0    0    0  501 0.00000000E+00 0.00000000E+00 -.17634498E+02 0.17637401E+02 0.32000000E+00 0.0000E+00 0.9000E+01
       25  1    1    2    0    0 -.50976115E+02 0.20922462E+02 0.44986996E+03 0.47015348E+03 0.12500000E+03 0.0000E+00 0.9000E+01
       23  1    1    2    0    0 0.50976115E+02 -.20922462E+02 0.37118309E+03 0.38617153E+03 0.91188000E+02 0.0000E+00 0.9000E+01
#aMCatNLO 1  0  0  1  2 0.55835503D+02 0.00000000D+00  -5  5  0 0.00000000D+00 0.00000000D+00 0.00000000D+00 0.00000000D+00 0.00000000D+00
  <mgrwgt>
 0.1665235180D+00    3    2    0
 0.121618680014221D+03 0.000000000000000D+00 0.000000000000000D+00 0.121618680014221D+03
 0.121618680014221D+03 0.000000000000000D+00 0.000000000000000D+00 -.121618680014221D+03
 0.136644637899855D+03 -.509761150834890D+02 0.209224617375453D+02 -.323161764728503D+01
 0.106592722128588D+03 0.509761150834890D+02 -.209224617375453D+02 0.323161764728503D+01
 0.000000000000000D+00 -.000000000000000D+00 -.000000000000000D+00 -.000000000000000D+00
 0.132432952906178D+03 0.000000000000000D+00 0.000000000000000D+00 0.132432952906178D+03
 0.226649290562349D+03 0.000000000000000D+00 0.000000000000000D+00 -.226649290562349D+03
 0.131678782742457D+03 -.235001489895665D+02 0.339352540786898D+02 -.323161764728503D+01
 0.117884869967599D+03 0.739623258828143D+02 -.100360460672496D+02 0.323161764728503D+01
 0.109518590758470D+03 -.504621768932478D+02 -.238992080114402D+02 -.942163376561716D+02
0.105001651280D-03 0.000000000000D+00 0.000000000000D+00 0.164515774231D-02 0.000000000000D+00  5 2 -2 25 23 21 0 0.12902908D+00 0.27132277D-02 0.14780498D+05 0.14780498D+05 0.14780498D+05 0.12485531D+01  1  2  2  1  5  1        2 0.163074984619D+00 0.100000000000D+01
-.583342415886D-05 0.000000000000D+00 -.403233988484D-06 0.164515774231D-02 0.000000000000D+00  5 2 -2 25 23 21 2 0.12902908D+00 0.27132277D-02 0.14780498D+05 0.14780498D+05 0.14780498D+05 0.12485531D+01  1  2  3  1  5  1        2 -.141230590051D-01 0.100000000000D+01
0.725781514636D-05 0.000000000000D+00 0.000000000000D+00 0.164515774231D-02 0.000000000000D+00  5 2 -2 25 23 21 2 0.12902908D+00 0.27132277D-02 0.14780498D+05 0.14780498D+05 0.14780498D+05 0.12485531D+01  1  2 15  1  5  1        2 0.175715923905D-01 0.100000000000D+01
  </mgrwgt>
  </event>
  <event>
  4     66 0.45228882E-03 0.12054799E+03 0.75467711E-02 0.10338233E+00
        2 -1    0    0  501    0 0.00000000E+00 0.00000000E+00 0.12587048E+03 0.12587088E+03 0.32000000E+00 0.0000E+00 0.9000E+01
       -2 -1    0    0    0  501 0.00000000E+00 0.00000000E+00 -.12141227E+03 0.12141269E+03 0.32000000E+00 0.0000E+00 0.9000E+01
       25  1    1    2    0    0 0.72096443E+01 -.52340428E+02 -.24697357E+02 0.13793643E+03 0.12500000E+03 0.0000E+00 0.9000E+01
       23  1    1    2    0    0 -.72096443E+01 0.52340428E+02 0.29155565E+02 0.10934714E+03 0.91188000E+02 0.0000E+00 0.9000E+01
#aMCatNLO 1  0  0  1  2 0.39660964D+03 0.00000000D+00  -5  5  0 0.00000000D+00 0.00000000D+00 0.00000000D+00 0.00000000D+00 0.00000000D+00
  <mgrwgt>
 0.1759209635D+00    5    2    0
 0.123621690967966D+03 0.000000000000000D+00 0.000000000000000D+00 0.123621690967966D+03
 0.123621690967966D+03 0.000000000000000D+00 0.000000000000000D+00 -.123621690967966D+03
 0.138404187063037D+03 0.720964428968945D+01 -.523404275280356D+02 -.271885945201065D+02
 0.108839194872896D+03 -.720964428968945D+01 0.523404275280356D+02 0.271885945201065D+02
 0.000000000000000D+00 -.000000000000000D+00 0.000000000000000D+00 0.000000000000000D+00
 0.533975479884028D+03 0.000000000000000D+00 0.000000000000000D+00 0.533975479884028D+03
 0.364636093525557D+03 0.000000000000000D+00 0.000000000000000D+00 -.364636093525557D+03
 0.323747906486447D+03 0.205712988452589D+03 -.214780477847228D+03 -.271885945201065D+02
 0.143615438733710D+03 0.101224548089372D+03 -.363938743581882D+02 0.271885945201065D+02
 0.431248228189429D+03 -.306937536541961D+03 0.251174352205416D+03 0.169339386358471D+03
0.213544323004D-03 0.000000000000D+00 0.000000000000D+00 0.155605777055D-02 0.000000000000D+00  5 2 -2 25 23 21 0 0.19364752D-01 0.18678874D-01 0.14531817D+05 0.14531817D+05 0.14531817D+05 0.12493955D+01  1  2  2  1  5  1        2 0.136899379794D+00 0.100000000000D+01
-.118544293444D-04 0.000000000000D+00 -.820066427848D-06 0.155605777055D-02 0.000000000000D+00  5 2 -2 25 23 21 2 0.19364752D-01 0.18678874D-01 0.14531817D+05 0.14531817D+05 0.14531817D+05 0.12493955D+01  1  2  3  1  5  1        2 -.118629856993D-01 0.100000000000D+01
0.147768509967D-04 0.000000000000D+00 0.000000000000D+00 0.155605777055D-02 0.000000000000D+00  5 2 -2 25 23 21 2 0.19364752D-01 0.18678874D-01 0.14531817D+05 0.14531817D+05 0.14531817D+05 0.12493955D+01  1  2 15  1  5  1        2 0.147875167131D-01 0.100000000000D+01
0.486267465003D-03 0.000000000000D+00 -.201375265912D-03 0.155605777055D-02 0.000000000000D+00  5 2 -2 25 23 21 2 0.20213075D+00 0.18678874D-01 0.14531817D+05 0.14531817D+05 0.14531817D+05 0.12493955D+01  1  2  5  1  5  1        2 0.319676625098D-01 0.100000000000D+01
0.101479993721D-03 0.000000000000D+00 -.559379923548D-04 0.155605777055D-02 0.000000000000D+00  5 21 -2 25 23 -2 2 0.20213075D+00 0.18678874D-01 0.14531817D+05 0.14531817D+05 0.14531817D+05 0.12493955D+01  1  2  5  3  5  1        2 0.412939018315D-02 0.100000000000D+01
  </mgrwgt>
  </event>
  <event>
  4     66 0.45228882E-03 0.11266776E+03 0.75467711E-02 0.12468977E+00
        2 -1    0    0  501    0 0.00000000E+00 0.00000000E+00 0.27452955E+04 0.27452955E+04 0.32000000E+00 0.0000E+00 0.9000E+01
       -2 -1    0    0    0  501 0.00000000E+00 0.00000000E+00 -.46713936E+01 0.46823411E+01 0.32000000E+00 0.0000E+00 0.9000E+01
       25  1    1    2    0    0 -.61936187E+01 0.30799624E+02 0.14205292E+04 0.14263643E+04 0.12500000E+03 0.0000E+00 0.9000E+01
       23  1    1    2    0    0 0.61936187E+01 -.30799624E+02 0.13200949E+04 0.13236135E+04 0.91188000E+02 0.0000E+00 0.9000E+01
#aMCatNLO 1  0  0  2  2 0.99019957D+01 0.00000000D+00  -5  5  0 0.00000000D+00 0.00000000D+00 0.00000000D+00 0.00000000D+00 0.00000000D+00
  <mgrwgt>
 0.1779082045D+00    6    2    0
 0.113311226592620D+03 0.000000000000000D+00 0.000000000000000D+00 0.113311226592620D+03
 0.113311226592620D+03 0.000000000000000D+00 0.000000000000000D+00 -.113311226592620D+03
 0.129438817996868D+03 -.619361868327088D+01 0.307996236497812D+02 -.119343988145385D+02
 0.971836351883710D+02 0.619361868327088D+01 -.307996236497812D+02 0.119343988145385D+02
 0.000000000000000D+00 -.000000000000000D+00 -.000000000000000D+00 0.000000000000000D+00
 0.133276050607786D+03 0.000000000000000D+00 0.000000000000000D+00 0.133276050607786D+03
 0.114653802161285D+03 0.000000000000000D+00 0.000000000000000D+00 -.114653802161285D+03
 0.130890555421850D+03 -.587120165690615D+01 0.364751506464328D+02 -.119343988145385D+02
 0.959481225112850D+02 0.643281169555522D+01 -.265890941565451D+02 0.119343988145385D+02
 0.210911748359349D+02 -.561610038649074D+00 -.988605648988764D+01 0.186222484465011D+02
0.194787698435D-03 0.000000000000D+00 0.000000000000D+00 0.178538640685D-02 0.000000000000D+00  5 2 -2 25 23 21 0 0.42235400D+00 0.71951949D-03 0.12694025D+05 0.12694025D+05 0.12694025D+05 0.12561724D+01  1  2  2  2  5  2       -2 0.193860033990D+00 0.100000000000D+01
-.108211120800D-04 0.000000000000D+00 -.748036050771D-06 0.178538640685D-02 0.000000000000D+00  5 2 -2 25 23 21 2 0.42235400D+00 0.71951949D-03 0.12694025D+05 0.12694025D+05 0.12694025D+05 0.12561724D+01  1  2  3  2  5  2       -2 -.169940591137D-01 0.100000000000D+01
0.134754723162D-04 0.000000000000D+00 0.000000000000D+00 0.178538640685D-02 0.000000000000D+00  5 2 -2 25 23 21 2 0.42235400D+00 0.71951949D-03 0.12694025D+05 0.12694025D+05 0.12694025D+05 0.12561724D+01  1  2 15  2  5  2       -2 0.211626098531D-01 0.100000000000D+01
-.128118240254D-04 0.000000000000D+00 0.000000000000D+00 0.178538640685D-02 0.000000000000D+00  5 2 -2 25 23 21 2 0.42235400D+00 0.71951949D-03 0.12694025D+05 0.12694025D+05 0.12694025D+05 0.12561724D+01  1  2  4  2  5  2       -2 -.201203807180D-01 0.100000000000D+01
0.153209881635D-12 0.000000000000D+00 0.000000000000D+00 0.178538640685D-02 0.154135106159D-03  5 2 -2 25 23 21 2 0.49677048D+00 0.72804476D-03 0.13859216D+05 0.13859216D+05 0.13859216D+05 0.12517579D+01  1  2 11  2  5  2       -2 0.123991885274D-09 0.100000000000D+01
0.190990290046D-13 0.000000000000D+00 0.000000000000D+00 0.178538640685D-02 0.366160698214D-06  5 2 21 25 23 2 2 0.49677048D+00 0.72804476D-03 0.13859216D+05 0.13859216D+05 0.13859216D+05 0.12517579D+01  1  2 11  4  5  2       -2 0.379304002241D-09 0.100000000000D+01
  </mgrwgt>
  </event>
  <event>
  4     66 0.45228882E-03 0.12858849E+03 0.75467711E-02 0.10756725E+00
        2 -1    0    0  501    0 0.00000000E+00 0.00000000E+00 0.48882707E+03 0.48882717E+03 0.32000000E+00 0.0000E+00 0.9000E+01
       -2 -1    0    0    0  501 0.00000000E+00 0.00000000E+00 -.37179144E+02 0.37180521E+02 0.32000000E+00 0.0000E+00 0.9000E+01
       25  1    1    2    0    0 -.37077998E+02 -.58241419E+02 0.16997652E+03 0.22199968E+03 0.12500000E+03 0.0000E+00 0.9000E+01
       23  1    1    2    0    0 0.37077998E+02 0.58241419E+02 0.28167140E+03 0.30400801E+03 0.91188000E+02 0.0000E+00 0.9000E+01
#aMCatNLO 1  0  0  2  1 0.26884028D+03 0.00000000D+00  -5  5  0 0.00000000D+00 0.00000000D+00 0.00000000D+00 0.00000000D+00 0.00000000D+00
  <mgrwgt>
 0.1921225200D+00    3    2    0
 0.134813061846690D+03 0.000000000000000D+00 0.000000000000000D+00 0.134813061846690D+03
 0.134813061846690D+03 0.000000000000000D+00 0.000000000000000D+00 -.134813061846690D+03
 0.148368403880818D+03 -.370779979148264D+02 -.582414186398265D+02 -.402658974268582D+02
 0.121257719812561D+03 0.370779979148264D+02 0.582414186398265D+02 0.402658974268582D+02
 0.000000000000000D+00 0.000000000000000D+00 0.000000000000000D+00 0.000000000000000D+00
 0.506717446757240D+03 0.000000000000000D+00 0.000000000000000D+00 0.506717446757240D+03
 0.247494922782882D+03 0.000000000000000D+00 0.000000000000000D+00 -.247494922782882D+03
 0.251969748162407D+03 -.201774416622556D+03 -.743605829056201D+02 -.402658974268582D+02
 0.128783903729969D+03 -.657874415021859D+02 0.481737746178983D+02 0.402658974268582D+02
 0.373458717647746D+03 0.267561858124742D+03 0.261868082877218D+02 0.259222523974358D+03
0.194901705988D-03 0.000000000000D+00 0.000000000000D+00 0.137190832429D-02 0.000000000000D+00  5 2 -2 25 23 21 0 0.75204278D-01 0.57199823D-02 0.16534999D+05 0.16534999D+05 0.16534999D+05 0.12430275D+01  1  2  2  2  5  2       -2 0.188158641789D+00 0.100000000000D+01
-.107984534864D-04 0.000000000000D+00 -.748473869792D-06 0.137190832429D-02 0.000000000000D+00  5 2 -2 25 23 21 2 0.75204278D-01 0.57199823D-02 0.16534999D+05 0.16534999D+05 0.16534999D+05 0.12430275D+01  1  2  3  2  5  2       -2 -.161076264897D-01 0.100000000000D+01
0.134558130045D-04 0.000000000000D+00 0.000000000000D+00 0.137190832429D-02 0.000000000000D+00  5 2 -2 25 23 21 2 0.75204278D-01 0.57199823D-02 0.16534999D+05 0.16534999D+05 0.16534999D+05 0.12430275D+01  1  2 15  2  5  2       -2 0.200715047080D-01 0.100000000000D+01
  </mgrwgt>
  </event>
  <event>
  4     66 0.45228882E-03 0.94008382E+02 0.75467711E-02 0.11908976E+00
        2 -1    0    0  501    0 0.00000000E+00 0.00000000E+00 0.62650117E+03 0.62650125E+03 0.32000000E+00 0.0000E+00 0.9000E+01
       -2 -1    0    0    0  501 0.00000000E+00 0.00000000E+00 -.29386452E+02 0.29388195E+02 0.32000000E+00 0.0000E+00 0.9000E+01
       25  1    1    2    0    0 0.50440140E+02 0.63844993E+02 0.32467740E+03 0.35729652E+03 0.12500000E+03 0.0000E+00 0.9000E+01
       23  1    1    2    0    0 -.50440140E+02 -.63844993E+02 0.27243732E+03 0.29859292E+03 0.91188000E+02 0.0000E+00 0.9000E+01
#aMCatNLO 1  0  0  2  1 0.41601220D+02 0.00000000D+00  -5  5  0 0.00000000D+00 0.00000000D+00 0.00000000D+00 0.00000000D+00 0.00000000D+00
  <mgrwgt>
 0.1408496148D+00    9    2    0
 0.135688042944454D+03 0.000000000000000D+00 0.000000000000000D+00 0.135688042944454D+03
 0.135688042944454D+03 0.000000000000000D+00 0.000000000000000D+00 -.135688042944454D+03
 0.149155973679869D+03 0.504401402657262D+02 0.638449930860077D+02 -.145381986896515D+01
 0.122220112209038D+03 -.504401402657262D+02 -.638449930860077D+02 0.145381986896515D+01
 0.000000000000000D+00 0.000000000000000D+00 0.000000000000000D+00 -.000000000000000D+00
 0.140838820372864D+03 0.000000000000000D+00 0.000000000000000D+00 0.140838820372864D+03
 0.258614161833201D+03 0.000000000000000D+00 0.000000000000000D+00 -.258614161833201D+03
 0.138671941296732D+03 0.405181964447497D+02 0.442839640011766D+02 -.145381986896515D+01
 0.135874305320668D+03 -.593371171675168D+02 -.813853084801611D+02 0.145381986896515D+01
 0.124906735588666D+03 0.188189207227670D+02 0.371013444789845D+02 -.117775341460336D+03
0.126063505845D-03 0.000000000000D+00 0.000000000000D+00 0.146671214841D-02 0.000000000000D+00  5 2 -2 25 23 21 0 0.96384936D-01 0.45211330D-02 0.18409110D+05 0.18409110D+05 0.18409110D+05 0.12378088D+01  1  2  2  2  5  2       -2 0.131763468299D+00 0.100000000000D+01
-.700352807386D-05 0.000000000000D+00 -.484117055727D-06 0.146671214841D-02 0.000000000000D+00  5 2 -2 25 23 21 2 0.96384936D-01 0.45211330D-02 0.18409110D+05 0.18409110D+05 0.18409110D+05 0.12378088D+01  1  2  3  2  5  2       -2 -.112157844220D-01 0.100000000000D+01
0.868015628287D-05 0.000000000000D+00 0.000000000000D+00 0.146671214841D-02 0.000000000000D+00  5 2 -2 25 23 21 2 0.96384936D-01 0.45211330D-02 0.18409110D+05 0.18409110D+05 0.18409110D+05 0.12378088D+01  1  2 15  2  5  2       -2 0.139008169299D-01 0.100000000000D+01
0.321668803491D-03 0.000000000000D+00 0.000000000000D+00 0.146671214841D-02 0.000000000000D+00  5 2 -2 25 23 21 2 0.96384936D-01 0.86292935D-02 0.24984871D+05 0.24984871D+05 0.24984871D+05 0.12233258D+01  1  2 12  2  5  2       -2 0.189402537174D+00 0.100000000000D+01
-.296122296865D-03 0.000000000000D+00 0.000000000000D+00 0.146671214841D-02 0.000000000000D+00  5 2 -2 25 23 21 2 0.96384936D-01 0.45211330D-02 0.18409110D+05 0.18409110D+05 0.18409110D+05 0.12378088D+01  1  2  4  2  5  2       -2 -.474224392215D+00 0.100000000000D+01
-.347134211783D-03 0.000000000000D+00 -.360915404323D-04 0.146671214841D-02 0.000000000000D+00  5 2 -2 25 23 21 2 0.96384936D-01 0.89091315D-02 0.18409110D+05 0.18409110D+05 0.18409110D+05 0.12378088D+01  1  2  5  2  5  2       -2 -.197913828210D+00 0.100000000000D+01
0.305548107397D-03 0.000000000000D+00 0.291292827587D-04 0.146671214841D-02 0.000000000000D+00  5 2 -2 25 23 21 2 0.96384936D-01 0.45211330D-02 0.18409110D+05 0.18409110D+05 0.18409110D+05 0.12378088D+01  1  2  6  2  5  2       -2 0.489319335481D+00 0.100000000000D+01
0.225806111898D-04 0.000000000000D+00 0.000000000000D+00 0.146671214841D-02 0.000000000000D+00  5 2 21 25 23 2 2 0.96384936D-01 0.86292935D-02 0.24984871D+05 0.24984871D+05 0.24984871D+05 0.12233258D+01  1  2 12  4  5  2       -2 0.214412251663D+00 0.100000000000D+01
-.233597221981D-04 0.000000000000D+00 -.265104581048D-05 0.146671214841D-02 0.000000000000D+00  5 2 21 25 23 2 2 0.96384936D-01 0.89091315D-02 0.18409110D+05 0.18409110D+05 0.18409110D+05 0.12378088D+01  1  2  5  4  5  2       -2 -.214594789934D+00 0.100000000000D+01
  </mgrwgt>
  </event>
  <event>
  4     66 0.45228882E-03 0.11677158E+03 0.75467711E-02 0.11677542E+00
        2 -1    0    0  501    0 0.00000000E+00 0.00000000E+00 0.32456035E+03 0.32456051E+03 0.32000000E+00 0.0000E+00 0.9000E+01
       -2 -1    0    0    0  501 0.00000000E+00 0.00000000E+00 -.17708334E+03 0.17708363E+03 0.32000000E+00 0.0000E+00 0.9000E+01
       25  1    1    2    0    0 -.13566707E+03 0.44134090E+02 -.90030881E+02 0.20996173E+03 0.12500000E+03 0.0000E+00 0.9000E+01
       23  1    1    2    0    0 0.13566707E+03 -.44134090E+02 0.23750790E+03 0.29168240E+03 0.91188000E+02 0.0000E+00 0.9000E+01
#aMCatNLO 1  0  0  1  2 0.10842174D+01 0.00000000D+00  -5  5  0 0.00000000D+00 0.00000000D+00 0.00000000D+00 0.00000000D+00 0.00000000D+00
  <mgrwgt>
 0.1224200147D+00   11    2    0
 0.239738070625871D+03 0.000000000000000D+00 0.000000000000000D+00 0.239738070625871D+03
 0.239738070625871D+03 0.000000000000000D+00 0.000000000000000D+00 -.239738070625871D+03
 0.247360711282105D+03 -.135667065468000D+03 0.441340903412784D+02 -.158773268855429D+03
 0.232115429969636D+03 0.135667065468000D+03 -.441340903412784D+02 0.158773268855429D+03
 0.000000000000000D+00 -.000000000000000D+00 -.000000000000000D+00 0.000000000000000D+00
 0.245011096344923D+03 0.000000000000000D+00 0.000000000000000D+00 0.245011096344923D+03
 0.239794423086107D+03 0.000000000000000D+00 0.000000000000000D+00 -.239794423086107D+03
 0.247096061640653D+03 -.135131492884554D+03 0.442943834596964D+02 -.158773268855429D+03
 0.232381305455104D+03 0.136170186732015D+03 -.439835096751949D+02 0.158773268855429D+03
 0.532815233527385D+01 -.103869384746100D+01 -.310873784501429D+00 0.521667325881549D+01
0.622646515197D-03 0.000000000000D+00 0.000000000000D+00 0.633089892491D-03 0.000000000000D+00  5 2 -2 25 23 21 0 0.49932397D-01 0.27243625D-01 0.32219848D+05 0.32219848D+05 0.32219848D+05 0.12116580D+01  1  2  2  1  5  1        2 0.756277646328D-01 0.100000000000D+01
-.310695365086D-04 0.000000000000D+00 -.239112656495D-05 0.633089892491D-03 0.000000000000D+00  5 2 -2 25 23 21 2 0.49932397D-01 0.27243625D-01 0.32219848D+05 0.32219848D+05 0.32219848D+05 0.12116580D+01  1  2  3  1  5  1        2 -.554031666746D-02 0.100000000000D+01
0.426739931059D-04 0.000000000000D+00 0.000000000000D+00 0.633089892491D-03 0.000000000000D+00  5 2 -2 25 23 21 2 0.49932397D-01 0.27243625D-01 0.32219848D+05 0.32219848D+05 0.32219848D+05 0.12116580D+01  1  2 15  1  5  1        2 0.760962221647D-02 0.100000000000D+01
0.280811563236D-06 0.000000000000D+00 0.000000000000D+00 0.633089892491D-03 0.000000000000D+00  5 2 -2 25 23 21 2 0.51036458D-01 0.27243625D-01 0.32418186D+05 0.32418186D+05 0.32418186D+05 0.12113807D+01  1  2 12  1  5  1        2 0.488964239178D-04 0.100000000000D+01
-.213232028917D+00 0.000000000000D+00 0.000000000000D+00 0.633089892491D-03 0.000000000000D+00  5 2 -2 25 23 21 2 0.49932397D-01 0.27243625D-01 0.32219848D+05 0.32219848D+05 0.32219848D+05 0.12116580D+01  1  2  4  1  5  1        2 -.380235142392D+02 0.100000000000D+01
-.240013715671D+00 0.000000000000D+00 -.451491489755D-02 0.633089892491D-03 0.000000000000D+00  5 2 -2 25 23 21 2 0.51036596D-01 0.27243625D-01 0.32219848D+05 0.32219848D+05 0.32219848D+05 0.12116580D+01  1  2  5  1  5  1        2 -.418090262752D+02 0.100000000000D+01
0.240056123184D+00 0.000000000000D+00 0.451383509004D-02 0.633089892491D-03 0.000000000000D+00  5 2 -2 25 23 21 2 0.49932397D-01 0.27243625D-01 0.32219848D+05 0.32219848D+05 0.32219848D+05 0.12116580D+01  1  2  6  1  5  1        2 0.428067840674D+02 0.100000000000D+01
0.213293012275D+00 0.000000000000D+00 0.000000000000D+00 0.633089892491D-03 0.421616298255D-02  5 2 -2 25 23 21 2 0.51030657D-01 0.27250028D-01 0.32418186D+05 0.32418186D+05 0.32418186D+05 0.12113807D+01  1  2 11  1  5  1        2 0.371287046264D+02 0.100000000000D+01
0.155395140767D-07 0.000000000000D+00 0.000000000000D+00 0.633089892491D-03 0.000000000000D+00  5 21 -2 25 23 -2 2 0.51036458D-01 0.27243625D-01 0.32418186D+05 0.32418186D+05 0.32418186D+05 0.12113807D+01  1  2 12  3  5  1        2 0.814619536182D-05 0.100000000000D+01
-.952048196640D-03 0.000000000000D+00 -.179236182601D-04 0.633089892491D-03 0.000000000000D+00  5 21 -2 25 23 -2 2 0.51036596D-01 0.27243625D-01 0.32219848D+05 0.32219848D+05 0.32219848D+05 0.12116580D+01  1  2  5  3  5  1        2 -.499375211781D+00 0.100000000000D+01
0.841572306183D-03 0.000000000000D+00 0.000000000000D+00 0.633089892491D-03 0.166167047855D-04  5 21 -2 25 23 -2 2 0.51030657D-01 0.27250028D-01 0.32418186D+05 0.32418186D+05 0.32418186D+05 0.12113807D+01  1  2 11  3  5  1        2 0.441092934293D+00 0.100000000000D+01
  </mgrwgt>
  </event>
  <event>
  4     66 0.45228882E-03 0.76338789E+02 0.75467711E-02 0.11754943E+00
        4 -1    0    0  501    0 0.00000000E+00 0.00000000E+00 0.15570487E+03 0.15571259E+03 0.15500000E+01 0.0000E+00 0.9000E+01
       -4 -1    0    0    0  501 0.00000000E+00 0.00000000E+00 -.98032055E+02 0.98044308E+02 0.15500000E+01 0.0000E+00 0.9000E+01
       25  1    1    2    0    0 -.72052318E+01 0.42387891E+02 -.96325794E+01 0.13253843E+03 0.12500000E+03 0.0000E+00 0.9000E+01
       23  1    1    2    0    0 0.72052318E+01 -.42387891E+02 0.67305398E+02 0.12121847E+03 0.91188000E+02 0.0000E+00 0.9000E+01
#aMCatNLO 1  0  0  2  1 0.93340165D+02 0.00000000D+00  -5  5  0 0.00000000D+00 0.00000000D+00 0.00000000D+00 0.00000000D+00 0.00000000D+00
  <mgrwgt>
 0.1365890652D-01    7    2    0
 0.123558091837913D+03 0.000000000000000D+00 0.000000000000000D+00 0.123558091837913D+03
 0.123558091837913D+03 0.000000000000000D+00 0.000000000000000D+00 -.123558091837913D+03
 0.138348196935985D+03 -.720523180871592D+01 0.423878913746187D+02 -.408237050601027D+02
 0.108767986739840D+03 0.720523180871592D+01 -.423878913746187D+02 0.408237050601027D+02
 0.000000000000000D+00 -.000000000000000D+00 0.000000000000000D+00 -.000000000000000D+00
 0.148842941424732D+03 0.000000000000000D+00 0.000000000000000D+00 0.148842941424732D+03
 0.262001057046505D+03 0.000000000000000D+00 0.000000000000000D+00 -.262001057046505D+03
 0.135343118105381D+03 0.305449924855020D+02 0.965340135463064D+01 -.408237050601027D+02
 0.128813643330752D+03 0.399748497339146D+02 -.708035299830373D+02 0.408237050601027D+02
 0.146687237035103D+03 -.705198422194166D+02 0.611501286284067D+02 -.113158115621773D+03
0.193099030303D-03 0.000000000000D+00 0.000000000000D+00 0.148252331423D-02 0.000000000000D+00  5 4 -4 25 23 21 0 0.23956132D-01 0.15083391D-01 0.13572728D+05 0.13572728D+05 0.13572728D+05 0.12528035D+01  1  2  2  2  5  2       -4 0.186666795589D-01 0.100000000000D+01
-.106826233859D-04 0.000000000000D+00 -.741551120506D-06 0.148252331423D-02 0.000000000000D+00  5 4 -4 25 23 21 2 0.23956132D-01 0.15083391D-01 0.13572728D+05 0.13572728D+05 0.13572728D+05 0.12528035D+01  1  2  3  2  5  2       -4 -.162080524053D-02 0.100000000000D+01
0.133662076658D-04 0.000000000000D+00 0.000000000000D+00 0.148252331423D-02 0.000000000000D+00  5 4 -4 25 23 21 2 0.23956132D-01 0.15083391D-01 0.13572728D+05 0.13572728D+05 0.13572728D+05 0.12528035D+01  1  2 15  2  5  2       -4 0.202796809811D-02 0.100000000000D+01
0.957514273754D-05 0.000000000000D+00 0.000000000000D+00 0.148252331423D-02 0.000000000000D+00  5 4 -4 25 23 21 2 0.23956132D-01 0.31952433D-01 0.29679227D+05 0.29679227D+05 0.29679227D+05 0.12153887D+01  1  2 12  2  5  2       -4 0.375329411554D-03 0.100000000000D+01
-.885932404774D-04 0.000000000000D+00 -.525450669078D-04 0.148252331423D-02 0.000000000000D+00  5 4 -4 25 23 21 2 0.23956132D-01 0.37702684D-01 0.13572728D+05 0.13572728D+05 0.13572728D+05 0.12528035D+01  1  2  5  2  5  2       -4 -.250447834985D-02 0.100000000000D+01
0.777531827665D-06 0.000000000000D+00 0.000000000000D+00 0.148252331423D-02 0.000000000000D+00  5 4 21 25 23 4 2 0.23956132D-01 0.31952433D-01 0.29679227D+05 0.29679227D+05 0.29679227D+05 0.12153887D+01  1  2 12  4  5  2       -4 0.733529209226D-03 0.100000000000D+01
-.568635677285D-05 0.000000000000D+00 -.529878627621D-05 0.148252331423D-02 0.000000000000D+00  5 4 21 25 23 4 2 0.23956132D-01 0.37702684D-01 0.13572728D+05 0.13572728D+05 0.13572728D+05 0.12528035D+01  1  2  5  4  5  2       -4 -.401931616739D-02 0.100000000000D+01
  </mgrwgt>
  </event>
  <event>
  4     66 0.45228882E-03 0.11093040E+03 0.75467711E-02 0.11121892E+00
        2 -1    0    0  501    0 0.00000000E+00 0.00000000E+00 0.12040948E+04 0.12040949E+04 0.32000000E+00 0.0000E+00 0.9000E+01
       -2 -1    0    0    0  501 0.00000000E+00 0.00000000E+00 -.14639419E+02 0.14642916E+02 0.32000000E+00 0.0000E+00 0.9000E+01
       25  1    1    2    0    0 -.24592684E+02 0.14183218E+01 0.98865739E+03 0.99683261E+03 0.12500000E+03 0.0000E+00 0.9000E+01
       23  1    1    2    0    0 0.24592684E+02 -.14183218E+01 0.20079800E+03 0.22190516E+03 0.91188000E+02 0.0000E+00 0.9000E+01
#aMCatNLO 1  0  0  1  2 0.20257247D+03 0.00000000D+00  -5  5  0 0.00000000D+00 0.00000000D+00 0.00000000D+00 0.00000000D+00 0.00000000D+00
  <mgrwgt>
 0.1992000989D+00    3    2    0
 0.132775769756363D+03 0.000000000000000D+00 0.000000000000000D+00 0.132775769756363D+03
 0.132775769756363D+03 0.000000000000000D+00 0.000000000000000D+00 -.132775769756363D+03
 0.146539102986163D+03 -.245926841028466D+02 0.141832180825003D+01 0.724009458215500D+02
 0.119012436526563D+03 0.245926841028466D+02 -.141832180825003D+01 -.724009458215500D+02
 0.000000000000000D+00 -.000000000000000D+00 0.000000000000000D+00 -.000000000000000D+00
 0.240002671909931D+03 0.000000000000000D+00 0.000000000000000D+00 0.240002671909931D+03
 0.307521668421986D+03 0.000000000000000D+00 0.000000000000000D+00 -.307521668421986D+03
 0.167463442889742D+03 0.676484782643295D+02 -.509979522839034D+02 0.724009458215500D+02
 0.166532401278361D+03 0.108474130584756D+03 -.490841661797715D+02 -.724009458215500D+02
 0.213528496163814D+03 -.176122608849086D+03 0.100082118463675D+03 -.675189965120542D+02
0.158155457156D-03 0.000000000000D+00 0.000000000000D+00 0.114851503379D-02 0.000000000000D+00  5 2 -2 25 23 21 0 0.18524563D+00 0.22524905D-02 0.12305554D+05 0.12305554D+05 0.12305554D+05 0.12577463D+01  1  2  2  1  5  1        2 0.194561568828D+00 0.100000000000D+01
-.844121219830D-05 0.000000000000D+00 -.607358598766D-06 0.114851503379D-02 0.000000000000D+00  5 2 -2 25 23 21 2 0.18524563D+00 0.22524905D-02 0.12305554D+05 0.12305554D+05 0.12305554D+05 0.12577463D+01  1  2  3  1  5  1        2 -.164272097926D-01 0.100000000000D+01
0.108247464232D-04 0.000000000000D+00 0.000000000000D+00 0.114851503379D-02 0.000000000000D+00  5 2 -2 25 23 21 2 0.18524563D+00 0.22524905D-02 0.12305554D+05 0.12305554D+05 0.12305554D+05 0.12577463D+01  1  2 15  1  5  1        2 0.210657398804D-01 0.100000000000D+01
  </mgrwgt>
  </event>
  <event>
  4     66 0.45228882E-03 0.16577477E+03 0.75467711E-02 0.11650494E+00
        2 -1    0    0  501    0 0.00000000E+00 0.00000000E+00 0.48863677E+03 0.48863687E+03 0.32000000E+00 0.0000E+00 0.9000E+01
       -2 -1    0    0    0  501 0.00000000E+00 0.00000000E+00 -.83683142E+02 0.83683753E+02 0.32000000E+00 0.0000E+00 0.9000E+01
       25  1    1    2    0    0 -.47186086E+02 0.11578489E+03 0.37515367E+03 0.41472635E+03 0.12500000E+03 0.0000E+00 0.9000E+01
       23  1    1    2    0    0 0.47186086E+02 -.11578489E+03 0.29799960E+02 0.15759428E+03 0.91188000E+02 0.0000E+00 0.9000E+01
#aMCatNLO 1  0  0  2  1 0.32385658D+02 0.00000000D+00  -5  5  0 0.00000000D+00 0.00000000D+00 0.00000000D+00 0.00000000D+00 0.00000000D+00
  <mgrwgt>
 0.6915656606D-01    4    2    0
 0.202214897614713D+03 0.000000000000000D+00 0.000000000000000D+00 0.202214897614713D+03
 0.202214897614713D+03 0.000000000000000D+00 0.000000000000000D+00 -.202214897614713D+03
 0.211252002128555D+03 -.471860863907856D+02 0.115784892990921D+03 0.115627592768877D+03
 0.193177793100871D+03 0.471860863907856D+02 -.115784892990921D+03 -.115627592768877D+03
 0.000000000000000D+00 -.000000000000000D+00 0.000000000000000D+00 0.000000000000000D+00
 0.228825534197087D+03 0.000000000000000D+00 0.000000000000000D+00 0.228825534197087D+03
 0.212961354848292D+03 0.000000000000000D+00 0.000000000000000D+00 -.212961354848292D+03
 0.201916498569226D+03 -.408187033066784D+02 0.100545341241117D+03 0.115627592768877D+03
 0.203807903064697D+03 0.533040745775137D+02 -.130427548591311D+03 -.115627592768877D+03
 0.360624874114546D+02 -.124853712708353D+02 0.298822073501941D+02 0.158641793487949D+02
0.509963315349D-03 0.000000000000D+00 0.000000000000D+00 0.800438731729D-03 0.000000000000D+00  5 2 -2 25 23 21 0 0.75174942D-01 0.12874385D-01 0.27481274D+05 0.27481274D+05 0.27481274D+05 0.12189159D+01  1  2  2  2  5  2       -2 0.141032983941D+00 0.100000000000D+01
-.269712676377D-04 0.000000000000D+00 -.195839340737D-05 0.800438731729D-03 0.000000000000D+00  5 2 -2 25 23 21 2 0.75174942D-01 0.12874385D-01 0.27481274D+05 0.27481274D+05 0.27481274D+05 0.12189159D+01  1  2  3  2  5  2       -2 -.110823183437D-01 0.100000000000D+01
0.350154151469D-04 0.000000000000D+00 0.000000000000D+00 0.800438731729D-03 0.000000000000D+00  5 2 -2 25 23 21 2 0.75174942D-01 0.12874385D-01 0.27481274D+05 0.27481274D+05 0.27481274D+05 0.12189159D+01  1  2 15  2  5  2       -2 0.143876062040D-01 0.100000000000D+01
-.182971274065D-03 0.000000000000D+00 0.000000000000D+00 0.800438731729D-03 0.000000000000D+00  5 2 -2 25 23 21 2 0.75174942D-01 0.12874385D-01 0.27481274D+05 0.27481274D+05 0.27481274D+05 0.12189159D+01  1  2  4  2  5  2       -2 -.751817057389D-01 0.100000000000D+01
  </mgrwgt>
  </event>
  <event>
  4     66 0.45228882E-03 0.93271498E+02 0.75467711E-02 0.12073996E+00
        2 -1    0    0  501    0 0.00000000E+00 0.00000000E+00 0.20508392E+03 0.20508417E+03 0.32000000E+00 0.0000E+00 0.9000E+01
       -2 -1    0    0    0  501 0.00000000E+00 0.00000000E+00 -.83653037E+02 0.83653650E+02 0.32000000E+00 0.0000E+00 0.9000E+01
       25  1    1    2    0    0 0.16942239E+02 0.70089893E+02 0.82008050E+02 0.16598178E+03 0.12500000E+03 0.0000E+00 0.9000E+01
       23  1    1    2    0    0 -.16942239E+02 -.70089893E+02 0.39422829E+02 0.12275603E+03 0.91188000E+02 0.0000E+00 0.9000E+01
#aMCatNLO 1  0  0  2  1 0.27049572D+02 0.00000000D+00  -5  5  0 0.00000000D+00 0.00000000D+00 0.00000000D+00 0.00000000D+00 0.00000000D+00
  <mgrwgt>
 0.1495998044D+00    9    2    0
 0.130980979646021D+03 0.000000000000000D+00 0.000000000000000D+00 0.130980979646021D+03
 0.130980979646021D+03 0.000000000000000D+00 0.000000000000000D+00 -.130980979646021D+03
 0.144932907391093D+03 0.169422392744975D+02 0.700898926525836D+02 0.134504691795522D+02
 0.117029051900949D+03 -.169422392744975D+02 -.700898926525836D+02 -.134504691795522D+02
 0.000000000000000D+00 -.000000000000000D+00 -.000000000000000D+00 -.000000000000000D+00
 0.142601903882582D+03 0.000000000000000D+00 0.000000000000000D+00 0.142601903882582D+03
 0.148421387029468D+03 0.000000000000000D+00 0.000000000000000D+00 -.148421387029468D+03
 0.150101514689526D+03 0.309659315210911D+02 0.759319476634901D+02 0.134504691795522D+02
 0.113253279191271D+03 -.599636889675900D+01 -.655300110062552D+02 -.134504691795522D+02
 0.276684970312531D+02 -.249695626243321D+02 -.104019366572349D+02 -.581948314688620D+01
0.156595385284D-03 0.000000000000D+00 0.000000000000D+00 0.150575459096D-02 0.000000000000D+00  5 2 -2 25 23 21 0 0.31551438D-01 0.12869764D-01 0.16973003D+05 0.16973003D+05 0.16973003D+05 0.12417504D+01  1  2  2  2  5  2       -2 0.108481089877D+00 0.100000000000D+01
-.869943945617D-05 0.000000000000D+00 -.601367512003D-06 0.150575459096D-02 0.000000000000D+00  5 2 -2 25 23 21 2 0.31551438D-01 0.12869764D-01 0.16973003D+05 0.16973003D+05 0.16973003D+05 0.12417504D+01  1  2  3  2  5  2       -2 -.929255156473D-02 0.100000000000D+01
0.108152943276D-04 0.000000000000D+00 0.000000000000D+00 0.150575459096D-02 0.000000000000D+00  5 2 -2 25 23 21 2 0.31551438D-01 0.12869764D-01 0.16973003D+05 0.16973003D+05 0.16973003D+05 0.12417504D+01  1  2 15  2  5  2       -2 0.115526616092D-01 0.100000000000D+01
0.138283148426D-03 0.000000000000D+00 0.000000000000D+00 0.150575459096D-02 0.000000000000D+00  5 2 -2 25 23 21 2 0.31551438D-01 0.15090880D-01 0.20880099D+05 0.20880099D+05 0.20880099D+05 0.12317724D+01  1  2 12  2  5  2       -2 0.113029612414D+00 0.100000000000D+01
-.125711735979D-03 0.000000000000D+00 0.000000000000D+00 0.150575459096D-02 0.000000000000D+00  5 2 -2 25 23 21 2 0.31551438D-01 0.12869764D-01 0.16973003D+05 0.16973003D+05 0.16973003D+05 0.12417504D+01  1  2  4  2  5  2       -2 -.134282535646D+00 0.100000000000D+01
-.352766877201D-03 0.000000000000D+00 -.964820688570D-04 0.150575459096D-02 0.000000000000D+00  5 2 -2 25 23 21 2 0.31551438D-01 0.15832130D-01 0.16973003D+05 0.16973003D+05 0.16973003D+05 0.12417504D+01  1  2  5  2  5  2       -2 -.269176638615D+00 0.100000000000D+01
0.366887296476D-03 0.000000000000D+00 0.944481621623D-04 0.150575459096D-02 0.000000000000D+00  5 2 -2 25 23 21 2 0.31551438D-01 0.12869764D-01 0.16973003D+05 0.16973003D+05 0.16973003D+05 0.12417504D+01  1  2  6  2  5  2       -2 0.391901011338D+00 0.100000000000D+01
0.330939559571D-05 0.000000000000D+00 0.000000000000D+00 0.150575459096D-02 0.000000000000D+00  5 2 21 25 23 2 2 0.31551438D-01 0.15090880D-01 0.20880099D+05 0.20880099D+05 0.20880099D+05 0.12317724D+01  1  2 12  4  5  2       -2 0.396056031381D-01 0.100000000000D+01
-.919000415282D-05 0.000000000000D+00 -.283626454914D-05 0.150575459096D-02 0.000000000000D+00  5 2 21 25 23 2 2 0.31551438D-01 0.15832130D-01 0.16973003D+05 0.16973003D+05 0.16973003D+05 0.12417504D+01  1  2  5  4  5  2       -2 -.102218448141D+00 0.100000000000D+01
  </mgrwgt>
  </event>
  <event>
  4     66 0.45228882E-03 0.12754555E+03 0.75467711E-02 0.11508358E+00
        2 -1    0    0  501    0 0.00000000E+00 0.00000000E+00 0.30171507E+04 0.30171508E+04 0.32000000E+00 0.0000E+00 0.9000E+01
       -2 -1    0    0    0  501 0.00000000E+00 0.00000000E+00 -.12343316E+02 0.12347463E+02 0.32000000E+00 0.0000E+00 0.9000E+01
       25  1    1    2    0    0 -.12545339E+03 0.94630864E+02 0.13723639E+04 0.13869756E+04 0.12500000E+03 0.0000E+00 0.9000E+01
       23  1    1    2    0    0 0.12545339E+03 -.94630864E+02 0.16324435E+04 0.16425227E+04 0.91188000E+02 0.0000E+00 0.9000E+01
#aMCatNLO 1  0  0  2  1 0.14645689D+02 0.00000000D+00  -5  5  0 0.00000000D+00 0.00000000D+00 0.00000000D+00 0.00000000D+00 0.00000000D+00
  <mgrwgt>
 0.9871205508D-01    9    2    0
 0.192997288113881D+03 0.000000000000000D+00 0.000000000000000D+00 0.192997288113881D+03
 0.192997288113881D+03 0.000000000000000D+00 0.000000000000000D+00 -.192997288113881D+03
 0.202466007502942D+03 -.125453387174252D+03 0.946308641596790D+02 -.259601885409332D+02
 0.183528568724821D+03 0.125453387174252D+03 -.946308641596790D+02 0.259601885409332D+02
 0.000000000000000D+00 -.000000000000000D+00 0.000000000000000D+00 -.000000000000000D+00
 0.194476060967685D+03 0.000000000000000D+00 0.000000000000000D+00 0.194476060967685D+03
 0.233157141340162D+03 0.000000000000000D+00 0.000000000000000D+00 -.233157141340162D+03
 0.197479856541197D+03 -.117916207360513D+03 0.937823565078387D+02 -.259601885409332D+02
 0.188792468469603D+03 0.132469963311323D+03 -.954207641871630D+02 0.259601885409332D+02
 0.413608772970478D+02 -.145537559508100D+02 0.163840767932440D+01 -.386810803724772D+02
0.886658528982D-03 0.000000000000D+00 0.000000000000D+00 0.113739052993D-02 0.000000000000D+00  5 2 -2 25 23 21 0 0.46417736D+00 0.18992920D-02 0.36572366D+05 0.36572366D+05 0.36572366D+05 0.12059714D+01  1  2  2  2  5  2       -2 0.152483788574D+00 0.100000000000D+01
-.492537906621D-04 0.000000000000D+00 -.340500221384D-05 0.113739052993D-02 0.000000000000D+00  5 2 -2 25 23 21 2 0.46417736D+00 0.18992920D-02 0.36572366D+05 0.36572366D+05 0.36572366D+05 0.12059714D+01  1  2  3  2  5  2       -2 -.123191562176D-01 0.100000000000D+01
0.610354846524D-04 0.000000000000D+00 0.000000000000D+00 0.113739052993D-02 0.000000000000D+00  5 2 -2 25 23 21 2 0.46417736D+00 0.18992920D-02 0.36572366D+05 0.36572366D+05 0.36572366D+05 0.12059714D+01  1  2 15  2  5  2       -2 0.152659452225D-01 0.100000000000D+01
0.752853300482D-02 0.000000000000D+00 0.000000000000D+00 0.113739052993D-02 0.000000000000D+00  5 2 -2 25 23 21 2 0.46417736D+00 0.23007939D-02 0.39483852D+05 0.39483852D+05 0.39483852D+05 0.12025735D+01  1  2 12  2  5  2       -2 0.141131001188D+01 0.100000000000D+01
-.750691844619D-02 0.000000000000D+00 0.000000000000D+00 0.113739052993D-02 0.000000000000D+00  5 2 -2 25 23 21 2 0.46417736D+00 0.18992920D-02 0.36572366D+05 0.36572366D+05 0.36572366D+05 0.12059714D+01  1  2  4  2  5  2       -2 -.187759966915D+01 0.100000000000D+01
-.884974355619D-02 0.000000000000D+00 -.572624060708D-03 0.113739052993D-02 0.000000000000D+00  5 2 -2 25 23 21 2 0.46417736D+00 0.23167294D-02 0.36572366D+05 0.36572366D+05 0.36572366D+05 0.12059714D+01  1  2  5  2  5  2       -2 -.165414909803D+01 0.100000000000D+01
0.880037254020D-02 0.000000000000D+00 0.561505723397D-03 0.113739052993D-02 0.000000000000D+00  5 2 -2 25 23 21 2 0.46417736D+00 0.18992920D-02 0.36572366D+05 0.36572366D+05 0.36572366D+05 0.12059714D+01  1  2  6  2  5  2       -2 0.220111310497D+01 0.100000000000D+01
0.208585740786D-03 0.000000000000D+00 0.000000000000D+00 0.113739052993D-02 0.000000000000D+00  5 2 21 25 23 2 2 0.46417736D+00 0.23007939D-02 0.39483852D+05 0.39483852D+05 0.39483852D+05 0.12025735D+01  1  2 12  4  5  2       -2 0.790779020994D+00 0.100000000000D+01
-.245443448608D-03 0.000000000000D+00 -.163033149151D-04 0.113739052993D-02 0.000000000000D+00  5 2 21 25 23 2 2 0.46417736D+00 0.23167294D-02 0.36572366D+05 0.36572366D+05 0.36572366D+05 0.12059714D+01  1  2  5  4  5  2       -2 -.928171893169D+00 0.100000000000D+01
  </mgrwgt>
  </event>
  <event>
  4     66 0.45228882E-03 0.14229939E+03 0.75467711E-02 0.11403893E+00
        2 -1    0    0  501    0 0.00000000E+00 0.00000000E+00 0.10946883E+03 0.10946930E+03 0.32000000E+00 0.0000E+00 0.9000E+01
       -2 -1    0    0    0  501 0.00000000E+00 0.00000000E+00 -.24794006E+03 0.24794027E+03 0.32000000E+00 0.0000E+00 0.9000E+01
       25  1    1    2    0    0 0.83734684E+01 -.91508465E+02 -.16367897E+03 0.22552100E+03 0.12500000E+03 0.0000E+00 0.9000E+01
       23  1    1    2    0    0 -.83734684E+01 0.91508465E+02 0.25207746E+02 0.13188857E+03 0.91188000E+02 0.0000E+00 0.9000E+01
#aMCatNLO 1  0  0  2  1 0.11859682D+03 0.00000000D+00  -5  5  0 0.00000000D+00 0.00000000D+00 0.00000000D+00 0.00000000D+00 0.00000000D+00
  <mgrwgt>
 0.1531170512D+00    3    2    0
 0.164747777637987D+03 0.000000000000000D+00 0.000000000000000D+00 0.164747777637987D+03
 0.164747777637987D+03 0.000000000000000D+00 0.000000000000000D+00 -.164747777637987D+03
 0.175840110355309D+03 0.837346836795713D+01 -.915084649899486D+02 -.827697424935067D+02
 0.153655444920664D+03 -.837346836795713D+01 0.915084649899486D+02 0.827697424935067D+02
 0.000000000000000D+00 0.000000000000000D+00 0.000000000000000D+00 0.000000000000000D+00
 0.257736959866239D+03 0.000000000000000D+00 0.000000000000000D+00 0.257736959866239D+03
 0.217643066608465D+03 0.000000000000000D+00 0.000000000000000D+00 -.217643066608465D+03
 0.219712979951696D+03 0.626083244022346D+01 -.160495374587457D+03 -.827697424935067D+02
 0.130476291472041D+03 -.989100654228081D+01 0.419541298257527D+02 0.827697424935067D+02
 0.125190755050968D+03 0.363017410205735D+01 0.118541244761705D+03 0.400938932577742D+02
0.696486800517D-03 0.000000000000D+00 0.000000000000D+00 0.990216071622D-03 0.000000000000D+00  5 2 -2 25 23 21 0 0.16841411D-01 0.38144677D-01 0.20249118D+05 0.20249118D+05 0.20249118D+05 0.12332346D+01  1  2  2  2  5  2       -2 0.149827122577D+00 0.100000000000D+01
-.376842421711D-04 0.000000000000D+00 -.267469270317D-05 0.990216071622D-03 0.000000000000D+00  5 2 -2 25 23 21 2 0.16841411D-01 0.38144677D-01 0.20249118D+05 0.20249118D+05 0.20249118D+05 0.12332346D+01  1  2  3  2  5  2       -2 -.123290255309D-01 0.100000000000D+01
0.477400626377D-04 0.000000000000D+00 0.000000000000D+00 0.990216071622D-03 0.000000000000D+00  5 2 -2 25 23 21 2 0.16841411D-01 0.38144677D-01 0.20249118D+05 0.20249118D+05 0.20249118D+05 0.12332346D+01  1  2 15  2  5  2       -2 0.156189541622D-01 0.100000000000D+01
  </mgrwgt>
  </event>
  <event>
  4     66 0.45228882E-03 0.11198077E+03 0.75467711E-02 0.10765380E+00
        2 -1    0    0  501    0 0.00000000E+00 0.00000000E+00 0.22807467E+03 0.22807489E+03 0.32000000E+00 0.0000E+00 0.9000E+01
       -2 -1    0    0    0  501 0.00000000E+00 0.00000000E+00 -.56012676E+02 0.56013590E+02 0.32000000E+00 0.0000E+00 0.9000E+01
       25  1    1    2    0    0 0.41032974E+01 -.28618980E+02 0.11742261E+03 0.17392226E+03 0.12500000E+03 0.0000E+00 0.9000E+01
       23  1    1    2    0    0 -.41032974E+01 0.28618980E+02 0.54639378E+02 0.11016622E+03 0.91188000E+02 0.0000E+00 0.9000E+01
#aMCatNLO 1  0  0  2  1 0.27865875D+03 0.00000000D+00  -5  5  0 0.00000000D+00 0.00000000D+00 0.00000000D+00 0.00000000D+00 0.00000000D+00
  <mgrwgt>
 0.1559245239D+00    3    2    0
 0.113027581676828D+03 0.000000000000000D+00 0.000000000000000D+00 0.113027581676828D+03
 0.113027581676828D+03 0.000000000000000D+00 0.000000000000000D+00 -.113027581676828D+03
 0.129195645585556D+03 0.410329744560856D+01 -.286189804414086D+02 0.151865646818431D+02
 0.968595177680989D+02 -.410329744560856D+01 0.286189804414086D+02 -.151865646818431D+02
 0.000000000000000D+00 -.000000000000000D+00 -.000000000000000D+00 0.000000000000000D+00
 0.379216396399570D+03 0.000000000000000D+00 0.000000000000000D+00 0.379216396399570D+03
 0.276567258679599D+03 0.000000000000000D+00 0.000000000000000D+00 -.276567258679599D+03
 0.209675149873427D+03 0.165541938186807D+03 -.265311784314933D+02 0.151865646818431D+02
 0.149144630116648D+03 0.113093509666137D+03 0.301346258180060D+02 -.151865646818431D+02
 0.296963875089095D+03 -.278635447852943D+03 -.360344738651270D+01 0.102649137719971D+03
0.132856471904D-03 0.000000000000D+00 0.000000000000D+00 0.178242804602D-02 0.000000000000D+00  5 2 -2 25 23 21 0 0.35088498D-01 0.86174223D-02 0.12539692D+05 0.12539692D+05 0.12539692D+05 0.12567911D+01  1  2  2  2  5  2       -2 0.152638196489D+00 0.100000000000D+01
-.738013814359D-05 0.000000000000D+00 -.510203834024D-06 0.178242804602D-02 0.000000000000D+00  5 2 -2 25 23 21 2 0.35088498D-01 0.86174223D-02 0.12539692D+05 0.12539692D+05 0.12539692D+05 0.12567911D+01  1  2  3  2  5  2       -2 -.133927941010D-01 0.100000000000D+01
0.919107841272D-05 0.000000000000D+00 0.000000000000D+00 0.178242804602D-02 0.000000000000D+00  5 2 -2 25 23 21 2 0.35088498D-01 0.86174223D-02 0.12539692D+05 0.12539692D+05 0.12539692D+05 0.12567911D+01  1  2 15  2  5  2       -2 0.166791214952D-01 0.100000000000D+01
  </mgrwgt>
  </event>
  <event>
  5     66 0.45228882E-03 0.22506664E+03 0.75467711E-02 0.10687865E+00
       21 -1    0    0  501  502 0.00000000E+00 0.00000000E+00 0.19843812E+03 0.19843954E+03 0.75000000E+00 0.0000E+00 0.9000E+01
       -2 -1    0    0    0  501 0.00000000E+00 0.00000000E+00 -.74983323E+03 0.74983330E+03 0.32000000E+00 0.0000E+00 0.9000E+01
       25  1    1    2    0    0 0.24947297E+03 -.12242090E+03 -.36104250E+03 0.47244082E+03 0.12500000E+03 0.0000E+00 0.9000E+01
       23  1    1    2    0    0 -.66245412E+02 0.14251382E+03 -.22403483E+03 0.28845363E+03 0.91188000E+02 0.0000E+00 0.9000E+01
       -2  1    1    2    0  502 -.18322756E+03 -.20092921E+02 0.33682213E+02 0.18737838E+03 0.32000000E+00 0.0000E+00 0.9000E+01
#aMCatNLO 2  0  0  1  2 0.18432597D+03 0.00000000D+00  -5  5  0 0.00000000D+00 0.00000000D+00 0.00000000D+00 0.00000000D+00 0.00000000D+00
  <mgrwgt>
 0.3088418741D-01    2    2    0
 0.225093773334401D+03 0.000000000000000D+00 0.000000000000000D+00 0.225093773334401D+03
 0.225093773334401D+03 0.000000000000000D+00 0.000000000000000D+00 -.225093773334401D+03
 0.233212332710475D+03 0.144240396751554D+03 -.133960813364058D+03 0.349292943756619D+01
 0.216975213958326D+03 -.144240396751554D+03 0.133960813364058D+03 -.349292943756619D+01
 0.000000000000000D+00 -.000000000000000D+00 -.000000000000000D+00 0.000000000000000D+00
 0.549052658024664D+03 0.000000000000000D+00 0.000000000000000D+00 0.549052658024664D+03
 0.271005193044035D+03 0.000000000000000D+00 0.000000000000000D+00 -.271005193044035D+03
 0.304730768471290D+03 0.249472971344619D+03 -.122420902077767D+03 0.349292943756619D+01
 0.181730834483410D+03 -.662454119823849D+02 0.142513822814719D+03 -.349292943756619D+01
 0.333596248113999D+03 -.183227559362234D+03 -.200929207369518D+02 0.278047464980629D+03
-.201002266755D-04 0.000000000000D+00 0.000000000000D+00 0.108630870252D-02 0.000000000000D+00  5 21 -2 25 23 -2 2 0.30024899D-01 0.95815884D-01 0.11247102D+06 0.11247102D+06 0.11247102D+06 0.11589119D+01  1  2 13  3  5  1        2 -.214921710812D-02 0.100000000000D+01
0.495394392483D-03 0.000000000000D+00 0.000000000000D+00 0.108630870252D-02 0.384853361954D-07  5 21 -2 25 23 -2 2 0.30529048D-01 0.11535904D+00 0.11247102D+06 0.11247102D+06 0.11247102D+06 0.11589119D+01  1  2  1  3  5  1        2 0.330334045179D-01 0.100000000000D+01
  </mgrwgt>
  </event>
  <event>
  4     66 0.45228882E-03 0.10946364E+03 0.75467711E-02 0.12562587E+00
        2 -1    0    0  501    0 0.00000000E+00 0.00000000E+00 0.35199378E+03 0.35199393E+03 0.32000000E+00 0.0000E+00 0.9000E+01
       -2 -1    0    0    0  501 0.00000000E+00 0.00000000E+00 -.34684291E+02 0.34685767E+02 0.32000000E+00 0.0000E+00 0.9000E+01
       25  1    1    2    0    0 0.92708542E+01 -.14315035E+02 0.20844408E+03 0.24364894E+03 0.12500000E+03 0.0000E+00 0.9000E+01
       23  1    1    2    0    0 -.92708542E+01 0.14315035E+02 0.10886541E+03 0.14303076E+03 0.91188000E+02 0.0000E+00 0.9000E+01
#aMCatNLO 1  0  0  2  2 0.57181796D+01 0.00000000D+00  -5  5  0 0.00000000D+00 0.00000000D+00 0.00000000D+00 0.00000000D+00 0.00000000D+00
  <mgrwgt>
 0.9450086461D-01    6    2    0
 0.110494199731292D+03 0.000000000000000D+00 0.000000000000000D+00 0.110494199731292D+03
 0.110494199731292D+03 0.000000000000000D+00 0.000000000000000D+00 -.110494199731292D+03
 0.127032960756251D+03 0.927085417769258D+01 -.143150349897186D+02 0.148830156406013D+02
 0.939554387063319D+02 -.927085417769258D+01 0.143150349897186D+02 -.148830156406013D+02
 0.000000000000000D+00 0.000000000000000D+00 -.000000000000000D+00 0.000000000000000D+00
 0.119122097496656D+03 0.000000000000000D+00 0.000000000000000D+00 0.119122097496656D+03
 0.111482699995477D+03 0.000000000000000D+00 0.000000000000000D+00 -.111482699995477D+03
 0.126684473638121D+03 0.896731956975259D+01 -.110471211699440D+02 0.148830156406013D+02
 0.943778937497885D+02 -.949616657833841D+01 0.167407930040492D+02 -.148830156406013D+02
 0.954243010422352D+01 0.528847008585821D+00 -.569367183410519D+01 0.763939750117889D+01
0.772337104099D-04 0.000000000000D+00 0.000000000000D+00 0.183991626823D-02 0.000000000000D+00  5 2 -2 25 23 21 0 0.54153015D-01 0.53361694D-02 0.11982289D+05 0.11982289D+05 0.11982289D+05 0.12590993D+01  1  2  2  2  5  2       -2 0.116091077266D+00 0.100000000000D+01
-.429030360444D-05 0.000000000000D+00 -.296597784077D-06 0.183991626823D-02 0.000000000000D+00  5 2 -2 25 23 21 2 0.54153015D-01 0.53361694D-02 0.11982289D+05 0.11982289D+05 0.11982289D+05 0.12590993D+01  1  2  3  2  5  2       -2 -.102235076370D-01 0.100000000000D+01
0.533911683303D-05 0.000000000000D+00 0.000000000000D+00 0.183991626823D-02 0.000000000000D+00  5 2 -2 25 23 21 2 0.54153015D-01 0.53361694D-02 0.11982289D+05 0.11982289D+05 0.11982289D+05 0.12590993D+01  1  2 15  2  5  2       -2 0.127227596809D-01 0.100000000000D+01
-.213241147536D-04 0.000000000000D+00 0.000000000000D+00 0.183991626823D-02 0.000000000000D+00  5 2 -2 25 23 21 2 0.54153015D-01 0.53361694D-02 0.11982289D+05 0.11982289D+05 0.11982289D+05 0.12590993D+01  1  2  4  2  5  2       -2 -.508139446847D-01 0.100000000000D+01
0.692996997866D-05 0.000000000000D+00 0.000000000000D+00 0.183991626823D-02 0.475110024880D-03  5 2 -2 25 23 21 2 0.58381532D-01 0.53839077D-02 0.12625038D+05 0.12625038D+05 0.12625038D+05 0.12564479D+01  1  2 11  2  5  2       -2 0.150210344491D-01 0.100000000000D+01
0.304026939785D-06 0.000000000000D+00 0.000000000000D+00 0.183991626823D-02 0.815428987709D-06  5 2 21 25 23 2 2 0.58381532D-01 0.53839077D-02 0.12625038D+05 0.12625038D+05 0.12625038D+05 0.12564479D+01  1  2 11  4  5  2       -2 0.117034455366D-01 0.100000000000D+01
  </mgrwgt>
  </event>
  <event>
  4     66 0.45228882E-03 0.33501686E+03 0.75467711E-02 0.10628948E+00
        2 -1    0    0  501    0 0.00000000E+00 0.00000000E+00 0.10596072E+04 0.10596072E+04 0.32000000E+00 0.0000E+00 0.9000E+01
       -2 -1    0    0    0  501 0.00000000E+00 0.00000000E+00 -.16554170E+03 0.16554201E+03 0.32000000E+00 0.0000E+00 0.9000E+01
       25  1    1    2    0    0 -.25456505E+03 0.18839470E+03 0.84101560E+02 0.35070500E+03 0.12500000E+03 0.0000E+00 0.9000E+01
       23  1    1    2    0    0 0.25456505E+03 -.18839470E+03 0.80996392E+03 0.87444424E+03 0.91188000E+02 0.0000E+00 0.9000E+01
#aMCatNLO 1  0  0  2  2 0.28107977D+02 0.00000000D+00  -5  5  0 0.00000000D+00 0.00000000D+00 0.00000000D+00 0.00000000D+00 0.00000000D+00
  <mgrwgt>
 0.1547491034D+00    4    2    0
 0.418819047283045D+03 0.000000000000000D+00 0.000000000000000D+00 0.418819047283045D+03
 0.418819047283045D+03 0.000000000000000D+00 0.000000000000000D+00 -.418819047283045D+03
 0.423182356869500D+03 -.254565047064715D+03 0.188394696149241D+03 -.251321273356235D+03
 0.414455737696590D+03 0.254565047064715D+03 -.188394696149241D+03 0.251321273356235D+03
 0.000000000000000D+00 -.000000000000000D+00 -.000000000000000D+00 0.000000000000000D+00
 0.646387077552434D+03 0.000000000000000D+00 0.000000000000000D+00 0.646387077552434D+03
 0.419923616887223D+03 0.000000000000000D+00 0.000000000000000D+00 -.419923616887223D+03
 0.427671313973149D+03 -.251372551270232D+03 0.202304747403551D+03 -.251321273356235D+03
 0.410438246799609D+03 0.257660139284027D+03 -.174909042861350D+03 0.251321273356235D+03
 0.228201133666899D+03 -.628758801379493D+01 -.273957045422013D+02 0.226463460665210D+03
0.462186349946D-02 0.000000000000D+00 0.000000000000D+00 0.623941610176D-03 0.000000000000D+00  5 2 -2 25 23 21 0 0.16301652D+00 0.25467981D-01 0.11223630D+06 0.11223630D+06 0.11223630D+06 0.11589942D+01  1  2  2  2  5  2       -2 0.153505006545D+00 0.100000000000D+01
-.241209084617D-03 0.000000000000D+00 -.177491728025D-04 0.623941610176D-03 0.000000000000D+00  5 2 -2 25 23 21 2 0.16301652D+00 0.25467981D-01 0.11223630D+06 0.11223630D+06 0.11223630D+06 0.11589942D+01  1  2  3  2  5  2       -2 -.107612226863D-01 0.100000000000D+01
0.317746600975D-03 0.000000000000D+00 0.000000000000D+00 0.623941610176D-03 0.000000000000D+00  5 2 -2 25 23 21 2 0.16301652D+00 0.25467981D-01 0.11223630D+06 0.11223630D+06 0.11223630D+06 0.11589942D+01  1  2 15  2  5  2       -2 0.141758422422D-01 0.100000000000D+01
-.486515163951D-04 0.000000000000D+00 0.000000000000D+00 0.623941610176D-03 0.000000000000D+00  5 2 -2 25 23 21 2 0.16301652D+00 0.25467981D-01 0.11223630D+06 0.11223630D+06 0.11223630D+06 0.11589942D+01  1  2  4  2  5  2       -2 -.217052273460D-02 0.100000000000D+01
  </mgrwgt>
  </event>
  <event>
  5     66 0.45228882E-03 0.12233727E+03 0.75467711E-02 0.11128985E+00
        2 -1    0    0  501    0 0.00000000E+00 0.00000000E+00 0.23411240E+03 0.23411261E+03 0.32000000E+00 0.0000E+00 0.9000E+01
       21 -1    0    0  502  501 0.00000000E+00 0.00000000E+00 -.34099585E+03 0.34099667E+03 0.75000000E+00 0.0000E+00 0.9000E+01
       25  1    1    2    0    0 0.88658651E+02 -.11435117E+03 0.62181765E+02 0.20106745E+03 0.12500000E+03 0.0000E+00 0.9000E+01
       23  1    1    2    0    0 -.33858406E+02 -.68643910E+02 -.16034325E+00 0.11905316E+03 0.91188000E+02 0.0000E+00 0.9000E+01
        2  1    1    2  502    0 -.54800245E+02 0.18299508E+03 -.16890487E+03 0.25498868E+03 0.32000000E+00 0.0000E+00 0.9000E+01
#aMCatNLO 2  0  0  2  2 0.19102426D+03 0.00000000D+00  -5  5  0 0.00000000D+00 0.00000000D+00 0.00000000D+00 0.00000000D+00 0.00000000D+00
  <mgrwgt>
 0.3274014027D-01    1    2    0
 0.124639761868333D+03 0.000000000000000D+00 0.000000000000000D+00 0.124639761868333D+03
 0.124639761868333D+03 0.000000000000000D+00 0.000000000000000D+00 -.124639761868333D+03
 0.139301512954880D+03 0.563649366055078D+02 -.651240266470653D+01 0.236747554265799D+02
 0.109978010781786D+03 -.563649366055078D+02 0.651240266470653D+01 -.236747554265799D+02
 0.000000000000000D+00 -.000000000000000D+00 0.000000000000000D+00 -.000000000000000D+00
 0.192400465433110D+03 0.000000000000000D+00 0.000000000000000D+00 0.192400465433110D+03
 0.414924104074816D+03 0.000000000000000D+00 0.000000000000000D+00 -.414924104074816D+03
 0.192670809405863D+03 0.886586510979597D+02 -.114351171126895D+03 0.236747554265799D+02
 0.121384197653294D+03 -.338584063911409D+02 -.686439099125176D+02 -.236747554265799D+02
 0.293269562448769D+03 -.548002447068188D+02 0.182995081039412D+03 -.222523638641706D+03
0.389542803548D-04 0.000000000000D+00 0.000000000000D+00 0.155648462986D-02 0.149341467384D-06  5 2 21 25 23 2 2 0.36017358D-01 0.52460959D-01 0.62822427D+05 0.62822427D+05 0.62822427D+05 0.11825859D+01  1  2  1  4  5  2       -2 0.327401402695D-01 0.100000000000D+01
  </mgrwgt>
  </event>
  <event>
  4     66 0.45228882E-03 0.11911681E+03 0.75467711E-02 0.11036747E+00
        2 -1    0    0  501    0 0.00000000E+00 0.00000000E+00 0.22385276E+03 0.22385299E+03 0.32000000E+00 0.0000E+00 0.9000E+01
       -2 -1    0    0    0  501 0.00000000E+00 0.00000000E+00 -.65275802E+02 0.65276586E+02 0.32000000E+00 0.0000E+00 0.9000E+01
       25  1    1    2    0    0 -.42900799E+02 -.24770410E+02 0.64792370E+02 0.14925516E+03 0.12500000E+03 0.0000E+00 0.9000E+01
       23  1    1    2    0    0 0.42900799E+02 0.24770410E+02 0.93784592E+02 0.13987442E+03 0.91188000E+02 0.0000E+00 0.9000E+01
#aMCatNLO 1  0  0  2  1 0.21248560D+03 0.00000000D+00  -5  5  0 0.00000000D+00 0.00000000D+00 0.00000000D+00 0.00000000D+00 0.00000000D+00
  <mgrwgt>
 0.1438095349D+00    5    2    0
 0.120881409105566D+03 0.000000000000000D+00 0.000000000000000D+00 0.120881409105566D+03
 0.120881409105566D+03 0.000000000000000D+00 0.000000000000000D+00 -.120881409105566D+03
 0.135999012197073D+03 -.429007989660486D+02 -.247704097967374D+02 -.204127304679217D+02
 0.105763806014060D+03 0.429007989660486D+02 0.247704097967374D+02 0.204127304679217D+02
 0.000000000000000D+00 -.000000000000000D+00 -.000000000000000D+00 -.000000000000000D+00
 0.234212810742441D+03 0.000000000000000D+00 0.000000000000000D+00 0.234212810742441D+03
 0.314970331850836D+03 0.000000000000000D+00 0.000000000000000D+00 -.314970331850836D+03
 0.140959129818602D+03 0.607142647839367D+02 -.118985194796498D+02 -.204127304679217D+02
 0.180909459859019D+03 0.150150466741385D+03 0.380938196387586D+02 0.204127304679217D+02
 0.227314552915656D+03 -.210864731525321D+03 -.261953001591088D+02 -.807575211083944D+02
0.133862975698D-03 0.000000000000D+00 0.000000000000D+00 0.162246918280D-02 0.000000000000D+00  5 2 -2 25 23 21 0 0.34438965D-01 0.10042509D-01 0.14188814D+05 0.14188814D+05 0.14188814D+05 0.12505845D+01  1  2  2  2  5  2       -2 0.124268985504D+00 0.100000000000D+01
-.743487664507D-05 0.000000000000D+00 -.514069073612D-06 0.162246918280D-02 0.000000000000D+00  5 2 -2 25 23 21 2 0.34438965D-01 0.10042509D-01 0.14188814D+05 0.14188814D+05 0.14188814D+05 0.12505845D+01  1  2  3  2  5  2       -2 -.107944906441D-01 0.100000000000D+01
0.927427877288D-05 0.000000000000D+00 0.000000000000D+00 0.162246918280D-02 0.000000000000D+00  5 2 -2 25 23 21 2 0.34438965D-01 0.10042509D-01 0.14188814D+05 0.14188814D+05 0.14188814D+05 0.12505845D+01  1  2 15  2  5  2       -2 0.134650674415D-01 0.100000000000D+01
0.565036787028D-04 0.000000000000D+00 -.483508060250D-04 0.162246918280D-02 0.000000000000D+00  5 2 -2 25 23 21 2 0.34438965D-01 0.48861717D-01 0.14188814D+05 0.14188814D+05 0.14188814D+05 0.12505845D+01  1  2  5  2  5  2       -2 0.532131213020D-02 0.100000000000D+01
0.975392487795D-05 0.000000000000D+00 -.930752514176D-05 0.162246918280D-02 0.000000000000D+00  5 2 21 25 23 2 2 0.34438965D-01 0.48861717D-01 0.14188814D+05 0.14188814D+05 0.14188814D+05 0.12505845D+01  1  2  5  4  5  2       -2 0.115486604608D-01 0.100000000000D+01
  </mgrwgt>
  </event>
  <event>
  4     66 0.45228882E-03 0.45493005E+02 0.75467711E-02 0.12466634E+00
        2 -1    0    0  501    0 0.00000000E+00 0.00000000E+00 0.17242464E+04 0.17242464E+04 0.32000000E+00 0.0000E+00 0.9000E+01
       -2 -1    0    0    0  501 0.00000000E+00 0.00000000E+00 -.69373026E+01 0.69446791E+01 0.32000000E+00 0.0000E+00 0.9000E+01
       25  1    1    2    0    0 -.16424062E+02 -.26714147E+01 0.98791035E+03 0.99592608E+03 0.12500000E+03 0.0000E+00 0.9000E+01
       23  1    1    2    0    0 0.16424062E+02 0.26714147E+01 0.72939871E+03 0.73526500E+03 0.91188000E+02 0.0000E+00 0.9000E+01
#aMCatNLO 1  0  0  2  1 0.16322959D+02 0.00000000D+00  -5  5  0 0.00000000D+00 0.00000000D+00 0.00000000D+00 0.00000000D+00 0.00000000D+00
  <mgrwgt>
 0.7338700285D-01    9    2    0
 0.109398490032426D+03 0.000000000000000D+00 0.000000000000000D+00 0.109398490032426D+03
 0.109398490032426D+03 0.000000000000000D+00 0.000000000000000D+00 -.109398490032426D+03
 0.126102899421059D+03 -.164240624252644D+02 -.267141468909080D+01 -.234434228967594D+00
 0.926940806437918D+02 0.164240624252644D+02 0.267141468909080D+01 0.234434228967594D+00
 0.000000000000000D+00 0.000000000000000D+00 0.000000000000000D+00 -.000000000000000D+00
 0.113226975709907D+03 0.000000000000000D+00 0.000000000000000D+00 0.113226975709907D+03
 0.128601718067095D+03 0.000000000000000D+00 0.000000000000000D+00 -.128601718067095D+03
 0.127401443199099D+03 -.225639806859384D+02 -.984578820664987D+01 -.234434228967594D+00
 0.920035646588468D+02 0.119506540671428D+02 -.255567484128554D+01 0.234434228967594D+00
 0.224236859190557D+02 0.106133266187956D+02 0.124014630479354D+02 -.153747423571881D+02
0.556456482145D-04 0.000000000000D+00 0.000000000000D+00 0.189099552838D-02 0.000000000000D+00  5 2 -2 25 23 21 0 0.26526924D+00 0.10678470D-02 0.11967973D+05 0.11967973D+05 0.11967973D+05 0.12591602D+01  1  2  2  2  5  2       -2 0.106979587742D+00 0.100000000000D+01
-.309142490078D-05 0.000000000000D+00 -.213693940979D-06 0.189099552838D-02 0.000000000000D+00  5 2 -2 25 23 21 2 0.26526924D+00 0.10678470D-02 0.11967973D+05 0.11967973D+05 0.11967973D+05 0.12591602D+01  1  2  3  2  5  2       -2 -.942302533620D-02 0.100000000000D+01
0.384828951065D-05 0.000000000000D+00 0.000000000000D+00 0.189099552838D-02 0.000000000000D+00  5 2 -2 25 23 21 2 0.26526924D+00 0.10678470D-02 0.11967973D+05 0.11967973D+05 0.11967973D+05 0.12591602D+01  1  2 15  2  5  2       -2 0.117300373529D-01 0.100000000000D+01
0.109552344184D-03 0.000000000000D+00 0.000000000000D+00 0.189099552838D-02 0.000000000000D+00  5 2 -2 25 23 21 2 0.26526924D+00 0.12717167D-02 0.13891858D+05 0.13891858D+05 0.13891858D+05 0.12516403D+01  1  2 12  2  5  2       -2 0.258166249455D+00 0.100000000000D+01
-.111030016100D-03 0.000000000000D+00 0.000000000000D+00 0.189099552838D-02 0.000000000000D+00  5 2 -2 25 23 21 2 0.26526924D+00 0.10678470D-02 0.11967973D+05 0.11967973D+05 0.11967973D+05 0.12591602D+01  1  2  4  2  5  2       -2 -.338432499047D+00 0.100000000000D+01
-.192507501070D-03 0.000000000000D+00 -.358528150660D-04 0.189099552838D-02 0.000000000000D+00  5 2 -2 25 23 21 2 0.26526924D+00 0.13034996D-02 0.11967973D+05 0.11967973D+05 0.11967973D+05 0.12591602D+01  1  2  5  2  5  2       -2 -.441481507852D+00 0.100000000000D+01
0.196439510354D-03 0.000000000000D+00 0.351516183262D-04 0.189099552838D-02 0.000000000000D+00  5 2 -2 25 23 21 2 0.26526924D+00 0.10678470D-02 0.11967973D+05 0.11967973D+05 0.11967973D+05 0.12591602D+01  1  2  6  2  5  2       -2 0.598770645415D+00 0.100000000000D+01
0.282264492069D-05 0.000000000000D+00 0.000000000000D+00 0.189099552838D-02 0.000000000000D+00  5 2 21 25 23 2 2 0.26526924D+00 0.12717167D-02 0.13891858D+05 0.13891858D+05 0.13891858D+05 0.12516403D+01  1  2 12  4  5  2       -2 0.150438427079D+00 0.100000000000D+01
-.508563859623D-05 0.000000000000D+00 -.102366349881D-05 0.189099552838D-02 0.000000000000D+00  5 2 21 25 23 2 2 0.26526924D+00 0.13034996D-02 0.11967973D+05 0.11967973D+05 0.11967973D+05 0.12591602D+01  1  2  5  4  5  2       -2 -.263360911964D+00 0.100000000000D+01
  </mgrwgt>
  </event>
  <event>
  4     66 0.45228882E-03 0.11663407E+03 0.75467711E-02 0.12266773E+00
        2 -1    0    0  501    0 0.00000000E+00 0.00000000E+00 0.73830374E+03 0.73830381E+03 0.32000000E+00 0.0000E+00 0.9000E+01
       -2 -1    0    0    0  501 0.00000000E+00 0.00000000E+00 -.20246031E+02 0.20248560E+02 0.32000000E+00 0.0000E+00 0.9000E+01
       25  1    1    2    0    0 -.11740407E+02 -.41725689E+02 0.29008211E+03 0.31882833E+03 0.12500000E+03 0.0000E+00 0.9000E+01
       23  1    1    2    0    0 0.11740407E+02 0.41725689E+02 0.42797560E+03 0.43972405E+03 0.91188000E+02 0.0000E+00 0.9000E+01
#aMCatNLO 1  0  0  2  1 0.26426262D+02 0.00000000D+00  -5  5  0 0.00000000D+00 0.00000000D+00 0.00000000D+00 0.00000000D+00 0.00000000D+00
  <mgrwgt>
 0.1769901677D+00    4    2    0
 0.122264900257955D+03 0.000000000000000D+00 0.000000000000000D+00 0.122264900257955D+03
 0.122264900257955D+03 0.000000000000000D+00 0.000000000000000D+00 -.122264900257955D+03
 0.137211439781109D+03 -.117404074458192D+02 -.417256889705018D+02 -.363745641863636D+02
 0.107318360734801D+03 0.117404074458192D+02 0.417256889705018D+02 0.363745641863636D+02
 0.000000000000000D+00 0.000000000000000D+00 0.000000000000000D+00 0.000000000000000D+00
 0.188986114939337D+03 0.000000000000000D+00 0.000000000000000D+00 0.188986114939337D+03
 0.125621678899099D+03 0.000000000000000D+00 0.000000000000000D+00 -.125621678899099D+03
 0.142545157267555D+03 -.193299403548183D+02 -.547482086151074D+02 -.363745641863636D+02
 0.103408437272152D+03 0.602358794932115D+01 0.319164694716922D+02 0.363745641863636D+02
 0.686541992987288D+02 0.133063524054971D+02 0.228317391434152D+02 0.633644360402374D+02
0.124446855252D-03 0.000000000000D+00 0.000000000000D+00 0.152674378613D-02 0.000000000000D+00  5 2 -2 25 23 21 0 0.11358539D+00 0.31149738D-02 0.13603506D+05 0.13603506D+05 0.13603506D+05 0.12526900D+01  1  2  2  2  5  2       -2 0.184141307872D+00 0.100000000000D+01
-.689502757458D-05 0.000000000000D+00 -.477908691778D-06 0.152674378613D-02 0.000000000000D+00  5 2 -2 25 23 21 2 0.11358539D+00 0.31149738D-02 0.13603506D+05 0.13603506D+05 0.13603506D+05 0.12526900D+01  1  2  3  2  5  2       -2 -.160099704606D-01 0.100000000000D+01
0.858168751899D-05 0.000000000000D+00 0.000000000000D+00 0.152674378613D-02 0.000000000000D+00  5 2 -2 25 23 21 2 0.11358539D+00 0.31149738D-02 0.13603506D+05 0.13603506D+05 0.13603506D+05 0.12526900D+01  1  2 15  2  5  2       -2 0.199263254853D-01 0.100000000000D+01
-.476644755615D-05 0.000000000000D+00 0.000000000000D+00 0.152674378613D-02 0.000000000000D+00  5 2 -2 25 23 21 2 0.11358539D+00 0.31149738D-02 0.13603506D+05 0.13603506D+05 0.13603506D+05 0.12526900D+01  1  2  4  2  5  2       -2 -.110674951986D-01 0.100000000000D+01
  </mgrwgt>
  </event>
  <event>
  4     66 0.45228882E-03 0.11225668E+03 0.75467711E-02 0.11383450E+00
        2 -1    0    0  501    0 0.00000000E+00 0.00000000E+00 0.97170010E+01 0.97222687E+01 0.32000000E+00 0.0000E+00 0.9000E+01
       -2 -1    0    0    0  501 0.00000000E+00 0.00000000E+00 -.13256074E+04 0.13256075E+04 0.32000000E+00 0.0000E+00 0.9000E+01
       25  1    1    2    0    0 0.32942800E+01 -.29758909E+02 -.84917533E+03 0.85884817E+03 0.12500000E+03 0.0000E+00 0.9000E+01
       23  1    1    2    0    0 -.32942800E+01 0.29758909E+02 -.46671509E+03 0.47648155E+03 0.91188000E+02 0.0000E+00 0.9000E+01
#aMCatNLO 1  0  0  2  2 0.15523893D+03 0.00000000D+00  -5  5  0 0.00000000D+00 0.00000000D+00 0.00000000D+00 0.00000000D+00 0.00000000D+00
  <mgrwgt>
 0.1229107167D+00    5    2    0
 0.113509785594195D+03 0.000000000000000D+00 0.000000000000000D+00 0.113509785594195D+03
 0.113509785594195D+03 0.000000000000000D+00 0.000000000000000D+00 -.113509785594195D+03
 0.129609165523721D+03 0.329427997947585D+01 -.297589087734397D+02 -.166460462508719D+02
 0.974104056646684D+02 -.329427997947585D+01 0.297589087734397D+02 0.166460462508719D+02
 0.000000000000000D+00 -.000000000000000D+00 -.000000000000000D+00 -.000000000000000D+00
 0.209425687175779D+03 0.000000000000000D+00 0.000000000000000D+00 0.209425687175779D+03
 0.221287615161300D+03 0.000000000000000D+00 0.000000000000000D+00 -.221287615161300D+03
 0.138999148308938D+03 0.344763837689138D+02 0.472234193705045D+02 -.166460462508719D+02
 0.136022690918737D+03 0.238044160426003D+02 0.966601263285900D+02 0.166460462508719D+02
 0.155691463109404D+03 -.582807998115141D+02 -.143883545699094D+03 -.118619279855207D+02
0.112382730250D-02 0.000000000000D+00 0.000000000000D+00 0.176761526500D-02 0.000000000000D+00  5 2 -2 25 23 21 0 0.14953314D-02 0.20394001D+00 0.12601562D+05 0.12601562D+05 0.12601562D+05 0.12565420D+01  1  2  2  2  5  2       -2 0.120051420000D+00 0.100000000000D+01
-.624254953142D-04 0.000000000000D+00 -.431579275213D-05 0.176761526500D-02 0.000000000000D+00  5 2 -2 25 23 21 2 0.14953314D-02 0.20394001D+00 0.12601562D+05 0.12601562D+05 0.12601562D+05 0.12565420D+01  1  2  3  2  5  2       -2 -.105289184580D-01 0.100000000000D+01
0.777762261707D-04 0.000000000000D+00 0.000000000000D+00 0.176761526500D-02 0.000000000000D+00  5 2 -2 25 23 21 2 0.14953314D-02 0.20394001D+00 0.12601562D+05 0.12601562D+05 0.12601562D+05 0.12565420D+01  1  2 15  2  5  2       -2 0.131180303688D-01 0.100000000000D+01
-.286664429628D-04 0.000000000000D+00 -.247254081682D-03 0.176761526500D-02 0.000000000000D+00  5 2 -2 25 23 21 2 0.14953314D-02 0.51255841D+00 0.12601562D+05 0.12601562D+05 0.12601562D+05 0.12565420D+01  1  2  5  2  5  2       -2 -.644404908675D-04 0.100000000000D+01
0.123259004328D-04 0.000000000000D+00 -.251040252590D-04 0.176761526500D-02 0.000000000000D+00  5 2 21 25 23 2 2 0.14953314D-02 0.51255841D+00 0.12601562D+05 0.12601562D+05 0.12601562D+05 0.12565420D+01  1  2  5  4  5  2       -2 0.334625251055D-03 0.100000000000D+01
  </mgrwgt>
  </event>
  <event>
  4     66 0.45228882E-03 0.14330587E+03 0.75467711E-02 0.11829736E+00
        2 -1    0    0  501    0 0.00000000E+00 0.00000000E+00 0.40494548E+03 0.40494561E+03 0.32000000E+00 0.0000E+00 0.9000E+01
       -2 -1    0    0    0  501 0.00000000E+00 0.00000000E+00 -.24238231E+03 0.24238252E+03 0.32000000E+00 0.0000E+00 0.9000E+01
       25  1    1    2    0    0 -.24187247E+02 0.90244318E+02 0.37037495E+03 0.40191002E+03 0.12500000E+03 0.0000E+00 0.9000E+01
       23  1    1    2    0    0 0.24187247E+02 -.90244318E+02 -.20781178E+03 0.24541811E+03 0.91188000E+02 0.0000E+00 0.9000E+01
#aMCatNLO 1  0  0  2  2 0.42536641D+02 0.00000000D+00  -5  5  0 0.00000000D+00 0.00000000D+00 0.00000000D+00 0.00000000D+00 0.00000000D+00
  <mgrwgt>
 0.5411848754D-01    4    2    0
 0.313291766632852D+03 0.000000000000000D+00 0.000000000000000D+00 0.313291766632852D+03
 0.313291766632852D+03 0.000000000000000D+00 0.000000000000000D+00 -.313291766632852D+03
 0.319124786707527D+03 -.241872467403172D+02 0.902443184152893D+02 0.278364095349971D+03
 0.307458746558176D+03 0.241872467403172D+02 -.902443184152893D+02 -.278364095349971D+03
 0.000000000000000D+00 0.000000000000000D+00 -.000000000000000D+00 0.000000000000000D+00
 0.383559351363351D+03 0.000000000000000D+00 0.000000000000000D+00 0.383559351363351D+03
 0.320517012877485D+03 0.000000000000000D+00 0.000000000000000D+00 -.320517012877485D+03
 0.324427932359230D+03 -.428749986163146D+02 0.101506887493057D+03 0.278364095349971D+03
 0.303597775728635D+03 0.644313296007348D+01 -.795504528021411D+02 -.278364095349971D+03
 0.760506561529706D+02 0.364318656562411D+02 -.219564346909163D+02 0.630423384858660D+02
0.109636381812D-02 0.000000000000D+00 0.000000000000D+00 0.246471361415D-03 0.000000000000D+00  5 2 -2 25 23 21 0 0.62299330D-01 0.37289613D-01 0.20536572D+05 0.20536572D+05 0.20536572D+05 0.12325622D+01  1  2  2  2  5  2       -2 0.591340664674D-01 0.100000000000D+01
-.156039249622D-04 0.000000000000D+00 -.421032574082D-05 0.246471361415D-03 0.000000000000D+00  5 2 -2 25 23 21 2 0.62299330D-01 0.37289613D-01 0.20536572D+05 0.20536572D+05 0.20536572D+05 0.12325622D+01  1  2  3  2  5  2       -2 -.127859973958D-02 0.100000000000D+01
0.748729785628D-04 0.000000000000D+00 0.000000000000D+00 0.246471361415D-03 0.000000000000D+00  5 2 -2 25 23 21 2 0.62299330D-01 0.37289613D-01 0.20536572D+05 0.20536572D+05 0.20536572D+05 0.12325622D+01  1  2 15  2  5  2       -2 0.613515965527D-02 0.100000000000D+01
-.120478761977D-03 0.000000000000D+00 0.000000000000D+00 0.246471361415D-03 0.000000000000D+00  5 2 -2 25 23 21 2 0.62299330D-01 0.37289613D-01 0.20536572D+05 0.20536572D+05 0.20536572D+05 0.12325622D+01  1  2  4  2  5  2       -2 -.987213884081D-02 0.100000000000D+01
  </mgrwgt>
  </event>
  <event>
  4     66 0.45228882E-03 0.12243382E+03 0.75467711E-02 0.11450503E+00
        2 -1    0    0  501    0 0.00000000E+00 0.00000000E+00 0.23597045E+03 0.23597067E+03 0.32000000E+00 0.0000E+00 0.9000E+01
       -2 -1    0    0    0  501 0.00000000E+00 0.00000000E+00 -.69180221E+02 0.69180961E+02 0.32000000E+00 0.0000E+00 0.9000E+01
       25  1    1    2    0    0 0.56765004E+02 -.45200489E+01 0.13605729E+03 0.19333723E+03 0.12500000E+03 0.0000E+00 0.9000E+01
       23  1    1    2    0    0 -.56765004E+02 0.45200489E+01 0.30732943E+02 0.11181441E+03 0.91188000E+02 0.0000E+00 0.9000E+01
#aMCatNLO 1  0  0  1  1 0.13277601D+03 0.00000000D+00  -5  5  0 0.00000000D+00 0.00000000D+00 0.00000000D+00 0.00000000D+00 0.00000000D+00
  <mgrwgt>
 0.1965934761D+00    3    2    0
 0.127767892097565D+03 0.000000000000000D+00 0.000000000000000D+00 0.127767892097565D+03
 0.127767892097565D+03 0.000000000000000D+00 0.000000000000000D+00 -.127767892097565D+03
 0.142070680802920D+03 0.567650039049377D+02 -.452004892473803D+01 0.362819766991197D+02
 0.113465103392211D+03 -.567650039049377D+02 0.452004892473803D+01 -.362819766991197D+02
 0.000000000000000D+00 0.000000000000000D+00 0.000000000000000D+00 -.000000000000000D+00
 0.173007366448630D+03 0.000000000000000D+00 0.000000000000000D+00 0.173007366448630D+03
 0.295853026612467D+03 0.000000000000000D+00 0.000000000000000D+00 -.295853026612467D+03
 0.160676364573440D+03 0.523205880527723D+02 -.783458254481600D+02 0.362819766991197D+02
 0.127295868697872D+03 -.602994459326368D+02 -.541902374101397D+02 -.362819766991197D+02
 0.180888159789786D+03 0.797885787986455D+01 0.132536062858300D+03 -.122845660163837D+03
0.239832130475D-03 0.000000000000D+00 0.000000000000D+00 0.146102779445D-02 0.000000000000D+00  5 2 -2 25 23 21 0 0.36303220D-01 0.10643185D-01 0.14990039D+05 0.14990039D+05 0.14990039D+05 0.12478554D+01  1  2  2  1  5  1        2 0.192514650630D+00 0.100000000000D+01
-.132945463522D-04 0.000000000000D+00 -.921018530273D-06 0.146102779445D-02 0.000000000000D+00  5 2 -2 25 23 21 2 0.36303220D-01 0.10643185D-01 0.14990039D+05 0.14990039D+05 0.14990039D+05 0.12478554D+01  1  2  3  1  5  1        2 -.166172243858D-01 0.100000000000D+01
0.165577949833D-04 0.000000000000D+00 0.000000000000D+00 0.146102779445D-02 0.000000000000D+00  5 2 -2 25 23 21 2 0.36303220D-01 0.10643185D-01 0.14990039D+05 0.14990039D+05 0.14990039D+05 0.12478554D+01  1  2 15  1  5  1        2 0.206960498901D-01 0.100000000000D+01
  </mgrwgt>
  </event>
  <event>
  4     66 0.45228882E-03 0.55568233E+02 0.75467711E-02 0.12091545E+00
        2 -1    0    0  501    0 0.00000000E+00 0.00000000E+00 0.87718187E+03 0.87718193E+03 0.32000000E+00 0.0000E+00 0.9000E+01
       -2 -1    0    0    0  501 0.00000000E+00 0.00000000E+00 -.22688789E+02 0.22691046E+02 0.32000000E+00 0.0000E+00 0.9000E+01
       25  1    1    2    0    0 -.40613322E+02 0.32018303E+02 0.23154347E+03 0.26816411E+03 0.12500000E+03 0.0000E+00 0.9000E+01
       23  1    1    2    0    0 0.40613322E+02 -.32018303E+02 0.62294962E+03 0.63170886E+03 0.91188000E+02 0.0000E+00 0.9000E+01
#aMCatNLO 1  0  0  1  2 0.42275152D+02 0.00000000D+00  -5  5  0 0.00000000D+00 0.00000000D+00 0.00000000D+00 0.00000000D+00 0.00000000D+00
  <mgrwgt>
 0.2338452845D+00    9    2    0
 0.141078829034179D+03 0.000000000000000D+00 0.000000000000000D+00 0.141078829034179D+03
 0.141078829034179D+03 0.000000000000000D+00 0.000000000000000D+00 -.141078829034179D+03
 0.154032134477034D+03 -.406133218926204D+02 0.320183034757177D+02 -.736633204446712D+02
 0.128125523591325D+03 0.406133218926204D+02 -.320183034757177D+02 0.736633204446712D+02
 0.000000000000000D+00 -.000000000000000D+00 -.000000000000000D+00 0.000000000000000D+00
 0.165891752621458D+03 0.000000000000000D+00 0.000000000000000D+00 0.165891752621458D+03
 0.161880372690075D+03 0.000000000000000D+00 0.000000000000000D+00 -.161880372690075D+03
 0.152715465151067D+03 -.205651419974128D+02 0.429860843994753D+02 -.736633204446712D+02
 0.132591619444886D+03 0.576530776778054D+02 -.226963446034854D+02 0.736633204446712D+02
 0.424650407155793D+02 -.370879356803925D+02 -.202897397959899D+02 0.401137993138270D+01
0.132322348625D-03 0.000000000000D+00 0.000000000000D+00 0.110532442408D-02 0.000000000000D+00  5 2 -2 25 23 21 0 0.13495123D+00 0.34907610D-02 0.14413038D+05 0.14413038D+05 0.14413038D+05 0.12498037D+01  1  2  2  1  5  1        2 0.134011294496D+00 0.100000000000D+01
-.711847941015D-05 0.000000000000D+00 -.508152659995D-06 0.110532442408D-02 0.000000000000D+00  5 2 -2 25 23 21 2 0.13495123D+00 0.34907610D-02 0.14413038D+05 0.14413038D+05 0.14413038D+05 0.12498037D+01  1  2  3  1  5  1        2 -.112610538163D-01 0.100000000000D+01
0.906675835462D-05 0.000000000000D+00 0.000000000000D+00 0.110532442408D-02 0.000000000000D+00  5 2 -2 25 23 21 2 0.13495123D+00 0.34907610D-02 0.14413038D+05 0.14413038D+05 0.14413038D+05 0.12498037D+01  1  2 15  1  5  1        2 0.143431269359D-01 0.100000000000D+01
0.952652137017D-04 0.000000000000D+00 0.000000000000D+00 0.110532442408D-02 0.000000000000D+00  5 2 -2 25 23 21 2 0.16709074D+00 0.34907610D-02 0.20491407D+05 0.20491407D+05 0.20491407D+05 0.12326672D+01  1  2 12  1  5  1        2 0.110702901450D+00 0.100000000000D+01
-.933933502177D-04 0.000000000000D+00 0.000000000000D+00 0.110532442408D-02 0.000000000000D+00  5 2 -2 25 23 21 2 0.13495123D+00 0.34907610D-02 0.14413038D+05 0.14413038D+05 0.14413038D+05 0.12498037D+01  1  2  4  1  5  1        2 -.147743286492D+00 0.100000000000D+01
-.233209724649D-03 0.000000000000D+00 -.853940523731D-04 0.110532442408D-02 0.000000000000D+00  5 2 -2 25 23 21 2 0.17498875D+00 0.34907610D-02 0.14413038D+05 0.14413038D+05 0.14413038D+05 0.12498037D+01  1  2  5  1  5  1        2 -.258405487355D+00 0.100000000000D+01
0.249723255886D-03 0.000000000000D+00 0.825908829754D-04 0.110532442408D-02 0.000000000000D+00  5 2 -2 25 23 21 2 0.13495123D+00 0.34907610D-02 0.14413038D+05 0.14413038D+05 0.14413038D+05 0.12498037D+01  1  2  6  1  5  1        2 0.395048838618D+00 0.100000000000D+01
0.286662649783D-05 0.000000000000D+00 0.000000000000D+00 0.110532442408D-02 0.000000000000D+00  5 21 -2 25 23 -2 2 0.16709074D+00 0.34907610D-02 0.20491407D+05 0.20491407D+05 0.20491407D+05 0.12326672D+01  1  2 12  3  5  1        2 0.258191738184D-02 0.100000000000D+01
-.659543460629D-05 0.000000000000D+00 -.297299314230D-05 0.110532442408D-02 0.000000000000D+00  5 21 -2 25 23 -2 2 0.17498875D+00 0.34907610D-02 0.14413038D+05 0.14413038D+05 0.14413038D+05 0.12498037D+01  1  2  5  3  5  1        2 -.543296675497D-02 0.100000000000D+01
  </mgrwgt>
  </event>
  <event>
  4     66 0.45228882E-03 0.49062169E+02 0.75467711E-02 0.12110628E+00
        2 -1    0    0  501    0 0.00000000E+00 0.00000000E+00 0.13036225E+03 0.13036265E+03 0.32000000E+00 0.0000E+00 0.9000E+01
       -2 -1    0    0    0  501 0.00000000E+00 0.00000000E+00 -.11330382E+03 0.11330427E+03 0.32000000E+00 0.0000E+00 0.9000E+01
       25  1    1    2    0    0 0.22854129E+02 -.19114728E+02 0.55946740E+02 0.14015249E+03 0.12500000E+03 0.0000E+00 0.9000E+01
       23  1    1    2    0    0 -.22854129E+02 0.19114728E+02 -.38888300E+02 0.10351442E+03 0.91188000E+02 0.0000E+00 0.9000E+01
#aMCatNLO 1  0  0  2  1 0.53111901D+02 0.00000000D+00  -5  5  0 0.00000000D+00 0.00000000D+00 0.00000000D+00 0.00000000D+00 0.00000000D+00
  <mgrwgt>
 0.1577553715D+00    9    2    0
 0.121534537538624D+03 0.000000000000000D+00 0.000000000000000D+00 0.121534537538624D+03
 0.121534537538624D+03 0.000000000000000D+00 0.000000000000000D+00 -.121534537538624D+03
 0.136570898403693D+03 0.228541294498628D+02 -.191147275563269D+02 0.462485269854955D+02
 0.106498176673555D+03 -.228541294498628D+02 0.191147275563269D+02 -.462485269854955D+02
 0.000000000000000D+00 -.000000000000000D+00 0.000000000000000D+00 -.000000000000000D+00
 0.146529186696206D+03 0.000000000000000D+00 0.000000000000000D+00 0.146529186696206D+03
 0.156273178777252D+03 0.000000000000000D+00 0.000000000000000D+00 -.156273178777252D+03
 0.146178674552514D+03 0.496395474552561D+02 -.337667584176960D+02 0.462485269854955D+02
 0.102625363318786D+03 -.304344901311454D+01 0.827798418030377D+01 -.462485269854955D+02
 0.539983276021582D+02 -.465960984421416D+02 0.254887742373923D+02 -.974399208104646D+01
0.173976626193D-03 0.000000000000D+00 0.000000000000D+00 0.146811649590D-02 0.000000000000D+00  5 2 -2 25 23 21 0 0.20055797D-01 0.17431421D-01 0.12592612D+05 0.12592612D+05 0.12592612D+05 0.12565780D+01  1  2  2  2  5  2       -2 0.119635429576D+00 0.100000000000D+01
-.959059732102D-05 0.000000000000D+00 -.668116053679D-06 0.146811649590D-02 0.000000000000D+00  5 2 -2 25 23 21 2 0.20055797D-01 0.17431421D-01 0.12592612D+05 0.12592612D+05 0.12592612D+05 0.12565780D+01  1  2  3  2  5  2       -2 -.104134216080D-01 0.100000000000D+01
0.119229718376D-04 0.000000000000D+00 0.000000000000D+00 0.146811649590D-02 0.000000000000D+00  5 2 -2 25 23 21 2 0.20055797D-01 0.17431421D-01 0.12592612D+05 0.12592612D+05 0.12592612D+05 0.12565780D+01  1  2 15  2  5  2       -2 0.129459019506D-01 0.100000000000D+01
0.521617642384D-04 0.000000000000D+00 0.000000000000D+00 0.146811649590D-02 0.000000000000D+00  5 2 -2 25 23 21 2 0.20055797D-01 0.23776395D-01 0.20078196D+05 0.20078196D+05 0.20078196D+05 0.12336395D+01  1  2 12  2  5  2       -2 0.327783177992D-01 0.100000000000D+01
-.699832311260D-04 0.000000000000D+00 0.000000000000D+00 0.146811649590D-02 0.000000000000D+00  5 2 -2 25 23 21 2 0.20055797D-01 0.17431421D-01 0.12592612D+05 0.12592612D+05 0.12592612D+05 0.12565780D+01  1  2  4  2  5  2       -2 -.759874350692D-01 0.100000000000D+01
-.117222044394D-03 0.000000000000D+00 -.612483319247D-04 0.146811649590D-02 0.000000000000D+00  5 2 -2 25 23 21 2 0.20055797D-01 0.26772658D-01 0.12592612D+05 0.12592612D+05 0.12592612D+05 0.12565780D+01  1  2  5  2  5  2       -2 -.612739627243D-01 0.100000000000D+01
0.136023972667D-03 0.000000000000D+00 0.560119077428D-04 0.146811649590D-02 0.000000000000D+00  5 2 -2 25 23 21 2 0.20055797D-01 0.17431421D-01 0.12592612D+05 0.12592612D+05 0.12592612D+05 0.12565780D+01  1  2  6  2  5  2       -2 0.147694135075D+00 0.100000000000D+01
0.206663213866D-05 0.000000000000D+00 0.000000000000D+00 0.146811649590D-02 0.000000000000D+00  5 2 21 25 23 2 2 0.20055797D-01 0.23776395D-01 0.20078196D+05 0.20078196D+05 0.20078196D+05 0.12336395D+01  1  2 12  4  5  2       -2 0.176797401654D-01 0.100000000000D+01
-.358294427510D-05 0.000000000000D+00 -.307094930741D-05 0.146811649590D-02 0.000000000000D+00  5 2 21 25 23 2 2 0.20055797D-01 0.26772658D-01 0.12592612D+05 0.12592612D+05 0.12592612D+05 0.12565780D+01  1  2  5  4  5  2       -2 -.253033336946D-01 0.100000000000D+01
  </mgrwgt>
  </event>
  <event>
  4     66 0.45228882E-03 0.11300829E+03 0.75467711E-02 0.11570143E+00
        2 -1    0    0  501    0 0.00000000E+00 0.00000000E+00 0.44365851E+03 0.44365863E+03 0.32000000E+00 0.0000E+00 0.9000E+01
       -2 -1    0    0    0  501 0.00000000E+00 0.00000000E+00 -.79122284E+02 0.79122931E+02 0.32000000E+00 0.0000E+00 0.9000E+01
       25  1    1    2    0    0 0.11416834E+03 0.10088830E+03 0.18624221E+03 0.27115313E+03 0.12500000E+03 0.0000E+00 0.9000E+01
       23  1    1    2    0    0 -.11416834E+03 -.10088830E+03 0.17829402E+03 0.25162843E+03 0.91188000E+02 0.0000E+00 0.9000E+01
#aMCatNLO 1  0  0  1  2 0.84953304D+01 0.00000000D+00  -5  5  0 0.00000000D+00 0.00000000D+00 0.00000000D+00 0.00000000D+00 0.00000000D+00
  <mgrwgt>
 0.2828328110D+00    8    2    0
 0.187359211066254D+03 0.000000000000000D+00 0.000000000000000D+00 0.187359211066254D+03
 0.187359211066254D+03 0.000000000000000D+00 0.000000000000000D+00 -.187359211066254D+03
 0.197112866376821D+03 0.114168341731104D+03 0.100888295045742D+03 -.395269027619628D+01
 0.177605555755687D+03 -.114168341731104D+03 -.100888295045742D+03 0.395269027619628D+01
 0.000000000000000D+00 -.000000000000000D+00 0.000000000000000D+00 -.000000000000000D+00
 0.190680930329614D+03 0.000000000000000D+00 0.000000000000000D+00 0.190680930329614D+03
 0.192918961066781D+03 0.000000000000000D+00 0.000000000000000D+00 -.192918961066781D+03
 0.198134367744520D+03 0.117958715586127D+03 0.985004839499396D+02 -.395269027619628D+01
 0.176680341843175D+03 -.110770782210044D+03 -.103028646006713D+03 0.395269027619628D+01
 0.878518180870024D+01 -.718793337608291D+01 0.452816205677382D+01 -.223803073716714D+01
0.417223256416D-03 0.000000000000D+00 0.000000000000D+00 0.117207915933D-02 0.000000000000D+00  5 2 -2 25 23 21 0 0.68255214D-01 0.12172718D-01 0.35087808D+05 0.35087808D+05 0.35087808D+05 0.12078221D+01  1  2  2  1  5  1        2 0.141028530345D+00 0.100000000000D+01
-.231790683970D-04 0.000000000000D+00 -.160224716204D-05 0.117207915933D-02 0.000000000000D+00  5 2 -2 25 23 21 2 0.68255214D-01 0.12172718D-01 0.35087808D+05 0.35087808D+05 0.35087808D+05 0.12078221D+01  1  2  3  1  5  1        2 -.114298457499D-01 0.100000000000D+01
0.286865834323D-04 0.000000000000D+00 0.000000000000D+00 0.117207915933D-02 0.000000000000D+00  5 2 -2 25 23 21 2 0.68255214D-01 0.12172718D-01 0.35087808D+05 0.35087808D+05 0.35087808D+05 0.12078221D+01  1  2 15  1  5  1        2 0.141456601321D-01 0.100000000000D+01
0.710378835834D-03 0.000000000000D+00 0.000000000000D+00 0.117207915933D-02 0.000000000000D+00  5 2 -2 25 23 21 2 0.70454612D-01 0.12172718D-01 0.36715616D+05 0.36715616D+05 0.36715616D+05 0.12057973D+01  1  2 12  1  5  1        2 0.337495250993D+00 0.100000000000D+01
-.423462399019D-03 0.000000000000D+00 0.000000000000D+00 0.117207915933D-02 0.000000000000D+00  5 2 -2 25 23 21 2 0.68255214D-01 0.12172718D-01 0.35087808D+05 0.35087808D+05 0.35087808D+05 0.12078221D+01  1  2  4  1  5  1        2 -.208813823695D+00 0.100000000000D+01
0.127567691496D-05 0.000000000000D+00 0.000000000000D+00 0.117207915933D-02 0.126004846345D-03  5 2 -2 25 23 21 2 0.69465321D-01 0.12533934D-01 0.36715616D+05 0.36715616D+05 0.36715616D+05 0.12057973D+01  1  2 11  1  5  1        2 0.587159876866D-03 0.100000000000D+01
0.970325120990D-05 0.000000000000D+00 0.000000000000D+00 0.117207915933D-02 0.000000000000D+00  5 21 -2 25 23 -2 2 0.70454612D-01 0.12172718D-01 0.36715616D+05 0.36715616D+05 0.36715616D+05 0.12057973D+01  1  2 12  3  5  1        2 0.980684764464D-02 0.100000000000D+01
0.131021229636D-07 0.000000000000D+00 0.000000000000D+00 0.117207915933D-02 0.411268503901D-06  5 21 -2 25 23 -2 2 0.69465321D-01 0.12533934D-01 0.36715616D+05 0.36715616D+05 0.36715616D+05 0.12057973D+01  1  2 11  3  5  1        2 0.130315011540D-04 0.100000000000D+01
  </mgrwgt>
  </event>
  <event>
  4     66 0.45228882E-03 0.16989792E+03 0.75467711E-02 0.11156329E+00
        2 -1    0    0  501    0 0.00000000E+00 0.00000000E+00 0.26895789E+04 0.26895789E+04 0.32000000E+00 0.0000E+00 0.9000E+01
       -2 -1    0    0    0  501 0.00000000E+00 0.00000000E+00 -.10733001E+02 0.10737770E+02 0.32000000E+00 0.0000E+00 0.9000E+01
       25  1    1    2    0    0 0.18219813E+02 -.12914685E+03 0.14471977E+04 0.14584297E+04 0.12500000E+03 0.0000E+00 0.9000E+01
       23  1    1    2    0    0 -.18219813E+02 0.12914685E+03 0.12316481E+04 0.12418870E+04 0.91188000E+02 0.0000E+00 0.9000E+01
#aMCatNLO 1  0  0  1  2 0.12918353D+03 0.00000000D+00  -5  5  0 0.00000000D+00 0.00000000D+00 0.00000000D+00 0.00000000D+00 0.00000000D+00
  <mgrwgt>
 0.2977151940D+00    6    2    0
 0.169922678285784D+03 0.000000000000000D+00 0.000000000000000D+00 0.169922678285784D+03
 0.169922678285784D+03 0.000000000000000D+00 0.000000000000000D+00 -.169922678285784D+03
 0.180677200180305D+03 0.182198126740347D+02 -.129146849834964D+03 0.289486939641673D+01
 0.159168156391264D+03 -.182198126740347D+02 0.129146849834964D+03 -.289486939641673D+01
 0.000000000000000D+00 -.000000000000000D+00 0.000000000000000D+00 0.000000000000000D+00
 0.246774474436296D+03 0.000000000000000D+00 0.000000000000000D+00 0.246774474436296D+03
 0.245981635148186D+03 0.000000000000000D+00 0.000000000000000D+00 -.245981635148186D+03
 0.242160518029591D+03 0.418602248325692D+02 -.203115872842337D+03 0.289486939641673D+01
 0.121409627883053D+03 -.253300381778074D+01 0.800640370050012D+02 -.289486939641673D+01
 0.129185963671838D+03 -.393272210147884D+02 0.123051835837336D+03 0.792839288109414D+00
0.498370118519D-03 0.000000000000D+00 0.000000000000D+00 0.123651383201D-02 0.000000000000D+00  5 2 -2 25 23 21 0 0.41378173D+00 0.16515992D-02 0.28865303D+05 0.28865303D+05 0.28865303D+05 0.12166598D+01  1  2  2  1  5  1        2 0.161924291438D+00 0.100000000000D+01
-.276872280917D-04 0.000000000000D+00 -.191387247898D-05 0.123651383201D-02 0.000000000000D+00  5 2 -2 25 23 21 2 0.41378173D+00 0.16515992D-02 0.28865303D+05 0.28865303D+05 0.28865303D+05 0.12166598D+01  1  2  3  1  5  1        2 -.133161232248D-01 0.100000000000D+01
0.342994718711D-04 0.000000000000D+00 0.000000000000D+00 0.123651383201D-02 0.000000000000D+00  5 2 -2 25 23 21 2 0.41378173D+00 0.16515992D-02 0.28865303D+05 0.28865303D+05 0.28865303D+05 0.12166598D+01  1  2 15  1  5  1        2 0.164962701382D-01 0.100000000000D+01
-.249210282942D-03 0.000000000000D+00 -.144120566477D-03 0.123651383201D-02 0.000000000000D+00  5 2 -2 25 23 21 2 0.65822497D+00 0.16515992D-02 0.28865303D+05 0.28865303D+05 0.28865303D+05 0.12166598D+01  1  2  5  1  5  1        2 -.105586578784D-01 0.100000000000D+01
0.297702568145D-03 0.000000000000D+00 0.129874224508D-03 0.123651383201D-02 0.000000000000D+00  5 2 -2 25 23 21 2 0.41378173D+00 0.16515992D-02 0.28865303D+05 0.28865303D+05 0.28865303D+05 0.12166598D+01  1  2  6  1  5  1        2 0.143179521930D+00 0.100000000000D+01
-.730220796050D-05 0.000000000000D+00 -.766891141926D-05 0.123651383201D-02 0.000000000000D+00  5 21 -2 25 23 -2 2 0.65822497D+00 0.16515992D-02 0.28865303D+05 0.28865303D+05 0.28865303D+05 0.12166598D+01  1  2  5  3  5  1        2 -.101083779622D-04 0.100000000000D+01
  </mgrwgt>
  </event>
  <event>
  4     66 0.45228882E-03 0.68851177E+02 0.75467711E-02 0.12515764E+00
        2 -1    0    0  501    0 0.00000000E+00 0.00000000E+00 0.15640364E+04 0.15640364E+04 0.32000000E+00 0.0000E+00 0.9000E+01
       -2 -1    0    0    0  501 0.00000000E+00 0.00000000E+00 -.98823172E+01 0.98874968E+01 0.32000000E+00 0.0000E+00 0.9000E+01
       25  1    1    2    0    0 -.46808436E+01 0.24436009E+02 0.12205938E+04 0.12272299E+04 0.12500000E+03 0.0000E+00 0.9000E+01
       23  1    1    2    0    0 0.46808436E+01 -.24436009E+02 0.33356027E+03 0.34669401E+03 0.91188000E+02 0.0000E+00 0.9000E+01
#aMCatNLO 1  0  0  2  1 0.79427301D+01 0.00000000D+00  -5  5  0 0.00000000D+00 0.00000000D+00 0.00000000D+00 0.00000000D+00 0.00000000D+00
  <mgrwgt>
 0.1193999197D+00   11    2    0
 0.124339879029344D+03 0.000000000000000D+00 0.000000000000000D+00 0.124339879029344D+03
 0.124339879029344D+03 0.000000000000000D+00 0.000000000000000D+00 -.124339879029344D+03
 0.139036991317581D+03 -.468084356053086D+01 0.244360088303976D+02 0.555630824437193D+02
 0.109642766741108D+03 0.468084356053086D+01 -.244360088303976D+02 -.555630824437193D+02
 0.000000000000000D+00 0.000000000000000D+00 -.000000000000000D+00 -.000000000000000D+00
 0.124608037294817D+03 0.000000000000000D+00 0.000000000000000D+00 0.124608037294817D+03
 0.201431584588283D+03 0.000000000000000D+00 0.000000000000000D+00 -.201431584588283D+03
 0.139854971642883D+03 -.695899303249252D+01 0.282618006956000D+02 0.555630824437193D+02
 0.108951597862375D+03 0.289523944699169D+01 -.214373690237795D+02 -.555630824437193D+02
 0.772330523778418D+02 0.406375358550082D+01 -.682443167182043D+01 -.768235472934662D+02
0.806984404946D-04 0.000000000000D+00 0.000000000000D+00 0.136114349741D-02 0.000000000000D+00  5 2 -2 25 23 21 0 0.24062138D+00 0.15207574D-02 0.12318046D+05 0.12318046D+05 0.12318046D+05 0.12576948D+01  1  2  2  2  5  2       -2 0.113031589269D+00 0.100000000000D+01
-.441289160499D-05 0.000000000000D+00 -.309903259887D-06 0.136114349741D-02 0.000000000000D+00  5 2 -2 25 23 21 2 0.24062138D+00 0.15207574D-02 0.12318046D+05 0.12318046D+05 0.12318046D+05 0.12576948D+01  1  2  3  2  5  2       -2 -.977706512005D-02 0.100000000000D+01
0.553342189609D-05 0.000000000000D+00 0.000000000000D+00 0.136114349741D-02 0.000000000000D+00  5 2 -2 25 23 21 2 0.24062138D+00 0.15207574D-02 0.12318046D+05 0.12318046D+05 0.12318046D+05 0.12576948D+01  1  2 15  2  5  2       -2 0.122596771137D-01 0.100000000000D+01
0.312519895438D-02 0.000000000000D+00 0.000000000000D+00 0.136114349741D-02 0.000000000000D+00  5 2 -2 25 23 21 2 0.24062138D+00 0.24644102D-02 0.13225613D+05 0.13225613D+05 0.13225613D+05 0.12541042D+01  1  2 12  2  5  2       -2 0.343441517526D+01 0.100000000000D+01
-.281722191847D-02 0.000000000000D+00 0.000000000000D+00 0.136114349741D-02 0.000000000000D+00  5 2 -2 25 23 21 2 0.24062138D+00 0.15207574D-02 0.12318046D+05 0.12318046D+05 0.12318046D+05 0.12576948D+01  1  2  4  2  5  2       -2 -.624174908882D+01 0.100000000000D+01
-.315188208683D-02 0.000000000000D+00 -.268779098085D-04 0.136114349741D-02 0.000000000000D+00  5 2 -2 25 23 21 2 0.24062138D+00 0.24673562D-02 0.12318046D+05 0.12318046D+05 0.12318046D+05 0.12576948D+01  1  2  5  2  5  2       -2 -.347315199323D+01 0.100000000000D+01
0.282986586002D-02 0.000000000000D+00 0.240109630618D-04 0.136114349741D-02 0.000000000000D+00  5 2 -2 25 23 21 2 0.24062138D+00 0.15207574D-02 0.12318046D+05 0.12318046D+05 0.12318046D+05 0.12576948D+01  1  2  6  2  5  2       -2 0.626976261169D+01 0.100000000000D+01
0.182548231292D-04 0.000000000000D+00 0.000000000000D+00 0.136114349741D-02 0.202059219747D-03  5 2 -2 25 23 21 2 0.24114032D+00 0.24636390D-02 0.13225613D+05 0.13225613D+05 0.13225613D+05 0.12541042D+01  1  2 11  2  5  2       -2 0.199903044309D-01 0.100000000000D+01
0.171409172696D-03 0.000000000000D+00 0.000000000000D+00 0.136114349741D-02 0.000000000000D+00  5 2 21 25 23 2 2 0.24062138D+00 0.24644102D-02 0.13225613D+05 0.13225613D+05 0.13225613D+05 0.12541042D+01  1  2 12  4  5  2       -2 0.383307128116D+01 0.100000000000D+01
-.172038609484D-03 0.000000000000D+00 -.147703004158D-05 0.136114349741D-02 0.000000000000D+00  5 2 21 25 23 2 2 0.24062138D+00 0.24673562D-02 0.12318046D+05 0.12318046D+05 0.12318046D+05 0.12576948D+01  1  2  5  4  5  2       -2 -.386086367616D+01 0.100000000000D+01
0.100568253309D-05 0.000000000000D+00 0.000000000000D+00 0.136114349741D-02 0.111285770983D-04  5 2 21 25 23 2 2 0.24114032D+00 0.24636390D-02 0.13225613D+05 0.13225613D+05 0.13225613D+05 0.12541042D+01  1  2 11  4  5  2       -2 0.224111040959D-01 0.100000000000D+01
  </mgrwgt>
  </event>
  <event>
  4     66 0.45228882E-03 0.11711143E+03 0.75467711E-02 0.11844608E+00
        2 -1    0    0  501    0 0.00000000E+00 0.00000000E+00 0.61609663E+03 0.61609671E+03 0.32000000E+00 0.0000E+00 0.9000E+01
       -2 -1    0    0    0  501 0.00000000E+00 0.00000000E+00 -.29461149E+02 0.29462887E+02 0.32000000E+00 0.0000E+00 0.9000E+01
       25  1    1    2    0    0 -.15016961E+02 0.74828795E+02 0.37854713E+03 0.40589135E+03 0.12500000E+03 0.0000E+00 0.9000E+01
       23  1    1    2    0    0 0.15016961E+02 -.74828795E+02 0.20808835E+03 0.23966825E+03 0.91188000E+02 0.0000E+00 0.9000E+01
#aMCatNLO 1  0  0  2  1 0.56302494D+02 0.00000000D+00  -5  5  0 0.00000000D+00 0.00000000D+00 0.00000000D+00 0.00000000D+00 0.00000000D+00
  <mgrwgt>
 0.1698658487D+00    9    2    0
 0.134727512597671D+03 0.000000000000000D+00 0.000000000000000D+00 0.134727512597671D+03
 0.134727512597671D+03 0.000000000000000D+00 0.000000000000000D+00 -.134727512597671D+03
 0.148291462000175D+03 -.150169612489438D+02 0.748287951599459D+02 0.232486557010920D+02
 0.121163563195167D+03 0.150169612489438D+02 -.748287951599459D+02 -.232486557010920D+02
 0.000000000000000D+00 -.000000000000000D+00 0.000000000000000D+00 -.000000000000000D+00
 0.149646011450514D+03 0.000000000000000D+00 0.000000000000000D+00 0.149646011450514D+03
 0.203629719153541D+03 0.000000000000000D+00 0.000000000000000D+00 -.203629719153541D+03
 0.135858613574287D+03 -.368556981822544D+01 0.477334208446718D+02 0.232486557010920D+02
 0.139415761213536D+03 0.254083937258055D+02 -.996765602692846D+02 -.232486557010920D+02
 0.780013558162314D+02 -.217228239075801D+02 0.519431394246128D+02 -.539837077030268D+02
0.141497873604D-03 0.000000000000D+00 0.000000000000D+00 0.144204605764D-02 0.000000000000D+00  5 2 -2 25 23 21 0 0.94784237D-01 0.45326246D-02 0.17605295D+05 0.17605295D+05 0.17605295D+05 0.12399706D+01  1  2  2  2  5  2       -2 0.149973562207D+00 0.100000000000D+01
-.785876235890D-05 0.000000000000D+00 -.543389091885D-06 0.144204605764D-02 0.000000000000D+00  5 2 -2 25 23 21 2 0.94784237D-01 0.45326246D-02 0.17605295D+05 0.17605295D+05 0.17605295D+05 0.12399706D+01  1  2  3  2  5  2       -2 -.128068332075D-01 0.100000000000D+01
0.978081931175D-05 0.000000000000D+00 0.000000000000D+00 0.144204605764D-02 0.000000000000D+00  5 2 -2 25 23 21 2 0.94784237D-01 0.45326246D-02 0.17605295D+05 0.17605295D+05 0.17605295D+05 0.12399706D+01  1  2 15  2  5  2       -2 0.159390646820D-01 0.100000000000D+01
0.882911915621D-04 0.000000000000D+00 0.000000000000D+00 0.144204605764D-02 0.000000000000D+00  5 2 -2 25 23 21 2 0.94784237D-01 0.69984224D-02 0.26833843D+05 0.26833843D+05 0.26833843D+05 0.12200153D+01  1  2 12  2  5  2       -2 0.730146474992D-01 0.100000000000D+01
-.111703366179D-03 0.000000000000D+00 0.000000000000D+00 0.144204605764D-02 0.000000000000D+00  5 2 -2 25 23 21 2 0.94784237D-01 0.45326246D-02 0.17605295D+05 0.17605295D+05 0.17605295D+05 0.12399706D+01  1  2  4  2  5  2       -2 -.182034563974D+00 0.100000000000D+01
-.134940119769D-03 0.000000000000D+00 -.453632189100D-04 0.144204605764D-02 0.000000000000D+00  5 2 -2 25 23 21 2 0.94784237D-01 0.75974470D-02 0.17605295D+05 0.17605295D+05 0.17605295D+05 0.12399706D+01  1  2  5  2  5  2       -2 -.100591991924D+00 0.100000000000D+01
0.144154648319D-03 0.000000000000D+00 0.399189197583D-04 0.144204605764D-02 0.000000000000D+00  5 2 -2 25 23 21 2 0.94784237D-01 0.45326246D-02 0.17605295D+05 0.17605295D+05 0.17605295D+05 0.12399706D+01  1  2  6  2  5  2       -2 0.234917974714D+00 0.100000000000D+01
0.446752528313D-05 0.000000000000D+00 0.000000000000D+00 0.144204605764D-02 0.000000000000D+00  5 2 21 25 23 2 2 0.94784237D-01 0.69984224D-02 0.26833843D+05 0.26833843D+05 0.26833843D+05 0.12200153D+01  1  2 12  4  5  2       -2 0.618243796472D-01 0.100000000000D+01
-.568731128126D-05 0.000000000000D+00 -.262494651900D-05 0.144204605764D-02 0.000000000000D+00  5 2 21 25 23 2 2 0.94784237D-01 0.75974470D-02 0.17605295D+05 0.17605295D+05 0.17605295D+05 0.12399706D+01  1  2  5  4  5  2       -2 -.703703909320D-01 0.100000000000D+01
  </mgrwgt>
  </event>
  <event>
  4     66 0.45228882E-03 0.39140671E+02 0.75467711E-02 0.11879106E+00
        2 -1    0    0  501    0 0.00000000E+00 0.00000000E+00 0.20284006E+04 0.20284006E+04 0.32000000E+00 0.0000E+00 0.9000E+01
       -2 -1    0    0    0  501 0.00000000E+00 0.00000000E+00 -.11173898E+02 0.11178479E+02 0.32000000E+00 0.0000E+00 0.9000E+01
       25  1    1    2    0    0 -.92148695E+02 -.24892287E+01 0.76161997E+03 0.77729502E+03 0.12500000E+03 0.0000E+00 0.9000E+01
       23  1    1    2    0    0 0.92148695E+02 0.24892287E+01 0.12556067E+04 0.12622840E+04 0.91188000E+02 0.0000E+00 0.9000E+01
#aMCatNLO 1  0  0  1  2 0.34252285D+02 0.00000000D+00  -5  5  0 0.00000000D+00 0.00000000D+00 0.00000000D+00 0.00000000D+00 0.00000000D+00
  <mgrwgt>
 0.3311206432D+00    9    2    0
 0.150565064721789D+03 0.000000000000000D+00 0.000000000000000D+00 0.150565064721789D+03
 0.150565064721789D+03 0.000000000000000D+00 0.000000000000000D+00 -.150565064721789D+03
 0.162702257153358D+03 -.921486952342649D+02 -.248922873627906D+01 -.484710861206811D+02
 0.138427872290220D+03 0.921486952342649D+02 0.248922873627906D+01 0.484710861206811D+02
 0.000000000000000D+00 -.000000000000000D+00 0.000000000000000D+00 0.000000000000000D+00
 0.187690453655113D+03 0.000000000000000D+00 0.000000000000000D+00 0.187690453655113D+03
 0.159648484609698D+03 0.000000000000000D+00 0.000000000000000D+00 -.159648484609698D+03
 0.154078541363429D+03 -.754007789131438D+02 -.897068883946792D+01 -.484710861206811D+02
 0.148993354228615D+03 0.107344397351280D+03 -.339152294189666D+01 0.484710861206811D+02
 0.442670426727676D+02 -.319436184381367D+02 0.123622117813646D+02 0.280419690454157D+02
0.266378368095D-03 0.000000000000D+00 0.000000000000D+00 0.122794089839D-02 0.000000000000D+00  5 2 -2 25 23 21 0 0.31206198D+00 0.17194156D-02 0.20303221D+05 0.20303221D+05 0.20303221D+05 0.12331073D+01  1  2  2  1  5  1        2 0.182820795645D+00 0.100000000000D+01
-.147441154259D-04 0.000000000000D+00 -.102296307252D-05 0.122794089839D-02 0.000000000000D+00  5 2 -2 25 23 21 2 0.31206198D+00 0.17194156D-02 0.20303221D+05 0.20303221D+05 0.20303221D+05 0.12331073D+01  1  2  3  1  5  1        2 -.153867560040D-01 0.100000000000D+01
0.184057682992D-04 0.000000000000D+00 0.000000000000D+00 0.122794089839D-02 0.000000000000D+00  5 2 -2 25 23 21 2 0.31206198D+00 0.17194156D-02 0.20303221D+05 0.20303221D+05 0.20303221D+05 0.12331073D+01  1  2 15  1  5  1        2 0.192080065643D-01 0.100000000000D+01
0.366209548949D-03 0.000000000000D+00 0.000000000000D+00 0.122794089839D-02 0.000000000000D+00  5 2 -2 25 23 21 2 0.39672619D+00 0.17194156D-02 0.25823939D+05 0.25823939D+05 0.25823939D+05 0.12217907D+01  1  2 12  1  5  1        2 0.192787925021D+00 0.100000000000D+01
-.378081953444D-03 0.000000000000D+00 0.000000000000D+00 0.122794089839D-02 0.000000000000D+00  5 2 -2 25 23 21 2 0.31206198D+00 0.17194156D-02 0.20303221D+05 0.20303221D+05 0.20303221D+05 0.12331073D+01  1  2  4  1  5  1        2 -.394561124836D+00 0.100000000000D+01
-.644035399082D-03 0.000000000000D+00 -.145914760096D-03 0.122794089839D-02 0.000000000000D+00  5 2 -2 25 23 21 2 0.39668631D+00 0.17194156D-02 0.20303221D+05 0.20303221D+05 0.20303221D+05 0.12331073D+01  1  2  5  1  5  1        2 -.345828766495D+00 0.100000000000D+01
0.663944154180D-03 0.000000000000D+00 0.141812832795D-03 0.122794089839D-02 0.000000000000D+00  5 2 -2 25 23 21 2 0.31206198D+00 0.17194156D-02 0.20303221D+05 0.20303221D+05 0.20303221D+05 0.12331073D+01  1  2  6  1  5  1        2 0.692882984536D+00 0.100000000000D+01
0.120265539932D-04 0.000000000000D+00 0.000000000000D+00 0.122794089839D-02 0.000000000000D+00  5 21 -2 25 23 -2 2 0.39672619D+00 0.17194156D-02 0.25823939D+05 0.25823939D+05 0.25823939D+05 0.12217907D+01  1  2 12  3  5  1        2 0.125887693222D-02 0.100000000000D+01
-.188584690524D-04 0.000000000000D+00 -.479044323291D-05 0.122794089839D-02 0.000000000000D+00  5 21 -2 25 23 -2 2 0.39668631D+00 0.17194156D-02 0.20303221D+05 0.20303221D+05 0.20303221D+05 0.12331073D+01  1  2  5  3  5  1        2 -.206129818709D-02 0.100000000000D+01
  </mgrwgt>
  </event>
  <event>
  4     66 0.45228882E-03 0.13722368E+03 0.75467711E-02 0.10827566E+00
        2 -1    0    0  501    0 0.00000000E+00 0.00000000E+00 0.12965534E+04 0.12965535E+04 0.32000000E+00 0.0000E+00 0.9000E+01
       -2 -1    0    0    0  501 0.00000000E+00 0.00000000E+00 -.15822497E+02 0.15825732E+02 0.32000000E+00 0.0000E+00 0.9000E+01
       25  1    1    2    0    0 -.83872636E+02 0.17150613E+01 0.88472319E+03 0.89743951E+03 0.12500000E+03 0.0000E+00 0.9000E+01
       23  1    1    2    0    0 0.83872636E+02 -.17150613E+01 0.39600776E+03 0.41493970E+03 0.91188000E+02 0.0000E+00 0.9000E+01
#aMCatNLO 1  0  0  2  1 0.24336188D+03 0.00000000D+00  -5  5  0 0.00000000D+00 0.00000000D+00 0.00000000D+00 0.00000000D+00 0.00000000D+00
  <mgrwgt>
 0.2545100068D+00    3    2    0
 0.143237083131839D+03 0.000000000000000D+00 0.000000000000000D+00 0.143237083131839D+03
 0.143237083131839D+03 0.000000000000000D+00 0.000000000000000D+00 -.143237083131839D+03
 0.155995211990955D+03 -.838726356376239D+02 0.171506134473043D+01 0.408894328633361D+02
 0.130478954272722D+03 0.838726356376239D+02 -.171506134473043D+01 -.408894328633361D+02
 0.000000000000000D+00 0.000000000000000D+00 0.000000000000000D+00 0.000000000000000D+00
 0.403778828427784D+03 0.000000000000000D+00 0.000000000000000D+00 0.403778828427784D+03
 0.256544501708998D+03 0.000000000000000D+00 0.000000000000000D+00 -.256544501708998D+03
 0.214961938545331D+03 -.106281163535384D+03 -.132725293673988D+03 0.408894328633361D+02
 0.160926946974006D+03 0.662695856405582D+02 -.107324867656653D+03 -.408894328633361D+02
 0.284434444617446D+03 0.400115778948260D+02 0.240050161330641D+03 0.147234326718786D+03
0.251870456290D-03 0.000000000000D+00 0.000000000000D+00 0.130547516735D-02 0.000000000000D+00  5 2 -2 25 23 21 0 0.19947001D+00 0.24344822D-02 0.18830338D+05 0.18830338D+05 0.18830338D+05 0.12367178D+01  1  2  2  2  5  2       -2 0.249322511720D+00 0.100000000000D+01
-.139615080521D-04 0.000000000000D+00 -.967248871166D-06 0.130547516735D-02 0.000000000000D+00  5 2 -2 25 23 21 2 0.19947001D+00 0.24344822D-02 0.18830338D+05 0.18830338D+05 0.18830338D+05 0.12367178D+01  1  2  3  2  5  2       -2 -.211377038901D-01 0.100000000000D+01
0.173878619446D-04 0.000000000000D+00 0.000000000000D+00 0.130547516735D-02 0.000000000000D+00  5 2 -2 25 23 21 2 0.19947001D+00 0.24344822D-02 0.18830338D+05 0.18830338D+05 0.18830338D+05 0.12367178D+01  1  2 15  2  5  2       -2 0.263251989466D-01 0.100000000000D+01
  </mgrwgt>
  </event>
  <event>
  4     66 0.45228882E-03 0.12741156E+03 0.75467711E-02 0.11280074E+00
        4 -1    0    0  501    0 0.00000000E+00 0.00000000E+00 0.69359687E+03 0.69359860E+03 0.15500000E+01 0.0000E+00 0.9000E+01
       -4 -1    0    0    0  501 0.00000000E+00 0.00000000E+00 -.27297837E+02 0.27341807E+02 0.15500000E+01 0.0000E+00 0.9000E+01
       25  1    1    2    0    0 0.25061684E+02 0.61977473E+02 0.50101225E+03 0.52067991E+03 0.12500000E+03 0.0000E+00 0.9000E+01
       23  1    1    2    0    0 -.25061684E+02 -.61977473E+02 0.16528678E+03 0.20026050E+03 0.91188000E+02 0.0000E+00 0.9000E+01
#aMCatNLO 1  0  0  2  1 0.15840808D+03 0.00000000D+00  -5  5  0 0.00000000D+00 0.00000000D+00 0.00000000D+00 0.00000000D+00 0.00000000D+00
  <mgrwgt>
 0.3632697732D-02    5    2    0
 0.137659609463782D+03 0.000000000000000D+00 0.000000000000000D+00 0.137659609463782D+03
 0.137659609463782D+03 0.000000000000000D+00 0.000000000000000D+00 -.137659609463782D+03
 0.150934651948054D+03 0.250616837586361D+02 0.619774728619226D+02 0.518360301673661D+02
 0.124384566979510D+03 -.250616837586361D+02 -.619774728619226D+02 -.518360301673661D+02
 0.000000000000000D+00 -.000000000000000D+00 -.000000000000000D+00 -.000000000000000D+00
 0.177194755685907D+03 0.000000000000000D+00 0.000000000000000D+00 0.177194755685907D+03
 0.500206317510706D+03 0.000000000000000D+00 0.000000000000000D+00 -.500206317510706D+03
 0.210986620941098D+03 0.854682552433459D+02 0.137472024566051D+03 0.518360301673661D+02
 0.106651211529096D+03 0.134994076041259D+02 -.137848303380786D+02 -.518360301673661D+02
 0.359763240726418D+03 -.989676628474718D+02 -.123687194227972D+03 -.323011561824799D+03
0.137131492906D-03 0.000000000000D+00 0.000000000000D+00 0.128385372899D-02 0.000000000000D+00  5 4 -4 25 23 21 0 0.10671073D+00 0.42031828D-02 0.16233705D+05 0.16233705D+05 0.16233705D+05 0.12439282D+01  1  2  2  2  5  2       -4 0.523298814778D-02 0.100000000000D+01
-.756297964278D-05 0.000000000000D+00 -.526621040309D-06 0.128385372899D-02 0.000000000000D+00  5 4 -4 25 23 21 2 0.10671073D+00 0.42031828D-02 0.16233705D+05 0.16233705D+05 0.16233705D+05 0.12439282D+01  1  2  3  2  5  2       -4 -.446576730184D-03 0.100000000000D+01
0.945357048163D-05 0.000000000000D+00 0.000000000000D+00 0.128385372899D-02 0.000000000000D+00  5 4 -4 25 23 21 2 0.10671073D+00 0.42031828D-02 0.16233705D+05 0.16233705D+05 0.16233705D+05 0.12439282D+01  1  2 15  2  5  2       -4 0.558211815139D-03 0.100000000000D+01
-.631197965704D-04 0.000000000000D+00 -.482825930889D-04 0.128385372899D-02 0.000000000000D+00  5 4 -4 25 23 21 2 0.10671073D+00 0.19483091D-01 0.16233705D+05 0.16233705D+05 0.16233705D+05 0.12439282D+01  1  2  5  2  5  2       -4 -.284852082270D-03 0.100000000000D+01
-.124202606148D-04 0.000000000000D+00 -.897702612787D-05 0.128385372899D-02 0.000000000000D+00  5 4 21 25 23 4 2 0.10671073D+00 0.19483091D-01 0.16233705D+05 0.16233705D+05 0.16233705D+05 0.12439282D+01  1  2  5  4  5  2       -4 -.142707341887D-02 0.100000000000D+01
  </mgrwgt>
  </event>
  <event>
  4     66 0.45228882E-03 0.78705672E+02 0.75467711E-02 0.11822076E+00
        2 -1    0    0  501    0 0.00000000E+00 0.00000000E+00 0.10411021E+04 0.10411022E+04 0.32000000E+00 0.0000E+00 0.9000E+01
       -2 -1    0    0    0  501 0.00000000E+00 0.00000000E+00 -.21769636E+02 0.21771988E+02 0.32000000E+00 0.0000E+00 0.9000E+01
       25  1    1    2    0    0 -.98604391E+02 0.49539657E+01 0.66759545E+03 0.68633523E+03 0.12500000E+03 0.0000E+00 0.9000E+01
       23  1    1    2    0    0 0.98604391E+02 -.49539657E+01 0.35173702E+03 0.37653891E+03 0.91188000E+02 0.0000E+00 0.9000E+01
#aMCatNLO 1  0  0  2  1 0.36033296D+02 0.00000000D+00  -5  5  0 0.00000000D+00 0.00000000D+00 0.00000000D+00 0.00000000D+00 0.00000000D+00
  <mgrwgt>
 0.2050212369D+00    9    2    0
 0.150551285664098D+03 0.000000000000000D+00 0.000000000000000D+00 0.150551285664098D+03
 0.150551285664098D+03 0.000000000000000D+00 0.000000000000000D+00 -.150551285664098D+03
 0.162689588940214D+03 -.986043907035011D+02 0.495396570421775D+01 0.330988626289274D+02
 0.138412982387982D+03 0.986043907035011D+02 -.495396570421775D+01 -.330988626289274D+02
 0.000000000000000D+00 0.000000000000000D+00 -.000000000000000D+00 -.000000000000000D+00
 0.167103934525042D+03 0.000000000000000D+00 0.000000000000000D+00 0.167103934525042D+03
 0.172596563947332D+03 0.000000000000000D+00 0.000000000000000D+00 -.172596563947332D+03
 0.175570470049081D+03 -.118457185966339D+03 0.850590023824702D+01 0.330988626289274D+02
 0.127680509963266D+03 0.829871178862278D+02 -.215982362434316D+01 -.330988626289274D+02
 0.364495184600270D+02 0.354700680801111D+02 -.634607661390386D+01 -.549262942228919D+01
0.188631170988D-03 0.000000000000D+00 0.000000000000D+00 0.128929831378D-02 0.000000000000D+00  5 2 -2 25 23 21 0 0.16016974D+00 0.33493594D-02 0.21562618D+05 0.21562618D+05 0.21562618D+05 0.12302453D+01  1  2  2  2  5  2       -2 0.163090010556D+00 0.100000000000D+01
-.104715806580D-04 0.000000000000D+00 -.724393364324D-06 0.128929831378D-02 0.000000000000D+00  5 2 -2 25 23 21 2 0.16016974D+00 0.33493594D-02 0.21562618D+05 0.21562618D+05 0.21562618D+05 0.12302453D+01  1  2  3  2  5  2       -2 -.137028087332D-01 0.100000000000D+01
0.130482116239D-04 0.000000000000D+00 0.000000000000D+00 0.128929831378D-02 0.000000000000D+00  5 2 -2 25 23 21 2 0.16016974D+00 0.33493594D-02 0.21562618D+05 0.21562618D+05 0.21562618D+05 0.12302453D+01  1  2 15  2  5  2       -2 0.170745137751D-01 0.100000000000D+01
0.133793545789D-03 0.000000000000D+00 0.000000000000D+00 0.128929831378D-02 0.000000000000D+00  5 2 -2 25 23 21 2 0.16016974D+00 0.40007116D-02 0.27518062D+05 0.27518062D+05 0.27518062D+05 0.12188543D+01  1  2 12  2  5  2       -2 0.132684562780D+00 0.100000000000D+01
-.120733074440D-03 0.000000000000D+00 0.000000000000D+00 0.128929831378D-02 0.000000000000D+00  5 2 -2 25 23 21 2 0.16016974D+00 0.33493594D-02 0.21562618D+05 0.21562618D+05 0.21562618D+05 0.12302453D+01  1  2  4  2  5  2       -2 -.157987822550D+00 0.100000000000D+01
-.324150849646D-03 0.000000000000D+00 -.101710293643D-03 0.128929831378D-02 0.000000000000D+00  5 2 -2 25 23 21 2 0.16016974D+00 0.42815212D-02 0.21562618D+05 0.21562618D+05 0.21562618D+05 0.12302453D+01  1  2  5  2  5  2       -2 -.294521701710D+00 0.100000000000D+01
0.341761394626D-03 0.000000000000D+00 0.987194380882D-04 0.128929831378D-02 0.000000000000D+00  5 2 -2 25 23 21 2 0.16016974D+00 0.33493594D-02 0.21562618D+05 0.21562618D+05 0.21562618D+05 0.12302453D+01  1  2  6  2  5  2       -2 0.447219113894D+00 0.100000000000D+01
0.349333112754D-05 0.000000000000D+00 0.000000000000D+00 0.128929831378D-02 0.000000000000D+00  5 2 21 25 23 2 2 0.16016974D+00 0.40007116D-02 0.27518062D+05 0.27518062D+05 0.27518062D+05 0.12188543D+01  1  2 12  4  5  2       -2 0.641143058291D-01 0.100000000000D+01
-.917048593535D-05 0.000000000000D+00 -.339672696784D-05 0.128929831378D-02 0.000000000000D+00  5 2 21 25 23 2 2 0.16016974D+00 0.42815212D-02 0.21562618D+05 0.21562618D+05 0.21562618D+05 0.12302453D+01  1  2  5  4  5  2       -2 -.152948936910D+00 0.100000000000D+01
  </mgrwgt>
  </event>
  <event>
  4     66 0.45228882E-03 0.52493252E+02 0.75467711E-02 0.12132160E+00
        2 -1    0    0  501    0 0.00000000E+00 0.00000000E+00 0.42926492E+02 0.42927685E+02 0.32000000E+00 0.0000E+00 0.9000E+01
       -2 -1    0    0    0  501 0.00000000E+00 0.00000000E+00 -.40839683E+03 0.40839695E+03 0.32000000E+00 0.0000E+00 0.9000E+01
       25  1    1    2    0    0 -.36605066E+02 0.72586994E+01 -.89258145E+02 0.15806529E+03 0.12500000E+03 0.0000E+00 0.9000E+01
       23  1    1    2    0    0 0.36605066E+02 -.72586994E+01 -.27621219E+03 0.29325935E+03 0.91188000E+02 0.0000E+00 0.9000E+01
#aMCatNLO 1  0  0  1  2 0.47037633D+02 0.00000000D+00  -5  5  0 0.00000000D+00 0.00000000D+00 0.00000000D+00 0.00000000D+00 0.00000000D+00
  <mgrwgt>
 0.1471180479D+00    9    2    0
 0.132405969524966D+03 0.000000000000000D+00 0.000000000000000D+00 0.132405969524966D+03
 0.132405969524966D+03 0.000000000000000D+00 0.000000000000000D+00 -.132405969524966D+03
 0.146207742742264D+03 -.366050658807487D+02 0.725869944763893D+01 0.660233630768906D+02
 0.118604196307669D+03 0.366050658807487D+02 -.725869944763893D+01 -.660233630768906D+02
 0.000000000000000D+00 0.000000000000000D+00 -.000000000000000D+00 0.000000000000000D+00
 0.158356872128236D+03 0.000000000000000D+00 0.000000000000000D+00 0.158356872128236D+03
 0.157643237710373D+03 0.000000000000000D+00 0.000000000000000D+00 -.157643237710373D+03
 0.154895119754129D+03 -.603826093828075D+02 0.190356017973276D+02 0.660233630768906D+02
 0.114061943732542D+03 0.182318454457271D+02 0.184146781286120D+01 -.660233630768906D+02
 0.470430463519371D+02 0.421507639370804D+02 -.208770696101888D+02 0.713634417862998D+00
0.394029128459D-03 0.000000000000D+00 0.000000000000D+00 0.120939816251D-02 0.000000000000D+00  5 2 -2 25 23 21 0 0.66041771D-02 0.62830383D-01 0.13107975D+05 0.13107975D+05 0.13107975D+05 0.12545537D+01  1  2  2  1  5  1        2 0.978809702286D-01 0.100000000000D+01
-.213279395759D-04 0.000000000000D+00 -.151317560354D-05 0.120939816251D-02 0.000000000000D+00  5 2 -2 25 23 21 2 0.66041771D-02 0.62830383D-01 0.13107975D+05 0.13107975D+05 0.13107975D+05 0.12545537D+01  1  2  3  1  5  1        2 -.833868103213D-02 0.100000000000D+01
0.270284210402D-04 0.000000000000D+00 0.000000000000D+00 0.120939816251D-02 0.000000000000D+00  5 2 -2 25 23 21 2 0.66041771D-02 0.62830383D-01 0.13107975D+05 0.13107975D+05 0.13107975D+05 0.12545537D+01  1  2 15  1  5  1        2 0.105674240615D-01 0.100000000000D+01
0.210994041343D-03 0.000000000000D+00 0.000000000000D+00 0.120939816251D-02 0.000000000000D+00  5 2 -2 25 23 21 2 0.84153419D-02 0.62830383D-01 0.19623513D+05 0.19623513D+05 0.19623513D+05 0.12347357D+01  1  2 12  1  5  1        2 0.595708942432D-01 0.100000000000D+01
-.221894525192D-03 0.000000000000D+00 0.000000000000D+00 0.120939816251D-02 0.000000000000D+00  5 2 -2 25 23 21 2 0.66041771D-02 0.62830383D-01 0.13107975D+05 0.13107975D+05 0.13107975D+05 0.12545537D+01  1  2  4  1  5  1        2 -.867551064542D-01 0.100000000000D+01
-.473344134591D-03 0.000000000000D+00 -.231286685245D-03 0.120939816251D-02 0.000000000000D+00  5 2 -2 25 23 21 2 0.93930507D-02 0.62830383D-01 0.13107975D+05 0.13107975D+05 0.13107975D+05 0.12545537D+01  1  2  5  1  5  1        2 -.119129311730D+00 0.100000000000D+01
0.534928162830D-03 0.000000000000D+00 0.217642548284D-03 0.120939816251D-02 0.000000000000D+00  5 2 -2 25 23 21 2 0.66041771D-02 0.62830383D-01 0.13107975D+05 0.13107975D+05 0.13107975D+05 0.12545537D+01  1  2  6  1  5  1        2 0.209143284051D+00 0.100000000000D+01
0.697857545455D-05 0.000000000000D+00 0.000000000000D+00 0.120939816251D-02 0.000000000000D+00  5 21 -2 25 23 -2 2 0.84153419D-02 0.62830383D-01 0.19623513D+05 0.19623513D+05 0.19623513D+05 0.12347357D+01  1  2 12  3  5  1        2 0.227358450481D-01 0.100000000000D+01
-.139407340139D-04 0.000000000000D+00 -.100379627218D-04 0.120939816251D-02 0.000000000000D+00  5 21 -2 25 23 -2 2 0.93930507D-02 0.62830383D-01 0.13107975D+05 0.13107975D+05 0.13107975D+05 0.12545537D+01  1  2  5  3  5  1        2 -.385572704755D-01 0.100000000000D+01
  </mgrwgt>
  </event>
  <event>
  4     66 0.45228882E-03 0.10940940E+03 0.75467711E-02 0.10965912E+00
        4 -1    0    0  501    0 0.00000000E+00 0.00000000E+00 0.75786835E+02 0.75802684E+02 0.15500000E+01 0.0000E+00 0.9000E+01
       -4 -1    0    0    0  501 0.00000000E+00 0.00000000E+00 -.16396951E+03 0.16397684E+03 0.15500000E+01 0.0000E+00 0.9000E+01
       25  1    1    2    0    0 0.10543723E+02 0.12965475E+02 -.27792711E+02 0.12913833E+03 0.12500000E+03 0.0000E+00 0.9000E+01
       23  1    1    2    0    0 -.10543723E+02 -.12965475E+02 -.60389964E+02 0.11064119E+03 0.91188000E+02 0.0000E+00 0.9000E+01
#aMCatNLO 1  0  0  2  2 0.23531716D+03 0.00000000D+00  -5  5  0 0.00000000D+00 0.00000000D+00 0.00000000D+00 0.00000000D+00 0.00000000D+00
  <mgrwgt>
 0.3297654263D-01    3    2    0
 0.111487705533435D+03 0.000000000000000D+00 0.000000000000000D+00 0.111487705533435D+03
 0.111487705533435D+03 0.000000000000000D+00 0.000000000000000D+00 -.111487705533435D+03
 0.127879083894450D+03 0.105437234165737D+02 0.129654750930314D+02 0.211845804728491D+02
 0.950963271724195D+02 -.105437234165737D+02 -.129654750930314D+02 -.211845804728491D+02
 0.000000000000000D+00 0.000000000000000D+00 0.000000000000000D+00 0.000000000000000D+00
 0.335694790916616D+03 0.000000000000000D+00 0.000000000000000D+00 0.335694790916616D+03
 0.241831168739167D+03 0.000000000000000D+00 0.000000000000000D+00 -.241831168739167D+03
 0.170185087309270D+03 -.106531414710334D+03 -.392458300010073D+02 0.211845804728491D+02
 0.153994183066453D+03 -.108382741687529D+03 -.565981618852414D+02 -.211845804728491D+02
 0.253346689280060D+03 0.214914156397863D+03 0.958439918862488D+02 0.938636221774489D+02
0.239576844991D-03 0.000000000000D+00 0.000000000000D+00 0.179295354398D-02 0.000000000000D+00  5 4 -4 25 23 21 0 0.11661296D-01 0.25227861D-01 0.11970418D+05 0.11970418D+05 0.11970418D+05 0.12591498D+01  1  2  2  2  5  2       -4 0.323224267905D-01 0.100000000000D+01
-.133040944332D-04 0.000000000000D+00 -.920038166799D-06 0.179295354398D-02 0.000000000000D+00  5 4 -4 25 23 21 2 0.11661296D-01 0.25227861D-01 0.11970418D+05 0.11970418D+05 0.11970418D+05 0.12591498D+01  1  2  3  2  5  2       -4 -.284576615075D-02 0.100000000000D+01
0.163621176413D-04 0.000000000000D+00 0.000000000000D+00 0.179295354398D-02 0.000000000000D+00  5 4 -4 25 23 21 2 0.11661296D-01 0.25227861D-01 0.11970418D+05 0.11970418D+05 0.11970418D+05 0.12591498D+01  1  2 15  2  5  2       -4 0.349988199285D-02 0.100000000000D+01
  </mgrwgt>
  </event>
  <event>
  5     66 -.45228882E-03 0.11692341E+03 0.75467711E-02 0.12391951E+00
        2 -1    0    0  502    0 0.00000000E+00 0.00000000E+00 0.84062103E+03 0.84062109E+03 0.32000000E+00 0.0000E+00 0.9000E+01
       -2 -1    0    0    0  501 0.00000000E+00 0.00000000E+00 -.17845714E+02 0.17848583E+02 0.32000000E+00 0.0000E+00 0.9000E+01
       25  1    1    2    0    0 0.27149450E+02 0.42114850E+02 0.46735560E+03 0.48637126E+03 0.12500000E+03 0.0000E+00 0.9000E+01
       23  1    1    2    0    0 -.23021430E+02 -.32240958E+02 0.32178102E+03 0.33679036E+03 0.91188000E+02 0.0000E+00 0.9000E+01
       21  1    1    2  502  501 -.41280203E+01 -.98738924E+01 0.33638692E+02 0.35308050E+02 0.75000000E+00 0.0000E+00 0.9000E+01
#aMCatNLO 2  0  0  1  2 0.10702070D+02 0.00000000D+00  -5  5  0 0.00000000D+00 0.00000000D+00 0.00000000D+00 0.00000000D+00 0.00000000D+00
  <mgrwgt>
 -.1147111066D+00    3    2    0
 0.116987087106712D+03 0.000000000000000D+00 0.000000000000000D+00 0.116987087106712D+03
 0.116987087106712D+03 0.000000000000000D+00 0.000000000000000D+00 -.116987087106712D+03
 0.132607932186247D+03 0.247924112836606D+02 0.364770032150873D+02 0.382469056272616D+01
 0.101366242027177D+03 -.247924112836606D+02 -.364770032150873D+02 -.382469056272616D+01
 0.000000000000000D+00 -.000000000000000D+00 -.000000000000000D+00 -.000000000000000D+00
 0.122104297976402D+03 0.000000000000000D+00 0.000000000000000D+00 0.122104297976402D+03
 0.122841969833917D+03 0.000000000000000D+00 0.000000000000000D+00 -.122841969833917D+03
 0.134723351703252D+03 0.271494499789475D+02 0.421148501374301D+02 0.382469056272616D+01
 0.994954530554769D+02 -.230214296730443D+02 -.322409576877468D+02 -.382469056272616D+01
 0.107274630515902D+02 -.412802030590323D+01 -.987389244968334D+01 -.737671857514773D+00
-.153898983380D-03 0.000000000000D+00 0.000000000000D+00 0.172460020092D-02 0.000000000000D+00  5 2 -2 25 23 21 2 0.13227181D+00 0.26145741D-02 0.14980907D+05 0.14980907D+05 0.14980907D+05 0.12478856D+01  1  2 13  1  5  1        2 -.380895556510D+00 0.100000000000D+01
-.226187600802D-05 0.000000000000D+00 0.000000000000D+00 0.172460020092D-02 0.000000000000D+00  5 2 -2 25 23 21 2 0.12389341D+00 0.26145741D-02 0.13671084D+05 0.13671084D+05 0.13671084D+05 0.12524418D+01  1  2  8  1  5  1        2 -.610102477569D-02 0.100000000000D+01
0.114804110756D-03 0.000000000000D+00 0.000000000000D+00 0.172460020092D-02 0.125292215116D-03  5 2 -2 25 23 21 2 0.12931271D+00 0.27454263D-02 0.14980907D+05 0.14980907D+05 0.14980907D+05 0.12478856D+01  1  2  1  1  5  1        2 0.272285474722D+00 0.100000000000D+01
  </mgrwgt>
  </event>
  <event>
  4     66 0.45228882E-03 0.11566295E+03 0.75467711E-02 0.11350262E+00
        2 -1    0    0  501    0 0.00000000E+00 0.00000000E+00 0.11911773E+04 0.11911773E+04 0.32000000E+00 0.0000E+00 0.9000E+01
       -2 -1    0    0    0  501 0.00000000E+00 0.00000000E+00 -.11776630E+02 0.11780977E+02 0.32000000E+00 0.0000E+00 0.9000E+01
       25  1    1    2    0    0 0.30222744E+02 0.27276525E+02 0.79508371E+03 0.80587873E+03 0.12500000E+03 0.0000E+00 0.9000E+01
       23  1    1    2    0    0 -.30222744E+02 -.27276525E+02 0.38431694E+03 0.39707957E+03 0.91188000E+02 0.0000E+00 0.9000E+01
#aMCatNLO 1  0  0  1  2 0.15719381D+03 0.00000000D+00  -5  5  0 0.00000000D+00 0.00000000D+00 0.00000000D+00 0.00000000D+00 0.00000000D+00
  <mgrwgt>
 0.1678531210D+00    5    2    0
 0.118451234738851D+03 0.000000000000000D+00 0.000000000000000D+00 0.118451234738851D+03
 0.118451234738851D+03 0.000000000000000D+00 0.000000000000000D+00 -.118451234738851D+03
 0.133878994255490D+03 0.302227441057146D+02 0.272765245129271D+02 0.253211779362202D+02
 0.103023475222211D+03 -.302227441057146D+02 -.272765245129271D+02 -.253211779362202D+02
 0.000000000000000D+00 0.000000000000000D+00 0.000000000000000D+00 0.000000000000000D+00
 0.249411214953119D+03 0.000000000000000D+00 0.000000000000000D+00 0.249411214953119D+03
 0.199751150889344D+03 0.000000000000000D+00 0.000000000000000D+00 -.199751150889344D+03
 0.135365489115546D+03 -.720485016984059D+01 -.447855303132991D+02 0.253211779362202D+02
 0.148945384182989D+03 -.652488591139702D+02 -.947148375792608D+02 -.253211779362202D+02
 0.164851492543928D+03 0.724537092838107D+02 0.139500367892560D+03 0.496600640637750D+02
0.965436853152D-04 0.000000000000D+00 0.000000000000D+00 0.164168739220D-02 0.000000000000D+00  5 2 -2 25 23 21 0 0.18325838D+00 0.18121270D-02 0.13377919D+05 0.13377919D+05 0.13377919D+05 0.12535288D+01  1  2  2  1  5  1        2 0.165770036148D+00 0.100000000000D+01
-.535983764984D-05 0.000000000000D+00 -.370753172146D-06 0.164168739220D-02 0.000000000000D+00  5 2 -2 25 23 21 2 0.18325838D+00 0.18121270D-02 0.13377919D+05 0.13377919D+05 0.13377919D+05 0.12535288D+01  1  2  3  1  5  1        2 -.144611370196D-01 0.100000000000D+01
0.667497414879D-05 0.000000000000D+00 0.000000000000D+00 0.164168739220D-02 0.000000000000D+00  5 2 -2 25 23 21 2 0.18325838D+00 0.18121270D-02 0.13377919D+05 0.13377919D+05 0.13377919D+05 0.12535288D+01  1  2 15  1  5  1        2 0.180094476875D-01 0.100000000000D+01
-.577359094087D-05 0.000000000000D+00 -.315777324794D-04 0.164168739220D-02 0.000000000000D+00  5 2 -2 25 23 21 2 0.47781004D+00 0.18121270D-02 0.13377919D+05 0.13377919D+05 0.13377919D+05 0.12535288D+01  1  2  5  1  5  1        2 -.150763920277D-02 0.100000000000D+01
0.128461005733D-05 0.000000000000D+00 -.335452926854D-05 0.164168739220D-02 0.000000000000D+00  5 21 -2 25 23 -2 2 0.47781004D+00 0.18121270D-02 0.13377919D+05 0.13377919D+05 0.13377919D+05 0.12535288D+01  1  2  5  3  5  1        2 0.424134355283D-04 0.100000000000D+01
  </mgrwgt>
  </event>
  <event>
  4     66 0.45228882E-03 0.97106089E+02 0.75467711E-02 0.12056532E+00
        2 -1    0    0  501    0 0.00000000E+00 0.00000000E+00 0.83139687E+02 0.83140303E+02 0.32000000E+00 0.0000E+00 0.9000E+01
       -2 -1    0    0    0  501 0.00000000E+00 0.00000000E+00 -.23521807E+03 0.23521829E+03 0.32000000E+00 0.0000E+00 0.9000E+01
       25  1    1    2    0    0 0.28359510E+02 0.50030956E+02 -.72179747E+01 0.13778410E+03 0.12500000E+03 0.0000E+00 0.9000E+01
       23  1    1    2    0    0 -.28359510E+02 -.50030956E+02 -.14486041E+03 0.18057449E+03 0.91188000E+02 0.0000E+00 0.9000E+01
#aMCatNLO 1  0  0  2  1 0.42614792D+02 0.00000000D+00  -5  5  0 0.00000000D+00 0.00000000D+00 0.00000000D+00 0.00000000D+00 0.00000000D+00
  <mgrwgt>
 0.1465444683D+00    9    2    0
 0.139843088364985D+03 0.000000000000000D+00 0.000000000000000D+00 0.139843088364985D+03
 0.139843088364985D+03 0.000000000000000D+00 0.000000000000000D+00 -.139843088364985D+03
 0.152910857286324D+03 0.283595096482239D+02 0.500309555513350D+02 0.667036129094301D+02
 0.126775319443646D+03 -.283595096482239D+02 -.500309555513350D+02 -.667036129094301D+02
 0.000000000000000D+00 -.000000000000000D+00 0.000000000000000D+00 -.000000000000000D+00
 0.154932793866726D+03 0.000000000000000D+00 0.000000000000000D+00 0.154932793866726D+03
 0.175147561616948D+03 0.000000000000000D+00 0.000000000000000D+00 -.175147561616948D+03
 0.154207487168316D+03 0.479555846070612D+02 0.374945199807941D+02 0.667036129094301D+02
 0.128706595102931D+03 -.120581625015007D+02 -.604596147929020D+02 -.667036129094301D+02
 0.471662732124273D+02 -.358974221055605D+02 0.229650948121079D+02 -.202147677502228D+02
0.330228285797D-03 0.000000000000D+00 0.000000000000D+00 0.116664173852D-02 0.000000000000D+00  5 2 -2 25 23 21 0 0.12790785D-01 0.36187459D-01 0.15055672D+05 0.15055672D+05 0.15055672D+05 0.12476392D+01  1  2  2  2  5  2       -2 0.107353827062D+00 0.100000000000D+01
-.179645878139D-04 0.000000000000D+00 -.126816356856D-05 0.116664173852D-02 0.000000000000D+00  5 2 -2 25 23 21 2 0.12790785D-01 0.36187459D-01 0.15055672D+05 0.15055672D+05 0.15055672D+05 0.12476392D+01  1  2  3  2  5  2       -2 -.909072485891D-02 0.100000000000D+01
0.225055505719D-04 0.000000000000D+00 0.000000000000D+00 0.116664173852D-02 0.000000000000D+00  5 2 -2 25 23 21 2 0.12790785D-01 0.36187459D-01 0.15055672D+05 0.15055672D+05 0.15055672D+05 0.12476392D+01  1  2 15  2  5  2       -2 0.113886146549D-01 0.100000000000D+01
0.218967146077D-03 0.000000000000D+00 0.000000000000D+00 0.116664173852D-02 0.000000000000D+00  5 2 -2 25 23 21 2 0.12790785D-01 0.46892731D-01 0.21275433D+05 0.21275433D+05 0.21275433D+05 0.12308812D+01  1  2 12  2  5  2       -2 0.664846202886D-01 0.100000000000D+01
-.240980621265D-03 0.000000000000D+00 0.000000000000D+00 0.116664173852D-02 0.000000000000D+00  5 2 -2 25 23 21 2 0.12790785D-01 0.36187459D-01 0.15055672D+05 0.15055672D+05 0.15055672D+05 0.12476392D+01  1  2  4  2  5  2       -2 -.121944825394D+00 0.100000000000D+01
-.411389925309D-03 0.000000000000D+00 -.141494501000D-03 0.116664173852D-02 0.000000000000D+00  5 2 -2 25 23 21 2 0.12790785D-01 0.49572050D-01 0.15055672D+05 0.15055672D+05 0.15055672D+05 0.12476392D+01  1  2  5  2  5  2       -2 -.114118956861D+00 0.100000000000D+01
0.440646806347D-03 0.000000000000D+00 0.134765302695D-03 0.116664173852D-02 0.000000000000D+00  5 2 -2 25 23 21 2 0.12790785D-01 0.36187459D-01 0.15055672D+05 0.15055672D+05 0.15055672D+05 0.12476392D+01  1  2  6  2  5  2       -2 0.222983066350D+00 0.100000000000D+01
0.760916440065D-05 0.000000000000D+00 0.000000000000D+00 0.116664173852D-02 0.000000000000D+00  5 2 21 25 23 2 2 0.12790785D-01 0.46892731D-01 0.21275433D+05 0.21275433D+05 0.21275433D+05 0.12308812D+01  1  2 12  4  5  2       -2 0.288621407254D-01 0.100000000000D+01
-.130464845434D-04 0.000000000000D+00 -.566179074883D-05 0.116664173852D-02 0.000000000000D+00  5 2 21 25 23 2 2 0.12790785D-01 0.49572050D-01 0.15055672D+05 0.15055672D+05 0.15055672D+05 0.12476392D+01  1  2  5  4  5  2       -2 -.453732936201D-01 0.100000000000D+01
  </mgrwgt>
  </event>
  <event>
  4     66 0.45228882E-03 0.89646690E+02 0.75467711E-02 0.12253146E+00
        2 -1    0    0  501    0 0.00000000E+00 0.00000000E+00 0.24065682E+04 0.24065682E+04 0.32000000E+00 0.0000E+00 0.9000E+01
       -2 -1    0    0    0  501 0.00000000E+00 0.00000000E+00 -.56279951E+01 0.56370851E+01 0.32000000E+00 0.0000E+00 0.9000E+01
       25  1    1    2    0    0 0.30361329E+02 -.16022938E+02 0.10976230E+04 0.11052510E+04 0.12500000E+03 0.0000E+00 0.9000E+01
       23  1    1    2    0    0 -.30361329E+02 0.16022938E+02 0.13033172E+04 0.13069543E+04 0.91188000E+02 0.0000E+00 0.9000E+01
#aMCatNLO 1  0  0  1  2 0.33362987D+02 0.00000000D+00  -5  5  0 0.00000000D+00 0.00000000D+00 0.00000000D+00 0.00000000D+00 0.00000000D+00
  <mgrwgt>
 0.2848006743D+00    9    2    0
 0.116426557117526D+03 0.000000000000000D+00 0.000000000000000D+00 0.116426557117526D+03
 0.116426557117526D+03 0.000000000000000D+00 0.000000000000000D+00 -.116426557117526D+03
 0.132122607994950D+03 0.303613286536213D+02 -.160229382953296D+02 -.255507086821103D+02
 0.100730506240102D+03 -.303613286536213D+02 0.160229382953296D+02 0.255507086821103D+02
 0.000000000000000D+00 0.000000000000000D+00 0.000000000000000D+00 0.000000000000000D+00
 0.154569362492724D+03 0.000000000000000D+00 0.000000000000000D+00 0.154569362492724D+03
 0.125145809950229D+03 0.000000000000000D+00 0.000000000000000D+00 -.125145809950229D+03
 0.130190229851623D+03 0.128293041305680D+02 -.225181302551001D+02 -.255507086821103D+02
 0.105040851662861D+03 -.441143287832100D+02 0.109277836686082D+02 0.255507086821103D+02
 0.444840909284700D+02 0.312850246526421D+02 0.115903465864919D+02 0.294235525424949D+02
0.144576740735D-03 0.000000000000D+00 0.000000000000D+00 0.167516410278D-02 0.000000000000D+00  5 2 -2 25 23 21 0 0.37024197D+00 0.86654626D-03 0.12889583D+05 0.12889583D+05 0.12889583D+05 0.12554004D+01  1  2  2  1  5  1        2 0.167890222653D+00 0.100000000000D+01
-.802585262812D-05 0.000000000000D+00 -.555212752352D-06 0.167516410278D-02 0.000000000000D+00  5 2 -2 25 23 21 2 0.37024197D+00 0.86654626D-03 0.12889583D+05 0.12889583D+05 0.12889583D+05 0.12554004D+01  1  2  3  1  5  1        2 -.146886770185D-01 0.100000000000D+01
0.100119547394D-04 0.000000000000D+00 0.000000000000D+00 0.167516410278D-02 0.000000000000D+00  5 2 -2 25 23 21 2 0.37024197D+00 0.86654626D-03 0.12889583D+05 0.12889583D+05 0.12889583D+05 0.12554004D+01  1  2 15  1  5  1        2 0.183235820922D-01 0.100000000000D+01
0.149617566646D-03 0.000000000000D+00 0.000000000000D+00 0.167516410278D-02 0.000000000000D+00  5 2 -2 25 23 21 2 0.50197689D+00 0.86654626D-03 0.17280059D+05 0.17280059D+05 0.17280059D+05 0.12408770D+01  1  2 12  1  5  1        2 0.884791877423D-01 0.100000000000D+01
-.159306707769D-03 0.000000000000D+00 0.000000000000D+00 0.167516410278D-02 0.000000000000D+00  5 2 -2 25 23 21 2 0.37024197D+00 0.86654626D-03 0.12889583D+05 0.12889583D+05 0.12889583D+05 0.12554004D+01  1  2  4  1  5  1        2 -.291558403291D+00 0.100000000000D+01
-.246342828747D-03 0.000000000000D+00 -.602972982342D-04 0.167516410278D-02 0.000000000000D+00  5 2 -2 25 23 21 2 0.50083060D+00 0.86654626D-03 0.12889583D+05 0.12889583D+05 0.12889583D+05 0.12554004D+01  1  2  5  1  5  1        2 -.151000931751D+00 0.100000000000D+01
0.255462974910D-03 0.000000000000D+00 0.576464968203D-04 0.167516410278D-02 0.000000000000D+00  5 2 -2 25 23 21 2 0.37024197D+00 0.86654626D-03 0.12889583D+05 0.12889583D+05 0.12889583D+05 0.12554004D+01  1  2  6  1  5  1        2 0.467540746450D+00 0.100000000000D+01
0.584460635922D-05 0.000000000000D+00 0.000000000000D+00 0.167516410278D-02 0.000000000000D+00  5 21 -2 25 23 -2 2 0.50197689D+00 0.86654626D-03 0.17280059D+05 0.17280059D+05 0.17280059D+05 0.12408770D+01  1  2 12  3  5  1        2 0.359415538274D-03 0.100000000000D+01
-.820407872781D-05 0.000000000000D+00 -.234264486545D-05 0.167516410278D-02 0.000000000000D+00  5 21 -2 25 23 -2 2 0.50083060D+00 0.86654626D-03 0.12889583D+05 0.12889583D+05 0.12889583D+05 0.12554004D+01  1  2  5  3  5  1        2 -.544468125115D-03 0.100000000000D+01
  </mgrwgt>
  </event>
  <event>
  4     66 0.45228882E-03 0.11467453E+03 0.75467711E-02 0.12116035E+00
        4 -1    0    0  501    0 0.00000000E+00 0.00000000E+00 0.16873582E+03 0.16874294E+03 0.15500000E+01 0.0000E+00 0.9000E+01
       -4 -1    0    0    0  501 0.00000000E+00 0.00000000E+00 -.85525018E+02 0.85539063E+02 0.15500000E+01 0.0000E+00 0.9000E+01
       25  1    1    2    0    0 0.31013878E+02 -.21730447E+02 0.84452516E+02 0.15553553E+03 0.12500000E+03 0.0000E+00 0.9000E+01
       23  1    1    2    0    0 -.31013878E+02 0.21730447E+02 -.12417143E+01 0.98746474E+02 0.91188000E+02 0.0000E+00 0.9000E+01
#aMCatNLO 1  0  0  2  2 0.48259763D+02 0.00000000D+00  -5  5  0 0.00000000D+00 0.00000000D+00 0.00000000D+00 0.00000000D+00 0.00000000D+00
  <mgrwgt>
 0.1150520919D-01    4    2    0
 0.120140853907498D+03 0.000000000000000D+00 0.000000000000000D+00 0.120140853907498D+03
 0.120140853907498D+03 0.000000000000000D+00 0.000000000000000D+00 -.120140853907498D+03
 0.135351642782089D+03 0.310138784035360D+02 -.217304469220315D+02 0.355104805198359D+02
 0.104930065032907D+03 -.310138784035360D+02 0.217304469220315D+02 -.355104805198359D+02
 0.000000000000000D+00 -.000000000000000D+00 -.000000000000000D+00 0.000000000000000D+00
 0.156253322186445D+03 0.000000000000000D+00 0.000000000000000D+00 0.156253322186445D+03
 0.139810805772315D+03 0.000000000000000D+00 0.000000000000000D+00 -.139810805772315D+03
 0.139975359247051D+03 0.518755765528962D+02 -.400393892261701D+01 0.355104805198359D+02
 0.105104839473710D+03 -.150994030838106D+02 0.352532230662280D+02 -.355104805198359D+02
 0.509839292379995D+02 -.367761734690856D+02 -.312492841436110D+02 0.164425164141299D+02
0.161788838795D-03 0.000000000000D+00 0.000000000000D+00 0.156114374762D-02 0.000000000000D+00  5 4 -4 25 23 21 0 0.25960985D-01 0.13159323D-01 0.13150247D+05 0.13150247D+05 0.13150247D+05 0.12543917D+01  1  2  2  2  5  2       -4 0.170230624597D-01 0.100000000000D+01
-.896457076775D-05 0.000000000000D+00 -.621311740951D-06 0.156114374762D-02 0.000000000000D+00  5 4 -4 25 23 21 2 0.25960985D-01 0.13159323D-01 0.13150247D+05 0.13150247D+05 0.13150247D+05 0.12543917D+01  1  2  3  2  5  2       -4 -.148417445360D-02 0.100000000000D+01
0.111800294660D-04 0.000000000000D+00 0.000000000000D+00 0.156114374762D-02 0.000000000000D+00  5 4 -4 25 23 21 2 0.25960985D-01 0.13159323D-01 0.13150247D+05 0.13150247D+05 0.13150247D+05 0.12543917D+01  1  2 15  2  5  2       -4 0.185096582466D-02 0.100000000000D+01
-.355438763760D-04 0.000000000000D+00 0.000000000000D+00 0.156114374762D-02 0.000000000000D+00  5 4 -4 25 23 21 2 0.25960985D-01 0.13159323D-01 0.13150247D+05 0.13150247D+05 0.13150247D+05 0.12543917D+01  1  2  4  2  5  2       -4 -.588464463787D-02 0.100000000000D+01
  </mgrwgt>
  </event>
  <event>
  4     66 0.45228882E-03 0.11168432E+03 0.75467711E-02 0.12026732E+00
        2 -1    0    0  501    0 0.00000000E+00 0.00000000E+00 0.13288302E+04 0.13288303E+04 0.32000000E+00 0.0000E+00 0.9000E+01
       -2 -1    0    0    0  501 0.00000000E+00 0.00000000E+00 -.93876928E+01 0.93931452E+01 0.32000000E+00 0.0000E+00 0.9000E+01
       25  1    1    2    0    0 -.10733311E+02 -.25608411E+02 0.76950082E+03 0.78008173E+03 0.12500000E+03 0.0000E+00 0.9000E+01
       23  1    1    2    0    0 0.10733311E+02 0.25608411E+02 0.54994173E+03 0.55814169E+03 0.91188000E+02 0.0000E+00 0.9000E+01
#aMCatNLO 1  0  0  1  2 0.64071464D+02 0.00000000D+00  -5  5  0 0.00000000D+00 0.00000000D+00 0.00000000D+00 0.00000000D+00 0.00000000D+00
  <mgrwgt>
 0.1165046544D+00    4    2    0
 0.111706419105509D+03 0.000000000000000D+00 0.000000000000000D+00 0.111706419105509D+03
 0.111706419105509D+03 0.000000000000000D+00 0.000000000000000D+00 -.111706419105509D+03
 0.128065704262381D+03 -.107333107626823D+02 -.256084113582791D+02 0.219770698602254D+01
 0.953471339486382D+02 0.107333107626823D+02 0.256084113582791D+02 -.219770698602254D+01
 0.000000000000000D+00 -.000000000000000D+00 0.000000000000000D+00 -.000000000000000D+00
 0.135841319628677D+03 0.000000000000000D+00 0.000000000000000D+00 0.135841319628677D+03
 0.168485706801109D+03 0.000000000000000D+00 0.000000000000000D+00 -.168485706801109D+03
 0.139535305803932D+03 -.107312147766825D+01 -.619606331479487D+02 0.219770698602254D+01
 0.928833869076613D+02 0.175282868363453D+02 0.382625757404931D-01 -.219770698602254D+01
 0.719083337181926D+02 -.164551653586771D+02 0.619223705722082D+02 -.326443871724323D+02
0.822585281044D-04 0.000000000000D+00 0.000000000000D+00 0.183498888458D-02 0.000000000000D+00  5 2 -2 25 23 21 0 0.20443584D+00 0.14446828D-02 0.12473388D+05 0.12473388D+05 0.12473388D+05 0.12570595D+01  1  2  2  1  5  1        2 0.164456216254D+00 0.100000000000D+01
-.456991801060D-05 0.000000000000D+00 -.315894407089D-06 0.183498888458D-02 0.000000000000D+00  5 2 -2 25 23 21 2 0.20443584D+00 0.14446828D-02 0.12473388D+05 0.12473388D+05 0.12473388D+05 0.12570595D+01  1  2  3  1  5  1        2 -.144374160098D-01 0.100000000000D+01
0.566897451968D-05 0.000000000000D+00 0.000000000000D+00 0.183498888458D-02 0.000000000000D+00  5 2 -2 25 23 21 2 0.20443584D+00 0.14446828D-02 0.12473388D+05 0.12473388D+05 0.12473388D+05 0.12570595D+01  1  2 15  1  5  1        2 0.179095868460D-01 0.100000000000D+01
-.162773062675D-04 0.000000000000D+00 0.000000000000D+00 0.183498888458D-02 0.000000000000D+00  5 2 -2 25 23 21 2 0.20443584D+00 0.14446828D-02 0.12473388D+05 0.12473388D+05 0.12473388D+05 0.12570595D+01  1  2  4  1  5  1        2 -.514237326707D-01 0.100000000000D+01
  </mgrwgt>
  </event>
  <event>
  4     66 0.45228882E-03 0.11037957E+03 0.75467711E-02 0.11441111E+00
        4 -1    0    0  501    0 0.00000000E+00 0.00000000E+00 0.12419378E+04 0.12419387E+04 0.15500000E+01 0.0000E+00 0.9000E+01
       -4 -1    0    0    0  501 0.00000000E+00 0.00000000E+00 -.10042230E+02 0.10161146E+02 0.15500000E+01 0.0000E+00 0.9000E+01
       25  1    1    2    0    0 -.21944680E+02 -.24604303E+01 0.81100939E+03 0.82088298E+03 0.12500000E+03 0.0000E+00 0.9000E+01
       23  1    1    2    0    0 0.21944680E+02 0.24604303E+01 0.42088615E+03 0.43121691E+03 0.91188000E+02 0.0000E+00 0.9000E+01
#aMCatNLO 1  0  0  2  2 0.14787764D+03 0.00000000D+00  -5  5  0 0.00000000D+00 0.00000000D+00 0.00000000D+00 0.00000000D+00 0.00000000D+00
  <mgrwgt>
 0.4535764159D-02    5    2    0
 0.112012831786913D+03 0.000000000000000D+00 0.000000000000000D+00 0.112012831786913D+03
 0.112012831786913D+03 0.000000000000000D+00 0.000000000000000D+00 -.112012831786913D+03
 0.128327365888474D+03 -.219446801898052D+02 -.246043031774295D+01 0.188491413569179D+02
 0.956982976853526D+02 0.219446801898052D+02 0.246043031774295D+01 -.188491413569179D+02
 0.000000000000000D+00 -.000000000000000D+00 -.000000000000000D+00 -.000000000000000D+00
 0.205951698379876D+03 0.000000000000000D+00 0.000000000000000D+00 0.205951698379876D+03
 0.210424742926118D+03 0.000000000000000D+00 0.000000000000000D+00 -.210424742926118D+03
 0.143488557727339D+03 0.287852673997143D+02 0.614823913775780D+02 0.188491413569179D+02
 0.124942612376433D+03 0.631236576928256D+02 0.543646829571690D+02 -.188491413569179D+02
 0.147945271202223D+03 -.919089250925398D+02 -.115847074334747D+03 -.447304454624140D+01
0.827461174477D-04 0.000000000000D+00 0.000000000000D+00 0.179133078576D-02 0.000000000000D+00  5 4 -4 25 23 21 0 0.19107657D+00 0.15541803D-02 0.12183649D+05 0.12183649D+05 0.12183649D+05 0.12582518D+01  1  2  2  2  5  2       -4 0.331819135498D-02 0.100000000000D+01
-.459580064438D-05 0.000000000000D+00 -.317766878552D-06 0.179133078576D-02 0.000000000000D+00  5 4 -4 25 23 21 2 0.19107657D+00 0.15541803D-02 0.12183649D+05 0.12183649D+05 0.12183649D+05 0.12582518D+01  1  2  3  2  5  2       -4 -.291776352667D-03 0.100000000000D+01
0.572193500590D-05 0.000000000000D+00 0.000000000000D+00 0.179133078576D-02 0.000000000000D+00  5 4 -4 25 23 21 2 0.19107657D+00 0.15541803D-02 0.12183649D+05 0.12183649D+05 0.12183649D+05 0.12582518D+01  1  2 15  2  5  2       -4 0.363271920478D-03 0.100000000000D+01
0.239329123829D-04 0.000000000000D+00 -.259624163900D-04 0.179133078576D-02 0.000000000000D+00  5 4 -4 25 23 21 2 0.19107657D+00 0.58707191D-02 0.12183649D+05 0.12183649D+05 0.12183649D+05 0.12582518D+01  1  2  5  2  5  2       -4 0.190427899264D-03 0.100000000000D+01
0.430632346241D-05 0.000000000000D+00 -.408536311157D-05 0.179133078576D-02 0.000000000000D+00  5 4 21 25 23 4 2 0.19107657D+00 0.58707191D-02 0.12183649D+05 0.12183649D+05 0.12183649D+05 0.12582518D+01  1  2  5  4  5  2       -4 0.955649336920D-03 0.100000000000D+01
  </mgrwgt>
  </event>
  <event>
  4     66 0.45228882E-03 0.13477546E+03 0.75467711E-02 0.12071374E+00
        4 -1    0    0  501    0 0.00000000E+00 0.00000000E+00 0.10171880E+03 0.10173061E+03 0.15500000E+01 0.0000E+00 0.9000E+01
       -4 -1    0    0    0  501 0.00000000E+00 0.00000000E+00 -.19471923E+03 0.19472540E+03 0.15500000E+01 0.0000E+00 0.9000E+01
       25  1    1    2    0    0 0.28706216E+02 -.74525847E+02 -.93304116E+02 0.17523928E+03 0.12500000E+03 0.0000E+00 0.9000E+01
       23  1    1    2    0    0 -.28706216E+02 0.74525847E+02 0.30368558E+00 0.12121672E+03 0.91188000E+02 0.0000E+00 0.9000E+01
#aMCatNLO 1  0  0  1  2 0.19103935D+02 0.00000000D+00  -5  5  0 0.00000000D+00 0.00000000D+00 0.00000000D+00 0.00000000D+00 0.00000000D+00
  <mgrwgt>
 0.2093443489D-01    4    2    0
 0.140745408903103D+03 0.000000000000000D+00 0.000000000000000D+00 0.140745408903103D+03
 0.140745408903103D+03 0.000000000000000D+00 0.000000000000000D+00 -.140745408903103D+03
 0.153729400198038D+03 0.287062164163229D+02 -.745258474644072D+02 -.403680527647755D+02
 0.127761417608167D+03 -.287062164163229D+02 0.745258474644072D+02 0.403680527647755D+02
 0.000000000000000D+00 0.000000000000000D+00 -.000000000000000D+00 -.000000000000000D+00
 0.143459816434599D+03 0.000000000000000D+00 0.000000000000000D+00 0.143459816434599D+03
 0.179234581399231D+03 0.000000000000000D+00 0.000000000000000D+00 -.179234581399231D+03
 0.148663052392611D+03 0.249617433846039D+02 -.649848815484781D+02 -.403680527647755D+02
 0.133475283935179D+03 -.319410649565027D+02 0.827682835571785D+02 0.403680527647755D+02
 0.405560615060399D+02 0.697932157189886D+01 -.177834020087004D+02 -.357747649646321D+02
0.400603177289D-03 0.000000000000D+00 0.000000000000D+00 0.132508683794D-02 0.000000000000D+00  5 4 -4 25 23 21 0 0.15650429D-01 0.29958187D-01 0.18164425D+05 0.18164425D+05 0.18164425D+05 0.12384555D+01  1  2  2  1  5  1        4 0.247088533627D-01 0.100000000000D+01
-.222048983907D-04 0.000000000000D+00 -.153842168203D-05 0.132508683794D-02 0.000000000000D+00  5 4 -4 25 23 21 2 0.15650429D-01 0.29958187D-01 0.18164425D+05 0.18164425D+05 0.18164425D+05 0.12384555D+01  1  2  3  1  5  1        4 -.210062150541D-02 0.100000000000D+01
0.276805480698D-04 0.000000000000D+00 0.000000000000D+00 0.132508683794D-02 0.000000000000D+00  5 4 -4 25 23 21 2 0.15650429D-01 0.29958187D-01 0.18164425D+05 0.18164425D+05 0.18164425D+05 0.12384555D+01  1  2 15  1  5  1        4 0.261862736474D-02 0.100000000000D+01
-.453736410250D-04 0.000000000000D+00 0.000000000000D+00 0.132508683794D-02 0.000000000000D+00  5 4 -4 25 23 21 2 0.15650429D-01 0.29958187D-01 0.18164425D+05 0.18164425D+05 0.18164425D+05 0.12384555D+01  1  2  4  1  5  1        4 -.429242433085D-02 0.100000000000D+01
  </mgrwgt>
  </event>
  <event>
  4     66 0.45228882E-03 0.12338465E+03 0.75467711E-02 0.10392401E+00
        2 -1    0    0  501    0 0.00000000E+00 0.00000000E+00 0.17304090E+02 0.17307048E+02 0.32000000E+00 0.0000E+00 0.9000E+01
       -2 -1    0    0    0  501 0.00000000E+00 0.00000000E+00 -.98434368E+03 0.98434373E+03 0.32000000E+00 0.0000E+00 0.9000E+01
       25  1    1    2    0    0 0.14182380E+02 -.57200256E+02 -.37315242E+03 0.39792052E+03 0.12500000E+03 0.0000E+00 0.9000E+01
       23  1    1    2    0    0 -.14182380E+02 0.57200256E+02 -.59388717E+03 0.60373026E+03 0.91188000E+02 0.0000E+00 0.9000E+01
#aMCatNLO 1  0  0  1  2 0.37731917D+03 0.00000000D+00  -5  5  0 0.00000000D+00 0.00000000D+00 0.00000000D+00 0.00000000D+00 0.00000000D+00
  <mgrwgt>
 0.2942840295D+00    3    2    0
 0.130516969194431D+03 0.000000000000000D+00 0.000000000000000D+00 0.130516969194431D+03
 0.130516969194431D+03 0.000000000000000D+00 0.000000000000000D+00 -.130516969194431D+03
 0.144518498461308D+03 0.141823796926276D+02 -.572002557488753D+02 0.422798680937933D+02
 0.116515439927553D+03 -.141823796926276D+02 0.572002557488753D+02 -.422798680937933D+02
 0.000000000000000D+00 -.000000000000000D+00 0.000000000000000D+00 -.000000000000000D+00
 0.304542439154504D+03 0.000000000000000D+00 0.000000000000000D+00 0.304542439154504D+03
 0.703110204103955D+03 0.000000000000000D+00 0.000000000000000D+00 -.703110204103955D+03
 0.318888793808165D+03 0.211499994532624D+03 -.198859819679837D+03 0.422798680937933D+02
 0.139923233027649D+03 0.950085375509242D+02 -.211908079911062D+02 -.422798680937933D+02
 0.548840616422645D+03 -.306508532083548D+03 0.220050627670943D+03 -.398567764949451D+03
0.262747656073D-02 0.000000000000D+00 0.000000000000D+00 0.139928305303D-02 0.000000000000D+00  5 2 -2 25 23 21 0 0.26623992D-02 0.15143772D+00 0.15223772D+05 0.15223772D+05 0.15223772D+05 0.12470901D+01  1  2  2  1  5  1        2 0.288147231282D+00 0.100000000000D+01
-.145410431409D-03 0.000000000000D+00 -.100902018237D-04 0.139928305303D-02 0.000000000000D+00  5 2 -2 25 23 21 2 0.26623992D-02 0.15143772D+00 0.15223772D+05 0.15223772D+05 0.15223772D+05 0.12470901D+01  1  2  3  1  5  1        2 -.248008631938D-01 0.100000000000D+01
0.181391214124D-03 0.000000000000D+00 0.000000000000D+00 0.139928305303D-02 0.000000000000D+00  5 2 -2 25 23 21 2 0.26623992D-02 0.15143772D+00 0.15223772D+05 0.15223772D+05 0.15223772D+05 0.12470901D+01  1  2 15  1  5  1        2 0.309376613661D-01 0.100000000000D+01
  </mgrwgt>
  </event>
  <event>
  4     66 0.45228882E-03 0.98220970E+02 0.75467711E-02 0.11786707E+00
        2 -1    0    0  501    0 0.00000000E+00 0.00000000E+00 0.86603150E+03 0.86603156E+03 0.32000000E+00 0.0000E+00 0.9000E+01
       -2 -1    0    0    0  501 0.00000000E+00 0.00000000E+00 -.43784305E+02 0.43785474E+02 0.32000000E+00 0.0000E+00 0.9000E+01
       25  1    1    2    0    0 -.77496376E+02 0.71505181E+02 0.14560120E+03 0.21895979E+03 0.12500000E+03 0.0000E+00 0.9000E+01
       23  1    1    2    0    0 0.77496376E+02 -.71505181E+02 0.67664599E+03 0.69085724E+03 0.91188000E+02 0.0000E+00 0.9000E+01
#aMCatNLO 1  0  0  1  2 0.33746080D+02 0.00000000D+00  -5  5  0 0.00000000D+00 0.00000000D+00 0.00000000D+00 0.00000000D+00 0.00000000D+00
  <mgrwgt>
 0.1664386462D+00    6    2    0
 0.194728389932142D+03 0.000000000000000D+00 0.000000000000000D+00 0.194728389932142D+03
 0.194728389932142D+03 0.000000000000000D+00 0.000000000000000D+00 -.194728389932142D+03
 0.204112934038098D+03 -.774963764919296D+02 0.715051805060884D+02 -.122140945767805D+03
 0.185343845826186D+03 0.774963764919296D+02 -.715051805060884D+02 0.122140945767805D+03
 0.000000000000000D+00 -.000000000000000D+00 -.000000000000000D+00 -.000000000000000D+00
 0.209706749183190D+03 0.000000000000000D+00 0.000000000000000D+00 0.209706749183190D+03
 0.215438760521881D+03 0.000000000000000D+00 0.000000000000000D+00 -.215438760521881D+03
 0.206435431813843D+03 -.678579447122769D+02 0.864145601998860D+02 -.122140945767805D+03
 0.184480647814094D+03 0.861787351343750D+02 -.580747195558726D+02 0.122140945767805D+03
 0.342294300771338D+02 -.183207904220981D+02 -.283398406440134D+02 -.573201133869047D+01
0.334795297091D-03 0.000000000000D+00 0.000000000000D+00 0.748673502873D-03 0.000000000000D+00  5 2 -2 25 23 21 0 0.13323571D+00 0.67361414D-02 0.22943249D+05 0.22943249D+05 0.22943249D+05 0.12273154D+01  1  2  2  1  5  1        2 0.130007561151D+00 0.100000000000D+01
-.171725425667D-04 0.000000000000D+00 -.128570209446D-05 0.748673502873D-03 0.000000000000D+00  5 2 -2 25 23 21 2 0.13323571D+00 0.67361414D-02 0.22943249D+05 0.22943249D+05 0.22943249D+05 0.12273154D+01  1  2  3  1  5  1        2 -.100446824468D-01 0.100000000000D+01
0.228248652459D-04 0.000000000000D+00 0.000000000000D+00 0.748673502873D-03 0.000000000000D+00  5 2 -2 25 23 21 2 0.13323571D+00 0.67361414D-02 0.22943249D+05 0.22943249D+05 0.22943249D+05 0.12273154D+01  1  2 15  1  5  1        2 0.133508781472D-01 0.100000000000D+01
0.378958727769D-03 0.000000000000D+00 0.000000000000D+00 0.748673502873D-03 0.000000000000D+00  5 2 -2 25 23 21 2 0.14996535D+00 0.67361414D-02 0.28633155D+05 0.28633155D+05 0.28633155D+05 0.12170297D+01  1  2 12  1  5  1        2 0.186838250137D+00 0.100000000000D+01
-.268027799348D-03 0.000000000000D+00 0.000000000000D+00 0.748673502873D-03 0.000000000000D+00  5 2 -2 25 23 21 2 0.13323571D+00 0.67361414D-02 0.22943249D+05 0.22943249D+05 0.22943249D+05 0.12273154D+01  1  2  4  1  5  1        2 -.156776675376D+00 0.100000000000D+01
0.710364677096D-05 0.000000000000D+00 0.000000000000D+00 0.748673502873D-03 0.000000000000D+00  5 21 -2 25 23 -2 2 0.14996535D+00 0.67361414D-02 0.28633155D+05 0.28633155D+05 0.28633155D+05 0.12170297D+01  1  2 12  3  5  1        2 0.306331458468D-02 0.100000000000D+01
  </mgrwgt>
  </event>
  <event>
  4     66 0.45228882E-03 0.20385138E+03 0.75467711E-02 0.10677504E+00
        2 -1    0    0  501    0 0.00000000E+00 0.00000000E+00 0.50955914E+03 0.50955925E+03 0.32000000E+00 0.0000E+00 0.9000E+01
       -2 -1    0    0    0  501 0.00000000E+00 0.00000000E+00 -.88075338E+02 0.88075920E+02 0.32000000E+00 0.0000E+00 0.9000E+01
       25  1    1    2    0    0 0.14567645E+03 0.91891221E+02 0.13806821E+03 0.25367982E+03 0.12500000E+03 0.0000E+00 0.9000E+01
       23  1    1    2    0    0 -.14567645E+03 -.91891221E+02 0.28341560E+03 0.34395534E+03 0.91188000E+02 0.0000E+00 0.9000E+01
#aMCatNLO 1  0  0  2  2 0.21612635D+03 0.00000000D+00  -5  5  0 0.00000000D+00 0.00000000D+00 0.00000000D+00 0.00000000D+00 0.00000000D+00
  <mgrwgt>
 0.1739082831D+00    5    2    0
 0.211848525590470D+03 0.000000000000000D+00 0.000000000000000D+00 0.211848525590470D+03
 0.211848525590470D+03 0.000000000000000D+00 0.000000000000000D+00 -.211848525590470D+03
 0.220474675613967D+03 0.145676445099108D+03 0.918912208443897D+02 -.576060713996189D+02
 0.203222375566973D+03 -.145676445099108D+03 -.918912208443897D+02 0.576060713996189D+02
 0.000000000000000D+00 -.000000000000000D+00 0.000000000000000D+00 -.000000000000000D+00
 0.329758293202926D+03 0.000000000000000D+00 0.000000000000000D+00 0.329758293202926D+03
 0.364831643348256D+03 0.000000000000000D+00 0.000000000000000D+00 -.364831643348256D+03
 0.319067859481053D+03 0.275134797510356D+03 0.846267256288367D+02 -.576060713996189D+02
 0.156568337127228D+03 -.593479170432860D+02 -.967355060322241D+02 0.576060713996189D+02
 0.218953739942902D+03 -.215786880467070D+03 0.121087804033874D+02 -.350733501453308D+02
0.661802293438D-03 0.000000000000D+00 0.000000000000D+00 0.103661176356D-02 0.000000000000D+00  5 2 -2 25 23 21 0 0.78393767D-01 0.13550104D-01 0.41555386D+05 0.41555386D+05 0.41555386D+05 0.12003215D+01  1  2  2  2  5  2       -2 0.161785599049D+00 0.100000000000D+01
-.367006007134D-04 0.000000000000D+00 -.254149506335D-05 0.103661176356D-02 0.000000000000D+00  5 2 -2 25 23 21 2 0.78393767D-01 0.13550104D-01 0.41555386D+05 0.41555386D+05 0.41555386D+05 0.12003215D+01  1  2  3  2  5  2       -2 -.129264694753D-01 0.100000000000D+01
0.455636523995D-04 0.000000000000D+00 0.000000000000D+00 0.103661176356D-02 0.000000000000D+00  5 2 -2 25 23 21 2 0.78393767D-01 0.13550104D-01 0.41555386D+05 0.41555386D+05 0.41555386D+05 0.12003215D+01  1  2 15  2  5  2       -2 0.160481613509D-01 0.100000000000D+01
0.744686005259D-06 0.000000000000D+00 -.181365848537D-03 0.103661176356D-02 0.000000000000D+00  5 2 -2 25 23 21 2 0.78393767D-01 0.35801769D-01 0.41555386D+05 0.41555386D+05 0.41555386D+05 0.12003215D+01  1  2  5  2  5  2       -2 0.485303436330D-04 0.100000000000D+01
0.108599544953D-04 0.000000000000D+00 -.195794986380D-04 0.103661176356D-02 0.000000000000D+00  5 2 21 25 23 2 2 0.78393767D-01 0.35801769D-01 0.41555386D+05 0.41555386D+05 0.41555386D+05 0.12003215D+01  1  2  5  4  5  2       -2 0.895246179666D-02 0.100000000000D+01
  </mgrwgt>
  </event>
  <event>
  4     66 0.45228882E-03 0.69297822E+02 0.75467711E-02 0.12189418E+00
        2 -1    0    0  501    0 0.00000000E+00 0.00000000E+00 0.11481201E+04 0.11481202E+04 0.32000000E+00 0.0000E+00 0.9000E+01
       -2 -1    0    0    0  501 0.00000000E+00 0.00000000E+00 -.15056235E+02 0.15059635E+02 0.32000000E+00 0.0000E+00 0.9000E+01
       25  1    1    2    0    0 -.28113148E+02 -.54692840E+02 0.44245254E+03 0.46386518E+03 0.12500000E+03 0.0000E+00 0.9000E+01
       23  1    1    2    0    0 0.28113148E+02 0.54692840E+02 0.69061136E+03 0.69931463E+03 0.91188000E+02 0.0000E+00 0.9000E+01
#aMCatNLO 1  0  0  1  2 0.21732715D+02 0.00000000D+00  -5  5  0 0.00000000D+00 0.00000000D+00 0.00000000D+00 0.00000000D+00 0.00000000D+00
  <mgrwgt>
 0.1997419552D+00    9    2    0
 0.131485247170978D+03 0.000000000000000D+00 0.000000000000000D+00 0.131485247170978D+03
 0.131485247170978D+03 0.000000000000000D+00 0.000000000000000D+00 -.131485247170978D+03
 0.145383666980949D+03 -.281131484689572D+02 -.546928402481198D+02 -.415903201909221D+02
 0.117586827361008D+03 0.281131484689572D+02 0.546928402481198D+02 0.415903201909221D+02
 0.000000000000000D+00 0.000000000000000D+00 0.000000000000000D+00 0.000000000000000D+00
 0.184319764777484D+03 0.000000000000000D+00 0.000000000000000D+00 0.184319764777484D+03
 0.134187480756729D+03 0.000000000000000D+00 0.000000000000000D+00 -.134187480756729D+03
 0.150954687106905D+03 -.331332647149761D+02 -.658388152633951D+02 -.415903201909221D+02
 0.112912309339572D+03 0.242083806760549D+02 0.460232313930151D+02 0.415903201909221D+02
 0.546402490877359D+02 0.892488403892117D+01 0.198155838703800D+02 0.501322840207543D+02
0.111354037509D-03 0.000000000000D+00 0.000000000000D+00 0.139422502475D-02 0.000000000000D+00  5 2 -2 25 23 21 0 0.17663413D+00 0.23166089D-02 0.15536839D+05 0.15536839D+05 0.15536839D+05 0.12460853D+01  1  2  2  1  5  1        2 0.142236676846D+00 0.100000000000D+01
-.616487880998D-05 0.000000000000D+00 -.427628824225D-06 0.139422502475D-02 0.000000000000D+00  5 2 -2 25 23 21 2 0.17663413D+00 0.23166089D-02 0.15536839D+05 0.15536839D+05 0.15536839D+05 0.12460853D+01  1  2  3  1  5  1        2 -.122271639854D-01 0.100000000000D+01
0.767826319911D-05 0.000000000000D+00 0.000000000000D+00 0.139422502475D-02 0.000000000000D+00  5 2 -2 25 23 21 2 0.17663413D+00 0.23166089D-02 0.15536839D+05 0.15536839D+05 0.15536839D+05 0.12460853D+01  1  2 15  1  5  1        2 0.152287475800D-01 0.100000000000D+01
0.498182398808D-03 0.000000000000D+00 0.000000000000D+00 0.139422502475D-02 0.000000000000D+00  5 2 -2 25 23 21 2 0.24887387D+00 0.23166089D-02 0.18471318D+05 0.18471318D+05 0.18471318D+05 0.12376459D+01  1  2 12  1  5  1        2 0.550604832254D+00 0.100000000000D+01
-.485461412208D-03 0.000000000000D+00 0.000000000000D+00 0.139422502475D-02 0.000000000000D+00  5 2 -2 25 23 21 2 0.17663413D+00 0.23166089D-02 0.15536839D+05 0.15536839D+05 0.15536839D+05 0.12460853D+01  1  2  4  1  5  1        2 -.962843955023D+00 0.100000000000D+01
-.562338819513D-03 0.000000000000D+00 -.550083325749D-04 0.139422502475D-02 0.000000000000D+00  5 2 -2 25 23 21 2 0.24937262D+00 0.23166089D-02 0.15536839D+05 0.15536839D+05 0.15536839D+05 0.12460853D+01  1  2  5  1  5  1        2 -.625864638406D+00 0.100000000000D+01
0.551314772921D-03 0.000000000000D+00 0.518917846982D-04 0.139422502475D-02 0.000000000000D+00  5 2 -2 25 23 21 2 0.17663413D+00 0.23166089D-02 0.15536839D+05 0.15536839D+05 0.15536839D+05 0.12460853D+01  1  2  6  1  5  1        2 0.109345476916D+01 0.100000000000D+01
0.212035647382D-04 0.000000000000D+00 0.000000000000D+00 0.139422502475D-02 0.000000000000D+00  5 21 -2 25 23 -2 2 0.24887387D+00 0.23166089D-02 0.18471318D+05 0.18471318D+05 0.18471318D+05 0.12376459D+01  1  2 12  3  5  1        2 0.108620197061D-01 0.100000000000D+01
-.225124350508D-04 0.000000000000D+00 -.235110415410D-05 0.139422502475D-02 0.000000000000D+00  5 21 -2 25 23 -2 2 0.24937262D+00 0.23166089D-02 0.15536839D+05 0.15536839D+05 0.15536839D+05 0.12460853D+01  1  2  5  3  5  1        2 -.117093329244D-01 0.100000000000D+01
  </mgrwgt>
  </event>
  <event>
  4     66 0.45228882E-03 0.16345297E+03 0.75467711E-02 0.11716436E+00
        2 -1    0    0  501    0 0.00000000E+00 0.00000000E+00 0.18691050E+04 0.18691051E+04 0.32000000E+00 0.0000E+00 0.9000E+01
       -2 -1    0    0    0  501 0.00000000E+00 0.00000000E+00 -.17783444E+02 0.17786323E+02 0.32000000E+00 0.0000E+00 0.9000E+01
       25  1    1    2    0    0 -.10312435E+03 -.65093091E+02 0.55934616E+03 0.58597344E+03 0.12500000E+03 0.0000E+00 0.9000E+01
       23  1    1    2    0    0 0.10312435E+03 0.65093091E+02 0.12919754E+04 0.13009179E+04 0.91188000E+02 0.0000E+00 0.9000E+01
#aMCatNLO 1  0  0  2  1 0.24691164D+02 0.00000000D+00  -5  5  0 0.00000000D+00 0.00000000D+00 0.00000000D+00 0.00000000D+00 0.00000000D+00
  <mgrwgt>
 0.1880219184D+00    4    2    0
 0.182323524019938D+03 0.000000000000000D+00 0.000000000000000D+00 0.182323524019938D+03
 0.182323524019938D+03 0.000000000000000D+00 0.000000000000000D+00 -.182323524019938D+03
 0.192346570545740D+03 -.103124354626774D+03 -.650930912464587D+02 -.806254311957401D+02
 0.172300477494136D+03 0.103124354626774D+03 0.650930912464587D+02 0.806254311957401D+02
 0.000000000000000D+00 0.000000000000000D+00 0.000000000000000D+00 0.000000000000000D+00
 0.289945046022747D+03 0.000000000000000D+00 0.000000000000000D+00 0.289945046022747D+03
 0.184162734529505D+03 0.000000000000000D+00 0.000000000000000D+00 -.184162734529505D+03
 0.201041046364421D+03 -.114575949317232D+03 -.718637182857775D+02 -.806254311957401D+02
 0.164440995921247D+03 0.933217408604605D+02 0.592974057008028D+02 0.806254311957401D+02
 0.108625738266584D+03 0.212542084567712D+02 0.125663125849747D+02 0.105782311493242D+03
0.447736582344D-03 0.000000000000D+00 0.000000000000D+00 0.985540225281D-03 0.000000000000D+00  5 2 -2 25 23 21 0 0.28755484D+00 0.27361381D-02 0.26716872D+05 0.26716872D+05 0.26716872D+05 0.12202171D+01  1  2  2  2  5  2       -2 0.188707718668D+00 0.100000000000D+01
-.245132326191D-04 0.000000000000D+00 -.171942636795D-05 0.985540225281D-03 0.000000000000D+00  5 2 -2 25 23 21 2 0.28755484D+00 0.27361381D-02 0.26716872D+05 0.26716872D+05 0.26716872D+05 0.12202171D+01  1  2  3  2  5  2       -2 -.153830291325D-01 0.100000000000D+01
0.307691598152D-04 0.000000000000D+00 0.000000000000D+00 0.985540225281D-03 0.000000000000D+00  5 2 -2 25 23 21 2 0.28755484D+00 0.27361381D-02 0.26716872D+05 0.26716872D+05 0.26716872D+05 0.12202171D+01  1  2 15  2  5  2       -2 0.193088724435D-01 0.100000000000D+01
-.734876667999D-05 0.000000000000D+00 0.000000000000D+00 0.985540225281D-03 0.000000000000D+00  5 2 -2 25 23 21 2 0.28755484D+00 0.27361381D-02 0.26716872D+05 0.26716872D+05 0.26716872D+05 0.12202171D+01  1  2  4  2  5  2       -2 -.461164358382D-02 0.100000000000D+01
  </mgrwgt>
  </event>
  <event>
  4     66 -.45228882E-03 0.42140700E+02 0.75467711E-02 0.11668980E+00
        2 -1    0    0  501    0 0.00000000E+00 0.00000000E+00 0.26570626E+04 0.26570626E+04 0.32000000E+00 0.0000E+00 0.9000E+01
       -2 -1    0    0    0  501 0.00000000E+00 0.00000000E+00 -.60888615E+01 0.60972645E+01 0.32000000E+00 0.0000E+00 0.9000E+01
       25  1    1    2    0    0 -.63675031E+02 -.16821171E+02 0.15734924E+04 0.15798230E+04 0.12500000E+03 0.0000E+00 0.9000E+01
       23  1    1    2    0    0 0.63675031E+02 0.16821171E+02 0.10774814E+04 0.10833369E+04 0.91188000E+02 0.0000E+00 0.9000E+01
#aMCatNLO 1  0  0  2  1 0.91964395D+02 0.00000000D+00  -5  5  0 0.00000000D+00 0.00000000D+00 0.00000000D+00 0.00000000D+00 0.00000000D+00
  <mgrwgt>
 -.1254840147D+00    7    2    0
 0.127238757160994D+03 0.000000000000000D+00 0.000000000000000D+00 0.127238757160994D+03
 0.127238757160994D+03 0.000000000000000D+00 0.000000000000000D+00 -.127238757160994D+03
 0.141601025425590D+03 -.636750308842186D+02 -.168211705927701D+02 0.940154579637371D+01
 0.112876488896398D+03 0.636750308842186D+02 0.168211705927701D+02 -.940154579637371D+01
 0.000000000000000D+00 0.000000000000000D+00 0.000000000000000D+00 -.000000000000000D+00
 0.140667399871950D+03 0.000000000000000D+00 0.000000000000000D+00 0.140667399871950D+03
 0.528670485767835D+03 0.000000000000000D+00 0.000000000000000D+00 -.528670485767835D+03
 0.157709709678702D+03 -.661207845158277D+02 -.691881877099736D+02 0.940154579637371D+01
 0.112875314383751D+03 0.618303483253978D+02 -.226760714372957D+02 -.940154579637371D+01
 0.398752861577332D+03 0.429043619042980D+01 0.918642591472692D+02 -.388003085895885D+03
0.265336261948D-03 0.000000000000D+00 0.000000000000D+00 0.155814717455D-02 0.000000000000D+00  5 2 -2 25 23 21 0 0.40877951D+00 0.93739580D-03 0.16100165D+05 0.16100165D+05 0.16100165D+05 0.12443334D+01  1  2  2  2  5  2       -2 0.203011105244D+00 0.100000000000D+01
-.147407656341D-04 0.000000000000D+00 -.101896111052D-05 0.155814717455D-02 0.000000000000D+00  5 2 -2 25 23 21 2 0.40877951D+00 0.93739580D-03 0.16100165D+05 0.16100165D+05 0.16100165D+05 0.12443334D+01  1  2  3  2  5  2       -2 -.174629153844D-01 0.100000000000D+01
0.183553129874D-04 0.000000000000D+00 0.000000000000D+00 0.155814717455D-02 0.000000000000D+00  5 2 -2 25 23 21 2 0.40877951D+00 0.93739580D-03 0.16100165D+05 0.16100165D+05 0.16100165D+05 0.12443334D+01  1  2 15  2  5  2       -2 0.217449544691D-01 0.100000000000D+01
0.135435525581D-03 0.000000000000D+00 0.000000000000D+00 0.155814717455D-02 0.000000000000D+00  5 2 -2 25 23 21 2 0.40877951D+00 0.37434728D-02 0.32738691D+05 0.32738691D+05 0.32738691D+05 0.12109365D+01  1  2 12  2  5  2       -2 0.201461099127D-01 0.100000000000D+01
-.748301094563D-03 0.000000000000D+00 -.952767564117D-04 0.155814717455D-02 0.000000000000D+00  5 2 -2 25 23 21 2 0.40877951D+00 0.44573435D-02 0.16100165D+05 0.16100165D+05 0.16100165D+05 0.12443334D+01  1  2  5  2  5  2       -2 -.920085510434D-01 0.100000000000D+01
0.223755117119D-04 0.000000000000D+00 0.000000000000D+00 0.155814717455D-02 0.000000000000D+00  5 2 21 25 23 2 2 0.40877951D+00 0.37434728D-02 0.32738691D+05 0.32738691D+05 0.32738691D+05 0.12109365D+01  1  2 12  4  5  2       -2 0.621276727320D-01 0.100000000000D+01
-.143528191724D-03 0.000000000000D+00 -.180451591971D-04 0.155814717455D-02 0.000000000000D+00  5 2 21 25 23 2 2 0.40877951D+00 0.44573435D-02 0.16100165D+05 0.16100165D+05 0.16100165D+05 0.12443334D+01  1  2  5  4  5  2       -2 -.323042390607D+00 0.100000000000D+01
  </mgrwgt>
  </event>
  <event>
  4     66 0.45228882E-03 0.12153077E+03 0.75467711E-02 0.11161844E+00
        4 -1    0    0  501    0 0.00000000E+00 0.00000000E+00 0.12777228E+03 0.12778168E+03 0.15500000E+01 0.0000E+00 0.9000E+01
       -4 -1    0    0    0  501 0.00000000E+00 0.00000000E+00 -.60554674E+03 0.60554872E+03 0.15500000E+01 0.0000E+00 0.9000E+01
       25  1    1    2    0    0 0.14615414E+03 0.10751820E+03 -.48226527E+03 0.53021316E+03 0.12500000E+03 0.0000E+00 0.9000E+01
       23  1    1    2    0    0 -.14615414E+03 -.10751820E+03 0.44908083E+01 0.20311725E+03 0.91188000E+02 0.0000E+00 0.9000E+01
#aMCatNLO 1  0  0  2  1 0.63387386D+02 0.00000000D+00  -5  5  0 0.00000000D+00 0.00000000D+00 0.00000000D+00 0.00000000D+00 0.00000000D+00
  <mgrwgt>
 0.1678438088D-01    9    2    0
 0.278165885526018D+03 0.000000000000000D+00 0.000000000000000D+00 0.278165885526018D+03
 0.278165885526018D+03 0.000000000000000D+00 0.000000000000000D+00 -.278165885526018D+03
 0.284735480358053D+03 0.146154142594402D+03 0.107518201541732D+03 -.180355473203498D+03
 0.271596290693984D+03 -.146154142594402D+03 -.107518201541732D+03 0.180355473203498D+03
 0.000000000000000D+00 0.000000000000000D+00 0.000000000000000D+00 -.000000000000000D+00
 0.298673203304080D+03 0.000000000000000D+00 0.000000000000000D+00 0.298673203304080D+03
 0.333659908974704D+03 0.000000000000000D+00 0.000000000000000D+00 -.333659908974704D+03
 0.265920700125007D+03 0.121717899325512D+03 0.880083804208489D+02 -.180355473203498D+03
 0.294010545797305D+03 -.171253844987506D+03 -.127557726377381D+03 0.180355473203498D+03
 0.724018663564715D+02 0.495359456619938D+02 0.395493459565324D+02 -.349867056706239D+02
0.325546154224D-02 0.000000000000D+00 0.000000000000D+00 0.618065357575D-03 0.000000000000D+00  5 4 -4 25 23 21 0 0.19658149D-01 0.93161913D-01 0.44816808D+05 0.44816808D+05 0.44816808D+05 0.11970177D+01  1  2  2  2  5  2       -4 0.136410267292D-01 0.100000000000D+01
-.164464375749D-03 0.000000000000D+00 -.125018295049D-04 0.618065357575D-03 0.000000000000D+00  5 4 -4 25 23 21 2 0.19658149D-01 0.93161913D-01 0.44816808D+05 0.44816808D+05 0.44816808D+05 0.11970177D+01  1  2  3  2  5  2       -4 -.987432668315D-03 0.100000000000D+01
0.222847940436D-03 0.000000000000D+00 0.000000000000D+00 0.618065357575D-03 0.000000000000D+00  5 4 -4 25 23 21 2 0.19658149D-01 0.93161913D-01 0.44816808D+05 0.44816808D+05 0.44816808D+05 0.11970177D+01  1  2 15  2  5  2       -4 0.133796352828D-02 0.100000000000D+01
0.307409622528D-02 0.000000000000D+00 0.000000000000D+00 0.618065357575D-03 0.000000000000D+00  5 4 -4 25 23 21 2 0.19658149D-01 0.11466780D+00 0.60268573D+05 0.60268573D+05 0.60268573D+05 0.11843305D+01  1  2 12  2  5  2       -4 0.112472600551D-01 0.100000000000D+01
-.325015591430D-02 0.000000000000D+00 0.000000000000D+00 0.618065357575D-03 0.000000000000D+00  5 4 -4 25 23 21 2 0.19658149D-01 0.93161913D-01 0.44816808D+05 0.44816808D+05 0.44816808D+05 0.11970177D+01  1  2  4  2  5  2       -4 -.195137099586D-01 0.100000000000D+01
-.574896065402D-02 0.000000000000D+00 -.167338156428D-02 0.618065357575D-03 0.000000000000D+00  5 4 -4 25 23 21 2 0.19658149D-01 0.11750244D+00 0.44816808D+05 0.44816808D+05 0.44816808D+05 0.11970177D+01  1  2  5  2  5  2       -4 -.199684403163D-01 0.100000000000D+01
0.601860668155D-02 0.000000000000D+00 0.162929123450D-02 0.618065357575D-03 0.000000000000D+00  5 4 -4 25 23 21 2 0.19658149D-01 0.93161913D-01 0.44816808D+05 0.44816808D+05 0.44816808D+05 0.11970177D+01  1  2  6  2  5  2       -4 0.361352957321D-01 0.100000000000D+01
0.905478293977D-04 0.000000000000D+00 0.000000000000D+00 0.618065357575D-03 0.000000000000D+00  5 4 21 25 23 4 2 0.19658149D-01 0.11466780D+00 0.60268573D+05 0.60268573D+05 0.60268573D+05 0.11843305D+01  1  2 12  4  5  2       -4 0.728903392562D-02 0.100000000000D+01
-.159333931155D-03 0.000000000000D+00 -.535984984710D-04 0.618065357575D-03 0.000000000000D+00  5 4 21 25 23 4 2 0.19658149D-01 0.11750244D+00 0.44816808D+05 0.44816808D+05 0.44816808D+05 0.11970177D+01  1  2  5  4  5  2       -4 -.123966161516D-01 0.100000000000D+01
  </mgrwgt>
  </event>
  <event>
  4     66 0.45228882E-03 0.13987057E+03 0.75467711E-02 0.10528552E+00
        2 -1    0    0  501    0 0.00000000E+00 0.00000000E+00 0.58084620E+03 0.58084629E+03 0.32000000E+00 0.0000E+00 0.9000E+01
       -2 -1    0    0    0  501 0.00000000E+00 0.00000000E+00 -.41100684E+02 0.41101929E+02 0.32000000E+00 0.0000E+00 0.9000E+01
       25  1    1    2    0    0 0.88114580E+02 -.41470092E+00 0.42218524E+03 0.44903199E+03 0.12500000E+03 0.0000E+00 0.9000E+01
       23  1    1    2    0    0 -.88114580E+02 0.41470092E+00 0.11756027E+03 0.17291622E+03 0.91188000E+02 0.0000E+00 0.9000E+01
#aMCatNLO 1  0  0  2  1 0.32261351D+03 0.00000000D+00  -5  5  0 0.00000000D+00 0.00000000D+00 0.00000000D+00 0.00000000D+00 0.00000000D+00
  <mgrwgt>
 0.1966825189D+00    5    2    0
 0.154510810924208D+03 0.000000000000000D+00 0.000000000000000D+00 0.154510810924208D+03
 0.154510810924208D+03 0.000000000000000D+00 0.000000000000000D+00 -.154510810924208D+03
 0.166338055587990D+03 0.881145803037383D+02 -.414700923853422D+00 0.654140466400986D+02
 0.142683566260425D+03 -.881145803037383D+02 0.414700923853422D+00 -.654140466400986D+02
 0.000000000000000D+00 0.000000000000000D+00 -.000000000000000D+00 -.000000000000000D+00
 0.376309195219763D+03 0.000000000000000D+00 0.000000000000000D+00 0.376309195219763D+03
 0.393498820447415D+03 0.000000000000000D+00 0.000000000000000D+00 -.393498820447415D+03
 0.210620794787618D+03 0.366244939610860D+02 0.152038706062731D+03 0.654140466400986D+02
 0.236116084110486D+03 -.139856107753565D+03 0.153612582355288D+03 -.654140466400986D+02
 0.323071136769074D+03 0.103231613792479D+03 -.305651288418019D+03 -.171896252276520D+02
0.230759516706D-03 0.000000000000D+00 0.000000000000D+00 0.112056510133D-02 0.000000000000D+00  5 2 -2 25 23 21 0 0.89361056D-01 0.63232847D-02 0.19563777D+05 0.19563777D+05 0.19563777D+05 0.12348818D+01  1  2  2  2  5  2       -2 0.158854353314D+00 0.100000000000D+01
-.126655113836D-04 0.000000000000D+00 -.886177304529D-06 0.112056510133D-02 0.000000000000D+00  5 2 -2 25 23 21 2 0.89361056D-01 0.63232847D-02 0.19563777D+05 0.19563777D+05 0.19563777D+05 0.12348818D+01  1  2  3  2  5  2       -2 -.132957555129D-01 0.100000000000D+01
0.159036271232D-04 0.000000000000D+00 0.000000000000D+00 0.112056510133D-02 0.000000000000D+00  5 2 -2 25 23 21 2 0.89361056D-01 0.63232847D-02 0.19563777D+05 0.19563777D+05 0.19563777D+05 0.12348818D+01  1  2 15  2  5  2       -2 0.166950020093D-01 0.100000000000D+01
0.202825196313D-03 0.000000000000D+00 -.999179889536D-04 0.112056510133D-02 0.000000000000D+00  5 2 -2 25 23 21 2 0.89361056D-01 0.39466729D-01 0.19563777D+05 0.19563777D+05 0.19563777D+05 0.12348818D+01  1  2  5  2  5  2       -2 0.100968737615D-01 0.100000000000D+01
0.383546239559D-04 0.000000000000D+00 -.224230089932D-04 0.112056510133D-02 0.000000000000D+00  5 2 21 25 23 2 2 0.89361056D-01 0.39466729D-01 0.19563777D+05 0.19563777D+05 0.19563777D+05 0.12348818D+01  1  2  5  4  5  2       -2 0.243320453317D-01 0.100000000000D+01
  </mgrwgt>
  </event>
  <event>
  4     66 0.45228882E-03 0.62692223E+02 0.75467711E-02 0.11972073E+00
        2 -1    0    0  501    0 0.00000000E+00 0.00000000E+00 0.56779536E+03 0.56779545E+03 0.32000000E+00 0.0000E+00 0.9000E+01
       -2 -1    0    0    0  501 0.00000000E+00 0.00000000E+00 -.26410488E+02 0.26412427E+02 0.32000000E+00 0.0000E+00 0.9000E+01
       25  1    1    2    0    0 0.74779426E+00 -.49775218E+02 0.23632166E+03 0.27193944E+03 0.12500000E+03 0.0000E+00 0.9000E+01
       23  1    1    2    0    0 -.74779426E+00 0.49775218E+02 0.30506321E+03 0.32226844E+03 0.91188000E+02 0.0000E+00 0.9000E+01
#aMCatNLO 1  0  0  1  2 0.59526598D+02 0.00000000D+00  -5  5  0 0.00000000D+00 0.00000000D+00 0.00000000D+00 0.00000000D+00 0.00000000D+00
  <mgrwgt>
 0.1616887021D+00    9    2    0
 0.122459607440236D+03 0.000000000000000D+00 0.000000000000000D+00 0.122459607440236D+03
 0.122459607440236D+03 0.000000000000000D+00 0.000000000000000D+00 -.122459607440236D+03
 0.137382382404151D+03 0.747794264402764D+00 -.497752178426440D+02 -.277630597646546D+02
 0.107536832476321D+03 -.747794264402764D+00 0.497752178426440D+02 0.277630597646546D+02
 0.000000000000000D+00 0.000000000000000D+00 -.000000000000000D+00 0.000000000000000D+00
 0.171280028610562D+03 0.000000000000000D+00 0.000000000000000D+00 0.171280028610562D+03
 0.145599189692712D+03 0.000000000000000D+00 0.000000000000000D+00 -.145599189692712D+03
 0.129803114454043D+03 -.899534098299177D+01 -.192910568677132D+02 -.277630597646546D+02
 0.122246161888459D+03 -.912701700655473D+01 0.759919918512844D+02 0.277630597646546D+02
 0.648299419607713D+02 0.181223579895465D+02 -.567009349835711D+02 0.256808389178496D+02
0.957753302815D-04 0.000000000000D+00 0.000000000000D+00 0.156955434294D-02 0.000000000000D+00  5 2 -2 25 23 21 0 0.87353288D-01 0.40633081D-02 0.14213299D+05 0.14213299D+05 0.14213299D+05 0.12504986D+01  1  2  2  1  5  1        2 0.129961947832D+00 0.100000000000D+01
-.531620006736D-05 0.000000000000D+00 -.367802486504D-06 0.156955434294D-02 0.000000000000D+00  5 2 -2 25 23 21 2 0.87353288D-01 0.40633081D-02 0.14213299D+05 0.14213299D+05 0.14213299D+05 0.12504986D+01  1  2  3  1  5  1        2 -.112805503085D-01 0.100000000000D+01
0.662526941972D-05 0.000000000000D+00 0.000000000000D+00 0.156955434294D-02 0.000000000000D+00  5 2 -2 25 23 21 2 0.87353288D-01 0.40633081D-02 0.14213299D+05 0.14213299D+05 0.14213299D+05 0.12504986D+01  1  2 15  1  5  1        2 0.140582905175D-01 0.100000000000D+01
0.415372136183D-04 0.000000000000D+00 0.000000000000D+00 0.156955434294D-02 0.000000000000D+00  5 2 -2 25 23 21 2 0.12779342D+00 0.40633081D-02 0.23313887D+05 0.23313887D+05 0.23313887D+05 0.12265623D+01  1  2 12  1  5  1        2 0.549288205754D-01 0.100000000000D+01
-.641414316784D-04 0.000000000000D+00 0.000000000000D+00 0.156955434294D-02 0.000000000000D+00  5 2 -2 25 23 21 2 0.87353288D-01 0.40633081D-02 0.14213299D+05 0.14213299D+05 0.14213299D+05 0.12504986D+01  1  2  4  1  5  1        2 -.136102975384D+00 0.100000000000D+01
-.939667057677D-04 0.000000000000D+00 -.433027840671D-04 0.156955434294D-02 0.000000000000D+00  5 2 -2 25 23 21 2 0.13849296D+00 0.40633081D-02 0.14213299D+05 0.14213299D+05 0.14213299D+05 0.12504986D+01  1  2  5  1  5  1        2 -.114943248574D+00 0.100000000000D+01
0.106622490615D-03 0.000000000000D+00 0.390788191109D-04 0.156955434294D-02 0.000000000000D+00  5 2 -2 25 23 21 2 0.87353288D-01 0.40633081D-02 0.14213299D+05 0.14213299D+05 0.14213299D+05 0.12504986D+01  1  2  6  1  5  1        2 0.226244376463D+00 0.100000000000D+01
0.190610323491D-05 0.000000000000D+00 0.000000000000D+00 0.156955434294D-02 0.000000000000D+00  5 21 -2 25 23 -2 2 0.12779342D+00 0.40633081D-02 0.23313887D+05 0.23313887D+05 0.23313887D+05 0.12265623D+01  1  2 12  3  5  1        2 0.271013711036D-02 0.100000000000D+01
-.319782404834D-05 0.000000000000D+00 -.229147175961D-05 0.156955434294D-02 0.000000000000D+00  5 21 -2 25 23 -2 2 0.13849296D+00 0.40633081D-02 0.14213299D+05 0.14213299D+05 0.14213299D+05 0.12504986D+01  1  2  5  3  5  1        2 -.388809614593D-02 0.100000000000D+01
  </mgrwgt>
  </event>
  <event>
  4     66 0.45228882E-03 0.13821319E+03 0.75467711E-02 0.12141525E+00
        2 -1    0    0  501    0 0.00000000E+00 0.00000000E+00 0.34027283E+03 0.34027298E+03 0.32000000E+00 0.0000E+00 0.9000E+01
       -2 -1    0    0    0  501 0.00000000E+00 0.00000000E+00 -.68157819E+02 0.68158570E+02 0.32000000E+00 0.0000E+00 0.9000E+01
       25  1    1    2    0    0 -.78393015E+02 0.34089783E+02 0.61347980E+02 0.16338957E+03 0.12500000E+03 0.0000E+00 0.9000E+01
       23  1    1    2    0    0 0.78393015E+02 -.34089783E+02 0.21076703E+03 0.24504198E+03 0.91188000E+02 0.0000E+00 0.9000E+01
#aMCatNLO 1  0  0  2  2 0.23647289D+01 0.00000000D+00  -5  5  0 0.00000000D+00 0.00000000D+00 0.00000000D+00 0.00000000D+00 0.00000000D+00
  <mgrwgt>
 0.1419821345D+00    6    2    0
 0.152290636942538D+03 0.000000000000000D+00 0.000000000000000D+00 0.152290636942538D+03
 0.152290636942538D+03 0.000000000000000D+00 0.000000000000000D+00 -.152290636942538D+03
 0.164290305475604D+03 -.783930145222567D+02 0.340897834058515D+02 -.637081346040098D+02
 0.140290968409471D+03 0.783930145222567D+02 -.340897834058515D+02 0.637081346040098D+02
 0.000000000000000D+00 0.000000000000000D+00 -.000000000000000D+00 0.000000000000000D+00
 0.153943611806561D+03 0.000000000000000D+00 0.000000000000000D+00 0.153943611806561D+03
 0.153143320824242D+03 0.000000000000000D+00 0.000000000000000D+00 -.153143320824242D+03
 0.164864070660455D+03 -.791347196621769D+02 0.351302081405931D+02 -.637081346040098D+02
 0.139726382807818D+03 0.777620330627277D+02 -.332046759927790D+02 0.637081346040098D+02
 0.249647916253138D+01 0.137268659944912D+01 -.192553214781410D+01 0.800290982318695D+00
0.199851159871D-03 0.000000000000D+00 0.000000000000D+00 0.113824552193D-02 0.000000000000D+00  5 2 -2 25 23 21 0 0.52349735D-01 0.10485888D-01 0.19102886D+05 0.19102886D+05 0.19102886D+05 0.12360263D+01  1  2  2  2  5  2       -2 0.112307836526D+00 0.100000000000D+01
-.109758432039D-04 0.000000000000D+00 -.767481075924D-06 0.113824552193D-02 0.000000000000D+00  5 2 -2 25 23 21 2 0.52349735D-01 0.10485888D-01 0.19102886D+05 0.19102886D+05 0.19102886D+05 0.12360263D+01  1  2  3  2  5  2       -2 -.942316347825D-02 0.100000000000D+01
0.138042670711D-04 0.000000000000D+00 0.000000000000D+00 0.113824552193D-02 0.000000000000D+00  5 2 -2 25 23 21 2 0.52349735D-01 0.10485888D-01 0.19102886D+05 0.19102886D+05 0.19102886D+05 0.12360263D+01  1  2 15  2  5  2       -2 0.118514689843D-01 0.100000000000D+01
-.841145871736D-03 0.000000000000D+00 0.000000000000D+00 0.113824552193D-02 0.000000000000D+00  5 2 -2 25 23 21 2 0.52349735D-01 0.10485888D-01 0.19102886D+05 0.19102886D+05 0.19102886D+05 0.12360263D+01  1  2  4  2  5  2       -2 -.722154545319D+00 0.100000000000D+01
0.841083455853D-03 0.000000000000D+00 0.000000000000D+00 0.113824552193D-02 0.165645211319D-02  5 2 -2 25 23 21 2 0.52917944D-01 0.10544599D-01 0.19429483D+05 0.19429483D+05 0.19429483D+05 0.12352122D+01  1  2 11  2  5  2       -2 0.707013616227D+00 0.100000000000D+01
0.322918373909D-05 0.000000000000D+00 0.000000000000D+00 0.113824552193D-02 0.172413290318D-05  5 2 21 25 23 2 2 0.52917944D-01 0.10544599D-01 0.19429483D+05 0.19429483D+05 0.19429483D+05 0.12352122D+01  1  2 11  4  5  2       -2 0.423869215483D-01 0.100000000000D+01
  </mgrwgt>
  </event>
  <event>
  5     66 0.45228882E-03 0.10964496E+03 0.75467711E-02 0.12330303E+00
        4 -1    0    0  501    0 0.00000000E+00 0.00000000E+00 0.19230935E+03 0.19231560E+03 0.15500000E+01 0.0000E+00 0.9000E+01
       21 -1    0    0  502  501 0.00000000E+00 0.00000000E+00 -.11983904E+03 0.11984139E+03 0.75000000E+00 0.0000E+00 0.9000E+01
       25  1    1    2    0    0 -.19839686E+02 0.29391734E+02 0.88122291E+02 0.15699690E+03 0.12500000E+03 0.0000E+00 0.9000E+01
       23  1    1    2    0    0 0.80448865E+01 -.56011688E+00 0.33049823E+02 0.97327160E+02 0.91188000E+02 0.0000E+00 0.9000E+01
        4  1    1    2  502    0 0.11794800E+02 -.28831617E+02 -.48701805E+02 0.57832930E+02 0.15500000E+01 0.0000E+00 0.9000E+01
#aMCatNLO 2  0  0  2  1 0.31150914D+02 0.00000000D+00  -5  5  0 0.00000000D+00 0.00000000D+00 0.00000000D+00 0.00000000D+00 0.00000000D+00
  <mgrwgt>
 0.3077634681D-02    2    2    0
 0.110710957871736D+03 0.000000000000000D+00 0.000000000000000D+00 0.110710957871736D+03
 0.110710957871736D+03 0.000000000000000D+00 0.000000000000000D+00 -.110710957871736D+03
 0.127217338081337D+03 -.130009207158185D+02 0.126748184460972D+02 0.151517704048322D+02
 0.942045776621353D+02 0.130009207158185D+02 -.126748184460972D+02 -.151517704048322D+02
 0.000000000000000D+00 0.000000000000000D+00 -.000000000000000D+00 -.000000000000000D+00
 0.114513562492290D+03 0.000000000000000D+00 0.000000000000000D+00 0.114513562492290D+03
 0.201242046236674D+03 0.000000000000000D+00 0.000000000000000D+00 -.201242046236674D+03
 0.130813085560519D+03 -.198396864865431D+02 0.293917343411145D+02 0.151517704048322D+02
 0.927893389397477D+02 0.804488654689566D+01 -.560116882639903D+00 -.151517704048322D+02
 0.921531842286966D+02 0.117947999396475D+02 -.288316174584746D+02 -.867284837443845D+02
-.145930660912D-04 0.000000000000D+00 0.000000000000D+00 0.183397650167D-02 0.000000000000D+00  5 4 21 25 23 4 2 0.28602649D-01 0.18479737D-01 0.15955156D+05 0.15955156D+05 0.15955156D+05 0.12447777D+01  1  2 13  4  5  2       -4 -.286179689453D-01 0.100000000000D+01
0.171475441917D-04 0.000000000000D+00 0.000000000000D+00 0.183397650167D-02 0.128780755375D-05  5 4 21 25 23 4 2 0.29585068D-01 0.18436410D-01 0.15955156D+05 0.15955156D+05 0.15955156D+05 0.12447777D+01  1  2  1  4  5  2       -4 0.316956036265D-01 0.100000000000D+01
  </mgrwgt>
  </event>
  <event>
  4     66 0.45228882E-03 0.12616353E+03 0.75467711E-02 0.12256510E+00
        2 -1    0    0  501    0 0.00000000E+00 0.00000000E+00 0.60108771E+03 0.60108779E+03 0.32000000E+00 0.0000E+00 0.9000E+01
       -2 -1    0    0    0  501 0.00000000E+00 0.00000000E+00 -.27366557E+02 0.27368428E+02 0.32000000E+00 0.0000E+00 0.9000E+01
       25  1    1    2    0    0 0.34270075E+02 0.54612074E+02 0.26252354E+03 0.29782634E+03 0.12500000E+03 0.0000E+00 0.9000E+01
       23  1    1    2    0    0 -.34270075E+02 -.54612074E+02 0.31119761E+03 0.33062988E+03 0.91188000E+02 0.0000E+00 0.9000E+01
#aMCatNLO 1  0  0  2  1 0.99088396D+01 0.00000000D+00  -5  5  0 0.00000000D+00 0.00000000D+00 0.00000000D+00 0.00000000D+00 0.00000000D+00
  <mgrwgt>
 0.1172311662D+00    6    2    0
 0.128258782914844D+03 0.000000000000000D+00 0.000000000000000D+00 0.128258782914844D+03
 0.128258782914844D+03 0.000000000000000D+00 0.000000000000000D+00 -.128258782914844D+03
 0.142506829890413D+03 0.342700753490648D+02 0.546120741487094D+02 -.229407902688721D+02
 0.114010735939275D+03 -.342700753490648D+02 -.546120741487094D+02 0.229407902688721D+02
 0.000000000000000D+00 0.000000000000000D+00 0.000000000000000D+00 0.000000000000000D+00
 0.144885071349718D+03 0.000000000000000D+00 0.000000000000000D+00 0.144885071349718D+03
 0.129839333903468D+03 0.000000000000000D+00 0.000000000000000D+00 -.129839333903468D+03
 0.140123358781556D+03 0.312552133746835D+02 0.500638338021304D+02 -.229407902688721D+02
 0.116585516565018D+03 -.367298829031577D+02 -.583229557935120D+02 0.229407902688721D+02
 0.180155299066117D+02 0.547466952847416D+01 0.825912199138159D+01 0.150457374462502D+02
0.125075309545D-03 0.000000000000D+00 0.000000000000D+00 0.151318766859D-02 0.000000000000D+00  5 2 -2 25 23 21 0 0.92475182D-01 0.42103900D-02 0.15917237D+05 0.15917237D+05 0.15917237D+05 0.12448947D+01  1  2  2  2  5  2       -2 0.151637991488D+00 0.100000000000D+01
-.694633626876D-05 0.000000000000D+00 -.480322121738D-06 0.151318766859D-02 0.000000000000D+00  5 2 -2 25 23 21 2 0.92475182D-01 0.42103900D-02 0.15917237D+05 0.15917237D+05 0.15917237D+05 0.12448947D+01  1  2  3  2  5  2       -2 -.130514104952D-01 0.100000000000D+01
0.862084129573D-05 0.000000000000D+00 0.000000000000D+00 0.151318766859D-02 0.000000000000D+00  5 2 -2 25 23 21 2 0.92475182D-01 0.42103900D-02 0.15917237D+05 0.15917237D+05 0.15917237D+05 0.12448947D+01  1  2 15  2  5  2       -2 0.161976233529D-01 0.100000000000D+01
-.199868080154D-04 0.000000000000D+00 0.000000000000D+00 0.151318766859D-02 0.000000000000D+00  5 2 -2 25 23 21 2 0.92475182D-01 0.42103900D-02 0.15917237D+05 0.15917237D+05 0.15917237D+05 0.12448947D+01  1  2  4  2  5  2       -2 -.375530388688D-01 0.100000000000D+01
0.177510420477D-12 0.000000000000D+00 0.000000000000D+00 0.151318766859D-02 0.127591772026D-03  5 2 -2 25 23 21 2 0.10446281D+00 0.42622752D-02 0.17219700D+05 0.17219700D+05 0.17219700D+05 0.12410473D+01  1  2 11  2  5  2       -2 0.283550463373D-09 0.100000000000D+01
0.140168105158D-13 0.000000000000D+00 0.000000000000D+00 0.151318766859D-02 0.309895934154D-06  5 2 21 25 23 2 2 0.10446281D+00 0.42622752D-02 0.17219700D+05 0.17219700D+05 0.17219700D+05 0.12410473D+01  1  2 11  4  5  2       -2 0.412728863280D-09 0.100000000000D+01
  </mgrwgt>
  </event>
  <event>
  4     66 0.45228882E-03 0.10832904E+03 0.75467711E-02 0.12584060E+00
        2 -1    0    0  501    0 0.00000000E+00 0.00000000E+00 0.23446695E+04 0.23446695E+04 0.32000000E+00 0.0000E+00 0.9000E+01
       -2 -1    0    0    0  501 0.00000000E+00 0.00000000E+00 -.68275399E+01 0.68350349E+01 0.32000000E+00 0.0000E+00 0.9000E+01
       25  1    1    2    0    0 -.25249352E+02 0.23869383E+01 0.74392471E+03 0.75477957E+03 0.12500000E+03 0.0000E+00 0.9000E+01
       23  1    1    2    0    0 0.25249352E+02 -.23869383E+01 0.15939172E+04 0.15967250E+04 0.91188000E+02 0.0000E+00 0.9000E+01
#aMCatNLO 1  0  0  1  1 0.15675546D+00 0.00000000D+00  -5  5  0 0.00000000D+00 0.00000000D+00 0.00000000D+00 0.00000000D+00 0.00000000D+00
  <mgrwgt>
 0.4053999129D+00    9    2    0
 0.126558928924622D+03 0.000000000000000D+00 0.000000000000000D+00 0.126558928924622D+03
 0.126558928924622D+03 0.000000000000000D+00 0.000000000000000D+00 -.126558928924622D+03
 0.140998346036696D+03 -.252493521516180D+02 0.238693832494060D+01 -.601024652276470D+02
 0.112119511812548D+03 0.252493521516180D+02 -.238693832494060D+01 0.601024652276470D+02
 0.000000000000000D+00 -.000000000000000D+00 0.000000000000000D+00 0.000000000000000D+00
 0.126775345288054D+03 0.000000000000000D+00 0.000000000000000D+00 0.126775345288054D+03
 0.126587341795742D+03 0.000000000000000D+00 0.000000000000000D+00 -.126587341795742D+03
 0.140990791952498D+03 -.252145907420361D+02 0.230683823957856D+01 -.601024652276470D+02
 0.112127114435940D+03 0.252769955171673D+02 -.245063643059368D+01 0.601024652276470D+02
 0.244780695358248D+00 -.624047751312541D-01 0.143798191015119D+00 0.188003492312415D+00
0.673976946101D-04 0.000000000000D+00 0.000000000000D+00 0.130158017637D-02 0.000000000000D+00  5 2 -2 25 23 21 0 0.36071896D+00 0.10509690D-02 0.12342788D+05 0.12342788D+05 0.12342788D+05 0.12575931D+01  1  2  2  1  5  1        2 0.640327218918D-01 0.100000000000D+01
-.366702947922D-05 0.000000000000D+00 -.258824893523D-06 0.130158017637D-02 0.000000000000D+00  5 2 -2 25 23 21 2 0.36071896D+00 0.10509690D-02 0.12342788D+05 0.12342788D+05 0.12342788D+05 0.12575931D+01  1  2  3  1  5  1        2 -.550999976977D-02 0.100000000000D+01
0.461781835981D-05 0.000000000000D+00 0.000000000000D+00 0.130158017637D-02 0.000000000000D+00  5 2 -2 25 23 21 2 0.36071896D+00 0.10509690D-02 0.12342788D+05 0.12342788D+05 0.12342788D+05 0.12575931D+01  1  2 15  1  5  1        2 0.693863472972D-02 0.100000000000D+01
-.185371351633D-01 0.000000000000D+00 0.000000000000D+00 0.130158017637D-02 0.000000000000D+00  5 2 -2 25 23 21 2 0.36071896D+00 0.10509690D-02 0.12342788D+05 0.12342788D+05 0.12342788D+05 0.12575931D+01  1  2  4  1  5  1        2 -.278535013316D+02 0.100000000000D+01
-.638162561024D-01 0.000000000000D+00 -.398661681822D-02 0.130158017637D-02 0.000000000000D+00  5 2 -2 25 23 21 2 0.36136371D+00 0.10509690D-02 0.12342788D+05 0.12342788D+05 0.12342788D+05 0.12575931D+01  1  2  5  1  5  1        2 -.954087739965D+02 0.100000000000D+01
0.638232800428D-01 0.000000000000D+00 0.398661046131D-02 0.130158017637D-02 0.000000000000D+00  5 2 -2 25 23 21 2 0.36071896D+00 0.10509690D-02 0.12342788D+05 0.12342788D+05 0.12342788D+05 0.12575931D+01  1  2  6  1  5  1        2 0.958994904010D+02 0.100000000000D+01
0.185371655629D-01 0.000000000000D+00 0.000000000000D+00 0.130158017637D-02 0.446740813284D+00  5 2 -2 25 23 21 2 0.36133579D+00 0.10512049D-02 0.12360282D+05 0.12360282D+05 0.12360282D+05 0.12575212D+01  1  2 11  1  5  1        2 0.277086254478D+02 0.100000000000D+01
-.213063535220D-04 0.000000000000D+00 -.133131018684D-05 0.130158017637D-02 0.000000000000D+00  5 21 -2 25 23 -2 2 0.36136371D+00 0.10509690D-02 0.12342788D+05 0.12342788D+05 0.12342788D+05 0.12575931D+01  1  2  5  3  5  1        2 -.832683498817D-02 0.100000000000D+01
0.620569279957D-05 0.000000000000D+00 0.000000000000D+00 0.130158017637D-02 0.142756986129D-03  5 21 -2 25 23 -2 2 0.36133579D+00 0.10512049D-02 0.12360282D+05 0.12360282D+05 0.12360282D+05 0.12575212D+01  1  2 11  3  5  1        2 0.242487026490D-02 0.100000000000D+01
  </mgrwgt>
  </event>
  <event>
  4     66 0.45228882E-03 0.11172305E+03 0.75467711E-02 0.12280768E+00
        2 -1    0    0  501    0 0.00000000E+00 0.00000000E+00 0.39636552E+03 0.39636565E+03 0.32000000E+00 0.0000E+00 0.9000E+01
       -2 -1    0    0    0  501 0.00000000E+00 0.00000000E+00 -.34486052E+02 0.34487537E+02 0.32000000E+00 0.0000E+00 0.9000E+01
       25  1    1    2    0    0 0.27765420E+02 0.29228807E+01 0.26799698E+03 0.29703004E+03 0.12500000E+03 0.0000E+00 0.9000E+01
       23  1    1    2    0    0 -.27765420E+02 -.29228807E+01 0.93882483E+02 0.13382314E+03 0.91188000E+02 0.0000E+00 0.9000E+01
#aMCatNLO 1  0  0  2  2 0.33358925D+02 0.00000000D+00  -5  5  0 0.00000000D+00 0.00000000D+00 0.00000000D+00 0.00000000D+00 0.00000000D+00
  <mgrwgt>
 0.1278457421D+00    4    2    0
 0.116916335437572D+03 0.000000000000000D+00 0.000000000000000D+00 0.116916335437572D+03
 0.116916335437572D+03 0.000000000000000D+00 0.000000000000000D+00 -.116916335437572D+03
 0.132546633437938D+03 0.277654203356867D+02 0.292288066056800D+01 0.341196166150482D+02
 0.101286037437206D+03 -.277654203356867D+02 -.292288066056800D+01 -.341196166150482D+02
 0.000000000000000D+00 -.000000000000000D+00 -.000000000000000D+00 0.000000000000000D+00
 0.155056497641289D+03 0.000000000000000D+00 0.000000000000000D+00 0.155056497641289D+03
 0.125628012739527D+03 0.000000000000000D+00 0.000000000000000D+00 -.125628012739527D+03
 0.137767095618442D+03 0.458869002373816D+02 0.922045464105116D+01 0.341196166150482D+02
 0.984331072940934D+02 -.143765093104644D+02 0.173003169299526D+01 -.341196166150482D+02
 0.444843074682801D+02 -.315103909269172D+02 -.109504863340464D+02 0.294284849017614D+02
0.117462277808D-03 0.000000000000D+00 0.000000000000D+00 0.161902676624D-02 0.000000000000D+00  5 2 -2 25 23 21 0 0.60979435D-01 0.53056706D-02 0.12482041D+05 0.12482041D+05 0.12482041D+05 0.12570244D+01  1  2  2  2  5  2       -2 0.157354730360D+00 0.100000000000D+01
-.650930268847D-05 0.000000000000D+00 -.451086075311D-06 0.161902676624D-02 0.000000000000D+00  5 2 -2 25 23 21 2 0.60979435D-01 0.53056706D-02 0.12482041D+05 0.12482041D+05 0.12482041D+05 0.12570244D+01  1  2  3  2  5  2       -2 -.137785426339D-01 0.100000000000D+01
0.804579607309D-05 0.000000000000D+00 0.000000000000D+00 0.161902676624D-02 0.000000000000D+00  5 2 -2 25 23 21 2 0.60979435D-01 0.53056706D-02 0.12482041D+05 0.12482041D+05 0.12482041D+05 0.12570244D+01  1  2 15  2  5  2       -2 0.170309093804D-01 0.100000000000D+01
-.154772229436D-04 0.000000000000D+00 0.000000000000D+00 0.161902676624D-02 0.000000000000D+00  5 2 -2 25 23 21 2 0.60979435D-01 0.53056706D-02 0.12482041D+05 0.12482041D+05 0.12482041D+05 0.12570244D+01  1  2  4  2  5  2       -2 -.327613550006D-01 0.100000000000D+01
  </mgrwgt>
  </event>
  <event>
  5     66 0.45228882E-03 0.11073029E+03 0.75467711E-02 0.12265746E+00
        2 -1    0    0  502    0 0.00000000E+00 0.00000000E+00 0.18501808E+03 0.18501836E+03 0.32000000E+00 0.0000E+00 0.9000E+01
       -2 -1    0    0    0  501 0.00000000E+00 0.00000000E+00 -.10726335E+03 0.10726383E+03 0.32000000E+00 0.0000E+00 0.9000E+01
       25  1    1    2    0    0 -.10198656E+02 -.13953752E+02 0.66252175E+02 0.14252393E+03 0.12500000E+03 0.0000E+00 0.9000E+01
       23  1    1    2    0    0 0.34284742E+02 -.13644770E+02 -.21220765E+02 0.10063397E+03 0.91188000E+02 0.0000E+00 0.9000E+01
       21  1    1    2  502  501 -.24086086E+02 0.27598522E+02 0.32723320E+02 0.49124292E+02 0.75000000E+00 0.0000E+00 0.9000E+01
#aMCatNLO 2  0  0  1  2 0.36630833D+02 0.00000000D+00  -5  5  0 0.00000000D+00 0.00000000D+00 0.00000000D+00 0.00000000D+00 0.00000000D+00
  <mgrwgt>
 0.1861901043D-02    2    2    0
 0.118063666413803D+03 0.000000000000000D+00 0.000000000000000D+00 0.118063666413803D+03
 0.118063666413803D+03 0.000000000000000D+00 0.000000000000000D+00 -.118063666413803D+03
 0.133542070731648D+03 -.236891463531670D+02 0.150403493009815D+01 0.405591774976236D+02
 0.102585262095958D+03 0.236891463531670D+02 -.150403493009815D+01 -.405591774976236D+02
 0.000000000000000D+00 -.000000000000000D+00 0.000000000000000D+00 0.000000000000000D+00
 0.153404132821066D+03 0.000000000000000D+00 0.000000000000000D+00 0.153404132821066D+03
 0.129363040880858D+03 0.000000000000000D+00 0.000000000000000D+00 -.129363040880858D+03
 0.132547224289386D+03 -.101986563102966D+02 -.139537520761082D+02 0.405591774976236D+02
 0.106404518165039D+03 0.342847419010818D+02 -.136447695263284D+02 -.405591774976236D+02
 0.438154312474994D+02 -.240860855907851D+02 0.275985216024366D+02 0.240410919402085D+02
-.173981665502D-03 0.000000000000D+00 0.000000000000D+00 0.155719143567D-02 0.000000000000D+00  5 2 -2 25 23 21 2 0.29272470D-01 0.15060356D-01 0.17055206D+05 0.17055206D+05 0.17055206D+05 0.12415149D+01  1  2 13  1  5  1        2 -.156200714538D+00 0.100000000000D+01
0.198426536407D-03 0.000000000000D+00 0.000000000000D+00 0.155719143567D-02 0.991043616162D-05  5 2 -2 25 23 21 2 0.28463701D-01 0.16501719D-01 0.17055206D+05 0.17055206D+05 0.17055206D+05 0.12415149D+01  1  2  1  1  5  1        2 0.158062615581D+00 0.100000000000D+01
  </mgrwgt>
  </event>
  <event>
  4     66 0.45228882E-03 0.13109808E+03 0.75467711E-02 0.11804834E+00
        4 -1    0    0  501    0 0.00000000E+00 0.00000000E+00 0.18275910E+03 0.18276567E+03 0.15500000E+01 0.0000E+00 0.9000E+01
       -4 -1    0    0    0  501 0.00000000E+00 0.00000000E+00 -.94025655E+02 0.94038430E+02 0.15500000E+01 0.0000E+00 0.9000E+01
       25  1    1    2    0    0 -.24016245E+02 -.69527756E+02 0.48952617E+02 0.15307595E+03 0.12500000E+03 0.0000E+00 0.9000E+01
       23  1    1    2    0    0 0.24016245E+02 0.69527756E+02 0.39780826E+02 0.12372815E+03 0.91188000E+02 0.0000E+00 0.9000E+01
#aMCatNLO 1  0  0  1  1 0.64888067D+02 0.00000000D+00  -5  5  0 0.00000000D+00 0.00000000D+00 0.00000000D+00 0.00000000D+00 0.00000000D+00
  <mgrwgt>
 0.7366022497D-02    4    2    0
 0.131098137071917D+03 0.000000000000000D+00 0.000000000000000D+00 0.131098137071917D+03
 0.131098137071917D+03 0.000000000000000D+00 0.000000000000000D+00 -.131098137071917D+03
 0.145037596509068D+03 -.240162453606432D+02 -.695277558480861D+02 -.124605912945221D+00
 0.117158677634767D+03 0.240162453606432D+02 0.695277558480861D+02 0.124605912945221D+00
 0.000000000000000D+00 0.000000000000000D+00 0.000000000000000D+00 -.000000000000000D+00
 0.163416597901110D+03 0.000000000000000D+00 0.000000000000000D+00 0.163416597901110D+03
 0.172164692770724D+03 0.000000000000000D+00 0.000000000000000D+00 -.172164692770724D+03
 0.156477748226352D+03 -.606912713076338D+02 -.719502588627671D+02 -.124605912945221D+00
 0.113628429768706D+03 -.405570288358492D+01 0.676735136902781D+02 0.124605912945221D+00
 0.654751126767761D+02 0.647469741912188D+02 0.427674517248892D+01 -.874809486961455D+01
0.199179085491D-03 0.000000000000D+00 0.000000000000D+00 0.151686281733D-02 0.000000000000D+00  5 4 -4 25 23 21 0 0.28118273D-01 0.14466974D-01 0.17186706D+05 0.17186706D+05 0.17186706D+05 0.12411407D+01  1  2  2  1  5  1        4 0.157884431379D-01 0.100000000000D+01
-.110655047495D-04 0.000000000000D+00 -.764900133345D-06 0.151686281733D-02 0.000000000000D+00  5 4 -4 25 23 21 2 0.28118273D-01 0.14466974D-01 0.17186706D+05 0.17186706D+05 0.17186706D+05 0.12411407D+01  1  2  3  1  5  1        4 -.135116636856D-02 0.100000000000D+01
0.137688826618D-04 0.000000000000D+00 0.000000000000D+00 0.151686281733D-02 0.000000000000D+00  5 4 -4 25 23 21 2 0.28118273D-01 0.14466974D-01 0.17186706D+05 0.17186706D+05 0.17186706D+05 0.12411407D+01  1  2 15  1  5  1        4 0.168126548281D-02 0.100000000000D+01
-.716795882260D-04 0.000000000000D+00 0.000000000000D+00 0.151686281733D-02 0.000000000000D+00  5 4 -4 25 23 21 2 0.28118273D-01 0.14466974D-01 0.17186706D+05 0.17186706D+05 0.17186706D+05 0.12411407D+01  1  2  4  1  5  1        4 -.875251975536D-02 0.100000000000D+01
  </mgrwgt>
  </event>
  <event>
  4     66 0.45228882E-03 0.15183342E+03 0.75467711E-02 0.11958839E+00
        2 -1    0    0  501    0 0.00000000E+00 0.00000000E+00 0.15671705E+03 0.15671738E+03 0.32000000E+00 0.0000E+00 0.9000E+01
       -2 -1    0    0    0  501 0.00000000E+00 0.00000000E+00 -.16564903E+03 0.16564934E+03 0.32000000E+00 0.0000E+00 0.9000E+01
       25  1    1    2    0    0 0.55774237E+01 0.10581595E+03 0.49003872E+02 0.17103947E+03 0.12500000E+03 0.0000E+00 0.9000E+01
       23  1    1    2    0    0 -.55774237E+01 -.10581595E+03 -.57935849E+02 0.15132725E+03 0.91188000E+02 0.0000E+00 0.9000E+01
#aMCatNLO 1  0  0  2  1 0.39107143D+01 0.00000000D+00  -5  5  0 0.00000000D+00 0.00000000D+00 0.00000000D+00 0.00000000D+00 0.00000000D+00
  <mgrwgt>
 0.1303401047D+00    6    2    0
 0.161121478197458D+03 0.000000000000000D+00 0.000000000000000D+00 0.161121478197458D+03
 0.161121478197458D+03 0.000000000000000D+00 0.000000000000000D+00 -.161121478197458D+03
 0.172463461801657D+03 0.557742369892356D+01 0.105815945781059D+03 0.537635900954771D+02
 0.149779494593258D+03 -.557742369892356D+01 -.105815945781059D+03 -.537635900954771D+02
 0.000000000000000D+00 -.000000000000000D+00 -.000000000000000D+00 0.000000000000000D+00
 0.164224952347832D+03 0.000000000000000D+00 0.000000000000000D+00 0.164224952347832D+03
 0.162370051834878D+03 0.000000000000000D+00 0.000000000000000D+00 -.162370051834878D+03
 0.172972708711301D+03 0.755080052324593D+01 0.106522390840743D+03 0.537635900954771D+02
 0.149293976864765D+03 -.386890355041536D+01 -.105204316211171D+03 -.537635900954771D+02
 0.432831860664388D+01 -.368189697283057D+01 -.131807462957201D+01 0.185490051295462D+01
0.378358437546D-03 0.000000000000D+00 0.000000000000D+00 0.115898139068D-02 0.000000000000D+00  5 2 -2 25 23 21 0 0.24110365D-01 0.25484515D-01 0.23053387D+05 0.23053387D+05 0.23053387D+05 0.12270902D+01  1  2  2  2  5  2       -2 0.113020119465D+00 0.100000000000D+01
-.209298154421D-04 0.000000000000D+00 -.145299602424D-05 0.115898139068D-02 0.000000000000D+00  5 2 -2 25 23 21 2 0.24110365D-01 0.25484515D-01 0.23053387D+05 0.23053387D+05 0.23053387D+05 0.12270902D+01  1  2  3  2  5  2       -2 -.941392424492D-02 0.100000000000D+01
0.259568899978D-04 0.000000000000D+00 0.000000000000D+00 0.115898139068D-02 0.000000000000D+00  5 2 -2 25 23 21 2 0.24110365D-01 0.25484515D-01 0.23053387D+05 0.23053387D+05 0.23053387D+05 0.12270902D+01  1  2 15  2  5  2       -2 0.116750287048D-01 0.100000000000D+01
-.750480582608D-03 0.000000000000D+00 0.000000000000D+00 0.115898139068D-02 0.000000000000D+00  5 2 -2 25 23 21 2 0.24110365D-01 0.25484515D-01 0.23053387D+05 0.23053387D+05 0.23053387D+05 0.12270902D+01  1  2  4  2  5  2       -2 -.337555167244D+00 0.100000000000D+01
0.742299897308D-03 0.000000000000D+00 0.000000000000D+00 0.115898139068D-02 0.607527758956D-03  5 2 -2 25 23 21 2 0.24574772D-01 0.25682002D-01 0.23653381D+05 0.23653381D+05 0.23653381D+05 0.12258842D+01  1  2 11  2  5  2       -2 0.322045663970D+00 0.100000000000D+01
0.525216972920D-05 0.000000000000D+00 0.000000000000D+00 0.115898139068D-02 0.879819250907D-06  5 2 21 25 23 2 2 0.24574772D-01 0.25682002D-01 0.23653381D+05 0.23653381D+05 0.23653381D+05 0.12258842D+01  1  2 11  4  5  2       -2 0.305683840457D-01 0.100000000000D+01
  </mgrwgt>
  </event>
  <event>
  4     66 0.45228882E-03 0.67144541E+02 0.75467711E-02 0.11447066E+00
        2 -1    0    0  501    0 0.00000000E+00 0.00000000E+00 0.16346925E+03 0.16346957E+03 0.32000000E+00 0.0000E+00 0.9000E+01
       -2 -1    0    0    0  501 0.00000000E+00 0.00000000E+00 -.23767615E+03 0.23767637E+03 0.32000000E+00 0.0000E+00 0.9000E+01
       25  1    1    2    0    0 0.45053948E+02 0.14377182E+03 0.27632415E+02 0.19770874E+03 0.12500000E+03 0.0000E+00 0.9000E+01
       23  1    1    2    0    0 -.45053948E+02 -.14377182E+03 -.10183931E+03 0.20343720E+03 0.91188000E+02 0.0000E+00 0.9000E+01
#aMCatNLO 1  0  0  2  1 0.38475239D+02 0.00000000D+00  -5  5  0 0.00000000D+00 0.00000000D+00 0.00000000D+00 0.00000000D+00 0.00000000D+00
  <mgrwgt>
 0.1776235084D+00    9    2    0
 0.197111261579530D+03 0.000000000000000D+00 0.000000000000000D+00 0.197111261579530D+03
 0.197111261579530D+03 0.000000000000000D+00 0.000000000000000D+00 -.197111261579530D+03
 0.206382356236203D+03 0.450539478542881D+02 0.143771823397049D+03 0.653336172688895D+02
 0.187840166922857D+03 -.450539478542881D+02 -.143771823397049D+03 -.653336172688895D+02
 0.000000000000000D+00 -.000000000000000D+00 -.000000000000000D+00 -.000000000000000D+00
 0.208843087608088D+03 0.000000000000000D+00 0.000000000000000D+00 0.208843087608088D+03
 0.232330027736175D+03 0.000000000000000D+00 0.000000000000000D+00 -.232330027736175D+03
 0.216832322663205D+03 0.640629381003218D+02 0.151719196438806D+03 0.653336172688895D+02
 0.179263299391139D+03 -.285652328867562D+02 -.136878139559554D+03 -.653336172688895D+02
 0.450774932899189D+02 -.354977052135656D+02 -.148410568792513D+02 -.234869401280863D+02
0.852194132843D-03 0.000000000000D+00 0.000000000000D+00 0.103276088313D-02 0.000000000000D+00  5 2 -2 25 23 21 0 0.25149157D-01 0.36565603D-01 0.34573730D+05 0.34573730D+05 0.34573730D+05 0.12084833D+01  1  2  2  2  5  2       -2 0.127276347303D+00 0.100000000000D+01
-.471481733015D-04 0.000000000000D+00 -.327264985799D-05 0.103276088313D-02 0.000000000000D+00  5 2 -2 25 23 21 2 0.25149157D-01 0.36565603D-01 0.34573730D+05 0.34573730D+05 0.34573730D+05 0.12084833D+01  1  2  3  2  5  2       -2 -.102838415008D-01 0.100000000000D+01
0.585146511409D-04 0.000000000000D+00 0.000000000000D+00 0.103276088313D-02 0.000000000000D+00  5 2 -2 25 23 21 2 0.25149157D-01 0.36565603D-01 0.34573730D+05 0.34573730D+05 0.34573730D+05 0.12084833D+01  1  2 15  2  5  2       -2 0.127630691853D-01 0.100000000000D+01
0.104476633044D-02 0.000000000000D+00 0.000000000000D+00 0.103276088313D-02 0.000000000000D+00  5 2 -2 25 23 21 2 0.25149157D-01 0.44044544D-01 0.42469843D+05 0.42469843D+05 0.42469843D+05 0.11993668D+01  1  2 12  2  5  2       -2 0.157813962571D+00 0.100000000000D+01
-.105001085497D-02 0.000000000000D+00 0.000000000000D+00 0.103276088313D-02 0.000000000000D+00  5 2 -2 25 23 21 2 0.25149157D-01 0.36565603D-01 0.34573730D+05 0.34573730D+05 0.34573730D+05 0.12084833D+01  1  2  4  2  5  2       -2 -.229025738444D+00 0.100000000000D+01
-.208013534628D-02 0.000000000000D+00 -.498322488411D-03 0.103276088313D-02 0.000000000000D+00  5 2 -2 25 23 21 2 0.25149157D-01 0.45293251D-01 0.34573730D+05 0.34573730D+05 0.34573730D+05 0.12084833D+01  1  2  5  2  5  2       -2 -.301413631841D+00 0.100000000000D+01
0.214859354505D-02 0.000000000000D+00 0.487120511874D-03 0.103276088313D-02 0.000000000000D+00  5 2 -2 25 23 21 2 0.25149157D-01 0.36565603D-01 0.34573730D+05 0.34573730D+05 0.34573730D+05 0.12084833D+01  1  2  6  2  5  2       -2 0.468645843938D+00 0.100000000000D+01
0.282794426469D-04 0.000000000000D+00 0.000000000000D+00 0.103276088313D-02 0.000000000000D+00  5 2 21 25 23 2 2 0.25149157D-01 0.44044544D-01 0.42469843D+05 0.42469843D+05 0.42469843D+05 0.11993668D+01  1  2 12  4  5  2       -2 0.527185196889D-01 0.100000000000D+01
-.562430301041D-04 0.000000000000D+00 -.150177020159D-04 0.103276088313D-02 0.000000000000D+00  5 2 21 25 23 2 2 0.25149157D-01 0.45293251D-01 0.34573730D+05 0.34573730D+05 0.34573730D+05 0.12084833D+01  1  2  5  4  5  2       -2 -.100871022456D+00 0.100000000000D+01
  </mgrwgt>
  </event>
  <event>
  4     66 0.45228882E-03 0.64468958E+02 0.75467711E-02 0.12050239E+00
        2 -1    0    0  501    0 0.00000000E+00 0.00000000E+00 0.12954109E+04 0.12954110E+04 0.32000000E+00 0.0000E+00 0.9000E+01
       -2 -1    0    0    0  501 0.00000000E+00 0.00000000E+00 -.16169124E+02 0.16172290E+02 0.32000000E+00 0.0000E+00 0.9000E+01
       25  1    1    2    0    0 0.20493173E+02 0.87681733E+02 0.55007335E+03 0.57123879E+03 0.12500000E+03 0.0000E+00 0.9000E+01
       23  1    1    2    0    0 -.20493173E+02 -.87681733E+02 0.72916845E+03 0.74034448E+03 0.91188000E+02 0.0000E+00 0.9000E+01
#aMCatNLO 1  0  0  1  2 0.10299349D+02 0.00000000D+00  -5  5  0 0.00000000D+00 0.00000000D+00 0.00000000D+00 0.00000000D+00 0.00000000D+00
  <mgrwgt>
 0.3659494275D+00    9    2    0
 0.144733418399096D+03 0.000000000000000D+00 0.000000000000000D+00 0.144733418399096D+03
 0.144733418399096D+03 0.000000000000000D+00 0.000000000000000D+00 -.144733418399096D+03
 0.157359646565427D+03 0.204931729624303D+02 0.876817334237312D+02 -.320780587464027D+02
 0.132107190232765D+03 -.204931729624303D+02 -.876817334237312D+02 0.320780587464027D+02
 0.000000000000000D+00 0.000000000000000D+00 0.000000000000000D+00 0.000000000000000D+00
 0.152697271819677D+03 0.000000000000000D+00 0.000000000000000D+00 0.152697271819677D+03
 0.148193682437432D+03 0.000000000000000D+00 0.000000000000000D+00 -.148193682437432D+03
 0.155683653253006D+03 0.152784177597607D+02 0.857319542995654D+02 -.320780587464027D+02
 0.133966353130100D+03 -.249254939715335D+02 -.893389630805954D+02 0.320780587464027D+02
 0.112409478740028D+02 0.964707621177285D+01 0.360700878103006D+01 0.450358938224467D+01
0.133408734882D-03 0.000000000000D+00 0.000000000000D+00 0.133027573269D-02 0.000000000000D+00  5 2 -2 25 23 21 0 0.19929424D+00 0.24878041D-02 0.19910455D+05 0.19910455D+05 0.19910455D+05 0.12340407D+01  1  2  2  1  5  1        2 0.128290734435D+00 0.100000000000D+01
-.740578557952D-05 0.000000000000D+00 -.512324669275D-06 0.133027573269D-02 0.000000000000D+00  5 2 -2 25 23 21 2 0.19929424D+00 0.24878041D-02 0.19910455D+05 0.19910455D+05 0.19910455D+05 0.12340407D+01  1  2  3  1  5  1        2 -.108452880495D-01 0.100000000000D+01
0.920059635469D-05 0.000000000000D+00 0.000000000000D+00 0.133027573269D-02 0.000000000000D+00  5 2 -2 25 23 21 2 0.19929424D+00 0.24878041D-02 0.19910455D+05 0.19910455D+05 0.19910455D+05 0.12340407D+01  1  2 15  1  5  1        2 0.134736709053D-01 0.100000000000D+01
0.464965765943D-03 0.000000000000D+00 0.000000000000D+00 0.133027573269D-02 0.000000000000D+00  5 2 -2 25 23 21 2 0.21254636D+00 0.24878041D-02 0.21420008D+05 0.21420008D+05 0.21420008D+05 0.12305599D+01  1  2 12  1  5  1        2 0.609728476170D+00 0.100000000000D+01
-.444064506906D-03 0.000000000000D+00 0.000000000000D+00 0.133027573269D-02 0.000000000000D+00  5 2 -2 25 23 21 2 0.19929424D+00 0.24878041D-02 0.19910455D+05 0.19910455D+05 0.19910455D+05 0.12340407D+01  1  2  4  1  5  1        2 -.650303392965D+00 0.100000000000D+01
-.172414271861D-02 0.000000000000D+00 -.273649653904D-03 0.133027573269D-02 0.000000000000D+00  5 2 -2 25 23 21 2 0.21305480D+00 0.24878041D-02 0.19910455D+05 0.19910455D+05 0.19910455D+05 0.12340407D+01  1  2  5  1  5  1        2 -.226123268553D+01 0.100000000000D+01
0.173914446708D-02 0.000000000000D+00 0.273040840762D-03 0.133027573269D-02 0.000000000000D+00  5 2 -2 25 23 21 2 0.19929424D+00 0.24878041D-02 0.19910455D+05 0.19910455D+05 0.19910455D+05 0.12340407D+01  1  2  6  1  5  1        2 0.254686319265D+01 0.100000000000D+01
0.572081435962D-05 0.000000000000D+00 0.000000000000D+00 0.133027573269D-02 0.000000000000D+00  5 21 -2 25 23 -2 2 0.21254636D+00 0.24878041D-02 0.21420008D+05 0.21420008D+05 0.21420008D+05 0.12305599D+01  1  2 12  3  5  1        2 0.426198226030D-02 0.100000000000D+01
-.191601727114D-04 0.000000000000D+00 -.310772621269D-05 0.133027573269D-02 0.000000000000D+00  5 21 -2 25 23 -2 2 0.21305480D+00 0.24878041D-02 0.19910455D+05 0.19910455D+05 0.19910455D+05 0.12340407D+01  1  2  5  3  5  1        2 -.142872623876D-01 0.100000000000D+01
  </mgrwgt>
  </event>
  <event>
  4     66 0.45228882E-03 0.12751819E+03 0.75467711E-02 0.11385711E+00
        2 -1    0    0  501    0 0.00000000E+00 0.00000000E+00 0.35378892E+03 0.35378907E+03 0.32000000E+00 0.0000E+00 0.9000E+01
       -2 -1    0    0    0  501 0.00000000E+00 0.00000000E+00 -.49735281E+02 0.49736311E+02 0.32000000E+00 0.0000E+00 0.9000E+01
       25  1    1    2    0    0 0.43576479E+02 -.50962969E+02 0.11256362E+03 0.18108479E+03 0.12500000E+03 0.0000E+00 0.9000E+01
       23  1    1    2    0    0 -.43576479E+02 0.50962969E+02 0.19149002E+03 0.22244059E+03 0.91188000E+02 0.0000E+00 0.9000E+01
#aMCatNLO 1  0  0  2  1 0.13833405D+03 0.00000000D+00  -5  5  0 0.00000000D+00 0.00000000D+00 0.00000000D+00 0.00000000D+00 0.00000000D+00
  <mgrwgt>
 0.1831272368D+00    3    2    0
 0.132650022417695D+03 0.000000000000000D+00 0.000000000000000D+00 0.132650022417695D+03
 0.132650022417695D+03 0.000000000000000D+00 0.000000000000000D+00 -.132650022417695D+03
 0.146426402780796D+03 0.435764790792053D+02 -.509629693794594D+02 -.363257161582764D+02
 0.118873642054594D+03 -.435764790792053D+02 0.509629693794594D+02 0.363257161582764D+02
 0.000000000000000D+00 -.000000000000000D+00 0.000000000000000D+00 0.000000000000000D+00
 0.516052454489403D+03 0.000000000000000D+00 0.000000000000000D+00 0.516052454489403D+03
 0.162654922538148D+03 0.000000000000000D+00 0.000000000000000D+00 -.162654922538148D+03
 0.193550499198021D+03 0.124475827377268D+03 -.708731718221772D+02 -.363257161582764D+02
 0.105649137920078D+03 0.984993451624547D+01 0.378141525737340D+02 0.363257161582764D+02
 0.379507739909452D+03 -.134325761893513D+03 0.330590192484433D+02 0.353397531951255D+03
0.204707291108D-03 0.000000000000D+00 0.000000000000D+00 0.141104443758D-02 0.000000000000D+00  5 2 -2 25 23 21 0 0.54429155D-01 0.76516720D-02 0.16260888D+05 0.16260888D+05 0.16260888D+05 0.12438462D+01  1  2  2  2  5  2       -2 0.179335777242D+00 0.100000000000D+01
-.113511018382D-04 0.000000000000D+00 -.786129898522D-06 0.141104443758D-02 0.000000000000D+00  5 2 -2 25 23 21 2 0.54429155D-01 0.76516720D-02 0.16260888D+05 0.16260888D+05 0.16260888D+05 0.12438462D+01  1  2  3  2  5  2       -2 -.153852649933D-01 0.100000000000D+01
0.141484045571D-04 0.000000000000D+00 0.000000000000D+00 0.141104443758D-02 0.000000000000D+00  5 2 -2 25 23 21 2 0.54429155D-01 0.76516720D-02 0.16260888D+05 0.16260888D+05 0.16260888D+05 0.12438462D+01  1  2 15  2  5  2       -2 0.191767245546D-01 0.100000000000D+01
  </mgrwgt>
  </event>
  <event>
  5     66 -.45228882E-03 0.14637633E+03 0.75467711E-02 0.11988186E+00
        2 -1    0    0  502    0 0.00000000E+00 0.00000000E+00 0.39255051E+03 0.39255064E+03 0.32000000E+00 0.0000E+00 0.9000E+01
       -2 -1    0    0    0  501 0.00000000E+00 0.00000000E+00 -.58704954E+02 0.58705827E+02 0.32000000E+00 0.0000E+00 0.9000E+01
       25  1    1    2    0    0 0.27047770E+01 0.10189521E+03 0.16288049E+03 0.22922697E+03 0.12500000E+03 0.0000E+00 0.9000E+01
       23  1    1    2    0    0 0.40782491E+01 -.94829465E+02 0.16199579E+03 0.20872744E+03 0.91188000E+02 0.0000E+00 0.9000E+01
       21  1    1    2  502  501 -.67830262E+01 -.70657444E+01 0.89692805E+01 0.13302056E+02 0.75000000E+00 0.0000E+00 0.9000E+01
#aMCatNLO 2  0  0  1  2 0.97946000D+01 0.00000000D+00  -5  5  0 0.00000000D+00 0.00000000D+00 0.00000000D+00 0.00000000D+00 0.00000000D+00
  <mgrwgt>
 -.1367987328D+00    3    2    0
 0.146768132300602D+03 0.000000000000000D+00 0.000000000000000D+00 0.146768132300602D+03
 0.146768132300602D+03 0.000000000000000D+00 0.000000000000000D+00 -.146768132300602D+03
 0.159219317277578D+03 -.100144779968392D+01 0.980345080454340D+02 -.106781706734932D+02
 0.134316947323627D+03 0.100144779968392D+01 -.980345080454340D+02 0.106781706734932D+02
 0.000000000000000D+00 -.000000000000000D+00 -.000000000000000D+00 -.000000000000000D+00
 0.151123040215441D+03 0.000000000000000D+00 0.000000000000000D+00 0.151123040215441D+03
 0.152462331836452D+03 0.000000000000000D+00 0.000000000000000D+00 -.152462331836452D+03
 0.161644587988628D+03 0.270477704382532D+01 0.101895209299674D+03 -.106781706734932D+02
 0.132055042287673D+03 0.407824911422670D+01 -.948294648557570D+02 0.106781706734932D+02
 0.988574177559104D+01 -.678302615805202D+01 -.706574444391658D+01 -.133929162101084D+01
-.391501635368D-03 0.000000000000D+00 0.000000000000D+00 0.136399286928D-02 0.000000000000D+00  5 2 -2 25 23 21 2 0.61486555D-01 0.86934799D-02 0.22908141D+05 0.22908141D+05 0.22908141D+05 0.12273874D+01  1  2 13  1  5  1        2 -.376534595182D+00 0.100000000000D+01
-.767127823883D-04 0.000000000000D+00 0.000000000000D+00 0.136399286928D-02 0.000000000000D+00  5 2 -2 25 23 21 2 0.58646644D-01 0.86934799D-02 0.21426030D+05 0.21426030D+05 0.21426030D+05 0.12305466D+01  1  2  8  1  5  1        2 -.778549971655D-01 0.100000000000D+01
0.343703434538D-03 0.000000000000D+00 0.000000000000D+00 0.136399286928D-02 0.114345752611D-03  5 2 -2 25 23 21 2 0.60386809D-01 0.90307630D-02 0.22908141D+05 0.22908141D+05 0.22908141D+05 0.12273874D+01  1  2  1  1  5  1        2 0.317590859554D+00 0.100000000000D+01
  </mgrwgt>
  </event>
  <event>
  4     66 0.45228882E-03 0.12757475E+03 0.75467711E-02 0.11924501E+00
        2 -1    0    0  501    0 0.00000000E+00 0.00000000E+00 0.93753624E+03 0.93753629E+03 0.32000000E+00 0.0000E+00 0.9000E+01
       -2 -1    0    0    0  501 0.00000000E+00 0.00000000E+00 -.17430154E+02 0.17433091E+02 0.32000000E+00 0.0000E+00 0.9000E+01
       25  1    1    2    0    0 -.48545792E+02 0.46407825E+02 0.48099933E+03 0.50149351E+03 0.12500000E+03 0.0000E+00 0.9000E+01
       23  1    1    2    0    0 0.48545792E+02 -.46407825E+02 0.43910675E+03 0.45347588E+03 0.91188000E+02 0.0000E+00 0.9000E+01
#aMCatNLO 1  0  0  1  1 0.52865522D+02 0.00000000D+00  -5  5  0 0.00000000D+00 0.00000000D+00 0.00000000D+00 0.00000000D+00 0.00000000D+00
  <mgrwgt>
 0.1253282426D+00    4    2    0
 0.127839077125335D+03 0.000000000000000D+00 0.000000000000000D+00 0.127839077125335D+03
 0.127839077125335D+03 0.000000000000000D+00 0.000000000000000D+00 -.127839077125335D+03
 0.142133901564723D+03 -.485457916041175D+02 0.464078249508551D+02 -.816491732173334D+01
 0.113544252685948D+03 0.485457916041175D+02 -.464078249508551D+02 0.816491732173334D+01
 0.000000000000000D+00 -.000000000000000D+00 0.000000000000000D+00 -.000000000000000D+00
 0.145653859389242D+03 0.000000000000000D+00 0.000000000000000D+00 0.145653859389242D+03
 0.176781374707593D+03 0.000000000000000D+00 0.000000000000000D+00 -.176781374707593D+03
 0.133122979428125D+03 -.211809585402119D+02 0.397671821011770D+02 -.816491732173334D+01
 0.127963370222564D+03 0.725554213024347D+02 -.522342582935035D+02 0.816491732173334D+01
 0.613488844461455D+02 -.513744627622228D+02 0.124670761923265D+02 -.311275153183516D+02
0.134287744239D-03 0.000000000000D+00 0.000000000000D+00 0.155199003775D-02 0.000000000000D+00  5 2 -2 25 23 21 0 0.14423657D+00 0.26817923D-02 0.16275316D+05 0.16275316D+05 0.16275316D+05 0.12438027D+01  1  2  2  1  5  1        2 0.184291691791D+00 0.100000000000D+01
-.746039137490D-05 0.000000000000D+00 -.515700296654D-06 0.155199003775D-02 0.000000000000D+00  5 2 -2 25 23 21 2 0.14423657D+00 0.26817923D-02 0.16275316D+05 0.16275316D+05 0.16275316D+05 0.12438027D+01  1  2  3  1  5  1        2 -.158392262117D-01 0.100000000000D+01
0.926399359699D-05 0.000000000000D+00 0.000000000000D+00 0.155199003775D-02 0.000000000000D+00  5 2 -2 25 23 21 2 0.14423657D+00 0.26817923D-02 0.16275316D+05 0.16275316D+05 0.16275316D+05 0.12438027D+01  1  2 15  1  5  1        2 0.196684708393D-01 0.100000000000D+01
-.295758179644D-04 0.000000000000D+00 0.000000000000D+00 0.155199003775D-02 0.000000000000D+00  5 2 -2 25 23 21 2 0.14423657D+00 0.26817923D-02 0.16275316D+05 0.16275316D+05 0.16275316D+05 0.12438027D+01  1  2  4  1  5  1        2 -.627926937870D-01 0.100000000000D+01
  </mgrwgt>
  </event>
  <event>
  4     66 0.45228882E-03 0.55942122E+02 0.75467711E-02 0.12269055E+00
        2 -1    0    0  501    0 0.00000000E+00 0.00000000E+00 0.25480229E+03 0.25480249E+03 0.32000000E+00 0.0000E+00 0.9000E+01
       -2 -1    0    0    0  501 0.00000000E+00 0.00000000E+00 -.59713984E+02 0.59714842E+02 0.32000000E+00 0.0000E+00 0.9000E+01
       25  1    1    2    0    0 0.16140125E+02 -.28125418E+02 0.17188824E+03 0.21499328E+03 0.12500000E+03 0.0000E+00 0.9000E+01
       23  1    1    2    0    0 -.16140125E+02 0.28125418E+02 0.23200064E+02 0.99524053E+02 0.91188000E+02 0.0000E+00 0.9000E+01
#aMCatNLO 1  0  0  1  2 0.32373620D+02 0.00000000D+00  -5  5  0 0.00000000D+00 0.00000000D+00 0.00000000D+00 0.00000000D+00 0.00000000D+00
  <mgrwgt>
 0.1550480189D+00    9    2    0
 0.123350826715542D+03 0.000000000000000D+00 0.000000000000000D+00 0.123350826715542D+03
 0.123350826715542D+03 0.000000000000000D+00 0.000000000000000D+00 -.123350826715542D+03
 0.138165783474723D+03 0.161401248104400D+02 -.281254182467426D+02 0.491247487803569D+02
 0.108535869956360D+03 -.161401248104400D+02 0.281254182467426D+02 -.491247487803569D+02
 0.000000000000000D+00 0.000000000000000D+00 -.000000000000000D+00 0.000000000000000D+00
 0.170918251392426D+03 0.000000000000000D+00 0.000000000000000D+00 0.170918251392426D+03
 0.130041842425173D+03 0.000000000000000D+00 0.000000000000000D+00 -.130041842425173D+03
 0.136208521769741D+03 -.933249356818038D+00 -.226638369567663D+02 0.491247487803569D+02
 0.112608192045212D+03 -.299011630827960D+02 0.325274203596629D+02 -.491247487803569D+02
 0.521433800026452D+02 0.308344124396140D+02 -.986358340289663D+01 0.408764089672532D+02
0.131983538872D-03 0.000000000000D+00 0.000000000000D+00 0.142485554486D-02 0.000000000000D+00  5 2 -2 25 23 21 0 0.39200434D-01 0.91868482D-02 0.12759949D+05 0.12759949D+05 0.12759949D+05 0.12559106D+01  1  2  2  1  5  1        2 0.122173850064D+00 0.100000000000D+01
-.726338104159D-05 0.000000000000D+00 -.506851541333D-06 0.142485554486D-02 0.000000000000D+00  5 2 -2 25 23 21 2 0.39200434D-01 0.91868482D-02 0.12759949D+05 0.12759949D+05 0.12759949D+05 0.12559106D+01  1  2  3  1  5  1        2 -.106051008402D-01 0.100000000000D+01
0.904705611658D-05 0.000000000000D+00 0.000000000000D+00 0.142485554486D-02 0.000000000000D+00  5 2 -2 25 23 21 2 0.39200434D-01 0.91868482D-02 0.12759949D+05 0.12759949D+05 0.12759949D+05 0.12559106D+01  1  2 15  1  5  1        2 0.132094050793D-01 0.100000000000D+01
0.258559139073D-03 0.000000000000D+00 0.000000000000D+00 0.142485554486D-02 0.000000000000D+00  5 2 -2 25 23 21 2 0.55068486D-01 0.91868482D-02 0.16996732D+05 0.16996732D+05 0.16996732D+05 0.12416823D+01  1  2 12  1  5  1        2 0.260309989539D+00 0.100000000000D+01
-.271603110119D-03 0.000000000000D+00 0.000000000000D+00 0.142485554486D-02 0.000000000000D+00  5 2 -2 25 23 21 2 0.39200434D-01 0.91868482D-02 0.12759949D+05 0.12759949D+05 0.12759949D+05 0.12559106D+01  1  2  4  1  5  1        2 -.396561650123D+00 0.100000000000D+01
-.344280916369D-03 0.000000000000D+00 -.730559460604D-04 0.142485554486D-02 0.000000000000D+00  5 2 -2 25 23 21 2 0.56474130D-01 0.91868482D-02 0.12759949D+05 0.12759949D+05 0.12759949D+05 0.12559106D+01  1  2  5  1  5  1        2 -.342074882873D+00 0.100000000000D+01
0.351854024045D-03 0.000000000000D+00 0.684434897117D-04 0.142485554486D-02 0.000000000000D+00  5 2 -2 25 23 21 2 0.39200434D-01 0.91868482D-02 0.12759949D+05 0.12759949D+05 0.12759949D+05 0.12559106D+01  1  2  6  1  5  1        2 0.513734221662D+00 0.100000000000D+01
0.109358299733D-04 0.000000000000D+00 0.000000000000D+00 0.142485554486D-02 0.000000000000D+00  5 21 -2 25 23 -2 2 0.55068486D-01 0.91868482D-02 0.16996732D+05 0.16996732D+05 0.16996732D+05 0.12416823D+01  1  2 12  3  5  1        2 0.312313158663D-01 0.100000000000D+01
-.131374701831D-04 0.000000000000D+00 -.325370148782D-05 0.142485554486D-02 0.000000000000D+00  5 21 -2 25 23 -2 2 0.56474130D-01 0.91868482D-02 0.12759949D+05 0.12759949D+05 0.12759949D+05 0.12559106D+01  1  2  5  3  5  1        2 -.363691294317D-01 0.100000000000D+01
  </mgrwgt>
  </event>
  <event>
  4     66 0.45228882E-03 0.54576225E+02 0.75467711E-02 0.12438263E+00
        2 -1    0    0  501    0 0.00000000E+00 0.00000000E+00 0.20218129E+02 0.20220661E+02 0.32000000E+00 0.0000E+00 0.9000E+01
       -2 -1    0    0    0  501 0.00000000E+00 0.00000000E+00 -.64969820E+03 0.64969828E+03 0.32000000E+00 0.0000E+00 0.9000E+01
       25  1    1    2    0    0 0.93624857E+01 -.10013162E+02 -.46113269E+03 0.47797100E+03 0.12500000E+03 0.0000E+00 0.9000E+01
       23  1    1    2    0    0 -.93624857E+01 0.10013162E+02 -.16834738E+03 0.19194794E+03 0.91188000E+02 0.0000E+00 0.9000E+01
#aMCatNLO 1  0  0  2  1 0.20215033D+02 0.00000000D+00  -5  5  0 0.00000000D+00 0.00000000D+00 0.00000000D+00 0.00000000D+00 0.00000000D+00
  <mgrwgt>
 0.1915551022D+00    9    2    0
 0.114614818546755D+03 0.000000000000000D+00 0.000000000000000D+00 0.114614818546755D+03
 0.114614818546755D+03 0.000000000000000D+00 0.000000000000000D+00 -.114614818546755D+03
 0.130558979931564D+03 0.936248574999378D+01 -.100131616281548D+02 -.351102220949976D+02
 0.986706571619468D+02 -.936248574999378D+01 0.100131616281548D+02 0.351102220949976D+02
 0.000000000000000D+00 -.000000000000000D+00 -.000000000000000D+00 -.000000000000000D+00
 0.117803401146143D+03 0.000000000000000D+00 0.000000000000000D+00 0.117803401146143D+03
 0.152293749285139D+03 0.000000000000000D+00 0.000000000000000D+00 -.152293749285139D+03
 0.130895026633535D+03 0.165735879374921D+02 -.104713165932324D+01 -.351102220949976D+02
 0.992242339360035D+02 -.390439275367984D+01 0.167995618351109D+02 0.351102220949976D+02
 0.399778898617441D+02 -.126691951838123D+02 -.157524301757876D+02 -.344903481389960D+02
0.574495933753D-03 0.000000000000D+00 0.000000000000D+00 0.165139740571D-02 0.000000000000D+00  5 2 -2 25 23 21 0 0.31106823D-02 0.99953770D-01 0.11876866D+05 0.11876866D+05 0.11876866D+05 0.12595494D+01  1  2  2  2  5  2       -2 0.138302682599D+00 0.100000000000D+01
-.318178553784D-04 0.000000000000D+00 -.220621565387D-05 0.165139740571D-02 0.000000000000D+00  5 2 -2 25 23 21 2 0.31106823D-02 0.99953770D-01 0.11876866D+05 0.11876866D+05 0.11876866D+05 0.12595494D+01  1  2  3  2  5  2       -2 -.121519220688D-01 0.100000000000D+01
0.394090650169D-04 0.000000000000D+00 0.000000000000D+00 0.165139740571D-02 0.000000000000D+00  5 2 -2 25 23 21 2 0.31106823D-02 0.99953770D-01 0.11876866D+05 0.11876866D+05 0.11876866D+05 0.12595494D+01  1  2 15  2  5  2       -2 0.150511680059D-01 0.100000000000D+01
0.140653907969D-02 0.000000000000D+00 0.000000000000D+00 0.165139740571D-02 0.000000000000D+00  5 2 -2 25 23 21 2 0.31106823D-02 0.13387058D+00 0.14294363D+05 0.14294363D+05 0.14294363D+05 0.12502152D+01  1  2 12  2  5  2       -2 0.266101785906D+00 0.100000000000D+01
-.140511307059D-02 0.000000000000D+00 0.000000000000D+00 0.165139740571D-02 0.000000000000D+00  5 2 -2 25 23 21 2 0.31106823D-02 0.99953770D-01 0.11876866D+05 0.11876866D+05 0.11876866D+05 0.12595494D+01  1  2  4  2  5  2       -2 -.536642848127D+00 0.100000000000D+01
-.175882768942D-02 0.000000000000D+00 -.239971836421D-03 0.165139740571D-02 0.000000000000D+00  5 2 -2 25 23 21 2 0.31106823D-02 0.13458502D+00 0.11876866D+05 0.11876866D+05 0.11876866D+05 0.12595494D+01  1  2  5  2  5  2       -2 -.331416040588D+00 0.100000000000D+01
0.176191636033D-02 0.000000000000D+00 0.229731123485D-03 0.165139740571D-02 0.000000000000D+00  5 2 -2 25 23 21 2 0.31106823D-02 0.99953770D-01 0.11876866D+05 0.11876866D+05 0.11876866D+05 0.12595494D+01  1  2  6  2  5  2       -2 0.672913684715D+00 0.100000000000D+01
0.533394928860D-04 0.000000000000D+00 0.000000000000D+00 0.165139740571D-02 0.000000000000D+00  5 2 21 25 23 2 2 0.31106823D-02 0.13387058D+00 0.14294363D+05 0.14294363D+05 0.14294363D+05 0.12502152D+01  1  2 12  4  5  2       -2 0.120357368152D+00 0.100000000000D+01
-.622653216316D-04 0.000000000000D+00 -.921997607205D-05 0.165139740571D-02 0.000000000000D+00  5 2 21 25 23 2 2 0.31106823D-02 0.13458502D+00 0.11876866D+05 0.11876866D+05 0.11876866D+05 0.12595494D+01  1  2  5  4  5  2       -2 -.140960776377D+00 0.100000000000D+01
  </mgrwgt>
  </event>
  <event>
  5     66 0.45228882E-03 0.19372243E+03 0.75467711E-02 0.11300119E+00
        2 -1    0    0  501    0 0.00000000E+00 0.00000000E+00 0.85980700E+03 0.85980706E+03 0.32000000E+00 0.0000E+00 0.9000E+01
       21 -1    0    0  502  501 0.00000000E+00 0.00000000E+00 -.59198023E+02 0.59202774E+02 0.75000000E+00 0.0000E+00 0.9000E+01
       25  1    1    2    0    0 0.14203766E+03 -.24515912E+02 0.32038257E+03 0.37288835E+03 0.12500000E+03 0.0000E+00 0.9000E+01
       23  1    1    2    0    0 -.17785683E+03 -.21965676E+02 0.36039594E+03 0.41269363E+03 0.91188000E+02 0.0000E+00 0.9000E+01
        2  1    1    2  502    0 0.35819172E+02 0.46481588E+02 0.11983047E+03 0.13342787E+03 0.32000000E+00 0.0000E+00 0.9000E+01
#aMCatNLO 2  0  0  2  1 0.58681778D+02 0.00000000D+00  -5  5  0 0.00000000D+00 0.00000000D+00 0.00000000D+00 0.00000000D+00 0.00000000D+00
  <mgrwgt>
 0.5948495274D-01    1    2    0
 0.193801512553907D+03 0.000000000000000D+00 0.000000000000000D+00 0.193801512553907D+03
 0.193801512553907D+03 0.000000000000000D+00 0.000000000000000D+00 -.193801512553907D+03
 0.203230939290149D+03 0.160144316895514D+03 -.101938775310126D+01 -.552931274522920D+01
 0.184372085817665D+03 -.160144316895514D+03 0.101938775310126D+01 0.552931274522920D+01
 0.000000000000000D+00 0.000000000000000D+00 0.000000000000000D+00 0.000000000000000D+00
 0.229862857901688D+03 0.000000000000000D+00 0.000000000000000D+00 0.229862857901688D+03
 0.221440256323737D+03 0.000000000000000D+00 0.000000000000000D+00 -.221440256323737D+03
 0.190869853282647D+03 0.142037662767637D+03 -.245159121431706D+02 -.552931274522920D+01
 0.201150115793184D+03 -.177856834339628D+03 -.219656759254736D+02 0.552931274522920D+01
 0.592831451495934D+02 0.358191715719909D+02 0.464815880686443D+02 0.842260157795081D+01
0.107479719981D-04 0.000000000000D+00 0.000000000000D+00 0.115287299610D-02 0.618910969344D-07  5 2 21 25 23 2 2 0.13227812D+00 0.91077408D-02 0.50747841D+05 0.50747841D+05 0.50747841D+05 0.11916437D+01  1  2  1  4  5  2       -2 0.594849527428D-01 0.100000000000D+01
  </mgrwgt>
  </event>
  <event>
  4     66 0.45228882E-03 0.10436866E+03 0.75467711E-02 0.11775639E+00
        2 -1    0    0  501    0 0.00000000E+00 0.00000000E+00 0.11600313E+04 0.11600313E+04 0.32000000E+00 0.0000E+00 0.9000E+01
       -2 -1    0    0    0  501 0.00000000E+00 0.00000000E+00 -.23207067E+02 0.23209273E+02 0.32000000E+00 0.0000E+00 0.9000E+01
       25  1    1    2    0    0 0.26536405E+01 -.12193835E+03 0.55598148E+03 0.58276617E+03 0.12500000E+03 0.0000E+00 0.9000E+01
       23  1    1    2    0    0 -.26536405E+01 0.12193835E+03 0.58084270E+03 0.60047440E+03 0.91188000E+02 0.0000E+00 0.9000E+01
#aMCatNLO 1  0  0  1  2 0.13346075D+02 0.00000000D+00  -5  5  0 0.00000000D+00 0.00000000D+00 0.00000000D+00 0.00000000D+00 0.00000000D+00
  <mgrwgt>
 0.1364267765D+00    9    2    0
 0.164080024422514D+03 0.000000000000000D+00 0.000000000000000D+00 0.164080024422514D+03
 0.164080024422514D+03 0.000000000000000D+00 0.000000000000000D+00 -.164080024422514D+03
 0.175217499385915D+03 0.265364046009754D+01 -.121938353816646D+03 -.141480794402625D+02
 0.152942549459113D+03 -.265364046009754D+01 0.121938353816646D+03 0.141480794402625D+02
 0.000000000000000D+00 -.000000000000000D+00 0.000000000000000D+00 0.000000000000000D+00
 0.283996009948043D+03 0.000000000000000D+00 0.000000000000000D+00 0.283996009948043D+03
 0.164587421679618D+03 0.000000000000000D+00 0.000000000000000D+00 -.164587421679618D+03
 0.179716225554862D+03 0.624733692738984D+01 -.128194088620161D+03 -.141480794402625D+02
 0.148715099658612D+03 0.400636864907163D+00 0.116621614037560D+03 0.141480794402625D+02
 0.120152106414187D+03 -.664797379229700D+01 0.115724745826013D+02 0.119408588268424D+03
0.176931797853D-03 0.000000000000D+00 0.000000000000D+00 0.125607285984D-02 0.000000000000D+00  5 2 -2 25 23 21 0 0.17846652D+00 0.35704911D-02 0.26721153D+05 0.26721153D+05 0.26721153D+05 0.12202097D+01  1  2  2  1  5  1        2 0.119389602206D+00 0.100000000000D+01
-.982937636060D-05 0.000000000000D+00 -.679464690969D-06 0.125607285984D-02 0.000000000000D+00  5 2 -2 25 23 21 2 0.17846652D+00 0.35704911D-02 0.26721153D+05 0.26721153D+05 0.26721153D+05 0.12202097D+01  1  2  3  1  5  1        2 -.987541832159D-02 0.100000000000D+01
0.121480733288D-04 0.000000000000D+00 0.000000000000D+00 0.125607285984D-02 0.000000000000D+00  5 2 -2 25 23 21 2 0.17846652D+00 0.35704911D-02 0.26721153D+05 0.26721153D+05 0.26721153D+05 0.12202097D+01  1  2 15  1  5  1        2 0.122049763405D-01 0.100000000000D+01
0.616109079580D-02 0.000000000000D+00 0.000000000000D+00 0.125607285984D-02 0.000000000000D+00  5 2 -2 25 23 21 2 0.30899111D+00 0.35704911D-02 0.28992743D+05 0.28992743D+05 0.28992743D+05 0.12164582D+01  1  2 12  1  5  1        2 0.219667466951D+01 0.100000000000D+01
-.535499833923D-02 0.000000000000D+00 0.000000000000D+00 0.125607285984D-02 0.000000000000D+00  5 2 -2 25 23 21 2 0.17846652D+00 0.35704911D-02 0.26721153D+05 0.26721153D+05 0.26721153D+05 0.12202097D+01  1  2  4  1  5  1        2 -.538008178457D+01 0.100000000000D+01
-.617533670509D-02 0.000000000000D+00 -.655542743088D-04 0.125607285984D-02 0.000000000000D+00  5 2 -2 25 23 21 2 0.30914121D+00 0.35704911D-02 0.26721153D+05 0.26721153D+05 0.26721153D+05 0.12202097D+01  1  2  5  1  5  1        2 -.221345156354D+01 0.100000000000D+01
0.538655176310D-02 0.000000000000D+00 0.567690838673D-04 0.125607285984D-02 0.000000000000D+00  5 2 -2 25 23 21 2 0.17846652D+00 0.35704911D-02 0.26721153D+05 0.26721153D+05 0.26721153D+05 0.12202097D+01  1  2  6  1  5  1        2 0.541178300840D+01 0.100000000000D+01
0.374724331878D-03 0.000000000000D+00 0.000000000000D+00 0.125607285984D-02 0.000000000000D+00  5 21 -2 25 23 -2 2 0.30899111D+00 0.35704911D-02 0.28992743D+05 0.28992743D+05 0.28992743D+05 0.12164582D+01  1  2 12  3  5  1        2 0.432620954199D-01 0.100000000000D+01
-.372598616385D-03 0.000000000000D+00 -.399002228365D-05 0.125607285984D-02 0.000000000000D+00  5 21 -2 25 23 -2 2 0.30914121D+00 0.35704911D-02 0.26721153D+05 0.26721153D+05 0.26721153D+05 0.12202097D+01  1  2  5  3  5  1        2 -.434788089673D-01 0.100000000000D+01
  </mgrwgt>
  </event>
  <event>
  4     66 0.45228882E-03 0.14057135E+03 0.75467711E-02 0.11203304E+00
        2 -1    0    0  501    0 0.00000000E+00 0.00000000E+00 0.95023851E+03 0.95023857E+03 0.32000000E+00 0.0000E+00 0.9000E+01
       -2 -1    0    0    0  501 0.00000000E+00 0.00000000E+00 -.30953659E+02 0.30955313E+02 0.32000000E+00 0.0000E+00 0.9000E+01
       25  1    1    2    0    0 -.51792948E+01 -.89063773E+02 0.20794851E+03 0.25850873E+03 0.12500000E+03 0.0000E+00 0.9000E+01
       23  1    1    2    0    0 0.51792948E+01 0.89063773E+02 0.71133634E+03 0.72268515E+03 0.91188000E+02 0.0000E+00 0.9000E+01
#aMCatNLO 1  0  0  2  2 0.16055161D+03 0.00000000D+00  -5  5  0 0.00000000D+00 0.00000000D+00 0.00000000D+00 0.00000000D+00 0.00000000D+00
  <mgrwgt>
 0.1850326930D+00    3    2    0
 0.171505675051134D+03 0.000000000000000D+00 0.000000000000000D+00 0.171505675051134D+03
 0.171505675051134D+03 0.000000000000000D+00 0.000000000000000D+00 -.171505675051134D+03
 0.182160932747156D+03 -.517929479360984D+01 -.890637727669759D+02 -.979715504892480D+02
 0.160850417355113D+03 0.517929479360984D+01 0.890637727669759D+02 0.979715504892480D+02
 0.000000000000000D+00 -.000000000000000D+00 0.000000000000000D+00 0.000000000000000D+00
 0.353520964386212D+03 0.000000000000000D+00 0.000000000000000D+00 0.353520964386212D+03
 0.228619302536136D+03 0.000000000000000D+00 0.000000000000000D+00 -.228619302536136D+03
 0.238283139036754D+03 0.326037262790842D+02 -.174620808257952D+03 -.979715504892480D+02
 0.140443154773557D+03 0.322549087664846D+02 0.277529193770290D+02 0.979715504892480D+02
 0.203413973112036D+03 -.648586350455687D+02 0.146867888880923D+03 0.124901661850076D+03
0.311858803552D-03 0.000000000000D+00 0.000000000000D+00 0.884680857331D-03 0.000000000000D+00  5 2 -2 25 23 21 0 0.14619067D+00 0.47622327D-02 0.19760305D+05 0.19760305D+05 0.19760305D+05 0.12344029D+01  1  2  2  2  5  2       -2 0.180708413646D+00 0.100000000000D+01
-.164921118168D-04 0.000000000000D+00 -.119761991995D-05 0.884680857331D-03 0.000000000000D+00  5 2 -2 25 23 21 2 0.14619067D+00 0.47622327D-02 0.19760305D+05 0.19760305D+05 0.19760305D+05 0.12344029D+01  1  2  3  2  5  2       -2 -.145616480577D-01 0.100000000000D+01
0.213896686380D-04 0.000000000000D+00 0.000000000000D+00 0.884680857331D-03 0.000000000000D+00  5 2 -2 25 23 21 2 0.14619067D+00 0.47622327D-02 0.19760305D+05 0.19760305D+05 0.19760305D+05 0.12344029D+01  1  2 15  2  5  2       -2 0.188859274200D-01 0.100000000000D+01
  </mgrwgt>
  </event>
  <event>
  4     66 0.45228882E-03 0.11770687E+03 0.75467711E-02 0.10632503E+00
        2 -1    0    0  501    0 0.00000000E+00 0.00000000E+00 0.62862364E+03 0.62862372E+03 0.32000000E+00 0.0000E+00 0.9000E+01
       -2 -1    0    0    0  501 0.00000000E+00 0.00000000E+00 -.23387190E+02 0.23389380E+02 0.32000000E+00 0.0000E+00 0.9000E+01
       25  1    1    2    0    0 -.37324049E+02 0.27069022E+02 0.41786215E+03 0.43858818E+03 0.12500000E+03 0.0000E+00 0.9000E+01
       23  1    1    2    0    0 0.37324049E+02 -.27069022E+02 0.18737430E+03 0.21342492E+03 0.91188000E+02 0.0000E+00 0.9000E+01
#aMCatNLO 1  0  0  1  2 0.30897850D+03 0.00000000D+00  -5  5  0 0.00000000D+00 0.00000000D+00 0.00000000D+00 0.00000000D+00 0.00000000D+00
  <mgrwgt>
 0.1907412158D+00    3    2    0
 0.121253787530947D+03 0.000000000000000D+00 0.000000000000000D+00 0.121253787530947D+03
 0.121253787530947D+03 0.000000000000000D+00 0.000000000000000D+00 -.121253787530947D+03
 0.136324963460471D+03 -.373240494714582D+02 0.270690223880132D+02 0.288735003161749D+02
 0.106182611601424D+03 0.373240494714582D+02 -.270690223880132D+02 -.288735003161749D+02
 0.000000000000000D+00 0.000000000000000D+00 0.000000000000000D+00 -.000000000000000D+00
 0.299555959949595D+03 0.000000000000000D+00 0.000000000000000D+00 0.299555959949595D+03
 0.427738117608131D+03 0.000000000000000D+00 0.000000000000000D+00 -.427738117608131D+03
 0.263256974100306D+03 -.229880228491724D+03 0.797458797424767D+00 0.288735003161749D+02
 0.129524949540203D+03 -.762620340654485D+02 -.425662348474050D+02 -.288735003161749D+02
 0.334512153917217D+03 0.306142262557173D+03 0.417687760499802D+02 -.128182157658535D+03
0.129147595357D-03 0.000000000000D+00 0.000000000000D+00 0.158156671559D-02 0.000000000000D+00  5 2 -2 25 23 21 0 0.96711504D-01 0.35982040D-02 0.13854907D+05 0.13854907D+05 0.13854907D+05 0.12517734D+01  1  2  2  1  5  1        2 0.186754398797D+00 0.100000000000D+01
-.716717742215D-05 0.000000000000D+00 -.495960771516D-06 0.158156671559D-02 0.000000000000D+00  5 2 -2 25 23 21 2 0.96711504D-01 0.35982040D-02 0.13854907D+05 0.13854907D+05 0.13854907D+05 0.12517734D+01  1  2  3  1  5  1        2 -.162399292141D-01 0.100000000000D+01
0.892668168993D-05 0.000000000000D+00 0.000000000000D+00 0.158156671559D-02 0.000000000000D+00  5 2 -2 25 23 21 2 0.96711504D-01 0.35982040D-02 0.13854907D+05 0.13854907D+05 0.13854907D+05 0.12517734D+01  1  2 15  1  5  1        2 0.202267462102D-01 0.100000000000D+01
  </mgrwgt>
  </event>
  <event>
  5     66 0.45228882E-03 0.12790596E+03 0.75467711E-02 0.11552817E+00
        2 -1    0    0  501    0 0.00000000E+00 0.00000000E+00 0.12415451E+04 0.12415452E+04 0.32000000E+00 0.0000E+00 0.9000E+01
       21 -1    0    0  502  501 0.00000000E+00 0.00000000E+00 -.39919229E+02 0.39926273E+02 0.75000000E+00 0.0000E+00 0.9000E+01
       25  1    1    2    0    0 -.79960699E+02 0.69045088E+02 0.31803329E+03 0.35767458E+03 0.12500000E+03 0.0000E+00 0.9000E+01
       23  1    1    2    0    0 0.56731853E+02 0.38012332E+02 0.70601137E+03 0.71514386E+03 0.91188000E+02 0.0000E+00 0.9000E+01
        2  1    1    2  502    0 0.23228846E+02 -.10705742E+03 0.17758123E+03 0.20865298E+03 0.32000000E+00 0.0000E+00 0.9000E+01
#aMCatNLO 2  0  0  2  1 0.10954848D+03 0.00000000D+00  -5  5  0 0.00000000D+00 0.00000000D+00 0.00000000D+00 0.00000000D+00 0.00000000D+00
  <mgrwgt>
 0.6681546855D-01    2    2    0
 0.150225743480495D+03 0.000000000000000D+00 0.000000000000000D+00 0.150225743480495D+03
 0.150225743480495D+03 0.000000000000000D+00 0.000000000000000D+00 -.150225743480495D+03
 0.162390350702008D+03 -.670822427142817D+02 0.969068412146345D+01 -.784327059000353D+02
 0.138061136258982D+03 0.670822427142817D+02 -.969068412146345D+01 0.784327059000353D+02
 0.000000000000000D+00 0.000000000000000D+00 -.000000000000000D+00 -.000000000000000D+00
 0.189352724227632D+03 0.000000000000000D+00 0.000000000000000D+00 0.189352724227632D+03
 0.261765282479905D+03 0.000000000000000D+00 0.000000000000000D+00 -.261765282479905D+03
 0.181487263549915D+03 -.799606987731456D+02 0.690450876438368D+02 -.784327059000353D+02
 0.138312621524582D+03 0.567318530758587D+02 0.380123324827603D+02 0.784327059000353D+02
 0.131318121633040D+03 0.232288456972868D+02 -.107057420126597D+03 -.724125582522732D+02
-.166257101469D-06 0.000000000000D+00 0.000000000000D+00 0.104282328615D-02 0.000000000000D+00  5 2 21 25 23 2 2 0.15153843D+00 0.63200781D-02 0.37468696D+05 0.37468696D+05 0.37468696D+05 0.12048941D+01  1  2 13  4  5  2       -2 -.148444029773D-02 0.100000000000D+01
0.102599621866D-04 0.000000000000D+00 0.000000000000D+00 0.104282328615D-02 0.803216384011D-07  5 2 21 25 23 2 2 0.19100730D+00 0.61419590D-02 0.37468696D+05 0.37468696D+05 0.37468696D+05 0.12048941D+01  1  2  1  4  5  2       -2 0.682999088464D-01 0.100000000000D+01
  </mgrwgt>
  </event>
  <event>
  4     66 0.45228882E-03 0.11141096E+03 0.75467711E-02 0.11818971E+00
        2 -1    0    0  501    0 0.00000000E+00 0.00000000E+00 0.52600055E+03 0.52600065E+03 0.32000000E+00 0.0000E+00 0.9000E+01
       -2 -1    0    0    0  501 0.00000000E+00 0.00000000E+00 -.24941529E+02 0.24943582E+02 0.32000000E+00 0.0000E+00 0.9000E+01
       25  1    1    2    0    0 0.16204483E+02 -.21183439E+02 0.22211684E+03 0.25626591E+03 0.12500000E+03 0.0000E+00 0.9000E+01
       23  1    1    2    0    0 -.16204483E+02 0.21183439E+02 0.27894218E+03 0.29467833E+03 0.91188000E+02 0.0000E+00 0.9000E+01
#aMCatNLO 1  0  0  1  1 0.91579738D+02 0.00000000D+00  -5  5  0 0.00000000D+00 0.00000000D+00 0.00000000D+00 0.00000000D+00 0.00000000D+00
  <mgrwgt>
 0.1997669175D+00    3    2    0
 0.114541915205157D+03 0.000000000000000D+00 0.000000000000000D+00 0.114541915205157D+03
 0.114541915205157D+03 0.000000000000000D+00 0.000000000000000D+00 -.114541915205157D+03
 0.130496224688518D+03 0.162044825564001D+02 -.211834387825172D+02 -.263237786873927D+02
 0.985876057217953D+02 -.162044825564001D+02 0.211834387825172D+02 0.263237786873927D+02
 0.000000000000000D+00 -.000000000000000D+00 0.000000000000000D+00 -.000000000000000D+00
 0.141020658275703D+03 0.000000000000000D+00 0.000000000000000D+00 0.141020658275703D+03
 0.242046920461204D+03 0.000000000000000D+00 0.000000000000000D+00 -.242046920461204D+03
 0.148343976414253D+03 0.691145759361925D+02 -.301855827700896D+02 -.263237786873927D+02
 0.983668862054468D+02 0.211677489877851D+02 0.148249126865087D+02 0.263237786873927D+02
 0.136356716117208D+03 -.902823249239776D+02 0.153606700835809D+02 -.101026262185501D+03
0.122357384315D-03 0.000000000000D+00 0.000000000000D+00 0.170577503174D-02 0.000000000000D+00  5 2 -2 25 23 21 0 0.80923328D-01 0.38373237D-02 0.12412401D+05 0.12412401D+05 0.12412401D+05 0.12573079D+01  1  2  2  1  5  1        2 0.195589346695D+00 0.100000000000D+01
-.679128392766D-05 0.000000000000D+00 -.469884573209D-06 0.170577503174D-02 0.000000000000D+00  5 2 -2 25 23 21 2 0.80923328D-01 0.38373237D-02 0.12412401D+05 0.12412401D+05 0.12412401D+05 0.12573079D+01  1  2  3  1  5  1        2 -.171613000181D-01 0.100000000000D+01
0.844448441765D-05 0.000000000000D+00 0.000000000000D+00 0.170577503174D-02 0.000000000000D+00  5 2 -2 25 23 21 2 0.80923328D-01 0.38373237D-02 0.12412401D+05 0.12412401D+05 0.12412401D+05 0.12573079D+01  1  2 15  1  5  1        2 0.213388708429D-01 0.100000000000D+01
  </mgrwgt>
  </event>
  <event>
  5     66 0.45228882E-03 0.11290243E+03 0.75467711E-02 0.11941079E+00
        2 -1    0    0  501    0 0.00000000E+00 0.00000000E+00 0.33351145E+03 0.33351161E+03 0.32000000E+00 0.0000E+00 0.9000E+01
       21 -1    0    0  502  501 0.00000000E+00 0.00000000E+00 -.99056350E+02 0.99059189E+02 0.75000000E+00 0.0000E+00 0.9000E+01
       25  1    1    2    0    0 -.31832411E+02 -.54260656E+02 0.18304450E+03 0.23040792E+03 0.12500000E+03 0.0000E+00 0.9000E+01
       23  1    1    2    0    0 -.30446915E+02 0.15697224E+02 0.77420965E+02 0.12442940E+03 0.91188000E+02 0.0000E+00 0.9000E+01
        2  1    1    2  502    0 0.62279326E+02 0.38563432E+02 -.26010360E+02 0.77733480E+02 0.32000000E+00 0.0000E+00 0.9000E+01
#aMCatNLO 2  0  0  2  1 0.73251981D+02 0.00000000D+00  -5  5  0 0.00000000D+00 0.00000000D+00 0.00000000D+00 0.00000000D+00 0.00000000D+00
  <mgrwgt>
 0.7534224738D-01    2    2    0
 0.114783938988328D+03 0.000000000000000D+00 0.000000000000000D+00 0.114783938988328D+03
 0.114783938988328D+03 0.000000000000000D+00 0.000000000000000D+00 -.114783938988328D+03
 0.130704608553308D+03 0.418657088765784D+01 -.319576600992255D+02 0.204908585046718D+02
 0.988632694233480D+02 -.418657088765784D+01 0.319576600992255D+02 -.204908585046718D+02
 0.000000000000000D+00 0.000000000000000D+00 0.000000000000000D+00 -.000000000000000D+00
 0.130613763675650D+03 0.000000000000000D+00 0.000000000000000D+00 0.130613763675650D+03
 0.252936509341363D+03 0.000000000000000D+00 0.000000000000000D+00 -.252936509341363D+03
 0.141429828749483D+03 -.318324111069533D+02 -.542606559209113D+02 0.204908585046718D+02
 0.995416702001891D+02 -.304469149248614D+02 0.156972243260710D+02 -.204908585046718D+02
 0.142578774067340D+03 0.622793260318146D+02 0.385634315948403D+02 -.122322745665713D+03
-.283366488750D-05 0.000000000000D+00 0.000000000000D+00 0.172792509528D-02 0.000000000000D+00  5 2 21 25 23 2 2 0.45091114D-01 0.15162246D-01 0.24117988D+05 0.24117988D+05 0.24117988D+05 0.12249736D+01  1  2 13  4  5  2       -2 -.227213294460D-01 0.100000000000D+01
0.141630447438D-04 0.000000000000D+00 0.000000000000D+00 0.172792509528D-02 0.372815703176D-06  5 2 21 25 23 2 2 0.51309618D-01 0.15239649D-01 0.24117988D+05 0.24117988D+05 0.24117988D+05 0.12249736D+01  1  2  1  4  5  2       -2 0.980635768287D-01 0.100000000000D+01
  </mgrwgt>
  </event>
  <event>
  4     66 0.45228882E-03 0.12848881E+03 0.75467711E-02 0.11839767E+00
        2 -1    0    0  501    0 0.00000000E+00 0.00000000E+00 0.15743979E+03 0.15744011E+03 0.32000000E+00 0.0000E+00 0.9000E+01
       -2 -1    0    0    0  501 0.00000000E+00 0.00000000E+00 -.13345806E+03 0.13345844E+03 0.32000000E+00 0.0000E+00 0.9000E+01
       25  1    1    2    0    0 0.53180192E+02 -.43742399E+02 -.53970023E+02 0.15257553E+03 0.12500000E+03 0.0000E+00 0.9000E+01
       23  1    1    2    0    0 -.53180192E+02 0.43742399E+02 0.77951756E+02 0.13832302E+03 0.91188000E+02 0.0000E+00 0.9000E+01
#aMCatNLO 1  0  0  2  2 0.63958198D+02 0.00000000D+00  -5  5  0 0.00000000D+00 0.00000000D+00 0.00000000D+00 0.00000000D+00 0.00000000D+00
  <mgrwgt>
 0.1764578321D+00    3    2    0
 0.144954170113343D+03 0.000000000000000D+00 0.000000000000000D+00 0.144954170113343D+03
 0.144954170113343D+03 0.000000000000000D+00 0.000000000000000D+00 -.144954170113343D+03
 0.157561169708947D+03 0.531801924955180D+02 -.437423991338673D+02 -.667756830306108D+02
 0.132347170517739D+03 -.531801924955180D+02 0.437423991338673D+02 0.667756830306108D+02
 0.000000000000000D+00 -.000000000000000D+00 -.000000000000000D+00 0.000000000000000D+00
 0.471719197311032D+03 0.000000000000000D+00 0.000000000000000D+00 0.471719197311032D+03
 0.151603202282705D+03 0.000000000000000D+00 0.000000000000000D+00 -.151603202282705D+03
 0.165882528852350D+03 0.826791404141641D+02 -.244372927023631D+02 -.667756830306108D+02
 0.130997071123949D+03 -.291624790467233D+02 0.594604008622365D+02 0.667756830306108D+02
 0.326442799617438D+03 -.535166613674408D+02 -.350231081598734D+02 0.320115995028327D+03
0.403662655545D-03 0.000000000000D+00 0.000000000000D+00 0.114498064894D-02 0.000000000000D+00  5 2 -2 25 23 21 0 0.24221561D-01 0.20532063D-01 0.16509375D+05 0.16509375D+05 0.16509375D+05 0.12431034D+01  1  2  2  2  5  2       -2 0.172582919496D+00 0.100000000000D+01
-.220292902872D-04 0.000000000000D+00 -.155017088411D-05 0.114498064894D-02 0.000000000000D+00  5 2 -2 25 23 21 2 0.24221561D-01 0.20532063D-01 0.16509375D+05 0.16509375D+05 0.16509375D+05 0.12431034D+01  1  2  3  2  5  2       -2 -.145543973048D-01 0.100000000000D+01
0.278942926767D-04 0.000000000000D+00 0.000000000000D+00 0.114498064894D-02 0.000000000000D+00  5 2 -2 25 23 21 2 0.24221561D-01 0.20532063D-01 0.16509375D+05 0.16509375D+05 0.16509375D+05 0.12431034D+01  1  2 15  2  5  2       -2 0.184293099261D-01 0.100000000000D+01
  </mgrwgt>
  </event>
  <event>
  4     66 0.45228882E-03 0.56719253E+02 0.75467711E-02 0.12303806E+00
        2 -1    0    0  501    0 0.00000000E+00 0.00000000E+00 0.32748404E+03 0.32748420E+03 0.32000000E+00 0.0000E+00 0.9000E+01
       -2 -1    0    0    0  501 0.00000000E+00 0.00000000E+00 -.51386517E+02 0.51387513E+02 0.32000000E+00 0.0000E+00 0.9000E+01
       25  1    1    2    0    0 -.55673901E+02 0.22119677E+02 0.97090575E+02 0.16923488E+03 0.12500000E+03 0.0000E+00 0.9000E+01
       23  1    1    2    0    0 0.55673901E+02 -.22119677E+02 0.17900695E+03 0.20963684E+03 0.91188000E+02 0.0000E+00 0.9000E+01
#aMCatNLO 1  0  0  1  2 0.82024730D+01 0.00000000D+00  -5  5  0 0.00000000D+00 0.00000000D+00 0.00000000D+00 0.00000000D+00 0.00000000D+00
  <mgrwgt>
 0.2204082862D+00   11    2    0
 0.129724641750311D+03 0.000000000000000D+00 0.000000000000000D+00 0.129724641750311D+03
 0.129724641750311D+03 0.000000000000000D+00 0.000000000000000D+00 -.129724641750311D+03
 0.143811689047905D+03 -.556739014937306D+02 0.221196771084550D+02 -.383136853342939D+02
 0.115637594452718D+03 0.556739014937306D+02 -.221196771084550D+02 0.383136853342939D+02
 0.000000000000000D+00 -.000000000000000D+00 0.000000000000000D+00 0.000000000000000D+00
 0.135438286763023D+03 0.000000000000000D+00 0.000000000000000D+00 0.135438286763023D+03
 0.132767087851202D+03 0.000000000000000D+00 0.000000000000000D+00 -.132767087851202D+03
 0.142031410714159D+03 -.519171116081897D+02 0.196111363215262D+02 -.383136853342939D+02
 0.117547500740533D+03 0.587386156946685D+02 -.241660946105150D+02 0.383136853342939D+02
 0.862646315953369D+01 -.682150408647887D+01 0.455495828898882D+01 0.267119891182144D+01
0.102126814186D-03 0.000000000000D+00 0.000000000000D+00 0.142945525974D-02 0.000000000000D+00  5 2 -2 25 23 21 0 0.50382249D-01 0.79057066D-02 0.15341307D+05 0.15341307D+05 0.15341307D+05 0.12467102D+01  1  2  2  1  5  1        2 0.921405729090D-01 0.100000000000D+01
-.565894816678D-05 0.000000000000D+00 -.392193857082D-06 0.142945525974D-02 0.000000000000D+00  5 2 -2 25 23 21 2 0.50382249D-01 0.79057066D-02 0.15341307D+05 0.15341307D+05 0.15341307D+05 0.12467102D+01  1  2  3  1  5  1        2 -.793556463809D-02 0.100000000000D+01
0.705470064546D-05 0.000000000000D+00 0.000000000000D+00 0.142945525974D-02 0.000000000000D+00  5 2 -2 25 23 21 2 0.50382249D-01 0.79057066D-02 0.15341307D+05 0.15341307D+05 0.15341307D+05 0.12467102D+01  1  2 15  1  5  1        2 0.989283367235D-02 0.100000000000D+01
0.340132379210D-03 0.000000000000D+00 0.000000000000D+00 0.142945525974D-02 0.000000000000D+00  5 2 -2 25 23 21 2 0.53171952D-01 0.79057066D-02 0.16396397D+05 0.16396397D+05 0.16396397D+05 0.12434395D+01  1  2 12  1  5  1        2 0.449254657739D+00 0.100000000000D+01
-.314596103092D-03 0.000000000000D+00 0.000000000000D+00 0.142945525974D-02 0.000000000000D+00  5 2 -2 25 23 21 2 0.50382249D-01 0.79057066D-02 0.15341307D+05 0.15341307D+05 0.15341307D+05 0.12467102D+01  1  2  4  1  5  1        2 -.441159317491D+00 0.100000000000D+01
-.161667450621D-02 0.000000000000D+00 -.262168828958D-03 0.142945525974D-02 0.000000000000D+00  5 2 -2 25 23 21 2 0.53666138D-01 0.79057066D-02 0.15341307D+05 0.15341307D+05 0.15341307D+05 0.12467102D+01  1  2  5  1  5  1        2 -.212058191804D+01 0.100000000000D+01
0.163049894685D-02 0.000000000000D+00 0.261647052158D-03 0.142945525974D-02 0.000000000000D+00  5 2 -2 25 23 21 2 0.50382249D-01 0.79057066D-02 0.15341307D+05 0.15341307D+05 0.15341307D+05 0.12467102D+01  1  2  6  1  5  1        2 0.228645490358D+01 0.100000000000D+01
0.122166979039D-05 0.000000000000D+00 0.000000000000D+00 0.142945525974D-02 0.175415334394D-03  5 2 -2 25 23 21 2 0.52601306D-01 0.80911200D-02 0.16396397D+05 0.16396397D+05 0.16396397D+05 0.12434395D+01  1  2 11  1  5  1        2 0.157485087751D-02 0.100000000000D+01
0.416857187428D-05 0.000000000000D+00 0.000000000000D+00 0.142945525974D-02 0.000000000000D+00  5 21 -2 25 23 -2 2 0.53171952D-01 0.79057066D-02 0.16396397D+05 0.16396397D+05 0.16396397D+05 0.12434395D+01  1  2 12  3  5  1        2 0.162072353403D-01 0.100000000000D+01
-.170910442369D-04 0.000000000000D+00 -.283024169674D-05 0.142945525974D-02 0.000000000000D+00  5 21 -2 25 23 -2 2 0.53666138D-01 0.79057066D-02 0.15341307D+05 0.15341307D+05 0.15341307D+05 0.12467102D+01  1  2  5  3  5  1        2 -.654899171786D-01 0.100000000000D+01
0.130192510919D-07 0.000000000000D+00 0.000000000000D+00 0.142945525974D-02 0.134072059756D-05  5 21 -2 25 23 -2 2 0.52601306D-01 0.80911200D-02 0.16396397D+05 0.16396397D+05 0.16396397D+05 0.12434395D+01  1  2 11  3  5  1        2 0.499493883895D-04 0.100000000000D+01
  </mgrwgt>
  </event>
  <event>
  5     66 0.45228882E-03 0.19479619E+03 0.75467711E-02 0.11433207E+00
        2 -1    0    0  501    0 0.00000000E+00 0.00000000E+00 0.41372588E+03 0.41372600E+03 0.32000000E+00 0.0000E+00 0.9000E+01
       21 -1    0    0  502  501 0.00000000E+00 0.00000000E+00 -.13589268E+03 0.13589475E+03 0.75000000E+00 0.0000E+00 0.9000E+01
       25  1    1    2    0    0 -.32950010E+02 0.15832341E+03 0.11477553E+03 0.23441508E+03 0.12500000E+03 0.0000E+00 0.9000E+01
       23  1    1    2    0    0 0.57250861E+02 -.15168272E+03 0.40872064E+02 0.19044969E+03 0.91188000E+02 0.0000E+00 0.9000E+01
        2  1    1    2  502    0 -.24300851E+02 -.66406938E+01 0.12218560E+03 0.12475598E+03 0.32000000E+00 0.0000E+00 0.9000E+01
#aMCatNLO 2  0  0  2  1 0.25191868D+02 0.00000000D+00  -5  5  0 0.00000000D+00 0.00000000D+00 0.00000000D+00 0.00000000D+00 0.00000000D+00
  <mgrwgt>
 0.4003063135D-01    1    2    0
 0.197262052495806D+03 0.000000000000000D+00 0.000000000000000D+00 0.197262052495806D+03
 0.197262052495806D+03 0.000000000000000D+00 0.000000000000000D+00 -.197262052495806D+03
 0.206526060148970D+03 -.456647084740557D+02 0.154848867221974D+03 0.310576277379135D+02
 0.187998044842642D+03 0.456647084740557D+02 -.154848867221974D+03 -.310576277379135D+02
 0.000000000000000D+00 -.000000000000000D+00 -.000000000000000D+00 0.000000000000000D+00
 0.281746699753473D+03 0.000000000000000D+00 0.000000000000000D+00 0.281746699753473D+03
 0.199550710578237D+03 0.000000000000000D+00 0.000000000000000D+00 -.199550710578237D+03
 0.206740374586240D+03 -.329500097731672D+02 0.158323412985257D+03 0.310576277379135D+02
 0.188587210609657D+03 0.572508612699899D+02 -.151682719202513D+03 -.310576277379135D+02
 0.859698251358139D+02 -.243008514968228D+02 -.664069378274342D+01 0.821959891752367D+02
0.136977846776D-04 0.000000000000D+00 0.000000000000D+00 0.111916754680D-02 0.372428026966D-07  5 2 21 25 23 2 2 0.63650210D-01 0.20906704D-01 0.43180501D+05 0.43180501D+05 0.43180501D+05 0.11986406D+01  1  2  1  4  5  2       -2 0.400306313537D-01 0.100000000000D+01
  </mgrwgt>
  </event>
  <event>
  4     66 0.45228882E-03 0.15060616E+03 0.75467711E-02 0.11810340E+00
        2 -1    0    0  501    0 0.00000000E+00 0.00000000E+00 0.24444918E+02 0.24447012E+02 0.32000000E+00 0.0000E+00 0.9000E+01
       -2 -1    0    0    0  501 0.00000000E+00 0.00000000E+00 -.94944320E+03 0.94944325E+03 0.32000000E+00 0.0000E+00 0.9000E+01
       25  1    1    2    0    0 0.14498682E+02 0.10319453E+03 -.42571035E+03 0.45575610E+03 0.12500000E+03 0.0000E+00 0.9000E+01
       23  1    1    2    0    0 -.14498682E+02 -.10319453E+03 -.49928793E+03 0.51813416E+03 0.91188000E+02 0.0000E+00 0.9000E+01
#aMCatNLO 1  0  0  1  1 0.31193974D+02 0.00000000D+00  -5  5  0 0.00000000D+00 0.00000000D+00 0.00000000D+00 0.00000000D+00 0.00000000D+00
  <mgrwgt>
 0.8647051574D-01    4    2    0
 0.152348636926713D+03 0.000000000000000D+00 0.000000000000000D+00 0.152348636926713D+03
 0.152348636926713D+03 0.000000000000000D+00 0.000000000000000D+00 -.152348636926713D+03
 0.164343737118381D+03 0.144986821019291D+02 0.103194526203708D+03 0.229028799266601D+02
 0.140353536735045D+03 -.144986821019291D+02 -.103194526203708D+03 -.229028799266601D+02
 0.000000000000000D+00 0.000000000000000D+00 -.000000000000000D+00 -.000000000000000D+00
 0.159302907032625D+03 0.000000000000000D+00 0.000000000000000D+00 0.159302907032625D+03
 0.192649225553885D+03 0.000000000000000D+00 0.000000000000000D+00 -.192649225553885D+03
 0.175728882657134D+03 0.140826963505558D+02 0.120551963710624D+03 0.229028799266601D+02
 0.130561000831478D+03 -.148300718725667D+02 -.893669438519445D+02 -.229028799266601D+02
 0.456622490978982D+02 0.747375522010917D+00 -.311850198586799D+02 -.333463185212603D+02
0.149978605095D-02 0.000000000000D+00 0.000000000000D+00 0.130593859744D-02 0.000000000000D+00  5 2 -2 25 23 21 0 0.37609219D-02 0.14606835D+00 0.22682217D+05 0.22682217D+05 0.22682217D+05 0.12278539D+01  1  2  2  1  5  1        2 0.114667340503D+00 0.100000000000D+01
-.833080417364D-04 0.000000000000D+00 -.575957333837D-05 0.130593859744D-02 0.000000000000D+00  5 2 -2 25 23 21 2 0.37609219D-02 0.14606835D+00 0.22682217D+05 0.22682217D+05 0.22682217D+05 0.12278539D+01  1  2  3  1  5  1        2 -.960264289369D-02 0.100000000000D+01
0.103467872710D-03 0.000000000000D+00 0.000000000000D+00 0.130593859744D-02 0.000000000000D+00  5 2 -2 25 23 21 2 0.37609219D-02 0.14606835D+00 0.22682217D+05 0.22682217D+05 0.22682217D+05 0.12278539D+01  1  2 15  1  5  1        2 0.119264000437D-01 0.100000000000D+01
-.264782304181D-03 0.000000000000D+00 0.000000000000D+00 0.130593859744D-02 0.000000000000D+00  5 2 -2 25 23 21 2 0.37609219D-02 0.14606835D+00 0.22682217D+05 0.22682217D+05 0.22682217D+05 0.12278539D+01  1  2  4  1  5  1        2 -.305205819105D-01 0.100000000000D+01
  </mgrwgt>
  </event>
  <event>
  4     66 0.45228882E-03 0.11576835E+03 0.75467711E-02 0.11226918E+00
        2 -1    0    0  501    0 0.00000000E+00 0.00000000E+00 0.38206183E+04 0.38206183E+04 0.32000000E+00 0.0000E+00 0.9000E+01
       -2 -1    0    0    0  501 0.00000000E+00 0.00000000E+00 -.35057811E+01 0.35203552E+01 0.32000000E+00 0.0000E+00 0.9000E+01
       25  1    1    2    0    0 0.80947906E+01 -.40197446E+02 0.22412225E+04 0.22450801E+04 0.12500000E+03 0.0000E+00 0.9000E+01
       23  1    1    2    0    0 -.80947906E+01 0.40197446E+02 0.15758900E+04 0.15790585E+04 0.91188000E+02 0.0000E+00 0.9000E+01
#aMCatNLO 1  0  0  2  2 0.17883510D+03 0.00000000D+00  -5  5  0 0.00000000D+00 0.00000000D+00 0.00000000D+00 0.00000000D+00 0.00000000D+00
  <mgrwgt>
 0.1869485534D+00    5    2    0
 0.115853975273976D+03 0.000000000000000D+00 0.000000000000000D+00 0.115853975273976D+03
 0.115853975273976D+03 0.000000000000000D+00 0.000000000000000D+00 -.115853975273976D+03
 0.131627600302193D+03 0.809479058523373D+01 -.401974461197192D+02 0.441189892759505D+01
 0.100080350245759D+03 -.809479058523373D+01 0.401974461197192D+02 -.441189892759505D+01
 0.000000000000000D+00 -.000000000000000D+00 -.000000000000000D+00 -.000000000000000D+00
 0.191435180677332D+03 0.000000000000000D+00 0.000000000000000D+00 0.191435180677332D+03
 0.323680590146401D+03 0.000000000000000D+00 0.000000000000000D+00 -.323680590146401D+03
 0.147194658513800D+03 0.711513499803316D+02 0.309723754146038D+02 0.441189892759505D+01
 0.145500693145317D+03 0.474441599801122D+02 0.102882394963385D+03 -.441189892759505D+01
 0.222420419164616D+03 -.118595509960444D+03 -.133854770377989D+03 -.132245409469070D+03
0.461438955317D-03 0.000000000000D+00 0.000000000000D+00 0.174578845671D-02 0.000000000000D+00  5 2 -2 25 23 21 0 0.58778855D+00 0.54047305D-03 0.13402311D+05 0.13402311D+05 0.13402311D+05 0.12534374D+01  1  2  2  2  5  2       -2 0.149925818224D+00 0.100000000000D+01
-.256354804788D-04 0.000000000000D+00 -.177204708809D-05 0.174578845671D-02 0.000000000000D+00  5 2 -2 25 23 21 2 0.58778855D+00 0.54047305D-03 0.13402311D+05 0.13402311D+05 0.13402311D+05 0.12534374D+01  1  2  3  2  5  2       -2 -.130860599087D-01 0.100000000000D+01
0.319544592256D-04 0.000000000000D+00 0.000000000000D+00 0.174578845671D-02 0.000000000000D+00  5 2 -2 25 23 21 2 0.58778855D+00 0.54047305D-03 0.13402311D+05 0.13402311D+05 0.13402311D+05 0.12534374D+01  1  2 15  2  5  2       -2 0.163116883306D-01 0.100000000000D+01
0.499035558908D-02 0.000000000000D+00 -.130359934265D-02 0.174578845671D-02 0.000000000000D+00  5 2 -2 25 23 21 2 0.58778855D+00 0.26162434D-01 0.13402311D+05 0.13402311D+05 0.13402311D+05 0.12534374D+01  1  2  5  2  5  2       -2 0.730497614851D-02 0.100000000000D+01
0.133695982035D-02 0.000000000000D+00 -.459183164553D-03 0.174578845671D-02 0.000000000000D+00  5 2 21 25 23 2 2 0.58778855D+00 0.26162434D-01 0.13402311D+05 0.13402311D+05 0.13402311D+05 0.12534374D+01  1  2  5  4  5  2       -2 0.264921305675D-01 0.100000000000D+01
  </mgrwgt>
  </event>
  <event>
  4     66 0.45228882E-03 0.18739964E+03 0.75467711E-02 0.99158712E-01
        4 -1    0    0  501    0 0.00000000E+00 0.00000000E+00 0.83249503E+03 0.83249647E+03 0.15500000E+01 0.0000E+00 0.9000E+01
       -4 -1    0    0    0  501 0.00000000E+00 0.00000000E+00 -.42180802E+02 0.42209271E+02 0.15500000E+01 0.0000E+00 0.9000E+01
       25  1    1    2    0    0 -.40406058E+02 -.14700661E+03 0.42299570E+03 0.46668400E+03 0.12500000E+03 0.0000E+00 0.9000E+01
       23  1    1    2    0    0 0.40406058E+02 0.14700661E+03 0.36731852E+03 0.40802174E+03 0.91188000E+02 0.0000E+00 0.9000E+01
#aMCatNLO 1  0  0  1  2 0.53595949D+03 0.00000000D+00  -5  5  0 0.00000000D+00 0.00000000D+00 0.00000000D+00 0.00000000D+00 0.00000000D+00
  <mgrwgt>
 0.6740025684D-02    3    2    0
 0.187425691278713D+03 0.000000000000000D+00 0.000000000000000D+00 0.187425691278713D+03
 0.187425691278713D+03 0.000000000000000D+00 0.000000000000000D+00 -.187425691278713D+03
 0.197175886951101D+03 -.404060575917617D+02 -.147006607638637D+03 0.312061138632326D+01
 0.177675495606325D+03 0.404060575917617D+02 0.147006607638637D+03 -.312061138632326D+01
 0.000000000000000D+00 -.000000000000000D+00 -.000000000000000D+00 -.000000000000000D+00
 0.474102822046988D+03 0.000000000000000D+00 0.000000000000000D+00 0.474102822046988D+03
 0.815266098673015D+03 0.000000000000000D+00 0.000000000000000D+00 -.815266098673015D+03
 0.220269108025556D+03 0.164918388930509D+03 -.754033601871636D+02 0.312061138632326D+01
 0.433769222006415D+03 0.341151185054177D+03 0.251886119777881D+03 -.312061138632326D+01
 0.635330590688032D+03 -.506069573984685D+03 -.176482759590718D+03 -.341163276626027D+03
0.508470759667D-03 0.000000000000D+00 0.000000000000D+00 0.117204663733D-02 0.000000000000D+00  5 4 -4 25 23 21 0 0.12807846D+00 0.64916551D-02 0.35118625D+05 0.35118625D+05 0.35118625D+05 0.12077828D+01  1  2  2  1  5  1        4 0.661244562618D-02 0.100000000000D+01
-.282483748734D-04 0.000000000000D+00 -.195266160055D-05 0.117204663733D-02 0.000000000000D+00  5 4 -4 25 23 21 2 0.12807846D+00 0.64916551D-02 0.35118625D+05 0.35118625D+05 0.35118625D+05 0.12077828D+01  1  2  3  1  5  1        4 -.535879641566D-03 0.100000000000D+01
0.349736337260D-04 0.000000000000D+00 0.000000000000D+00 0.117204663733D-02 0.000000000000D+00  5 4 -4 25 23 21 2 0.12807846D+00 0.64916551D-02 0.35118625D+05 0.35118625D+05 0.35118625D+05 0.12077828D+01  1  2 15  1  5  1        4 0.663459699517D-03 0.100000000000D+01
  </mgrwgt>
  </event>
  <event>
  4     66 0.45228882E-03 0.25045832E+03 0.75467711E-02 0.10610945E+00
        2 -1    0    0  501    0 0.00000000E+00 0.00000000E+00 0.22585596E+04 0.22585596E+04 0.32000000E+00 0.0000E+00 0.9000E+01
       -2 -1    0    0    0  501 0.00000000E+00 0.00000000E+00 -.28473569E+02 0.28475367E+02 0.32000000E+00 0.0000E+00 0.9000E+01
       25  1    1    2    0    0 0.18831931E+03 -.12388833E+03 0.13260017E+04 0.13508212E+04 0.12500000E+03 0.0000E+00 0.9000E+01
       23  1    1    2    0    0 -.18831931E+03 0.12388833E+03 0.90408437E+03 0.93621380E+03 0.91188000E+02 0.0000E+00 0.9000E+01
#aMCatNLO 1  0  0  2  2 0.17691766D+03 0.00000000D+00  -5  5  0 0.00000000D+00 0.00000000D+00 0.00000000D+00 0.00000000D+00 0.00000000D+00
  <mgrwgt>
 0.2552364496D+00    3    2    0
 0.253596796959059D+03 0.000000000000000D+00 0.000000000000000D+00 0.253596796959059D+03
 0.253596796959059D+03 0.000000000000000D+00 0.000000000000000D+00 -.253596796959059D+03
 0.260802870481727D+03 0.188319309790748D+03 -.123888332375921D+03 0.397574636082108D+02
 0.246390723436392D+03 -.188319309790748D+03 0.123888332375921D+03 -.397574636082108D+02
 0.000000000000000D+00 -.000000000000000D+00 0.000000000000000D+00 0.000000000000000D+00
 0.576535846904803D+03 0.000000000000000D+00 0.000000000000000D+00 0.576535846904803D+03
 0.293991556985418D+03 0.000000000000000D+00 0.000000000000000D+00 -.293991556985418D+03
 0.354841995003840D+03 0.275719488012060D+03 -.180792559128173D+03 0.397574636082108D+02
 0.182322040665803D+03 -.127456994373351D+03 0.842622919299973D+02 -.397574636082108D+02
 0.333363368220578D+03 -.148262493638709D+03 0.965302671981758D+02 0.282544289919385D+03
0.192756518566D-02 0.000000000000D+00 0.000000000000D+00 0.102357106371D-02 0.000000000000D+00  5 2 -2 25 23 21 0 0.34747085D+00 0.43806892D-02 0.62729370D+05 0.62729370D+05 0.62729370D+05 0.11826481D+01  1  2  2  2  5  2       -2 0.250686043383D+00 0.100000000000D+01
-.107066763139D-03 0.000000000000D+00 -.740235785252D-05 0.102357106371D-02 0.000000000000D+00  5 2 -2 25 23 21 2 0.34747085D+00 0.43806892D-02 0.62729370D+05 0.62729370D+05 0.62729370D+05 0.11826481D+01  1  2  3  2  5  2       -2 -.194754199394D-01 0.100000000000D+01
0.132082771139D-03 0.000000000000D+00 0.000000000000D+00 0.102357106371D-02 0.000000000000D+00  5 2 -2 25 23 21 2 0.34747085D+00 0.43806892D-02 0.62729370D+05 0.62729370D+05 0.62729370D+05 0.11826481D+01  1  2 15  2  5  2       -2 0.240258261227D-01 0.100000000000D+01
  </mgrwgt>
  </event>
  <event>
  4     66 0.45228882E-03 0.11715860E+03 0.75467711E-02 0.11206866E+00
        2 -1    0    0  501    0 0.00000000E+00 0.00000000E+00 0.11076698E+04 0.11076699E+04 0.32000000E+00 0.0000E+00 0.9000E+01
       -2 -1    0    0    0  501 0.00000000E+00 0.00000000E+00 -.12417178E+02 0.12421300E+02 0.32000000E+00 0.0000E+00 0.9000E+01
       25  1    1    2    0    0 0.36221172E+02 0.26217086E+02 0.59431054E+03 0.60895757E+03 0.12500000E+03 0.0000E+00 0.9000E+01
       23  1    1    2    0    0 -.36221172E+02 -.26217086E+02 0.50094213E+03 0.51113362E+03 0.91188000E+02 0.0000E+00 0.9000E+01
#aMCatNLO 1  0  0  1  2 0.18116581D+03 0.00000000D+00  -5  5  0 0.00000000D+00 0.00000000D+00 0.00000000D+00 0.00000000D+00 0.00000000D+00
  <mgrwgt>
 0.1570408991D+00    5    2    0
 0.117287970757817D+03 0.000000000000000D+00 0.000000000000000D+00 0.117287970757817D+03
 0.117287970757817D+03 0.000000000000000D+00 0.000000000000000D+00 -.117287970757817D+03
 0.132868743041562D+03 0.362211718780648D+02 0.262170860169794D+02 -.545838675823706D+01
 0.101707198474073D+03 -.362211718780648D+02 -.262170860169794D+02 0.545838675823706D+01
 0.000000000000000D+00 -.000000000000000D+00 -.000000000000000D+00 0.000000000000000D+00
 0.402266056676073D+03 0.000000000000000D+00 0.000000000000000D+00 0.402266056676073D+03
 0.180490048003689D+03 0.000000000000000D+00 0.000000000000000D+00 -.180490048003689D+03
 0.200189525466489D+03 0.988174468175517D+02 0.121062646282642D+03 -.545838675823706D+01
 0.962002927462723D+02 0.974336849301906D+00 0.301413613191256D+02 0.545838675823706D+01
 0.286366286467001D+03 -.997917836668535D+02 -.151204007601767D+03 0.221776008672384D+03
0.870578081091D-04 0.000000000000D+00 0.000000000000D+00 0.171760420914D-02 0.000000000000D+00  5 2 -2 25 23 21 0 0.17041107D+00 0.19106557D-02 0.13726138D+05 0.13726138D+05 0.13726138D+05 0.12522406D+01  1  2  2  1  5  1        2 0.154322591154D+00 0.100000000000D+01
-.483653773256D-05 0.000000000000D+00 -.334324905986D-06 0.171760420914D-02 0.000000000000D+00  5 2 -2 25 23 21 2 0.17041107D+00 0.19106557D-02 0.13726138D+05 0.13726138D+05 0.13726138D+05 0.12522406D+01  1  2  3  1  5  1        2 -.134441046906D-01 0.100000000000D+01
0.603274528281D-05 0.000000000000D+00 0.000000000000D+00 0.171760420914D-02 0.000000000000D+00  5 2 -2 25 23 21 2 0.17041107D+00 0.19106557D-02 0.13726138D+05 0.13726138D+05 0.13726138D+05 0.12522406D+01  1  2 15  1  5  1        2 0.167691980583D-01 0.100000000000D+01
-.122661967351D-04 0.000000000000D+00 -.325732026825D-04 0.171760420914D-02 0.000000000000D+00  5 2 -2 25 23 21 2 0.63594091D+00 0.19106557D-02 0.13726138D+05 0.13726138D+05 0.13726138D+05 0.12522406D+01  1  2  5  1  5  1        2 -.604425391434D-03 0.100000000000D+01
-.117078371184D-05 0.000000000000D+00 -.506967705720D-05 0.171760420914D-02 0.000000000000D+00  5 21 -2 25 23 -2 2 0.63594091D+00 0.19106557D-02 0.13726138D+05 0.13726138D+05 0.13726138D+05 0.12522406D+01  1  2  5  3  5  1        2 -.235998910092D-05 0.100000000000D+01
  </mgrwgt>
  </event>
  <event>
  4     66 0.45228882E-03 0.50913976E+02 0.75467711E-02 0.12261360E+00
        2 -1    0    0  501    0 0.00000000E+00 0.00000000E+00 0.16928037E+03 0.16928068E+03 0.32000000E+00 0.0000E+00 0.9000E+01
       -2 -1    0    0    0  501 0.00000000E+00 0.00000000E+00 -.17554631E+03 0.17554660E+03 0.32000000E+00 0.0000E+00 0.9000E+01
       25  1    1    2    0    0 -.10419197E+02 -.21645184E+02 -.13480770E+03 0.18540548E+03 0.12500000E+03 0.0000E+00 0.9000E+01
       23  1    1    2    0    0 0.10419197E+02 0.21645184E+02 0.12854177E+03 0.15942180E+03 0.91188000E+02 0.0000E+00 0.9000E+01
#aMCatNLO 1  0  0  2  1 0.36851983D+02 0.00000000D+00  -5  5  0 0.00000000D+00 0.00000000D+00 0.00000000D+00 0.00000000D+00 0.00000000D+00
  <mgrwgt>
 0.8416345337D-01    9    2    0
 0.172385171891493D+03 0.000000000000000D+00 0.000000000000000D+00 0.172385171891493D+03
 0.172385171891493D+03 0.000000000000000D+00 0.000000000000000D+00 -.172385171891493D+03
 0.182986067223432D+03 -.104191974861405D+02 -.216451835040372D+02 -.131460363428372D+03
 0.161784276559554D+03 0.104191974861405D+02 0.216451835040372D+02 0.131460363428372D+03
 0.000000000000000D+00 -.000000000000000D+00 -.000000000000000D+00 -.000000000000000D+00
 0.183511528100752D+03 0.000000000000000D+00 0.000000000000000D+00 0.183511528100752D+03
 0.206835604876736D+03 0.000000000000000D+00 0.000000000000000D+00 -.206835604876736D+03
 0.182913461779372D+03 0.908048614656781D+01 -.216345122139615D+02 -.131460363428372D+03
 0.163820814906275D+03 0.277714916803592D+02 0.216546796255288D+02 0.131460363428372D+03
 0.436128562918415D+02 -.368519778269270D+02 -.201674115672662D-01 -.233240767759842D+02
0.285821374980D-03 0.000000000000D+00 0.000000000000D+00 0.611841006097D-03 0.000000000000D+00  5 2 -2 25 23 21 0 0.26043180D-01 0.27007170D-01 0.12275143D+05 0.12275143D+05 0.12275143D+05 0.12578719D+01  1  2  2  2  5  2       -2 0.697275397367D-01 0.100000000000D+01
-.121060504040D-04 0.000000000000D+00 -.109762933842D-05 0.611841006097D-03 0.000000000000D+00  5 2 -2 25 23 21 2 0.26043180D-01 0.27007170D-01 0.12275143D+05 0.12275143D+05 0.12275143D+05 0.12578719D+01  1  2  3  2  5  2       -2 -.467288327872D-02 0.100000000000D+01
0.194868024892D-04 0.000000000000D+00 0.000000000000D+00 0.611841006097D-03 0.000000000000D+00  5 2 -2 25 23 21 2 0.26043180D-01 0.27007170D-01 0.12275143D+05 0.12275143D+05 0.12275143D+05 0.12578719D+01  1  2 15  2  5  2       -2 0.752182177251D-02 0.100000000000D+01
0.297558346550D-03 0.000000000000D+00 0.000000000000D+00 0.611841006097D-03 0.000000000000D+00  5 2 -2 25 23 21 2 0.26043180D-01 0.33147693D-01 0.17133088D+05 0.17133088D+05 0.17133088D+05 0.12412929D+01  1  2 12  2  5  2       -2 0.780426404029D-01 0.100000000000D+01
-.329826739954D-03 0.000000000000D+00 0.000000000000D+00 0.611841006097D-03 0.000000000000D+00  5 2 -2 25 23 21 2 0.26043180D-01 0.27007170D-01 0.12275143D+05 0.12275143D+05 0.12275143D+05 0.12578719D+01  1  2  4  2  5  2       -2 -.127311700065D+00 0.100000000000D+01
-.498346096577D-03 0.000000000000D+00 -.154468185329D-03 0.611841006097D-03 0.000000000000D+00  5 2 -2 25 23 21 2 0.26043180D-01 0.34259046D-01 0.12275143D+05 0.12275143D+05 0.12275143D+05 0.12578719D+01  1  2  5  2  5  2       -2 -.125521826914D+00 0.100000000000D+01
0.524450073478D-03 0.000000000000D+00 0.150199589220D-03 0.611841006097D-03 0.000000000000D+00  5 2 -2 25 23 21 2 0.26043180D-01 0.27007170D-01 0.12275143D+05 0.12275143D+05 0.12275143D+05 0.12578719D+01  1  2  6  2  5  2       -2 0.202435467977D+00 0.100000000000D+01
0.867341544683D-05 0.000000000000D+00 0.000000000000D+00 0.611841006097D-03 0.000000000000D+00  5 2 21 25 23 2 2 0.26043180D-01 0.33147693D-01 0.17133088D+05 0.17133088D+05 0.17133088D+05 0.12412929D+01  1  2 12  4  5  2       -2 0.296801928202D-01 0.100000000000D+01
-.138700728557D-04 0.000000000000D+00 -.503830773608D-05 0.611841006097D-03 0.000000000000D+00  5 2 21 25 23 2 2 0.26043180D-01 0.34259046D-01 0.12275143D+05 0.12275143D+05 0.12275143D+05 0.12578719D+01  1  2  5  4  5  2       -2 -.457377990780D-01 0.100000000000D+01
  </mgrwgt>
  </event>
  <event>
  5     66 0.45228882E-03 0.13488041E+03 0.75467711E-02 0.11411557E+00
        2 -1    0    0  502    0 0.00000000E+00 0.00000000E+00 0.14574663E+04 0.14574663E+04 0.32000000E+00 0.0000E+00 0.9000E+01
       -2 -1    0    0    0  501 0.00000000E+00 0.00000000E+00 -.49171701E+02 0.49172742E+02 0.32000000E+00 0.0000E+00 0.9000E+01
       25  1    1    2    0    0 -.97283988E+02 -.80246578E+02 0.18466495E+03 0.25618320E+03 0.12500000E+03 0.0000E+00 0.9000E+01
       23  1    1    2    0    0 -.27126420E+02 0.71020904E+02 0.39399230E+03 0.41149119E+03 0.91188000E+02 0.0000E+00 0.9000E+01
       21  1    1    2  502  501 0.12441041E+03 0.92256740E+01 0.82963735E+03 0.83896470E+03 0.75000000E+00 0.0000E+00 0.9000E+01
#aMCatNLO 2  0  0  1  2 0.12475200D+03 0.00000000D+00  -5  5  0 0.00000000D+00 0.00000000D+00 0.00000000D+00 0.00000000D+00 0.00000000D+00
  <mgrwgt>
 0.6535127051D-01    2    2    0
 0.154419726396394D+03 0.000000000000000D+00 0.000000000000000D+00 0.154419726396394D+03
 0.154419726396394D+03 0.000000000000000D+00 0.000000000000000D+00 -.154419726396394D+03
 0.166253947364439D+03 -.277132262784875D+02 -.750875471274056D+02 -.748946751771086D+02
 0.142585505428349D+03 0.277132262784875D+02 0.750875471274056D+02 0.748946751771086D+02
 0.000000000000000D+00 0.000000000000000D+00 0.000000000000000D+00 0.000000000000000D+00
 0.389508914729383D+03 0.000000000000000D+00 0.000000000000000D+00 0.389508914729383D+03
 0.183991903315864D+03 0.000000000000000D+00 0.000000000000000D+00 -.183991903315864D+03
 0.192711961290331D+03 -.972839880702821D+02 -.802465782424559D+02 -.748946751771086D+02
 0.140371917492758D+03 -.271264200295319D+02 0.710209042683246D+02 0.748946751771086D+02
 0.240416939262158D+03 0.124410408099814D+03 0.922567397413123D+01 0.205517011413520D+03
-.227719950216D-05 0.000000000000D+00 0.000000000000D+00 0.105966461444D-02 0.000000000000D+00  5 2 -2 25 23 21 2 0.21988308D+00 0.63490598D-02 0.44318213D+05 0.44318213D+05 0.44318213D+05 0.11975051D+01  1  2 13  1  5  1        2 -.660497221362D-03 0.100000000000D+01
0.308946976468D-03 0.000000000000D+00 0.000000000000D+00 0.105966461444D-02 0.768402921840D-06  5 2 -2 25 23 21 2 0.22422501D+00 0.75649376D-02 0.44318213D+05 0.44318213D+05 0.44318213D+05 0.11975051D+01  1  2  1  1  5  1        2 0.660117677294D-01 0.100000000000D+01
  </mgrwgt>
  </event>
  <event>
  4     66 0.45228882E-03 0.14887899E+03 0.75467711E-02 0.10878529E+00
        2 -1    0    0  501    0 0.00000000E+00 0.00000000E+00 0.97387884E+03 0.97387889E+03 0.32000000E+00 0.0000E+00 0.9000E+01
       -2 -1    0    0    0  501 0.00000000E+00 0.00000000E+00 -.22761348E+02 0.22763597E+02 0.32000000E+00 0.0000E+00 0.9000E+01
       25  1    1    2    0    0 -.54295011E+02 -.86008991E+02 0.50899515E+03 0.53389751E+03 0.12500000E+03 0.0000E+00 0.9000E+01
       23  1    1    2    0    0 0.54295011E+02 0.86008991E+02 0.44212235E+03 0.46274498E+03 0.91188000E+02 0.0000E+00 0.9000E+01
#aMCatNLO 1  0  0  2  2 0.21965429D+03 0.00000000D+00  -5  5  0 0.00000000D+00 0.00000000D+00 0.00000000D+00 0.00000000D+00 0.00000000D+00
  <mgrwgt>
 0.1988387699D+00    3    2    0
 0.148889027407236D+03 0.000000000000000D+00 0.000000000000000D+00 0.148889027407236D+03
 0.148889027407236D+03 0.000000000000000D+00 0.000000000000000D+00 -.148889027407236D+03
 0.161162847686830D+03 -.542950110984597D+02 -.860089908256710D+02 -.172300362627298D+01
 0.136615207127641D+03 0.542950110984597D+02 0.860089908256710D+02 0.172300362627298D+01
 0.000000000000000D+00 0.000000000000000D+00 -.000000000000000D+00 0.000000000000000D+00
 0.338122439135498D+03 0.000000000000000D+00 0.000000000000000D+00 0.338122439135498D+03
 0.263793811755668D+03 0.000000000000000D+00 0.000000000000000D+00 -.263793811755668D+03
 0.147952420397160D+03 -.780833046565683D+02 0.128431886146463D+02 -.172300362627298D+01
 0.222074304673219D+03 0.266916789957725D+02 0.200714550999633D+03 0.172300362627298D+01
 0.231889525820786D+03 0.513916256607958D+02 -.213557739614279D+03 0.743286273798296D+02
0.219314485697D-03 0.000000000000D+00 0.000000000000D+00 0.135427285552D-02 0.000000000000D+00  5 2 -2 25 23 21 0 0.14982769D+00 0.35019229D-02 0.22164953D+05 0.22164953D+05 0.22164953D+05 0.12289420D+01  1  2  2  2  5  2       -2 0.194859522111D+00 0.100000000000D+01
-.121841380270D-04 0.000000000000D+00 -.842225371908D-06 0.135427285552D-02 0.000000000000D+00  5 2 -2 25 23 21 2 0.14982769D+00 0.35019229D-02 0.22164953D+05 0.22164953D+05 0.22164953D+05 0.12289420D+01  1  2  3  2  5  2       -2 -.163497789354D-01 0.100000000000D+01
0.151495423133D-04 0.000000000000D+00 0.000000000000D+00 0.135427285552D-02 0.000000000000D+00  5 2 -2 25 23 21 2 0.14982769D+00 0.35019229D-02 0.22164953D+05 0.22164953D+05 0.22164953D+05 0.12289420D+01  1  2 15  2  5  2       -2 0.203290267435D-01 0.100000000000D+01
  </mgrwgt>
  </event>
  <event>
  5     66 0.45228882E-03 0.11388904E+03 0.75467711E-02 0.11847508E+00
        2 -1    0    0  501    0 0.00000000E+00 0.00000000E+00 0.85717900E+03 0.85717906E+03 0.32000000E+00 0.0000E+00 0.9000E+01
       21 -1    0    0  502  501 0.00000000E+00 0.00000000E+00 -.34929629E+02 0.34937680E+02 0.75000000E+00 0.0000E+00 0.9000E+01
       25  1    1    2    0    0 0.15156224E+02 -.83983590E+01 0.39851822E+03 0.41802155E+03 0.12500000E+03 0.0000E+00 0.9000E+01
       23  1    1    2    0    0 0.66187582E+02 0.30253633E+02 0.31919236E+03 0.33984569E+03 0.91188000E+02 0.0000E+00 0.9000E+01
        2  1    1    2  502    0 -.81343806E+02 -.21855274E+02 0.10453879E+03 0.13424950E+03 0.32000000E+00 0.0000E+00 0.9000E+01
#aMCatNLO 2  0  0  2  1 0.84228664D+02 0.00000000D+00  -5  5  0 0.00000000D+00 0.00000000D+00 0.00000000D+00 0.00000000D+00 0.00000000D+00
  <mgrwgt>
 0.5620629091D-01    2    2    0
 0.114192606576393D+03 0.000000000000000D+00 0.000000000000000D+00 0.114192606576393D+03
 0.114192606576393D+03 0.000000000000000D+00 0.000000000000000D+00 -.114192606576393D+03
 0.130195719376673D+03 -.290941995624065D+02 -.202874650248416D+02 0.823842574149087D+01
 0.981894937761132D+02 0.290941995624065D+02 0.202874650248416D+02 -.823842574149087D+01
 0.000000000000000D+00 -.000000000000000D+00 -.000000000000000D+00 -.000000000000000D+00
 0.141406913029973D+03 0.000000000000000D+00 0.000000000000000D+00 0.141406913029973D+03
 0.211761018145174D+03 0.000000000000000D+00 0.000000000000000D+00 -.211761018145174D+03
 0.126463889023551D+03 0.151562242690456D+02 -.839835901645743D+01 0.823842574149087D+01
 0.116958117780271D+03 0.661875819494356D+02 0.302536329668413D+02 -.823842574149087D+01
 0.109745924371326D+03 -.813438062184812D+02 -.218552739503838D+02 -.703541051152006D+02
-.340115297825D-06 0.000000000000D+00 0.000000000000D+00 0.177442475206D-02 0.000000000000D+00  5 2 21 25 23 2 2 0.10649443D+00 0.54696955D-02 0.26747217D+05 0.26747217D+05 0.26747217D+05 0.12201646D+01  1  2 13  4  5  2       -2 -.625725456564D-02 0.100000000000D+01
0.429332934627D-05 0.000000000000D+00 0.000000000000D+00 0.177442475206D-02 0.230215146279D-06  5 2 21 25 23 2 2 0.13187412D+00 0.53744049D-02 0.26747217D+05 0.26747217D+05 0.26747217D+05 0.12201646D+01  1  2  1  4  5  2       -2 0.624635454729D-01 0.100000000000D+01
  </mgrwgt>
  </event>
  <event>
  4     66 0.45228882E-03 0.10167347E+03 0.75467711E-02 0.11612578E+00
        2 -1    0    0  501    0 0.00000000E+00 0.00000000E+00 0.60875270E+03 0.60875278E+03 0.32000000E+00 0.0000E+00 0.9000E+01
       -2 -1    0    0    0  501 0.00000000E+00 0.00000000E+00 -.57869981E+02 0.57870866E+02 0.32000000E+00 0.0000E+00 0.9000E+01
       25  1    1    2    0    0 0.29894962E+02 -.12352198E+03 0.13902307E+03 0.22606150E+03 0.12500000E+03 0.0000E+00 0.9000E+01
       23  1    1    2    0    0 -.29894962E+02 0.12352198E+03 0.41185965E+03 0.44056215E+03 0.91188000E+02 0.0000E+00 0.9000E+01
#aMCatNLO 1  0  0  1  2 0.37560974D+02 0.00000000D+00  -5  5  0 0.00000000D+00 0.00000000D+00 0.00000000D+00 0.00000000D+00 0.00000000D+00
  <mgrwgt>
 0.2473174840D+00    9    2    0
 0.187693446300028D+03 0.000000000000000D+00 0.000000000000000D+00 0.187693446300028D+03
 0.187693446300028D+03 0.000000000000000D+00 0.000000000000000D+00 -.187693446300028D+03
 0.197429732782183D+03 0.298949617569795D+02 -.123521975092031D+03 -.848652597789968D+02
 0.177957159817873D+03 -.298949617569795D+02 0.123521975092031D+03 0.848652597789968D+02
 0.000000000000000D+00 -.000000000000000D+00 0.000000000000000D+00 0.000000000000000D+00
 0.217704423828229D+03 0.000000000000000D+00 0.000000000000000D+00 0.217704423828229D+03
 0.200762142526843D+03 0.000000000000000D+00 0.000000000000000D+00 -.200762142526843D+03
 0.208735260577474D+03 0.452758986683722D+02 -.136723771491138D+03 -.848652597789968D+02
 0.168526115579068D+03 -.167740934230262D+02 0.112260045254971D+03 0.848652597789968D+02
 0.412051901985300D+02 -.285018052453461D+02 0.244637262361662D+02 0.169422813013866D+02
0.364544850418D-03 0.000000000000D+00 0.000000000000D+00 0.960488837050D-03 0.000000000000D+00  5 2 -2 25 23 21 0 0.93654335D-01 0.89031485D-02 0.28002254D+05 0.28002254D+05 0.28002254D+05 0.12180521D+01  1  2  2  1  5  1        2 0.141515932969D+00 0.100000000000D+01
-.199280271340D-04 0.000000000000D+00 -.139994821247D-05 0.960488837050D-03 0.000000000000D+00  5 2 -2 25 23 21 2 0.93654335D-01 0.89031485D-02 0.28002254D+05 0.28002254D+05 0.28002254D+05 0.12180521D+01  1  2  3  1  5  1        2 -.114775817228D-01 0.100000000000D+01
0.250445934130D-04 0.000000000000D+00 0.000000000000D+00 0.960488837050D-03 0.000000000000D+00  5 2 -2 25 23 21 2 0.93654335D-01 0.89031485D-02 0.28002254D+05 0.28002254D+05 0.28002254D+05 0.12180521D+01  1  2 15  1  5  1        2 0.144244769279D-01 0.100000000000D+01
0.551582733263D-03 0.000000000000D+00 0.000000000000D+00 0.960488837050D-03 0.000000000000D+00  5 2 -2 25 23 21 2 0.11149275D+00 0.89031485D-02 0.34943622D+05 0.34943622D+05 0.34943622D+05 0.12080064D+01  1  2 12  1  5  1        2 0.255207468506D+00 0.100000000000D+01
-.544108916085D-03 0.000000000000D+00 0.000000000000D+00 0.960488837050D-03 0.000000000000D+00  5 2 -2 25 23 21 2 0.93654335D-01 0.89031485D-02 0.28002254D+05 0.28002254D+05 0.28002254D+05 0.12180521D+01  1  2  4  1  5  1        2 -.313380472061D+00 0.100000000000D+01
-.121191241497D-02 0.000000000000D+00 -.310387463336D-03 0.960488837050D-03 0.000000000000D+00  5 2 -2 25 23 21 2 0.11409718D+00 0.89031485D-02 0.28002254D+05 0.28002254D+05 0.28002254D+05 0.12180521D+01  1  2  5  1  5  1        2 -.552536329458D+00 0.100000000000D+01
0.125461482435D-02 0.000000000000D+00 0.304434357054D-03 0.960488837050D-03 0.000000000000D+00  5 2 -2 25 23 21 2 0.93654335D-01 0.89031485D-02 0.28002254D+05 0.28002254D+05 0.28002254D+05 0.12180521D+01  1  2  6  1  5  1        2 0.722597579795D+00 0.100000000000D+01
0.141876973538D-04 0.000000000000D+00 0.000000000000D+00 0.960488837050D-03 0.000000000000D+00  5 21 -2 25 23 -2 2 0.11149275D+00 0.89031485D-02 0.34943622D+05 0.34943622D+05 0.34943622D+05 0.12080064D+01  1  2 12  3  5  1        2 0.820062294350D-02 0.100000000000D+01
-.308434797041D-04 0.000000000000D+00 -.879486042003D-05 0.960488837050D-03 0.000000000000D+00  5 21 -2 25 23 -2 2 0.11409718D+00 0.89031485D-02 0.28002254D+05 0.28002254D+05 0.28002254D+05 0.12180521D+01  1  2  5  3  5  1        2 -.172342138501D-01 0.100000000000D+01
  </mgrwgt>
  </event>
  <event>
  5     66 -.45228882E-03 0.17788435E+03 0.75467711E-02 0.11584762E+00
        2 -1    0    0  502    0 0.00000000E+00 0.00000000E+00 0.88587750E+03 0.88587755E+03 0.32000000E+00 0.0000E+00 0.9000E+01
       -2 -1    0    0    0  501 0.00000000E+00 0.00000000E+00 -.40817903E+02 0.40819157E+02 0.32000000E+00 0.0000E+00 0.9000E+01
       25  1    1    2    0    0 -.14017289E+03 -.52134726E+02 0.45169948E+03 0.49195924E+03 0.12500000E+03 0.0000E+00 0.9000E+01
       23  1    1    2    0    0 0.12975635E+03 0.31148183E+02 0.34039819E+03 0.37681972E+03 0.91188000E+02 0.0000E+00 0.9000E+01
       21  1    1    2  502  501 0.10416541E+02 0.20986543E+02 0.52961919E+02 0.57917757E+02 0.75000000E+00 0.0000E+00 0.9000E+01
#aMCatNLO 2  0  0  1  2 0.23429454D+02 0.00000000D+00  -5  5  0 0.00000000D+00 0.00000000D+00 0.00000000D+00 0.00000000D+00 0.00000000D+00
  <mgrwgt>
 -.9015557671D-01    2    2    0
 0.178051400781499D+03 0.000000000000000D+00 0.000000000000000D+00 0.178051400781499D+03
 0.178051400781499D+03 0.000000000000000D+00 0.000000000000000D+00 -.178051400781499D+03
 0.188314937917287D+03 -.134571709424945D+03 -.408498511788508D+02 0.769808572994639D+01
 0.167787863645711D+03 0.134571709424945D+03 0.408498511788508D+02 -.769808572994639D+01
 0.000000000000000D+00 0.000000000000000D+00 0.000000000000000D+00 0.000000000000000D+00
 0.190342722172473D+03 0.000000000000000D+00 0.000000000000000D+00 0.190342722172473D+03
 0.189962544789038D+03 0.000000000000000D+00 0.000000000000000D+00 -.189962544789038D+03
 0.195065959504113D+03 -.140172887453346D+03 -.521347260119997D+02 0.769808572994639D+01
 0.161806769334941D+03 0.129756346351440D+03 0.311481831930929D+02 -.769808572994639D+01
 0.234325381224567D+02 0.104165411019063D+02 0.209865428189068D+02 0.380177383434646D+00
-.540785850448D-03 0.000000000000D+00 0.000000000000D+00 0.120213038244D-02 0.000000000000D+00  5 2 -2 25 23 21 2 0.14026733D+00 0.58858342D-02 0.36093730D+05 0.36093730D+05 0.36093730D+05 0.12065588D+01  1  2 13  1  5  1        2 -.353797781746D+00 0.100000000000D+01
0.428288350868D-03 0.000000000000D+00 0.000000000000D+00 0.120213038244D-02 0.170579520140D-04  5 2 -2 25 23 21 2 0.13628465D+00 0.62795802D-02 0.36093730D+05 0.36093730D+05 0.36093730D+05 0.12065588D+01  1  2  1  1  5  1        2 0.263642205038D+00 0.100000000000D+01
  </mgrwgt>
  </event>
  <event>
  5     66 0.45228882E-03 0.13994367E+03 0.75467711E-02 0.11274942E+00
       21 -1    0    0  501  502 0.00000000E+00 0.00000000E+00 0.21523431E+03 0.21523561E+03 0.75000000E+00 0.0000E+00 0.9000E+01
       -4 -1    0    0    0  501 0.00000000E+00 0.00000000E+00 -.34022045E+03 0.34022398E+03 0.15500000E+01 0.0000E+00 0.9000E+01
       25  1    1    2    0    0 -.45129890E+02 -.17680122E+00 -.16096584E+03 0.20873845E+03 0.12500000E+03 0.0000E+00 0.9000E+01
       23  1    1    2    0    0 0.63157487E+02 0.14285865E+03 0.77874296E+02 0.19691907E+03 0.91188000E+02 0.0000E+00 0.9000E+01
       -4  1    1    2    0  502 -.18027598E+02 -.14268185E+03 -.41894599E+02 0.14980208E+03 0.15500000E+01 0.0000E+00 0.9000E+01
#aMCatNLO 2  0  0  1  2 0.14381622D+03 0.00000000D+00  -5  5  0 0.00000000D+00 0.00000000D+00 0.00000000D+00 0.00000000D+00 0.00000000D+00
  <mgrwgt>
 0.5467875455D-02    1    2    0
 0.185047771628887D+03 0.000000000000000D+00 0.000000000000000D+00 0.185047771628887D+03
 0.185047771628887D+03 0.000000000000000D+00 0.000000000000000D+00 -.185047771628887D+03
 0.194923260254954D+03 -.539303680639441D+02 -.698293714958566D+02 -.120770243294454D+03
 0.175172283002821D+03 0.539303680639441D+02 0.698293714958566D+02 0.120770243294454D+03
 0.000000000000000D+00 -.000000000000000D+00 -.000000000000000D+00 -.000000000000000D+00
 0.264937467413036D+03 0.000000000000000D+00 0.000000000000000D+00 0.264937467413036D+03
 0.276390506146975D+03 0.000000000000000D+00 0.000000000000000D+00 -.276390506146975D+03
 0.179575025713143D+03 -.451298896054793D+02 -.176801220465563D+00 -.120770243294454D+03
 0.217481412341004D+03 0.631574874313324D+02 0.142858648620926D+03 0.120770243294454D+03
 0.144271535505865D+03 -.180275978258531D+02 -.142681847400461D+03 -.114530387339391D+02
0.295705796954D-04 0.000000000000D+00 0.000000000000D+00 0.738614492321D-03 0.222178485143D-07  5 21 -4 25 23 -4 2 0.33112832D-01 0.52341174D-01 0.52344921D+05 0.52344921D+05 0.52344921D+05 0.11903155D+01  1  2  1  3  5  1        4 0.546787545497D-02 0.100000000000D+01
  </mgrwgt>
  </event>
  <event>
  5     66 0.45228882E-03 0.14088593E+03 0.75467711E-02 0.11175817E+00
        4 -1    0    0  501    0 0.00000000E+00 0.00000000E+00 0.61854354E+02 0.61873772E+02 0.15500000E+01 0.0000E+00 0.9000E+01
       21 -1    0    0  502  501 0.00000000E+00 0.00000000E+00 -.10725298E+04 0.10725301E+04 0.75000000E+00 0.0000E+00 0.9000E+01
       25  1    1    2    0    0 0.36413764E+00 0.99095477E+02 -.45269821E+03 0.47997991E+03 0.12500000E+03 0.0000E+00 0.9000E+01
       23  1    1    2    0    0 0.13728074E+03 -.14096362E+02 -.37692079E+03 0.41161784E+03 0.91188000E+02 0.0000E+00 0.9000E+01
        4  1    1    2  502    0 -.13764488E+03 -.84999115E+02 -.18105649E+03 0.24280613E+03 0.15500000E+01 0.0000E+00 0.9000E+01
#aMCatNLO 2  0  0  2  1 0.16177442D+03 0.00000000D+00  -5  5  0 0.00000000D+00 0.00000000D+00 0.00000000D+00 0.00000000D+00 0.00000000D+00
  <mgrwgt>
 0.8831355664D-02    1    2    0
 0.141869566427184D+03 0.000000000000000D+00 0.000000000000000D+00 0.141869566427184D+03
 0.141869566427184D+03 0.000000000000000D+00 0.000000000000000D+00 -.141869566427184D+03
 0.154750674123653D+03 -.707021084863359D+02 0.552103135343821D+02 -.166073561034483D+02
 0.128988458730714D+03 0.707021084863359D+02 -.552103135343821D+02 0.166073561034483D+02
 0.000000000000000D+00 -.000000000000000D+00 -.000000000000000D+00 0.000000000000000D+00
 0.326009385613317D+03 0.000000000000000D+00 0.000000000000000D+00 0.326009385613317D+03
 0.203521991435550D+03 0.000000000000000D+00 0.000000000000000D+00 -.203521991435550D+03
 0.160377212763224D+03 0.364137644228308D+00 0.990954766915709D+02 -.166073561034483D+02
 0.166240083257590D+03 0.137280742440239D+03 -.140963617930478D+02 0.166073561034483D+02
 0.202914081028053D+03 -.137644880084467D+03 -.849991148985230D+02 0.122487394177767D+03
0.789418786740D-04 0.000000000000D+00 0.000000000000D+00 0.139359928729D-02 0.551277703134D-07  5 4 21 25 23 4 2 0.95174447D-02 0.16500396D+00 0.59218716D+05 0.59218716D+05 0.59218716D+05 0.11850716D+01  1  2  1  4  5  2       -4 0.883135566423D-02 0.100000000000D+01
  </mgrwgt>
  </event>
  <event>
  4     66 0.45228882E-03 0.70618044E+02 0.75467711E-02 0.11964035E+00
        2 -1    0    0  501    0 0.00000000E+00 0.00000000E+00 0.15257349E+03 0.15257383E+03 0.32000000E+00 0.0000E+00 0.9000E+01
       -2 -1    0    0    0  501 0.00000000E+00 0.00000000E+00 -.10565681E+03 0.10565730E+03 0.32000000E+00 0.0000E+00 0.9000E+01
       25  1    1    2    0    0 -.65192694E+02 0.96499323E+01 0.22263978E+02 0.14305206E+03 0.12500000E+03 0.0000E+00 0.9000E+01
       23  1    1    2    0    0 0.65192694E+02 -.96499323E+01 0.24652700E+02 0.11517906E+03 0.91188000E+02 0.0000E+00 0.9000E+01
#aMCatNLO 1  0  0  2  1 0.48339894D+02 0.00000000D+00  -5  5  0 0.00000000D+00 0.00000000D+00 0.00000000D+00 0.00000000D+00 0.00000000D+00
  <mgrwgt>
 0.1586705709D+00    9    2    0
 0.126966667338508D+03 0.000000000000000D+00 0.000000000000000D+00 0.126966667338508D+03
 0.126966667338508D+03 0.000000000000000D+00 0.000000000000000D+00 -.126966667338508D+03
 0.141359713972771D+03 -.651926941740233D+02 0.964993226237013D+01 -.378948124779957D+01
 0.112573620704246D+03 0.651926941740233D+02 -.964993226237013D+01 0.378948124779957D+01
 0.000000000000000D+00 0.000000000000000D+00 0.000000000000000D+00 -.000000000000000D+00
 0.147107240596900D+03 0.000000000000000D+00 0.000000000000000D+00 0.147107240596900D+03
 0.161955037282373D+03 0.000000000000000D+00 0.000000000000000D+00 -.161955037282373D+03
 0.144221814887933D+03 -.698234698987182D+02 -.168894870480027D+02 -.378948124779957D+01
 0.114271674026485D+03 0.615143411366576D+02 -.307309259087782D+02 0.378948124779957D+01
 0.505687889648545D+02 0.830912876206059D+01 0.476204129567809D+02 -.148477966854729D+02
0.176982894231D-03 0.000000000000D+00 0.000000000000D+00 0.156724187731D-02 0.000000000000D+00  5 2 -2 25 23 21 0 0.23472908D-01 0.16254957D-01 0.16105987D+05 0.16105987D+05 0.16105987D+05 0.12443157D+01  1  2  2  2  5  2       -2 0.115631353119D+00 0.100000000000D+01
-.983238057681D-05 0.000000000000D+00 -.679660914512D-06 0.156724187731D-02 0.000000000000D+00  5 2 -2 25 23 21 2 0.23472908D-01 0.16254957D-01 0.16105987D+05 0.16105987D+05 0.16105987D+05 0.12443157D+01  1  2  3  2  5  2       -2 -.994635891965D-02 0.100000000000D+01
0.122202780817D-04 0.000000000000D+00 0.000000000000D+00 0.156724187731D-02 0.000000000000D+00  5 2 -2 25 23 21 2 0.23472908D-01 0.16254957D-01 0.16105987D+05 0.16105987D+05 0.16105987D+05 0.12443157D+01  1  2 15  2  5  2       -2 0.123619372693D-01 0.100000000000D+01
0.814223787963D-04 0.000000000000D+00 0.000000000000D+00 0.156724187731D-02 0.000000000000D+00  5 2 -2 25 23 21 2 0.23472908D-01 0.21735237D-01 0.23519403D+05 0.23519403D+05 0.23519403D+05 0.12261505D+01  1  2 12  2  5  2       -2 0.496822876757D-01 0.100000000000D+01
-.909618083586D-04 0.000000000000D+00 0.000000000000D+00 0.156724187731D-02 0.000000000000D+00  5 2 -2 25 23 21 2 0.23472908D-01 0.16254957D-01 0.16105987D+05 0.16105987D+05 0.16105987D+05 0.12443157D+01  1  2  4  2  5  2       -2 -.920162504743D-01 0.100000000000D+01
-.166308385525D-03 0.000000000000D+00 -.671890685053D-04 0.156724187731D-02 0.000000000000D+00  5 2 -2 25 23 21 2 0.23472908D-01 0.23843126D-01 0.16105987D+05 0.16105987D+05 0.16105987D+05 0.12443157D+01  1  2  5  2  5  2       -2 -.881598294853D-01 0.100000000000D+01
0.183093433020D-03 0.000000000000D+00 0.625431192010D-04 0.156724187731D-02 0.000000000000D+00  5 2 -2 25 23 21 2 0.23472908D-01 0.16254957D-01 0.16105987D+05 0.16105987D+05 0.16105987D+05 0.12443157D+01  1  2  6  2  5  2       -2 0.185215877927D+00 0.100000000000D+01
0.307526545546D-05 0.000000000000D+00 0.000000000000D+00 0.156724187731D-02 0.000000000000D+00  5 2 21 25 23 2 2 0.23472908D-01 0.21735237D-01 0.23519403D+05 0.23519403D+05 0.23519403D+05 0.12261505D+01  1  2 12  4  5  2       -2 0.258179694618D-01 0.100000000000D+01
-.550905915150D-05 0.000000000000D+00 -.309882408721D-05 0.156724187731D-02 0.000000000000D+00  5 2 21 25 23 2 2 0.23472908D-01 0.23843126D-01 0.16105987D+05 0.16105987D+05 0.16105987D+05 0.12443157D+01  1  2  5  4  5  2       -2 -.399164156647D-01 0.100000000000D+01
  </mgrwgt>
  </event>
  <event>
  4     66 0.45228882E-03 0.70743690E+02 0.75467711E-02 0.12211369E+00
        2 -1    0    0  501    0 0.00000000E+00 0.00000000E+00 0.48393532E+03 0.48393542E+03 0.32000000E+00 0.0000E+00 0.9000E+01
       -2 -1    0    0    0  501 0.00000000E+00 0.00000000E+00 -.29029204E+02 0.29030968E+02 0.32000000E+00 0.0000E+00 0.9000E+01
       25  1    1    2    0    0 -.18348455E+02 0.28490854E+02 0.33099147E+03 0.35542756E+03 0.12500000E+03 0.0000E+00 0.9000E+01
       23  1    1    2    0    0 0.18348455E+02 -.28490854E+02 0.12391465E+03 0.15753884E+03 0.91188000E+02 0.0000E+00 0.9000E+01
#aMCatNLO 1  0  0  2  1 0.38773098D+02 0.00000000D+00  -5  5  0 0.00000000D+00 0.00000000D+00 0.00000000D+00 0.00000000D+00 0.00000000D+00
  <mgrwgt>
 0.1547783956D+00    6    2    0
 0.118527366988017D+03 0.000000000000000D+00 0.000000000000000D+00 0.118527366988017D+03
 0.118527366988017D+03 0.000000000000000D+00 0.000000000000000D+00 -.118527366988017D+03
 0.133945216978600D+03 -.183484550350815D+02 0.284908536332616D+02 0.341749412364935D+02
 0.103109516997434D+03 0.183484550350815D+02 -.284908536332616D+02 -.341749412364935D+02
 0.000000000000000D+00 0.000000000000000D+00 -.000000000000000D+00 0.000000000000000D+00
 0.139939177458684D+03 0.000000000000000D+00 0.000000000000000D+00 0.139939177458684D+03
 0.139048846202548D+03 0.000000000000000D+00 0.000000000000000D+00 -.139048846202548D+03
 0.140900999550107D+03 -.363541597423584D+02 0.416958047665294D+02 0.341749412364935D+02
 0.993037049354339D+02 0.508797523294805D+01 -.187659364118828D+02 -.341749412364935D+02
 0.387833191756916D+02 0.312661845094103D+02 -.229298683546467D+02 0.890331256136276D+00
0.963421791043D-04 0.000000000000D+00 0.000000000000D+00 0.159323111400D-02 0.000000000000D+00  5 2 -2 25 23 21 0 0.74451731D-01 0.44661752D-02 0.12858813D+05 0.12858813D+05 0.12858813D+05 0.12555210D+01  1  2  2  2  5  2       -2 0.134922010048D+00 0.100000000000D+01
-.533959997771D-05 0.000000000000D+00 -.369979335239D-06 0.159323111400D-02 0.000000000000D+00  5 2 -2 25 23 21 2 0.74451731D-01 0.44661752D-02 0.12858813D+05 0.12858813D+05 0.12858813D+05 0.12555210D+01  1  2  3  2  5  2       -2 -.117875355330D-01 0.100000000000D+01
0.666352236947D-05 0.000000000000D+00 0.000000000000D+00 0.159323111400D-02 0.000000000000D+00  5 2 -2 25 23 21 2 0.74451731D-01 0.44661752D-02 0.12858813D+05 0.12858813D+05 0.12858813D+05 0.12555210D+01  1  2 15  2  5  2       -2 0.147101856006D-01 0.100000000000D+01
0.420526857439D-04 0.000000000000D+00 0.000000000000D+00 0.159323111400D-02 0.000000000000D+00  5 2 -2 25 23 21 2 0.74451731D-01 0.55772106D-02 0.18050548D+05 0.18050548D+05 0.18050548D+05 0.12387598D+01  1  2 12  2  5  2       -2 0.656384638989D-01 0.100000000000D+01
-.382369872445D-04 0.000000000000D+00 0.000000000000D+00 0.159323111400D-02 0.000000000000D+00  5 2 -2 25 23 21 2 0.74451731D-01 0.44661752D-02 0.12858813D+05 0.12858813D+05 0.12858813D+05 0.12555210D+01  1  2  4  2  5  2       -2 -.844107887671D-01 0.100000000000D+01
0.130338288703D-05 0.000000000000D+00 0.000000000000D+00 0.159323111400D-02 0.000000000000D+00  5 2 21 25 23 2 2 0.74451731D-01 0.55772106D-02 0.18050548D+05 0.18050548D+05 0.18050548D+05 0.12387598D+01  1  2 12  4  5  2       -2 0.357060603256D-01 0.100000000000D+01
  </mgrwgt>
  </event>
  <event>
  4     66 0.45228882E-03 0.13052354E+03 0.75467711E-02 0.11652864E+00
        2 -1    0    0  501    0 0.00000000E+00 0.00000000E+00 0.15796249E+04 0.15796249E+04 0.32000000E+00 0.0000E+00 0.9000E+01
       -2 -1    0    0    0  501 0.00000000E+00 0.00000000E+00 -.12724794E+02 0.12728817E+02 0.32000000E+00 0.0000E+00 0.9000E+01
       25  1    1    2    0    0 -.63229807E+02 0.35556779E+02 0.11641360E+04 0.11730728E+04 0.12500000E+03 0.0000E+00 0.9000E+01
       23  1    1    2    0    0 0.63229807E+02 -.35556779E+02 0.40276409E+03 0.41928088E+03 0.91188000E+02 0.0000E+00 0.9000E+01
#aMCatNLO 1  0  0  2  1 0.89615114D+02 0.00000000D+00  -5  5  0 0.00000000D+00 0.00000000D+00 0.00000000D+00 0.00000000D+00 0.00000000D+00
  <mgrwgt>
 0.2214012863D+00    3    2    0
 0.141787271057797D+03 0.000000000000000D+00 0.000000000000000D+00 0.141787271057797D+03
 0.141787271057797D+03 0.000000000000000D+00 0.000000000000000D+00 -.141787271057797D+03
 0.154675855134255D+03 -.632298073443908D+02 0.355567794929328D+02 0.551119502176734D+02
 0.128898686981339D+03 0.632298073443908D+02 -.355567794929328D+02 -.551119502176734D+02
 0.000000000000000D+00 -.000000000000000D+00 -.000000000000000D+00 0.000000000000000D+00
 0.367354102530856D+03 0.000000000000000D+00 0.000000000000000D+00 0.367354102530856D+03
 0.157880960712121D+03 0.000000000000000D+00 0.000000000000000D+00 -.157880960712121D+03
 0.170824231733679D+03 -.568546776947263D+02 0.853588701590827D+02 0.551119502176734D+02
 0.126573464379375D+03 0.682333946013861D+02 0.353091282435007D+01 -.551119502176734D+02
 0.227837367129923D+03 -.113787169066598D+02 -.888897829834328D+02 0.209473141818735D+03
0.225168054299D-03 0.000000000000D+00 0.000000000000D+00 0.123810842388D-02 0.000000000000D+00  5 2 -2 25 23 21 0 0.24301952D+00 0.19579726D-02 0.17036396D+05 0.17036396D+05 0.17036396D+05 0.12415687D+01  1  2  2  2  5  2       -2 0.216730613194D+00 0.100000000000D+01
-.124051271885D-04 0.000000000000D+00 -.864704616618D-06 0.123810842388D-02 0.000000000000D+00  5 2 -2 25 23 21 2 0.24301952D+00 0.19579726D-02 0.17036396D+05 0.17036396D+05 0.17036396D+05 0.12415687D+01  1  2  3  2  5  2       -2 -.184058629568D-01 0.100000000000D+01
0.155530531296D-04 0.000000000000D+00 0.000000000000D+00 0.123810842388D-02 0.000000000000D+00  5 2 -2 25 23 21 2 0.24301952D+00 0.19579726D-02 0.17036396D+05 0.17036396D+05 0.17036396D+05 0.12415687D+01  1  2 15  2  5  2       -2 0.230765360253D-01 0.100000000000D+01
  </mgrwgt>
  </event>
  <event>
  4     66 0.45228882E-03 0.53835557E+02 0.75467711E-02 0.11950415E+00
        2 -1    0    0  501    0 0.00000000E+00 0.00000000E+00 0.86834970E+03 0.86834976E+03 0.32000000E+00 0.0000E+00 0.9000E+01
       -2 -1    0    0    0  501 0.00000000E+00 0.00000000E+00 -.18520073E+02 0.18522837E+02 0.32000000E+00 0.0000E+00 0.9000E+01
       25  1    1    2    0    0 -.63015344E+02 0.17843245E+02 0.49277408E+03 0.51258229E+03 0.12500000E+03 0.0000E+00 0.9000E+01
       23  1    1    2    0    0 0.63015344E+02 -.17843245E+02 0.35705555E+03 0.37429031E+03 0.91188000E+02 0.0000E+00 0.9000E+01
#aMCatNLO 1  0  0  2  1 0.50617132D+02 0.00000000D+00  -5  5  0 0.00000000D+00 0.00000000D+00 0.00000000D+00 0.00000000D+00 0.00000000D+00
  <mgrwgt>
 0.1800451823D+00    9    2    0
 0.126819367124698D+03 0.000000000000000D+00 0.000000000000000D+00 0.126819367124698D+03
 0.126819367124698D+03 0.000000000000000D+00 0.000000000000000D+00 -.126819367124698D+03
 0.141229131228024D+03 -.630153441138437D+02 0.178432452863129D+02 0.559933132514482D+01
 0.112409603021372D+03 0.630153441138437D+02 -.178432452863129D+02 -.559933132514482D+01
 0.000000000000000D+00 -.000000000000000D+00 -.000000000000000D+00 -.000000000000000D+00
 0.151284990421204D+03 0.000000000000000D+00 0.000000000000000D+00 0.151284990421204D+03
 0.158481227813321D+03 0.000000000000000D+00 0.000000000000000D+00 -.158481227813321D+03
 0.134574639036053D+03 -.389431091356681D+02 0.306172371588748D+02 0.559933132514482D+01
 0.124065461475223D+03 0.836549579726057D+02 -.689078242095492D+01 -.559933132514482D+01
 0.511261177232480D+02 -.447118488369376D+02 -.237264547379198D+02 -.719623739211636D+01
0.970769319493D-04 0.000000000000D+00 0.000000000000D+00 0.156792692879D-02 0.000000000000D+00  5 2 -2 25 23 21 0 0.13359248D+00 0.28494592D-02 0.16051388D+05 0.16051388D+05 0.16051388D+05 0.12444824D+01  1  2  2  2  5  2       -2 0.134672902054D+00 0.100000000000D+01
-.539315647936D-05 0.000000000000D+00 -.372800979629D-06 0.156792692879D-02 0.000000000000D+00  5 2 -2 25 23 21 2 0.13359248D+00 0.28494592D-02 0.16051388D+05 0.16051388D+05 0.16051388D+05 0.12444824D+01  1  2  3  2  5  2       -2 -.115873649517D-01 0.100000000000D+01
0.671223755265D-05 0.000000000000D+00 0.000000000000D+00 0.156792692879D-02 0.000000000000D+00  5 2 -2 25 23 21 2 0.13359248D+00 0.28494592D-02 0.16051388D+05 0.16051388D+05 0.16051388D+05 0.12444824D+01  1  2 15  2  5  2       -2 0.144214517904D-01 0.100000000000D+01
0.361546530266D-04 0.000000000000D+00 0.000000000000D+00 0.156792692879D-02 0.000000000000D+00  5 2 -2 25 23 21 2 0.13359248D+00 0.37770938D-02 0.23872456D+05 0.23872456D+05 0.23872456D+05 0.12254523D+01  1  2 12  2  5  2       -2 0.503010273717D-01 0.100000000000D+01
-.396308516684D-04 0.000000000000D+00 0.000000000000D+00 0.156792692879D-02 0.000000000000D+00  5 2 -2 25 23 21 2 0.13359248D+00 0.28494592D-02 0.16051388D+05 0.16051388D+05 0.16051388D+05 0.12444824D+01  1  2  4  2  5  2       -2 -.851481212134D-01 0.100000000000D+01
-.776205694198D-04 0.000000000000D+00 -.359978354260D-04 0.156792692879D-02 0.000000000000D+00  5 2 -2 25 23 21 2 0.13359248D+00 0.42718964D-02 0.16051388D+05 0.16051388D+05 0.16051388D+05 0.12444824D+01  1  2  5  2  5  2       -2 -.917568016521D-01 0.100000000000D+01
0.876728484437D-04 0.000000000000D+00 0.332356239409D-04 0.156792692879D-02 0.000000000000D+00  5 2 -2 25 23 21 2 0.13359248D+00 0.28494592D-02 0.16051388D+05 0.16051388D+05 0.16051388D+05 0.12444824D+01  1  2  6  2  5  2       -2 0.188367850100D+00 0.100000000000D+01
0.133571438597D-05 0.000000000000D+00 0.000000000000D+00 0.156792692879D-02 0.000000000000D+00  5 2 21 25 23 2 2 0.13359248D+00 0.37770938D-02 0.23872456D+05 0.23872456D+05 0.23872456D+05 0.12254523D+01  1  2 12  4  5  2       -2 0.348262600253D-01 0.100000000000D+01
-.247894617599D-05 0.000000000000D+00 -.172897964572D-05 0.156792692879D-02 0.000000000000D+00  5 2 21 25 23 2 2 0.13359248D+00 0.42718964D-02 0.16051388D+05 0.16051388D+05 0.16051388D+05 0.12444824D+01  1  2  5  4  5  2       -2 -.540520212330D-01 0.100000000000D+01
  </mgrwgt>
  </event>
  <event>
  4     66 0.45228882E-03 0.91034923E+02 0.75467711E-02 0.11632948E+00
        2 -1    0    0  501    0 0.00000000E+00 0.00000000E+00 0.16052639E+04 0.16052640E+04 0.32000000E+00 0.0000E+00 0.9000E+01
       -2 -1    0    0    0  501 0.00000000E+00 0.00000000E+00 -.20332420E+02 0.20334938E+02 0.32000000E+00 0.0000E+00 0.9000E+01
       25  1    1    2    0    0 -.11867530E+03 -.80050438E+02 0.91228186E+03 0.93186645E+03 0.12500000E+03 0.0000E+00 0.9000E+01
       23  1    1    2    0    0 0.11867530E+03 0.80050438E+02 0.67264965E+03 0.69373245E+03 0.91188000E+02 0.0000E+00 0.9000E+01
#aMCatNLO 1  0  0  1  2 0.95767126D+01 0.00000000D+00  -5  5  0 0.00000000D+00 0.00000000D+00 0.00000000D+00 0.00000000D+00 0.00000000D+00
  <mgrwgt>
 0.3403065508D+00   11    2    0
 0.180668129042974D+03 0.000000000000000D+00 0.000000000000000D+00 0.180668129042974D+03
 0.180668129042974D+03 0.000000000000000D+00 0.000000000000000D+00 -.180668129042974D+03
 0.190783013022125D+03 -.118675303426952D+03 -.800504375496822D+02 0.167707442418468D+02
 0.170553245063822D+03 0.118675303426952D+03 0.800504375496822D+02 -.167707442418468D+02
 0.000000000000000D+00 0.000000000000000D+00 -.000000000000000D+00 0.000000000000000D+00
 0.193534056779341D+03 0.000000000000000D+00 0.000000000000000D+00 0.193534056779341D+03
 0.182522502453829D+03 0.000000000000000D+00 0.000000000000000D+00 -.182522502453829D+03
 0.190317196359484D+03 -.120883092935533D+03 -.755093054533551D+02 0.167707442418468D+02
 0.171145948141363D+03 0.116695771862084D+03 0.841220731335908D+02 -.167707442418468D+02
 0.145934147323226D+02 0.418732107344906D+01 -.861276768023571D+01 0.110115543255122D+02
0.283771388928D-03 0.000000000000D+00 0.000000000000D+00 0.118565543404D-02 0.000000000000D+00  5 2 -2 25 23 21 0 0.24696388D+00 0.31282607D-02 0.32358823D+05 0.32358823D+05 0.32358823D+05 0.12114635D+01  1  2  2  1  5  1        2 0.134532035237D+00 0.100000000000D+01
-.157647159866D-04 0.000000000000D+00 -.108975685221D-05 0.118565543404D-02 0.000000000000D+00  5 2 -2 25 23 21 2 0.24696388D+00 0.31282607D-02 0.32358823D+05 0.32358823D+05 0.32358823D+05 0.12114635D+01  1  2  3  1  5  1        2 -.109689211208D-01 0.100000000000D+01
0.195549040047D-04 0.000000000000D+00 0.000000000000D+00 0.118565543404D-02 0.000000000000D+00  5 2 -2 25 23 21 2 0.24696388D+00 0.31282607D-02 0.32358823D+05 0.32358823D+05 0.32358823D+05 0.12114635D+01  1  2 15  1  5  1        2 0.136060934898D-01 0.100000000000D+01
0.188117294394D-02 0.000000000000D+00 0.000000000000D+00 0.118565543404D-02 0.000000000000D+00  5 2 -2 25 23 21 2 0.26576285D+00 0.31282607D-02 0.34128097D+05 0.34128097D+05 0.34128097D+05 0.12090655D+01  1  2 12  1  5  1        2 0.112668272104D+01 0.100000000000D+01
-.191647732409D-02 0.000000000000D+00 0.000000000000D+00 0.118565543404D-02 0.000000000000D+00  5 2 -2 25 23 21 2 0.24696388D+00 0.31282607D-02 0.32358823D+05 0.32358823D+05 0.32358823D+05 0.12114635D+01  1  2  4  1  5  1        2 -.133346446683D+01 0.100000000000D+01
-.422399762107D-02 0.000000000000D+00 -.502748274242D-03 0.118565543404D-02 0.000000000000D+00  5 2 -2 25 23 21 2 0.26565437D+00 0.31282607D-02 0.32358823D+05 0.32358823D+05 0.32358823D+05 0.12114635D+01  1  2  5  1  5  1        2 -.254138112812D+01 0.100000000000D+01
0.425069332906D-02 0.000000000000D+00 0.501413348595D-03 0.118565543404D-02 0.000000000000D+00  5 2 -2 25 23 21 2 0.24696388D+00 0.31282607D-02 0.32358823D+05 0.32358823D+05 0.32358823D+05 0.12114635D+01  1  2  6  1  5  1        2 0.295758704914D+01 0.100000000000D+01
0.999556396945D-08 0.000000000000D+00 0.000000000000D+00 0.118565543404D-02 0.101032347577D-03  5 2 -2 25 23 21 2 0.26455093D+00 0.31603691D-02 0.34128097D+05 0.34128097D+05 0.34128097D+05 0.12090655D+01  1  2 11  1  5  1        2 0.595233035758D-05 0.100000000000D+01
0.255854448374D-04 0.000000000000D+00 0.000000000000D+00 0.118565543404D-02 0.000000000000D+00  5 21 -2 25 23 -2 2 0.26576285D+00 0.31282607D-02 0.34128097D+05 0.34128097D+05 0.34128097D+05 0.12090655D+01  1  2 12  3  5  1        2 0.621381966385D-02 0.100000000000D+01
-.510458791136D-04 0.000000000000D+00 -.618440375952D-05 0.118565543404D-02 0.000000000000D+00  5 21 -2 25 23 -2 2 0.26565437D+00 0.31282607D-02 0.32358823D+05 0.32358823D+05 0.32358823D+05 0.12114635D+01  1  2  5  3  5  1        2 -.125066342646D-01 0.100000000000D+01
0.124262645865D-09 0.000000000000D+00 0.000000000000D+00 0.118565543404D-02 0.118813763637D-05  5 21 -2 25 23 -2 2 0.26455093D+00 0.31603691D-02 0.34128097D+05 0.34128097D+05 0.34128097D+05 0.12090655D+01  1  2 11  3  5  1        2 0.302097133649D-07 0.100000000000D+01
  </mgrwgt>
  </event>
  <event>
  4     66 0.45228882E-03 0.11180855E+03 0.75467711E-02 0.12518149E+00
        2 -1    0    0  501    0 0.00000000E+00 0.00000000E+00 0.70260246E+02 0.70260975E+02 0.32000000E+00 0.0000E+00 0.9000E+01
       -2 -1    0    0    0  501 0.00000000E+00 0.00000000E+00 -.18368151E+03 0.18368179E+03 0.32000000E+00 0.0000E+00 0.9000E+01
       25  1    1    2    0    0 -.27256814E+02 0.74316790E+01 -.42496243E+02 0.13501516E+03 0.12500000E+03 0.0000E+00 0.9000E+01
       23  1    1    2    0    0 0.27256814E+02 -.74316790E+01 -.70925019E+02 0.11892760E+03 0.91188000E+02 0.0000E+00 0.9000E+01
#aMCatNLO 1  0  0  2  2 0.60394438D+01 0.00000000D+00  -5  5  0 0.00000000D+00 0.00000000D+00 0.00000000D+00 0.00000000D+00 0.00000000D+00
  <mgrwgt>
 0.1032506034D-01    6    2    0
 0.113602974567790D+03 0.000000000000000D+00 0.000000000000000D+00 0.113602974567790D+03
 0.113602974567790D+03 0.000000000000000D+00 0.000000000000000D+00 -.113602974567790D+03
 0.129689148111683D+03 -.272568144625815D+02 0.743167901614238D+01 0.199025463267294D+02
 0.975168010238963D+02 0.272568144625815D+02 -.743167901614238D+01 -.199025463267294D+02
 0.000000000000000D+00 0.000000000000000D+00 0.000000000000000D+00 0.000000000000000D+00
 0.117813473503001D+03 0.000000000000000D+00 0.000000000000000D+00 0.117813473503001D+03
 0.115829650140141D+03 0.000000000000000D+00 0.000000000000000D+00 -.115829650140141D+03
 0.130337098712836D+03 -.304729192502574D+02 0.616839873542298D+01 0.199025463267294D+02
 0.969491045725795D+02 0.248515852302779D+02 -.837644881077798D+01 -.199025463267294D+02
 0.635692035772673D+01 0.562133401997947D+01 0.220805007535500D+01 0.198382336285941D+01
0.161370742088D-03 0.000000000000D+00 0.000000000000D+00 0.175371440055D-02 0.000000000000D+00  5 2 -2 25 23 21 0 0.10809346D-01 0.28258771D-01 0.12501152D+05 0.12501152D+05 0.12501152D+05 0.12569469D+01  1  2  2  2  5  2       -2 0.998529646015D-01 0.100000000000D+01
-.896227804122D-05 0.000000000000D+00 -.619706139508D-06 0.175371440055D-02 0.000000000000D+00  5 2 -2 25 23 21 2 0.10809346D-01 0.28258771D-01 0.12501152D+05 0.12501152D+05 0.12501152D+05 0.12569469D+01  1  2  3  2  5  2       -2 -.876170189811D-02 0.100000000000D+01
0.111384437876D-04 0.000000000000D+00 0.000000000000D+00 0.175371440055D-02 0.000000000000D+00  5 2 -2 25 23 21 2 0.10809346D-01 0.28258771D-01 0.12501152D+05 0.12501152D+05 0.12501152D+05 0.12569469D+01  1  2 15  2  5  2       -2 0.108891649675D-01 0.100000000000D+01
-.140825897117D-03 0.000000000000D+00 0.000000000000D+00 0.175371440055D-02 0.000000000000D+00  5 2 -2 25 23 21 2 0.10809346D-01 0.28258771D-01 0.12501152D+05 0.12501152D+05 0.12501152D+05 0.12569469D+01  1  2  4  2  5  2       -2 -.137674207874D+00 0.100000000000D+01
0.435258720110D-04 0.000000000000D+00 0.000000000000D+00 0.175371440055D-02 0.403730119798D-03  5 2 -2 25 23 21 2 0.11209976D-01 0.28812657D-01 0.13194226D+05 0.13194226D+05 0.13194226D+05 0.12542237D+01  1  2 11  2  5  2       -2 0.392528924747D-01 0.100000000000D+01
0.561466862127D-06 0.000000000000D+00 0.000000000000D+00 0.175371440055D-02 0.145971365493D-05  5 2 21 25 23 2 2 0.11209976D-01 0.28812657D-01 0.13194226D+05 0.13194226D+05 0.13194226D+05 0.12542237D+01  1  2 11  4  5  2       -2 0.676594807202D-02 0.100000000000D+01
  </mgrwgt>
  </event>
  <event>
  4     66 -.45228882E-03 0.39147187E+02 0.75467711E-02 0.12507637E+00
        4 -1    0    0  501    0 0.00000000E+00 0.00000000E+00 0.89269481E+02 0.89282936E+02 0.15500000E+01 0.0000E+00 0.9000E+01
       -4 -1    0    0    0  501 0.00000000E+00 0.00000000E+00 -.16419394E+03 0.16420125E+03 0.15500000E+01 0.0000E+00 0.9000E+01
       25  1    1    2    0    0 0.30008015E+02 -.20291529E+02 -.84075874E+02 0.15493863E+03 0.12500000E+03 0.0000E+00 0.9000E+01
       23  1    1    2    0    0 -.30008015E+02 0.20291529E+02 0.91514168E+01 0.98545557E+02 0.91188000E+02 0.0000E+00 0.9000E+01
#aMCatNLO 1  0  0  2  1 0.26723873D+01 0.00000000D+00  -5  5  0 0.00000000D+00 0.00000000D+00 0.00000000D+00 0.00000000D+00 0.00000000D+00
  <mgrwgt>
 -.1853922575D-01   11    2    0
 0.121079065081701D+03 0.000000000000000D+00 0.000000000000000D+00 0.121079065081701D+03
 0.121079065081701D+03 0.000000000000000D+00 0.000000000000000D+00 -.121079065081701D+03
 0.136171989385063D+03 0.300080149885229D+02 -.202915291326274D+02 -.400697339022115D+02
 0.105986140778338D+03 -.300080149885229D+02 0.202915291326274D+02 0.400697339022115D+02
 0.000000000000000D+00 -.000000000000000D+00 0.000000000000000D+00 -.000000000000000D+00
 0.121450194559707D+03 0.000000000000000D+00 0.000000000000000D+00 0.121450194559707D+03
 0.125994699662685D+03 0.000000000000000D+00 0.000000000000000D+00 -.125994699662685D+03
 0.136525223620859D+03 0.306575138918001D+02 -.216487863795060D+02 -.400697339022115D+02
 0.105647651941932D+03 -.295039544051636D+02 0.192381942059966D+02 0.400697339022115D+02
 0.527201865960096D+01 -.115355948663646D+01 0.241059217350940D+01 -.454450510297733D+01
0.162575473945D-03 0.000000000000D+00 0.000000000000D+00 0.151877722917D-02 0.000000000000D+00  5 4 -4 25 23 21 0 0.13735364D-01 0.25262204D-01 0.13025978D+05 0.13025978D+05 0.13025978D+05 0.12548697D+01  1  2  2  2  5  2       -4 0.166920148601D-01 0.100000000000D+01
-.899362300840D-05 0.000000000000D+00 -.624332627054D-06 0.151877722917D-02 0.000000000000D+00  5 4 -4 25 23 21 2 0.13735364D-01 0.25262204D-01 0.13025978D+05 0.13025978D+05 0.13025978D+05 0.12548697D+01  1  2  3  2  5  2       -4 -.145407130376D-02 0.100000000000D+01
0.112274816811D-04 0.000000000000D+00 0.000000000000D+00 0.151877722917D-02 0.000000000000D+00  5 4 -4 25 23 21 2 0.13735364D-01 0.25262204D-01 0.13025978D+05 0.13025978D+05 0.13025978D+05 0.12548697D+01  1  2 15  2  5  2       -4 0.181523718648D-02 0.100000000000D+01
0.839267189418D-05 0.000000000000D+00 0.000000000000D+00 0.151877722917D-02 0.000000000000D+00  5 4 -4 25 23 21 2 0.13735364D-01 0.26325641D-01 0.13333209D+05 0.13333209D+05 0.13333209D+05 0.12536970D+01  1  2 12  2  5  2       -4 0.125831427302D-02 0.100000000000D+01
-.323050551623D-02 0.000000000000D+00 0.000000000000D+00 0.151877722917D-02 0.000000000000D+00  5 4 -4 25 23 21 2 0.13735364D-01 0.25262204D-01 0.13025978D+05 0.13025978D+05 0.13025978D+05 0.12548697D+01  1  2  4  2  5  2       -4 -.522301786878D+00 0.100000000000D+01
-.551317117180D-02 0.000000000000D+00 -.440086330445D-03 0.151877722917D-02 0.000000000000D+00  5 4 -4 25 23 21 2 0.13735364D-01 0.26347812D-01 0.13025978D+05 0.13025978D+05 0.13025978D+05 0.12548697D+01  1  2  5  2  5  2       -4 -.824731740909D+00 0.100000000000D+01
0.552718413879D-02 0.000000000000D+00 0.439697057353D-03 0.151877722917D-02 0.000000000000D+00  5 4 -4 25 23 21 2 0.13735364D-01 0.25262204D-01 0.13025978D+05 0.13025978D+05 0.13025978D+05 0.12548697D+01  1  2  6  2  5  2       -4 0.893624275702D+00 0.100000000000D+01
0.322472917600D-02 0.000000000000D+00 0.000000000000D+00 0.151877722917D-02 0.178423237222D-02  5 4 -4 25 23 21 2 0.13777465D-01 0.26287812D-01 0.13333209D+05 0.13333209D+05 0.13333209D+05 0.12536970D+01  1  2 11  2  5  2       -4 0.482219003796D+00 0.100000000000D+01
0.177958277861D-06 0.000000000000D+00 0.000000000000D+00 0.151877722917D-02 0.000000000000D+00  5 4 21 25 23 4 2 0.13735364D-01 0.26325641D-01 0.13333209D+05 0.13333209D+05 0.13333209D+05 0.12536970D+01  1  2 12  4  5  2       -4 0.677041251302D-03 0.100000000000D+01
-.405995952660D-04 0.000000000000D+00 -.326295837748D-05 0.151877722917D-02 0.000000000000D+00  5 4 21 25 23 4 2 0.13735364D-01 0.26347812D-01 0.13025978D+05 0.13025978D+05 0.13025978D+05 0.12548697D+01  1  2  5  4  5  2       -4 -.154313182328D+00 0.100000000000D+01
0.231833780753D-04 0.000000000000D+00 0.000000000000D+00 0.151877722917D-02 0.125595389546D-04  5 4 21 25 23 4 2 0.13777465D-01 0.26287812D-01 0.13333209D+05 0.13333209D+05 0.13333209D+05 0.12536970D+01  1  2 11  4  5  2       -4 0.879756685995D-01 0.100000000000D+01
  </mgrwgt>
  </event>
  <event>
  4     66 0.45228882E-03 0.80412994E+03 0.75467711E-02 0.93853977E-01
        2 -1    0    0  501    0 0.00000000E+00 0.00000000E+00 0.18196518E+04 0.18196518E+04 0.32000000E+00 0.0000E+00 0.9000E+01
       -2 -1    0    0    0  501 0.00000000E+00 0.00000000E+00 -.35538709E+03 0.35538723E+03 0.32000000E+00 0.0000E+00 0.9000E+01
       25  1    1    2    0    0 0.78507730E+03 0.13532785E+03 0.74431817E+03 0.10974035E+04 0.12500000E+03 0.0000E+00 0.9000E+01
       23  1    1    2    0    0 -.78507730E+03 -.13532785E+03 0.71994650E+03 0.10776355E+04 0.91188000E+02 0.0000E+00 0.9000E+01
#aMCatNLO 1  0  0  2  1 0.23971794D+03 0.00000000D+00  -5  5  0 0.00000000D+00 0.00000000D+00 0.00000000D+00 0.00000000D+00 0.00000000D+00
  <mgrwgt>
 0.5380232938D-01    4    2    0
 0.804164735289158D+03 0.000000000000000D+00 0.000000000000000D+00 0.804164735289158D+03
 0.804164735289158D+03 0.000000000000000D+00 0.000000000000000D+00 -.804164735289158D+03
 0.806437201469043D+03 0.785077300196942D+03 0.135327854017780D+03 0.748094617301371D+01
 0.801892269109274D+03 -.785077300196942D+03 -.135327854017780D+03 -.748094617301371D+01
 0.000000000000000D+00 0.000000000000000D+00 0.000000000000000D+00 0.000000000000000D+00
 0.144400766277334D+04 0.000000000000000D+00 0.000000000000000D+00 0.144400766277334D+04
 0.835816792985555D+03 0.000000000000000D+00 0.000000000000000D+00 -.835816792985555D+03
 0.698298915646334D+03 0.673554632874291D+03 0.135146467104329D+03 0.748094617301371D+01
 0.927797137974115D+03 -.913272253533658D+03 -.135536357701058D+03 -.748094617301371D+01
 0.653728402138448D+03 0.239717620659367D+03 0.389890596729330D+00 0.608190869787785D+03
0.201615655521D-01 0.000000000000D+00 0.000000000000D+00 0.926424851383D-03 0.000000000000D+00  5 2 -2 25 23 21 0 0.27994644D+00 0.54674949D-01 0.64662496D+06 0.64662496D+06 0.64662496D+06 0.10957182D+01  1  2  2  2  5  2       -2 0.546036383943D-01 0.100000000000D+01
-.112008697256D-02 0.000000000000D+00 -.774257203820D-04 0.926424851383D-03 0.000000000000D+00  5 2 -2 25 23 21 2 0.27994644D+00 0.54674949D-01 0.64662496D+06 0.64662496D+06 0.64662496D+06 0.10957182D+01  1  2  3  2  5  2       -2 -.364205770389D-02 0.100000000000D+01
0.138847461505D-02 0.000000000000D+00 0.000000000000D+00 0.926424851383D-03 0.000000000000D+00  5 2 -2 25 23 21 2 0.27994644D+00 0.54674949D-01 0.64662496D+06 0.64662496D+06 0.64662496D+06 0.10957182D+01  1  2 15  2  5  2       -2 0.451474286576D-02 0.100000000000D+01
-.514824095827D-03 0.000000000000D+00 0.000000000000D+00 0.926424851383D-03 0.000000000000D+00  5 2 -2 25 23 21 2 0.27994644D+00 0.54674949D-01 0.64662496D+06 0.64662496D+06 0.64662496D+06 0.10957182D+01  1  2  4  2  5  2       -2 -.167399417214D-02 0.100000000000D+01
  </mgrwgt>
  </event>
  <event>
  4     66 0.45228882E-03 0.95780705E+02 0.75467711E-02 0.11962685E+00
        2 -1    0    0  501    0 0.00000000E+00 0.00000000E+00 0.34077458E+04 0.34077458E+04 0.32000000E+00 0.0000E+00 0.9000E+01
       -2 -1    0    0    0  501 0.00000000E+00 0.00000000E+00 -.52400995E+01 0.52498612E+01 0.32000000E+00 0.0000E+00 0.9000E+01
       25  1    1    2    0    0 -.68779455E+02 0.36613839E+02 0.18193497E+04 0.18253025E+04 0.12500000E+03 0.0000E+00 0.9000E+01
       23  1    1    2    0    0 0.68779455E+02 -.36613839E+02 0.15831561E+04 0.15876932E+04 0.91188000E+02 0.0000E+00 0.9000E+01
#aMCatNLO 1  0  0  1  2 0.37141735D+02 0.00000000D+00  -5  5  0 0.00000000D+00 0.00000000D+00 0.00000000D+00 0.00000000D+00 0.00000000D+00
  <mgrwgt>
 0.3171766780D+00    9    2    0
 0.133692224981674D+03 0.000000000000000D+00 0.000000000000000D+00 0.133692224981674D+03
 0.133692224981674D+03 0.000000000000000D+00 0.000000000000000D+00 -.133692224981674D+03
 0.147361211074549D+03 -.687794553553438D+02 0.366138388390675D+02 -.437491209590729D+01
 0.120023238888800D+03 0.687794553553438D+02 -.366138388390675D+02 0.437491209590729D+01
 0.000000000000000D+00 0.000000000000000D+00 -.000000000000000D+00 0.000000000000000D+00
 0.211274861782616D+03 0.000000000000000D+00 0.000000000000000D+00 0.211274861782616D+03
 0.139495954678706D+03 0.000000000000000D+00 0.000000000000000D+00 -.139495954678706D+03
 0.158774525586965D+03 -.822270677677379D+02 0.529520485518631D+02 -.437491209590729D+01
 0.111177234038676D+03 0.586235213131561D+02 -.242748618428497D+02 0.437491209590729D+01
 0.808190568356810D+02 0.236035464545818D+02 -.286771867090133D+02 0.717789071039106D+02
0.654662819637D-03 0.000000000000D+00 0.000000000000D+00 0.148650295560D-02 0.000000000000D+00  5 2 -2 25 23 21 0 0.52426934D+00 0.80692121D-03 0.17854269D+05 0.17854269D+05 0.17854269D+05 0.12392894D+01  1  2  2  1  5  1        2 0.226168262335D+00 0.100000000000D+01
-.363701436859D-04 0.000000000000D+00 -.251407760409D-05 0.148650295560D-02 0.000000000000D+00  5 2 -2 25 23 21 2 0.52426934D+00 0.80692121D-03 0.17854269D+05 0.17854269D+05 0.17854269D+05 0.12392894D+01  1  2  3  1  5  1        2 -.192976520722D-01 0.100000000000D+01
0.453801644328D-04 0.000000000000D+00 0.000000000000D+00 0.148650295560D-02 0.000000000000D+00  5 2 -2 25 23 21 2 0.52426934D+00 0.80692121D-03 0.17854269D+05 0.17854269D+05 0.17854269D+05 0.12392894D+01  1  2 15  1  5  1        2 0.240782833240D-01 0.100000000000D+01
0.906783511422D-03 0.000000000000D+00 0.000000000000D+00 0.148650295560D-02 0.000000000000D+00  5 2 -2 25 23 21 2 0.83440211D+00 0.80692121D-03 0.23554130D+05 0.23554130D+05 0.23554130D+05 0.12260813D+01  1  2 12  1  5  1        2 0.565787907581D-02 0.100000000000D+01
-.897724663596D-03 0.000000000000D+00 0.000000000000D+00 0.148650295560D-02 0.000000000000D+00  5 2 -2 25 23 21 2 0.52426934D+00 0.80692121D-03 0.17854269D+05 0.17854269D+05 0.17854269D+05 0.12392894D+01  1  2  4  1  5  1        2 -.476324162048D+00 0.100000000000D+01
-.105167844856D-02 0.000000000000D+00 -.154345120710D-03 0.148650295560D-02 0.000000000000D+00  5 2 -2 25 23 21 2 0.83096344D+00 0.80692121D-03 0.17854269D+05 0.17854269D+05 0.17854269D+05 0.12392894D+01  1  2  5  1  5  1        2 -.743407982904D-02 0.100000000000D+01
0.106358619262D-02 0.000000000000D+00 0.144683756678D-03 0.148650295560D-02 0.000000000000D+00  5 2 -2 25 23 21 2 0.52426934D+00 0.80692121D-03 0.17854269D+05 0.17854269D+05 0.17854269D+05 0.12392894D+01  1  2  6  1  5  1        2 0.564328710691D+00 0.100000000000D+01
0.482915704773D-04 0.000000000000D+00 0.000000000000D+00 0.148650295560D-02 0.000000000000D+00  5 21 -2 25 23 -2 2 0.83440211D+00 0.80692121D-03 0.23554130D+05 0.23554130D+05 0.23554130D+05 0.12260813D+01  1  2 12  3  5  1        2 0.255627684240D-05 0.100000000000D+01
-.493056215875D-04 0.000000000000D+00 -.816376994264D-05 0.148650295560D-02 0.000000000000D+00  5 21 -2 25 23 -2 2 0.83096344D+00 0.80692121D-03 0.17854269D+05 0.17854269D+05 0.17854269D+05 0.12392894D+01  1  2  5  3  5  1        2 -.311970878226D-05 0.100000000000D+01
  </mgrwgt>
  </event>
  <event>
  5     66 -.45228882E-03 0.16992951E+03 0.75467711E-02 0.11614381E+00
        2 -1    0    0  502    0 0.00000000E+00 0.00000000E+00 0.63566325E+03 0.63566334E+03 0.32000000E+00 0.0000E+00 0.9000E+01
       -2 -1    0    0    0  501 0.00000000E+00 0.00000000E+00 -.55587671E+02 0.55588592E+02 0.32000000E+00 0.0000E+00 0.9000E+01
       25  1    1    2    0    0 -.12314502E+03 0.15839546E+02 0.23436884E+03 0.29320528E+03 0.12500000E+03 0.0000E+00 0.9000E+01
       23  1    1    2    0    0 0.12936002E+03 -.47327513E+02 0.28861147E+03 0.33254434E+03 0.91188000E+02 0.0000E+00 0.9000E+01
       21  1    1    2  502  501 -.62150012E+01 0.31487967E+02 0.57095281E+02 0.65502304E+02 0.75000000E+00 0.0000E+00 0.9000E+01
#aMCatNLO 2  0  0  1  2 0.32095456D+02 0.00000000D+00  -5  5  0 0.00000000D+00 0.00000000D+00 0.00000000D+00 0.00000000D+00 0.00000000D+00
  <mgrwgt>
 -.4562984982D-01    2    2    0
 0.171043908301470D+03 0.000000000000000D+00 0.000000000000000D+00 0.171043908301470D+03
 0.171043908301470D+03 0.000000000000000D+00 0.000000000000000D+00 -.171043908301470D+03
 0.181727931966195D+03 -.126398839869095D+03 0.323248627264804D+02 -.194545055493842D+02
 0.160359884636744D+03 0.126398839869095D+03 -.323248627264804D+02 0.194545055493842D+02
 0.000000000000000D+00 -.000000000000000D+00 0.000000000000000D+00 0.000000000000000D+00
 0.190125414839108D+03 0.000000000000000D+00 0.000000000000000D+00 0.190125414839108D+03
 0.185844438907358D+03 0.000000000000000D+00 0.000000000000000D+00 -.185844438907358D+03
 0.177254236096758D+03 -.123145017048827D+03 0.158395455780257D+02 -.194545055493842D+02
 0.166335915965806D+03 0.129360018294815D+03 -.473275128944878D+02 0.194545055493842D+02
 0.323797016839012D+02 -.621500124598746D+01 0.314879673164621D+02 0.428097593174974D+01
-.361913996543D-03 0.000000000000D+00 0.000000000000D+00 0.121827234136D-02 0.000000000000D+00  5 2 -2 25 23 21 2 0.10122757D+00 0.78707665D-02 0.34870549D+05 0.34870549D+05 0.34870549D+05 0.12081002D+01  1  2 13  1  5  1        2 -.227904829981D+00 0.100000000000D+01
0.316336468935D-03 0.000000000000D+00 0.000000000000D+00 0.121827234136D-02 0.928383678099D-05  5 2 -2 25 23 21 2 0.97792162D-01 0.85518286D-02 0.34870549D+05 0.34870549D+05 0.34870549D+05 0.12081002D+01  1  2  1  1  5  1        2 0.182274980160D+00 0.100000000000D+01
  </mgrwgt>
  </event>
  <event>
  4     66 0.45228882E-03 0.13182266E+03 0.75467711E-02 0.12117521E+00
        2 -1    0    0  501    0 0.00000000E+00 0.00000000E+00 0.24843193E+03 0.24843214E+03 0.32000000E+00 0.0000E+00 0.9000E+01
       -2 -1    0    0    0  501 0.00000000E+00 0.00000000E+00 -.74243919E+02 0.74244609E+02 0.32000000E+00 0.0000E+00 0.9000E+01
       25  1    1    2    0    0 0.65349817E+02 -.36450894E+02 0.57112103E+02 0.15648022E+03 0.12500000E+03 0.0000E+00 0.9000E+01
       23  1    1    2    0    0 -.65349817E+02 0.36450894E+02 0.11707591E+03 0.16619653E+03 0.91188000E+02 0.0000E+00 0.9000E+01
#aMCatNLO 1  0  0  1  2 0.18066556D+02 0.00000000D+00  -5  5  0 0.00000000D+00 0.00000000D+00 0.00000000D+00 0.00000000D+00 0.00000000D+00
  <mgrwgt>
 0.1638951300D+00    4    2    0
 0.135811283594495D+03 0.000000000000000D+00 0.000000000000000D+00 0.135811283594495D+03
 0.135811283594495D+03 0.000000000000000D+00 0.000000000000000D+00 -.135811283594495D+03
 0.149266992985008D+03 0.653498171580117D+02 -.364508937162450D+02 -.325018297867641D+02
 0.122355574203983D+03 -.653498171580117D+02 0.364508937162450D+02 0.325018297867641D+02
 0.000000000000000D+00 0.000000000000000D+00 0.000000000000000D+00 -.000000000000000D+00
 0.137410169112588D+03 0.000000000000000D+00 0.000000000000000D+00 0.137410169112588D+03
 0.198938692181900D+03 0.000000000000000D+00 0.000000000000000D+00 -.198938692181900D+03
 0.147289631839547D+03 0.571092508203605D+02 -.418497333166982D+02 -.325018297867641D+02
 0.124933106843984D+03 -.722213506532813D+02 0.319489813925010D+02 0.325018297867641D+02
 0.641261226109565D+02 0.151120998329208D+02 0.990075192419716D+01 -.615285230693113D+02
0.252538995109D-03 0.000000000000D+00 0.000000000000D+00 0.139910764371D-02 0.000000000000D+00  5 2 -2 25 23 21 0 0.38220366D-01 0.11422210D-01 0.17377213D+05 0.17377213D+05 0.17377213D+05 0.12406043D+01  1  2  2  1  5  1        2 0.172523992441D+00 0.100000000000D+01
-.140147867390D-04 0.000000000000D+00 -.969816236262D-06 0.139910764371D-02 0.000000000000D+00  5 2 -2 25 23 21 2 0.38220366D-01 0.11422210D-01 0.17377213D+05 0.17377213D+05 0.17377213D+05 0.12406043D+01  1  2  3  1  5  1        2 -.147358122724D-01 0.100000000000D+01
0.174632270903D-04 0.000000000000D+00 0.000000000000D+00 0.139910764371D-02 0.000000000000D+00  5 2 -2 25 23 21 2 0.38220366D-01 0.11422210D-01 0.17377213D+05 0.17377213D+05 0.17377213D+05 0.12406043D+01  1  2 15  1  5  1        2 0.183616662076D-01 0.100000000000D+01
-.116550912810D-04 0.000000000000D+00 0.000000000000D+00 0.139910764371D-02 0.000000000000D+00  5 2 -2 25 23 21 2 0.38220366D-01 0.11422210D-01 0.17377213D+05 0.17377213D+05 0.17377213D+05 0.12406043D+01  1  2  4  1  5  1        2 -.122547164172D-01 0.100000000000D+01
  </mgrwgt>
  </event>
  <event>
  5     66 0.45228882E-03 0.10996348E+03 0.75467711E-02 0.11924047E+00
        2 -1    0    0  501    0 0.00000000E+00 0.00000000E+00 0.16830170E+04 0.16830170E+04 0.32000000E+00 0.0000E+00 0.9000E+01
       21 -1    0    0  502  501 0.00000000E+00 0.00000000E+00 -.15489921E+02 0.15508067E+02 0.75000000E+00 0.0000E+00 0.9000E+01
       25  1    1    2    0    0 0.64703673E+02 0.13433973E+01 0.92301775E+03 0.93368900E+03 0.12500000E+03 0.0000E+00 0.9000E+01
       23  1    1    2    0    0 0.14183495E+02 -.12351034E+02 0.46333565E+03 0.47259802E+03 0.91188000E+02 0.0000E+00 0.9000E+01
        2  1    1    2  502    0 -.78887168E+02 0.11007637E+02 0.28117368E+03 0.29223808E+03 0.32000000E+00 0.0000E+00 0.9000E+01
#aMCatNLO 2  0  0  2  1 0.79651449D+02 0.00000000D+00  -5  5  0 0.00000000D+00 0.00000000D+00 0.00000000D+00 0.00000000D+00 0.00000000D+00
  <mgrwgt>
 0.5214787514D-01    2    2    0
 0.111044003093734D+03 0.000000000000000D+00 0.000000000000000D+00 0.111044003093734D+03
 0.111044003093734D+03 0.000000000000000D+00 0.000000000000000D+00 -.111044003093734D+03
 0.127500877063393D+03 0.183580575996927D+02 0.781030061964135D+01 0.152792204425343D+02
 0.945871291240746D+02 -.183580575996927D+02 -.781030061964135D+01 -.152792204425343D+02
 0.000000000000000D+00 -.000000000000000D+00 0.000000000000000D+00 -.000000000000000D+00
 0.142192152872603D+03 0.000000000000000D+00 0.000000000000000D+00 0.142192152872603D+03
 0.183449926282821D+03 0.000000000000000D+00 0.000000000000000D+00 -.183449926282821D+03
 0.141586809440090D+03 0.647036731096076D+02 0.134339726731726D+01 0.152792204425343D+02
 0.943526654901166D+02 0.141834948938224D+02 -.123510338172644D+02 -.152792204425343D+02
 0.897026042252172D+02 -.788871680034300D+02 0.110076365499471D+02 -.412577734102173D+02
-.246405563886D-06 0.000000000000D+00 0.000000000000D+00 0.182586894648D-02 0.000000000000D+00  5 2 21 25 23 2 2 0.20220699D+00 0.24798529D-02 0.24573499D+05 0.24573499D+05 0.24573499D+05 0.12240997D+01  1  2 13  4  5  2       -2 -.705110285730D-02 0.100000000000D+01
0.303167670647D-05 0.000000000000D+00 0.000000000000D+00 0.182586894648D-02 0.225294536541D-06  5 2 21 25 23 2 2 0.25892661D+00 0.23844585D-02 0.24573499D+05 0.24573499D+05 0.24573499D+05 0.12240997D+01  1  2  1  4  5  2       -2 0.591989779970D-01 0.100000000000D+01
  </mgrwgt>
  </event>
  <event>
  5     66 0.45228882E-03 0.13555017E+03 0.75467711E-02 0.11374391E+00
        2 -1    0    0  501    0 0.00000000E+00 0.00000000E+00 0.24743802E+04 0.24743802E+04 0.32000000E+00 0.0000E+00 0.9000E+01
       21 -1    0    0  502  501 0.00000000E+00 0.00000000E+00 -.44195252E+02 0.44201615E+02 0.75000000E+00 0.0000E+00 0.9000E+01
       25  1    1    2    0    0 -.18892412E+02 -.52040891E+01 0.12188970E+04 0.12254464E+04 0.12500000E+03 0.0000E+00 0.9000E+01
       23  1    1    2    0    0 0.14776673E+03 -.11981330E+02 0.11219842E+04 0.11354040E+04 0.91188000E+02 0.0000E+00 0.9000E+01
        2  1    1    2  502    0 -.12887432E+03 0.17185419E+02 0.89303778E+02 0.15773141E+03 0.32000000E+00 0.0000E+00 0.9000E+01
#aMCatNLO 2  0  0  2  1 0.13001511D+03 0.00000000D+00  -5  5  0 0.00000000D+00 0.00000000D+00 0.00000000D+00 0.00000000D+00 0.00000000D+00
  <mgrwgt>
 0.1953846415D+00    2    2    0
 0.138731907062633D+03 0.000000000000000D+00 0.000000000000000D+00 0.138731907062633D+03
 0.138731907062633D+03 0.000000000000000D+00 0.000000000000000D+00 -.138731907062633D+03
 0.151904343041437D+03 -.810920912697884D+02 0.309025175195206D+01 0.294015732989341D+02
 0.125559471083828D+03 0.810920912697884D+02 -.309025175195206D+01 -.294015732989341D+02
 0.000000000000000D+00 -.000000000000000D+00 0.000000000000000D+00 -.000000000000000D+00
 0.161257131414486D+03 0.000000000000000D+00 0.000000000000000D+00 0.161257131414486D+03
 0.678195318368744D+03 0.000000000000000D+00 0.000000000000000D+00 -.678195318368744D+03
 0.129897876315395D+03 -.188924115874184D+02 -.520408908537603D+01 0.294015732989341D+02
 0.176517034140399D+03 0.147766732468143D+03 -.119813296824138D+02 -.294015732989341D+02
 0.533037539327436D+03 -.128874320880724D+03 0.171854187677898D+02 -.516938186954258D+03
-.247128181772D-06 0.000000000000D+00 0.000000000000D+00 0.138560137667D-02 0.000000000000D+00  5 2 21 25 23 2 2 0.32749972D+00 0.63486218D-02 0.46352580D+05 0.46352580D+05 0.46352580D+05 0.11955535D+01  1  2 13  4  5  2       -2 -.517449772703D-03 0.100000000000D+01
0.160907933146D-03 0.000000000000D+00 0.000000000000D+00 0.138560137667D-02 0.376210681555D-06  5 2 21 25 23 2 2 0.38067426D+00 0.67997586D-02 0.46352580D+05 0.46352580D+05 0.46352580D+05 0.11955535D+01  1  2  1  4  5  2       -2 0.195902091287D+00 0.100000000000D+01
  </mgrwgt>
  </event>
  <event>
  5     66 -.45228882E-03 0.15722979E+03 0.75467711E-02 0.11747727E+00
        2 -1    0    0  501    0 0.00000000E+00 0.00000000E+00 0.17043276E+04 0.17043277E+04 0.32000000E+00 0.0000E+00 0.9000E+01
       -2 -1    0    0    0  502 0.00000000E+00 0.00000000E+00 -.18481648E+02 0.18484418E+02 0.32000000E+00 0.0000E+00 0.9000E+01
       25  1    1    2    0    0 -.92836039E+02 0.37270056E+02 0.64304383E+03 0.66267485E+03 0.12500000E+03 0.0000E+00 0.9000E+01
       23  1    1    2    0    0 0.12233779E+03 -.31607061E+02 0.94695791E+03 0.95969270E+03 0.91188000E+02 0.0000E+00 0.9000E+01
       21  1    1    2  501  502 -.29501752E+02 -.56629954E+01 0.95844259E+02 0.10044455E+03 0.75000000E+00 0.0000E+00 0.9000E+01
#aMCatNLO 2  0  0  2  1 0.30040354D+02 0.00000000D+00  -5  5  0 0.00000000D+00 0.00000000D+00 0.00000000D+00 0.00000000D+00 0.00000000D+00
  <mgrwgt>
 -.1799089159D-01    2    2    0
 0.160521417036641D+03 0.000000000000000D+00 0.000000000000000D+00 0.160521417036641D+03
 0.160521417036641D+03 0.000000000000000D+00 0.000000000000000D+00 -.160521417036641D+03
 0.171905799243926D+03 -.108204951869316D+03 0.343199236473177D+02 -.322557753820011D+02
 0.149137034829357D+03 0.108204951869316D+03 -.343199236473177D+02 0.322557753820011D+02
 0.000000000000000D+00 -.000000000000000D+00 -.000000000000000D+00 -.000000000000000D+00
 0.171069773752273D+03 0.000000000000000D+00 0.000000000000000D+00 0.171069773752273D+03
 0.184133352248165D+03 0.000000000000000D+00 0.000000000000000D+00 -.184133352248165D+03
 0.163318774805483D+03 -.928360385376955D+02 0.372700564407615D+02 -.322557753820011D+02
 0.159126451854610D+03 0.122337790500206D+03 -.316070610128687D+02 0.322557753820011D+02
 0.327578993403448D+02 -.295017519625107D+02 -.566299542789274D+01 -.130635784958916D+02
-.218491911845D-03 0.000000000000D+00 0.000000000000D+00 0.123877251053D-02 0.000000000000D+00  5 2 -2 25 23 21 2 0.24603061D+00 0.29157925D-02 0.29922964D+05 0.29922964D+05 0.29922964D+05 0.12150156D+01  1  2 13  2  5  2       -2 -.170810459013D+00 0.100000000000D+01
0.213579179480D-03 0.000000000000D+00 0.000000000000D+00 0.123877251053D-02 0.108872106387D-04  5 2 -2 25 23 21 2 0.26219804D+00 0.28434762D-02 0.29922964D+05 0.29922964D+05 0.29922964D+05 0.12150156D+01  1  2  1  2  5  2       -2 0.152819567428D+00 0.100000000000D+01
  </mgrwgt>
  </event>
  <event>
  4     66 0.45228882E-03 0.14193851E+03 0.75467711E-02 0.10386213E+00
        2 -1    0    0  501    0 0.00000000E+00 0.00000000E+00 0.14006619E+03 0.14006656E+03 0.32000000E+00 0.0000E+00 0.9000E+01
       -2 -1    0    0    0  501 0.00000000E+00 0.00000000E+00 -.18006317E+03 0.18006346E+03 0.32000000E+00 0.0000E+00 0.9000E+01
       25  1    1    2    0    0 -.67146907E+02 -.61915021E+02 0.50113027E+02 0.16272213E+03 0.12500000E+03 0.0000E+00 0.9000E+01
       23  1    1    2    0    0 0.67146907E+02 0.61915021E+02 -.90110009E+02 0.15740788E+03 0.91188000E+02 0.0000E+00 0.9000E+01
#aMCatNLO 1  0  0  1  1 0.36830900D+03 0.00000000D+00  -5  5  0 0.00000000D+00 0.00000000D+00 0.00000000D+00 0.00000000D+00 0.00000000D+00
  <mgrwgt>
 0.1726730976D+00    3    2    0
 0.158810790392327D+03 0.000000000000000D+00 0.000000000000000D+00 0.158810790392327D+03
 0.158810790392327D+03 0.000000000000000D+00 0.000000000000000D+00 -.158810790392327D+03
 0.170317799201272D+03 -.671469067140576D+02 -.619150207280431D+02 0.709998299416581D+02
 0.147303781583382D+03 0.671469067140576D+02 0.619150207280431D+02 -.709998299416581D+02
 0.000000000000000D+00 -.000000000000000D+00 -.000000000000000D+00 -.000000000000000D+00
 0.283641784653783D+03 0.000000000000000D+00 0.000000000000000D+00 0.283641784653783D+03
 0.108120242198597D+04 0.000000000000000D+00 0.000000000000000D+00 -.108120242198597D+04
 0.163257215049455D+03 -.405761904199368D+01 0.772688691626181D+02 0.709998299416581D+02
 0.323091410052973D+03 0.156113095118071D+03 0.258187012816156D+03 -.709998299416581D+02
 0.878495581537330D+03 -.152055476076077D+03 -.335455881978774D+03 -.797560637332191D+03
0.580446121310D-03 0.000000000000D+00 0.000000000000D+00 0.107484955988D-02 0.000000000000D+00  5 2 -2 25 23 21 0 0.21548695D-01 0.27702077D-01 0.20146541D+05 0.20146541D+05 0.20146541D+05 0.12334772D+01  1  2  2  1  5  1        2 0.169059862109D+00 0.100000000000D+01
-.317523753505D-04 0.000000000000D+00 -.222906594080D-05 0.107484955988D-02 0.000000000000D+00  5 2 -2 25 23 21 2 0.21548695D-01 0.27702077D-01 0.20146541D+05 0.20146541D+05 0.20146541D+05 0.12334772D+01  1  2  3  1  5  1        2 -.140707432182D-01 0.100000000000D+01
0.399060888754D-04 0.000000000000D+00 0.000000000000D+00 0.107484955988D-02 0.000000000000D+00  5 2 -2 25 23 21 2 0.21548695D-01 0.27702077D-01 0.20146541D+05 0.20146541D+05 0.20146541D+05 0.12334772D+01  1  2 15  1  5  1        2 0.176839787012D-01 0.100000000000D+01
  </mgrwgt>
  </event>
  <event>
  4     66 0.45228882E-03 0.48648222E+02 0.75467711E-02 0.12145551E+00
        2 -1    0    0  501    0 0.00000000E+00 0.00000000E+00 0.13156360E+03 0.13156399E+03 0.32000000E+00 0.0000E+00 0.9000E+01
       -2 -1    0    0    0  501 0.00000000E+00 0.00000000E+00 -.94693859E+02 0.94694399E+02 0.32000000E+00 0.0000E+00 0.9000E+01
       25  1    1    2    0    0 -.21469505E+02 0.16577617E+02 0.16545202E+02 0.12897481E+03 0.12500000E+03 0.0000E+00 0.9000E+01
       23  1    1    2    0    0 0.21469505E+02 -.16577617E+02 0.20324539E+02 0.97283582E+02 0.91188000E+02 0.0000E+00 0.9000E+01
#aMCatNLO 1  0  0  2  1 0.49673043D+02 0.00000000D+00  -5  5  0 0.00000000D+00 0.00000000D+00 0.00000000D+00 0.00000000D+00 0.00000000D+00
  <mgrwgt>
 0.1462083571D+00    9    2    0
 0.111617069066752D+03 0.000000000000000D+00 0.000000000000000D+00 0.111617069066752D+03
 0.111617069066752D+03 0.000000000000000D+00 0.000000000000000D+00 -.111617069066752D+03
 0.127989449915662D+03 -.214695047032247D+02 0.165776171588343D+02 -.453235775806507D+01
 0.952446882178411D+02 0.214695047032247D+02 -.165776171588343D+02 0.453235775806507D+01
 0.000000000000000D+00 -.000000000000000D+00 0.000000000000000D+00 -.000000000000000D+00
 0.135865377856328D+03 0.000000000000000D+00 0.000000000000000D+00 0.135865377856328D+03
 0.143013186779270D+03 0.000000000000000D+00 0.000000000000000D+00 -.143013186779270D+03
 0.126111754596474D+03 0.640005840270464D+01 0.147536989597899D+02 -.453235775806507D+01
 0.102582127336857D+03 0.431669497457703D+02 -.179976022779210D+02 0.453235775806507D+01
 0.501846827022674D+02 -.495670081484750D+02 0.324390331813111D+01 -.714780892294245D+01
0.116759052669D-03 0.000000000000D+00 0.000000000000D+00 0.183538098068D-02 0.000000000000D+00  5 2 -2 25 23 21 0 0.20240625D-01 0.14568357D-01 0.12437375D+05 0.12437375D+05 0.12437375D+05 0.12572060D+01  1  2  2  2  5  2       -2 0.106554550530D+00 0.100000000000D+01
-.648660842837D-05 0.000000000000D+00 -.448385505615D-06 0.183538098068D-02 0.000000000000D+00  5 2 -2 25 23 21 2 0.20240625D-01 0.14568357D-01 0.12437375D+05 0.12437375D+05 0.12437375D+05 0.12572060D+01  1  2  3  2  5  2       -2 -.935647006945D-02 0.100000000000D+01
0.806913875227D-05 0.000000000000D+00 0.000000000000D+00 0.183538098068D-02 0.000000000000D+00  5 2 -2 25 23 21 2 0.20240625D-01 0.14568357D-01 0.12437375D+05 0.12437375D+05 0.12437375D+05 0.12572060D+01  1  2 15  2  5  2       -2 0.116391572045D-01 0.100000000000D+01
0.362365757978D-04 0.000000000000D+00 0.000000000000D+00 0.183538098068D-02 0.000000000000D+00  5 2 -2 25 23 21 2 0.20240625D-01 0.19870485D-01 0.19346762D+05 0.19346762D+05 0.19346762D+05 0.12354169D+01  1  2 12  2  5  2       -2 0.306995111381D-01 0.100000000000D+01
-.442990127099D-04 0.000000000000D+00 0.000000000000D+00 0.183538098068D-02 0.000000000000D+00  5 2 -2 25 23 21 2 0.20240625D-01 0.14568357D-01 0.12437375D+05 0.12437375D+05 0.12437375D+05 0.12572060D+01  1  2  4  2  5  2       -2 -.638981666772D-01 0.100000000000D+01
-.812388963831D-04 0.000000000000D+00 -.407878692540D-04 0.183538098068D-02 0.000000000000D+00  5 2 -2 25 23 21 2 0.20240625D-01 0.22541600D-01 0.12437375D+05 0.12437375D+05 0.12437375D+05 0.12572060D+01  1  2  5  2  5  2       -2 -.566745065116D-01 0.100000000000D+01
0.935844709952D-04 0.000000000000D+00 0.371882965665D-04 0.183538098068D-02 0.000000000000D+00  5 2 -2 25 23 21 2 0.20240625D-01 0.14568357D-01 0.12437375D+05 0.12437375D+05 0.12437375D+05 0.12572060D+01  1  2  6  2  5  2       -2 0.134988925492D+00 0.100000000000D+01
0.143556366768D-05 0.000000000000D+00 0.000000000000D+00 0.183538098068D-02 0.000000000000D+00  5 2 21 25 23 2 2 0.20240625D-01 0.19870485D-01 0.19346762D+05 0.19346762D+05 0.19346762D+05 0.12354169D+01  1  2 12  4  5  2       -2 0.170363221670D-01 0.100000000000D+01
-.256380616411D-05 0.000000000000D+00 -.207143789397D-05 0.183538098068D-02 0.000000000000D+00  5 2 21 25 23 2 2 0.20240625D-01 0.22541600D-01 0.12437375D+05 0.12437375D+05 0.12437375D+05 0.12572060D+01  1  2  5  4  5  2       -2 -.247809662164D-01 0.100000000000D+01
  </mgrwgt>
  </event>
  <event>
  4     66 0.45228882E-03 0.91084735E+02 0.75467711E-02 0.12379412E+00
        2 -1    0    0  501    0 0.00000000E+00 0.00000000E+00 0.69243381E+02 0.69244120E+02 0.32000000E+00 0.0000E+00 0.9000E+01
       -2 -1    0    0    0  501 0.00000000E+00 0.00000000E+00 -.22191346E+03 0.22191369E+03 0.32000000E+00 0.0000E+00 0.9000E+01
       25  1    1    2    0    0 0.47736456E+02 -.11301885E+02 -.44614416E+02 0.14149893E+03 0.12500000E+03 0.0000E+00 0.9000E+01
       23  1    1    2    0    0 -.47736456E+02 0.11301885E+02 -.10805566E+03 0.14965888E+03 0.91188000E+02 0.0000E+00 0.9000E+01
#aMCatNLO 1  0  0  1  2 0.84205811D+01 0.00000000D+00  -5  5  0 0.00000000D+00 0.00000000D+00 0.00000000D+00 0.00000000D+00 0.00000000D+00
  <mgrwgt>
 0.1191722272D+00   11    2    0
 0.123960393868684D+03 0.000000000000000D+00 0.000000000000000D+00 0.123960393868684D+03
 0.123960393868684D+03 0.000000000000000D+00 0.000000000000000D+00 -.123960393868684D+03
 0.138702499044115D+03 0.477364563071760D+02 -.113018850317987D+02 0.347401982585580D+02
 0.109218288693253D+03 -.477364563071760D+02 0.113018850317987D+02 -.347401982585580D+02
 0.000000000000000D+00 -.000000000000000D+00 -.000000000000000D+00 0.000000000000000D+00
 0.129835125933642D+03 0.000000000000000D+00 0.000000000000000D+00 0.129835125933642D+03
 0.127086462645654D+03 0.000000000000000D+00 0.000000000000000D+00 -.127086462645654D+03
 0.140374013543146D+03 0.524635323261720D+02 -.109799853837908D+02 0.347401982585580D+02
 0.107689734671642D+03 -.440624075451705D+02 0.115520766933038D+02 -.347401982585580D+02
 0.885784036450822D+01 -.840112478100150D+01 -.572091309513023D+00 0.274866328798804D+01
0.198944882626D-03 0.000000000000D+00 0.000000000000D+00 0.151428604260D-02 0.000000000000D+00  5 2 -2 25 23 21 0 0.10652902D-01 0.34140607D-01 0.14140459D+05 0.14140459D+05 0.14140459D+05 0.12507547D+01  1  2  2  1  5  1        2 0.895161207161D-01 0.100000000000D+01
-.110292776205D-04 0.000000000000D+00 -.764000732674D-06 0.151428604260D-02 0.000000000000D+00  5 2 -2 25 23 21 2 0.10652902D-01 0.34140607D-01 0.14140459D+05 0.14140459D+05 0.14140459D+05 0.12507547D+01  1  2  3  1  5  1        2 -.776354134814D-02 0.100000000000D+01
0.137570040202D-04 0.000000000000D+00 0.000000000000D+00 0.151428604260D-02 0.000000000000D+00  5 2 -2 25 23 21 2 0.10652902D-01 0.34140607D-01 0.14140459D+05 0.14140459D+05 0.14140459D+05 0.12507547D+01  1  2 15  1  5  1        2 0.968359608057D-02 0.100000000000D+01
0.675581565967D-03 0.000000000000D+00 0.000000000000D+00 0.151428604260D-02 0.000000000000D+00  5 2 -2 25 23 21 2 0.11287153D-01 0.34140607D-01 0.15173335D+05 0.15173335D+05 0.15173335D+05 0.12472541D+01  1  2 12  1  5  1        2 0.441997511109D+00 0.100000000000D+01
-.624113475424D-03 0.000000000000D+00 0.000000000000D+00 0.151428604260D-02 0.000000000000D+00  5 2 -2 25 23 21 2 0.10652902D-01 0.34140607D-01 0.14140459D+05 0.14140459D+05 0.14140459D+05 0.12507547D+01  1  2  4  1  5  1        2 -.439315333161D+00 0.100000000000D+01
-.285122648420D-02 0.000000000000D+00 -.478729512599D-03 0.151428604260D-02 0.000000000000D+00  5 2 -2 25 23 21 2 0.11430681D-01 0.34140607D-01 0.14140459D+05 0.14140459D+05 0.14140459D+05 0.12507547D+01  1  2  5  1  5  1        2 -.184309796781D+01 0.100000000000D+01
0.287899684594D-02 0.000000000000D+00 0.477543320827D-03 0.151428604260D-02 0.000000000000D+00  5 2 -2 25 23 21 2 0.10652902D-01 0.34140607D-01 0.14140459D+05 0.14140459D+05 0.14140459D+05 0.12507547D+01  1  2  6  1  5  1        2 0.202653444982D+01 0.100000000000D+01
0.119045441126D-05 0.000000000000D+00 0.000000000000D+00 0.151428604260D-02 0.177443642743D-03  5 2 -2 25 23 21 2 0.11157765D-01 0.35001574D-01 0.15173335D+05 0.15173335D+05 0.15173335D+05 0.12472541D+01  1  2 11  1  5  1        2 0.754425444577D-03 0.100000000000D+01
0.812340434847D-05 0.000000000000D+00 0.000000000000D+00 0.151428604260D-02 0.000000000000D+00  5 21 -2 25 23 -2 2 0.11287153D-01 0.34140607D-01 0.15173335D+05 0.15173335D+05 0.15173335D+05 0.12472541D+01  1  2 12  3  5  1        2 0.528649322268D-01 0.100000000000D+01
-.331823227906D-04 0.000000000000D+00 -.570824714314D-05 0.151428604260D-02 0.000000000000D+00  5 21 -2 25 23 -2 2 0.11430681D-01 0.34140607D-01 0.14140459D+05 0.14140459D+05 0.14140459D+05 0.12507547D+01  1  2  5  3  5  1        2 -.212088264971D+00 0.100000000000D+01
0.136033300820D-07 0.000000000000D+00 0.000000000000D+00 0.151428604260D-02 0.145420929455D-05  5 21 -2 25 23 -2 2 0.11157765D-01 0.35001574D-01 0.15173335D+05 0.15173335D+05 0.15173335D+05 0.12472541D+01  1  2 11  3  5  1        2 0.862990644639D-04 0.100000000000D+01
  </mgrwgt>
  </event>
  <event>
  4     66 0.45228882E-03 0.11289108E+03 0.75467711E-02 0.11386216E+00
        2 -1    0    0  501    0 0.00000000E+00 0.00000000E+00 0.84839222E+03 0.84839228E+03 0.32000000E+00 0.0000E+00 0.9000E+01
       -2 -1    0    0    0  501 0.00000000E+00 0.00000000E+00 -.42658522E+02 0.42659723E+02 0.32000000E+00 0.0000E+00 0.9000E+01
       25  1    1    2    0    0 -.13905913E+02 0.29033343E+02 0.78051230E+03 0.79111362E+03 0.12500000E+03 0.0000E+00 0.9000E+01
       23  1    1    2    0    0 0.13905913E+02 -.29033343E+02 0.25221393E+02 0.99938378E+02 0.91188000E+02 0.0000E+00 0.9000E+01
#aMCatNLO 1  0  0  2  2 0.15508806D+03 0.00000000D+00  -5  5  0 0.00000000D+00 0.00000000D+00 0.00000000D+00 0.00000000D+00 0.00000000D+00
  <mgrwgt>
 0.1185028348D+00    3    2    0
 0.190241215606485D+03 0.000000000000000D+00 0.000000000000000D+00 0.190241215606485D+03
 0.190241215606485D+03 0.000000000000000D+00 0.000000000000000D+00 -.190241215606485D+03
 0.199847110723241D+03 -.139059131918777D+02 0.290333430552305D+02 0.152569847066072D+03
 0.180635320489730D+03 0.139059131918777D+02 -.290333430552305D+02 -.152569847066072D+03
 0.000000000000000D+00 -.000000000000000D+00 -.000000000000000D+00 0.000000000000000D+00
 0.342136791955963D+03 0.000000000000000D+00 0.000000000000000D+00 0.342136791955963D+03
 0.249425865107482D+03 0.000000000000000D+00 0.000000000000000D+00 -.249425865107482D+03
 0.222524323082409D+03 0.319454561296650D+02 0.979489865296588D+02 0.152569847066072D+03
 0.188351799617520D+03 0.539620423824584D+02 0.311719236382273D+02 -.152569847066072D+03
 0.180686534363517D+03 -.859074985121234D+02 -.129120910167886D+03 0.927109268484815D+02
0.275298249567D-03 0.000000000000D+00 0.000000000000D+00 0.502177955605D-03 0.000000000000D+00  5 2 -2 25 23 21 0 0.13052198D+00 0.65629466D-02 0.12744396D+05 0.12744396D+05 0.12744396D+05 0.12559723D+01  1  2  2  2  5  2       -2 0.112979824148D+00 0.100000000000D+01
-.102298535977D-04 0.000000000000D+00 -.105721776603D-05 0.502177955605D-03 0.000000000000D+00  5 2 -2 25 23 21 2 0.13052198D+00 0.65629466D-02 0.12744396D+05 0.12744396D+05 0.12744396D+05 0.12559723D+01  1  2  3  2  5  2       -2 -.662257602935D-02 0.100000000000D+01
0.187612151957D-04 0.000000000000D+00 0.000000000000D+00 0.502177955605D-03 0.000000000000D+00  5 2 -2 25 23 21 2 0.13052198D+00 0.65629466D-02 0.12744396D+05 0.12744396D+05 0.12744396D+05 0.12559723D+01  1  2 15  2  5  2       -2 0.121455867232D-01 0.100000000000D+01
  </mgrwgt>
  </event>
  <event>
  4     66 0.45228882E-03 0.62627328E+02 0.75467711E-02 0.11911429E+00
        2 -1    0    0  501    0 0.00000000E+00 0.00000000E+00 0.27688621E+03 0.27688640E+03 0.32000000E+00 0.0000E+00 0.9000E+01
       -2 -1    0    0    0  501 0.00000000E+00 0.00000000E+00 -.80920741E+02 0.80921374E+02 0.32000000E+00 0.0000E+00 0.9000E+01
       25  1    1    2    0    0 -.50206097E+02 -.70866713E+02 0.17189600E+03 0.22959961E+03 0.12500000E+03 0.0000E+00 0.9000E+01
       23  1    1    2    0    0 0.50206097E+02 0.70866713E+02 0.24069469E+02 0.12820817E+03 0.91188000E+02 0.0000E+00 0.9000E+01
#aMCatNLO 1  0  0  1  2 0.35258160D+02 0.00000000D+00  -5  5  0 0.00000000D+00 0.00000000D+00 0.00000000D+00 0.00000000D+00 0.00000000D+00
  <mgrwgt>
 0.2207158948D+00    9    2    0
 0.149686284909624D+03 0.000000000000000D+00 0.000000000000000D+00 0.149686284909624D+03
 0.149686284909624D+03 0.000000000000000D+00 0.000000000000000D+00 -.149686284909624D+03
 0.161894732497881D+03 -.502060966072920D+02 -.708667131405799D+02 0.551557906540235D+02
 0.137477837321368D+03 0.502060966072920D+02 0.708667131405799D+02 -.551557906540235D+02
 0.000000000000000D+00 -.000000000000000D+00 0.000000000000000D+00 0.000000000000000D+00
 0.171543097618096D+03 0.000000000000000D+00 0.000000000000000D+00 0.171543097618096D+03
 0.165646410739793D+03 0.000000000000000D+00 0.000000000000000D+00 -.165646410739793D+03
 0.159516702806030D+03 -.320150232163845D+02 -.758515360417398D+02 0.551557906540235D+02
 0.141924955596505D+03 0.660195872094158D+02 0.665334091949125D+02 -.551557906540235D+02
 0.357478499553537D+02 -.340045639930314D+02 0.931812684682725D+01 0.589668687830300D+01
0.233168393857D-03 0.000000000000D+00 0.000000000000D+00 0.119803829918D-02 0.000000000000D+00  5 2 -2 25 23 21 0 0.42597942D-01 0.12449408D-01 0.19340196D+05 0.19340196D+05 0.19340196D+05 0.12354332D+01  1  2  2  1  5  1        2 0.124144654327D+00 0.100000000000D+01
-.128685496222D-04 0.000000000000D+00 -.895428027057D-06 0.119803829918D-02 0.000000000000D+00  5 2 -2 25 23 21 2 0.42597942D-01 0.12449408D-01 0.19340196D+05 0.19340196D+05 0.19340196D+05 0.12354332D+01  1  2  3  1  5  1        2 -.104574666157D-01 0.100000000000D+01
0.160972788771D-04 0.000000000000D+00 0.000000000000D+00 0.119803829918D-02 0.000000000000D+00  5 2 -2 25 23 21 2 0.42597942D-01 0.12449408D-01 0.19340196D+05 0.19340196D+05 0.19340196D+05 0.12354332D+01  1  2 15  1  5  1        2 0.130812532417D-01 0.100000000000D+01
0.248028836421D-03 0.000000000000D+00 0.000000000000D+00 0.119803829918D-02 0.000000000000D+00  5 2 -2 25 23 21 2 0.50805513D-01 0.12449408D-01 0.24917392D+05 0.24917392D+05 0.24917392D+05 0.12234518D+01  1  2 12  1  5  1        2 0.165060485513D+00 0.100000000000D+01
-.226434379545D-03 0.000000000000D+00 0.000000000000D+00 0.119803829918D-02 0.000000000000D+00  5 2 -2 25 23 21 2 0.42597942D-01 0.12449408D-01 0.19340196D+05 0.19340196D+05 0.19340196D+05 0.12354332D+01  1  2  4  1  5  1        2 -.184009079054D+00 0.100000000000D+01
-.609177841605D-03 0.000000000000D+00 -.186260720993D-03 0.119803829918D-02 0.000000000000D+00  5 2 -2 25 23 21 2 0.53446095D-01 0.12449408D-01 0.19340196D+05 0.19340196D+05 0.19340196D+05 0.12354332D+01  1  2  5  1  5  1        2 -.389146819320D+00 0.100000000000D+01
0.639596610261D-03 0.000000000000D+00 0.181568088763D-03 0.119803829918D-02 0.000000000000D+00  5 2 -2 25 23 21 2 0.42597942D-01 0.12449408D-01 0.19340196D+05 0.19340196D+05 0.19340196D+05 0.12354332D+01  1  2  6  1  5  1        2 0.519760221291D+00 0.100000000000D+01
0.643292754448D-05 0.000000000000D+00 0.000000000000D+00 0.119803829918D-02 0.000000000000D+00  5 21 -2 25 23 -2 2 0.50805513D-01 0.12449408D-01 0.24917392D+05 0.24917392D+05 0.24917392D+05 0.12234518D+01  1  2 12  3  5  1        2 0.130493104224D-01 0.100000000000D+01
-.165234081378D-04 0.000000000000D+00 -.586466447015D-05 0.119803829918D-02 0.000000000000D+00  5 21 -2 25 23 -2 2 0.53446095D-01 0.12449408D-01 0.19340196D+05 0.19340196D+05 0.19340196D+05 0.12354332D+01  1  2  5  3  5  1        2 -.307666649637D-01 0.100000000000D+01
  </mgrwgt>
  </event>
  <event>
  4     66 0.45228882E-03 0.83426989E+02 0.75467711E-02 0.11265476E+00
        2 -1    0    0  501    0 0.00000000E+00 0.00000000E+00 0.17597453E+04 0.17597453E+04 0.32000000E+00 0.0000E+00 0.9000E+01
       -2 -1    0    0    0  501 0.00000000E+00 0.00000000E+00 -.24525711E+02 0.24527798E+02 0.32000000E+00 0.0000E+00 0.9000E+01
       25  1    1    2    0    0 -.13579389E+03 0.11136101E+03 0.99306878E+03 0.10161948E+04 0.12500000E+03 0.0000E+00 0.9000E+01
       23  1    1    2    0    0 0.13579389E+03 -.11136101E+03 0.74215081E+03 0.76807833E+03 0.91188000E+02 0.0000E+00 0.9000E+01
#aMCatNLO 1  0  0  2  1 0.44463897D+02 0.00000000D+00  -5  5  0 0.00000000D+00 0.00000000D+00 0.00000000D+00 0.00000000D+00 0.00000000D+00
  <mgrwgt>
 0.2206680853D+00    9    2    0
 0.207751996791919D+03 0.000000000000000D+00 0.000000000000000D+00 0.207751996791919D+03
 0.207751996791919D+03 0.000000000000000D+00 0.000000000000000D+00 -.207751996791919D+03
 0.216548240352603D+03 -.135793886457003D+03 0.111361007252067D+03 0.206612406335190D+02
 0.198955753231236D+03 0.135793886457003D+03 -.111361007252067D+03 -.206612406335190D+02
 0.000000000000000D+00 0.000000000000000D+00 -.000000000000000D+00 -.000000000000000D+00
 0.230939617302984D+03 0.000000000000000D+00 0.000000000000000D+00 0.230939617302984D+03
 0.231402999378825D+03 0.000000000000000D+00 0.000000000000000D+00 -.231402999378825D+03
 0.233976951167177D+03 -.159544741862277D+03 0.115059993729667D+03 0.206612406335190D+02
 0.183899354433353D+03 0.115610472800072D+03 -.108217618396597D+03 -.206612406335190D+02
 0.444663110812785D+02 0.439342690622050D+02 -.684237533306958D+01 -.463382075841282D+00
0.563965005780D-03 0.000000000000D+00 0.000000000000D+00 0.110955525340D-02 0.000000000000D+00  5 2 -2 25 23 21 0 0.27073021D+00 0.37733491D-02 0.42733231D+05 0.42733231D+05 0.42733231D+05 0.11990961D+01  1  2  2  2  5  2       -2 0.168202827061D+00 0.100000000000D+01
-.313304448423D-04 0.000000000000D+00 -.216577411759D-05 0.110955525340D-02 0.000000000000D+00  5 2 -2 25 23 21 2 0.27073021D+00 0.37733491D-02 0.42733231D+05 0.42733231D+05 0.42733231D+05 0.11990961D+01  1  2  3  2  5  2       -2 -.134355564915D-01 0.100000000000D+01
0.388481734000D-04 0.000000000000D+00 0.000000000000D+00 0.110955525340D-02 0.000000000000D+00  5 2 -2 25 23 21 2 0.27073021D+00 0.37733491D-02 0.42733231D+05 0.42733231D+05 0.42733231D+05 0.11990961D+01  1  2 15  2  5  2       -2 0.166594132619D-01 0.100000000000D+01
0.386095360367D-03 0.000000000000D+00 0.000000000000D+00 0.110955525340D-02 0.000000000000D+00  5 2 -2 25 23 21 2 0.27073021D+00 0.43908703D-02 0.52960239D+05 0.52960239D+05 0.52960239D+05 0.11898157D+01  1  2 12  2  5  2       -2 0.129731922495D+00 0.100000000000D+01
-.315447031015D-03 0.000000000000D+00 0.000000000000D+00 0.110955525340D-02 0.000000000000D+00  5 2 -2 25 23 21 2 0.27073021D+00 0.37733491D-02 0.42733231D+05 0.42733231D+05 0.42733231D+05 0.11990961D+01  1  2  4  2  5  2       -2 -.135274376940D+00 0.100000000000D+01
-.102319678228D-02 0.000000000000D+00 -.319383630381D-03 0.110955525340D-02 0.000000000000D+00  5 2 -2 25 23 21 2 0.27073021D+00 0.47554215D-02 0.42733231D+05 0.42733231D+05 0.42733231D+05 0.11990961D+01  1  2  5  2  5  2       -2 -.309764444703D+00 0.100000000000D+01
0.107650543008D-02 0.000000000000D+00 0.311024976544D-03 0.110955525340D-02 0.000000000000D+00  5 2 -2 25 23 21 2 0.27073021D+00 0.37733491D-02 0.42733231D+05 0.42733231D+05 0.42733231D+05 0.11990961D+01  1  2  6  2  5  2       -2 0.461642009620D+00 0.100000000000D+01
0.888142501541D-05 0.000000000000D+00 0.000000000000D+00 0.110955525340D-02 0.000000000000D+00  5 2 21 25 23 2 2 0.27073021D+00 0.43908703D-02 0.52960239D+05 0.52960239D+05 0.52960239D+05 0.11898157D+01  1  2 12  4  5  2       -2 0.536183889346D-01 0.100000000000D+01
-.279815972147D-04 0.000000000000D+00 -.102036079365D-04 0.110955525340D-02 0.000000000000D+00  5 2 21 25 23 2 2 0.27073021D+00 0.47554215D-02 0.42733231D+05 0.42733231D+05 0.42733231D+05 0.11990961D+01  1  2  5  4  5  2       -2 -.150712097970D+00 0.100000000000D+01
  </mgrwgt>
  </event>
  <event>
  5     66 -.45228882E-03 0.11027550E+03 0.75467711E-02 0.12543433E+00
        2 -1    0    0  502    0 0.00000000E+00 0.00000000E+00 0.39219348E+03 0.39219361E+03 0.32000000E+00 0.0000E+00 0.9000E+01
       -2 -1    0    0    0  501 0.00000000E+00 0.00000000E+00 -.38322270E+02 0.38323606E+02 0.32000000E+00 0.0000E+00 0.9000E+01
       25  1    1    2    0    0 0.17349278E-02 0.23628267E+02 0.11470858E+03 0.17129318E+03 0.12500000E+03 0.0000E+00 0.9000E+01
       23  1    1    2    0    0 -.48276124E+01 -.19673466E+02 0.22836213E+03 0.24672832E+03 0.91188000E+02 0.0000E+00 0.9000E+01
       21  1    1    2  502  501 0.48258775E+01 -.39548011E+01 0.10800502E+02 0.12495715E+02 0.75000000E+00 0.0000E+00 0.9000E+01
#aMCatNLO 2  0  0  1  2 0.62393546D+01 0.00000000D+00  -5  5  0 0.00000000D+00 0.00000000D+00 0.00000000D+00 0.00000000D+00 0.00000000D+00
  <mgrwgt>
 -.6763593422D-01    3    2    0
 0.119379159026487D+03 0.000000000000000D+00 0.000000000000000D+00 0.119379159026487D+03
 0.119379159026487D+03 0.000000000000000D+00 0.000000000000000D+00 -.119379159026487D+03
 0.134686999849813D+03 0.272710570052677D+01 0.213948289278841D+02 -.452814765460256D+02
 0.104071318203161D+03 -.272710570052677D+01 -.213948289278841D+02 0.452814765460256D+02
 0.000000000000000D+00 0.000000000000000D+00 -.000000000000000D+00 0.000000000000000D+00
 0.123052929443742D+03 0.000000000000000D+00 0.000000000000000D+00 0.123052929443742D+03
 0.122098787827851D+03 0.000000000000000D+00 0.000000000000000D+00 -.122098787827851D+03
 0.135032244783764D+03 0.173492784969076D-02 0.236282671845415D+02 -.452814765460256D+02
 0.103807584359139D+03 -.482761241842578D+01 -.196734660552965D+02 0.452814765460256D+02
 0.631188812869040D+01 0.482587749057609D+01 -.395480112924501D+01 0.954141615891571D+00
-.162748217345D-03 0.000000000000D+00 0.000000000000D+00 0.150279080526D-02 0.000000000000D+00  5 2 -2 25 23 21 2 0.60975485D-01 0.57634780D-02 0.12866804D+05 0.12866804D+05 0.12866804D+05 0.12554896D+01  1  2 13  1  5  1        2 -.303879665101D+00 0.100000000000D+01
-.122634786958D-03 0.000000000000D+00 0.000000000000D+00 0.150279080526D-02 0.000000000000D+00  5 2 -2 25 23 21 2 0.58525574D-01 0.57634780D-02 0.12160685D+05 0.12160685D+05 0.12160685D+05 0.12583476D+01  1  2  8  1  5  1        2 -.239686403233D+00 0.100000000000D+01
0.260717012586D-03 0.000000000000D+00 0.000000000000D+00 0.150279080526D-02 0.324774369583D-03  5 2 -2 25 23 21 2 0.60326638D-01 0.58947783D-02 0.12866804D+05 0.12866804D+05 0.12866804D+05 0.12554896D+01  1  2  1  1  5  1        2 0.475930134113D+00 0.100000000000D+01
  </mgrwgt>
  </event>
  <event>
  5     66 0.45228882E-03 0.13780126E+03 0.75467711E-02 0.11544793E+00
        2 -1    0    0  501    0 0.00000000E+00 0.00000000E+00 0.20837417E+04 0.20837417E+04 0.32000000E+00 0.0000E+00 0.9000E+01
       21 -1    0    0  502  501 0.00000000E+00 0.00000000E+00 -.19801153E+02 0.19815352E+02 0.75000000E+00 0.0000E+00 0.9000E+01
       25  1    1    2    0    0 -.46725359E+02 -.18258345E+02 0.53243444E+03 0.54920676E+03 0.12500000E+03 0.0000E+00 0.9000E+01
       23  1    1    2    0    0 0.58101542E+02 0.11442935E+03 0.71535588E+03 0.73247468E+03 0.91188000E+02 0.0000E+00 0.9000E+01
        2  1    1    2  502    0 -.11376182E+02 -.96171007E+02 0.81615018E+03 0.82187560E+03 0.32000000E+00 0.0000E+00 0.9000E+01
#aMCatNLO 2  0  0  2  2 0.96841520D+02 0.00000000D+00  -5  5  0 0.00000000D+00 0.00000000D+00 0.00000000D+00 0.00000000D+00 0.00000000D+00
  <mgrwgt>
 0.3637845650D-01    1    2    0
 0.138156006684081D+03 0.000000000000000D+00 0.000000000000000D+00 0.138156006684081D+03
 0.138156006684081D+03 0.000000000000000D+00 0.000000000000000D+00 -.138156006684081D+03
 0.151383351682397D+03 -.524510758774711D+02 -.666619226574199D+02 -.984844523304627D+01
 0.124928661685765D+03 0.524510758774711D+02 0.666619226574199D+02 0.984844523304627D+01
 0.000000000000000D+00 -.000000000000000D+00 -.000000000000000D+00 0.000000000000000D+00
 0.241197522446503D+03 0.000000000000000D+00 0.000000000000000D+00 0.241197522446503D+03
 0.171126765589782D+03 0.000000000000000D+00 0.000000000000000D+00 -.171126765589782D+03
 0.135050428529872D+03 -.467253592690928D+02 -.182583453184554D+02 -.984844523304627D+01
 0.157740638205051D+03 0.581015417682753D+02 0.114429351863837D+03 0.984844523304627D+01
 0.119533221301362D+03 -.113761824991825D+02 -.961710065453819D+02 0.700707568567215D+02
0.466852304669D-05 0.000000000000D+00 0.000000000000D+00 0.143676004897D-02 0.676222154794D-07  5 2 21 25 23 2 2 0.32057636D+00 0.30474218D-02 0.37823496D+05 0.37823496D+05 0.37823496D+05 0.12044756D+01  1  2  1  4  5  2       -2 0.363784564952D-01 0.100000000000D+01
  </mgrwgt>
  </event>
  <event>
  4     66 0.45228882E-03 0.11636065E+03 0.75467711E-02 0.99932809E-01
        2 -1    0    0  501    0 0.00000000E+00 0.00000000E+00 0.31975912E+02 0.31977513E+02 0.32000000E+00 0.0000E+00 0.9000E+01
       -2 -1    0    0    0  501 0.00000000E+00 0.00000000E+00 -.42343038E+03 0.42343051E+03 0.32000000E+00 0.0000E+00 0.9000E+01
       25  1    1    2    0    0 -.16775750E+02 -.39177734E+02 -.22135966E+03 0.25776233E+03 0.12500000E+03 0.0000E+00 0.9000E+01
       23  1    1    2    0    0 0.16775750E+02 0.39177734E+02 -.17009481E+03 0.19764569E+03 0.91188000E+02 0.0000E+00 0.9000E+01
#aMCatNLO 1  0  0  2  2 0.53525671D+03 0.00000000D+00  -5  5  0 0.00000000D+00 0.00000000D+00 0.00000000D+00 0.00000000D+00 0.00000000D+00
  <mgrwgt>
 0.1430209751D+00    3    2    0
 0.116361353982565D+03 0.000000000000000D+00 0.000000000000000D+00 0.116361353982565D+03
 0.116361353982565D+03 0.000000000000000D+00 0.000000000000000D+00 -.116361353982565D+03
 0.132066200148877D+03 -.167757500359324D+02 -.391777343246198D+02 0.400706482020106D+00
 0.100656507816253D+03 0.167757500359324D+02 0.391777343246198D+02 -.400706482020106D+00
 0.000000000000000D+00 -.000000000000000D+00 0.000000000000000D+00 0.000000000000000D+00
 0.628029579857200D+03 0.000000000000000D+00 0.000000000000000D+00 0.628029579857200D+03
 0.504873331973356D+03 0.000000000000000D+00 0.000000000000000D+00 -.504873331973356D+03
 0.392977601956493D+03 0.143584357501764D+03 -.343787386846284D+03 0.400706482020106D+00
 0.190682917949446D+03 0.105757319684825D+03 -.129845880262379D+03 -.400706482020106D+00
 0.549242391924617D+03 -.249341677186589D+03 0.473633267108663D+03 0.123156247883844D+03
0.415518215147D-03 0.000000000000D+00 0.000000000000D+00 0.173780562297D-02 0.000000000000D+00  5 2 -2 25 23 21 0 0.49195035D-02 0.65143269D-01 0.13539801D+05 0.13539801D+05 0.13539801D+05 0.12529253D+01  1  2  2  2  5  2       -2 0.140018692687D+00 0.100000000000D+01
-.230843452849D-04 0.000000000000D+00 -.159569935462D-05 0.173780562297D-02 0.000000000000D+00  5 2 -2 25 23 21 2 0.49195035D-02 0.65143269D-01 0.13539801D+05 0.13539801D+05 0.13539801D+05 0.12529253D+01  1  2  3  2  5  2       -2 -.122113552283D-01 0.100000000000D+01
0.287598597498D-04 0.000000000000D+00 0.000000000000D+00 0.173780562297D-02 0.000000000000D+00  5 2 -2 25 23 21 2 0.49195035D-02 0.65143269D-01 0.13539801D+05 0.13539801D+05 0.13539801D+05 0.12529253D+01  1  2 15  2  5  2       -2 0.152136376140D-01 0.100000000000D+01
  </mgrwgt>
  </event>
  <event>
  4     66 0.45228882E-03 0.22697170E+03 0.75467711E-02 0.10141376E+00
        2 -1    0    0  501    0 0.00000000E+00 0.00000000E+00 0.12477620E+04 0.12477620E+04 0.32000000E+00 0.0000E+00 0.9000E+01
       -2 -1    0    0    0  501 0.00000000E+00 0.00000000E+00 -.52346238E+02 0.52347216E+02 0.32000000E+00 0.0000E+00 0.9000E+01
       25  1    1    2    0    0 0.17839767E+03 -.88233344E+02 0.31577869E+03 0.39363947E+03 0.12500000E+03 0.0000E+00 0.9000E+01
       23  1    1    2    0    0 -.17839767E+03 0.88233344E+02 0.87963707E+03 0.90646979E+03 0.91188000E+02 0.0000E+00 0.9000E+01
#aMCatNLO 1  0  0  1  2 0.39624573D+03 0.00000000D+00  -5  5  0 0.00000000D+00 0.00000000D+00 0.00000000D+00 0.00000000D+00 0.00000000D+00
  <mgrwgt>
 0.2230243370D+00    5    2    0
 0.255570556435347D+03 0.000000000000000D+00 0.000000000000000D+00 0.255570556435347D+03
 0.255570556435347D+03 0.000000000000000D+00 0.000000000000000D+00 -.255570556435347D+03
 0.262720977788608D+03 0.178397665340072D+03 -.882333440548372D+02 -.117415766268055D+03
 0.248420135082086D+03 -.178397665340072D+03 0.882333440548372D+02 0.117415766268055D+03
 0.000000000000000D+00 0.000000000000000D+00 0.000000000000000D+00 0.000000000000000D+00
 0.819383280671853D+03 0.000000000000000D+00 0.000000000000000D+00 0.819383280671853D+03
 0.402507802385657D+03 0.000000000000000D+00 0.000000000000000D+00 -.402507802385657D+03
 0.268299039087544D+03 0.374267647839152D+02 -.202909214883885D+03 -.117415766268055D+03
 0.378443503533750D+03 -.344812355658976D+03 -.471403355895262D+02 0.117415766268055D+03
 0.575148540436216D+03 0.307385590875060D+03 0.250049550473412D+03 0.416875478286196D+03
0.124474504579D-02 0.000000000000D+00 0.000000000000D+00 0.839569348237D-03 0.000000000000D+00  5 2 -2 25 23 21 0 0.19196346D+00 0.80533458D-02 0.51516151D+05 0.51516151D+05 0.51516151D+05 0.11909991D+01  1  2  2  1  5  1        2 0.218768076427D+00 0.100000000000D+01
-.679683853113D-04 0.000000000000D+00 -.478014872473D-05 0.839569348237D-03 0.000000000000D+00  5 2 -2 25 23 21 2 0.19196346D+00 0.80533458D-02 0.51516151D+05 0.51516151D+05 0.51516151D+05 0.11909991D+01  1  2  3  1  5  1        2 -.169446784490D-01 0.100000000000D+01
0.854136647639D-04 0.000000000000D+00 0.000000000000D+00 0.839569348237D-03 0.000000000000D+00  5 2 -2 25 23 21 2 0.19196346D+00 0.80533458D-02 0.51516151D+05 0.51516151D+05 0.51516151D+05 0.11909991D+01  1  2 15  1  5  1        2 0.212938276811D-01 0.100000000000D+01
-.295205117983D-04 0.000000000000D+00 -.439168337691D-03 0.839569348237D-03 0.000000000000D+00  5 2 -2 25 23 21 2 0.66896736D+00 0.80533458D-02 0.51516151D+05 0.51516151D+05 0.51516151D+05 0.11909991D+01  1  2  5  1  5  1        2 -.938036081524D-04 0.100000000000D+01
0.998093366974D-05 0.000000000000D+00 -.640969677976D-04 0.839569348237D-03 0.000000000000D+00  5 21 -2 25 23 -2 2 0.66896736D+00 0.80533458D-02 0.51516151D+05 0.51516151D+05 0.51516151D+05 0.11909991D+01  1  2  5  3  5  1        2 0.914931263483D-06 0.100000000000D+01
  </mgrwgt>
  </event>
  <event>
  4     66 0.45228882E-03 0.11790222E+03 0.75467711E-02 0.11372742E+00
        2 -1    0    0  501    0 0.00000000E+00 0.00000000E+00 0.95532310E+03 0.95532316E+03 0.32000000E+00 0.0000E+00 0.9000E+01
       -2 -1    0    0    0  501 0.00000000E+00 0.00000000E+00 -.18951517E+02 0.18954218E+02 0.32000000E+00 0.0000E+00 0.9000E+01
       25  1    1    2    0    0 0.30907041E+02 0.34868342E+02 0.74864213E+03 0.76043480E+03 0.12500000E+03 0.0000E+00 0.9000E+01
       23  1    1    2    0    0 -.30907041E+02 -.34868342E+02 0.18772946E+03 0.21384257E+03 0.91188000E+02 0.0000E+00 0.9000E+01
#aMCatNLO 1  0  0  2  2 0.15135636D+03 0.00000000D+00  -5  5  0 0.00000000D+00 0.00000000D+00 0.00000000D+00 0.00000000D+00 0.00000000D+00
  <mgrwgt>
 0.2274958221D+00    3    2    0
 0.134559145843086D+03 0.000000000000000D+00 0.000000000000000D+00 0.134559145843086D+03
 0.134559145843086D+03 0.000000000000000D+00 0.000000000000000D+00 -.134559145843086D+03
 0.148140067099312D+03 0.309070414564805D+02 0.348683419265171D+02 0.644160927089783D+02
 0.120978224586860D+03 -.309070414564805D+02 -.348683419265171D+02 -.644160927089783D+02
 0.000000000000000D+00 -.000000000000000D+00 0.000000000000000D+00 0.000000000000000D+00
 0.454093985511168D+03 0.000000000000000D+00 0.000000000000000D+00 0.454093985511168D+03
 0.173489411724318D+03 0.000000000000000D+00 0.000000000000000D+00 -.173489411724318D+03
 0.178800044808582D+03 0.110390124396323D+03 0.300723451426446D+01 0.644160927089783D+02
 0.129961030040407D+03 0.300993167783887D+02 -.593229813373044D+02 -.644160927089783D+02
 0.318822322386497D+03 -.140489441174711D+03 0.563157468230399D+02 0.280604573786850D+03
0.188957853689D-03 0.000000000000D+00 0.000000000000D+00 0.121121210707D-02 0.000000000000D+00  5 2 -2 25 23 21 0 0.14697300D+00 0.29158299D-02 0.13900935D+05 0.13900935D+05 0.13900935D+05 0.12516076D+01  1  2  2  2  5  2       -2 0.222632020589D+00 0.100000000000D+01
-.102747656256D-04 0.000000000000D+00 -.725647911912D-06 0.121121210707D-02 0.000000000000D+00  5 2 -2 25 23 21 2 0.14697300D+00 0.29158299D-02 0.13900935D+05 0.13900935D+05 0.13900935D+05 0.12516076D+01  1  2  3  2  5  2       -2 -.189640468930D-01 0.100000000000D+01
0.129099848105D-04 0.000000000000D+00 0.000000000000D+00 0.121121210707D-02 0.000000000000D+00  5 2 -2 25 23 21 2 0.14697300D+00 0.29158299D-02 0.13900935D+05 0.13900935D+05 0.13900935D+05 0.12516076D+01  1  2 15  2  5  2       -2 0.238278483672D-01 0.100000000000D+01
  </mgrwgt>
  </event>
  <event>
  4     66 0.45228882E-03 0.11007695E+03 0.75467711E-02 0.12572560E+00
        2 -1    0    0  501    0 0.00000000E+00 0.00000000E+00 0.19390853E+04 0.19390853E+04 0.32000000E+00 0.0000E+00 0.9000E+01
       -2 -1    0    0    0  501 0.00000000E+00 0.00000000E+00 -.62468037E+01 0.62549945E+01 0.32000000E+00 0.0000E+00 0.9000E+01
       25  1    1    2    0    0 -.20249911E+02 -.35154146E+01 0.10943439E+04 0.11016515E+04 0.12500000E+03 0.0000E+00 0.9000E+01
       23  1    1    2    0    0 0.20249911E+02 0.35154146E+01 0.83849458E+03 0.84368882E+03 0.91188000E+02 0.0000E+00 0.9000E+01
#aMCatNLO 1  0  0  2  2 0.34373352D+01 0.00000000D+00  -5  5  0 0.00000000D+00 0.00000000D+00 0.00000000D+00 0.00000000D+00 0.00000000D+00
  <mgrwgt>
 0.2292890240D+00    8    2    0
 0.110095766721452D+03 0.000000000000000D+00 0.000000000000000D+00 0.110095766721452D+03
 0.110095766721452D+03 0.000000000000000D+00 0.000000000000000D+00 -.110095766721452D+03
 0.126694380986281D+03 -.202499106918392D+02 -.351541457156858D+01 -.201225019803767D+01
 0.934971524566228D+02 0.202499106918392D+02 0.351541457156858D+01 0.201225019803767D+01
 0.000000000000000D+00 0.000000000000000D+00 0.000000000000000D+00 0.000000000000000D+00
 0.120580489182687D+03 0.000000000000000D+00 0.000000000000000D+00 0.120580489182687D+03
 0.110391267506111D+03 0.000000000000000D+00 0.000000000000000D+00 -.110391267506111D+03
 0.126899203345722D+03 -.211277375576859D+02 -.528936334665951D+01 -.201225019803767D+01
 0.933191579982086D+02 0.196032366968027D+02 0.220858906188026D+01 0.201225019803767D+01
 0.107533953448672D+02 0.152450086088327D+01 0.308077428477924D+01 0.101892216765767D+02
0.106225837776D-03 0.000000000000D+00 0.000000000000D+00 0.187323448660D-02 0.000000000000D+00  5 2 -2 25 23 21 0 0.29832145D+00 0.96167882D-03 0.12116934D+05 0.12116934D+05 0.12116934D+05 0.12585308D+01  1  2  2  2  5  2       -2 0.184616212060D+00 0.100000000000D+01
-.590143522231D-05 0.000000000000D+00 -.407935186964D-06 0.187323448660D-02 0.000000000000D+00  5 2 -2 25 23 21 2 0.29832145D+00 0.96167882D-03 0.12116934D+05 0.12116934D+05 0.12116934D+05 0.12585308D+01  1  2  3  2  5  2       -2 -.162451986825D-01 0.100000000000D+01
0.733726178235D-05 0.000000000000D+00 0.000000000000D+00 0.187323448660D-02 0.000000000000D+00  5 2 -2 25 23 21 2 0.29832145D+00 0.96167882D-03 0.12116934D+05 0.12116934D+05 0.12116934D+05 0.12585308D+01  1  2 15  2  5  2       -2 0.201976758110D-01 0.100000000000D+01
-.877660493497D-05 0.000000000000D+00 0.000000000000D+00 0.187323448660D-02 0.000000000000D+00  5 2 -2 25 23 21 2 0.29832145D+00 0.96167882D-03 0.12116934D+05 0.12116934D+05 0.12116934D+05 0.12585308D+01  1  2  4  2  5  2       -2 -.241598332534D-01 0.100000000000D+01
0.970474666668D-08 0.000000000000D+00 0.000000000000D+00 0.187323448660D-02 0.000000000000D+00  5 2 -2 25 23 21 2 0.29832145D+00 0.10989957D-02 0.12116934D+05 0.12116934D+05 0.12116934D+05 0.12585308D+01  1  2  5  2  5  2       -2 0.220919092535D-04 0.100000000000D+01
-.961894036501D-08 0.000000000000D+00 0.000000000000D+00 0.187323448660D-02 0.000000000000D+00  5 2 -2 25 23 21 2 0.29832145D+00 0.96167882D-03 0.12116934D+05 0.12116934D+05 0.12116934D+05 0.12585308D+01  1  2  6  2  5  2       -2 -.264785753734D-04 0.100000000000D+01
0.847742862449D-05 0.000000000000D+00 0.000000000000D+00 0.187323448660D-02 0.134144938593D-02  5 2 -2 25 23 21 2 0.32673142D+00 0.96426000D-03 0.12501257D+05 0.12501257D+05 0.12501257D+05 0.12569465D+01  1  2 11  2  5  2       -2 0.186967429905D-01 0.100000000000D+01
0.886985579874D-06 0.000000000000D+00 0.000000000000D+00 0.187323448660D-02 0.704898109018D-06  5 2 21 25 23 2 2 0.32673142D+00 0.96426000D-03 0.12501257D+05 0.12501257D+05 0.12501257D+05 0.12569465D+01  1  2 11  4  5  2       -2 0.461878117658D-01 0.100000000000D+01
  </mgrwgt>
  </event>
  <event>
  5     66 0.45228882E-03 0.12665265E+03 0.75467711E-02 0.12201960E+00
        2 -1    0    0  501    0 0.00000000E+00 0.00000000E+00 0.16033938E+04 0.16033938E+04 0.32000000E+00 0.0000E+00 0.9000E+01
       -2 -1    0    0    0  502 0.00000000E+00 0.00000000E+00 -.15195082E+02 0.15198452E+02 0.32000000E+00 0.0000E+00 0.9000E+01
       25  1    1    2    0    0 -.69146284E+02 -.96299483E+01 0.11438655E+04 0.11527911E+04 0.12500000E+03 0.0000E+00 0.9000E+01
       23  1    1    2    0    0 0.62272630E+02 -.51671230E+01 0.28587396E+03 0.30650245E+03 0.91188000E+02 0.0000E+00 0.9000E+01
       21  1    1    2  501  502 0.68736535E+01 0.14797071E+02 0.15845924E+03 0.15929875E+03 0.75000000E+00 0.0000E+00 0.9000E+01
#aMCatNLO 2  0  0  2  2 0.16315650D+02 0.00000000D+00  -5  5  0 0.00000000D+00 0.00000000D+00 0.00000000D+00 0.00000000D+00 0.00000000D+00
  <mgrwgt>
 0.6735080515D-01    1    2    0
 0.145873595277088D+03 0.000000000000000D+00 0.000000000000000D+00 0.145873595277088D+03
 0.145873595277088D+03 0.000000000000000D+00 0.000000000000000D+00 -.145873595277088D+03
 0.158401134346299D+03 -.653952399080421D+02 -.155499071791425D+01 0.720205801381189D+02
 0.133346056207877D+03 0.653952399080421D+02 0.155499071791425D+01 -.720205801381189D+02
 0.000000000000000D+00 0.000000000000000D+00 0.000000000000000D+00 0.000000000000000D+00
 0.162163502626719D+03 0.000000000000000D+00 0.000000000000000D+00 0.162163502626719D+03
 0.150244858413270D+03 0.000000000000000D+00 0.000000000000000D+00 -.150244858413270D+03
 0.160268238896177D+03 -.691462835683189D+02 -.962994829375358D+01 0.720205801381189D+02
 0.131934813154486D+03 0.622726300598177D+02 -.516712300135086D+01 -.720205801381189D+02
 0.202053089893253D+02 0.687365350850120D+01 0.147970712951044D+02 0.119186442134488D+02
0.606627333168D-04 0.000000000000D+00 0.000000000000D+00 0.110307652966D-02 0.341432262623D-04  5 2 -2 25 23 21 2 0.24666499D+00 0.23378601D-02 0.18229525D+05 0.18229525D+05 0.18229525D+05 0.12382825D+01  1  2  1  2  5  2       -2 0.673508051494D-01 0.100000000000D+01
  </mgrwgt>
  </event>
  <event>
  4     66 0.45228882E-03 0.12490215E+03 0.75467711E-02 0.10671444E+00
        2 -1    0    0  501    0 0.00000000E+00 0.00000000E+00 0.70439756E+03 0.70439764E+03 0.32000000E+00 0.0000E+00 0.9000E+01
       -2 -1    0    0    0  501 0.00000000E+00 0.00000000E+00 -.15483635E+03 0.15483668E+03 0.32000000E+00 0.0000E+00 0.9000E+01
       25  1    1    2    0    0 -.25364830E+03 0.11431920E+03 0.46206703E+03 0.55365810E+03 0.12500000E+03 0.0000E+00 0.9000E+01
       23  1    1    2    0    0 0.25364830E+03 -.11431920E+03 0.87494181E+02 0.30557622E+03 0.91188000E+02 0.0000E+00 0.9000E+01
#aMCatNLO 1  0  0  2  1 0.76589634D+02 0.00000000D+00  -5  5  0 0.00000000D+00 0.00000000D+00 0.00000000D+00 0.00000000D+00 0.00000000D+00
  <mgrwgt>
 0.3419318827D+00    9    2    0
 0.330252205578543D+03 0.000000000000000D+00 0.000000000000000D+00 0.330252205578543D+03
 0.330252205578543D+03 0.000000000000000D+00 0.000000000000000D+00 -.330252205578543D+03
 0.335785664956350D+03 -.253648304534005D+03 0.114319202538658D+03 0.140430304165903D+03
 0.324718746200736D+03 0.253648304534005D+03 -.114319202538658D+03 -.140430304165903D+03
 0.000000000000000D+00 0.000000000000000D+00 -.000000000000000D+00 -.000000000000000D+00
 0.369628492749770D+03 0.000000000000000D+00 0.000000000000000D+00 0.369628492749770D+03
 0.371925692940266D+03 0.000000000000000D+00 0.000000000000000D+00 -.371925692940266D+03
 0.367976126721787D+03 -.281833086764748D+03 0.143634503910777D+03 0.140430304165903D+03
 0.296953981808323D+03 0.228751086945727D+03 -.884233332375464D+02 -.140430304165903D+03
 0.766240771599266D+02 0.530819998190216D+02 -.552111706732303D+02 -.229720019049599D+01
0.351102929690D-02 0.000000000000D+00 0.000000000000D+00 0.818936983390D-03 0.000000000000D+00  5 2 -2 25 23 21 0 0.10836889D+00 0.23821008D-01 0.89339088D+05 0.89339088D+05 0.89339088D+05 0.11680961D+01  1  2  2  2  5  2       -2 0.227035691616D+00 0.100000000000D+01
-.192696969254D-03 0.000000000000D+00 -.134832769753D-04 0.818936983390D-03 0.000000000000D+00  5 2 -2 25 23 21 2 0.10836889D+00 0.23821008D-01 0.89339088D+05 0.89339088D+05 0.89339088D+05 0.11680961D+01  1  2  3  2  5  2       -2 -.170016741587D-01 0.100000000000D+01
0.242202758551D-03 0.000000000000D+00 0.000000000000D+00 0.818936983390D-03 0.000000000000D+00  5 2 -2 25 23 21 2 0.10836889D+00 0.23821008D-01 0.89339088D+05 0.89339088D+05 0.89339088D+05 0.11680961D+01  1  2 15  2  5  2       -2 0.213695752309D-01 0.100000000000D+01
0.235677161996D-02 0.000000000000D+00 0.000000000000D+00 0.818936983390D-03 0.000000000000D+00  5 2 -2 25 23 21 2 0.10836889D+00 0.28080774D-01 0.11504519D+06 0.11504519D+06 0.11504519D+06 0.11580212D+01  1  2 12  2  5  2       -2 0.152052265338D+00 0.100000000000D+01
-.199972617785D-02 0.000000000000D+00 0.000000000000D+00 0.818936983390D-03 0.000000000000D+00  5 2 -2 25 23 21 2 0.10836889D+00 0.23821008D-01 0.89339088D+05 0.89339088D+05 0.89339088D+05 0.11680961D+01  1  2  4  2  5  2       -2 -.176436054049D+00 0.100000000000D+01
-.603278896315D-02 0.000000000000D+00 -.197104925533D-02 0.818936983390D-03 0.000000000000D+00  5 2 -2 25 23 21 2 0.10836889D+00 0.29925564D-01 0.89339088D+05 0.89339088D+05 0.89339088D+05 0.11680961D+01  1  2  5  2  5  2       -2 -.353550041678D+00 0.100000000000D+01
0.636627871754D-02 0.000000000000D+00 0.192084189836D-02 0.818936983390D-03 0.000000000000D+00  5 2 -2 25 23 21 2 0.10836889D+00 0.23821008D-01 0.89339088D+05 0.89339088D+05 0.89339088D+05 0.11680961D+01  1  2  6  2  5  2       -2 0.561697450553D+00 0.100000000000D+01
0.578983271748D-04 0.000000000000D+00 0.000000000000D+00 0.818936983390D-03 0.000000000000D+00  5 2 21 25 23 2 2 0.10836889D+00 0.28080774D-01 0.11504519D+06 0.11504519D+06 0.11504519D+06 0.11580212D+01  1  2 12  4  5  2       -2 0.475529916606D-01 0.100000000000D+01
-.162364523712D-03 0.000000000000D+00 -.623227297789D-04 0.818936983390D-03 0.000000000000D+00  5 2 21 25 23 2 2 0.10836889D+00 0.29925564D-01 0.89339088D+05 0.89339088D+05 0.89339088D+05 0.11680961D+01  1  2  5  4  5  2       -2 -.120788321789D+00 0.100000000000D+01
  </mgrwgt>
  </event>
  <event>
  4     66 0.45228882E-03 0.86726622E+02 0.75467711E-02 0.11996038E+00
        2 -1    0    0  501    0 0.00000000E+00 0.00000000E+00 0.48988334E+03 0.48988344E+03 0.32000000E+00 0.0000E+00 0.9000E+01
       -2 -1    0    0    0  501 0.00000000E+00 0.00000000E+00 -.49584664E+02 0.49585697E+02 0.32000000E+00 0.0000E+00 0.9000E+01
       25  1    1    2    0    0 -.71906715E+02 0.38491119E+02 0.36858583E+03 0.39765897E+03 0.12500000E+03 0.0000E+00 0.9000E+01
       23  1    1    2    0    0 0.71906715E+02 -.38491119E+02 0.71712850E+02 0.14181018E+03 0.91188000E+02 0.0000E+00 0.9000E+01
#aMCatNLO 1  0  0  2  1 0.28202919D+02 0.00000000D+00  -5  5  0 0.00000000D+00 0.00000000D+00 0.00000000D+00 0.00000000D+00 0.00000000D+00
  <mgrwgt>
 0.1518020275D+00    9    2    0
 0.155855727256712D+03 0.000000000000000D+00 0.000000000000000D+00 0.155855727256712D+03
 0.155855727256712D+03 0.000000000000000D+00 0.000000000000000D+00 -.155855727256712D+03
 0.167580911798632D+03 -.719067146224528D+02 0.384911190312534D+02 0.761985573825894D+02
 0.144130542714793D+03 0.719067146224528D+02 -.384911190312534D+02 -.761985573825894D+02
 0.000000000000000D+00 -.000000000000000D+00 -.000000000000000D+00 -.000000000000000D+00
 0.168602086375701D+03 0.000000000000000D+00 0.000000000000000D+00 0.168602086375701D+03
 0.172913142262105D+03 0.000000000000000D+00 0.000000000000000D+00 -.172913142262105D+03
 0.164860809995737D+03 -.595176863360869D+02 0.469628740438875D+02 0.761985573825894D+02
 0.148123910943712D+03 0.827980933388439D+02 -.310434734127003D+02 -.761985573825894D+02
 0.285305076983561D+02 -.232804070027570D+02 -.159194006311871D+02 -.431105588640446D+01
0.189566542798D-03 0.000000000000D+00 0.000000000000D+00 0.104766157490D-02 0.000000000000D+00  5 2 -2 25 23 21 0 0.75366755D-01 0.76284974D-02 0.18441177D+05 0.18441177D+05 0.18441177D+05 0.12377248D+01  1  2  2  2  5  2       -2 0.118130474190D+00 0.100000000000D+01
-.102884682769D-04 0.000000000000D+00 -.727985438362D-06 0.104766157490D-02 0.000000000000D+00  5 2 -2 25 23 21 2 0.75366755D-01 0.76284974D-02 0.18441177D+05 0.18441177D+05 0.18441177D+05 0.12377248D+01  1  2  3  2  5  2       -2 -.982198240786D-02 0.100000000000D+01
0.130477052799D-04 0.000000000000D+00 0.000000000000D+00 0.104766157490D-02 0.000000000000D+00  5 2 -2 25 23 21 2 0.75366755D-01 0.76284974D-02 0.18441177D+05 0.18441177D+05 0.18441177D+05 0.12377248D+01  1  2 15  2  5  2       -2 0.124561138036D-01 0.100000000000D+01
0.180767826701D-03 0.000000000000D+00 0.000000000000D+00 0.104766157490D-02 0.000000000000D+00  5 2 -2 25 23 21 2 0.75366755D-01 0.87458399D-02 0.22713366D+05 0.22713366D+05 0.22713366D+05 0.12277893D+01  1  2 12  2  5  2       -2 0.138181242669D+00 0.100000000000D+01
-.159151630582D-03 0.000000000000D+00 0.000000000000D+00 0.104766157490D-02 0.000000000000D+00  5 2 -2 25 23 21 2 0.75366755D-01 0.76284974D-02 0.18441177D+05 0.18441177D+05 0.18441177D+05 0.12377248D+01  1  2  4  2  5  2       -2 -.151935591740D+00 0.100000000000D+01
-.471246764905D-03 0.000000000000D+00 -.131521067787D-03 0.104766157490D-02 0.000000000000D+00  5 2 -2 25 23 21 2 0.75366755D-01 0.91494388D-02 0.18441177D+05 0.18441177D+05 0.18441177D+05 0.12377248D+01  1  2  5  2  5  2       -2 -.339449723543D+00 0.100000000000D+01
0.489194798016D-03 0.000000000000D+00 0.129377096578D-03 0.104766157490D-02 0.000000000000D+00  5 2 -2 25 23 21 2 0.75366755D-01 0.76284974D-02 0.18441177D+05 0.18441177D+05 0.18441177D+05 0.12377248D+01  1  2  6  2  5  2       -2 0.467014386477D+00 0.100000000000D+01
0.382224688514D-05 0.000000000000D+00 0.000000000000D+00 0.104766157490D-02 0.000000000000D+00  5 2 21 25 23 2 2 0.75366755D-01 0.87458399D-02 0.22713366D+05 0.22713366D+05 0.22713366D+05 0.12277893D+01  1  2 12  4  5  2       -2 0.470750823178D-01 0.100000000000D+01
-.112420545137D-04 0.000000000000D+00 -.349583208968D-05 0.104766157490D-02 0.000000000000D+00  5 2 21 25 23 2 2 0.75366755D-01 0.91494388D-02 0.18441177D+05 0.18441177D+05 0.18441177D+05 0.12377248D+01  1  2  5  4  5  2       -2 -.129847974248D+00 0.100000000000D+01
  </mgrwgt>
  </event>
  <event>
  5     66 0.45228882E-03 0.12209033E+03 0.75467711E-02 0.11606579E+00
        2 -1    0    0  501    0 0.00000000E+00 0.00000000E+00 0.88963473E+03 0.88963479E+03 0.32000000E+00 0.0000E+00 0.9000E+01
       21 -1    0    0  502  501 0.00000000E+00 0.00000000E+00 -.94604355E+02 0.94607328E+02 0.75000000E+00 0.0000E+00 0.9000E+01
       25  1    1    2    0    0 -.31236905E+02 -.62991758E+01 0.68435732E+03 0.69640890E+03 0.12500000E+03 0.0000E+00 0.9000E+01
       23  1    1    2    0    0 0.25691358E+02 -.10114511E+03 0.11510802E+03 0.18015406E+03 0.91188000E+02 0.0000E+00 0.9000E+01
        2  1    1    2  502    0 0.55455468E+01 0.10744429E+03 -.44349581E+01 0.10767915E+03 0.32000000E+00 0.0000E+00 0.9000E+01
#aMCatNLO 2  0  0  2  1 0.10758730D+03 0.00000000D+00  -5  5  0 0.00000000D+00 0.00000000D+00 0.00000000D+00 0.00000000D+00 0.00000000D+00
  <mgrwgt>
 0.1358154627D+00    2    2    0
 0.171495471271192D+03 0.000000000000000D+00 0.000000000000000D+00 0.171495471271192D+03
 0.171495471271192D+03 0.000000000000000D+00 0.000000000000000D+00 -.171495471271192D+03
 0.182151362942583D+03 -.284081766406094D+02 0.485070836187520D+02 0.119975653199305D+03
 0.160839579599801D+03 0.284081766406094D+02 -.485070836187520D+02 -.119975653199305D+03
 0.000000000000000D+00 0.000000000000000D+00 0.000000000000000D+00 -.000000000000000D+00
 0.190806038056416D+03 0.000000000000000D+00 0.000000000000000D+00 0.190806038056416D+03
 0.441100989363229D+03 0.000000000000000D+00 0.000000000000000D+00 -.441100989363229D+03
 0.176166345247407D+03 -.312369047936738D+02 -.629917583018521D+01 0.119975653199305D+03
 0.183302449690575D+03 0.256913579496665D+02 -.101145111027019D+03 -.119975653199305D+03
 0.272438232481662D+03 0.554554684400728D+01 0.107444286857204D+03 -.250294951306813D+03
-.723670844295D-06 0.000000000000D+00 0.000000000000D+00 0.712113494951D-03 0.000000000000D+00  5 2 21 25 23 2 2 0.12301539D+00 0.14342482D-01 0.35188029D+05 0.35188029D+05 0.35188029D+05 0.12076944D+01  1  2 13  4  5  2       -2 -.201897833653D-02 0.100000000000D+01
0.582151104113D-04 0.000000000000D+00 0.000000000000D+00 0.712113494951D-03 0.120076153927D-06  5 2 21 25 23 2 2 0.13686705D+00 0.14554742D-01 0.35188029D+05 0.35188029D+05 0.35188029D+05 0.12076944D+01  1  2  1  4  5  2       -2 0.137834441068D+00 0.100000000000D+01
  </mgrwgt>
  </event>
  <event>
  4     66 0.45228882E-03 0.86355090E+02 0.75467711E-02 0.12158784E+00
        2 -1    0    0  501    0 0.00000000E+00 0.00000000E+00 0.80519654E+03 0.80519660E+03 0.32000000E+00 0.0000E+00 0.9000E+01
       -2 -1    0    0    0  501 0.00000000E+00 0.00000000E+00 -.16732650E+02 0.16735710E+02 0.32000000E+00 0.0000E+00 0.9000E+01
       25  1    1    2    0    0 -.36314946E+02 0.14652240E+02 0.39535260E+03 0.41648786E+03 0.12500000E+03 0.0000E+00 0.9000E+01
       23  1    1    2    0    0 0.36314946E+02 -.14652240E+02 0.39311129E+03 0.40544445E+03 0.91188000E+02 0.0000E+00 0.9000E+01
#aMCatNLO 1  0  0  1  2 0.42176470D+02 0.00000000D+00  -5  5  0 0.00000000D+00 0.00000000D+00 0.00000000D+00 0.00000000D+00 0.00000000D+00
  <mgrwgt>
 0.1623052015D+00    9    2    0
 0.116079092535756D+03 0.000000000000000D+00 0.000000000000000D+00 0.116079092535756D+03
 0.116079092535756D+03 0.000000000000000D+00 0.000000000000000D+00 -.116079092535756D+03
 0.131822127082973D+03 -.363149457350947D+02 0.146522403757583D+02 -.147854576157624D+02
 0.100336057988539D+03 0.363149457350947D+02 -.146522403757583D+02 0.147854576157624D+02
 0.000000000000000D+00 0.000000000000000D+00 0.000000000000000D+00 0.000000000000000D+00
 0.178359187167284D+03 0.000000000000000D+00 0.000000000000000D+00 0.178359187167284D+03
 0.125344343400590D+03 0.000000000000000D+00 0.000000000000000D+00 -.125344343400590D+03
 0.132753502891454D+03 -.412901554500799D+02 -.866059097013799D+01 -.147854576157624D+02
 0.103204708472592D+03 0.324874654838304D+02 -.325870424623353D+02 0.147854576157624D+02
 0.677453192038282D+02 0.880268996624952D+01 0.412476334324733D+02 0.530148437666940D+02
0.760495338887D-04 0.000000000000D+00 0.000000000000D+00 0.172253139071D-02 0.000000000000D+00  5 2 -2 25 23 21 0 0.12387663D+00 0.25744942D-02 0.13251579D+05 0.13251579D+05 0.13251579D+05 0.12540056D+01  1  2  2  1  5  1        2 0.133607358355D+00 0.100000000000D+01
-.422461716271D-05 0.000000000000D+00 -.292050234435D-06 0.172253139071D-02 0.000000000000D+00  5 2 -2 25 23 21 2 0.12387663D+00 0.25744942D-02 0.13251579D+05 0.13251579D+05 0.13251579D+05 0.12540056D+01  1  2  3  1  5  1        2 -.116713236224D-01 0.100000000000D+01
0.525955594036D-05 0.000000000000D+00 0.000000000000D+00 0.172253139071D-02 0.000000000000D+00  5 2 -2 25 23 21 2 0.12387663D+00 0.25744942D-02 0.13251579D+05 0.13251579D+05 0.13251579D+05 0.12540056D+01  1  2 15  1  5  1        2 0.145305425618D-01 0.100000000000D+01
0.973794657953D-04 0.000000000000D+00 0.000000000000D+00 0.172253139071D-02 0.000000000000D+00  5 2 -2 25 23 21 2 0.19313047D+00 0.25744942D-02 0.19077707D+05 0.19077707D+05 0.19077707D+05 0.12360897D+01  1  2 12  1  5  1        2 0.142937551875D+00 0.100000000000D+01
-.109315617145D-03 0.000000000000D+00 0.000000000000D+00 0.172253139071D-02 0.000000000000D+00  5 2 -2 25 23 21 2 0.12387663D+00 0.25744942D-02 0.13251579D+05 0.13251579D+05 0.13251579D+05 0.12540056D+01  1  2  4  1  5  1        2 -.302005577203D+00 0.100000000000D+01
-.133917361153D-03 0.000000000000D+00 -.328077900647D-04 0.172253139071D-02 0.000000000000D+00  5 2 -2 25 23 21 2 0.19734644D+00 0.25744942D-02 0.13251579D+05 0.13251579D+05 0.13251579D+05 0.12540056D+01  1  2  5  1  5  1        2 -.193801861230D+00 0.100000000000D+01
0.137299156874D-03 0.000000000000D+00 0.295459201977D-04 0.172253139071D-02 0.000000000000D+00  5 2 -2 25 23 21 2 0.12387663D+00 0.25744942D-02 0.13251579D+05 0.13251579D+05 0.13251579D+05 0.12540056D+01  1  2  6  1  5  1        2 0.379315528779D+00 0.100000000000D+01
0.500989175882D-05 0.000000000000D+00 0.000000000000D+00 0.172253139071D-02 0.000000000000D+00  5 21 -2 25 23 -2 2 0.19313047D+00 0.25744942D-02 0.19077707D+05 0.19077707D+05 0.19077707D+05 0.12360897D+01  1  2 12  3  5  1        2 0.475845031316D-02 0.100000000000D+01
-.578160894565D-05 0.000000000000D+00 -.174999232881D-05 0.172253139071D-02 0.000000000000D+00  5 21 -2 25 23 -2 2 0.19734644D+00 0.25744942D-02 0.13251579D+05 0.13251579D+05 0.13251579D+05 0.12540056D+01  1  2  5  3  5  1        2 -.536546830920D-02 0.100000000000D+01
  </mgrwgt>
  </event>
  <event>
  4     66 0.45228882E-03 0.12051437E+03 0.75467711E-02 0.97445688E-01
        2 -1    0    0  501    0 0.00000000E+00 0.00000000E+00 0.94713282E+03 0.94713287E+03 0.32000000E+00 0.0000E+00 0.9000E+01
       -2 -1    0    0    0  501 0.00000000E+00 0.00000000E+00 -.19809984E+02 0.19812568E+02 0.32000000E+00 0.0000E+00 0.9000E+01
       25  1    1    2    0    0 0.49419028E+02 0.18473890E+02 0.73723449E+03 0.74961538E+03 0.12500000E+03 0.0000E+00 0.9000E+01
       23  1    1    2    0    0 -.49419028E+02 -.18473890E+02 0.19008834E+03 0.21733006E+03 0.91188000E+02 0.0000E+00 0.9000E+01
#aMCatNLO 1  0  0  2  2 0.66300122D+03 0.00000000D+00  -5  5  0 0.00000000D+00 0.00000000D+00 0.00000000D+00 0.00000000D+00 0.00000000D+00
  <mgrwgt>
 0.1882336238D+00    5    2    0
 0.136981609716132D+03 0.000000000000000D+00 0.000000000000000D+00 0.136981609716132D+03
 0.136981609716132D+03 0.000000000000000D+00 0.000000000000000D+00 -.136981609716132D+03
 0.150322357921581D+03 0.494190281255655D+02 0.184738901580473D+02 0.647169709786919D+02
 0.123640861510683D+03 -.494190281255655D+02 -.184738901580473D+02 -.647169709786919D+02
 0.000000000000000D+00 0.000000000000000D+00 -.000000000000000D+00 -.000000000000000D+00
 0.510505771554824D+03 0.000000000000000D+00 0.000000000000000D+00 0.510505771554824D+03
 0.108253004944127D+04 0.000000000000000D+00 0.000000000000000D+00 -.108253004944127D+04
 0.323190809483196D+03 -.206700124906731D+03 0.204729263578241D+03 0.647169709786919D+02
 0.394183893572049D+03 -.329505933454584D+03 0.185211349795813D+03 -.647169709786919D+02
 0.875661117940853D+03 0.536206058361314D+03 -.389940613374053D+03 -.572024277886449D+03
0.150276884719D-03 0.000000000000D+00 0.000000000000D+00 0.119592526056D-02 0.000000000000D+00  5 2 -2 25 23 21 0 0.14571294D+00 0.30478928D-02 0.14523715D+05 0.14523715D+05 0.14523715D+05 0.12494233D+01  1  2  2  2  5  2       -2 0.168084335746D+00 0.100000000000D+01
-.818220293704D-05 0.000000000000D+00 -.577102806133D-06 0.119592526056D-02 0.000000000000D+00  5 2 -2 25 23 21 2 0.14571294D+00 0.30478928D-02 0.14523715D+05 0.14523715D+05 0.14523715D+05 0.12494233D+01  1  2  3  2  5  2       -2 -.142864551456D-01 0.100000000000D+01
0.102964352530D-04 0.000000000000D+00 0.000000000000D+00 0.119592526056D-02 0.000000000000D+00  5 2 -2 25 23 21 2 0.14571294D+00 0.30478928D-02 0.14523715D+05 0.14523715D+05 0.14523715D+05 0.12494233D+01  1  2 15  2  5  2       -2 0.179779897338D-01 0.100000000000D+01
0.121715224187D-02 0.000000000000D+00 -.319828280684D-03 0.119592526056D-02 0.000000000000D+00  5 2 -2 25 23 21 2 0.14571294D+00 0.11060514D+00 0.14523715D+05 0.14523715D+05 0.14523715D+05 0.12494233D+01  1  2  5  2  5  2       -2 0.394445977093D-02 0.100000000000D+01
0.321771626077D-03 0.000000000000D+00 -.110296105323D-03 0.119592526056D-02 0.000000000000D+00  5 2 21 25 23 2 2 0.14571294D+00 0.11060514D+00 0.14523715D+05 0.14523715D+05 0.14523715D+05 0.12494233D+01  1  2  5  4  5  2       -2 0.125132937305D-01 0.100000000000D+01
  </mgrwgt>
  </event>
  <event>
  5     66 0.45228882E-03 0.13769480E+03 0.75467711E-02 0.11186703E+00
        4 -1    0    0  501    0 0.00000000E+00 0.00000000E+00 0.12423368E+03 0.12424335E+03 0.15500000E+01 0.0000E+00 0.9000E+01
       21 -1    0    0  502  501 0.00000000E+00 0.00000000E+00 -.63565189E+03 0.63565234E+03 0.75000000E+00 0.0000E+00 0.9000E+01
       25  1    1    2    0    0 0.90819346E+01 -.28503462E+01 -.19804667E+03 0.23438876E+03 0.12500000E+03 0.0000E+00 0.9000E+01
       23  1    1    2    0    0 -.15425918E+03 -.73865906E+02 -.27409053E+02 0.19575131E+03 0.91188000E+02 0.0000E+00 0.9000E+01
        4  1    1    2  502    0 0.14517725E+03 0.76716253E+02 -.28596250E+03 0.32975562E+03 0.15500000E+01 0.0000E+00 0.9000E+01
#aMCatNLO 2  0  0  2  2 0.16420054D+03 0.00000000D+00  -5  5  0 0.00000000D+00 0.00000000D+00 0.00000000D+00 0.00000000D+00 0.00000000D+00
  <mgrwgt>
 0.6224760914D-02    1    2    0
 0.163728720955895D+03 0.000000000000000D+00 0.000000000000000D+00 0.163728720955895D+03
 0.163728720955895D+03 0.000000000000000D+00 0.000000000000000D+00 -.163728720955895D+03
 0.174890092970108D+03 0.777648662173955D+02 0.334438888742916D+02 -.882931282617605D+02
 0.152567348941682D+03 -.777648662173955D+02 -.334438888742916D+02 0.882931282617605D+02
 0.000000000000000D+00 0.000000000000000D+00 0.000000000000000D+00 -.000000000000000D+00
 0.222345210208199D+03 0.000000000000000D+00 0.000000000000000D+00 0.222345210208199D+03
 0.355174709013455D+03 0.000000000000000D+00 0.000000000000000D+00 -.355174709013455D+03
 0.153333892234468D+03 0.908193460892427D+01 -.285034616899562D+01 -.882931282617605D+02
 0.212985903434736D+03 -.154259181575168D+03 -.738659063399514D+02 0.882931282617605D+02
 0.211200123552449D+03 0.145177246966244D+03 0.767162525089470D+02 -.132829498805256D+03
0.498641295759D-04 0.000000000000D+00 0.000000000000D+00 0.953452927125D-03 0.480309796806D-07  5 4 21 25 23 4 2 0.19113431D-01 0.97792251D-01 0.58415347D+05 0.58415347D+05 0.58415347D+05 0.11856486D+01  1  2  1  4  5  2       -4 0.622476091408D-02 0.100000000000D+01
  </mgrwgt>
  </event>
  <event>
  4     66 0.45228882E-03 0.12752384E+03 0.75467711E-02 0.11645715E+00
        2 -1    0    0  501    0 0.00000000E+00 0.00000000E+00 0.10005429E+04 0.10005429E+04 0.32000000E+00 0.0000E+00 0.9000E+01
       -2 -1    0    0    0  501 0.00000000E+00 0.00000000E+00 -.16272039E+02 0.16275185E+02 0.32000000E+00 0.0000E+00 0.9000E+01
       25  1    1    2    0    0 0.66983321E+02 0.32852227E+01 0.52958941E+03 0.54825861E+03 0.12500000E+03 0.0000E+00 0.9000E+01
       23  1    1    2    0    0 -.66983321E+02 -.32852227E+01 0.45468143E+03 0.46855951E+03 0.91188000E+02 0.0000E+00 0.9000E+01
#aMCatNLO 1  0  0  2  2 0.94697643D+02 0.00000000D+00  -5  5  0 0.00000000D+00 0.00000000D+00 0.00000000D+00 0.00000000D+00 0.00000000D+00
  <mgrwgt>
 0.1054061408D+00    5    2    0
 0.127602893159737D+03 0.000000000000000D+00 0.000000000000000D+00 0.127602893159737D+03
 0.127602893159737D+03 0.000000000000000D+00 0.000000000000000D+00 -.127602893159737D+03
 0.141924176312089D+03 0.669833207955333D+02 0.328522270029036D+01 -.446249581257182D+01
 0.113281610007384D+03 -.669833207955333D+02 -.328522270029036D+01 0.446249581257182D+01
 0.000000000000000D+00 0.000000000000000D+00 -.000000000000000D+00 -.000000000000000D+00
 0.169487887261987D+03 0.000000000000000D+00 0.000000000000000D+00 0.169487887261987D+03
 0.203260699335371D+03 0.000000000000000D+00 0.000000000000000D+00 -.203260699335371D+03
 0.128896703839143D+03 0.220822564727999D+02 0.219504063923203D+02 -.446249581257182D+01
 0.143312107464990D+03 -.109525576055181D+03 0.143994139797477D+02 0.446249581257182D+01
 0.100539775293226D+03 0.874433195823816D+02 -.363498203720680D+02 -.337728120733847D+02
0.876807322432D-04 0.000000000000D+00 0.000000000000D+00 0.155847832458D-02 0.000000000000D+00  5 2 -2 25 23 21 0 0.15392992D+00 0.25036366D-02 0.16262330D+05 0.16262330D+05 0.16262330D+05 0.12438418D+01  1  2  2  2  5  2       -2 0.121852067607D+00 0.100000000000D+01
-.487114951680D-05 0.000000000000D+00 -.336717098681D-06 0.155847832458D-02 0.000000000000D+00  5 2 -2 25 23 21 2 0.15392992D+00 0.25036366D-02 0.16262330D+05 0.16262330D+05 0.16262330D+05 0.12438418D+01  1  2  3  2  5  2       -2 -.104734675431D-01 0.100000000000D+01
0.605962029729D-05 0.000000000000D+00 0.000000000000D+00 0.155847832458D-02 0.000000000000D+00  5 2 -2 25 23 21 2 0.15392992D+00 0.25036366D-02 0.16262330D+05 0.16262330D+05 0.16262330D+05 0.12438418D+01  1  2 15  2  5  2       -2 0.130288007560D-01 0.100000000000D+01
-.220923503686D-04 0.000000000000D+00 -.244573407292D-04 0.155847832458D-02 0.000000000000D+00  5 2 -2 25 23 21 2 0.15392992D+00 0.53691081D-02 0.16262330D+05 0.16262330D+05 0.16262330D+05 0.12438418D+01  1  2  5  2  5  2       -2 -.153643708068D-01 0.100000000000D+01
-.295446379955D-06 0.000000000000D+00 -.201941258333D-05 0.155847832458D-02 0.000000000000D+00  5 2 21 25 23 2 2 0.15392992D+00 0.53691081D-02 0.16262330D+05 0.16262330D+05 0.16262330D+05 0.12438418D+01  1  2  5  4  5  2       -2 -.363688923798D-02 0.100000000000D+01
  </mgrwgt>
  </event>
  <event>
  4     66 0.45228882E-03 0.12060337E+03 0.75467711E-02 0.11493139E+00
        2 -1    0    0  501    0 0.00000000E+00 0.00000000E+00 0.15670930E+03 0.15670963E+03 0.32000000E+00 0.0000E+00 0.9000E+01
       -2 -1    0    0    0  501 0.00000000E+00 0.00000000E+00 -.32200992E+03 0.32201008E+03 0.32000000E+00 0.0000E+00 0.9000E+01
       25  1    1    2    0    0 0.12718151E+03 0.69700803E+02 0.55413734E+02 0.19932140E+03 0.12500000E+03 0.0000E+00 0.9000E+01
       23  1    1    2    0    0 -.12718151E+03 -.69700803E+02 -.22071435E+03 0.27939831E+03 0.91188000E+02 0.0000E+00 0.9000E+01
#aMCatNLO 1  0  0  2  1 0.36389129D+02 0.00000000D+00  -5  5  0 0.00000000D+00 0.00000000D+00 0.00000000D+00 0.00000000D+00 0.00000000D+00
  <mgrwgt>
 0.1810516218D+00    9    2    0
 0.224637635378816D+03 0.000000000000000D+00 0.000000000000000D+00 0.224637635378816D+03
 0.224637635378816D+03 0.000000000000000D+00 0.000000000000000D+00 -.224637635378816D+03
 0.232772679895815D+03 0.127181513600613D+03 0.697008028026099D+02 0.132381196522801D+03
 0.216502590861818D+03 -.127181513600613D+03 -.697008028026099D+02 -.132381196522801D+03
 0.000000000000000D+00 0.000000000000000D+00 -.000000000000000D+00 -.000000000000000D+00
 0.241583422583486D+03 0.000000000000000D+00 0.000000000000000D+00 0.241583422583486D+03
 0.245795166792705D+03 0.000000000000000D+00 0.000000000000000D+00 -.245795166792705D+03
 0.233078335487420D+03 0.117494198353838D+03 0.858536116535986D+02 0.132381196522801D+03
 0.217668198197765D+03 -.136210042391306D+03 -.546464666891788D+02 -.132381196522801D+03
 0.366320556910068D+02 0.187158440374679D+02 -.312071449644198D+02 -.421174420921857D+01
0.127635811065D-02 0.000000000000D+00 0.000000000000D+00 0.742040794261D-03 0.000000000000D+00  5 2 -2 25 23 21 0 0.24109161D-01 0.49540025D-01 0.32901966D+05 0.32901966D+05 0.32901966D+05 0.12107121D+01  1  2  2  2  5  2       -2 0.111222052169D+00 0.100000000000D+01
-.669662200602D-04 0.000000000000D+00 -.490155121772D-05 0.742040794261D-03 0.000000000000D+00  5 2 -2 25 23 21 2 0.24109161D-01 0.49540025D-01 0.32901966D+05 0.32901966D+05 0.32901966D+05 0.12107121D+01  1  2  3  2  5  2       -2 -.855373724466D-02 0.100000000000D+01
0.875047437947D-04 0.000000000000D+00 0.000000000000D+00 0.742040794261D-03 0.000000000000D+00  5 2 -2 25 23 21 2 0.24109161D-01 0.49540025D-01 0.32901966D+05 0.32901966D+05 0.32901966D+05 0.12107121D+01  1  2 15  2  5  2       -2 0.111771664193D-01 0.100000000000D+01
0.132275801467D-02 0.000000000000D+00 0.000000000000D+00 0.742040794261D-03 0.000000000000D+00  5 2 -2 25 23 21 2 0.24109161D-01 0.55918724D-01 0.40202117D+05 0.40202117D+05 0.40202117D+05 0.12017780D+01  1  2 12  2  5  2       -2 0.130721626289D+00 0.100000000000D+01
-.113543703496D-02 0.000000000000D+00 0.000000000000D+00 0.742040794261D-03 0.000000000000D+00  5 2 -2 25 23 21 2 0.24109161D-01 0.49540025D-01 0.32901966D+05 0.32901966D+05 0.32901966D+05 0.12107121D+01  1  2  4  2  5  2       -2 -.145031779399D+00 0.100000000000D+01
-.364574706118D-02 0.000000000000D+00 -.980236821906D-03 0.742040794261D-03 0.000000000000D+00  5 2 -2 25 23 21 2 0.24109161D-01 0.57818410D-01 0.32901966D+05 0.32901966D+05 0.32901966D+05 0.12107121D+01  1  2  5  2  5  2       -2 -.341003633135D+00 0.100000000000D+01
0.376378135820D-02 0.000000000000D+00 0.968648909082D-03 0.742040794261D-03 0.000000000000D+00  5 2 -2 25 23 21 2 0.24109161D-01 0.49540025D-01 0.32901966D+05 0.32901966D+05 0.32901966D+05 0.12107121D+01  1  2  6  2  5  2       -2 0.480755771425D+00 0.100000000000D+01
0.252940733306D-04 0.000000000000D+00 0.000000000000D+00 0.742040794261D-03 0.000000000000D+00  5 2 21 25 23 2 2 0.24109161D-01 0.55918724D-01 0.40202117D+05 0.40202117D+05 0.40202117D+05 0.12017780D+01  1  2 12  4  5  2       -2 0.301996283987D-01 0.100000000000D+01
-.780073393847D-04 0.000000000000D+00 -.229033090983D-04 0.742040794261D-03 0.000000000000D+00  5 2 21 25 23 2 2 0.24109161D-01 0.57818410D-01 0.32901966D+05 0.32901966D+05 0.32901966D+05 0.12107121D+01  1  2  5  4  5  2       -2 -.884354730917D-01 0.100000000000D+01
  </mgrwgt>
  </event>
  <event>
  4     66 0.45228882E-03 0.12719842E+03 0.75467711E-02 0.10009559E+00
        2 -1    0    0  501    0 0.00000000E+00 0.00000000E+00 0.46713407E+03 0.46713418E+03 0.32000000E+00 0.0000E+00 0.9000E+01
       -2 -1    0    0    0  501 0.00000000E+00 0.00000000E+00 -.34687038E+02 0.34688514E+02 0.32000000E+00 0.0000E+00 0.9000E+01
       25  1    1    2    0    0 0.23275682E+02 0.62241154E+02 0.25029421E+03 0.28755506E+03 0.12500000E+03 0.0000E+00 0.9000E+01
       23  1    1    2    0    0 -.23275682E+02 -.62241154E+02 0.18215282E+03 0.21426764E+03 0.91188000E+02 0.0000E+00 0.9000E+01
#aMCatNLO 1  0  0  2  1 0.52305612D+03 0.00000000D+00  -5  5  0 0.00000000D+00 0.00000000D+00 0.00000000D+00 0.00000000D+00 0.00000000D+00
  <mgrwgt>
 0.1718812279D+00    5    2    0
 0.127294521015635D+03 0.000000000000000D+00 0.000000000000000D+00 0.127294521015635D+03
 0.127294521015635D+03 0.000000000000000D+00 0.000000000000000D+00 -.127294521015635D+03
 0.141650497607711D+03 0.232756816777564D+02 0.622411542383903D+02 0.491373931143877D+01
 0.112938544423559D+03 -.232756816777564D+02 -.622411542383903D+02 -.491373931143877D+01
 0.000000000000000D+00 0.000000000000000D+00 -.000000000000000D+00 -.000000000000000D+00
 0.353948326860241D+03 0.000000000000000D+00 0.000000000000000D+00 0.353948326860241D+03
 0.137504552121386D+04 0.000000000000000D+00 0.000000000000000D+00 -.137504552121386D+04
 0.451281958509969D+03 0.212878972533324D+02 0.433073996763952D+03 0.491373931143877D+01
 0.130442444073748D+03 -.240916075612938D+02 0.899746046561182D+02 -.491373931143877D+01
 0.114726944549039D+04 0.280371030796140D+01 -.523048601420071D+03 -.102109719435362D+04
0.143999293731D-03 0.000000000000D+00 0.000000000000D+00 0.156218943162D-02 0.000000000000D+00  5 2 -2 25 23 21 0 0.71866902D-01 0.53365893D-02 0.16179439D+05 0.16179439D+05 0.16179439D+05 0.12440924D+01  1  2  2  2  5  2       -2 0.162023928034D+00 0.100000000000D+01
-.799995521517D-05 0.000000000000D+00 -.552995203812D-06 0.156218943162D-02 0.000000000000D+00  5 2 -2 25 23 21 2 0.71866902D-01 0.53365893D-02 0.16179439D+05 0.16179439D+05 0.16179439D+05 0.12440924D+01  1  2  3  2  5  2       -2 -.139319408383D-01 0.100000000000D+01
0.995574287913D-05 0.000000000000D+00 0.000000000000D+00 0.156218943162D-02 0.000000000000D+00  5 2 -2 25 23 21 2 0.71866902D-01 0.53365893D-02 0.16179439D+05 0.16179439D+05 0.16179439D+05 0.12440924D+01  1  2 15  2  5  2       -2 0.173379496588D-01 0.100000000000D+01
0.483825821287D-03 0.000000000000D+00 -.228187353152D-03 0.156218943162D-02 0.000000000000D+00  5 2 -2 25 23 21 2 0.71866902D-01 0.14298331D+00 0.16179439D+05 0.16179439D+05 0.16179439D+05 0.12440924D+01  1  2  5  2  5  2       -2 0.191064184343D-02 0.100000000000D+01
0.971383020003D-04 0.000000000000D+00 -.763505475353D-04 0.156218943162D-02 0.000000000000D+00  5 2 21 25 23 2 2 0.71866902D-01 0.14298331D+00 0.16179439D+05 0.16179439D+05 0.16179439D+05 0.12440924D+01  1  2  5  4  5  2       -2 0.454064922166D-02 0.100000000000D+01
  </mgrwgt>
  </event>
  <event>
  4     66 0.45228882E-03 0.22377127E+03 0.75467711E-02 0.10433525E+00
        2 -1    0    0  501    0 0.00000000E+00 0.00000000E+00 0.26783404E+04 0.26783404E+04 0.32000000E+00 0.0000E+00 0.9000E+01
       -2 -1    0    0    0  501 0.00000000E+00 0.00000000E+00 -.24374928E+02 0.24377028E+02 0.32000000E+00 0.0000E+00 0.9000E+01
       25  1    1    2    0    0 -.19525605E+03 -.67250023E+01 0.71212065E+03 0.74893990E+03 0.12500000E+03 0.0000E+00 0.9000E+01
       23  1    1    2    0    0 0.19525605E+03 0.67250023E+01 0.19418448E+04 0.19537775E+04 0.91188000E+02 0.0000E+00 0.9000E+01
#aMCatNLO 1  0  0  2  1 0.28520849D+03 0.00000000D+00  -5  5  0 0.00000000D+00 0.00000000D+00 0.00000000D+00 0.00000000D+00 0.00000000D+00
  <mgrwgt>
 0.2174776732D+00    3    2    0
 0.255513635277849D+03 0.000000000000000D+00 0.000000000000000D+00 0.255513635277849D+03
 0.255513635277849D+03 0.000000000000000D+00 0.000000000000000D+00 -.255513635277849D+03
 0.262665649541248D+03 -.195256048010377D+03 -.672500227571829D+01 -.123280547973662D+03
 0.248361621014451D+03 0.195256048010377D+03 0.672500227571829D+01 0.123280547973662D+03
 0.000000000000000D+00 0.000000000000000D+00 -.000000000000000D+00 0.000000000000000D+00
 0.472984379033843D+03 0.000000000000000D+00 0.000000000000000D+00 0.472984379033843D+03
 0.405360281959471D+03 0.000000000000000D+00 0.000000000000000D+00 -.405360281959471D+03
 0.404959793461541D+03 -.362840878795720D+03 0.389337576721894D+02 -.123280547973662D+03
 0.180269013576069D+03 0.876627962550414D+02 0.360389588605127D+02 0.123280547973662D+03
 0.293115853955704D+03 0.275178082540679D+03 -.749727165327022D+02 0.676240970743728D+02
0.218526844828D-02 0.000000000000D+00 0.000000000000D+00 0.818451117088D-03 0.000000000000D+00  5 2 -2 25 23 21 0 0.41205253D+00 0.37501520D-02 0.50073583D+05 0.50073583D+05 0.50073583D+05 0.11922185D+01  1  2  2  2  5  2       -2 0.213199092781D+00 0.100000000000D+01
-.118806413158D-03 0.000000000000D+00 -.839200623580D-05 0.818451117088D-03 0.000000000000D+00  5 2 -2 25 23 21 2 0.41205253D+00 0.37501520D-02 0.50073583D+05 0.50073583D+05 0.50073583D+05 0.11922185D+01  1  2  3  2  5  2       -2 -.164752557116D-01 0.100000000000D+01
0.149660125172D-03 0.000000000000D+00 0.000000000000D+00 0.818451117088D-03 0.000000000000D+00  5 2 -2 25 23 21 2 0.41205253D+00 0.37501520D-02 0.50073583D+05 0.50073583D+05 0.50073583D+05 0.11922185D+01  1  2 15  2  5  2       -2 0.207538361482D-01 0.100000000000D+01
  </mgrwgt>
  </event>
  <event>
  4     66 0.45228882E-03 0.15759298E+03 0.75467711E-02 0.10480403E+00
        2 -1    0    0  501    0 0.00000000E+00 0.00000000E+00 0.61399303E+03 0.61399311E+03 0.32000000E+00 0.0000E+00 0.9000E+01
       -2 -1    0    0    0  501 0.00000000E+00 0.00000000E+00 -.43150891E+02 0.43152078E+02 0.32000000E+00 0.0000E+00 0.9000E+01
       25  1    1    2    0    0 -.11372116E+03 0.82087926E+01 0.38712348E+03 0.42248015E+03 0.12500000E+03 0.0000E+00 0.9000E+01
       23  1    1    2    0    0 0.11372116E+03 -.82087926E+01 0.18371866E+03 0.23466504E+03 0.91188000E+02 0.0000E+00 0.9000E+01
#aMCatNLO 1  0  0  2  2 0.32457250D+03 0.00000000D+00  -5  5  0 0.00000000D+00 0.00000000D+00 0.00000000D+00 0.00000000D+00 0.00000000D+00
  <mgrwgt>
 0.1875847004D+00    5    2    0
 0.162772121746555D+03 0.000000000000000D+00 0.000000000000000D+00 0.162772121746555D+03
 0.162772121746555D+03 0.000000000000000D+00 0.000000000000000D+00 -.162772121746555D+03
 0.173999088283523D+03 -.113721157073583D+03 0.820879255090826D+01 0.406299997809373D+02
 0.151545155209586D+03 0.113721157073583D+03 -.820879255090826D+01 -.406299997809373D+02
 0.000000000000000D+00 -.000000000000000D+00 -.000000000000000D+00 -.000000000000000D+00
 0.301694338255767D+03 0.000000000000000D+00 0.000000000000000D+00 0.301694338255767D+03
 0.596439359851505D+03 0.000000000000000D+00 0.000000000000000D+00 -.596439359851505D+03
 0.145970981175830D+03 0.658115650062049D+01 0.631539297458985D+02 0.406299997809373D+02
 0.313731493039343D+03 0.288655823090861D+03 0.716883344361838D+02 -.406299997809373D+02
 0.438431223892099D+03 -.295236979591481D+03 -.134842264182082D+03 -.294745021595739D+03
0.276015705479D-03 0.000000000000D+00 0.000000000000D+00 0.120358484295D-02 0.000000000000D+00  5 2 -2 25 23 21 0 0.94460563D-01 0.66386963D-02 0.24835546D+05 0.24835546D+05 0.24835546D+05 0.12236051D+01  1  2  2  2  5  2       -2 0.166634686638D+00 0.100000000000D+01
-.153147117045D-04 0.000000000000D+00 -.105997298565D-05 0.120358484295D-02 0.000000000000D+00  5 2 -2 25 23 21 2 0.94460563D-01 0.66386963D-02 0.24835546D+05 0.24835546D+05 0.24835546D+05 0.12236051D+01  1  2  3  2  5  2       -2 -.138427690237D-01 0.100000000000D+01
0.190117235609D-04 0.000000000000D+00 0.000000000000D+00 0.120358484295D-02 0.000000000000D+00  5 2 -2 25 23 21 2 0.94460563D-01 0.66386963D-02 0.24835546D+05 0.24835546D+05 0.24835546D+05 0.12236051D+01  1  2 15  2  5  2       -2 0.171844500291D-01 0.100000000000D+01
0.156738981529D-03 0.000000000000D+00 -.125729824333D-03 0.120358484295D-02 0.000000000000D+00  5 2 -2 25 23 21 2 0.94460563D-01 0.44275583D-01 0.24835546D+05 0.24835546D+05 0.24835546D+05 0.12236051D+01  1  2  5  2  5  2       -2 0.575964906535D-02 0.100000000000D+01
0.257609719640D-04 0.000000000000D+00 -.292057404550D-04 0.120358484295D-02 0.000000000000D+00  5 2 21 25 23 2 2 0.94460563D-01 0.44275583D-01 0.24835546D+05 0.24835546D+05 0.24835546D+05 0.12236051D+01  1  2  5  4  5  2       -2 0.118486837396D-01 0.100000000000D+01
  </mgrwgt>
  </event>
  <event>
  4     66 0.45228882E-03 0.12304202E+03 0.75467711E-02 0.12042927E+00
        4 -1    0    0  501    0 0.00000000E+00 0.00000000E+00 0.39364056E+03 0.39364361E+03 0.15500000E+01 0.0000E+00 0.9000E+01
       -4 -1    0    0    0  501 0.00000000E+00 0.00000000E+00 -.49742975E+02 0.49767119E+02 0.15500000E+01 0.0000E+00 0.9000E+01
       25  1    1    2    0    0 0.55669359E+02 -.17050555E+02 0.82941881E+02 0.16091661E+03 0.12500000E+03 0.0000E+00 0.9000E+01
       23  1    1    2    0    0 -.55669359E+02 0.17050555E+02 0.26095570E+03 0.28249412E+03 0.91188000E+02 0.0000E+00 0.9000E+01
#aMCatNLO 1  0  0  2  1 0.43780820D+02 0.00000000D+00  -5  5  0 0.00000000D+00 0.00000000D+00 0.00000000D+00 0.00000000D+00 0.00000000D+00
  <mgrwgt>
 0.5457990355D-02    4    2    0
 0.139953141277257D+03 0.000000000000000D+00 0.000000000000000D+00 0.139953141277257D+03
 0.139953141277257D+03 0.000000000000000D+00 0.000000000000000D+00 -.139953141277257D+03
 0.153010634287576D+03 0.556693587965916D+02 -.170505548354383D+02 -.663133114545363D+02
 0.126895648266937D+03 -.556693587965916D+02 0.170505548354383D+02 0.663133114545363D+02
 0.000000000000000D+00 -.000000000000000D+00 -.000000000000000D+00 0.000000000000000D+00
 0.169535337306513D+03 0.000000000000000D+00 0.000000000000000D+00 0.169535337306513D+03
 0.158842000182932D+03 0.000000000000000D+00 0.000000000000000D+00 -.158842000182932D+03
 0.152428679148744D+03 0.562793401858166D+02 0.668452086641211D+01 -.663133114545363D+02
 0.130880846340794D+03 -.551545630339854D+02 0.370818485966710D+02 0.663133114545363D+02
 0.450678119999066D+02 -.112477715183120D+01 -.437663694630831D+02 0.106933371235807D+02
0.197203638506D-03 0.000000000000D+00 0.000000000000D+00 0.116918675470D-02 0.000000000000D+00  5 4 -4 25 23 21 0 0.60562178D-01 0.76548574D-02 0.15139339D+05 0.15139339D+05 0.15139339D+05 0.12473650D+01  1  2  2  2  5  2       -4 0.992099366033D-02 0.100000000000D+01
-.107348389785D-04 0.000000000000D+00 -.757313896774D-06 0.116918675470D-02 0.000000000000D+00  5 4 -4 25 23 21 2 0.60562178D-01 0.76548574D-02 0.15139339D+05 0.15139339D+05 0.15139339D+05 0.12473650D+01  1  2  3  2  5  2       -4 -.840277810312D-03 0.100000000000D+01
0.134906395212D-04 0.000000000000D+00 0.000000000000D+00 0.116918675470D-02 0.000000000000D+00  5 4 -4 25 23 21 2 0.60562178D-01 0.76548574D-02 0.15139339D+05 0.15139339D+05 0.15139339D+05 0.12473650D+01  1  2 15  2  5  2       -4 0.105599022578D-02 0.100000000000D+01
-.597722077974D-04 0.000000000000D+00 0.000000000000D+00 0.116918675470D-02 0.000000000000D+00  5 4 -4 25 23 21 2 0.60562178D-01 0.76548574D-02 0.15139339D+05 0.15139339D+05 0.15139339D+05 0.12473650D+01  1  2  4  2  5  2       -4 -.467871572049D-02 0.100000000000D+01
  </mgrwgt>
  </event>
  <event>
  5     66 -.45228882E-03 0.26995301E+03 0.75467711E-02 0.10950975E+00
        2 -1    0    0  501    0 0.00000000E+00 0.00000000E+00 0.83140124E+03 0.83140130E+03 0.32000000E+00 0.0000E+00 0.9000E+01
       -2 -1    0    0    0  502 0.00000000E+00 0.00000000E+00 -.10264011E+03 0.10264061E+03 0.32000000E+00 0.0000E+00 0.9000E+01
       25  1    1    2    0    0 -.17076329E+03 0.19168432E+03 0.49681232E+03 0.57301873E+03 0.12500000E+03 0.0000E+00 0.9000E+01
       23  1    1    2    0    0 0.16607884E+03 -.17031752E+03 0.21328793E+03 0.33226079E+03 0.91188000E+02 0.0000E+00 0.9000E+01
       21  1    1    2  501  502 0.46844432E+01 -.21366807E+02 0.18660880E+02 0.28762395E+02 0.75000000E+00 0.0000E+00 0.9000E+01
#aMCatNLO 2  0  0  2  1 0.21874287D+02 0.00000000D+00  -5  5  0 0.00000000D+00 0.00000000D+00 0.00000000D+00 0.00000000D+00 0.00000000D+00
  <mgrwgt>
 -.4620050662D-01    3    2    0
 0.280539725503480D+03 0.000000000000000D+00 0.000000000000000D+00 0.280539725503480D+03
 0.280539725503480D+03 0.000000000000000D+00 0.000000000000000D+00 -.280539725503480D+03
 0.287053730465595D+03 -.168332116704978D+03 0.180595205323510D+03 0.763185067594690D+02
 0.274025720541365D+03 0.168332116704978D+03 -.180595205323510D+03 -.763185067594690D+02
 0.000000000000000D+00 0.000000000000000D+00 -.000000000000000D+00 -.000000000000000D+00
 0.288988874730777D+03 0.000000000000000D+00 0.000000000000000D+00 0.288988874730777D+03
 0.295276961483392D+03 0.000000000000000D+00 0.000000000000000D+00 -.295276961483392D+03
 0.295554553692067D+03 -.170763286797033D+03 0.191684322823741D+03 0.763185067594690D+02
 0.265951131738589D+03 0.166078843606462D+03 -.170317516308163D+03 -.763185067594690D+02
 0.227601507835128D+02 0.468444319057074D+01 -.213668065155779D+02 -.628808675261494D+01
-.271817419141D-02 0.000000000000D+00 0.000000000000D+00 0.950485016240D-03 0.000000000000D+00  5 2 -2 25 23 21 2 0.12416566D+00 0.16006987D-01 0.79009029D+05 0.79009029D+05 0.79009029D+05 0.11730900D+01  1  2 13  2  5  2       -2 -.403475170343D+00 0.100000000000D+01
-.203846084411D-03 0.000000000000D+00 0.000000000000D+00 0.950485016240D-03 0.000000000000D+00  5 2 -2 25 23 21 2 0.12416566D+00 0.15002393D-01 0.72874630D+05 0.72874630D+05 0.72874630D+05 0.11764109D+01  1  2  8  2  5  2       -2 -.339005426452D-01 0.100000000000D+01
0.267676323402D-02 0.000000000000D+00 0.000000000000D+00 0.950485016240D-03 0.145885700111D-04  5 2 -2 25 23 21 2 0.12790521D+00 0.15790494D-01 0.79009029D+05 0.79009029D+05 0.79009029D+05 0.11730900D+01  1  2  1  2  5  2       -2 0.391175206366D+00 0.100000000000D+01
  </mgrwgt>
  </event>
  <event>
  4     66 0.45228882E-03 0.10824113E+03 0.75467711E-02 0.11142745E+00
        2 -1    0    0  501    0 0.00000000E+00 0.00000000E+00 0.12838630E+04 0.12838631E+04 0.32000000E+00 0.0000E+00 0.9000E+01
       -2 -1    0    0    0  501 0.00000000E+00 0.00000000E+00 -.94796334E+01 0.94850329E+01 0.32000000E+00 0.0000E+00 0.9000E+01
       25  1    1    2    0    0 0.89682828E+00 0.54999208E+01 0.60889737E+03 0.62162051E+03 0.12500000E+03 0.0000E+00 0.9000E+01
       23  1    1    2    0    0 -.89682828E+00 -.54999208E+01 0.66548601E+03 0.67172757E+03 0.91188000E+02 0.0000E+00 0.9000E+01
#aMCatNLO 1  0  0  2  1 0.20132173D+03 0.00000000D+00  -5  5  0 0.00000000D+00 0.00000000D+00 0.00000000D+00 0.00000000D+00 0.00000000D+00
  <mgrwgt>
 0.2519942204D+00    3    2    0
 0.110336160065515D+03 0.000000000000000D+00 0.000000000000000D+00 0.110336160065515D+03
 0.110336160065515D+03 0.000000000000000D+00 0.000000000000000D+00 -.110336160065515D+03
 0.126898610334900D+03 0.896828283671186D+00 0.549992075063709D+01 -.211471954569635D+02
 0.937737097961294D+02 -.896828283671186D+00 -.549992075063709D+01 0.211471954569635D+02
 0.000000000000000D+00 -.000000000000000D+00 -.000000000000000D+00 0.000000000000000D+00
 0.298410540679263D+03 0.000000000000000D+00 0.000000000000000D+00 0.298410540679263D+03
 0.217332593430736D+03 0.000000000000000D+00 0.000000000000000D+00 -.217332593430736D+03
 0.172690374367238D+03 0.117000665143538D+03 0.778497780160466D+01 -.211471954569635D+02
 0.126018032343093D+03 0.842820864145770D+02 -.382350173737124D+01 0.211471954569635D+02
 0.217034727399668D+03 -.201282751558115D+03 -.396147606423342D+01 0.810779472485267D+02
0.118791347569D-03 0.000000000000D+00 0.000000000000D+00 0.181899842999D-02 0.000000000000D+00  5 2 -2 25 23 21 0 0.19751780D+00 0.14588236D-02 0.11716143D+05 0.11716143D+05 0.11716143D+05 0.12602444D+01  1  2  2  2  5  2       -2 0.246942032635D+00 0.100000000000D+01
-.659657047879D-05 0.000000000000D+00 -.456190053145D-06 0.181899842999D-02 0.000000000000D+00  5 2 -2 25 23 21 2 0.19751780D+00 0.14588236D-02 0.11716143D+05 0.11716143D+05 0.11716143D+05 0.12602444D+01  1  2  3  2  5  2       -2 -.217790018142D-01 0.100000000000D+01
0.812681106577D-05 0.000000000000D+00 0.000000000000D+00 0.181899842999D-02 0.000000000000D+00  5 2 -2 25 23 21 2 0.19751780D+00 0.14588236D-02 0.11716143D+05 0.11716143D+05 0.11716143D+05 0.12602444D+01  1  2 15  2  5  2       -2 0.268311895574D-01 0.100000000000D+01
  </mgrwgt>
  </event>
  <event>
  4     66 0.45228882E-03 0.70232909E+02 0.75467711E-02 0.11613395E+00
        2 -1    0    0  501    0 0.00000000E+00 0.00000000E+00 0.42372352E+03 0.42372364E+03 0.32000000E+00 0.0000E+00 0.9000E+01
       -2 -1    0    0    0  501 0.00000000E+00 0.00000000E+00 -.34164181E+02 0.34165680E+02 0.32000000E+00 0.0000E+00 0.9000E+01
       25  1    1    2    0    0 0.39589538E+02 0.22563060E+02 0.17045821E+03 0.21623465E+03 0.12500000E+03 0.0000E+00 0.9000E+01
       23  1    1    2    0    0 -.39589538E+02 -.22563060E+02 0.21910112E+03 0.24165467E+03 0.91188000E+02 0.0000E+00 0.9000E+01
#aMCatNLO 1  0  0  2  1 0.11290359D+03 0.00000000D+00  -5  5  0 0.00000000D+00 0.00000000D+00 0.00000000D+00 0.00000000D+00 0.00000000D+00
  <mgrwgt>
 0.1255279996D+00    7    2    0
 0.120318485164921D+03 0.000000000000000D+00 0.000000000000000D+00 0.120318485164921D+03
 0.120318485164921D+03 0.000000000000000D+00 0.000000000000000D+00 -.120318485164921D+03
 0.135506817709958D+03 0.395895383217112D+02 0.225630600553268D+02 -.257035877319362D+02
 0.105130152619883D+03 -.395895383217112D+02 -.225630600553268D+02 0.257035877319362D+02
 0.000000000000000D+00 0.000000000000000D+00 0.000000000000000D+00 -.000000000000000D+00
 0.156943924430445D+03 0.000000000000000D+00 0.000000000000000D+00 0.156943924430445D+03
 0.265463827449947D+03 0.000000000000000D+00 0.000000000000000D+00 -.265463827449947D+03
 0.128731271654539D+03 -.163833380606727D+02 0.420144183478684D+01 -.257035877319362D+02
 0.137075747732732D+03 -.908953926447042D+02 -.393936853589412D+02 0.257035877319362D+02
 0.156600732493122D+03 0.107278730705377D+03 0.351922435241544D+02 -.108519903019502D+03
0.110171251748D-03 0.000000000000D+00 0.000000000000D+00 0.161028681619D-02 0.000000000000D+00  5 2 -2 25 23 21 0 0.65188358D-01 0.52561525D-02 0.13804635D+05 0.13804635D+05 0.13804635D+05 0.12519552D+01  1  2  2  2  5  2       -2 0.139988179896D+00 0.100000000000D+01
-.611642307555D-05 0.000000000000D+00 -.423086615468D-06 0.161028681619D-02 0.000000000000D+00  5 2 -2 25 23 21 2 0.65188358D-01 0.52561525D-02 0.13804635D+05 0.13804635D+05 0.13804635D+05 0.12519552D+01  1  2  3  2  5  2       -2 -.121814275634D-01 0.100000000000D+01
0.763392564393D-05 0.000000000000D+00 0.000000000000D+00 0.161028681619D-02 0.000000000000D+00  5 2 -2 25 23 21 2 0.65188358D-01 0.52561525D-02 0.13804635D+05 0.13804635D+05 0.13804635D+05 0.12519552D+01  1  2 15  2  5  2       -2 0.152036755972D-01 0.100000000000D+01
0.111577555457D-06 0.000000000000D+00 0.000000000000D+00 0.161028681619D-02 0.000000000000D+00  5 2 -2 25 23 21 2 0.65188358D-01 0.11551692D-01 0.34910485D+05 0.34910485D+05 0.34910485D+05 0.12080489D+01  1  2 12  2  5  2       -2 0.629412657195D-04 0.100000000000D+01
-.254996354400D-04 0.000000000000D+00 -.309086254147D-04 0.161028681619D-02 0.000000000000D+00  5 2 -2 25 23 21 2 0.65188358D-01 0.15015549D-01 0.13804635D+05 0.13804635D+05 0.13804635D+05 0.12519552D+01  1  2  5  2  5  2       -2 -.992638866573D-02 0.100000000000D+01
0.952241884189D-08 0.000000000000D+00 0.000000000000D+00 0.161028681619D-02 0.000000000000D+00  5 2 21 25 23 2 2 0.65188358D-01 0.11551692D-01 0.34910485D+05 0.34910485D+05 0.34910485D+05 0.12080489D+01  1  2 12  4  5  2       -2 0.816214660316D-04 0.100000000000D+01
-.133994155142D-05 0.000000000000D+00 -.365735754934D-05 0.161028681619D-02 0.000000000000D+00  5 2 21 25 23 2 2 0.65188358D-01 0.15015549D-01 0.13804635D+05 0.13804635D+05 0.13804635D+05 0.12519552D+01  1  2  5  4  5  2       -2 -.770060236437D-02 0.100000000000D+01
  </mgrwgt>
  </event>
  <event>
  4     66 0.45228882E-03 0.16736019E+03 0.75467711E-02 0.10784268E+00
        2 -1    0    0  501    0 0.00000000E+00 0.00000000E+00 0.38583514E+03 0.38583527E+03 0.32000000E+00 0.0000E+00 0.9000E+01
       -2 -1    0    0    0  501 0.00000000E+00 0.00000000E+00 -.82234332E+02 0.82234955E+02 0.32000000E+00 0.0000E+00 0.9000E+01
       25  1    1    2    0    0 0.39610043E+02 0.12078734E+03 0.80562651E+02 0.19563710E+03 0.12500000E+03 0.0000E+00 0.9000E+01
       23  1    1    2    0    0 -.39610043E+02 -.12078734E+03 0.22303816E+03 0.27243312E+03 0.91188000E+02 0.0000E+00 0.9000E+01
#aMCatNLO 1  0  0  2  1 0.22493167D+03 0.00000000D+00  -5  5  0 0.00000000D+00 0.00000000D+00 0.00000000D+00 0.00000000D+00 0.00000000D+00
  <mgrwgt>
 0.1813300693D+00    5    2    0
 0.178126561631359D+03 0.000000000000000D+00 0.000000000000000D+00 0.178126561631359D+03
 0.178126561631359D+03 0.000000000000000D+00 0.000000000000000D+00 -.178126561631359D+03
 0.188385768047648D+03 0.396100434194475D+02 0.120787335530543D+03 -.608741458966264D+02
 0.167867355215069D+03 -.396100434194475D+02 -.120787335530543D+03 0.608741458966264D+02
 0.000000000000000D+00 -.000000000000000D+00 0.000000000000000D+00 -.000000000000000D+00
 0.297487048017563D+03 0.000000000000000D+00 0.000000000000000D+00 0.297487048017563D+03
 0.356335394489168D+03 0.000000000000000D+00 0.000000000000000D+00 -.356335394489168D+03
 0.189559463472607D+03 0.120064969808455D+03 0.467603633248709D+02 -.608741458966264D+02
 0.231760539069057D+03 0.454605703525380D+02 -.199061224325980D+03 0.608741458966264D+02
 0.232502439965067D+03 -.165525540160993D+03 0.152300861001109D+03 -.588483464716047D+02
0.438617522719D-03 0.000000000000D+00 0.000000000000D+00 0.108157437594D-02 0.000000000000D+00  5 2 -2 25 23 21 0 0.59359311D-01 0.12651494D-01 0.28009433D+05 0.28009433D+05 0.28009433D+05 0.12180403D+01  1  2  2  2  5  2       -2 0.161317202654D+00 0.100000000000D+01
-.242524773446D-04 0.000000000000D+00 -.168440677789D-05 0.108157437594D-02 0.000000000000D+00  5 2 -2 25 23 21 2 0.59359311D-01 0.12651494D-01 0.28009433D+05 0.28009433D+05 0.28009433D+05 0.12180403D+01  1  2  3  2  5  2       -2 -.132334819586D-01 0.100000000000D+01
0.301395087955D-04 0.000000000000D+00 0.000000000000D+00 0.108157437594D-02 0.000000000000D+00  5 2 -2 25 23 21 2 0.59359311D-01 0.12651494D-01 0.28009433D+05 0.28009433D+05 0.28009433D+05 0.12180403D+01  1  2 15  2  5  2       -2 0.164457692391D-01 0.100000000000D+01
0.647495633909D-04 0.000000000000D+00 -.127414815133D-03 0.108157437594D-02 0.000000000000D+00  5 2 -2 25 23 21 2 0.59359311D-01 0.41286296D-01 0.28009433D+05 0.28009433D+05 0.28009433D+05 0.12180403D+01  1  2  5  2  5  2       -2 0.450239053769D-02 0.100000000000D+01
0.140690070487D-04 0.000000000000D+00 -.174173046286D-04 0.108157437594D-02 0.000000000000D+00  5 2 21 25 23 2 2 0.59359311D-01 0.41286296D-01 0.28009433D+05 0.28009433D+05 0.28009433D+05 0.12180403D+01  1  2  5  4  5  2       -2 0.122981888395D-01 0.100000000000D+01
  </mgrwgt>
  </event>
  <event>
  4     66 0.45228882E-03 0.54257350E+02 0.75467711E-02 0.12067105E+00
        2 -1    0    0  501    0 0.00000000E+00 0.00000000E+00 0.26857147E+03 0.26857166E+03 0.32000000E+00 0.0000E+00 0.9000E+01
       -2 -1    0    0    0  501 0.00000000E+00 0.00000000E+00 -.55778241E+02 0.55779159E+02 0.32000000E+00 0.0000E+00 0.9000E+01
       25  1    1    2    0    0 0.34198995E+02 -.31033365E+02 0.75414308E+02 0.15311747E+03 0.12500000E+03 0.0000E+00 0.9000E+01
       23  1    1    2    0    0 -.34198995E+02 0.31033365E+02 0.13737892E+03 0.17123335E+03 0.91188000E+02 0.0000E+00 0.9000E+01
#aMCatNLO 1  0  0  1  2 0.49353735D+02 0.00000000D+00  -5  5  0 0.00000000D+00 0.00000000D+00 0.00000000D+00 0.00000000D+00 0.00000000D+00
  <mgrwgt>
 0.1677394681D+00    9    2    0
 0.122395357937904D+03 0.000000000000000D+00 0.000000000000000D+00 0.122395357937904D+03
 0.122395357937904D+03 0.000000000000000D+00 0.000000000000000D+00 -.122395357937904D+03
 0.137325966375907D+03 0.341989951950458D+02 -.310333651324539D+02 -.331780050226296D+02
 0.107464749499902D+03 -.341989951950458D+02 0.310333651324539D+02 0.331780050226296D+02
 0.000000000000000D+00 0.000000000000000D+00 -.000000000000000D+00 0.000000000000000D+00
 0.155351187304797D+03 0.000000000000000D+00 0.000000000000000D+00 0.155351187304797D+03
 0.144828301314489D+03 0.000000000000000D+00 0.000000000000000D+00 -.144828301314489D+03
 0.130906471750420D+03 0.116741782376687D+02 -.165661670683631D+02 -.331780050226296D+02
 0.118809938799041D+03 -.532004104288771D+02 0.432375592089716D+02 0.331780050226296D+02
 0.504630780698252D+02 0.415262321912084D+02 -.266713921406085D+02 0.105228859903072D+02
0.118643025818D-03 0.000000000000D+00 0.000000000000D+00 0.154331625737D-02 0.000000000000D+00  5 2 -2 25 23 21 0 0.41318772D-01 0.85813531D-02 0.13861852D+05 0.13861852D+05 0.13861852D+05 0.12517484D+01  1  2  2  1  5  1        2 0.115836880616D+00 0.100000000000D+01
-.657920927209D-05 0.000000000000D+00 -.455620458566D-06 0.154331625737D-02 0.000000000000D+00  5 2 -2 25 23 21 2 0.41318772D-01 0.85813531D-02 0.13861852D+05 0.13861852D+05 0.13861852D+05 0.12517484D+01  1  2  3  1  5  1        2 -.100649683953D-01 0.100000000000D+01
0.820853154669D-05 0.000000000000D+00 0.000000000000D+00 0.154331625737D-02 0.000000000000D+00  5 2 -2 25 23 21 2 0.41318772D-01 0.85813531D-02 0.13861852D+05 0.13861852D+05 0.13861852D+05 0.12517484D+01  1  2 15  1  5  1        2 0.125575289024D-01 0.100000000000D+01
0.647108105915D-04 0.000000000000D+00 0.000000000000D+00 0.154331625737D-02 0.000000000000D+00  5 2 -2 25 23 21 2 0.55381268D-01 0.85813531D-02 0.21035060D+05 0.21035060D+05 0.21035060D+05 0.12314208D+01  1  2 12  1  5  1        2 0.712990819556D-01 0.100000000000D+01
-.759213429096D-04 0.000000000000D+00 0.000000000000D+00 0.154331625737D-02 0.000000000000D+00  5 2 -2 25 23 21 2 0.41318772D-01 0.85813531D-02 0.13861852D+05 0.13861852D+05 0.13861852D+05 0.12517484D+01  1  2  4  1  5  1        2 -.116145555691D+00 0.100000000000D+01
-.141850932798D-03 0.000000000000D+00 -.629113186738D-04 0.154331625737D-02 0.000000000000D+00  5 2 -2 25 23 21 2 0.60865278D-01 0.85813531D-02 0.13861852D+05 0.13861852D+05 0.13861852D+05 0.12517484D+01  1  2  5  1  5  1        2 -.144131620863D+00 0.100000000000D+01
0.158612437496D-03 0.000000000000D+00 0.584698821134D-04 0.154331625737D-02 0.000000000000D+00  5 2 -2 25 23 21 2 0.41318772D-01 0.85813531D-02 0.13861852D+05 0.13861852D+05 0.13861852D+05 0.12517484D+01  1  2  6  1  5  1        2 0.242647574271D+00 0.100000000000D+01
0.245860831956D-05 0.000000000000D+00 0.000000000000D+00 0.154331625737D-02 0.000000000000D+00  5 21 -2 25 23 -2 2 0.55381268D-01 0.85813531D-02 0.21035060D+05 0.21035060D+05 0.21035060D+05 0.12314208D+01  1  2 12  3  5  1        2 0.759419470990D-02 0.100000000000D+01
-.454027758841D-05 0.000000000000D+00 -.292494844183D-05 0.154331625737D-02 0.000000000000D+00  5 21 -2 25 23 -2 2 0.60865278D-01 0.85813531D-02 0.13861852D+05 0.13861852D+05 0.13861852D+05 0.12517484D+01  1  2  5  3  5  1        2 -.118536473651D-01 0.100000000000D+01
  </mgrwgt>
  </event>
  <event>
  5     66 0.45228882E-03 0.13581004E+03 0.75467711E-02 0.11971825E+00
        2 -1    0    0  502    0 0.00000000E+00 0.00000000E+00 0.10431412E+04 0.10431413E+04 0.32000000E+00 0.0000E+00 0.9000E+01
       -2 -1    0    0    0  501 0.00000000E+00 0.00000000E+00 -.28161726E+02 0.28163544E+02 0.32000000E+00 0.0000E+00 0.9000E+01
       25  1    1    2    0    0 0.69341841E+02 0.15586504E+02 0.26700054E+03 0.30325817E+03 0.12500000E+03 0.0000E+00 0.9000E+01
       23  1    1    2    0    0 -.92272981E+02 0.63616312E+01 0.68829447E+03 0.70044222E+03 0.91188000E+02 0.0000E+00 0.9000E+01
       21  1    1    2  502  501 0.22931140E+02 -.21948135E+02 0.59684490E+02 0.67604428E+02 0.75000000E+00 0.0000E+00 0.9000E+01
#aMCatNLO 2  0  0  1  2 0.31742051D+02 0.00000000D+00  -5  5  0 0.00000000D+00 0.00000000D+00 0.00000000D+00 0.00000000D+00 0.00000000D+00
  <mgrwgt>
 0.8180444717D-01    1    2    0
 0.153148913749671D+03 0.000000000000000D+00 0.000000000000000D+00 0.153148913749671D+03
 0.153148913749671D+03 0.000000000000000D+00 0.000000000000000D+00 -.153148913749671D+03
 0.165081333766617D+03 0.814836035146503D+02 0.396523065995713D+01 -.705091913316673D+02
 0.141216493732726D+03 -.814836035146503D+02 -.396523065995713D+01 0.705091913316673D+02
 0.000000000000000D+00 0.000000000000000D+00 -.000000000000000D+00 -.000000000000000D+00
 0.163969584078949D+03 0.000000000000000D+00 0.000000000000000D+00 0.163969584078949D+03
 0.179156774797145D+03 0.000000000000000D+00 0.000000000000000D+00 -.179156774797145D+03
 0.160149230587302D+03 0.693418408550169D+02 0.155865038509800D+02 -.705091913316673D+02
 0.147788940086411D+03 -.922729811727654D+02 0.636163116735685D+01 0.705091913316673D+02
 0.351881882023821D+02 0.229311403177485D+02 -.219481350183368D+02 -.151871907181957D+02
0.923086313474D-04 0.000000000000D+00 0.000000000000D+00 0.109244896692D-02 0.880772520121D-05  5 2 -2 25 23 21 2 0.16047960D+00 0.43326139D-02 0.23320195D+05 0.23320195D+05 0.23320195D+05 0.12265496D+01  1  2  1  1  5  1        2 0.818044471656D-01 0.100000000000D+01
  </mgrwgt>
  </event>
  <event>
  4     66 0.45228882E-03 0.14334106E+03 0.75467711E-02 0.11224257E+00
        2 -1    0    0  501    0 0.00000000E+00 0.00000000E+00 0.70590500E+03 0.70590507E+03 0.32000000E+00 0.0000E+00 0.9000E+01
       -2 -1    0    0    0  501 0.00000000E+00 0.00000000E+00 -.46425570E+02 0.46426673E+02 0.32000000E+00 0.0000E+00 0.9000E+01
       25  1    1    2    0    0 -.62854393E+02 -.69198216E+02 0.57731037E+03 0.59803958E+03 0.12500000E+03 0.0000E+00 0.9000E+01
       23  1    1    2    0    0 0.62854393E+02 0.69198216E+02 0.82169056E+02 0.15429217E+03 0.91188000E+02 0.0000E+00 0.9000E+01
#aMCatNLO 1  0  0  1  2 0.14881177D+03 0.00000000D+00  -5  5  0 0.00000000D+00 0.00000000D+00 0.00000000D+00 0.00000000D+00 0.00000000D+00
  <mgrwgt>
 0.1091130298D+00    5    2    0
 0.181031720697309D+03 0.000000000000000D+00 0.000000000000000D+00 0.181031720697309D+03
 0.181031720697309D+03 0.000000000000000D+00 0.000000000000000D+00 -.181031720697309D+03
 0.191126289521828D+03 -.628543934748848D+02 -.691982163535566D+02 0.110295922956256D+03
 0.170937151872791D+03 0.628543934748848D+02 0.691982163535566D+02 -.110295922956256D+03
 0.000000000000000D+00 -.000000000000000D+00 0.000000000000000D+00 0.000000000000000D+00
 0.299103700028096D+03 0.000000000000000D+00 0.000000000000000D+00 0.299103700028096D+03
 0.249279689719557D+03 0.000000000000000D+00 0.000000000000000D+00 -.249279689719557D+03
 0.193652091682629D+03 0.735481492591543D+01 -.982692662519190D+02 0.110295922956256D+03
 0.197800178543844D+03 0.130136645651677D+03 0.413391113321781D+02 -.110295922956256D+03
 0.156931119521180D+03 -.137491460577593D+03 0.569301549197409D+02 0.498240103085384D+02
0.262842465199D-03 0.000000000000D+00 0.000000000000D+00 0.806588881714D-03 0.000000000000D+00  5 2 -2 25 23 21 0 0.10860086D+00 0.71424858D-02 0.20546660D+05 0.20546660D+05 0.20546660D+05 0.12325388D+01  1  2  2  1  5  1        2 0.119943195200D+00 0.100000000000D+01
-.136348049855D-04 0.000000000000D+00 -.100938427437D-05 0.806588881714D-03 0.000000000000D+00  5 2 -2 25 23 21 2 0.10860086D+00 0.71424858D-02 0.20546660D+05 0.20546660D+05 0.20546660D+05 0.12325388D+01  1  2  3  1  5  1        2 -.945214177453D-02 0.100000000000D+01
0.178995929300D-04 0.000000000000D+00 0.000000000000D+00 0.806588881714D-03 0.000000000000D+00  5 2 -2 25 23 21 2 0.10860086D+00 0.71424858D-02 0.20546660D+05 0.20546660D+05 0.20546660D+05 0.12325388D+01  1  2 15  1  5  1        2 0.124086475942D-01 0.100000000000D+01
-.551593663301D-04 0.000000000000D+00 -.960349694956D-04 0.806588881714D-03 0.000000000000D+00  5 2 -2 25 23 21 2 0.22121837D+00 0.71424858D-02 0.20546660D+05 0.20546660D+05 0.20546660D+05 0.12325388D+01  1  2  5  1  5  1        2 -.140057124281D-01 0.100000000000D+01
0.159707017084D-05 0.000000000000D+00 -.738899529858D-05 0.806588881714D-03 0.000000000000D+00  5 21 -2 25 23 -2 2 0.22121837D+00 0.71424858D-02 0.20546660D+05 0.20546660D+05 0.20546660D+05 0.12325388D+01  1  2  5  3  5  1        2 0.219041247082D-03 0.100000000000D+01
  </mgrwgt>
  </event>
  <event>
  4     66 0.45228882E-03 0.12409956E+03 0.75467711E-02 0.11479233E+00
        2 -1    0    0  501    0 0.00000000E+00 0.00000000E+00 0.73124093E+03 0.73124100E+03 0.32000000E+00 0.0000E+00 0.9000E+01
       -2 -1    0    0    0  501 0.00000000E+00 0.00000000E+00 -.24498468E+02 0.24500558E+02 0.32000000E+00 0.0000E+00 0.9000E+01
       25  1    1    2    0    0 -.48745050E+02 0.35655838E+02 0.53012095E+03 0.54799693E+03 0.12500000E+03 0.0000E+00 0.9000E+01
       23  1    1    2    0    0 0.48745050E+02 -.35655838E+02 0.17662151E+03 0.20774462E+03 0.91188000E+02 0.0000E+00 0.9000E+01
#aMCatNLO 1  0  0  1  2 0.12677180D+03 0.00000000D+00  -5  5  0 0.00000000D+00 0.00000000D+00 0.00000000D+00 0.00000000D+00 0.00000000D+00
  <mgrwgt>
 0.1149773409D+00    5    2    0
 0.133847296196664D+03 0.000000000000000D+00 0.000000000000000D+00 0.133847296196664D+03
 0.133847296196664D+03 0.000000000000000D+00 0.000000000000000D+00 -.133847296196664D+03
 0.147500445837542D+03 -.487450497755736D+02 0.356558379546388D+02 0.498393706260728D+02
 0.120194146555786D+03 0.487450497755736D+02 -.356558379546388D+02 -.498393706260728D+02
 0.000000000000000D+00 0.000000000000000D+00 -.000000000000000D+00 0.000000000000000D+00
 0.254136248703076D+03 0.000000000000000D+00 0.000000000000000D+00 0.254136248703076D+03
 0.185987170647453D+03 0.000000000000000D+00 0.000000000000000D+00 -.185987170647453D+03
 0.184970964186353D+03 -.660326222973692D+02 0.108374293631650D+03 0.498393706260728D+02
 0.111224046979310D+03 0.367119585593594D+02 0.149601643302685D+02 -.498393706260728D+02
 0.143928408184865D+03 0.293206637380099D+02 -.123334457961918D+03 0.681490780556230D+02
0.111553987227D-03 0.000000000000D+00 0.000000000000D+00 0.132391304852D-02 0.000000000000D+00  5 2 -2 25 23 21 0 0.11249877D+00 0.37691612D-02 0.15400702D+05 0.15400702D+05 0.15400702D+05 0.12465194D+01  1  2  2  1  5  1        2 0.126680985216D+00 0.100000000000D+01
-.615435988796D-05 0.000000000000D+00 -.428396683793D-06 0.132391304852D-02 0.000000000000D+00  5 2 -2 25 23 21 2 0.11249877D+00 0.37691612D-02 0.15400702D+05 0.15400702D+05 0.15400702D+05 0.12465194D+01  1  2  3  1  5  1        2 -.108594372129D-01 0.100000000000D+01
0.771408952595D-05 0.000000000000D+00 0.000000000000D+00 0.132391304852D-02 0.000000000000D+00  5 2 -2 25 23 21 2 0.11249877D+00 0.37691612D-02 0.15400702D+05 0.15400702D+05 0.15400702D+05 0.12465194D+01  1  2 15  1  5  1        2 0.136115976945D-01 0.100000000000D+01
-.284359021854D-04 0.000000000000D+00 -.395408631813D-04 0.132391304852D-02 0.000000000000D+00  5 2 -2 25 23 21 2 0.25875068D+00 0.37691612D-02 0.15400702D+05 0.15400702D+05 0.15400702D+05 0.12465194D+01  1  2  5  1  5  1        2 -.144385837791D-01 0.100000000000D+01
-.763548642624D-07 0.000000000000D+00 -.358428288267D-05 0.132391304852D-02 0.000000000000D+00  5 21 -2 25 23 -2 2 0.25875068D+00 0.37691612D-02 0.15400702D+05 0.15400702D+05 0.15400702D+05 0.12465194D+01  1  2  5  3  5  1        2 -.172210309706D-04 0.100000000000D+01
  </mgrwgt>
  </event>
  <event>
  5     66 0.45228882E-03 0.12052771E+03 0.75467711E-02 0.12220351E+00
        2 -1    0    0  501    0 0.00000000E+00 0.00000000E+00 0.21893424E+04 0.21893424E+04 0.32000000E+00 0.0000E+00 0.9000E+01
       21 -1    0    0  502  501 0.00000000E+00 0.00000000E+00 -.85026345E+01 0.85356484E+01 0.75000000E+00 0.0000E+00 0.9000E+01
       25  1    1    2    0    0 0.59443605E+02 -.19662604E+02 0.12965484E+04 0.13040640E+04 0.12500000E+03 0.0000E+00 0.9000E+01
       23  1    1    2    0    0 -.36351487E+02 0.29553550E+02 0.63026790E+03 0.63855127E+03 0.91188000E+02 0.0000E+00 0.9000E+01
        2  1    1    2  502    0 -.23092118E+02 -.98909454E+01 0.25402340E+03 0.25526274E+03 0.32000000E+00 0.0000E+00 0.9000E+01
#aMCatNLO 2  0  0  2  1 0.25121240D+02 0.00000000D+00  -5  5  0 0.00000000D+00 0.00000000D+00 0.00000000D+00 0.00000000D+00 0.00000000D+00
  <mgrwgt>
 0.6938648873D-01    1    2    0
 0.122985710143296D+03 0.000000000000000D+00 0.000000000000000D+00 0.122985710143296D+03
 0.122985710143296D+03 0.000000000000000D+00 0.000000000000000D+00 -.122985710143296D+03
 0.137844649136052D+03 0.463464369807018D+02 -.252724564999761D+02 0.242787564980555D+02
 0.108126771150540D+03 -.463464369807018D+02 0.252724564999761D+02 -.242787564980555D+02
 0.000000000000000D+00 -.000000000000000D+00 -.000000000000000D+00 0.000000000000000D+00
 0.139895756330148D+03 0.000000000000000D+00 0.000000000000000D+00 0.139895756330148D+03
 0.133322219163069D+03 0.000000000000000D+00 0.000000000000000D+00 -.133322219163069D+03
 0.141896505072711D+03 0.594436046381745D+02 -.196626041606506D+02 0.242787564980555D+02
 0.105354412616053D+03 -.363514869583671D+02 0.295535495752598D+02 -.242787564980555D+02
 0.259670578044533D+02 -.230921176798074D+02 -.989094541460915D+01 0.657353716707919D+01
0.240468904445D-05 0.000000000000D+00 0.000000000000D+00 0.157694732777D-02 0.310514445094D-06  5 2 21 25 23 2 2 0.33682200D+00 0.13106294D-02 0.17881573D+05 0.17881573D+05 0.17881573D+05 0.12392153D+01  1  2  1  4  5  2       -2 0.693864887269D-01 0.100000000000D+01
  </mgrwgt>
  </event>
  <event>
  4     66 0.45228882E-03 0.12516931E+03 0.75467711E-02 0.10675680E+00
        2 -1    0    0  501    0 0.00000000E+00 0.00000000E+00 0.23245517E+03 0.23245539E+03 0.32000000E+00 0.0000E+00 0.9000E+01
       -2 -1    0    0    0  501 0.00000000E+00 0.00000000E+00 -.30222722E+03 0.30222739E+03 0.32000000E+00 0.0000E+00 0.9000E+01
       25  1    1    2    0    0 0.19406678E+03 0.11697391E+03 -.12010253E+03 0.28529709E+03 0.12500000E+03 0.0000E+00 0.9000E+01
       23  1    1    2    0    0 -.19406678E+03 -.11697391E+03 0.50330483E+02 0.24938569E+03 0.91188000E+02 0.0000E+00 0.9000E+01
#aMCatNLO 1  0  0  2  1 0.15199850D+03 0.00000000D+00  -5  5  0 0.00000000D+00 0.00000000D+00 0.00000000D+00 0.00000000D+00 0.00000000D+00
  <mgrwgt>
 0.1352853556D+00    7    2    0
 0.265055434873379D+03 0.000000000000000D+00 0.000000000000000D+00 0.265055434873379D+03
 0.265055434873379D+03 0.000000000000000D+00 0.000000000000000D+00 -.265055434873379D+03
 0.271949981913597D+03 0.194066782844742D+03 0.116973912100132D+03 -.835881591320684D+02
 0.258160887833161D+03 -.194066782844742D+03 -.116973912100132D+03 0.835881591320684D+02
 0.000000000000000D+00 0.000000000000000D+00 0.000000000000000D+00 -.000000000000000D+00
 0.302754217931441D+03 0.000000000000000D+00 0.000000000000000D+00 0.302754217931441D+03
 0.489512303001653D+03 0.000000000000000D+00 0.000000000000000D+00 -.489512303001653D+03
 0.222746140317637D+03 0.152482867557202D+03 0.612604095713461D+02 -.835881591320684D+02
 0.328725598666645D+03 -.243400175287634D+03 -.183070047243140D+03 0.835881591320684D+02
 0.240794781948813D+03 0.909173077304317D+02 0.121809637671794D+03 -.186758085070212D+03
0.246013581618D-02 0.000000000000D+00 0.000000000000D+00 0.939065002096D-03 0.000000000000D+00  5 2 -2 25 23 21 0 0.35762364D-01 0.46496525D-01 0.63262149D+05 0.63262149D+05 0.63262149D+05 0.11822935D+01  1  2  2  2  5  2       -2 0.158162127448D+00 0.100000000000D+01
-.136217623544D-03 0.000000000000D+00 -.944756930277D-05 0.939065002096D-03 0.000000000000D+00  5 2 -2 25 23 21 2 0.35762364D-01 0.46496525D-01 0.63262149D+05 0.63262149D+05 0.63262149D+05 0.11822935D+01  1  2  3  2  5  2       -2 -.122412936245D-01 0.100000000000D+01
0.168498617033D-03 0.000000000000D+00 0.000000000000D+00 0.939065002096D-03 0.000000000000D+00  5 2 -2 25 23 21 2 0.35762364D-01 0.46496525D-01 0.63262149D+05 0.63262149D+05 0.63262149D+05 0.11822935D+01  1  2 15  2  5  2       -2 0.151422480643D-01 0.100000000000D+01
0.735014376427D-03 0.000000000000D+00 0.000000000000D+00 0.939065002096D-03 0.000000000000D+00  5 2 -2 25 23 21 2 0.35762364D-01 0.86711350D-01 0.11437475D+06 0.11437475D+06 0.11437475D+06 0.11582511D+01  1  2 12  2  5  2       -2 0.169930368028D-01 0.100000000000D+01
-.173156503499D-02 0.000000000000D+00 -.667032319885D-03 0.939065002096D-03 0.000000000000D+00  5 2 -2 25 23 21 2 0.35762364D-01 0.94240366D-01 0.63262149D+05 0.63262149D+05 0.63262149D+05 0.11822935D+01  1  2  5  2  5  2       -2 -.346927522718D-01 0.100000000000D+01
0.499024563535D-04 0.000000000000D+00 0.000000000000D+00 0.939065002096D-03 0.000000000000D+00  5 2 21 25 23 2 2 0.35762364D-01 0.86711350D-01 0.11437475D+06 0.11437475D+06 0.11437475D+06 0.11582511D+01  1  2 12  4  5  2       -2 0.130294847110D-01 0.100000000000D+01
-.918767073140D-04 0.000000000000D+00 -.509664816501D-04 0.939065002096D-03 0.000000000000D+00  5 2 21 25 23 2 2 0.35762364D-01 0.94240366D-01 0.63262149D+05 0.63262149D+05 0.63262149D+05 0.11822935D+01  1  2  5  4  5  2       -2 -.211074954956D-01 0.100000000000D+01
  </mgrwgt>
  </event>
  <event>
  4     66 0.45228882E-03 0.50227863E+02 0.75467711E-02 0.11932590E+00
        2 -1    0    0  501    0 0.00000000E+00 0.00000000E+00 0.27904810E+04 0.27904810E+04 0.32000000E+00 0.0000E+00 0.9000E+01
       -2 -1    0    0    0  501 0.00000000E+00 0.00000000E+00 -.12454565E+02 0.12458675E+02 0.32000000E+00 0.0000E+00 0.9000E+01
       25  1    1    2    0    0 0.32121390E+02 0.83308629E+02 0.23800293E+04 0.23849814E+04 0.12500000E+03 0.0000E+00 0.9000E+01
       23  1    1    2    0    0 -.32121390E+02 -.83308629E+02 0.39799712E+03 0.41795822E+03 0.91188000E+02 0.0000E+00 0.9000E+01
#aMCatNLO 1  0  0  1  2 0.29867422D+02 0.00000000D+00  -5  5  0 0.00000000D+00 0.00000000D+00 0.00000000D+00 0.00000000D+00 0.00000000D+00
  <mgrwgt>
 0.1319549901D+00    9    2    0
 0.186440374081387D+03 0.000000000000000D+00 0.000000000000000D+00 0.186440374081387D+03
 0.186440374081387D+03 0.000000000000000D+00 0.000000000000000D+00 -.186440374081387D+03
 0.196242098482574D+03 0.321213899594017D+02 0.833086288010947D+02 0.122122274345025D+03
 0.176638649680199D+03 -.321213899594017D+02 -.833086288010947D+02 -.122122274345025D+03
 0.000000000000000D+00 -.000000000000000D+00 -.000000000000000D+00 0.000000000000000D+00
 0.269931677689376D+03 0.000000000000000D+00 0.000000000000000D+00 0.269931677689376D+03
 0.189727873246511D+03 0.000000000000000D+00 0.000000000000000D+00 -.189727873246511D+03
 0.201682437795713D+03 0.469558672935799D+02 0.890623509162413D+02 0.122122274345025D+03
 0.172392575080358D+03 -.191096369243742D+02 -.782618712033751D+02 -.122122274345025D+03
 0.855845380598162D+02 -.278462303692057D+02 -.108004797128662D+02 0.802038044428643D+02
0.455346418728D-03 0.000000000000D+00 0.000000000000D+00 0.731800634204D-03 0.000000000000D+00  5 2 -2 25 23 21 0 0.42930508D+00 0.19164045D-02 0.19773347D+05 0.19773347D+05 0.19773347D+05 0.12343713D+01  1  2  2  1  5  1        2 0.105126557570D+00 0.100000000000D+01
-.228499127077D-04 0.000000000000D+00 -.174865014338D-05 0.731800634204D-03 0.000000000000D+00  5 2 -2 25 23 21 2 0.42930508D+00 0.19164045D-02 0.19773347D+05 0.19773347D+05 0.19773347D+05 0.12343713D+01  1  2  3  1  5  1        2 -.803797644274D-02 0.100000000000D+01
0.309940760657D-04 0.000000000000D+00 0.000000000000D+00 0.731800634204D-03 0.000000000000D+00  5 2 -2 25 23 21 2 0.42930508D+00 0.19164045D-02 0.19773347D+05 0.19773347D+05 0.19773347D+05 0.12343713D+01  1  2 15  1  5  1        2 0.109028711167D-01 0.100000000000D+01
0.166323918820D-02 0.000000000000D+00 0.000000000000D+00 0.731800634204D-03 0.000000000000D+00  5 2 -2 25 23 21 2 0.62402371D+00 0.19164045D-02 0.24343796D+05 0.24343796D+05 0.24343796D+05 0.12245381D+01  1  2 12  1  5  1        2 0.872991529217D-01 0.100000000000D+01
-.161757025504D-02 0.000000000000D+00 0.000000000000D+00 0.731800634204D-03 0.000000000000D+00  5 2 -2 25 23 21 2 0.42930508D+00 0.19164045D-02 0.19773347D+05 0.19773347D+05 0.19773347D+05 0.12343713D+01  1  2  4  1  5  1        2 -.569017123646D+00 0.100000000000D+01
-.176553705660D-02 0.000000000000D+00 -.147534736036D-03 0.731800634204D-03 0.000000000000D+00  5 2 -2 25 23 21 2 0.62329067D+00 0.19164045D-02 0.19773347D+05 0.19773347D+05 0.19773347D+05 0.12343713D+01  1  2  5  1  5  1        2 -.958392237921D-01 0.100000000000D+01
0.170999747887D-02 0.000000000000D+00 0.137842261271D-03 0.731800634204D-03 0.000000000000D+00  5 2 -2 25 23 21 2 0.42930508D+00 0.19164045D-02 0.19773347D+05 0.19773347D+05 0.19773347D+05 0.12343713D+01  1  2  6  1  5  1        2 0.601530501586D+00 0.100000000000D+01
0.753842772369D-04 0.000000000000D+00 0.000000000000D+00 0.731800634204D-03 0.000000000000D+00  5 21 -2 25 23 -2 2 0.62402371D+00 0.19164045D-02 0.24343796D+05 0.24343796D+05 0.24343796D+05 0.12245381D+01  1  2 12  3  5  1        2 0.166503931745D-03 0.100000000000D+01
-.752695805254D-04 0.000000000000D+00 -.667157304572D-05 0.731800634204D-03 0.000000000000D+00  5 21 -2 25 23 -2 2 0.62329067D+00 0.19164045D-02 0.19773347D+05 0.19773347D+05 0.19773347D+05 0.12343713D+01  1  2  5  3  5  1        2 -.176273133971D-03 0.100000000000D+01
  </mgrwgt>
  </event>
  <event>
  4     66 0.45228882E-03 0.10857150E+03 0.75467711E-02 0.11198382E+00
        2 -1    0    0  501    0 0.00000000E+00 0.00000000E+00 0.92870969E+03 0.92870975E+03 0.32000000E+00 0.0000E+00 0.9000E+01
       -2 -1    0    0    0  501 0.00000000E+00 0.00000000E+00 -.56822768E+02 0.56823669E+02 0.32000000E+00 0.0000E+00 0.9000E+01
       25  1    1    2    0    0 -.27956041E+02 -.14468155E+03 0.74788899E+03 0.77244885E+03 0.12500000E+03 0.0000E+00 0.9000E+01
       23  1    1    2    0    0 0.27956041E+02 0.14468155E+03 0.12399794E+03 0.21308457E+03 0.91188000E+02 0.0000E+00 0.9000E+01
#aMCatNLO 1  0  0  2  1 0.99938727D+02 0.00000000D+00  -5  5  0 0.00000000D+00 0.00000000D+00 0.00000000D+00 0.00000000D+00 0.00000000D+00
  <mgrwgt>
 0.1398725025D+00    9    2    0
 0.229722281595557D+03 0.000000000000000D+00 0.000000000000000D+00 0.229722281595557D+03
 0.229722281595557D+03 0.000000000000000D+00 0.000000000000000D+00 -.229722281595557D+03
 0.237677265985000D+03 -.279560412987834D+02 -.144681553113052D+03 0.138387827173492D+03
 0.221767297206113D+03 0.279560412987834D+02 0.144681553113052D+03 -.138387827173492D+03
 0.000000000000000D+00 0.000000000000000D+00 -.000000000000000D+00 -.000000000000000D+00
 0.263813544407014D+03 0.000000000000000D+00 0.000000000000000D+00 0.263813544407014D+03
 0.322036735532888D+03 0.000000000000000D+00 0.000000000000000D+00 -.322036735532888D+03
 0.227296613844173D+03 -.658213692829500D+02 -.112049575193056D+03 0.138387827173492D+03
 0.242891705621313D+03 -.988364455479692D+01 0.177291432889875D+03 -.138387827173492D+03
 0.115661960474416D+03 0.757050138377469D+02 -.652418576968181D+02 -.582231911258732D+02
0.574715407650D-03 0.000000000000D+00 0.000000000000D+00 0.719674637888D-03 0.000000000000D+00  5 2 -2 25 23 21 0 0.14287849D+00 0.87420379D-02 0.33584983D+05 0.33584983D+05 0.33584983D+05 0.12097866D+01  1  2  2  2  5  2       -2 0.136616316471D+00 0.100000000000D+01
-.299466424650D-04 0.000000000000D+00 -.220705849142D-05 0.719674637888D-03 0.000000000000D+00  5 2 -2 25 23 21 2 0.14287849D+00 0.87420379D-02 0.33584983D+05 0.33584983D+05 0.33584983D+05 0.12097866D+01  1  2  3  2  5  2       -2 -.104187447851D-01 0.100000000000D+01
0.393177647115D-04 0.000000000000D+00 0.000000000000D+00 0.719674637888D-03 0.000000000000D+00  5 2 -2 25 23 21 2 0.14287849D+00 0.87420379D-02 0.33584983D+05 0.33584983D+05 0.33584983D+05 0.12097866D+01  1  2 15  2  5  2       -2 0.136790545561D-01 0.100000000000D+01
0.177418055459D-03 0.000000000000D+00 0.000000000000D+00 0.719674637888D-03 0.000000000000D+00  5 2 -2 25 23 21 2 0.14287849D+00 0.12697483D-01 0.57567298D+05 0.57567298D+05 0.57567298D+05 0.11862673D+01  1  2 12  2  5  2       -2 0.327923219351D-01 0.100000000000D+01
-.334312880165D-03 0.000000000000D+00 0.000000000000D+00 0.719674637888D-03 0.000000000000D+00  5 2 -2 25 23 21 2 0.14287849D+00 0.87420379D-02 0.33584983D+05 0.33584983D+05 0.33584983D+05 0.12097866D+01  1  2  4  2  5  2       -2 -.116310887970D+00 0.100000000000D+01
-.375520803275D-03 0.000000000000D+00 -.191831793283D-03 0.719674637888D-03 0.000000000000D+00  5 2 -2 25 23 21 2 0.14287849D+00 0.14070539D-01 0.33584983D+05 0.33584983D+05 0.33584983D+05 0.12097866D+01  1  2  5  2  5  2       -2 -.610758416274D-01 0.100000000000D+01
0.436313808237D-03 0.000000000000D+00 0.171982668502D-03 0.719674637888D-03 0.000000000000D+00  5 2 -2 25 23 21 2 0.14287849D+00 0.87420379D-02 0.33584983D+05 0.33584983D+05 0.33584983D+05 0.12097866D+01  1  2  6  2  5  2       -2 0.151798059483D+00 0.100000000000D+01
0.802939157516D-05 0.000000000000D+00 0.000000000000D+00 0.719674637888D-03 0.000000000000D+00  5 2 21 25 23 2 2 0.14287849D+00 0.12697483D-01 0.57567298D+05 0.57567298D+05 0.57567298D+05 0.11862673D+01  1  2 12  4  5  2       -2 0.219217525832D-01 0.100000000000D+01
-.121978677968D-04 0.000000000000D+00 -.104060295577D-04 0.719674637888D-03 0.000000000000D+00  5 2 21 25 23 2 2 0.14287849D+00 0.14070539D-01 0.33584983D+05 0.33584983D+05 0.33584983D+05 0.12097866D+01  1  2  5  4  5  2       -2 -.291295281612D-01 0.100000000000D+01
  </mgrwgt>
  </event>
  <event>
  5     66 0.45228882E-03 0.14921965E+03 0.75467711E-02 0.11500587E+00
       21 -1    0    0  501  502 0.00000000E+00 0.00000000E+00 0.82695039E+03 0.82695073E+03 0.75000000E+00 0.0000E+00 0.9000E+01
       -4 -1    0    0    0  501 0.00000000E+00 0.00000000E+00 -.33686348E+03 0.33686705E+03 0.15500000E+01 0.0000E+00 0.9000E+01
       25  1    1    2    0    0 -.52926495E+02 0.39962252E+02 0.12651325E+03 0.18981254E+03 0.12500000E+03 0.0000E+00 0.9000E+01
       23  1    1    2    0    0 0.14024860E+03 -.27525053E+02 -.27842168E+03 0.32597727E+03 0.91188000E+02 0.0000E+00 0.9000E+01
       -4  1    1    2    0  502 -.87322101E+02 -.12437199E+02 0.64199534E+03 0.64802797E+03 0.15500000E+01 0.0000E+00 0.9000E+01
#aMCatNLO 2  0  0  1  2 0.88203363D+02 0.00000000D+00  -5  5  0 0.00000000D+00 0.00000000D+00 0.00000000D+00 0.00000000D+00 0.00000000D+00
  <mgrwgt>
 0.1496236963D-01    2    2    0
 0.242478412700569D+03 0.000000000000000D+00 0.000000000000000D+00 0.242478412700569D+03
 0.242478412700569D+03 0.000000000000000D+00 0.000000000000000D+00 -.242478412700569D+03
 0.250014906954417D+03 -.964707222829875D+02 0.337602917730278D+02 0.190882414436282D+03
 0.234941918446721D+03 0.964707222829875D+02 -.337602917730278D+02 -.190882414436282D+03
 0.000000000000000D+00 -.000000000000000D+00 -.000000000000000D+00 0.000000000000000D+00
 0.112018433472285D+04 0.000000000000000D+00 0.000000000000000D+00 0.112018433472285D+04
 0.248682408725719D+03 0.000000000000000D+00 0.000000000000000D+00 -.248682408725719D+03
 0.237611640253019D+03 -.529264945053950D+02 0.399622524649962D+02 0.190882414436282D+03
 0.255301086009233D+03 0.140248595277503D+03 -.275250532271352D+02 -.190882414436282D+03
 0.875954017186312D+03 -.873221007721082D+02 -.124371992378610D+02 0.871501925997127D+03
-.158959954656D-02 0.000000000000D+00 0.000000000000D+00 0.452321144383D-03 0.000000000000D+00  5 21 -4 25 23 -4 2 0.12575091D+00 0.50532400D-01 0.39848739D+05 0.39848739D+05 0.39848739D+05 0.12021674D+01  1  2 13  3  5  1        4 -.171858920927D-01 0.100000000000D+01
0.322539102043D-02 0.000000000000D+00 0.000000000000D+00 0.452321144383D-03 0.162064599718D-06  5 21 -4 25 23 -4 2 0.12722309D+00 0.51825310D-01 0.39848739D+05 0.39848739D+05 0.39848739D+05 0.12021674D+01  1  2  1  3  5  1        4 0.321482617182D-01 0.100000000000D+01
  </mgrwgt>
  </event>
  <event>
  5     66 0.45228882E-03 0.28189231E+03 0.75467711E-02 0.97260838E-01
        2 -1    0    0  501    0 0.00000000E+00 0.00000000E+00 0.26832865E+04 0.26832866E+04 0.32000000E+00 0.0000E+00 0.9000E+01
       21 -1    0    0  502  501 0.00000000E+00 0.00000000E+00 -.18599054E+03 0.18599206E+03 0.75000000E+00 0.0000E+00 0.9000E+01
       25  1    1    2    0    0 0.39802620E+02 0.59516765E+03 0.13210902E+04 0.14548928E+04 0.12500000E+03 0.0000E+00 0.9000E+01
       23  1    1    2    0    0 0.16714219E+03 -.49614350E+02 0.22933169E+03 0.30216944E+03 0.91188000E+02 0.0000E+00 0.9000E+01
        2  1    1    2  502    0 -.20694481E+03 -.54555330E+03 0.94687413E+03 0.11122164E+04 0.32000000E+00 0.0000E+00 0.9000E+01
#aMCatNLO 2  0  0  2  1 0.58348484D+03 0.00000000D+00  -5  5  0 0.00000000D+00 0.00000000D+00 0.00000000D+00 0.00000000D+00 0.00000000D+00
  <mgrwgt>
 0.8535881210D-02    1    2    0
 0.292833217357308D+03 0.000000000000000D+00 0.000000000000000D+00 0.292833217357308D+03
 0.292833217357308D+03 0.000000000000000D+00 0.000000000000000D+00 -.292833217357308D+03
 0.299073756530056D+03 -.940687572887802D+02 0.242252443247438D+03 0.792775787205343D+02
 0.286592678184561D+03 0.940687572887802D+02 -.242252443247438D+03 -.792775787205343D+02
 0.000000000000000D+00 -.000000000000000D+00 -.000000000000000D+00 -.000000000000000D+00
 0.670696204006205D+03 0.000000000000000D+00 0.000000000000000D+00 0.670696204006205D+03
 0.744104492089991D+03 0.000000000000000D+00 0.000000000000000D+00 -.744104492089991D+03
 0.614588247569979D+03 0.398026201647709D+02 0.595167649483208D+03 0.792775787205343D+02
 0.212127986073705D+03 0.167142193624318D+03 -.496143502864493D+02 -.792775787205343D+02
 0.588084462452513D+03 -.206944813789089D+03 -.545553299196758D+03 -.734082880837862D+02
0.177180159178D-03 0.000000000000D+00 0.000000000000D+00 0.942191299032D-03 0.637793756097D-08  5 2 21 25 23 2 2 0.41281341D+00 0.28614046D-01 0.48281346D+06 0.48281346D+06 0.48281346D+06 0.11055387D+01  1  2  1  4  5  2       -2 0.853588120956D-02 0.100000000000D+01
  </mgrwgt>
  </event>
  <event>
  4     66 0.45228882E-03 0.14383292E+03 0.75467711E-02 0.11771147E+00
        2 -1    0    0  501    0 0.00000000E+00 0.00000000E+00 0.42023856E+03 0.42023868E+03 0.32000000E+00 0.0000E+00 0.9000E+01
       -2 -1    0    0    0  501 0.00000000E+00 0.00000000E+00 -.53665443E+02 0.53666397E+02 0.32000000E+00 0.0000E+00 0.9000E+01
       25  1    1    2    0    0 0.21068085E+02 -.91844118E+02 0.26602751E+03 0.30866623E+03 0.12500000E+03 0.0000E+00 0.9000E+01
       23  1    1    2    0    0 -.21068085E+02 0.91844118E+02 0.10054561E+03 0.16523885E+03 0.91188000E+02 0.0000E+00 0.9000E+01
#aMCatNLO 1  0  0  2  1 0.49600180D+02 0.00000000D+00  -5  5  0 0.00000000D+00 0.00000000D+00 0.00000000D+00 0.00000000D+00 0.00000000D+00
  <mgrwgt>
 0.1876954779D+00    4    2    0
 0.150175042396242D+03 0.000000000000000D+00 0.000000000000000D+00 0.150175042396242D+03
 0.150175042396242D+03 0.000000000000000D+00 0.000000000000000D+00 -.150175042396242D+03
 0.162343756550344D+03 0.210680846612252D+02 -.918441182380761D+02 0.430266085655747D+02
 0.138006328242141D+03 -.210680846612252D+02 0.918441182380761D+02 -.430266085655747D+02
 0.000000000000000D+00 0.000000000000000D+00 0.000000000000000D+00 0.000000000000000D+00
 0.255246920932095D+03 0.000000000000000D+00 0.000000000000000D+00 0.255246920932095D+03
 0.158178136063852D+03 0.000000000000000D+00 0.000000000000000D+00 -.158178136063852D+03
 0.170039789069440D+03 -.163599158469981D+01 -.106932522431949D+03 0.430266085655747D+02
 0.134378264374313D+03 -.396738208370266D+02 0.794793400059979D+02 -.430266085655747D+02
 0.109007003552194D+03 0.413098124217264D+02 0.274531824259513D+02 0.970687848682433D+02
0.301385784253D-03 0.000000000000D+00 0.000000000000D+00 0.125439035981D-02 0.000000000000D+00  5 2 -2 25 23 21 0 0.64652169D-01 0.82563047D-02 0.20687908D+05 0.20687908D+05 0.20687908D+05 0.12322125D+01  1  2  2  2  5  2       -2 0.196936597469D+00 0.100000000000D+01
-.167057512900D-04 0.000000000000D+00 -.115740076823D-05 0.125439035981D-02 0.000000000000D+00  5 2 -2 25 23 21 2 0.64652169D-01 0.82563047D-02 0.20687908D+05 0.20687908D+05 0.20687908D+05 0.12322125D+01  1  2  3  2  5  2       -2 -.165745163361D-01 0.100000000000D+01
0.208038127173D-04 0.000000000000D+00 0.000000000000D+00 0.125439035981D-02 0.000000000000D+00  5 2 -2 25 23 21 2 0.64652169D-01 0.82563047D-02 0.20687908D+05 0.20687908D+05 0.20687908D+05 0.12322125D+01  1  2 15  2  5  2       -2 0.206403847244D-01 0.100000000000D+01
-.134123510375D-04 0.000000000000D+00 0.000000000000D+00 0.125439035981D-02 0.000000000000D+00  5 2 -2 25 23 21 2 0.64652169D-01 0.82563047D-02 0.20687908D+05 0.20687908D+05 0.20687908D+05 0.12322125D+01  1  2  4  2  5  2       -2 -.133069879659D-01 0.100000000000D+01
  </mgrwgt>
  </event>
  <event>
  4     66 0.45228882E-03 0.10958571E+03 0.75467711E-02 0.11087454E+00
        2 -1    0    0  501    0 0.00000000E+00 0.00000000E+00 0.19878237E+04 0.19878237E+04 0.32000000E+00 0.0000E+00 0.9000E+01
       -2 -1    0    0    0  501 0.00000000E+00 0.00000000E+00 -.63871698E+01 0.63951809E+01 0.32000000E+00 0.0000E+00 0.9000E+01
       25  1    1    2    0    0 0.58738272E+01 0.16807297E+02 0.13639634E+04 0.13697949E+04 0.12500000E+03 0.0000E+00 0.9000E+01
       23  1    1    2    0    0 -.58738272E+01 -.16807297E+02 0.61747307E+03 0.62442392E+03 0.91188000E+02 0.0000E+00 0.9000E+01
#aMCatNLO 1  0  0  1  1 0.21063521D+03 0.00000000D+00  -5  5  0 0.00000000D+00 0.00000000D+00 0.00000000D+00 0.00000000D+00 0.00000000D+00
  <mgrwgt>
 0.2052078631D+00    5    2    0
 0.112714599063787D+03 0.000000000000000D+00 0.000000000000000D+00 0.112714599063787D+03
 0.112714599063787D+03 0.000000000000000D+00 0.000000000000000D+00 -.112714599063787D+03
 0.128927557981077D+03 0.587382718786345D+01 0.168072966437017D+02 0.260831006719260D+02
 0.965016401464975D+02 -.587382718786345D+01 -.168072966437017D+02 -.260831006719260D+02
 0.000000000000000D+00 -.000000000000000D+00 0.000000000000000D+00 0.000000000000000D+00
 0.295304497302785D+03 0.000000000000000D+00 0.000000000000000D+00 0.295304497302785D+03
 0.232901589119462D+03 0.000000000000000D+00 0.000000000000000D+00 -.232901589119462D+03
 0.162340054797690D+03 0.311827462493478D+02 -.952712001992408D+02 0.260831006719260D+02
 0.146181447065191D+03 0.152134696565577D+02 -.110190681649676D+03 -.260831006719260D+02
 0.219684584559368D+03 -.463962159059055D+02 0.205461881848917D+03 0.624029081833229D+02
0.126438191938D-03 0.000000000000D+00 0.000000000000D+00 0.174285798174D-02 0.000000000000D+00  5 2 -2 25 23 21 0 0.30581964D+00 0.98325973D-03 0.12009028D+05 0.12009028D+05 0.12009028D+05 0.12589858D+01  1  2  2  1  5  1        2 0.201106605945D+00 0.100000000000D+01
-.701757530811D-05 0.000000000000D+00 -.485555948982D-06 0.174285798174D-02 0.000000000000D+00  5 2 -2 25 23 21 2 0.30581964D+00 0.98325973D-03 0.12009028D+05 0.12009028D+05 0.12009028D+05 0.12589858D+01  1  2  3  1  5  1        2 -.176919957134D-01 0.100000000000D+01
0.864174935431D-05 0.000000000000D+00 0.000000000000D+00 0.174285798174D-02 0.000000000000D+00  5 2 -2 25 23 21 2 0.30581964D+00 0.98325973D-03 0.12009028D+05 0.12009028D+05 0.12009028D+05 0.12589858D+01  1  2 15  1  5  1        2 0.217866978009D-01 0.100000000000D+01
0.249664429301D-05 0.000000000000D+00 -.356277178106D-04 0.174285798174D-02 0.000000000000D+00  5 2 -2 25 23 21 2 0.86139468D+00 0.98325973D-03 0.12009028D+05 0.12009028D+05 0.12009028D+05 0.12589858D+01  1  2  5  1  5  1        2 0.651521412456D-05 0.100000000000D+01
0.226292223913D-05 0.000000000000D+00 -.414791737473D-05 0.174285798174D-02 0.000000000000D+00  5 21 -2 25 23 -2 2 0.86139468D+00 0.98325973D-03 0.12009028D+05 0.12009028D+05 0.12009028D+05 0.12589858D+01  1  2  5  3  5  1        2 0.398109910064D-07 0.100000000000D+01
  </mgrwgt>
  </event>
  <event>
  4     66 0.45228882E-03 0.48393068E+02 0.75467711E-02 0.11566775E+00
        2 -1    0    0  501    0 0.00000000E+00 0.00000000E+00 0.13494083E+04 0.13494083E+04 0.32000000E+00 0.0000E+00 0.9000E+01
       -2 -1    0    0    0  501 0.00000000E+00 0.00000000E+00 -.14197371E+02 0.14200977E+02 0.32000000E+00 0.0000E+00 0.9000E+01
       25  1    1    2    0    0 0.75191345E+02 -.52808306E+01 0.93335116E+03 0.94469625E+03 0.12500000E+03 0.0000E+00 0.9000E+01
       23  1    1    2    0    0 -.75191345E+02 0.52808306E+01 0.40185972E+03 0.41891302E+03 0.91188000E+02 0.0000E+00 0.9000E+01
#aMCatNLO 1  0  0  1  2 0.10174533D+03 0.00000000D+00  -5  5  0 0.00000000D+00 0.00000000D+00 0.00000000D+00 0.00000000D+00 0.00000000D+00
  <mgrwgt>
 0.2885418515D+00    8    2    0
 0.138421581470392D+03 0.000000000000000D+00 0.000000000000000D+00 0.138421581470392D+03
 0.138421581470392D+03 0.000000000000000D+00 0.000000000000000D+00 -.138421581470392D+03
 0.151623548566765D+03 0.751913448223662D+02 -.528083056736699D+01 0.410252967362930D+02
 0.125219614374019D+03 -.751913448223662D+02 0.528083056736699D+01 -.410252967362930D+02
 0.000000000000000D+00 -.000000000000000D+00 -.000000000000000D+00 0.000000000000000D+00
 0.224665157141168D+03 0.000000000000000D+00 0.000000000000000D+00 0.224665157141168D+03
 0.181001427670174D+03 0.000000000000000D+00 0.000000000000000D+00 -.181001427670174D+03
 0.187967550015785D+03 0.133966960778708D+03 0.875090317349830D+01 0.410252967362930D+02
 0.106980324159663D+03 -.350027342571683D+02 0.148752154783658D+02 -.410252967362930D+02
 0.110718710635893D+03 -.989642265215394D+02 -.236261186518641D+02 0.436637294709941D+02
0.145389985707D-03 0.000000000000D+00 0.000000000000D+00 0.133908943835D-02 0.000000000000D+00  5 2 -2 25 23 21 0 0.20760155D+00 0.21844912D-02 0.17460489D+05 0.17460489D+05 0.17460489D+05 0.12403718D+01  1  2  2  1  5  1        2 0.157603653154D+00 0.100000000000D+01
-.805602669854D-05 0.000000000000D+00 -.558335827178D-06 0.133908943835D-02 0.000000000000D+00  5 2 -2 25 23 21 2 0.20760155D+00 0.21844912D-02 0.17460489D+05 0.17460489D+05 0.17460489D+05 0.12403718D+01  1  2  3  1  5  1        2 -.134355818295D-01 0.100000000000D+01
0.100549177696D-04 0.000000000000D+00 0.000000000000D+00 0.133908943835D-02 0.000000000000D+00  5 2 -2 25 23 21 2 0.20760155D+00 0.21844912D-02 0.17460489D+05 0.17460489D+05 0.17460489D+05 0.12403718D+01  1  2 15  1  5  1        2 0.167692679701D-01 0.100000000000D+01
0.755648891071D-05 0.000000000000D+00 0.000000000000D+00 0.133908943835D-02 0.000000000000D+00  5 2 -2 25 23 21 2 0.35284136D+00 0.21844912D-02 0.36860660D+05 0.36860660D+05 0.36860660D+05 0.12056217D+01  1  2 12  1  5  1        2 0.387720407746D-02 0.100000000000D+01
-.733808970237D-04 0.000000000000D+00 -.499147775885D-04 0.133908943835D-02 0.000000000000D+00  5 2 -2 25 23 21 2 0.37891285D+00 0.21844912D-02 0.17460489D+05 0.17460489D+05 0.17460489D+05 0.12403718D+01  1  2  5  1  5  1        2 -.325002135123D-01 0.100000000000D+01
0.937694217956D-04 0.000000000000D+00 0.420675033836D-04 0.133908943835D-02 0.000000000000D+00  5 2 -2 25 23 21 2 0.20760155D+00 0.21844912D-02 0.17460489D+05 0.17460489D+05 0.17460489D+05 0.12403718D+01  1  2  6  1  5  1        2 0.156385621198D+00 0.100000000000D+01
0.446769019618D-06 0.000000000000D+00 0.000000000000D+00 0.133908943835D-02 0.000000000000D+00  5 21 -2 25 23 -2 2 0.35284136D+00 0.21844912D-02 0.36860660D+05 0.36860660D+05 0.36860660D+05 0.12056217D+01  1  2 12  3  5  1        2 0.570469306813D-04 0.100000000000D+01
-.212004921539D-05 0.000000000000D+00 -.328427079249D-05 0.133908943835D-02 0.000000000000D+00  5 21 -2 25 23 -2 2 0.37891285D+00 0.21844912D-02 0.17460489D+05 0.17460489D+05 0.17460489D+05 0.12403718D+01  1  2  5  3  5  1        2 -.215146516557D-03 0.100000000000D+01
  </mgrwgt>
  </event>
  <event>
  4     66 0.45228882E-03 0.18186507E+03 0.75467711E-02 0.98456136E-01
        2 -1    0    0  501    0 0.00000000E+00 0.00000000E+00 0.13288087E+04 0.13288087E+04 0.32000000E+00 0.0000E+00 0.9000E+01
       -2 -1    0    0    0  501 0.00000000E+00 0.00000000E+00 -.37102332E+02 0.37103712E+02 0.32000000E+00 0.0000E+00 0.9000E+01
       25  1    1    2    0    0 0.13860489E+03 -.44659065E+02 0.10612126E+04 0.10784261E+04 0.12500000E+03 0.0000E+00 0.9000E+01
       23  1    1    2    0    0 -.13860489E+03 0.44659065E+02 0.23049371E+03 0.28748626E+03 0.91188000E+02 0.0000E+00 0.9000E+01
#aMCatNLO 1  0  0  2  1 0.58061466D+03 0.00000000D+00  -5  5  0 0.00000000D+00 0.00000000D+00 0.00000000D+00 0.00000000D+00 0.00000000D+00
  <mgrwgt>
 0.1764171931D+00    5    2    0
 0.222042492908972D+03 0.000000000000000D+00 0.000000000000000D+00 0.222042492908972D+03
 0.222042492908972D+03 0.000000000000000D+00 0.000000000000000D+00 -.222042492908972D+03
 0.230272616522064D+03 0.138604885755144D+03 -.446590650599798D+02 0.127258522200635D+03
 0.213812369295879D+03 -.138604885755144D+03 0.446590650599798D+02 -.127258522200635D+03
 0.000000000000000D+00 0.000000000000000D+00 0.000000000000000D+00 -.000000000000000D+00
 0.503705560399192D+03 0.000000000000000D+00 0.000000000000000D+00 0.503705560399192D+03
 0.975237392238045D+03 0.000000000000000D+00 0.000000000000000D+00 -.975237392238045D+03
 0.248301447112223D+03 -.686652607620184D+02 -.158489618366058D+03 0.127258522200635D+03
 0.482673827996075D+03 -.440252649663638D+03 -.121002668895528D+03 -.127258522200635D+03
 0.747967677528938D+03 0.508917910425657D+03 0.279492287261585D+03 -.471531831838853D+03
0.563264526041D-03 0.000000000000D+00 0.000000000000D+00 0.764507848178D-03 0.000000000000D+00  5 2 -2 25 23 21 0 0.20443221D+00 0.57081602D-02 0.33074904D+05 0.33074904D+05 0.33074904D+05 0.12104757D+01  1  2  2  2  5  2       -2 0.151797787595D+00 0.100000000000D+01
-.297766149289D-04 0.000000000000D+00 -.216308409095D-05 0.764507848178D-03 0.000000000000D+00  5 2 -2 25 23 21 2 0.20443221D+00 0.57081602D-02 0.33074904D+05 0.33074904D+05 0.33074904D+05 0.12104757D+01  1  2  3  2  5  2       -2 -.117581920219D-01 0.100000000000D+01
0.386157964366D-04 0.000000000000D+00 0.000000000000D+00 0.764507848178D-03 0.000000000000D+00  5 2 -2 25 23 21 2 0.20443221D+00 0.57081602D-02 0.33074904D+05 0.33074904D+05 0.33074904D+05 0.12104757D+01  1  2 15  2  5  2       -2 0.152486087039D-01 0.100000000000D+01
0.101161242169D-02 0.000000000000D+00 -.401183639956D-03 0.764507848178D-03 0.000000000000D+00  5 2 -2 25 23 21 2 0.20443221D+00 0.64720087D-01 0.33074904D+05 0.33074904D+05 0.33074904D+05 0.12104757D+01  1  2  5  2  5  2       -2 0.593307857379D-02 0.100000000000D+01
0.215684790448D-03 0.000000000000D+00 -.114223624571D-03 0.764507848178D-03 0.000000000000D+00  5 2 21 25 23 2 2 0.20443221D+00 0.64720087D-01 0.33074904D+05 0.33074904D+05 0.33074904D+05 0.12104757D+01  1  2  5  4  5  2       -2 0.151959102033D-01 0.100000000000D+01
  </mgrwgt>
  </event>
  <event>
  4     66 0.45228882E-03 0.14677716E+03 0.75467711E-02 0.11356636E+00
        2 -1    0    0  501    0 0.00000000E+00 0.00000000E+00 0.32402148E+03 0.32402164E+03 0.32000000E+00 0.0000E+00 0.9000E+01
       -2 -1    0    0    0  501 0.00000000E+00 0.00000000E+00 -.81286776E+02 0.81287406E+02 0.32000000E+00 0.0000E+00 0.9000E+01
       25  1    1    2    0    0 0.22047878E+02 -.96136957E+02 0.21600319E+03 0.26834829E+03 0.12500000E+03 0.0000E+00 0.9000E+01
       23  1    1    2    0    0 -.22047878E+02 0.96136957E+02 0.26731507E+02 0.13696075E+03 0.91188000E+02 0.0000E+00 0.9000E+01
#aMCatNLO 1  0  0  1  1 0.11850810D+03 0.00000000D+00  -5  5  0 0.00000000D+00 0.00000000D+00 0.00000000D+00 0.00000000D+00 0.00000000D+00
  <mgrwgt>
 0.1506388629D+00    3    2    0
 0.162292393631467D+03 0.000000000000000D+00 0.000000000000000D+00 0.162292393631467D+03
 0.162292393631467D+03 0.000000000000000D+00 0.000000000000000D+00 -.162292393631467D+03
 0.173552546514231D+03 0.220478778681719D+02 -.961369569974555D+02 0.690439206762903D+02
 0.151032240748703D+03 -.220478778681719D+02 0.961369569974555D+02 -.690439206762903D+02
 0.000000000000000D+00 0.000000000000000D+00 -.000000000000000D+00 -.000000000000000D+00
 0.217632001451512D+03 0.000000000000000D+00 0.000000000000000D+00 0.217632001451512D+03
 0.251036266571675D+03 0.000000000000000D+00 0.000000000000000D+00 -.251036266571675D+03
 0.174126212017067D+03 -.392676076563784D+02 -.915747220470999D+02 0.690439206762903D+02
 0.171416047556324D+03 -.789138004154739D+02 0.100368118132527D+03 -.690439206762903D+02
 0.123126008449795D+03 0.118181408071852D+03 -.879339608542708D+01 -.334042651201631D+02
0.328848177560D-03 0.000000000000D+00 0.000000000000D+00 0.107812402640D-02 0.000000000000D+00  5 2 -2 25 23 21 0 0.49849519D-01 0.12505719D-01 0.21543536D+05 0.21543536D+05 0.21543536D+05 0.12302873D+01  1  2  2  1  5  1        2 0.147551586395D+00 0.100000000000D+01
-.180450589668D-04 0.000000000000D+00 -.126286358955D-05 0.107812402640D-02 0.000000000000D+00  5 2 -2 25 23 21 2 0.49849519D-01 0.12505719D-01 0.21543536D+05 0.21543536D+05 0.21543536D+05 0.12302873D+01  1  2  3  1  5  1        2 -.122551835994D-01 0.100000000000D+01
0.225908976035D-04 0.000000000000D+00 0.000000000000D+00 0.107812402640D-02 0.000000000000D+00  5 2 -2 25 23 21 2 0.49849519D-01 0.12505719D-01 0.21543536D+05 0.21543536D+05 0.21543536D+05 0.12302873D+01  1  2 15  1  5  1        2 0.153424601336D-01 0.100000000000D+01
  </mgrwgt>
  </event>
  <event>
  4     66 0.45228882E-03 0.72215206E+02 0.75467711E-02 0.11786335E+00
        2 -1    0    0  501    0 0.00000000E+00 0.00000000E+00 0.44478787E+03 0.44478799E+03 0.32000000E+00 0.0000E+00 0.9000E+01
       -2 -1    0    0    0  501 0.00000000E+00 0.00000000E+00 -.47698734E+02 0.47699808E+02 0.32000000E+00 0.0000E+00 0.9000E+01
       25  1    1    2    0    0 0.14091556E+02 0.95063794E+02 0.23753838E+03 0.28510556E+03 0.12500000E+03 0.0000E+00 0.9000E+01
       23  1    1    2    0    0 -.14091556E+02 -.95063794E+02 0.15955076E+03 0.20738224E+03 0.91188000E+02 0.0000E+00 0.9000E+01
#aMCatNLO 1  0  0  1  2 0.44889721D+02 0.00000000D+00  -5  5  0 0.00000000D+00 0.00000000D+00 0.00000000D+00 0.00000000D+00 0.00000000D+00
  <mgrwgt>
 0.2253912212D+00    9    2    0
 0.145657513492183D+03 0.000000000000000D+00 0.000000000000000D+00 0.145657513492183D+03
 0.145657513492183D+03 0.000000000000000D+00 0.000000000000000D+00 -.145657513492183D+03
 0.158203637067868D+03 0.140915555354676D+02 0.950637939190759D+02 0.129496691001769D+02
 0.133111389916497D+03 -.140915555354676D+02 -.950637939190759D+02 -.129496691001769D+02
 0.000000000000000D+00 0.000000000000000D+00 0.000000000000000D+00 0.000000000000000D+00
 0.176423620075725D+03 0.000000000000000D+00 0.000000000000000D+00 0.176423620075725D+03
 0.164720032245769D+03 0.000000000000000D+00 0.000000000000000D+00 -.164720032245769D+03
 0.157393010572443D+03 -.100669439329971D+02 0.942259119727847D+02 0.129496691001769D+02
 0.137360330328846D+03 -.347958024235048D+02 -.957818730655762D+02 -.129496691001769D+02
 0.463903114202048D+02 0.448627463565019D+02 0.155596109279152D+01 0.117035878299554D+02
0.185322804192D-03 0.000000000000D+00 0.000000000000D+00 0.136950092340D-02 0.000000000000D+00  5 2 -2 25 23 21 0 0.68428995D-01 0.73383582D-02 0.21047154D+05 0.21047154D+05 0.21047154D+05 0.12313935D+01  1  2  2  1  5  1        2 0.136699343065D+00 0.100000000000D+01
-.102955112789D-04 0.000000000000D+00 -.711688364713D-06 0.136950092340D-02 0.000000000000D+00  5 2 -2 25 23 21 2 0.68428995D-01 0.73383582D-02 0.21047154D+05 0.21047154D+05 0.21047154D+05 0.12313935D+01  1  2  3  1  5  1        2 -.115154042523D-01 0.100000000000D+01
0.127622576765D-04 0.000000000000D+00 0.000000000000D+00 0.136950092340D-02 0.000000000000D+00  5 2 -2 25 23 21 2 0.68428995D-01 0.73383582D-02 0.21047154D+05 0.21047154D+05 0.21047154D+05 0.12313935D+01  1  2 15  1  5  1        2 0.142744301216D-01 0.100000000000D+01
0.156884499588D-03 0.000000000000D+00 0.000000000000D+00 0.136950092340D-02 0.000000000000D+00  5 2 -2 25 23 21 2 0.86584242D-01 0.73383582D-02 0.28645166D+05 0.28645166D+05 0.28645166D+05 0.12170105D+01  1  2 12  1  5  1        2 0.133273915447D+00 0.100000000000D+01
-.156454698332D-03 0.000000000000D+00 0.000000000000D+00 0.136950092340D-02 0.000000000000D+00  5 2 -2 25 23 21 2 0.68428995D-01 0.73383582D-02 0.21047154D+05 0.21047154D+05 0.21047154D+05 0.12313935D+01  1  2  4  1  5  1        2 -.174992678814D+00 0.100000000000D+01
-.351319751448D-03 0.000000000000D+00 -.117351105910D-03 0.136950092340D-02 0.000000000000D+00  5 2 -2 25 23 21 2 0.91642410D-01 0.73383582D-02 0.21047154D+05 0.21047154D+05 0.21047154D+05 0.12313935D+01  1  2  5  1  5  1        2 -.284333916806D+00 0.100000000000D+01
0.374348221746D-03 0.000000000000D+00 0.112516857037D-03 0.136950092340D-02 0.000000000000D+00  5 2 -2 25 23 21 2 0.68428995D-01 0.73383582D-02 0.21047154D+05 0.21047154D+05 0.21047154D+05 0.12313935D+01  1  2  6  1  5  1        2 0.418703936867D+00 0.100000000000D+01
0.507660562477D-05 0.000000000000D+00 0.000000000000D+00 0.136950092340D-02 0.000000000000D+00  5 21 -2 25 23 -2 2 0.86584242D-01 0.73383582D-02 0.28645166D+05 0.28645166D+05 0.28645166D+05 0.12170105D+01  1  2 12  3  5  1        2 0.732566573194D-02 0.100000000000D+01
-.107966866436D-04 0.000000000000D+00 -.444949647983D-05 0.136950092340D-02 0.000000000000D+00  5 21 -2 25 23 -2 2 0.91642410D-01 0.73383582D-02 0.21047154D+05 0.21047154D+05 0.21047154D+05 0.12313935D+01  1  2  5  3  5  1        2 -.140440701936D-01 0.100000000000D+01
  </mgrwgt>
  </event>
  <event>
  4     66 0.45228882E-03 0.11714736E+03 0.75467711E-02 0.11088346E+00
        2 -1    0    0  501    0 0.00000000E+00 0.00000000E+00 0.14757470E+03 0.14757504E+03 0.32000000E+00 0.0000E+00 0.9000E+01
       -2 -1    0    0    0  501 0.00000000E+00 0.00000000E+00 -.99729757E+02 0.99730271E+02 0.32000000E+00 0.0000E+00 0.9000E+01
       25  1    1    2    0    0 -.37942863E+02 0.23602143E+02 -.49783506E+01 0.13284015E+03 0.12500000E+03 0.0000E+00 0.9000E+01
       23  1    1    2    0    0 0.37942863E+02 -.23602143E+02 0.52823289E+02 0.11446516E+03 0.91188000E+02 0.0000E+00 0.9000E+01
#aMCatNLO 1  0  0  2  1 0.20379607D+03 0.00000000D+00  -5  5  0 0.00000000D+00 0.00000000D+00 0.00000000D+00 0.00000000D+00 0.00000000D+00
  <mgrwgt>
 0.1504115189D+00    3    2    0
 0.121316507435313D+03 0.000000000000000D+00 0.000000000000000D+00 0.121316507435313D+03
 0.121316507435313D+03 0.000000000000000D+00 0.000000000000000D+00 -.121316507435313D+03
 0.136379891657566D+03 -.379428627004774D+02 0.236021431143182D+02 -.312690399442237D+02
 0.106253123213059D+03 0.379428627004774D+02 -.236021431143182D+02 0.312690399442237D+02
 0.000000000000000D+00 -.000000000000000D+00 -.000000000000000D+00 0.000000000000000D+00
 0.282687728122694D+03 0.000000000000000D+00 0.000000000000000D+00 0.282687728122694D+03
 0.241996317320863D+03 0.000000000000000D+00 0.000000000000000D+00 -.241996317320863D+03
 0.149734257682291D+03 0.649867797285333D+02 0.399288557956310D+02 -.312690399442237D+02
 0.167131043847973D+03 0.136292890569669D+03 -.800184946395563D+01 0.312690399442237D+02
 0.207818743913294D+03 -.201279670298202D+03 -.319270063316753D+02 0.406914108018304D+02
0.198736916741D-03 0.000000000000D+00 0.000000000000D+00 0.156852358788D-02 0.000000000000D+00  5 2 -2 25 23 21 0 0.22703866D-01 0.15343106D-01 0.13723504D+05 0.13723504D+05 0.13723504D+05 0.12522502D+01  1  2  2  2  5  2       -2 0.147227960499D+00 0.100000000000D+01
-.110245231413D-04 0.000000000000D+00 -.763202088916D-06 0.156852358788D-02 0.000000000000D+00  5 2 -2 25 23 21 2 0.22703866D-01 0.15343106D-01 0.13723504D+05 0.13723504D+05 0.13723504D+05 0.12522502D+01  1  2  3  2  5  2       -2 -.128071870072D-01 0.100000000000D+01
0.137649542281D-04 0.000000000000D+00 0.000000000000D+00 0.156852358788D-02 0.000000000000D+00  5 2 -2 25 23 21 2 0.22703866D-01 0.15343106D-01 0.13723504D+05 0.13723504D+05 0.13723504D+05 0.12522502D+01  1  2 15  2  5  2       -2 0.159907454215D-01 0.100000000000D+01
  </mgrwgt>
  </event>
  <event>
  4     66 0.45228882E-03 0.98736140E+02 0.75467711E-02 0.10834273E+00
        2 -1    0    0  501    0 0.00000000E+00 0.00000000E+00 0.12637549E+03 0.12637590E+03 0.32000000E+00 0.0000E+00 0.9000E+01
       -2 -1    0    0    0  501 0.00000000E+00 0.00000000E+00 -.62304361E+03 0.62304369E+03 0.32000000E+00 0.0000E+00 0.9000E+01
       25  1    1    2    0    0 0.10233373E+03 0.17591968E+03 -.46687982E+03 0.52442510E+03 0.12500000E+03 0.0000E+00 0.9000E+01
       23  1    1    2    0    0 -.10233373E+03 -.17591968E+03 -.29788299E+02 0.22499449E+03 0.91188000E+02 0.0000E+00 0.9000E+01
#aMCatNLO 1  0  0  2  1 0.13267435D+03 0.00000000D+00  -5  5  0 0.00000000D+00 0.00000000D+00 0.00000000D+00 0.00000000D+00 0.00000000D+00
  <mgrwgt>
 0.1379260652D+00    9    2    0
 0.280602255059035D+03 0.000000000000000D+00 0.000000000000000D+00 0.280602255059035D+03
 0.280602255059035D+03 0.000000000000000D+00 0.000000000000000D+00 -.280602255059035D+03
 0.287114808436824D+03 0.102333729718635D+03 0.175919676168866D+03 -.159342362610290D+03
 0.274089701681246D+03 -.102333729718635D+03 -.175919676168866D+03 0.159342362610290D+03
 0.000000000000000D+00 -.000000000000000D+00 -.000000000000000D+00 -.000000000000000D+00
 0.338368904628282D+03 0.000000000000000D+00 0.000000000000000D+00 0.338368904628282D+03
 0.376293393480974D+03 0.000000000000000D+00 0.000000000000000D+00 -.376293393480974D+03
 0.343103016742629D+03 0.141840310722807D+03 0.237878157529692D+03 -.159342362610290D+03
 0.233571055642059D+03 -.705099062237630D+02 -.126010123767231D+03 0.159342362610290D+03
 0.137988225724568D+03 -.713304044990443D+02 -.111868033762461D+03 -.379244888526918D+02
0.424715747785D-02 0.000000000000D+00 0.000000000000D+00 0.710873266241D-03 0.000000000000D+00  5 2 -2 25 23 21 0 0.19442421D-01 0.95852900D-01 0.53327427D+05 0.53327427D+05 0.53327427D+05 0.11895206D+01  1  2  2  2  5  2       -2 0.115717547623D+00 0.100000000000D+01
-.225062837020D-03 0.000000000000D+00 -.163102030172D-04 0.710873266241D-03 0.000000000000D+00  5 2 -2 25 23 21 2 0.19442421D-01 0.95852900D-01 0.53327427D+05 0.53327427D+05 0.53327427D+05 0.11895206D+01  1  2  3  2  5  2       -2 -.867657973781D-02 0.100000000000D+01
0.290245027183D-03 0.000000000000D+00 0.000000000000D+00 0.710873266241D-03 0.000000000000D+00  5 2 -2 25 23 21 2 0.19442421D-01 0.95852900D-01 0.53327427D+05 0.53327427D+05 0.53327427D+05 0.11895206D+01  1  2 15  2  5  2       -2 0.111894711503D-01 0.100000000000D+01
0.851300028583D-03 0.000000000000D+00 0.000000000000D+00 0.710873266241D-03 0.000000000000D+00  5 2 -2 25 23 21 2 0.19442421D-01 0.13565944D+00 0.92206758D+05 0.92206758D+05 0.92206758D+05 0.11668226D+01  1  2 12  2  5  2       -2 0.136633867015D-01 0.100000000000D+01
-.175777302940D-02 0.000000000000D+00 0.000000000000D+00 0.710873266241D-03 0.000000000000D+00  5 2 -2 25 23 21 2 0.19442421D-01 0.95852900D-01 0.53327427D+05 0.53327427D+05 0.53327427D+05 0.11895206D+01  1  2  4  2  5  2       -2 -.677653319069D-01 0.100000000000D+01
-.245655191480D-02 0.000000000000D+00 -.137238078727D-02 0.710873266241D-03 0.000000000000D+00  5 2 -2 25 23 21 2 0.19442421D-01 0.14747611D+00 0.53327427D+05 0.53327427D+05 0.53327427D+05 0.11895206D+01  1  2  5  2  5  2       -2 -.332898520203D-01 0.100000000000D+01
0.289333382308D-02 0.000000000000D+00 0.125416196339D-02 0.710873266241D-03 0.000000000000D+00  5 2 -2 25 23 21 2 0.19442421D-01 0.95852900D-01 0.53327427D+05 0.53327427D+05 0.53327427D+05 0.11895206D+01  1  2  6  2  5  2       -2 0.111543255903D+00 0.100000000000D+01
0.365726812052D-04 0.000000000000D+00 0.000000000000D+00 0.710873266241D-03 0.000000000000D+00  5 2 21 25 23 2 2 0.19442421D-01 0.13565944D+00 0.92206758D+05 0.92206758D+05 0.92206758D+05 0.11668226D+01  1  2 12  4  5  2       -2 0.647434448305D-02 0.100000000000D+01
-.718615314230D-04 0.000000000000D+00 -.690191825831D-04 0.710873266241D-03 0.000000000000D+00  5 2 21 25 23 2 2 0.19442421D-01 0.14747611D+00 0.53327427D+05 0.53327427D+05 0.53327427D+05 0.11895206D+01  1  2  5  4  5  2       -2 -.109301770119D-01 0.100000000000D+01
  </mgrwgt>
  </event>
  <event>
  4     66 0.45228882E-03 0.10960136E+03 0.75467711E-02 0.11356395E+00
        2 -1    0    0  501    0 0.00000000E+00 0.00000000E+00 0.94661831E+02 0.94662372E+02 0.32000000E+00 0.0000E+00 0.9000E+01
       -2 -1    0    0    0  501 0.00000000E+00 0.00000000E+00 -.13249925E+03 0.13249964E+03 0.32000000E+00 0.0000E+00 0.9000E+01
       25  1    1    2    0    0 0.14578126E+02 -.10383461E+02 0.14184323E+01 0.12628282E+03 0.12500000E+03 0.0000E+00 0.9000E+01
       23  1    1    2    0    0 -.14578126E+02 0.10383461E+02 -.39255850E+02 0.10087919E+03 0.91188000E+02 0.0000E+00 0.9000E+01
#aMCatNLO 1  0  0  2  1 0.16242590D+03 0.00000000D+00  -5  5  0 0.00000000D+00 0.00000000D+00 0.00000000D+00 0.00000000D+00 0.00000000D+00
  <mgrwgt>
 0.1626081647D+00    3    2    0
 0.111994316556772D+03 0.000000000000000D+00 0.000000000000000D+00 0.111994316556772D+03
 0.111994316556772D+03 0.000000000000000D+00 0.000000000000000D+00 -.111994316556772D+03
 0.128311547825143D+03 0.145781257015684D+02 -.103834609166405D+02 0.227709309363000D+02
 0.956770852884006D+02 -.145781257015684D+02 0.103834609166405D+02 -.227709309363000D+02
 0.000000000000000D+00 0.000000000000000D+00 -.000000000000000D+00 0.000000000000000D+00
 0.276774095374870D+03 0.000000000000000D+00 0.000000000000000D+00 0.276774095374870D+03
 0.185985450062292D+03 0.000000000000000D+00 0.000000000000000D+00 -.185985450062292D+03
 0.146528062402235D+03 -.723995566245918D+02 0.923374118166894D+01 0.227709309363000D+02
 0.130154211431446D+03 -.860462913315276D+02 0.265026010369871D+02 -.227709309363000D+02
 0.186077271603481D+03 0.158445847956119D+03 -.357363422186560D+02 0.907886453125785D+02
0.208999688729D-03 0.000000000000D+00 0.000000000000D+00 0.177464481500D-02 0.000000000000D+00  5 2 -2 25 23 21 0 0.14563430D-01 0.20384571D-01 0.12012458D+05 0.12012458D+05 0.12012458D+05 0.12589713D+01  1  2  2  2  5  2       -2 0.159341950944D+00 0.100000000000D+01
-.116045082246D-04 0.000000000000D+00 -.802613835603D-06 0.177464481500D-02 0.000000000000D+00  5 2 -2 25 23 21 2 0.14563430D-01 0.20384571D-01 0.12012458D+05 0.12012458D+05 0.12012458D+05 0.12589713D+01  1  2  3  2  5  2       -2 -.140230630682D-01 0.100000000000D+01
0.143073987705D-04 0.000000000000D+00 0.000000000000D+00 0.177464481500D-02 0.000000000000D+00  5 2 -2 25 23 21 2 0.14563430D-01 0.20384571D-01 0.12012458D+05 0.12012458D+05 0.12012458D+05 0.12589713D+01  1  2 15  2  5  2       -2 0.172892768412D-01 0.100000000000D+01
  </mgrwgt>
  </event>
  <event>
  4     66 0.45228882E-03 0.13415649E+03 0.75467711E-02 0.10079354E+00
        2 -1    0    0  501    0 0.00000000E+00 0.00000000E+00 0.13154079E+02 0.13157971E+02 0.32000000E+00 0.0000E+00 0.9000E+01
       -2 -1    0    0    0  501 0.00000000E+00 0.00000000E+00 -.13876975E+04 0.13876976E+04 0.32000000E+00 0.0000E+00 0.9000E+01
       25  1    1    2    0    0 -.42726389E+02 -.66240808E+02 -.83901405E+03 0.85192897E+03 0.12500000E+03 0.0000E+00 0.9000E+01
       23  1    1    2    0    0 0.42726389E+02 0.66240808E+02 -.53552941E+03 0.54892658E+03 0.91188000E+02 0.0000E+00 0.9000E+01
#aMCatNLO 1  0  0  2  1 0.48876793D+03 0.00000000D+00  -5  5  0 0.00000000D+00 0.00000000D+00 0.00000000D+00 0.00000000D+00 0.00000000D+00
  <mgrwgt>
 0.1729055064D+00    3    2    0
 0.135117114074855D+03 0.000000000000000D+00 0.000000000000000D+00 0.135117114074855D+03
 0.135117114074855D+03 0.000000000000000D+00 0.000000000000000D+00 -.135117114074855D+03
 0.148641952704754D+03 -.427263885716207D+02 -.662408080836920D+02 -.160012864460521D+02
 0.121592275444957D+03 0.427263885716207D+02 0.662408080836920D+02 0.160012864460521D+02
 0.000000000000000D+00 0.000000000000000D+00 0.000000000000000D+00 0.000000000000000D+00
 0.641286722198371D+03 0.000000000000000D+00 0.000000000000000D+00 0.641286722198371D+03
 0.444214317206127D+03 0.000000000000000D+00 0.000000000000000D+00 -.444214317206127D+03
 0.413826827414533D+03 -.362261368616586D+03 -.155365062765369D+03 -.160012864460521D+02
 0.144671722005402D+03 -.108536515467159D+03 0.240507681026384D+02 0.160012864460521D+02
 0.527002489984562D+03 0.470797884083745D+03 0.131314294662731D+03 0.197072404992243D+03
0.271452659005D-02 0.000000000000D+00 0.000000000000D+00 0.145637909710D-02 0.000000000000D+00  5 2 -2 25 23 21 0 0.20240066D-02 0.21349223D+00 0.17997964D+05 0.17997964D+05 0.17997964D+05 0.12389011D+01  1  2  2  2  5  2       -2 0.169382544474D+00 0.100000000000D+01
-.150797698427D-03 0.000000000000D+00 -.104244968570D-04 0.145637909710D-02 0.000000000000D+00  5 2 -2 25 23 21 2 0.20240066D-02 0.21349223D+00 0.17997964D+05 0.17997964D+05 0.17997964D+05 0.12389011D+01  1  2  3  2  5  2       -2 -.144425044278D-01 0.100000000000D+01
0.187581800090D-03 0.000000000000D+00 0.000000000000D+00 0.145637909710D-02 0.000000000000D+00  5 2 -2 25 23 21 2 0.20240066D-02 0.21349223D+00 0.17997964D+05 0.17997964D+05 0.17997964D+05 0.12389011D+01  1  2 15  2  5  2       -2 0.179654663607D-01 0.100000000000D+01
  </mgrwgt>
  </event>
  <event>
  4     66 0.45228882E-03 0.10934791E+03 0.75467711E-02 0.12008711E+00
        2 -1    0    0  501    0 0.00000000E+00 0.00000000E+00 0.66031050E+03 0.66031058E+03 0.32000000E+00 0.0000E+00 0.9000E+01
       -2 -1    0    0    0  501 0.00000000E+00 0.00000000E+00 -.18967549E+02 0.18970248E+02 0.32000000E+00 0.0000E+00 0.9000E+01
       25  1    1    2    0    0 -.12558522E+01 -.16265265E+02 0.29591310E+03 0.32164530E+03 0.12500000E+03 0.0000E+00 0.9000E+01
       23  1    1    2    0    0 0.12558522E+01 0.16265265E+02 0.34542985E+03 0.35763552E+03 0.91188000E+02 0.0000E+00 0.9000E+01
#aMCatNLO 1  0  0  2  1 0.69752189D+02 0.00000000D+00  -5  5  0 0.00000000D+00 0.00000000D+00 0.00000000D+00 0.00000000D+00 0.00000000D+00
  <mgrwgt>
 0.1212466785D+00    4    2    0
 0.111916999064035D+03 0.000000000000000D+00 0.000000000000000D+00 0.111916999064035D+03
 0.111916999064035D+03 0.000000000000000D+00 0.000000000000000D+00 -.111916999064035D+03
 0.128245503038256D+03 -.125585219891941D+01 -.162652646803879D+02 -.235748393349106D+02
 0.955884950898143D+02 0.125585219891941D+01 0.162652646803879D+02 0.235748393349106D+02
 0.000000000000000D+00 0.000000000000000D+00 -.000000000000000D+00 0.000000000000000D+00
 0.158297504358641D+03 0.000000000000000D+00 0.000000000000000D+00 0.158297504358641D+03
 0.146839917834505D+03 0.000000000000000D+00 0.000000000000000D+00 -.146839917834505D+03
 0.129891617891826D+03 -.177425430715724D+02 0.193974615412070D+02 -.235748393349106D+02
 0.104558859901670D+03 -.115271507215226D+02 0.439164614525521D+02 0.235748393349106D+02
 0.706869443996505D+02 0.292696937930950D+02 -.633139229937591D+02 0.114575865241367D+02
0.937824700501D-04 0.000000000000D+00 0.000000000000D+00 0.177238828572D-02 0.000000000000D+00  5 2 -2 25 23 21 0 0.10158644D+00 0.29182980D-02 0.11956966D+05 0.11956966D+05 0.11956966D+05 0.12592070D+01  1  2  2  2  5  2       -2 0.173203905997D+00 0.100000000000D+01
-.520672088006D-05 0.000000000000D+00 -.360149378484D-06 0.177238828572D-02 0.000000000000D+00  5 2 -2 25 23 21 2 0.10158644D+00 0.29182980D-02 0.11956966D+05 0.11956966D+05 0.11956966D+05 0.12592070D+01  1  2  3  2  5  2       -2 -.152473571935D-01 0.100000000000D+01
0.642108976106D-05 0.000000000000D+00 0.000000000000D+00 0.177238828572D-02 0.000000000000D+00  5 2 -2 25 23 21 2 0.10158644D+00 0.29182980D-02 0.11956966D+05 0.11956966D+05 0.11956966D+05 0.12592070D+01  1  2 15  2  5  2       -2 0.188035140377D-01 0.100000000000D+01
-.189569047221D-04 0.000000000000D+00 0.000000000000D+00 0.177238828572D-02 0.000000000000D+00  5 2 -2 25 23 21 2 0.10158644D+00 0.29182980D-02 0.11956966D+05 0.11956966D+05 0.11956966D+05 0.12592070D+01  1  2  4  2  5  2       -2 -.555133843815D-01 0.100000000000D+01
  </mgrwgt>
  </event>
  <event>
  4     66 0.45228882E-03 0.14777875E+03 0.75467711E-02 0.11785983E+00
        2 -1    0    0  501    0 0.00000000E+00 0.00000000E+00 0.37924321E+03 0.37924335E+03 0.32000000E+00 0.0000E+00 0.9000E+01
       -2 -1    0    0    0  501 0.00000000E+00 0.00000000E+00 -.61033342E+02 0.61034181E+02 0.32000000E+00 0.0000E+00 0.9000E+01
       25  1    1    2    0    0 0.77292088E+02 -.63618279E+02 0.11950612E+03 0.19982008E+03 0.12500000E+03 0.0000E+00 0.9000E+01
       23  1    1    2    0    0 -.77292088E+02 0.63618279E+02 0.19870375E+03 0.24045745E+03 0.91188000E+02 0.0000E+00 0.9000E+01
#aMCatNLO 1  0  0  1  1 0.40251846D+02 0.00000000D+00  -5  5  0 0.00000000D+00 0.00000000D+00 0.00000000D+00 0.00000000D+00 0.00000000D+00
  <mgrwgt>
 0.1290091342D+00    4    2    0
 0.152140380018133D+03 0.000000000000000D+00 0.000000000000000D+00 0.152140380018133D+03
 0.152140380018133D+03 0.000000000000000D+00 0.000000000000000D+00 -.152140380018133D+03
 0.164151899667172D+03 0.772920877049940D+02 -.636182786905279D+02 -.360484945455290D+02
 0.140128860369095D+03 -.772920877049940D+02 0.636182786905279D+02 0.360484945455290D+02
 0.000000000000000D+00 -.000000000000000D+00 -.000000000000000D+00 -.000000000000000D+00
 0.161173352632765D+03 0.000000000000000D+00 0.000000000000000D+00 0.161173352632765D+03
 0.206018413941782D+03 0.000000000000000D+00 0.000000000000000D+00 -.206018413941782D+03
 0.162350952144741D+03 0.864932530347816D+02 -.441843284747671D+02 -.360484945455290D+02
 0.144580623346908D+03 -.692686998047299D+02 0.805646235747654D+02 0.360484945455290D+02
 0.602601910828982D+02 -.172245532300516D+02 -.363802950999983D+02 -.448450613090178D+02
0.273830221410D-03 0.000000000000D+00 0.000000000000D+00 0.127028299588D-02 0.000000000000D+00  5 2 -2 25 23 21 0 0.58345185D-01 0.93898199D-02 0.21838559D+05 0.21838559D+05 0.21838559D+05 0.12296433D+01  1  2  2  1  5  1        2 0.163713558896D+00 0.100000000000D+01
-.151971405649D-04 0.000000000000D+00 -.105158015137D-05 0.127028299588D-02 0.000000000000D+00  5 2 -2 25 23 21 2 0.58345185D-01 0.93898199D-02 0.21838559D+05 0.21838559D+05 0.21838559D+05 0.12296433D+01  1  2  3  1  5  1        2 -.137379968942D-01 0.100000000000D+01
0.189177809978D-04 0.000000000000D+00 0.000000000000D+00 0.127028299588D-02 0.000000000000D+00  5 2 -2 25 23 21 2 0.58345185D-01 0.93898199D-02 0.21838559D+05 0.21838559D+05 0.21838559D+05 0.12296433D+01  1  2 15  1  5  1        2 0.171014024305D-01 0.100000000000D+01
-.421111004691D-04 0.000000000000D+00 0.000000000000D+00 0.127028299588D-02 0.000000000000D+00  5 2 -2 25 23 21 2 0.58345185D-01 0.93898199D-02 0.21838559D+05 0.21838559D+05 0.21838559D+05 0.12296433D+01  1  2  4  1  5  1        2 -.380678302596D-01 0.100000000000D+01
  </mgrwgt>
  </event>
  <event>
  4     66 0.45228882E-03 0.15065189E+03 0.75467711E-02 0.11677658E+00
        2 -1    0    0  501    0 0.00000000E+00 0.00000000E+00 0.47275041E+03 0.47275051E+03 0.32000000E+00 0.0000E+00 0.9000E+01
       -2 -1    0    0    0  501 0.00000000E+00 0.00000000E+00 -.48016145E+02 0.48017211E+02 0.32000000E+00 0.0000E+00 0.9000E+01
       25  1    1    2    0    0 -.85859771E+02 0.59170164E+02 0.23289381E+03 0.28414351E+03 0.12500000E+03 0.0000E+00 0.9000E+01
       23  1    1    2    0    0 0.85859771E+02 -.59170164E+02 0.19184045E+03 0.23662421E+03 0.91188000E+02 0.0000E+00 0.9000E+01
#aMCatNLO 1  0  0  2  2 0.53976615D+02 0.00000000D+00  -5  5  0 0.00000000D+00 0.00000000D+00 0.00000000D+00 0.00000000D+00 0.00000000D+00
  <mgrwgt>
 0.1544385097D+00    4    2    0
 0.150665052140538D+03 0.000000000000000D+00 0.000000000000000D+00 0.150665052140538D+03
 0.150665052140538D+03 0.000000000000000D+00 0.000000000000000D+00 -.150665052140538D+03
 0.162794189840603D+03 -.858597710573580D+02 0.591701641296390D+02 0.198485181003918D+01
 0.138535914440473D+03 0.858597710573580D+02 -.591701641296390D+02 -.198485181003918D+01
 0.000000000000000D+00 0.000000000000000D+00 0.000000000000000D+00 0.000000000000000D+00
 0.205093131004666D+03 0.000000000000000D+00 0.000000000000000D+00 0.205093131004666D+03
 0.167062165053655D+03 0.000000000000000D+00 0.000000000000000D+00 -.167062165053655D+03
 0.167261446518917D+03 -.104843172848333D+03 0.368152273113632D+02 0.198485181003918D+01
 0.138864845612939D+03 0.699048546581133D+02 -.779587433302100D+02 -.198485181003918D+01
 0.660290039264647D+02 0.349383181902194D+02 0.411435160188468D+02 0.380309659510111D+02
0.280070129586D-03 0.000000000000D+00 0.000000000000D+00 0.134187891184D-02 0.000000000000D+00  5 2 -2 25 23 21 0 0.72730922D-01 0.73871896D-02 0.22695993D+05 0.22695993D+05 0.22695993D+05 0.12278254D+01  1  2  2  2  5  2       -2 0.191798678926D+00 0.100000000000D+01
-.155594514993D-04 0.000000000000D+00 -.107554304177D-05 0.134187891184D-02 0.000000000000D+00  5 2 -2 25 23 21 2 0.72730922D-01 0.73871896D-02 0.22695993D+05 0.22695993D+05 0.22695993D+05 0.12278254D+01  1  2  3  2  5  2       -2 -.160637262917D-01 0.100000000000D+01
0.192990221438D-04 0.000000000000D+00 0.000000000000D+00 0.134187891184D-02 0.000000000000D+00  5 2 -2 25 23 21 2 0.72730922D-01 0.73871896D-02 0.22695993D+05 0.22695993D+05 0.22695993D+05 0.12278254D+01  1  2 15  2  5  2       -2 0.199244947310D-01 0.100000000000D+01
-.399269240803D-04 0.000000000000D+00 0.000000000000D+00 0.134187891184D-02 0.000000000000D+00  5 2 -2 25 23 21 2 0.72730922D-01 0.73871896D-02 0.22695993D+05 0.22695993D+05 0.22695993D+05 0.12278254D+01  1  2  4  2  5  2       -2 -.412209376484D-01 0.100000000000D+01
  </mgrwgt>
  </event>
  <event>
  4     66 0.45228882E-03 0.11972448E+03 0.75467711E-02 0.11292730E+00
        2 -1    0    0  501    0 0.00000000E+00 0.00000000E+00 0.57329302E+03 0.57329310E+03 0.32000000E+00 0.0000E+00 0.9000E+01
       -2 -1    0    0    0  501 0.00000000E+00 0.00000000E+00 -.25022783E+02 0.25024829E+02 0.32000000E+00 0.0000E+00 0.9000E+01
       25  1    1    2    0    0 0.31652724E+02 0.39936324E+02 0.30044673E+03 0.32937826E+03 0.12500000E+03 0.0000E+00 0.9000E+01
       23  1    1    2    0    0 -.31652724E+02 -.39936324E+02 0.24782350E+03 0.26893967E+03 0.91188000E+02 0.0000E+00 0.9000E+01
#aMCatNLO 1  0  0  1  1 0.16295855D+03 0.00000000D+00  -5  5  0 0.00000000D+00 0.00000000D+00 0.00000000D+00 0.00000000D+00 0.00000000D+00
  <mgrwgt>
 0.1440279618D+00    5    2    0
 0.119774895361547D+03 0.000000000000000D+00 0.000000000000000D+00 0.119774895361547D+03
 0.119774895361547D+03 0.000000000000000D+00 0.000000000000000D+00 -.119774895361547D+03
 0.135032159068468D+03 0.316527239094590D+02 0.399363243268359D+02 -.344659992823375D+01
 0.104517631654625D+03 -.316527239094590D+02 -.399363243268359D+02 0.344659992823375D+01
 0.000000000000000D+00 -.000000000000000D+00 0.000000000000000D+00 0.000000000000000D+00
 0.236628830591921D+03 0.000000000000000D+00 0.000000000000000D+00 0.236628830591921D+03
 0.217206389162465D+03 0.000000000000000D+00 0.000000000000000D+00 -.217206389162465D+03
 0.177335193685451D+03 0.124746468521760D+03 0.157864011016009D+02 -.344659992823375D+01
 0.112388109230780D+03 0.329909319300665D+02 -.567058648800126D+02 0.344659992823375D+01
 0.164111916838155D+03 -.157737400451827D+03 0.409194637784117D+02 0.194224414294565D+02
0.934305481099D-04 0.000000000000D+00 0.000000000000D+00 0.167524447929D-02 0.000000000000D+00  5 2 -2 25 23 21 0 0.88199090D-01 0.38498232D-02 0.14333950D+05 0.14333950D+05 0.14333950D+05 0.12500775D+01  1  2  2  1  5  1        2 0.135897474346D+00 0.100000000000D+01
-.519058488738D-05 0.000000000000D+00 -.358797905570D-06 0.167524447929D-02 0.000000000000D+00  5 2 -2 25 23 21 2 0.88199090D-01 0.38498232D-02 0.14333950D+05 0.14333950D+05 0.14333950D+05 0.12500775D+01  1  2  3  1  5  1        2 -.117981166896D-01 0.100000000000D+01
0.644698800899D-05 0.000000000000D+00 0.000000000000D+00 0.167524447929D-02 0.000000000000D+00  5 2 -2 25 23 21 2 0.88199090D-01 0.38498232D-02 0.14333950D+05 0.14333950D+05 0.14333950D+05 0.12500775D+01  1  2 15  1  5  1        2 0.146539009527D-01 0.100000000000D+01
0.961972555826D-05 0.000000000000D+00 -.350554682176D-04 0.167524447929D-02 0.000000000000D+00  5 2 -2 25 23 21 2 0.26194396D+00 0.38498232D-02 0.14333950D+05 0.14333950D+05 0.14333950D+05 0.12500775D+01  1  2  5  1  5  1        2 0.464460625513D-02 0.100000000000D+01
0.297493874294D-05 0.000000000000D+00 -.433343158821D-05 0.167524447929D-02 0.000000000000D+00  5 21 -2 25 23 -2 2 0.26194396D+00 0.38498232D-02 0.14333950D+05 0.14333950D+05 0.14333950D+05 0.12500775D+01  1  2  5  3  5  1        2 0.630096968180D-03 0.100000000000D+01
  </mgrwgt>
  </event>
  <event>
  4     66 0.45228882E-03 0.33446526E+02 0.75467711E-02 0.12326666E+00
        2 -1    0    0  501    0 0.00000000E+00 0.00000000E+00 0.33440647E+04 0.33440647E+04 0.32000000E+00 0.0000E+00 0.9000E+01
       -2 -1    0    0    0  501 0.00000000E+00 0.00000000E+00 -.60007493E+01 0.60092755E+01 0.32000000E+00 0.0000E+00 0.9000E+01
       25  1    1    2    0    0 0.75790283E+01 -.17679846E+01 0.74944504E+03 0.75983777E+03 0.12500000E+03 0.0000E+00 0.9000E+01
       23  1    1    2    0    0 -.75790283E+01 0.17679846E+01 0.25886189E+04 0.25902362E+04 0.91188000E+02 0.0000E+00 0.9000E+01
#aMCatNLO 1  0  0  1  2 0.33856474D+02 0.00000000D+00  -5  5  0 0.00000000D+00 0.00000000D+00 0.00000000D+00 0.00000000D+00 0.00000000D+00
  <mgrwgt>
 0.2142092198D+00    9    2    0
 0.141708154729507D+03 0.000000000000000D+00 0.000000000000000D+00 0.141708154729507D+03
 0.141708154729507D+03 0.000000000000000D+00 0.000000000000000D+00 -.141708154729507D+03
 0.154603934562984D+03 0.757902832485311D+01 -.176798455693308D+01 -.906466168293823D+02
 0.128812374896030D+03 -.757902832485311D+01 0.176798455693308D+01 0.906466168293823D+02
 0.000000000000000D+00 -.000000000000000D+00 0.000000000000000D+00 0.000000000000000D+00
 0.175239060037197D+03 0.000000000000000D+00 0.000000000000000D+00 0.175239060037197D+03
 0.151526736817029D+03 0.000000000000000D+00 0.000000000000000D+00 -.151526736817029D+03
 0.156603592541730D+03 0.240025819979875D+02 -.103320913562160D+02 -.906466168293823D+02
 0.128827774486968D+03 0.601757989703698D+01 -.532200383642852D+01 0.906466168293823D+02
 0.413344298255290D+02 -.300201618950245D+02 0.156540951926445D+02 0.237123232201680D+02
0.376903024736D-03 0.000000000000D+00 0.000000000000D+00 0.945231792321D-03 0.000000000000D+00  5 2 -2 25 23 21 0 0.51447215D+00 0.92384923D-03 0.11746391D+05 0.11746391D+05 0.11746391D+05 0.12601128D+01  1  2  2  1  5  1        2 0.118212173508D+00 0.100000000000D+01
-.191088763627D-04 0.000000000000D+00 -.144740685583D-05 0.945231792321D-03 0.000000000000D+00  5 2 -2 25 23 21 2 0.51447215D+00 0.92384923D-03 0.11746391D+05 0.11746391D+05 0.11746391D+05 0.12601128D+01  1  2  3  1  5  1        2 -.951670420452D-02 0.100000000000D+01
0.258471309438D-04 0.000000000000D+00 0.000000000000D+00 0.945231792321D-03 0.000000000000D+00  5 2 -2 25 23 21 2 0.51447215D+00 0.92384923D-03 0.11746391D+05 0.11746391D+05 0.11746391D+05 0.12601128D+01  1  2 15  1  5  1        2 0.128725255770D-01 0.100000000000D+01
0.323569223811D-03 0.000000000000D+00 0.000000000000D+00 0.945231792321D-03 0.000000000000D+00  5 2 -2 25 23 21 2 0.65091041D+00 0.92384923D-03 0.16014895D+05 0.16014895D+05 0.16014895D+05 0.12445941D+01  1  2 12  1  5  1        2 0.371287057718D-01 0.100000000000D+01
-.351504904094D-03 0.000000000000D+00 0.000000000000D+00 0.945231792321D-03 0.000000000000D+00  5 2 -2 25 23 21 2 0.51447215D+00 0.92384923D-03 0.11746391D+05 0.11746391D+05 0.11746391D+05 0.12601128D+01  1  2  4  1  5  1        2 -.175058341223D+00 0.100000000000D+01
-.588411031370D-03 0.000000000000D+00 -.153904881353D-03 0.945231792321D-03 0.000000000000D+00  5 2 -2 25 23 21 2 0.64411409D+00 0.92384923D-03 0.11746391D+05 0.11746391D+05 0.11746391D+05 0.12601128D+01  1  2  5  1  5  1        2 -.759120843449D-01 0.100000000000D+01
0.615473706050D-03 0.000000000000D+00 0.151926050468D-03 0.945231792321D-03 0.000000000000D+00  5 2 -2 25 23 21 2 0.51447215D+00 0.92384923D-03 0.11746391D+05 0.11746391D+05 0.11746391D+05 0.12601128D+01  1  2  6  1  5  1        2 0.306521487447D+00 0.100000000000D+01
0.104673320688D-04 0.000000000000D+00 0.000000000000D+00 0.945231792321D-03 0.000000000000D+00  5 21 -2 25 23 -2 2 0.65091041D+00 0.92384923D-03 0.16014895D+05 0.16014895D+05 0.16014895D+05 0.12445941D+01  1  2 12  3  5  1        2 0.435810093382D-04 0.100000000000D+01
-.162348670021D-04 0.000000000000D+00 -.481167762261D-05 0.945231792321D-03 0.000000000000D+00  5 21 -2 25 23 -2 2 0.64411409D+00 0.92384923D-03 0.11746391D+05 0.11746391D+05 0.11746391D+05 0.12601128D+01  1  2  5  3  5  1        2 -.821237403896D-04 0.100000000000D+01
  </mgrwgt>
  </event>
  <event>
  4     66 0.45228882E-03 0.10989315E+03 0.75467711E-02 0.11674306E+00
        2 -1    0    0  501    0 0.00000000E+00 0.00000000E+00 0.30509724E+02 0.30511402E+02 0.32000000E+00 0.0000E+00 0.9000E+01
       -2 -1    0    0    0  501 0.00000000E+00 0.00000000E+00 -.91037260E+03 0.91037266E+03 0.32000000E+00 0.0000E+00 0.9000E+01
       25  1    1    2    0    0 0.11569001E+03 0.43917448E+02 -.53877544E+03 0.56676000E+03 0.12500000E+03 0.0000E+00 0.9000E+01
       23  1    1    2    0    0 -.11569001E+03 -.43917448E+02 -.34108744E+03 0.37412406E+03 0.91188000E+02 0.0000E+00 0.9000E+01
#aMCatNLO 1  0  0  2  1 0.29851792D+02 0.00000000D+00  -5  5  0 0.00000000D+00 0.00000000D+00 0.00000000D+00 0.00000000D+00 0.00000000D+00
  <mgrwgt>
 0.1034988458D+00    7    2    0
 0.166661430869544D+03 0.000000000000000D+00 0.000000000000000D+00 0.166661430869544D+03
 0.166661430869544D+03 0.000000000000000D+00 0.000000000000000D+00 -.166661430869544D+03
 0.177626398315614D+03 0.115690013425207D+03 0.439174484645756D+02 -.247631963327408D+02
 0.155696463423474D+03 -.115690013425207D+03 -.439174484645756D+02 0.247631963327408D+02
 0.000000000000000D+00 -.000000000000000D+00 0.000000000000000D+00 -.000000000000000D+00
 0.168392630860227D+03 0.000000000000000D+00 0.000000000000000D+00 0.168392630860227D+03
 0.376677582053003D+03 0.000000000000000D+00 0.000000000000000D+00 -.376677582053003D+03
 0.186968118491893D+03 0.131180586684304D+03 0.388653459645803D+02 -.247631963327408D+02
 0.147688809759576D+03 -.102800045026548D+03 -.481213885307371D+02 0.247631963327408D+02
 0.210413284661761D+03 -.283805416577558D+02 0.925604256615683D+01 -.208284951192776D+03
0.159373941492D-02 0.000000000000D+00 0.000000000000D+00 0.122802220883D-02 0.000000000000D+00  5 2 -2 25 23 21 0 0.46939371D-02 0.14005746D+00 0.27160090D+05 0.27160090D+05 0.27160090D+05 0.12194577D+01  1  2  2  2  5  2       -2 0.101382980426D+00 0.100000000000D+01
-.885275445791D-04 0.000000000000D+00 -.612037899451D-05 0.122802220883D-02 0.000000000000D+00  5 2 -2 25 23 21 2 0.46939371D-02 0.14005746D+00 0.27160090D+05 0.27160090D+05 0.27160090D+05 0.12194577D+01  1  2  3  2  5  2       -2 -.837451385138D-02 0.100000000000D+01
0.109722777533D-03 0.000000000000D+00 0.000000000000D+00 0.122802220883D-02 0.000000000000D+00  5 2 -2 25 23 21 2 0.46939371D-02 0.14005746D+00 0.27160090D+05 0.27160090D+05 0.27160090D+05 0.12194577D+01  1  2 15  2  5  2       -2 0.103795369524D-01 0.100000000000D+01
0.167252095289D-01 0.000000000000D+00 0.000000000000D+00 0.122802220883D-02 0.000000000000D+00  5 2 -2 25 23 21 2 0.46939371D-02 0.31629448D+00 0.32538880D+05 0.32538880D+05 0.32538880D+05 0.12112128D+01  1  2 12  2  5  2       -2 0.124851322461D+00 0.100000000000D+01
-.166448506363D-01 0.000000000000D+00 -.379643814981D-03 0.122802220883D-02 0.000000000000D+00  5 2 -2 25 23 21 2 0.46939371D-02 0.31726635D+00 0.27160090D+05 0.27160090D+05 0.27160090D+05 0.12194577D+01  1  2  5  2  5  2       -2 -.124733171067D+00 0.100000000000D+01
0.148000884826D-02 0.000000000000D+00 0.000000000000D+00 0.122802220883D-02 0.000000000000D+00  5 2 21 25 23 2 2 0.46939371D-02 0.31629448D+00 0.32538880D+05 0.32538880D+05 0.32538880D+05 0.12112128D+01  1  2 12  4  5  2       -2 0.123772402141D+00 0.100000000000D+01
-.145487030522D-02 0.000000000000D+00 -.337310524405D-04 0.122802220883D-02 0.000000000000D+00  5 2 21 25 23 2 2 0.46939371D-02 0.31726635D+00 0.27160090D+05 0.27160090D+05 0.27160090D+05 0.12194577D+01  1  2  5  4  5  2       -2 -.123779711220D+00 0.100000000000D+01
  </mgrwgt>
  </event>
  <event>
  4     66 0.45228882E-03 0.73370843E+02 0.75467711E-02 0.11319317E+00
        2 -1    0    0  501    0 0.00000000E+00 0.00000000E+00 0.13423355E+04 0.13423355E+04 0.32000000E+00 0.0000E+00 0.9000E+01
       -2 -1    0    0    0  501 0.00000000E+00 0.00000000E+00 -.17708163E+02 0.17711054E+02 0.32000000E+00 0.0000E+00 0.9000E+01
       25  1    1    2    0    0 0.38334442E+02 0.10233485E+03 0.71689483E+03 0.73587033E+03 0.12500000E+03 0.0000E+00 0.9000E+01
       23  1    1    2    0    0 -.38334442E+02 -.10233485E+03 0.60773250E+03 0.62417625E+03 0.91188000E+02 0.0000E+00 0.9000E+01
#aMCatNLO 1  0  0  2  1 0.11586517D+03 0.00000000D+00  -5  5  0 0.00000000D+00 0.00000000D+00 0.00000000D+00 0.00000000D+00 0.00000000D+00
  <mgrwgt>
 0.1451025727D+00    7    2    0
 0.154182644380760D+03 0.000000000000000D+00 0.000000000000000D+00 0.154182644380760D+03
 0.154182644380760D+03 0.000000000000000D+00 0.000000000000000D+00 -.154182644380760D+03
 0.166035062474505D+03 0.383344422888668D+02 0.102334847863541D+03 0.831515520198946D+00
 0.142330226287015D+03 -.383344422888668D+02 -.102334847863541D+03 -.831515520198946D+00
 0.000000000000000D+00 -.000000000000000D+00 0.000000000000000D+00 -.000000000000000D+00
 0.191120115416439D+03 0.000000000000000D+00 0.000000000000000D+00 0.191120115416439D+03
 0.291773417145231D+03 0.000000000000000D+00 0.000000000000000D+00 -.291773417145231D+03
 0.185849034288175D+03 0.101539525884312D+03 0.927571927721846D+02 0.831515520198946D+00
 0.143565429254394D+03 0.130178608538812D+02 -.110116415732292D+03 -.831515520198946D+00
 0.153479069019100D+03 -.114557386738193D+03 0.173592229601076D+02 -.100653301728792D+03
0.219220860151D-03 0.000000000000D+00 0.000000000000D+00 0.131912591928D-02 0.000000000000D+00  5 2 -2 25 23 21 0 0.20651338D+00 0.27245581D-02 0.23771592D+05 0.23771592D+05 0.23771592D+05 0.12256506D+01  1  2  2  2  5  2       -2 0.174719500039D+00 0.100000000000D+01
-.121789366719D-04 0.000000000000D+00 -.841865825158D-06 0.131912591928D-02 0.000000000000D+00  5 2 -2 25 23 21 2 0.20651338D+00 0.27245581D-02 0.23771592D+05 0.23771592D+05 0.23771592D+05 0.12256506D+01  1  2  3  2  5  2       -2 -.145815014911D-01 0.100000000000D+01
0.150574289122D-04 0.000000000000D+00 0.000000000000D+00 0.131912591928D-02 0.000000000000D+00  5 2 -2 25 23 21 2 0.20651338D+00 0.27245581D-02 0.23771592D+05 0.23771592D+05 0.23771592D+05 0.12256506D+01  1  2 15  2  5  2       -2 0.180278400366D-01 0.100000000000D+01
0.141927739201D-04 0.000000000000D+00 0.000000000000D+00 0.131912591928D-02 0.000000000000D+00  5 2 -2 25 23 21 2 0.20651338D+00 0.52337274D-02 0.49567538D+05 0.49567538D+05 0.49567538D+05 0.11926556D+01  1  2 12  2  5  2       -2 0.611573009551D-02 0.100000000000D+01
-.794397175974D-04 0.000000000000D+00 -.603499575828D-04 0.131912591928D-02 0.000000000000D+00  5 2 -2 25 23 21 2 0.20651338D+00 0.64916635D-02 0.23771592D+05 0.23771592D+05 0.23771592D+05 0.12256506D+01  1  2  5  2  5  2       -2 -.259584157266D-01 0.100000000000D+01
0.100548743616D-05 0.000000000000D+00 0.000000000000D+00 0.131912591928D-02 0.000000000000D+00  5 2 21 25 23 2 2 0.20651338D+00 0.52337274D-02 0.49567538D+05 0.49567538D+05 0.49567538D+05 0.11926556D+01  1  2 12  4  5  2       -2 0.755179793140D-02 0.100000000000D+01
-.373925360870D-05 0.000000000000D+00 -.572699544550D-05 0.131912591928D-02 0.000000000000D+00  5 2 21 25 23 2 2 0.20651338D+00 0.64916635D-02 0.23771592D+05 0.23771592D+05 0.23771592D+05 0.12256506D+01  1  2  5  4  5  2       -2 -.207723782006D-01 0.100000000000D+01
  </mgrwgt>
  </event>
  <event>
  5     66 0.45228882E-03 0.19337902E+03 0.75467711E-02 0.11510997E+00
        2 -1    0    0  501    0 0.00000000E+00 0.00000000E+00 0.32780599E+04 0.32780599E+04 0.32000000E+00 0.0000E+00 0.9000E+01
       21 -1    0    0  502  501 0.00000000E+00 0.00000000E+00 -.13521003E+02 0.13541788E+02 0.75000000E+00 0.0000E+00 0.9000E+01
       25  1    1    2    0    0 0.12126037E+03 -.11185967E+03 0.11494751E+04 0.11679618E+04 0.12500000E+03 0.0000E+00 0.9000E+01
       23  1    1    2    0    0 -.11411784E+03 0.10492515E+03 0.19503037E+04 0.19585790E+04 0.91188000E+02 0.0000E+00 0.9000E+01
        2  1    1    2  502    0 -.71425268E+01 0.69345116E+01 0.16476012E+03 0.16506091E+03 0.32000000E+00 0.0000E+00 0.9000E+01
#aMCatNLO 2  0  0  2  1 0.99550560D+01 0.00000000D+00  -5  5  0 0.00000000D+00 0.00000000D+00 0.00000000D+00 0.00000000D+00 0.00000000D+00
  <mgrwgt>
 0.2445538083D-01    1    2    0
 0.204040304575032D+03 0.000000000000000D+00 0.000000000000000D+00 0.204040304575032D+03
 0.204040304575032D+03 0.000000000000000D+00 0.000000000000000D+00 -.204040304575032D+03
 0.212996560388344D+03 0.117498259284698D+03 -.108207124553733D+03 -.650223961273673D+02
 0.195084048761721D+03 -.117498259284698D+03 0.108207124553733D+03 0.650223961273673D+02
 0.000000000000000D+00 -.000000000000000D+00 0.000000000000000D+00 0.000000000000000D+00
 0.214910641435526D+03 0.000000000000000D+00 0.000000000000000D+00 0.214910641435526D+03
 0.206393018362132D+03 0.000000000000000D+00 0.000000000000000D+00 -.206393018362132D+03
 0.216955232896840D+03 0.121260365845013D+03 -.111859665466653D+03 -.650223961273673D+02
 0.191246784129977D+03 -.114117839006022D+03 0.104925153888424D+03 0.650223961273673D+02
 0.131016427708405D+02 -.714252683899132D+01 0.693451157822910D+01 0.851762307339389D+01
0.787196206924D-05 0.000000000000D+00 0.000000000000D+00 0.102502512200D-02 0.171281025695D-06  5 2 21 25 23 2 2 0.50431377D+00 0.20817347D-02 0.39360817D+05 0.39360817D+05 0.39360817D+05 0.12027113D+01  1  2  1  4  5  2       -2 0.244553808254D-01 0.100000000000D+01
  </mgrwgt>
  </event>
  <event>
  4     66 0.45228882E-03 0.52713074E+02 0.75467711E-02 0.12213387E+00
        2 -1    0    0  501    0 0.00000000E+00 0.00000000E+00 0.58843450E+03 0.58843459E+03 0.32000000E+00 0.0000E+00 0.9000E+01
       -2 -1    0    0    0  501 0.00000000E+00 0.00000000E+00 -.31739350E+02 0.31740963E+02 0.32000000E+00 0.0000E+00 0.9000E+01
       25  1    1    2    0    0 -.49034319E+01 -.37086008E+02 0.47364475E+03 0.49128786E+03 0.12500000E+03 0.0000E+00 0.9000E+01
       23  1    1    2    0    0 0.49034319E+01 0.37086008E+02 0.83050400E+02 0.12888769E+03 0.91188000E+02 0.0000E+00 0.9000E+01
#aMCatNLO 1  0  0  2  1 0.36161825D+02 0.00000000D+00  -5  5  0 0.00000000D+00 0.00000000D+00 0.00000000D+00 0.00000000D+00 0.00000000D+00
  <mgrwgt>
 0.1449229203D+00    9    2    0
 0.136664025433161D+03 0.000000000000000D+00 0.000000000000000D+00 0.136664025433161D+03
 0.136664025433161D+03 0.000000000000000D+00 0.000000000000000D+00 -.136664025433161D+03
 0.150035775300823D+03 -.490343186455074D+01 -.370860079828336D+02 0.740696850132762D+02
 0.123292275565499D+03 0.490343186455074D+01 0.370860079828336D+02 -.740696850132762D+02
 0.000000000000000D+00 0.000000000000000D+00 -.000000000000000D+00 -.000000000000000D+00
 0.148535760746377D+03 0.000000000000000D+00 0.000000000000000D+00 0.148535760746377D+03
 0.168462888772046D+03 0.000000000000000D+00 0.000000000000000D+00 -.168462888772046D+03
 0.146644366791236D+03 -.855596572258597D+01 -.178898721121926D+02 0.740696850132762D+02
 0.129065446201795D+03 0.179656695410566D+01 0.534143442202728D+02 -.740696850132762D+02
 0.412888365253915D+02 0.675939876848031D+01 -.355244721080803D+02 -.199271280256689D+02
0.122415051521D-03 0.000000000000D+00 0.000000000000D+00 0.111712535521D-02 0.000000000000D+00  5 2 -2 25 23 21 0 0.90528515D-01 0.48831077D-02 0.13114905D+05 0.13114905D+05 0.13114905D+05 0.12545271D+01  1  2  2  2  5  2       -2 0.121058197405D+00 0.100000000000D+01
-.654244560201D-05 0.000000000000D+00 -.470106030463D-06 0.111712535521D-02 0.000000000000D+00  5 2 -2 25 23 21 2 0.90528515D-01 0.48831077D-02 0.13114905D+05 0.13114905D+05 0.13114905D+05 0.12545271D+01  1  2  3  2  5  2       -2 -.101826215444D-01 0.100000000000D+01
0.838059337908D-05 0.000000000000D+00 0.000000000000D+00 0.111712535521D-02 0.000000000000D+00  5 2 -2 25 23 21 2 0.90528515D-01 0.48831077D-02 0.13114905D+05 0.13114905D+05 0.13114905D+05 0.12545271D+01  1  2 15  2  5  2       -2 0.130435032843D-01 0.100000000000D+01
0.101045912693D-03 0.000000000000D+00 0.000000000000D+00 0.111712535521D-02 0.000000000000D+00  5 2 -2 25 23 21 2 0.90528515D-01 0.61939172D-02 0.18012420D+05 0.18012420D+05 0.18012420D+05 0.12388622D+01  1  2 12  2  5  2       -2 0.108310483733D+00 0.100000000000D+01
-.108394428513D-03 0.000000000000D+00 0.000000000000D+00 0.111712535521D-02 0.000000000000D+00  5 2 -2 25 23 21 2 0.90528515D-01 0.48831077D-02 0.13114905D+05 0.13114905D+05 0.13114905D+05 0.12545271D+01  1  2  4  2  5  2       -2 -.168704412725D+00 0.100000000000D+01
-.179605121634D-03 0.000000000000D+00 -.573665602702D-04 0.111712535521D-02 0.000000000000D+00  5 2 -2 25 23 21 2 0.90528515D-01 0.65385860D-02 0.13114905D+05 0.13114905D+05 0.13114905D+05 0.12545271D+01  1  2  5  2  5  2       -2 -.180158388908D+00 0.100000000000D+01
0.190536013905D-03 0.000000000000D+00 0.550058344357D-04 0.111712535521D-02 0.000000000000D+00  5 2 -2 25 23 21 2 0.90528515D-01 0.48831077D-02 0.13114905D+05 0.13114905D+05 0.13114905D+05 0.12545271D+01  1  2  6  2  5  2       -2 0.296549064097D+00 0.100000000000D+01
0.329518426816D-05 0.000000000000D+00 0.000000000000D+00 0.111712535521D-02 0.000000000000D+00  5 2 21 25 23 2 2 0.90528515D-01 0.61939172D-02 0.18012420D+05 0.18012420D+05 0.18012420D+05 0.12388622D+01  1  2 12  4  5  2       -2 0.608261505128D-01 0.100000000000D+01
-.557445844586D-05 0.000000000000D+00 -.217426205864D-05 0.111712535521D-02 0.000000000000D+00  5 2 21 25 23 2 2 0.90528515D-01 0.65385860D-02 0.13114905D+05 0.13114905D+05 0.13114905D+05 0.12545271D+01  1  2  5  4  5  2       -2 -.958190555457D-01 0.100000000000D+01
  </mgrwgt>
  </event>
  <event>
  5     66 0.45228882E-03 0.11413120E+03 0.75467711E-02 0.11754927E+00
       21 -1    0    0  501  502 0.00000000E+00 0.00000000E+00 0.14988396E+03 0.14988583E+03 0.75000000E+00 0.0000E+00 0.9000E+01
       -2 -1    0    0    0  501 0.00000000E+00 0.00000000E+00 -.31210742E+03 0.31210758E+03 0.32000000E+00 0.0000E+00 0.9000E+01
       25  1    1    2    0    0 -.56870432E+02 -.62287118E+02 -.11028325E+02 0.15119707E+03 0.12500000E+03 0.0000E+00 0.9000E+01
       23  1    1    2    0    0 0.19261370E+02 -.26870901E+02 0.33226587E+02 0.10252952E+03 0.91188000E+02 0.0000E+00 0.9000E+01
       -2  1    1    2    0  502 0.37609061E+02 0.89158019E+02 -.18442172E+03 0.20826682E+03 0.32000000E+00 0.0000E+00 0.9000E+01
#aMCatNLO 2  0  0  1  1 0.96765665D+02 0.00000000D+00  -5  5  0 0.00000000D+00 0.00000000D+00 0.00000000D+00 0.00000000D+00 0.00000000D+00
  <mgrwgt>
 0.1702265269D-01    1    2    0
 0.116748478826692D+03 0.000000000000000D+00 0.000000000000000D+00 0.116748478826692D+03
 0.116748478826692D+03 0.000000000000000D+00 0.000000000000000D+00 -.116748478826692D+03
 0.132401249486880D+03 -.348155874324039D+02 -.100027442054433D+02 -.243497606925428D+02
 0.101095708166504D+03 0.348155874324039D+02 0.100027442054433D+02 0.243497606925428D+02
 0.000000000000000D+00 0.000000000000000D+00 0.000000000000000D+00 -.000000000000000D+00
 0.137298069916183D+03 0.000000000000000D+00 0.000000000000000D+00 0.137298069916183D+03
 0.340720697367139D+03 0.000000000000000D+00 0.000000000000000D+00 -.340720697367139D+03
 0.152747641391121D+03 -.568704316277171D+02 -.622871183411423D+02 -.243497606925428D+02
 0.100006039309224D+03 0.192613704956808D+02 -.268709008997114D+02 0.243497606925428D+02
 0.225265086582977D+03 0.376090611320363D+02 0.891580192408537D+02 -.203422627450956D+03
0.192829525092D-04 0.000000000000D+00 0.000000000000D+00 0.167509630066D-02 0.999144152625D-07  5 21 -2 25 23 -2 2 0.23059210D-01 0.48016646D-01 0.29679774D+05 0.29679774D+05 0.29679774D+05 0.12153879D+01  1  2  1  3  5  1        2 0.170226526893D-01 0.100000000000D+01
  </mgrwgt>
  </event>
  <event>
  4     66 0.45228882E-03 0.14024133E+03 0.75467711E-02 0.11629831E+00
        4 -1    0    0  501    0 0.00000000E+00 0.00000000E+00 0.15467426E+03 0.15468203E+03 0.15500000E+01 0.0000E+00 0.9000E+01
       -4 -1    0    0    0  501 0.00000000E+00 0.00000000E+00 -.20880567E+03 0.20881143E+03 0.15500000E+01 0.0000E+00 0.9000E+01
       25  1    1    2    0    0 -.76234745E+02 -.11966766E+03 -.46127511E+02 0.19464027E+03 0.12500000E+03 0.0000E+00 0.9000E+01
       23  1    1    2    0    0 0.76234745E+02 0.11966766E+03 -.80039024E+01 0.16885319E+03 0.91188000E+02 0.0000E+00 0.9000E+01
#aMCatNLO 1  0  0  1  2 0.12181068D+02 0.00000000D+00  -5  5  0 0.00000000D+00 0.00000000D+00 0.00000000D+00 0.00000000D+00 0.00000000D+00
  <mgrwgt>
 0.1586256218D-01    9    2    0
 0.179720116991277D+03 0.000000000000000D+00 0.000000000000000D+00 0.179720116991277D+03
 0.179720116991277D+03 0.000000000000000D+00 0.000000000000000D+00 -.179720116991277D+03
 0.189888356332501D+03 -.762347453057977D+02 -.119667661987616D+03 -.173349979301041D+02
 0.169551877650054D+03 0.762347453057977D+02 0.119667661987616D+03 0.173349979301041D+02
 0.000000000000000D+00 0.000000000000000D+00 0.000000000000000D+00 0.000000000000000D+00
 0.304474146180044D+03 0.000000000000000D+00 0.000000000000000D+00 0.304474146180044D+03
 0.180120876441828D+03 0.000000000000000D+00 0.000000000000000D+00 -.180120876441828D+03
 0.193331590895594D+03 -.825982446122306D+02 -.120950948206134D+03 -.173349979301041D+02
 0.166314985925239D+03 0.706575602743957D+02 0.118542946741448D+03 0.173349979301041D+02
 0.124948445801040D+03 0.119406843378349D+02 0.240800146468591D+01 0.124353269738216D+03
0.445496551397D-03 0.000000000000D+00 0.000000000000D+00 0.118829244819D-02 0.000000000000D+00  5 4 -4 25 23 21 0 0.23797080D-01 0.32124990D-01 0.31997844D+05 0.31997844D+05 0.31997844D+05 0.12119707D+01  1  2  2  1  5  1        4 0.119178558030D-01 0.100000000000D+01
-.247491468309D-04 0.000000000000D+00 -.171082405930D-05 0.118829244819D-02 0.000000000000D+00  5 4 -4 25 23 21 2 0.23797080D-01 0.32124990D-01 0.31997844D+05 0.31997844D+05 0.31997844D+05 0.12119707D+01  1  2  3  1  5  1        4 -.972519340940D-03 0.100000000000D+01
0.306063968652D-04 0.000000000000D+00 0.000000000000D+00 0.118829244819D-02 0.000000000000D+00  5 4 -4 25 23 21 2 0.23797080D-01 0.32124990D-01 0.31997844D+05 0.31997844D+05 0.31997844D+05 0.12119707D+01  1  2 15  1  5  1        4 0.120268036354D-02 0.100000000000D+01
0.248994090162D-01 0.000000000000D+00 0.000000000000D+00 0.118829244819D-02 0.000000000000D+00  5 4 -4 25 23 21 2 0.40326217D-01 0.32124990D-01 0.34251465D+05 0.34251465D+05 0.34251465D+05 0.12089035D+01  1  2 12  1  5  1        4 0.357164998238D+00 0.100000000000D+01
-.218531728535D-01 0.000000000000D+00 0.000000000000D+00 0.118829244819D-02 0.000000000000D+00  5 4 -4 25 23 21 2 0.23797080D-01 0.32124990D-01 0.31997844D+05 0.31997844D+05 0.31997844D+05 0.12119707D+01  1  2  4  1  5  1        4 -.858721854379D+00 0.100000000000D+01
-.249625132070D-01 0.000000000000D+00 -.199981088369D-03 0.118829244819D-02 0.000000000000D+00  5 4 -4 25 23 21 2 0.40350291D-01 0.32124990D-01 0.31997844D+05 0.31997844D+05 0.31997844D+05 0.12119707D+01  1  2  5  1  5  1        4 -.357726137428D+00 0.100000000000D+01
0.219598428494D-01 0.000000000000D+00 0.175010525246D-03 0.118829244819D-02 0.000000000000D+00  5 4 -4 25 23 21 2 0.23797080D-01 0.32124990D-01 0.31997844D+05 0.31997844D+05 0.31997844D+05 0.12119707D+01  1  2  6  1  5  1        4 0.862913458836D+00 0.100000000000D+01
0.146544684545D-02 0.000000000000D+00 0.000000000000D+00 0.118829244819D-02 0.000000000000D+00  5 21 -4 25 23 -4 2 0.40326217D-01 0.32124990D-01 0.34251465D+05 0.34251465D+05 0.34251465D+05 0.12089035D+01  1  2 12  3  5  1        4 0.497229188196D+00 0.100000000000D+01
-.146094108743D-02 0.000000000000D+00 -.117806733564D-04 0.118829244819D-02 0.000000000000D+00  5 21 -4 25 23 -4 2 0.40350291D-01 0.32124990D-01 0.31997844D+05 0.31997844D+05 0.31997844D+05 0.12119707D+01  1  2  5  3  5  1        4 -.497145108113D+00 0.100000000000D+01
  </mgrwgt>
  </event>
  <event>
  4     66 0.45228882E-03 0.15078884E+03 0.75467711E-02 0.10906542E+00
        2 -1    0    0  501    0 0.00000000E+00 0.00000000E+00 0.23909483E+04 0.23909483E+04 0.32000000E+00 0.0000E+00 0.9000E+01
       -2 -1    0    0    0  501 0.00000000E+00 0.00000000E+00 -.98772517E+01 0.98824340E+01 0.32000000E+00 0.0000E+00 0.9000E+01
       25  1    1    2    0    0 0.19957318E+02 -.10254622E+03 0.10510136E+04 0.10635641E+04 0.12500000E+03 0.0000E+00 0.9000E+01
       23  1    1    2    0    0 -.19957318E+02 0.10254622E+03 0.13300574E+04 0.13372666E+04 0.91188000E+02 0.0000E+00 0.9000E+01
#aMCatNLO 1  0  0  2  2 0.21104541D+03 0.00000000D+00  -5  5  0 0.00000000D+00 0.00000000D+00 0.00000000D+00 0.00000000D+00 0.00000000D+00
  <mgrwgt>
 0.2017127060D+00    5    2    0
 0.153695297229279D+03 0.000000000000000D+00 0.000000000000000D+00 0.153695297229279D+03
 0.153695297229279D+03 0.000000000000000D+00 0.000000000000000D+00 -.153695297229279D+03
 0.165585297749424D+03 0.199573181795203D+02 -.102546221204686D+03 -.296558391971386D+02
 0.141805296709134D+03 -.199573181795203D+02 0.102546221204686D+03 0.296558391971386D+02
 0.000000000000000D+00 0.000000000000000D+00 -.000000000000000D+00 -.000000000000000D+00
 0.218711621834881D+03 0.000000000000000D+00 0.000000000000000D+00 0.218711621834881D+03
 0.531400159348351D+03 0.000000000000000D+00 0.000000000000000D+00 -.531400159348351D+03
 0.139639328304753D+03 -.439215577985545D+02 -.326430692715041D+02 -.296558391971386D+02
 0.233226792699760D+03 -.984458354294250D+02 0.188436817467110D+03 0.296558391971386D+02
 0.377245660178720D+03 0.142367393227979D+03 -.155793748195605D+03 -.312688537513469D+03
0.383222999154D-03 0.000000000000D+00 0.000000000000D+00 0.128130533112D-02 0.000000000000D+00  5 2 -2 25 23 21 0 0.36783860D+00 0.15199775D-02 0.22737273D+05 0.22737273D+05 0.22737273D+05 0.12277398D+01  1  2  2  2  5  2       -2 0.203760448898D+00 0.100000000000D+01
-.212807315183D-04 0.000000000000D+00 -.147167722168D-05 0.128130533112D-02 0.000000000000D+00  5 2 -2 25 23 21 2 0.36783860D+00 0.15199775D-02 0.22737273D+05 0.22737273D+05 0.22737273D+05 0.12277398D+01  1  2  3  2  5  2       -2 -.170556207287D-01 0.100000000000D+01
0.264407639176D-04 0.000000000000D+00 0.000000000000D+00 0.128130533112D-02 0.000000000000D+00  5 2 -2 25 23 21 2 0.36783860D+00 0.15199775D-02 0.22737273D+05 0.22737273D+05 0.22737273D+05 0.12277398D+01  1  2 15  2  5  2       -2 0.211911719655D-01 0.100000000000D+01
0.728525641063D-05 0.000000000000D+00 -.155882654146D-03 0.128130533112D-02 0.000000000000D+00  5 2 -2 25 23 21 2 0.36783860D+00 0.86660677D-02 0.22737273D+05 0.22737273D+05 0.22737273D+05 0.12277398D+01  1  2  5  2  5  2       -2 0.436544133858D-03 0.100000000000D+01
-.684546410381D-05 0.000000000000D+00 -.332373282827D-04 0.128130533112D-02 0.000000000000D+00  5 2 21 25 23 2 2 0.36783860D+00 0.86660677D-02 0.22737273D+05 0.22737273D+05 0.22737273D+05 0.12277398D+01  1  2  5  4  5  2       -2 -.661983829032D-02 0.100000000000D+01
  </mgrwgt>
  </event>
  <event>
  4     66 0.45228882E-03 0.27198764E+03 0.75467711E-02 0.10445912E+00
        2 -1    0    0  501    0 0.00000000E+00 0.00000000E+00 0.10736123E+04 0.10736124E+04 0.32000000E+00 0.0000E+00 0.9000E+01
       -2 -1    0    0    0  501 0.00000000E+00 0.00000000E+00 -.78096452E+02 0.78097107E+02 0.32000000E+00 0.0000E+00 0.9000E+01
       25  1    1    2    0    0 0.23347110E+03 0.86853557E+02 0.31110089E+03 0.41768536E+03 0.12500000E+03 0.0000E+00 0.9000E+01
       23  1    1    2    0    0 -.23347110E+03 -.86853557E+02 0.68441499E+03 0.73402413E+03 0.91188000E+02 0.0000E+00 0.9000E+01
#aMCatNLO 1  0  0  1  2 0.21457631D+03 0.00000000D+00  -5  5  0 0.00000000D+00 0.00000000D+00 0.00000000D+00 0.00000000D+00 0.00000000D+00
  <mgrwgt>
 0.1808315200D+00    3    2    0
 0.289561252463945D+03 0.000000000000000D+00 0.000000000000000D+00 0.289561252463945D+03
 0.289561252463945D+03 0.000000000000000D+00 0.000000000000000D+00 -.289561252463945D+03
 0.295872308064271D+03 0.233471098222763D+03 0.868535574384412D+02 -.993132847821631D+02
 0.283250196863619D+03 -.233471098222763D+03 -.868535574384412D+02 0.993132847821631D+02
 0.000000000000000D+00 -.000000000000000D+00 -.000000000000000D+00 -.000000000000000D+00
 0.394891061826140D+03 0.000000000000000D+00 0.000000000000000D+00 0.394891061826140D+03
 0.442500307654961D+03 0.000000000000000D+00 0.000000000000000D+00 -.442500307654961D+03
 0.403524974908955D+03 0.358721129298409D+03 0.930775388368417D+02 -.993132847821631D+02
 0.214071873353249D+03 -.144409264175501D+03 -.824278563535225D+02 0.993132847821631D+02
 0.219794521218897D+03 -.214311865122908D+03 -.106496824833192D+02 -.476092458288212D+02
0.151790484328D-02 0.000000000000D+00 0.000000000000D+00 0.901849778649D-03 0.000000000000D+00  5 2 -2 25 23 21 0 0.16517118D+00 0.12014893D-01 0.73977277D+05 0.73977277D+05 0.73977277D+05 0.11757916D+01  1  2  2  1  5  1        2 0.177596317546D+00 0.100000000000D+01
-.839261227322D-04 0.000000000000D+00 -.582915427172D-05 0.901849778649D-03 0.000000000000D+00  5 2 -2 25 23 21 2 0.16517118D+00 0.12014893D-01 0.73977277D+05 0.73977277D+05 0.73977277D+05 0.11757916D+01  1  2  3  1  5  1        2 -.135752331970D-01 0.100000000000D+01
0.103927105167D-03 0.000000000000D+00 0.000000000000D+00 0.901849778649D-03 0.000000000000D+00  5 2 -2 25 23 21 2 0.16517118D+00 0.12014893D-01 0.73977277D+05 0.73977277D+05 0.73977277D+05 0.11757916D+01  1  2 15  1  5  1        2 0.168104356808D-01 0.100000000000D+01
  </mgrwgt>
  </event>
  <event>
  4     66 0.45228882E-03 0.11223977E+03 0.75467711E-02 0.11775400E+00
        2 -1    0    0  501    0 0.00000000E+00 0.00000000E+00 0.30719922E+04 0.30719922E+04 0.32000000E+00 0.0000E+00 0.9000E+01
       -2 -1    0    0    0  501 0.00000000E+00 0.00000000E+00 -.44488121E+01 0.44603060E+01 0.32000000E+00 0.0000E+00 0.9000E+01
       25  1    1    2    0    0 0.13229730E+02 -.26789968E+02 0.13093485E+04 0.13156410E+04 0.12500000E+03 0.0000E+00 0.9000E+01
       23  1    1    2    0    0 -.13229730E+02 0.26789968E+02 0.17581949E+04 0.17608115E+04 0.91188000E+02 0.0000E+00 0.9000E+01
#aMCatNLO 1  0  0  2  2 0.96273400D+02 0.00000000D+00  -5  5  0 0.00000000D+00 0.00000000D+00 0.00000000D+00 0.00000000D+00 0.00000000D+00
  <mgrwgt>
 0.2420618722D+00    3    2    0
 0.116980433925282D+03 0.000000000000000D+00 0.000000000000000D+00 0.116980433925282D+03
 0.116980433925282D+03 0.000000000000000D+00 0.000000000000000D+00 -.116980433925282D+03
 0.132602167429598D+03 0.132297302203622D+02 -.267899678145217D+02 -.326436313822548D+02
 0.101358700420966D+03 -.132297302203622D+02 0.267899678145217D+02 0.326436313822548D+02
 0.000000000000000D+00 -.000000000000000D+00 -.000000000000000D+00 0.000000000000000D+00
 0.206487027072172D+03 0.000000000000000D+00 0.000000000000000D+00 0.206487027072172D+03
 0.155465276910492D+03 0.000000000000000D+00 0.000000000000000D+00 -.155465276910492D+03
 0.139998292240529D+03 0.530950381751442D+02 0.947797877313547D+01 -.326436313822548D+02
 0.112996283341671D+03 0.181177130292951D+02 0.553086838552394D+02 0.326436313822548D+02
 0.108957728400463D+03 -.712127512044393D+02 -.647866626283748D+02 0.510217501616802D+02
0.339860584479D-03 0.000000000000D+00 0.000000000000D+00 0.162713514845D-02 0.000000000000D+00  5 2 -2 25 23 21 0 0.47261507D+00 0.68531806D-03 0.12597765D+05 0.12597765D+05 0.12597765D+05 0.12565573D+01  1  2  2  2  5  2       -2 0.236919763378D+00 0.100000000000D+01
-.188418549407D-04 0.000000000000D+00 -.130515413175D-05 0.162713514845D-02 0.000000000000D+00  5 2 -2 25 23 21 2 0.47261507D+00 0.68531806D-03 0.12597765D+05 0.12597765D+05 0.12597765D+05 0.12565573D+01  1  2  3  2  5  2       -2 -.207390436864D-01 0.100000000000D+01
0.235135683263D-04 0.000000000000D+00 0.000000000000D+00 0.162713514845D-02 0.000000000000D+00  5 2 -2 25 23 21 2 0.47261507D+00 0.68531806D-03 0.12597765D+05 0.12597765D+05 0.12597765D+05 0.12565573D+01  1  2 15  2  5  2       -2 0.258811524808D-01 0.100000000000D+01
  </mgrwgt>
  </event>
  <event>
  4     66 0.45228882E-03 0.12569501E+03 0.75467711E-02 0.10796838E+00
        2 -1    0    0  501    0 0.00000000E+00 0.00000000E+00 0.45888792E+03 0.45888803E+03 0.32000000E+00 0.0000E+00 0.9000E+01
       -2 -1    0    0    0  501 0.00000000E+00 0.00000000E+00 -.38133472E+02 0.38134814E+02 0.32000000E+00 0.0000E+00 0.9000E+01
       25  1    1    2    0    0 -.54948667E+02 -.31955061E+02 0.30933694E+03 0.33963926E+03 0.12500000E+03 0.0000E+00 0.9000E+01
       23  1    1    2    0    0 0.54948667E+02 0.31955061E+02 0.11141751E+03 0.15738359E+03 0.91188000E+02 0.0000E+00 0.9000E+01
#aMCatNLO 1  0  0  2  2 0.26167640D+03 0.00000000D+00  -5  5  0 0.00000000D+00 0.00000000D+00 0.00000000D+00 0.00000000D+00 0.00000000D+00
  <mgrwgt>
 0.1943380508D+00    5    2    0
 0.132285112604269D+03 0.000000000000000D+00 0.000000000000000D+00 0.132285112604269D+03
 0.132285112604269D+03 0.000000000000000D+00 0.000000000000000D+00 -.132285112604269D+03
 0.146099495251141D+03 -.549486668918988D+02 -.319550605271003D+02 0.409826869074100D+02
 0.118470729957396D+03 0.549486668918988D+02 0.319550605271003D+02 -.409826869074100D+02
 0.000000000000000D+00 0.000000000000000D+00 0.000000000000000D+00 -.000000000000000D+00
 0.297867654163983D+03 0.000000000000000D+00 0.000000000000000D+00 0.297867654163983D+03
 0.339165747777680D+03 0.000000000000000D+00 0.000000000000000D+00 -.339165747777680D+03
 0.260244246530223D+03 -.139427734796214D+03 -.176018163822741D+03 0.409826869074100D+02
 0.111873938540672D+03 0.705989467619328D+01 -.497102005790799D+02 -.409826869074100D+02
 0.264915216870768D+03 0.132367840120020D+03 0.225728364401821D+03 -.412980936136967D+02
0.158874869501D-03 0.000000000000D+00 0.000000000000D+00 0.139029589062D-02 0.000000000000D+00  5 2 -2 25 23 21 0 0.70598254D-01 0.58667998D-02 0.15799235D+05 0.15799235D+05 0.15799235D+05 0.12452606D+01  1  2  2  2  5  2       -2 0.157852635838D+00 0.100000000000D+01
-.879835794402D-05 0.000000000000D+00 -.610121331597D-06 0.139029589062D-02 0.000000000000D+00  5 2 -2 25 23 21 2 0.70598254D-01 0.58667998D-02 0.15799235D+05 0.15799235D+05 0.15799235D+05 0.12452606D+01  1  2  3  2  5  2       -2 -.135555995002D-01 0.100000000000D+01
0.109803970468D-04 0.000000000000D+00 0.000000000000D+00 0.139029589062D-02 0.000000000000D+00  5 2 -2 25 23 21 2 0.70598254D-01 0.58667998D-02 0.15799235D+05 0.15799235D+05 0.15799235D+05 0.12452606D+01  1  2 15  2  5  2       -2 0.169174595609D-01 0.100000000000D+01
0.110777074360D-03 0.000000000000D+00 -.645460120442D-04 0.139029589062D-02 0.000000000000D+00  5 2 -2 25 23 21 2 0.70598254D-01 0.33593642D-01 0.15799235D+05 0.15799235D+05 0.15799235D+05 0.12452606D+01  1  2  5  2  5  2       -2 0.981916368691D-02 0.100000000000D+01
0.201478899194D-04 0.000000000000D+00 -.137976241019D-04 0.139029589062D-02 0.000000000000D+00  5 2 21 25 23 2 2 0.70598254D-01 0.33593642D-01 0.15799235D+05 0.15799235D+05 0.15799235D+05 0.12452606D+01  1  2  5  4  5  2       -2 0.233043911941D-01 0.100000000000D+01
  </mgrwgt>
  </event>
  <event>
  4     66 0.45228882E-03 0.14853110E+03 0.75467711E-02 0.11368445E+00
        2 -1    0    0  501    0 0.00000000E+00 0.00000000E+00 0.16552717E+04 0.16552717E+04 0.32000000E+00 0.0000E+00 0.9000E+01
       -2 -1    0    0    0  501 0.00000000E+00 0.00000000E+00 -.24584801E+02 0.24586884E+02 0.32000000E+00 0.0000E+00 0.9000E+01
       25  1    1    2    0    0 0.62512320E+02 0.13411363E+03 0.11981575E+04 0.12137136E+04 0.12500000E+03 0.0000E+00 0.9000E+01
       23  1    1    2    0    0 -.62512320E+02 -.13411363E+03 0.43252932E+03 0.46614496E+03 0.91188000E+02 0.0000E+00 0.9000E+01
#aMCatNLO 1  0  0  2  1 0.60119345D+02 0.00000000D+00  -5  5  0 0.00000000D+00 0.00000000D+00 0.00000000D+00 0.00000000D+00 0.00000000D+00
  <mgrwgt>
 0.1907401135D+00    9    2    0
 0.201733238551290D+03 0.000000000000000D+00 0.000000000000000D+00 0.201733238551290D+03
 0.201733238551290D+03 0.000000000000000D+00 0.000000000000000D+00 -.201733238551290D+03
 0.210791920090948D+03 0.625123195581130D+02 0.134113634998614D+03 0.831503240315490D+02
 0.192674557011632D+03 -.625123195581130D+02 -.134113634998614D+03 -.831503240315490D+02
 0.000000000000000D+00 -.000000000000000D+00 -.000000000000000D+00 -.000000000000000D+00
 0.226286419545728D+03 0.000000000000000D+00 0.000000000000000D+00 0.226286419545728D+03
 0.244432901899814D+03 0.000000000000000D+00 0.000000000000000D+00 -.244432901899814D+03
 0.224420436895539D+03 0.945915461293326D+02 0.137397217987467D+03 0.831503240315490D+02
 0.183500552757655D+03 -.347846910038598D+02 -.131275475255583D+03 -.831503240315490D+02
 0.627983317923479D+02 -.598068551254728D+02 -.612174273188357D+01 -.181464823540857D+02
0.443665877453D-03 0.000000000000D+00 0.000000000000D+00 0.960848244696D-03 0.000000000000D+00  5 2 -2 25 23 21 0 0.25465734D+00 0.37824397D-02 0.33765479D+05 0.33765479D+05 0.33765479D+05 0.12095455D+01  1  2  2  2  5  2       -2 0.149370484285D+00 0.100000000000D+01
-.243869571225D-04 0.000000000000D+00 -.170379378933D-05 0.960848244696D-03 0.000000000000D+00  5 2 -2 25 23 21 2 0.25465734D+00 0.37824397D-02 0.33765479D+05 0.33765479D+05 0.33765479D+05 0.12095455D+01  1  2  3  2  5  2       -2 -.120118750551D-01 0.100000000000D+01
0.304605242299D-04 0.000000000000D+00 0.000000000000D+00 0.960848244696D-03 0.000000000000D+00  5 2 -2 25 23 21 2 0.25465734D+00 0.37824397D-02 0.33765479D+05 0.33765479D+05 0.33765479D+05 0.12095455D+01  1  2 15  2  5  2       -2 0.150034302895D-01 0.100000000000D+01
0.261640404075D-03 0.000000000000D+00 0.000000000000D+00 0.960848244696D-03 0.000000000000D+00  5 2 -2 25 23 21 2 0.25465734D+00 0.47738101D-02 0.46687865D+05 0.46687865D+05 0.46687865D+05 0.11952410D+01  1  2 12  2  5  2       -2 0.886877359509D-01 0.100000000000D+01
-.269655805997D-03 0.000000000000D+00 0.000000000000D+00 0.960848244696D-03 0.000000000000D+00  5 2 -2 25 23 21 2 0.25465734D+00 0.37824397D-02 0.33765479D+05 0.33765479D+05 0.33765479D+05 0.12095455D+01  1  2  4  2  5  2       -2 -.132819844363D+00 0.100000000000D+01
-.518629442050D-03 0.000000000000D+00 -.193770373261D-03 0.960848244696D-03 0.000000000000D+00  5 2 -2 25 23 21 2 0.25465734D+00 0.52120547D-02 0.33765479D+05 0.33765479D+05 0.33765479D+05 0.12095455D+01  1  2  5  2  5  2       -2 -.157706930027D+00 0.100000000000D+01
0.561211690767D-03 0.000000000000D+00 0.184221177761D-03 0.960848244696D-03 0.000000000000D+00  5 2 -2 25 23 21 2 0.25465734D+00 0.37824397D-02 0.33765479D+05 0.33765479D+05 0.33765479D+05 0.12095455D+01  1  2  6  2  5  2       -2 0.276426643762D+00 0.100000000000D+01
0.839801185013D-05 0.000000000000D+00 0.000000000000D+00 0.960848244696D-03 0.000000000000D+00  5 2 21 25 23 2 2 0.25465734D+00 0.47738101D-02 0.46687865D+05 0.46687865D+05 0.46687865D+05 0.11952410D+01  1  2 12  4  5  2       -2 0.505149778205D-01 0.100000000000D+01
-.162215036858D-04 0.000000000000D+00 -.785787260506D-05 0.960848244696D-03 0.000000000000D+00  5 2 21 25 23 2 2 0.25465734D+00 0.52120547D-02 0.33765479D+05 0.33765479D+05 0.33765479D+05 0.12095455D+01  1  2  5  4  5  2       -2 -.867245091215D-01 0.100000000000D+01
  </mgrwgt>
  </event>
  <event>
  4     66 0.45228882E-03 0.59557371E+02 0.75467711E-02 0.12225628E+00
        2 -1    0    0  501    0 0.00000000E+00 0.00000000E+00 0.73555312E+02 0.73556009E+02 0.32000000E+00 0.0000E+00 0.9000E+01
       -2 -1    0    0    0  501 0.00000000E+00 0.00000000E+00 -.20755475E+03 0.20755500E+03 0.32000000E+00 0.0000E+00 0.9000E+01
       25  1    1    2    0    0 0.17366623E+02 0.28997565E+02 -.13043434E+03 0.18379493E+03 0.12500000E+03 0.0000E+00 0.9000E+01
       23  1    1    2    0    0 -.17366623E+02 -.28997565E+02 -.35651004E+01 0.97316081E+02 0.91188000E+02 0.0000E+00 0.9000E+01
#aMCatNLO 1  0  0  1  2 0.36888108D+02 0.00000000D+00  -5  5  0 0.00000000D+00 0.00000000D+00 0.00000000D+00 0.00000000D+00 0.00000000D+00
  <mgrwgt>
 0.1477628883D+00    9    2    0
 0.123559246346327D+03 0.000000000000000D+00 0.000000000000000D+00 0.123559246346327D+03
 0.123559246346327D+03 0.000000000000000D+00 0.000000000000000D+00 -.123559246346327D+03
 0.138349213249151D+03 0.173666227494246D+02 0.289975649132380D+02 -.487139246010899D+02
 0.108769279443504D+03 -.173666227494246D+02 -.289975649132380D+02 0.487139246010899D+02
 0.000000000000000D+00 0.000000000000000D+00 -.000000000000000D+00 0.000000000000000D+00
 0.154712589136472D+03 0.000000000000000D+00 0.000000000000000D+00 0.154712589136472D+03
 0.136349809080527D+03 0.000000000000000D+00 0.000000000000000D+00 -.136349809080527D+03
 0.137732433809524D+03 -.302430290782844D+01 0.310327321545502D+02 -.487139246010899D+02
 0.112124088857310D+03 -.336814350492977D+02 -.273692243416050D+02 0.487139246010899D+02
 0.412058755501652D+02 0.367057379571261D+02 -.366350781294521D+01 0.183627800559441D+02
0.224454803320D-03 0.000000000000D+00 0.000000000000D+00 0.142583287273D-02 0.000000000000D+00  5 2 -2 25 23 21 0 0.11316274D-01 0.31931573D-01 0.12852754D+05 0.12852754D+05 0.12852754D+05 0.12555448D+01  1  2  2  1  5  1        2 0.105690342148D+00 0.100000000000D+01
-.123574108286D-04 0.000000000000D+00 -.861965545057D-06 0.142583287273D-02 0.000000000000D+00  5 2 -2 25 23 21 2 0.11316274D-01 0.31931573D-01 0.12852754D+05 0.12852754D+05 0.12852754D+05 0.12555448D+01  1  2  3  1  5  1        2 -.917272329622D-02 0.100000000000D+01
0.153446184841D-04 0.000000000000D+00 0.000000000000D+00 0.142583287273D-02 0.000000000000D+00  5 2 -2 25 23 21 2 0.11316274D-01 0.31931573D-01 0.12852754D+05 0.12852754D+05 0.12852754D+05 0.12555448D+01  1  2 15  1  5  1        2 0.113900833591D-01 0.100000000000D+01
0.229507757245D-03 0.000000000000D+00 0.000000000000D+00 0.142583287273D-02 0.000000000000D+00  5 2 -2 25 23 21 2 0.14641062D-01 0.31931573D-01 0.17783166D+05 0.17783166D+05 0.17783166D+05 0.12394829D+01  1  2 12  1  5  1        2 0.123558762535D+00 0.100000000000D+01
-.246520780183D-03 0.000000000000D+00 0.000000000000D+00 0.142583287273D-02 0.000000000000D+00  5 2 -2 25 23 21 2 0.11316274D-01 0.31931573D-01 0.12852754D+05 0.12852754D+05 0.12852754D+05 0.12555448D+01  1  2  4  1  5  1        2 -.182988729172D+00 0.100000000000D+01
-.424299249805D-03 0.000000000000D+00 -.140948751769D-03 0.142583287273D-02 0.000000000000D+00  5 2 -2 25 23 21 2 0.15571611D-01 0.31931573D-01 0.12852754D+05 0.12852754D+05 0.12852754D+05 0.12555448D+01  1  2  5  1  5  1        2 -.215998962686D+00 0.100000000000D+01
0.452908497704D-03 0.000000000000D+00 0.134060609978D-03 0.142583287273D-02 0.000000000000D+00  5 2 -2 25 23 21 2 0.11316274D-01 0.31931573D-01 0.12852754D+05 0.12852754D+05 0.12852754D+05 0.12555448D+01  1  2  6  1  5  1        2 0.336187279485D+00 0.100000000000D+01
0.794013501283D-05 0.000000000000D+00 0.000000000000D+00 0.142583287273D-02 0.000000000000D+00  5 21 -2 25 23 -2 2 0.14641062D-01 0.31931573D-01 0.17783166D+05 0.17783166D+05 0.17783166D+05 0.12394829D+01  1  2 12  3  5  1        2 0.363750347974D-01 0.100000000000D+01
-.136764459336D-04 0.000000000000D+00 -.569786396302D-05 0.142583287273D-02 0.000000000000D+00  5 21 -2 25 23 -2 2 0.15571611D-01 0.31931573D-01 0.12852754D+05 0.12852754D+05 0.12852754D+05 0.12555448D+01  1  2  5  3  5  1        2 -.572781988519D-01 0.100000000000D+01
  </mgrwgt>
  </event>
  <event>
  4     66 0.45228882E-03 0.83065722E+02 0.75467711E-02 0.12365403E+00
        2 -1    0    0  501    0 0.00000000E+00 0.00000000E+00 0.28567116E+04 0.28567116E+04 0.32000000E+00 0.0000E+00 0.9000E+01
       -2 -1    0    0    0  501 0.00000000E+00 0.00000000E+00 -.45296572E+01 0.45409464E+01 0.32000000E+00 0.0000E+00 0.9000E+01
       25  1    1    2    0    0 -.31834779E+02 -.10676395E+01 0.18174949E+04 0.18220668E+04 0.12500000E+03 0.0000E+00 0.9000E+01
       23  1    1    2    0    0 0.31834779E+02 0.10676395E+01 0.10346870E+04 0.10391858E+04 0.91188000E+02 0.0000E+00 0.9000E+01
#aMCatNLO 1  0  0  2  1 0.21523709D+02 0.00000000D+00  -5  5  0 0.00000000D+00 0.00000000D+00 0.00000000D+00 0.00000000D+00 0.00000000D+00
  <mgrwgt>
 0.3033412856D+00    6    2    0
 0.113824868245489D+03 0.000000000000000D+00 0.000000000000000D+00 0.113824868245489D+03
 0.113824868245489D+03 0.000000000000000D+00 0.000000000000000D+00 -.113824868245489D+03
 0.129879682910934D+03 -.318347790280704D+02 -.106763948531159D+01 0.151373387095613D+02
 0.977700535800439D+02 0.318347790280704D+02 0.106763948531159D+01 -.151373387095613D+02
 0.000000000000000D+00 0.000000000000000D+00 -.000000000000000D+00 0.000000000000000D+00
 0.125955336520882D+03 0.000000000000000D+00 0.000000000000000D+00 0.125955336520882D+03
 0.124297132012304D+03 0.000000000000000D+00 0.000000000000000D+00 -.124297132012304D+03
 0.131737157100605D+03 -.374440329154075D+02 0.992390733388277D+01 0.151373387095613D+02
 0.969278218304526D+02 0.276603160445162D+02 0.924765883375167D+01 -.151373387095613D+02
 0.215874896021288D+02 0.978371687089134D+01 -.191715661676344D+02 0.165820450857807D+01
0.227427066745D-03 0.000000000000D+00 0.000000000000D+00 0.176593443171D-02 0.000000000000D+00  5 2 -2 25 23 21 0 0.43949496D+00 0.69774012D-03 0.12722223D+05 0.12722223D+05 0.12722223D+05 0.12560602D+01  1  2  2  2  5  2       -2 0.205094258865D+00 0.100000000000D+01
-.126335626038D-04 0.000000000000D+00 -.873379819225D-06 0.176593443171D-02 0.000000000000D+00  5 2 -2 25 23 21 2 0.43949496D+00 0.69774012D-03 0.12722223D+05 0.12722223D+05 0.12722223D+05 0.12560602D+01  1  2  3  2  5  2       -2 -.179745539174D-01 0.100000000000D+01
0.157651973698D-04 0.000000000000D+00 0.000000000000D+00 0.176593443171D-02 0.000000000000D+00  5 2 -2 25 23 21 2 0.43949496D+00 0.69774012D-03 0.12722223D+05 0.12722223D+05 0.12722223D+05 0.12560602D+01  1  2 15  2  5  2       -2 0.224301251382D-01 0.100000000000D+01
0.141234205791D-03 0.000000000000D+00 0.000000000000D+00 0.176593443171D-02 0.000000000000D+00  5 2 -2 25 23 21 2 0.43949496D+00 0.79563949D-03 0.15391729D+05 0.15391729D+05 0.15391729D+05 0.12465482D+01  1  2 12  2  5  2       -2 0.164475707606D+00 0.100000000000D+01
-.106895843341D-03 0.000000000000D+00 0.000000000000D+00 0.176593443171D-02 0.000000000000D+00  5 2 -2 25 23 21 2 0.43949496D+00 0.69774012D-03 0.12722223D+05 0.12722223D+05 0.12722223D+05 0.12560602D+01  1  2  4  2  5  2       -2 -.152087353342D+00 0.100000000000D+01
0.288879038688D-05 0.000000000000D+00 0.000000000000D+00 0.176593443171D-02 0.000000000000D+00  5 2 21 25 23 2 2 0.43949496D+00 0.79563949D-03 0.15391729D+05 0.15391729D+05 0.15391729D+05 0.12465482D+01  1  2 12  4  5  2       -2 0.814031012859D-01 0.100000000000D+01
  </mgrwgt>
  </event>
  <event>
  4     66 0.45228882E-03 0.13879759E+03 0.75467711E-02 0.11961184E+00
        4 -1    0    0  501    0 0.00000000E+00 0.00000000E+00 0.10167886E+03 0.10169067E+03 0.15500000E+01 0.0000E+00 0.9000E+01
       -4 -1    0    0    0  501 0.00000000E+00 0.00000000E+00 -.20737773E+03 0.20738352E+03 0.15500000E+01 0.0000E+00 0.9000E+01
       25  1    1    2    0    0 0.25119570E+02 0.82686170E+02 -.10268905E+03 0.18340675E+03 0.12500000E+03 0.0000E+00 0.9000E+01
       23  1    1    2    0    0 -.25119570E+02 -.82686170E+02 -.30098166E+01 0.12566744E+03 0.91188000E+02 0.0000E+00 0.9000E+01
#aMCatNLO 1  0  0  1  2 0.28102581D+02 0.00000000D+00  -5  5  0 0.00000000D+00 0.00000000D+00 0.00000000D+00 0.00000000D+00 0.00000000D+00
  <mgrwgt>
 0.1739271338D-01    4    2    0
 0.145219322815059D+03 0.000000000000000D+00 0.000000000000000D+00 0.145219322815059D+03
 0.145219322815059D+03 0.000000000000000D+00 0.000000000000000D+00 -.145219322815059D+03
 0.157803303573097D+03 0.251195699471758D+02 0.826861700642740D+02 -.425310134414147D+02
 0.132635342057021D+03 -.251195699471758D+02 -.826861700642740D+02 0.425310134414147D+02
 0.000000000000000D+00 -.000000000000000D+00 0.000000000000000D+00 -.000000000000000D+00
 0.151472335386048D+03 0.000000000000000D+00 0.000000000000000D+00 0.151472335386048D+03
 0.181313823411164D+03 0.000000000000000D+00 0.000000000000000D+00 -.181313823411164D+03
 0.152030949039856D+03 0.307170267630546D+02 0.688185049855280D+02 -.425310134414147D+02
 0.139764119386130D+03 -.201984090063246D+02 -.948783162426480D+02 0.425310134414147D+02
 0.409910903712266D+02 -.105186177567300D+02 0.260598112571200D+02 -.298414880251162D+02
0.441991428985D-03 0.000000000000D+00 0.000000000000D+00 0.128530752768D-02 0.000000000000D+00  5 4 -4 25 23 21 0 0.15644256D-01 0.31905620D-01 0.19264772D+05 0.19264772D+05 0.19264772D+05 0.12356208D+01  1  2  2  1  5  1        4 0.243455924623D-01 0.100000000000D+01
-.244940068057D-04 0.000000000000D+00 -.169736346632D-05 0.128530752768D-02 0.000000000000D+00  5 4 -4 25 23 21 2 0.15644256D-01 0.31905620D-01 0.19264772D+05 0.19264772D+05 0.19264772D+05 0.12356208D+01  1  2  3  1  5  1        4 -.205985560263D-02 0.100000000000D+01
0.304147824646D-04 0.000000000000D+00 0.000000000000D+00 0.128530752768D-02 0.000000000000D+00  5 4 -4 25 23 21 2 0.15644256D-01 0.31905620D-01 0.19264772D+05 0.19264772D+05 0.19264772D+05 0.12356208D+01  1  2 15  1  5  1        4 0.255777099106D-02 0.100000000000D+01
-.885983513813D-04 0.000000000000D+00 0.000000000000D+00 0.128530752768D-02 0.000000000000D+00  5 4 -4 25 23 21 2 0.15644256D-01 0.31905620D-01 0.19264772D+05 0.19264772D+05 0.19264772D+05 0.12356208D+01  1  2  4  1  5  1        4 -.745079447086D-02 0.100000000000D+01
  </mgrwgt>
  </event>
  <event>
  5     66 0.45228882E-03 0.10877285E+03 0.75467711E-02 0.11951657E+00
        2 -1    0    0  502    0 0.00000000E+00 0.00000000E+00 0.32821600E+03 0.32821616E+03 0.32000000E+00 0.0000E+00 0.9000E+01
       -2 -1    0    0    0  501 0.00000000E+00 0.00000000E+00 -.83046720E+02 0.83047337E+02 0.32000000E+00 0.0000E+00 0.9000E+01
       25  1    1    2    0    0 -.33616875E+02 0.45329976E+02 0.14983195E+03 0.20312438E+03 0.12500000E+03 0.0000E+00 0.9000E+01
       23  1    1    2    0    0 -.10004019E+02 0.19240476E+02 0.12756996E+02 0.94595289E+02 0.91188000E+02 0.0000E+00 0.9000E+01
       21  1    1    2  502  501 0.43620894E+02 -.64570452E+02 0.82580335E+02 0.11354382E+03 0.75000000E+00 0.0000E+00 0.9000E+01
#aMCatNLO 2  0  0  1  2 0.77923846D+02 0.00000000D+00  -5  5  0 0.00000000D+00 0.00000000D+00 0.00000000D+00 0.00000000D+00 0.00000000D+00
  <mgrwgt>
 0.3614809460D-01    2    2    0
 0.118458548250407D+03 0.000000000000000D+00 0.000000000000000D+00 0.118458548250407D+03
 0.118458548250407D+03 0.000000000000000D+00 0.000000000000000D+00 -.118458548250407D+03
 0.133885355272700D+03 -.862011264096552D+01 0.832816132747598D+01 0.464394632124200D+02
 0.103031741228114D+03 0.862011264096552D+01 -.832816132747598D+01 -.464394632124200D+02
 0.000000000000000D+00 0.000000000000000D+00 -.000000000000000D+00 0.000000000000000D+00
 0.177831274995428D+03 0.000000000000000D+00 0.000000000000000D+00 0.177831274995428D+03
 0.153273610337484D+03 0.000000000000000D+00 0.000000000000000D+00 -.153273610337484D+03
 0.144798220779842D+03 -.336168748487012D+02 0.453299759867238D+02 0.464394632124200D+02
 0.104604739019719D+03 -.100040194156281D+02 0.192404764353048D+02 -.464394632124200D+02
 0.817019255333512D+02 0.436208942643293D+02 -.645704524220286D+02 0.245576646579437D+02
-.122961133159D-04 0.000000000000D+00 0.000000000000D+00 0.150554834291D-02 0.000000000000D+00  5 2 -2 25 23 21 2 0.53432981D-01 0.98742825D-02 0.23840006D+05 0.23840006D+05 0.23840006D+05 0.12255160D+01  1  2 13  1  5  1        2 -.112354199341D-01 0.100000000000D+01
0.735857640923D-04 0.000000000000D+00 0.000000000000D+00 0.150554834291D-02 0.225772647510D-05  5 2 -2 25 23 21 2 0.50494292D-01 0.12776342D-01 0.23840006D+05 0.23840006D+05 0.23840006D+05 0.12255160D+01  1  2  1  1  5  1        2 0.473835145302D-01 0.100000000000D+01
  </mgrwgt>
  </event>
  <event>
  4     66 0.45228882E-03 0.13254779E+03 0.75467711E-02 0.11648146E+00
        2 -1    0    0  501    0 0.00000000E+00 0.00000000E+00 0.83486732E+03 0.83486738E+03 0.32000000E+00 0.0000E+00 0.9000E+01
       -2 -1    0    0    0  501 0.00000000E+00 0.00000000E+00 -.25136941E+02 0.25138978E+02 0.32000000E+00 0.0000E+00 0.9000E+01
       25  1    1    2    0    0 -.75962893E+02 0.43025920E+01 0.61286462E+03 0.63009279E+03 0.12500000E+03 0.0000E+00 0.9000E+01
       23  1    1    2    0    0 0.75962893E+02 -.43025920E+01 0.19686576E+03 0.22991357E+03 0.91188000E+02 0.0000E+00 0.9000E+01
#aMCatNLO 1  0  0  1  2 0.87041221D+02 0.00000000D+00  -5  5  0 0.00000000D+00 0.00000000D+00 0.00000000D+00 0.00000000D+00 0.00000000D+00
  <mgrwgt>
 0.1623593204D+00    7    2    0
 0.144868604521282D+03 0.000000000000000D+00 0.000000000000000D+00 0.144868604521282D+03
 0.144868604521282D+03 0.000000000000000D+00 0.000000000000000D+00 -.144868604521282D+03
 0.157483050349892D+03 -.759628932470536D+02 0.430259202986088D+01 0.581982619918152D+02
 0.132254158692673D+03 0.759628932470536D+02 -.430259202986088D+01 -.581982619918152D+02
 0.000000000000000D+00 -.000000000000000D+00 0.000000000000000D+00 0.000000000000000D+00
 0.198460045829654D+03 0.000000000000000D+00 0.000000000000000D+00 0.198460045829654D+03
 0.191396372190008D+03 0.000000000000000D+00 0.000000000000000D+00 -.191396372190008D+03
 0.145817375507172D+03 -.411746402977597D+02 -.235651924940502D+02 0.581982619918152D+02
 0.156711671837782D+03 0.109106982569677D+03 -.308532883476787D+02 -.581982619918152D+02
 0.873273706747087D+02 -.679323422719173D+02 0.544184808417289D+02 0.706367363964588D+01
0.156749940200D-03 0.000000000000D+00 0.000000000000D+00 0.120282209624D-02 0.000000000000D+00  5 2 -2 25 23 21 0 0.12844129D+00 0.38673831D-02 0.17568918D+05 0.17568918D+05 0.17568918D+05 0.12400711D+01  1  2  2  1  5  1        2 0.146186195308D+00 0.100000000000D+01
-.862468071739D-05 0.000000000000D+00 -.601961043574D-06 0.120282209624D-02 0.000000000000D+00  5 2 -2 25 23 21 2 0.12844129D+00 0.38673831D-02 0.17568918D+05 0.17568918D+05 0.17568918D+05 0.12400711D+01  1  2  3  1  5  1        2 -.123690163182D-01 0.100000000000D+01
0.108138370099D-04 0.000000000000D+00 0.000000000000D+00 0.120282209624D-02 0.000000000000D+00  5 2 -2 25 23 21 2 0.12844129D+00 0.38673831D-02 0.17568918D+05 0.17568918D+05 0.17568918D+05 0.12400711D+01  1  2 15  1  5  1        2 0.155085771659D-01 0.100000000000D+01
-.623401065755D-04 0.000000000000D+00 0.000000000000D+00 0.120282209624D-02 0.000000000000D+00  5 2 -2 25 23 21 2 0.12844129D+00 0.38673831D-02 0.17568918D+05 0.17568918D+05 0.17568918D+05 0.12400711D+01  1  2  4  1  5  1        2 -.894045612557D-01 0.100000000000D+01
-.911048178411D-04 0.000000000000D+00 -.641886694133D-04 0.120282209624D-02 0.000000000000D+00  5 2 -2 25 23 21 2 0.21314996D+00 0.38673831D-02 0.17568918D+05 0.17568918D+05 0.17568918D+05 0.12400711D+01  1  2  5  1  5  1        2 -.628476806345D-01 0.100000000000D+01
0.115870401829D-03 0.000000000000D+00 0.567514159818D-04 0.120282209624D-02 0.000000000000D+00  5 2 -2 25 23 21 2 0.12844129D+00 0.38673831D-02 0.17568918D+05 0.17568918D+05 0.17568918D+05 0.12400711D+01  1  2  6  1  5  1        2 0.166174602630D+00 0.100000000000D+01
-.225241876078D-05 0.000000000000D+00 -.365661241226D-05 0.120282209624D-02 0.000000000000D+00  5 21 -2 25 23 -2 2 0.21314996D+00 0.38673831D-02 0.17568918D+05 0.17568918D+05 0.17568918D+05 0.12400711D+01  1  2  5  3  5  1        2 -.888796534225D-03 0.100000000000D+01
  </mgrwgt>
  </event>
  <event>
  4     66 0.45228882E-03 0.75574776E+02 0.75467711E-02 0.12074435E+00
        2 -1    0    0  501    0 0.00000000E+00 0.00000000E+00 0.36716791E+04 0.36716791E+04 0.32000000E+00 0.0000E+00 0.9000E+01
       -2 -1    0    0    0  501 0.00000000E+00 0.00000000E+00 -.38278275E+01 0.38411799E+01 0.32000000E+00 0.0000E+00 0.9000E+01
       25  1    1    2    0    0 0.23073361E+02 0.40735146E+02 0.18794761E+04 0.18842100E+04 0.12500000E+03 0.0000E+00 0.9000E+01
       23  1    1    2    0    0 -.23073361E+02 -.40735146E+02 0.17883751E+04 0.17913103E+04 0.91188000E+02 0.0000E+00 0.9000E+01
#aMCatNLO 1  0  0  1  2 0.48092935D+02 0.00000000D+00  -5  5  0 0.00000000D+00 0.00000000D+00 0.00000000D+00 0.00000000D+00 0.00000000D+00
  <mgrwgt>
 0.2785774768D+00    9    2    0
 0.118655459779534D+03 0.000000000000000D+00 0.000000000000000D+00 0.118655459779534D+03
 0.118655459779534D+03 0.000000000000000D+00 0.000000000000000D+00 -.118655459779534D+03
 0.134056665652365D+03 0.230733613781600D+02 0.407351464049021D+02 -.124280910808513D+02
 0.103254253906703D+03 -.230733613781600D+02 -.407351464049021D+02 0.124280910808513D+02
 0.000000000000000D+00 0.000000000000000D+00 -.000000000000000D+00 0.000000000000000D+00
 0.188252145527830D+03 0.000000000000000D+00 0.000000000000000D+00 0.188252145527830D+03
 0.129674170148486D+03 0.000000000000000D+00 0.000000000000000D+00 -.129674170148486D+03
 0.135196663711389D+03 -.232088692990057D+01 0.499328941143523D+02 -.124280910808513D+02
 0.106938428525981D+03 -.428973880033677D+02 -.335549222347617D+02 0.124280910808513D+02
 0.757912234389460D+02 0.452182749332683D+02 -.163779718795906D+02 0.585779753793433D+02
0.530511435384D-03 0.000000000000D+00 0.000000000000D+00 0.168182793509D-02 0.000000000000D+00  5 2 -2 25 23 21 0 0.56487473D+00 0.58992472D-03 0.13921983D+05 0.13921983D+05 0.13921983D+05 0.12515320D+01  1  2  2  1  5  1        2 0.192837385485D+00 0.100000000000D+01
-.294717290085D-04 0.000000000000D+00 -.203730359874D-05 0.168182793509D-02 0.000000000000D+00  5 2 -2 25 23 21 2 0.56487473D+00 0.58992472D-03 0.13921983D+05 0.13921983D+05 0.13921983D+05 0.12515320D+01  1  2  3  1  5  1        2 -.167797714994D-01 0.100000000000D+01
0.367319477823D-04 0.000000000000D+00 0.000000000000D+00 0.168182793509D-02 0.000000000000D+00  5 2 -2 25 23 21 2 0.56487473D+00 0.58992472D-03 0.13921983D+05 0.13921983D+05 0.13921983D+05 0.12515320D+01  1  2 15  1  5  1        2 0.209133875497D-01 0.100000000000D+01
0.299029230126D-03 0.000000000000D+00 0.000000000000D+00 0.168182793509D-02 0.000000000000D+00  5 2 -2 25 23 21 2 0.90972490D+00 0.58992472D-03 0.20870273D+05 0.20870273D+05 0.20870273D+05 0.12317947D+01  1  2 12  1  5  1        2 0.276950929487D-03 0.100000000000D+01
-.361643455034D-03 0.000000000000D+00 0.000000000000D+00 0.168182793509D-02 0.000000000000D+00  5 2 -2 25 23 21 2 0.56487473D+00 0.58992472D-03 0.13921983D+05 0.13921983D+05 0.13921983D+05 0.12515320D+01  1  2  4  1  5  1        2 -.205902223720D+00 0.100000000000D+01
-.443024757228D-03 0.000000000000D+00 -.113699616580D-03 0.168182793509D-02 0.000000000000D+00  5 2 -2 25 23 21 2 0.89967240D+00 0.58992472D-03 0.13921983D+05 0.13921983D+05 0.13921983D+05 0.12515320D+01  1  2  5  1  5  1        2 -.664172587358D-03 0.100000000000D+01
0.505656019262D-03 0.000000000000D+00 0.114577716365D-03 0.168182793509D-02 0.000000000000D+00  5 2 -2 25 23 21 2 0.56487473D+00 0.58992472D-03 0.13921983D+05 0.13921983D+05 0.13921983D+05 0.12515320D+01  1  2  6  1  5  1        2 0.287895985270D+00 0.100000000000D+01
0.162368254489D-04 0.000000000000D+00 0.000000000000D+00 0.168182793509D-02 0.000000000000D+00  5 21 -2 25 23 -2 2 0.90972490D+00 0.58992472D-03 0.20870273D+05 0.20870273D+05 0.20870273D+05 0.12317947D+01  1  2 12  3  5  1        2 0.520935931512D-07 0.100000000000D+01
-.189057014324D-04 0.000000000000D+00 -.606234405201D-05 0.168182793509D-02 0.000000000000D+00  5 21 -2 25 23 -2 2 0.89967240D+00 0.58992472D-03 0.13921983D+05 0.13921983D+05 0.13921983D+05 0.12515320D+01  1  2  5  3  5  1        2 -.116696449265D-06 0.100000000000D+01
  </mgrwgt>
  </event>
  <event>
  5     66 0.45228882E-03 0.13423246E+03 0.75467711E-02 0.11958000E+00
        2 -1    0    0  502    0 0.00000000E+00 0.00000000E+00 0.60532400E+03 0.60532409E+03 0.32000000E+00 0.0000E+00 0.9000E+01
       -2 -1    0    0    0  501 0.00000000E+00 0.00000000E+00 -.62765168E+02 0.62765984E+02 0.32000000E+00 0.0000E+00 0.9000E+01
       25  1    1    2    0    0 0.36151161E+01 0.90724790E+02 0.46951399E+03 0.49427972E+03 0.12500000E+03 0.0000E+00 0.9000E+01
       23  1    1    2    0    0 0.25190837E+02 -.67105564E+02 0.36434253E+02 0.12157484E+03 0.91188000E+02 0.0000E+00 0.9000E+01
       21  1    1    2  502  501 -.28805953E+02 -.23619227E+02 0.36610591E+02 0.52235512E+02 0.75000000E+00 0.0000E+00 0.9000E+01
#aMCatNLO 2  0  0  1  2 0.37251185D+02 0.00000000D+00  -5  5  0 0.00000000D+00 0.00000000D+00 0.00000000D+00 0.00000000D+00 0.00000000D+00
  <mgrwgt>
 0.8391883648D-01    1    2    0
 0.174574885314346D+03 0.000000000000000D+00 0.000000000000000D+00 0.174574885314346D+03
 0.174574885314346D+03 0.000000000000000D+00 0.000000000000000D+00 -.174574885314346D+03
 0.185042812363013D+03 -.118285752220983D+02 0.780618504837359D+02 0.111275669912535D+03
 0.164106958265679D+03 0.118285752220983D+02 -.780618504837359D+02 -.111275669912535D+03
 0.000000000000000D+00 -.000000000000000D+00 -.000000000000000D+00 -.000000000000000D+00
 0.189466816378925D+03 0.000000000000000D+00 0.000000000000000D+00 0.189466816378925D+03
 0.200521350087611D+03 0.000000000000000D+00 0.000000000000000D+00 -.200521350087611D+03
 0.190397823970930D+03 0.361511605786310D+01 0.907247904063172D+02 0.111275669912535D+03
 0.160733509166563D+03 0.251908365458822D+02 -.671055635892642D+02 -.111275669912535D+03
 0.388568333290438D+02 -.288059526037453D+02 -.236192268170530D+02 -.110545337086860D+02
0.162838008269D-03 0.000000000000D+00 0.000000000000D+00 0.789735515547D-03 0.463404372862D-05  5 2 -2 25 23 21 2 0.93125097D-01 0.96560683D-02 0.23675105D+05 0.23675105D+05 0.23675105D+05 0.12258412D+01  1  2  1  1  5  1        2 0.839188364794D-01 0.100000000000D+01
  </mgrwgt>
  </event>
  <event>
  4     66 0.45228882E-03 0.13714735E+03 0.75467711E-02 0.11777314E+00
        2 -1    0    0  501    0 0.00000000E+00 0.00000000E+00 0.24492507E+04 0.24492507E+04 0.32000000E+00 0.0000E+00 0.9000E+01
       -2 -1    0    0    0  501 0.00000000E+00 0.00000000E+00 -.81255555E+01 0.81318542E+01 0.32000000E+00 0.0000E+00 0.9000E+01
       25  1    1    2    0    0 0.48233338E+02 -.68486212E+02 0.10450913E+04 0.10558682E+04 0.12500000E+03 0.0000E+00 0.9000E+01
       23  1    1    2    0    0 -.48233338E+02 0.68486212E+02 0.13960338E+04 0.14015144E+04 0.91188000E+02 0.0000E+00 0.9000E+01
#aMCatNLO 1  0  0  1  2 0.59759103D+02 0.00000000D+00  -5  5  0 0.00000000D+00 0.00000000D+00 0.00000000D+00 0.00000000D+00 0.00000000D+00
  <mgrwgt>
 0.1538643261D+00    4    2    0
 0.141100273359540D+03 0.000000000000000D+00 0.000000000000000D+00 0.141100273359540D+03
 0.141100273359540D+03 0.000000000000000D+00 0.000000000000000D+00 -.141100273359540D+03
 0.154051610167680D+03 0.482333380019592D+02 -.684862116275433D+02 -.330163977040347D+02
 0.128148936551401D+03 -.482333380019592D+02 0.684862116275433D+02 0.330163977040347D+02
 0.000000000000000D+00 -.000000000000000D+00 0.000000000000000D+00 -.000000000000000D+00
 0.160447619361313D+03 0.000000000000000D+00 0.000000000000000D+00 0.160447619361313D+03
 0.199277148420662D+03 0.000000000000000D+00 0.000000000000000D+00 -.199277148420662D+03
 0.172721579468975D+03 0.794573305915547D+02 -.824875391327129D+02 -.330163977040347D+02
 0.115736907942094D+03 -.249294377963167D+02 0.580363776420037D+02 0.330163977040347D+02
 0.712662803709058D+02 -.545278927952381D+02 0.244511614907092D+02 -.388295290593491D+02
0.321744951780D-03 0.000000000000D+00 0.000000000000D+00 0.135343201535D-02 0.000000000000D+00  5 2 -2 25 23 21 0 0.37680828D+00 0.12505716D-02 0.18809396D+05 0.18809396D+05 0.18809396D+05 0.12367714D+01  1  2  2  1  5  1        2 0.210884252548D+00 0.100000000000D+01
-.178571721489D-04 0.000000000000D+00 -.123558533223D-05 0.135343201535D-02 0.000000000000D+00  5 2 -2 25 23 21 2 0.37680828D+00 0.12505716D-02 0.18809396D+05 0.18809396D+05 0.18809396D+05 0.12367714D+01  1  2  3  1  5  1        2 -.179029231795D-01 0.100000000000D+01
0.221832969592D-04 0.000000000000D+00 0.000000000000D+00 0.135343201535D-02 0.000000000000D+00  5 2 -2 25 23 21 2 0.37680828D+00 0.12505716D-02 0.18809396D+05 0.18809396D+05 0.18809396D+05 0.12367714D+01  1  2 15  1  5  1        2 0.222401317530D-01 0.100000000000D+01
-.612003365158D-04 0.000000000000D+00 0.000000000000D+00 0.135343201535D-02 0.000000000000D+00  5 2 -2 25 23 21 2 0.37680828D+00 0.12505716D-02 0.18809396D+05 0.18809396D+05 0.18809396D+05 0.12367714D+01  1  2  4  1  5  1        2 -.613571350529D-01 0.100000000000D+01
  </mgrwgt>
  </event>
  <event>
  4     66 0.45228882E-03 0.48567052E+02 0.75467711E-02 0.12607072E+00
        2 -1    0    0  501    0 0.00000000E+00 0.00000000E+00 0.33060933E+02 0.33062481E+02 0.32000000E+00 0.0000E+00 0.9000E+01
       -2 -1    0    0    0  501 0.00000000E+00 0.00000000E+00 -.35708289E+03 0.35708303E+03 0.32000000E+00 0.0000E+00 0.9000E+01
       25  1    1    2    0    0 -.31832754E+01 0.10080529E+02 -.18240075E+03 0.22137476E+03 0.12500000E+03 0.0000E+00 0.9000E+01
       23  1    1    2    0    0 0.31832754E+01 -.10080529E+02 -.14162121E+03 0.16877076E+03 0.91188000E+02 0.0000E+00 0.9000E+01
#aMCatNLO 1  0  0  2  1 0.25913632D+01 0.00000000D+00  -5  5  0 0.00000000D+00 0.00000000D+00 0.00000000D+00 0.00000000D+00 0.00000000D+00
  <mgrwgt>
 0.4857942685D-01   11    2    0
 0.108654606292055D+03 0.000000000000000D+00 0.000000000000000D+00 0.108654606292055D+03
 0.108654606292055D+03 0.000000000000000D+00 0.000000000000000D+00 -.108654606292055D+03
 0.125473379341474D+03 -.318327536895839D+01 0.100805291908414D+02 0.261124731256101D+01
 0.918358332426367D+02 0.318327536895839D+01 -.100805291908414D+02 -.261124731256101D+01
 0.000000000000000D+00 -.000000000000000D+00 -.000000000000000D+00 -.000000000000000D+00
 0.109846474756561D+03 0.000000000000000D+00 0.000000000000000D+00 0.109846474756561D+03
 0.110080057374971D+03 0.000000000000000D+00 0.000000000000000D+00 -.110080057374971D+03
 0.125579942428385D+03 -.262963006814221D+01 0.114711975614531D+02 0.261124731256101D+01
 0.917447203169856D+02 0.358812367004037D+01 -.906361506481045D+01 -.261124731256101D+01
 0.260186938616126D+01 -.958493601898158D+00 -.240758249664263D+01 -.233582618410485D+00
0.104246693159D-03 0.000000000000D+00 0.000000000000D+00 0.190926424076D-02 0.000000000000D+00  5 2 -2 25 23 21 0 0.50864275D-02 0.54935960D-01 0.11798837D+05 0.11798837D+05 0.11798837D+05 0.12598855D+01  1  2  2  2  5  2       -2 0.474133750402D-01 0.100000000000D+01
-.579148233649D-05 0.000000000000D+00 -.400334750516D-06 0.190926424076D-02 0.000000000000D+00  5 2 -2 25 23 21 2 0.50864275D-02 0.54935960D-01 0.11798837D+05 0.11798837D+05 0.11798837D+05 0.12598855D+01  1  2  3  2  5  2       -2 -.418109919832D-02 0.100000000000D+01
0.722229764220D-05 0.000000000000D+00 0.000000000000D+00 0.190926424076D-02 0.000000000000D+00  5 2 -2 25 23 21 2 0.50864275D-02 0.54935960D-01 0.11798837D+05 0.11798837D+05 0.11798837D+05 0.12598855D+01  1  2 15  2  5  2       -2 0.521406112068D-02 0.100000000000D+01
0.391702361905D-06 0.000000000000D+00 0.000000000000D+00 0.190926424076D-02 0.000000000000D+00  5 2 -2 25 23 21 2 0.50864275D-02 0.55954358D-01 0.12083693D+05 0.12083693D+05 0.12083693D+05 0.12586705D+01  1  2 12  2  5  2       -2 0.272271971178D-03 0.100000000000D+01
-.569714327712D-03 0.000000000000D+00 0.000000000000D+00 0.190926424076D-02 0.000000000000D+00  5 2 -2 25 23 21 2 0.50864275D-02 0.54935960D-01 0.11798837D+05 0.11798837D+05 0.11798837D+05 0.12598855D+01  1  2  4  2  5  2       -2 -.411299211578D+00 0.100000000000D+01
-.400361403679D-02 0.000000000000D+00 -.502053442049D-03 0.190926424076D-02 0.000000000000D+00  5 2 -2 25 23 21 2 0.50864275D-02 0.56197027D-01 0.11798837D+05 0.11798837D+05 0.11798837D+05 0.12598855D+01  1  2  5  2  5  2       -2 -.276129697787D+01 0.100000000000D+01
0.401410390608D-02 0.000000000000D+00 0.501924167059D-03 0.190926424076D-02 0.000000000000D+00  5 2 -2 25 23 21 2 0.50864275D-02 0.54935960D-01 0.11798837D+05 0.11798837D+05 0.11798837D+05 0.12598855D+01  1  2  6  2  5  2       -2 0.289793970672D+01 0.100000000000D+01
0.569479420118D-03 0.000000000000D+00 0.000000000000D+00 0.190926424076D-02 0.240267355507D-02  5 2 -2 25 23 21 2 0.51422222D-02 0.55656670D-01 0.12083693D+05 0.12083693D+05 0.12083693D+05 0.12586705D+01  1  2 11  2  5  2       -2 0.394508903869D+00 0.100000000000D+01
0.149792567467D-07 0.000000000000D+00 0.000000000000D+00 0.190926424076D-02 0.000000000000D+00  5 2 21 25 23 2 2 0.50864275D-02 0.55954358D-01 0.12083693D+05 0.12083693D+05 0.12083693D+05 0.12586705D+01  1  2 12  4  5  2       -2 0.130023806917D-03 0.100000000000D+01
-.163774612724D-04 0.000000000000D+00 -.206555342171D-05 0.190926424076D-02 0.000000000000D+00  5 2 21 25 23 2 2 0.50864275D-02 0.56197027D-01 0.11798837D+05 0.11798837D+05 0.11798837D+05 0.12598855D+01  1  2  5  4  5  2       -2 -.141104783538D+00 0.100000000000D+01
0.242458149782D-05 0.000000000000D+00 0.000000000000D+00 0.190926424076D-02 0.579319176017D-05  5 2 21 25 23 2 2 0.51422222D-02 0.55656670D-01 0.12083693D+05 0.12083693D+05 0.12083693D+05 0.12586705D+01  1  2 11  4  5  2       -2 0.209831565075D-01 0.100000000000D+01
  </mgrwgt>
  </event>
  <event>
  4     66 0.45228882E-03 0.14878440E+03 0.75467711E-02 0.93346893E-01
        2 -1    0    0  501    0 0.00000000E+00 0.00000000E+00 0.76337472E+02 0.76338143E+02 0.32000000E+00 0.0000E+00 0.9000E+01
       -2 -1    0    0    0  501 0.00000000E+00 0.00000000E+00 -.30192475E+03 0.30192492E+03 0.32000000E+00 0.0000E+00 0.9000E+01
       25  1    1    2    0    0 0.28909984E+02 -.97374250E+02 -.15922577E+03 0.22648483E+03 0.12500000E+03 0.0000E+00 0.9000E+01
       23  1    1    2    0    0 -.28909984E+02 0.97374250E+02 -.66361512E+02 0.15177824E+03 0.91188000E+02 0.0000E+00 0.9000E+01
#aMCatNLO 1  0  0  1  1 0.95389808D+03 0.00000000D+00  -5  5  0 0.00000000D+00 0.00000000D+00 0.00000000D+00 0.00000000D+00 0.00000000D+00
  <mgrwgt>
 0.1559510626D+00    5    2    0
 0.151816768905248D+03 0.000000000000000D+00 0.000000000000000D+00 0.151816768905248D+03
 0.151816768905248D+03 0.000000000000000D+00 0.000000000000000D+00 -.151816768905248D+03
 0.163853892189966D+03 0.289099835823674D+02 -.973742502470158D+02 -.300926274010724D+02
 0.139779645620530D+03 -.289099835823674D+02 0.973742502470158D+02 0.300926274010724D+02
 0.000000000000000D+00 -.000000000000000D+00 -.000000000000000D+00 0.000000000000000D+00
 0.341686484510018D+04 0.000000000000000D+00 0.000000000000000D+00 0.341686484510018D+04
 0.578530548855503D+03 0.000000000000000D+00 0.000000000000000D+00 -.578530548855503D+03
 0.626460814750976D+03 0.606668248077610D+03 -.887480871286861D+02 -.300926274010724D+02
 0.374596066151006D+03 0.347123533093459D+03 0.102988581797320D+03 0.300926274010724D+02
 0.299433851305371D+04 -.953791781171069D+03 -.142404946686342D+02 0.283833429624468D+04
0.657963272179D-03 0.000000000000D+00 0.000000000000D+00 0.129096794729D-02 0.000000000000D+00  5 2 -2 25 23 21 0 0.11744291D-01 0.46450027D-01 0.22136799D+05 0.22136799D+05 0.22136799D+05 0.12290020D+01  1  2  2  1  5  1        2 0.148984936036D+00 0.100000000000D+01
-.365354233232D-04 0.000000000000D+00 -.252675221088D-05 0.129096794729D-02 0.000000000000D+00  5 2 -2 25 23 21 2 0.11744291D-01 0.46450027D-01 0.22136799D+05 0.22136799D+05 0.22136799D+05 0.12290020D+01  1  2  3  1  5  1        2 -.124956841812D-01 0.100000000000D+01
0.454965191880D-04 0.000000000000D+00 0.000000000000D+00 0.129096794729D-02 0.000000000000D+00  5 2 -2 25 23 21 2 0.11744291D-01 0.46450027D-01 0.22136799D+05 0.22136799D+05 0.22136799D+05 0.12290020D+01  1  2 15  1  5  1        2 0.155605186256D-01 0.100000000000D+01
0.435188762695D-02 0.000000000000D+00 -.245033034716D-02 0.129096794729D-02 0.000000000000D+00  5 2 -2 25 23 21 2 0.52387799D+00 0.46450027D-01 0.22136799D+05 0.22136799D+05 0.22136799D+05 0.12290020D+01  1  2  5  1  5  1        2 0.384423990312D-02 0.100000000000D+01
0.744032269144D-03 0.000000000000D+00 -.858471002430D-03 0.129096794729D-02 0.000000000000D+00  5 21 -2 25 23 -2 2 0.52387799D+00 0.46450027D-01 0.22136799D+05 0.22136799D+05 0.22136799D+05 0.12290020D+01  1  2  5  3  5  1        2 0.570522369865D-04 0.100000000000D+01
  </mgrwgt>
  </event>
  <event>
  5     66 0.45228882E-03 0.10832208E+03 0.75467711E-02 0.11468954E+00
        2 -1    0    0  501    0 0.00000000E+00 0.00000000E+00 0.26552542E+03 0.26552561E+03 0.32000000E+00 0.0000E+00 0.9000E+01
       21 -1    0    0  502  501 0.00000000E+00 0.00000000E+00 -.64831194E+03 0.64831238E+03 0.75000000E+00 0.0000E+00 0.9000E+01
       25  1    1    2    0    0 0.20666073E+01 -.73956028E+02 0.16036941E+03 0.21637263E+03 0.12500000E+03 0.0000E+00 0.9000E+01
       23  1    1    2    0    0 -.57730090E+00 -.71635359E+02 0.18336151E+02 0.11740283E+03 0.91188000E+02 0.0000E+00 0.9000E+01
        2  1    1    2  502    0 -.14893064E+01 0.14559139E+03 -.56149209E+03 0.58006253E+03 0.32000000E+00 0.0000E+00 0.9000E+01
#aMCatNLO 2  0  0  2  2 0.14559900D+03 0.00000000D+00  -5  5  0 0.00000000D+00 0.00000000D+00 0.00000000D+00 0.00000000D+00 0.00000000D+00
  <mgrwgt>
 0.1074072384D+00    1    2    0
 0.120697250199058D+03 0.000000000000000D+00 0.000000000000000D+00 0.120697250199058D+03
 0.120697250199058D+03 0.000000000000000D+00 0.000000000000000D+00 -.120697250199058D+03
 0.135837919609390D+03 0.124024041183626D+01 0.682781836704436D+01 0.527141641674653D+02
 0.105556580788727D+03 -.124024041183626D+01 -.682781836704436D+01 -.527141641674653D+02
 0.000000000000000D+00 -.000000000000000D+00 0.000000000000000D+00 -.000000000000000D+00
 0.146060030264572D+03 0.000000000000000D+00 0.000000000000000D+00 0.146060030264572D+03
 0.117858067556393D+04 0.000000000000000D+00 0.000000000000000D+00 -.117858067556393D+04
 0.154523616512717D+03 0.206660727959791D+01 -.739560280886329D+02 0.527141641674653D+02
 0.127381287249005D+03 -.577300895245239D+00 -.716353587065455D+02 -.527141641674653D+02
 0.104273580206678D+04 -.148930638435267D+01 0.145591386795178D+03 -.103252064529936D+04
0.586782218004D-03 0.000000000000D+00 0.000000000000D+00 0.142370455239D-02 0.927864130393D-06  5 2 21 25 23 2 2 0.40850106D-01 0.99740331D-01 0.41374661D+05 0.41374661D+05 0.41374661D+05 0.12005129D+01  1  2  1  4  5  2       -2 0.107407238445D+00 0.100000000000D+01
  </mgrwgt>
  </event>
  <event>
  5     66 0.45228882E-03 0.11420579E+03 0.75467711E-02 0.12285461E+00
        2 -1    0    0  501    0 0.00000000E+00 0.00000000E+00 0.19824774E+03 0.19824800E+03 0.32000000E+00 0.0000E+00 0.9000E+01
       -2 -1    0    0    0  502 0.00000000E+00 0.00000000E+00 -.88415880E+02 0.88416459E+02 0.32000000E+00 0.0000E+00 0.9000E+01
       25  1    1    2    0    0 0.38028428E+02 -.36725535E+02 0.54836050E+02 0.14637937E+03 0.12500000E+03 0.0000E+00 0.9000E+01
       23  1    1    2    0    0 -.16669680E+02 0.18042145E+02 0.22395605E+02 0.97057775E+02 0.91188000E+02 0.0000E+00 0.9000E+01
       21  1    1    2  501  502 -.21358748E+02 0.18683390E+02 0.32600207E+02 0.43227320E+02 0.75000000E+00 0.0000E+00 0.9000E+01
#aMCatNLO 2  0  0  2  1 0.28377195D+02 0.00000000D+00  -5  5  0 0.00000000D+00 0.00000000D+00 0.00000000D+00 0.00000000D+00 0.00000000D+00
  <mgrwgt>
 0.3032962980D-01    1    2    0
 0.114555278852853D+03 0.000000000000000D+00 0.000000000000000D+00 0.114555278852853D+03
 0.114555278852853D+03 0.000000000000000D+00 0.000000000000000D+00 -.114555278852853D+03
 0.130507727158159D+03 0.256527704390958D+02 -.259000304233083D+02 0.885384892908881D+01
 0.986028305475475D+02 -.256527704390958D+02 0.259000304233083D+02 -.885384892908881D+01
 0.000000000000000D+00 -.000000000000000D+00 0.000000000000000D+00 0.000000000000000D+00
 0.142721574912336D+03 0.000000000000000D+00 0.000000000000000D+00 0.142721574912336D+03
 0.122807288251143D+03 0.000000000000000D+00 0.000000000000000D+00 -.122807288251143D+03
 0.136008517719324D+03 0.380284275566400D+02 -.367255353795973D+02 0.885384892908881D+01
 0.948527237879749D+02 -.166696797121443D+02 0.180421452004261D+02 -.885384892908881D+01
 0.346676216561803D+02 -.213587478444957D+02 0.186833901791712D+02 0.199142866611928D+02
0.299052921680D-04 0.000000000000D+00 0.000000000000D+00 0.176595145941D-02 0.185338764152D-04  5 2 -2 25 23 21 2 0.30498743D-01 0.13602073D-01 0.16710193D+05 0.16710193D+05 0.16710193D+05 0.12425122D+01  1  2  1  2  5  2       -2 0.303296298000D-01 0.100000000000D+01
  </mgrwgt>
  </event>
  <event>
  4     66 0.45228882E-03 0.82124844E+02 0.75467711E-02 0.12052321E+00
        2 -1    0    0  501    0 0.00000000E+00 0.00000000E+00 0.95639943E+03 0.95639948E+03 0.32000000E+00 0.0000E+00 0.9000E+01
       -2 -1    0    0    0  501 0.00000000E+00 0.00000000E+00 -.19579381E+02 0.19581996E+02 0.32000000E+00 0.0000E+00 0.9000E+01
       25  1    1    2    0    0 0.77270020E+02 0.13437650E+02 0.61396503E+03 0.63145014E+03 0.12500000E+03 0.0000E+00 0.9000E+01
       23  1    1    2    0    0 -.77270020E+02 -.13437650E+02 0.32285502E+03 0.34453134E+03 0.91188000E+02 0.0000E+00 0.9000E+01
#aMCatNLO 1  0  0  2  1 0.23549141D+02 0.00000000D+00  -5  5  0 0.00000000D+00 0.00000000D+00 0.00000000D+00 0.00000000D+00 0.00000000D+00
  <mgrwgt>
 0.2400807418D+00    6    2    0
 0.136846669911797D+03 0.000000000000000D+00 0.000000000000000D+00 0.136846669911797D+03
 0.136846669911797D+03 0.000000000000000D+00 0.000000000000000D+00 -.136846669911797D+03
 0.150200572971169D+03 0.772700204506785D+02 0.134376496566492D+02 0.279997434296174D+02
 0.123492766852425D+03 -.772700204506785D+02 -.134376496566492D+02 -.279997434296174D+02
 0.000000000000000D+00 -.000000000000000D+00 0.000000000000000D+00 0.000000000000000D+00
 0.150048805500594D+03 0.000000000000000D+00 0.000000000000000D+00 0.150048805500594D+03
 0.148271861711513D+03 0.000000000000000D+00 0.000000000000000D+00 -.148271861711513D+03
 0.154951212284895D+03 0.870551191658959D+02 0.472215876966475D+01 0.279997434296174D+02
 0.119753367776779D+03 -.694700089336410D+02 -.203850429608569D+02 -.279997434296174D+02
 0.236160871504322D+02 -.175851102322549D+02 0.156628841911922D+02 0.177694378908150D+01
0.140165542124D-03 0.000000000000D+00 0.000000000000D+00 0.140683989081D-02 0.000000000000D+00  5 2 -2 25 23 21 0 0.14713858D+00 0.30124178D-02 0.17935152D+05 0.17935152D+05 0.17935152D+05 0.12390704D+01  1  2  2  2  5  2       -2 0.158451208084D+00 0.100000000000D+01
-.778255636758D-05 0.000000000000D+00 -.538272588192D-06 0.140683989081D-02 0.000000000000D+00  5 2 -2 25 23 21 2 0.14713858D+00 0.30124178D-02 0.17935152D+05 0.17935152D+05 0.17935152D+05 0.12390704D+01  1  2  3  2  5  2       -2 -.135072991323D-01 0.100000000000D+01
0.968732912590D-05 0.000000000000D+00 0.000000000000D+00 0.140683989081D-02 0.000000000000D+00  5 2 -2 25 23 21 2 0.14713858D+00 0.30124178D-02 0.17935152D+05 0.17935152D+05 0.17935152D+05 0.12390704D+01  1  2 15  2  5  2       -2 0.168131968619D-01 0.100000000000D+01
0.118422358191D-03 0.000000000000D+00 0.000000000000D+00 0.140683989081D-02 0.000000000000D+00  5 2 -2 25 23 21 2 0.14713858D+00 0.33968572D-02 0.21372043D+05 0.21372043D+05 0.21372043D+05 0.12306662D+01  1  2 12  2  5  2       -2 0.170688233557D+00 0.100000000000D+01
-.889307604964D-04 0.000000000000D+00 0.000000000000D+00 0.140683989081D-02 0.000000000000D+00  5 2 -2 25 23 21 2 0.14713858D+00 0.30124178D-02 0.17935152D+05 0.17935152D+05 0.17935152D+05 0.12390704D+01  1  2  4  2  5  2       -2 -.154347020099D+00 0.100000000000D+01
0.224861268495D-05 0.000000000000D+00 0.000000000000D+00 0.140683989081D-02 0.000000000000D+00  5 2 21 25 23 2 2 0.14713858D+00 0.33968572D-02 0.21372043D+05 0.21372043D+05 0.21372043D+05 0.12306662D+01  1  2 12  4  5  2       -2 0.619824224892D-01 0.100000000000D+01
  </mgrwgt>
  </event>
  <event>
  4     66 0.45228882E-03 0.11793895E+03 0.75467711E-02 0.11360788E+00
        2 -1    0    0  501    0 0.00000000E+00 0.00000000E+00 0.27132311E+03 0.27132330E+03 0.32000000E+00 0.0000E+00 0.9000E+01
       -2 -1    0    0    0  501 0.00000000E+00 0.00000000E+00 -.51362478E+02 0.51363475E+02 0.32000000E+00 0.0000E+00 0.9000E+01
       25  1    1    2    0    0 -.46523761E+02 -.38855913E+01 0.13136670E+03 0.18724788E+03 0.12500000E+03 0.0000E+00 0.9000E+01
       23  1    1    2    0    0 0.46523761E+02 0.38855913E+01 0.88593933E+02 0.13543890E+03 0.91188000E+02 0.0000E+00 0.9000E+01
#aMCatNLO 1  0  0  2  1 0.15300364D+03 0.00000000D+00  -5  5  0 0.00000000D+00 0.00000000D+00 0.00000000D+00 0.00000000D+00 0.00000000D+00
  <mgrwgt>
 0.1418219187D+00    3    2    0
 0.118050914996736D+03 0.000000000000000D+00 0.000000000000000D+00 0.118050914996736D+03
 0.118050914996736D+03 0.000000000000000D+00 0.000000000000000D+00 -.118050914996736D+03
 0.133530991233761D+03 -.465237609025098D+02 -.388559133244797D+01 0.509582881914293D+01
 0.102570838759711D+03 0.465237609025098D+02 0.388559133244797D+01 -.509582881914293D+01
 0.000000000000000D+00 -.000000000000000D+00 0.000000000000000D+00 0.000000000000000D+00
 0.220890370253922D+03 0.000000000000000D+00 0.000000000000000D+00 0.220890370253922D+03
 0.213629022307812D+03 0.000000000000000D+00 0.000000000000000D+00 -.213629022307812D+03
 0.155659558234755D+03 -.297120423491053D+02 -.877275620197563D+02 0.509582881914293D+01
 0.125683983215760D+03 0.597930597525639D+02 -.622899255662733D+02 -.509582881914293D+01
 0.153175851111219D+03 -.300810174034587D+02 0.150017487586030D+03 0.726134794611049D+01
0.126579633341D-03 0.000000000000D+00 0.000000000000D+00 0.170405454385D-02 0.000000000000D+00  5 2 -2 25 23 21 0 0.41742108D-01 0.79020109D-02 0.13909596D+05 0.13909596D+05 0.13909596D+05 0.12515765D+01  1  2  2  2  5  2       -2 0.138861690408D+00 0.100000000000D+01
-.703219415366D-05 0.000000000000D+00 -.486099121212D-06 0.170405454385D-02 0.000000000000D+00  5 2 -2 25 23 21 2 0.41742108D-01 0.79020109D-02 0.13909596D+05 0.13909596D+05 0.13909596D+05 0.12515765D+01  1  2  3  2  5  2       -2 -.120843774180D-01 0.100000000000D+01
0.875482321957D-05 0.000000000000D+00 0.000000000000D+00 0.170405454385D-02 0.000000000000D+00  5 2 -2 25 23 21 2 0.41742108D-01 0.79020109D-02 0.13909596D+05 0.13909596D+05 0.13909596D+05 0.12515765D+01  1  2 15  2  5  2       -2 0.150446056667D-01 0.100000000000D+01
  </mgrwgt>
  </event>
  <event>
  4     66 0.45228882E-03 0.11590876E+03 0.75467711E-02 0.12216554E+00
        2 -1    0    0  501    0 0.00000000E+00 0.00000000E+00 0.90668665E+03 0.90668671E+03 0.32000000E+00 0.0000E+00 0.9000E+01
       -2 -1    0    0    0  501 0.00000000E+00 0.00000000E+00 -.14816390E+02 0.14819846E+02 0.32000000E+00 0.0000E+00 0.9000E+01
       25  1    1    2    0    0 0.59118411E-01 0.41391839E+02 0.50353909E+03 0.52047085E+03 0.12500000E+03 0.0000E+00 0.9000E+01
       23  1    1    2    0    0 -.59118411E-01 -.41391839E+02 0.38833117E+03 0.40103571E+03 0.91188000E+02 0.0000E+00 0.9000E+01
#aMCatNLO 1  0  0  2  1 0.33718969D+02 0.00000000D+00  -5  5  0 0.00000000D+00 0.00000000D+00 0.00000000D+00 0.00000000D+00 0.00000000D+00
  <mgrwgt>
 0.1753994959D+00    4    2    0
 0.115911351588719D+03 0.000000000000000D+00 0.000000000000000D+00 0.115911351588719D+03
 0.115911351588719D+03 0.000000000000000D+00 0.000000000000000D+00 -.115911351588719D+03
 0.131677168645914D+03 0.591184109584621D-01 0.413918392461118D+02 -.767392625796611D+00
 0.100145534531524D+03 -.591184109584621D-01 -.413918392461118D+02 0.767392625796611D+00
 0.000000000000000D+00 -.000000000000000D+00 0.000000000000000D+00 0.000000000000000D+00
 0.199333124527263D+03 0.000000000000000D+00 0.000000000000000D+00 0.199333124527263D+03
 0.120588900802325D+03 0.000000000000000D+00 0.000000000000000D+00 -.120588900802325D+03
 0.130670653579259D+03 0.174654593335778D+02 0.338258561703277D+02 -.767392625796611D+00
 0.103591453062222D+03 0.134584912818729D+02 -.472675144736441D+02 0.767392625796611D+00
 0.856599186881073D+02 -.309239506154508D+02 0.134416583033164D+02 0.787442237249387D+02
0.100498962541D-03 0.000000000000D+00 0.000000000000D+00 0.174646786565D-02 0.000000000000D+00  5 2 -2 25 23 21 0 0.13949052D+00 0.22797148D-02 0.13434841D+05 0.13434841D+05 0.13434841D+05 0.12533157D+01  1  2  2  2  5  2       -2 0.181335858370D+00 0.100000000000D+01
-.558327569336D-05 0.000000000000D+00 -.385942478144D-06 0.174646786565D-02 0.000000000000D+00  5 2 -2 25 23 21 2 0.13949052D+00 0.22797148D-02 0.13434841D+05 0.13434841D+05 0.13434841D+05 0.12533157D+01  1  2  3  2  5  2       -2 -.158245776135D-01 0.100000000000D+01
0.692437136151D-05 0.000000000000D+00 0.000000000000D+00 0.174646786565D-02 0.000000000000D+00  5 2 -2 25 23 21 2 0.13949052D+00 0.22797148D-02 0.13434841D+05 0.13434841D+05 0.13434841D+05 0.12533157D+01  1  2 15  2  5  2       -2 0.196256208815D-01 0.100000000000D+01
-.343558117049D-05 0.000000000000D+00 0.000000000000D+00 0.174646786565D-02 0.000000000000D+00  5 2 -2 25 23 21 2 0.13949052D+00 0.22797148D-02 0.13434841D+05 0.13434841D+05 0.13434841D+05 0.12533157D+01  1  2  4  2  5  2       -2 -.973740575706D-02 0.100000000000D+01
  </mgrwgt>
  </event>
  <event>
  4     66 0.45228882E-03 0.23279111E+03 0.75467711E-02 0.11113282E+00
        2 -1    0    0  501    0 0.00000000E+00 0.00000000E+00 0.14897314E+04 0.14897314E+04 0.32000000E+00 0.0000E+00 0.9000E+01
       -2 -1    0    0    0  501 0.00000000E+00 0.00000000E+00 -.43799133E+02 0.43800302E+02 0.32000000E+00 0.0000E+00 0.9000E+01
       25  1    1    2    0    0 0.28786722E+01 -.20560864E+03 0.10587213E+04 0.10857251E+04 0.12500000E+03 0.0000E+00 0.9000E+01
       23  1    1    2    0    0 -.28786722E+01 0.20560864E+03 0.38721097E+03 0.44780664E+03 0.91188000E+02 0.0000E+00 0.9000E+01
#aMCatNLO 1  0  0  2  2 0.39089558D+02 0.00000000D+00  -5  5  0 0.00000000D+00 0.00000000D+00 0.00000000D+00 0.00000000D+00 0.00000000D+00
  <mgrwgt>
 0.1980290093D+00    4    2    0
 0.255440533040321D+03 0.000000000000000D+00 0.000000000000000D+00 0.255440533040321D+03
 0.255440533040321D+03 0.000000000000000D+00 0.000000000000000D+00 -.255440533040321D+03
 0.262594594074603D+03 0.287867224852745D+01 -.205608641860283D+03 0.105108137057324D+03
 0.248286472006039D+03 -.287867224852745D+01 0.205608641860283D+03 -.105108137057324D+03
 0.000000000000000D+00 0.000000000000000D+00 -.000000000000000D+00 0.000000000000000D+00
 0.311624517662672D+03 0.000000000000000D+00 0.000000000000000D+00 0.311624517662672D+03
 0.263077798755659D+03 0.000000000000000D+00 0.000000000000000D+00 -.263077798755659D+03
 0.248704141472162D+03 -.447287189254877D+01 -.187512727372776D+03 0.105108137057324D+03
 0.263670191669527D+03 -.102396761972352D+02 0.223727841778263D+03 -.105108137057324D+03
 0.623279832766419D+02 0.147125480897840D+02 -.362151144054874D+02 0.485467189070137D+02
0.134177261848D-02 0.000000000000D+00 0.000000000000D+00 0.880416609463D-03 0.000000000000D+00  5 2 -2 25 23 21 0 0.22918953D+00 0.67384208D-02 0.54191702D+05 0.54191702D+05 0.54191702D+05 0.11888346D+01  1  2  2  2  5  2       -2 0.229694808072D+00 0.100000000000D+01
-.737615942203D-04 0.000000000000D+00 -.515276015182D-05 0.880416609463D-03 0.000000000000D+00  5 2 -2 25 23 21 2 0.22918953D+00 0.67384208D-02 0.54191702D+05 0.54191702D+05 0.54191702D+05 0.11888346D+01  1  2  3  2  5  2       -2 -.178461872303D-01 0.100000000000D+01
0.920150384710D-04 0.000000000000D+00 0.000000000000D+00 0.880416609463D-03 0.000000000000D+00  5 2 -2 25 23 21 2 0.22918953D+00 0.67384208D-02 0.54191702D+05 0.54191702D+05 0.54191702D+05 0.11888346D+01  1  2 15  2  5  2       -2 0.222625015351D-01 0.100000000000D+01
-.149134050122D-03 0.000000000000D+00 0.000000000000D+00 0.880416609463D-03 0.000000000000D+00  5 2 -2 25 23 21 2 0.22918953D+00 0.67384208D-02 0.54191702D+05 0.54191702D+05 0.54191702D+05 0.11888346D+01  1  2  4  2  5  2       -2 -.360821130431D-01 0.100000000000D+01
  </mgrwgt>
  </event>
  <event>
  4     66 0.45228882E-03 0.15170905E+03 0.75467711E-02 0.95636510E-01
        2 -1    0    0  501    0 0.00000000E+00 0.00000000E+00 0.20565977E+02 0.20568467E+02 0.32000000E+00 0.0000E+00 0.9000E+01
       -2 -1    0    0    0  501 0.00000000E+00 0.00000000E+00 -.11257359E+04 0.11257359E+04 0.32000000E+00 0.0000E+00 0.9000E+01
       25  1    1    2    0    0 0.20512830E+02 0.10377780E+03 -.64025741E+03 0.66086698E+03 0.12500000E+03 0.0000E+00 0.9000E+01
       23  1    1    2    0    0 -.20512830E+02 -.10377780E+03 -.46491248E+03 0.48543741E+03 0.91188000E+02 0.0000E+00 0.9000E+01
#aMCatNLO 1  0  0  1  2 0.76868485D+03 0.00000000D+00  -5  5  0 0.00000000D+00 0.00000000D+00 0.00000000D+00 0.00000000D+00 0.00000000D+00
  <mgrwgt>
 0.2702181643D+00    5    2    0
 0.152162121122064D+03 0.000000000000000D+00 0.000000000000000D+00 0.152162121122064D+03
 0.152162121122064D+03 0.000000000000000D+00 0.000000000000000D+00 -.152162121122064D+03
 0.164171924550961D+03 0.205128301695292D+02 0.103777799707242D+03 -.116967045412805D+02
 0.140152317693167D+03 -.205128301695292D+02 -.103777799707242D+03 0.116967045412805D+02
 0.000000000000000D+00 0.000000000000000D+00 0.000000000000000D+00 0.000000000000000D+00
 0.885177909079737D+03 0.000000000000000D+00 0.000000000000000D+00 0.885177909079737D+03
 0.726456890053583D+03 0.000000000000000D+00 0.000000000000000D+00 -.726456890053583D+03
 0.214654356914969D+03 -.149099743946434D+03 -.899107691022636D+02 -.116967045412805D+02
 0.612079965819712D+03 -.357311146923124D+03 -.488383624419591D+03 0.116967045412805D+02
 0.784900476398639D+03 0.506410890869558D+03 0.578294393521854D+03 0.158721019026154D+03
0.335736061761D-02 0.000000000000D+00 0.000000000000D+00 0.132555852165D-02 0.000000000000D+00  5 2 -2 25 23 21 0 0.31641915D-02 0.17319033D+00 0.23015635D+05 0.23015635D+05 0.23015635D+05 0.12271672D+01  1  2  2  1  5  1        2 0.207383175598D+00 0.100000000000D+01
-.186518017692D-03 0.000000000000D+00 -.128931487850D-04 0.132555852165D-02 0.000000000000D+00  5 2 -2 25 23 21 2 0.31641915D-02 0.17319033D+00 0.23015635D+05 0.23015635D+05 0.23015635D+05 0.12271672D+01  1  2  3  1  5  1        2 -.173501734501D-01 0.100000000000D+01
0.231509182437D-03 0.000000000000D+00 0.000000000000D+00 0.132555852165D-02 0.000000000000D+00  5 2 -2 25 23 21 2 0.31641915D-02 0.17319033D+00 0.23015635D+05 0.23015635D+05 0.23015635D+05 0.12271672D+01  1  2 15  1  5  1        2 0.215353161067D-01 0.100000000000D+01
0.888555905582D-01 0.000000000000D+00 -.188015512046D-01 0.132555852165D-02 0.000000000000D+00  5 2 -2 25 23 21 2 0.21209226D+00 0.17319033D+00 0.23015635D+05 0.23015635D+05 0.23015635D+05 0.12271672D+01  1  2  5  1  5  1        2 0.504308140049D-01 0.100000000000D+01
0.255172697106D-01 0.000000000000D+00 -.673975031744D-02 0.132555852165D-02 0.000000000000D+00  5 21 -2 25 23 -2 2 0.21209226D+00 0.17319033D+00 0.23015635D+05 0.23015635D+05 0.23015635D+05 0.12271672D+01  1  2  5  3  5  1        2 0.821903208020D-02 0.100000000000D+01
  </mgrwgt>
  </event>
  <event>
  5     66 -.45228882E-03 0.10819593E+03 0.75467711E-02 0.12587049E+00
        2 -1    0    0  501    0 0.00000000E+00 0.00000000E+00 0.36290586E+04 0.36290586E+04 0.32000000E+00 0.0000E+00 0.9000E+01
       -2 -1    0    0    0  502 0.00000000E+00 0.00000000E+00 -.40242576E+01 0.40369604E+01 0.32000000E+00 0.0000E+00 0.9000E+01
       25  1    1    2    0    0 0.49520570E+01 -.43686949E+01 0.12948235E+04 0.13008599E+04 0.12500000E+03 0.0000E+00 0.9000E+01
       23  1    1    2    0    0 0.61085612E+00 0.41975629E+01 0.22299042E+04 0.22317719E+04 0.91188000E+02 0.0000E+00 0.9000E+01
       21  1    1    2  501  502 -.55629131E+01 0.17113199E+00 0.10030670E+03 0.10046378E+03 0.75000000E+00 0.0000E+00 0.9000E+01
#aMCatNLO 2  0  0  2  1 0.55655448D+01 0.00000000D+00  -5  5  0 0.00000000D+00 0.00000000D+00 0.00000000D+00 0.00000000D+00 0.00000000D+00
  <mgrwgt>
 -.8300634772D-01    3    2    0
 0.118058714397737D+03 0.000000000000000D+00 0.000000000000000D+00 0.118058714397737D+03
 0.118058714397737D+03 0.000000000000000D+00 0.000000000000000D+00 -.118058714397737D+03
 0.133537767962927D+03 0.180537736664923D+01 -.427189357006923D+01 -.467528289027564D+02
 0.102579660832547D+03 -.180537736664923D+01 0.427189357006923D+01 0.467528289027564D+02
 0.000000000000000D+00 -.000000000000000D+00 0.000000000000000D+00 0.000000000000000D+00
 0.121426146049630D+03 0.000000000000000D+00 0.000000000000000D+00 0.121426146049630D+03
 0.120413742837036D+03 0.000000000000000D+00 0.000000000000000D+00 -.120413742837036D+03
 0.133620490098639D+03 0.495205698942727D+01 -.436869492681584D+01 -.467528289027564D+02
 0.102562522561797D+03 0.610856115867422D+00 0.419756293989288D+01 0.467528289027564D+02
 0.565687622622934D+01 -.556291310529470D+01 0.171131986922957D+00 0.101240321259419D+01
-.217749290319D-03 0.000000000000D+00 0.000000000000D+00 0.150828177601D-02 0.000000000000D+00  5 2 -2 25 23 21 2 0.54272305D+00 0.62843100D-03 0.12323937D+05 0.12323937D+05 0.12323937D+05 0.12576706D+01  1  2 13  2  5  2       -2 -.142665755480D+00 0.100000000000D+01
-.182682362266D-03 0.000000000000D+00 0.000000000000D+00 0.150828177601D-02 0.000000000000D+00  5 2 -2 25 23 21 2 0.54272305D+00 0.60784258D-03 0.11706360D+05 0.11706360D+05 0.11706360D+05 0.12602871D+01  1  2  8  2  5  2       -2 -.126028007440D+00 0.100000000000D+01
0.323676819612D-03 0.000000000000D+00 0.000000000000D+00 0.150828177601D-02 0.411042542347D-03  5 2 -2 25 23 21 2 0.55820334D+00 0.61996778D-03 0.12323937D+05 0.12323937D+05 0.12323937D+05 0.12576706D+01  1  2  1  2  5  2       -2 0.185687415195D+00 0.100000000000D+01
  </mgrwgt>
  </event>
  <event>
  4     66 0.45228882E-03 0.10034943E+03 0.75467711E-02 0.11735034E+00
        2 -1    0    0  501    0 0.00000000E+00 0.00000000E+00 0.40551555E+03 0.40551568E+03 0.32000000E+00 0.0000E+00 0.9000E+01
       -2 -1    0    0    0  501 0.00000000E+00 0.00000000E+00 -.62404040E+02 0.62404860E+02 0.32000000E+00 0.0000E+00 0.9000E+01
       25  1    1    2    0    0 0.10104240E+03 0.55899969E+02 0.20093725E+03 0.26331569E+03 0.12500000E+03 0.0000E+00 0.9000E+01
       23  1    1    2    0    0 -.10104240E+03 -.55899969E+02 0.14217426E+03 0.20460485E+03 0.91188000E+02 0.0000E+00 0.9000E+01
#aMCatNLO 1  0  0  1  2 0.29758255D+02 0.00000000D+00  -5  5  0 0.00000000D+00 0.00000000D+00 0.00000000D+00 0.00000000D+00 0.00000000D+00
  <mgrwgt>
 0.2679663997D+00    9    2    0
 0.159078691433721D+03 0.000000000000000D+00 0.000000000000000D+00 0.159078691433721D+03
 0.159078691433721D+03 0.000000000000000D+00 0.000000000000000D+00 -.159078691433721D+03
 0.170566321533830D+03 0.101042398235914D+03 0.558999688006873D+02 0.115541026652438D+02
 0.147591061333612D+03 -.101042398235914D+03 -.558999688006873D+02 -.115541026652438D+02
 0.000000000000000D+00 0.000000000000000D+00 0.000000000000000D+00 0.000000000000000D+00
 0.177801154418805D+03 0.000000000000000D+00 0.000000000000000D+00 0.177801154418805D+03
 0.172053185960933D+03 0.000000000000000D+00 0.000000000000000D+00 -.172053185960933D+03
 0.163245573915459D+03 0.958797306705965D+02 0.412031231962163D+02 0.115541026652438D+02
 0.156300469691605D+03 -.105742323469217D+03 -.692795007253140D+02 -.115541026652438D+02
 0.303082967726745D+02 0.986259279862019D+01 0.280763775290976D+02 0.574796845787239D+01
0.252297918096D-03 0.000000000000D+00 0.000000000000D+00 0.128460169992D-02 0.000000000000D+00  5 2 -2 25 23 21 0 0.62387081D-01 0.96006943D-02 0.25171829D+05 0.25171829D+05 0.25171829D+05 0.12229788D+01  1  2  2  1  5  1        2 0.136122516569D+00 0.100000000000D+01
-.140164305480D-04 0.000000000000D+00 -.968890437057D-06 0.128460169992D-02 0.000000000000D+00  5 2 -2 25 23 21 2 0.62387081D-01 0.96006943D-02 0.25171829D+05 0.25171829D+05 0.25171829D+05 0.12229788D+01  1  2  3  1  5  1        2 -.113107555793D-01 0.100000000000D+01
0.173538175623D-04 0.000000000000D+00 0.000000000000D+00 0.128460169992D-02 0.000000000000D+00  5 2 -2 25 23 21 2 0.62387081D-01 0.96006943D-02 0.25171829D+05 0.25171829D+05 0.25171829D+05 0.12229788D+01  1  2 15  1  5  1        2 0.140039069250D-01 0.100000000000D+01
0.348275795521D-03 0.000000000000D+00 0.000000000000D+00 0.128460169992D-02 0.000000000000D+00  5 2 -2 25 23 21 2 0.72021036D-01 0.96006943D-02 0.30357358D+05 0.30357358D+05 0.30357358D+05 0.12143590D+01  1  2 12  1  5  1        2 0.238169405004D+00 0.100000000000D+01
-.310849440287D-03 0.000000000000D+00 0.000000000000D+00 0.128460169992D-02 0.000000000000D+00  5 2 -2 25 23 21 2 0.62387081D-01 0.96006943D-02 0.25171829D+05 0.25171829D+05 0.25171829D+05 0.12229788D+01  1  2  4  1  5  1        2 -.250844323667D+00 0.100000000000D+01
-.961504723428D-03 0.000000000000D+00 -.243552623857D-03 0.128460169992D-02 0.000000000000D+00  5 2 -2 25 23 21 2 0.74526537D-01 0.96006943D-02 0.25171829D+05 0.25171829D+05 0.25171829D+05 0.12229788D+01  1  2  5  1  5  1        2 -.639611220343D+00 0.100000000000D+01
0.992872542844D-03 0.000000000000D+00 0.239753118012D-03 0.128460169992D-02 0.000000000000D+00  5 2 -2 25 23 21 2 0.62387081D-01 0.96006943D-02 0.25171829D+05 0.25171829D+05 0.25171829D+05 0.12229788D+01  1  2  6  1  5  1        2 0.801212449562D+00 0.100000000000D+01
0.766791679529D-05 0.000000000000D+00 0.000000000000D+00 0.128460169992D-02 0.000000000000D+00  5 21 -2 25 23 -2 2 0.72021036D-01 0.96006943D-02 0.30357358D+05 0.30357358D+05 0.30357358D+05 0.12143590D+01  1  2 12  3  5  1        2 0.109554508123D-01 0.100000000000D+01
-.228289470965D-04 0.000000000000D+00 -.636176116852D-05 0.128460169992D-02 0.000000000000D+00  5 21 -2 25 23 -2 2 0.74526537D-01 0.96006943D-02 0.25171829D+05 0.25171829D+05 0.25171829D+05 0.12229788D+01  1  2  5  3  5  1        2 -.307310296072D-01 0.100000000000D+01
  </mgrwgt>
  </event>
  <event>
  4     66 0.45228882E-03 0.12710877E+03 0.75467711E-02 0.11255465E+00
        2 -1    0    0  501    0 0.00000000E+00 0.00000000E+00 0.19484359E+04 0.19484359E+04 0.32000000E+00 0.0000E+00 0.9000E+01
       -2 -1    0    0    0  501 0.00000000E+00 0.00000000E+00 -.83261985E+01 0.83323455E+01 0.32000000E+00 0.0000E+00 0.9000E+01
       25  1    1    2    0    0 -.54003537E+02 -.38429512E+02 0.10143257E+04 0.10241459E+04 0.12500000E+03 0.0000E+00 0.9000E+01
       23  1    1    2    0    0 0.54003537E+02 0.38429512E+02 0.92578398E+03 0.93262235E+03 0.91188000E+02 0.0000E+00 0.9000E+01
#aMCatNLO 1  0  0  2  2 0.16178636D+03 0.00000000D+00  -5  5  0 0.00000000D+00 0.00000000D+00 0.00000000D+00 0.00000000D+00 0.00000000D+00
  <mgrwgt>
 0.1978639859D+00    3    2    0
 0.127393498987428D+03 0.000000000000000D+00 0.000000000000000D+00 0.127393498987428D+03
 0.127393498987428D+03 0.000000000000000D+00 0.000000000000000D+00 -.127393498987428D+03
 0.141738321749383D+03 -.540035366896580D+02 -.384295118126874D+02 -.845827991845591D+01
 0.113048676225472D+03 0.540035366896580D+02 0.384295118126874D+02 0.845827991845591D+01
 0.000000000000000D+00 0.000000000000000D+00 -.000000000000000D+00 0.000000000000000D+00
 0.236230031903790D+03 0.000000000000000D+00 0.000000000000000D+00 0.236230031903790D+03
 0.227599611190410D+03 0.000000000000000D+00 0.000000000000000D+00 -.227599611190410D+03
 0.166336543845204D+03 -.103178318524359D+03 0.364079373993434D+02 -.845827991845591D+01
 0.135476710392387D+03 0.143340179065179D+02 0.988012203680677D+02 0.845827991845591D+01
 0.162016388856609D+03 0.888443006178406D+02 -.135209157767411D+03 0.863042071337953D+01
0.168734384552D-03 0.000000000000D+00 0.000000000000D+00 0.155738267418D-02 0.000000000000D+00  5 2 -2 25 23 21 0 0.29975984D+00 0.12814285D-02 0.16156638D+05 0.16156638D+05 0.16156638D+05 0.12441616D+01  1  2  2  2  5  2       -2 0.193749511781D+00 0.100000000000D+01
-.937407541033D-05 0.000000000000D+00 -.647984465463D-06 0.155738267418D-02 0.000000000000D+00  5 2 -2 25 23 21 2 0.29975984D+00 0.12814285D-02 0.16156638D+05 0.16156638D+05 0.16156638D+05 0.12441616D+01  1  2  3  2  5  2       -2 -.166616895709D-01 0.100000000000D+01
0.116889301319D-04 0.000000000000D+00 0.000000000000D+00 0.155738267418D-02 0.000000000000D+00  5 2 -2 25 23 21 2 0.29975984D+00 0.12814285D-02 0.16156638D+05 0.16156638D+05 0.16156638D+05 0.12441616D+01  1  2 15  2  5  2       -2 0.207761637014D-01 0.100000000000D+01
  </mgrwgt>
  </event>
  <event>
  4     66 0.45228882E-03 0.12472939E+03 0.75467711E-02 0.90951535E-01
        2 -1    0    0  501    0 0.00000000E+00 0.00000000E+00 0.50161755E+03 0.50161766E+03 0.32000000E+00 0.0000E+00 0.9000E+01
       -2 -1    0    0    0  501 0.00000000E+00 0.00000000E+00 -.39896972E+02 0.39898255E+02 0.32000000E+00 0.0000E+00 0.9000E+01
       25  1    1    2    0    0 -.45802448E+01 -.61489633E+02 0.12486809E+03 0.18713363E+03 0.12500000E+03 0.0000E+00 0.9000E+01
       23  1    1    2    0    0 0.45802448E+01 0.61489633E+02 0.33685249E+03 0.35438228E+03 0.91188000E+02 0.0000E+00 0.9000E+01
#aMCatNLO 1  0  0  1  2 0.12076908D+04 0.00000000D+00  -5  5  0 0.00000000D+00 0.00000000D+00 0.00000000D+00 0.00000000D+00 0.00000000D+00
  <mgrwgt>
 0.1671516921D+00    5    2    0
 0.141468712777324D+03 0.000000000000000D+00 0.000000000000000D+00 0.141468712777324D+03
 0.141468712777324D+03 0.000000000000000D+00 0.000000000000000D+00 -.141468712777324D+03
 0.154386319279310D+03 -.458024476389347D+01 -.614896327844617D+02 -.663941412968639D+02
 0.128551106275337D+03 0.458024476389347D+01 0.614896327844617D+02 0.663941412968639D+02
 0.000000000000000D+00 -.000000000000000D+00 -.000000000000000D+00 0.000000000000000D+00
 0.169229085002719D+04 0.000000000000000D+00 0.000000000000000D+00 0.169229085002719D+04
 0.960304727168741D+03 0.000000000000000D+00 0.000000000000000D+00 -.960304727168741D+03
 0.555494199065277D+03 0.512731886210148D+03 0.160145671374563D+03 -.663941412968639D+02
 0.684897147330212D+03 0.597365422882464D+03 0.315460331298515D+03 0.663941412968639D+02
 0.141220423080044D+04 -.111009730909261D+04 -.475606002673078D+03 0.731986122858450D+03
0.194179002826D-03 0.000000000000D+00 0.000000000000D+00 0.116193930843D-02 0.000000000000D+00  5 2 -2 25 23 21 0 0.77172038D-01 0.61381023D-02 0.15557421D+05 0.15557421D+05 0.15557421D+05 0.12460201D+01  1  2  2  1  5  1        2 0.163453809234D+00 0.100000000000D+01
-.105797125485D-04 0.000000000000D+00 -.745698499358D-06 0.116193930843D-02 0.000000000000D+00  5 2 -2 25 23 21 2 0.77172038D-01 0.61381023D-02 0.15557421D+05 0.15557421D+05 0.15557421D+05 0.12460201D+01  1  2  3  1  5  1        2 -.138266421751D-01 0.100000000000D+01
0.134091589729D-04 0.000000000000D+00 0.000000000000D+00 0.116193930843D-02 0.000000000000D+00  5 2 -2 25 23 21 2 0.77172038D-01 0.61381023D-02 0.15557421D+05 0.15557421D+05 0.15557421D+05 0.12460201D+01  1  2 15  1  5  1        2 0.175244499449D-01 0.100000000000D+01
0.567593924882D-03 0.000000000000D+00 -.204916221049D-03 0.116193930843D-02 0.000000000000D+00  5 2 -2 25 23 21 2 0.97874027D+00 0.61381023D-02 0.15557421D+05 0.15557421D+05 0.15557421D+05 0.12460201D+01  1  2  5  1  5  1        2 0.751246944156D-07 0.100000000000D+01
0.126062547519D-03 0.000000000000D+00 -.601284221747D-04 0.116193930843D-02 0.000000000000D+00  5 21 -2 25 23 -2 2 0.97874027D+00 0.61381023D-02 0.15557421D+05 0.15557421D+05 0.15557421D+05 0.12460201D+01  1  2  5  3  5  1        2 0.360051055868D-11 0.100000000000D+01
  </mgrwgt>
  </event>
  <event>
  4     66 0.45228882E-03 0.70870460E+02 0.75467711E-02 0.11941393E+00
        2 -1    0    0  501    0 0.00000000E+00 0.00000000E+00 0.44597247E+03 0.44597259E+03 0.32000000E+00 0.0000E+00 0.9000E+01
       -2 -1    0    0    0  501 0.00000000E+00 0.00000000E+00 -.36157436E+02 0.36158852E+02 0.32000000E+00 0.0000E+00 0.9000E+01
       25  1    1    2    0    0 0.56311984E+02 -.52117811E+01 0.29290570E+03 0.32344544E+03 0.12500000E+03 0.0000E+00 0.9000E+01
       23  1    1    2    0    0 -.56311984E+02 0.52117811E+01 0.11690933E+03 0.15868600E+03 0.91188000E+02 0.0000E+00 0.9000E+01
#aMCatNLO 1  0  0  2  1 0.58925381D+02 0.00000000D+00  -5  5  0 0.00000000D+00 0.00000000D+00 0.00000000D+00 0.00000000D+00 0.00000000D+00
  <mgrwgt>
 0.8356882611D-01    7    2    0
 0.126986574046190D+03 0.000000000000000D+00 0.000000000000000D+00 0.126986574046190D+03
 0.126986574046190D+03 0.000000000000000D+00 0.000000000000000D+00 -.126986574046190D+03
 0.141377364393328D+03 0.563119843895785D+02 -.521178106979742D+01 0.341226744994036D+02
 0.112595783699053D+03 -.563119843895785D+02 0.521178106979742D+01 -.341226744994036D+02
 0.000000000000000D+00 0.000000000000000D+00 -.000000000000000D+00 -.000000000000000D+00
 0.135218789652445D+03 0.000000000000000D+00 0.000000000000000D+00 0.135218789652445D+03
 0.309002672921934D+03 0.000000000000000D+00 0.000000000000000D+00 -.309002672921934D+03
 0.134173438765369D+03 0.316734143560744D+02 0.144896369230032D+02 0.341226744994036D+02
 0.126545874904293D+03 -.776950050009663D+02 0.223100065934687D+02 -.341226744994036D+02
 0.183502148904716D+03 0.460215906448919D+02 -.367996435164719D+02 -.173783883269488D+03
0.124645684288D-03 0.000000000000D+00 0.000000000000D+00 0.148108032641D-02 0.000000000000D+00  5 2 -2 25 23 21 0 0.68611267D-01 0.55628002D-02 0.14944872D+05 0.14944872D+05 0.14944872D+05 0.12480049D+01  1  2  2  2  5  2       -2 0.138105049635D+00 0.100000000000D+01
-.691258992131D-05 0.000000000000D+00 -.478672247627D-06 0.148108032641D-02 0.000000000000D+00  5 2 -2 25 23 21 2 0.68611267D-01 0.55628002D-02 0.14944872D+05 0.14944872D+05 0.14944872D+05 0.12480049D+01  1  2  3  2  5  2       -2 -.119290447107D-01 0.100000000000D+01
0.861805684300D-05 0.000000000000D+00 0.000000000000D+00 0.148108032641D-02 0.000000000000D+00  5 2 -2 25 23 21 2 0.68611267D-01 0.55628002D-02 0.14944872D+05 0.14944872D+05 0.14944872D+05 0.12480049D+01  1  2 15  2  5  2       -2 0.148721660867D-01 0.100000000000D+01
0.183232032534D-03 0.000000000000D+00 0.000000000000D+00 0.148108032641D-02 0.000000000000D+00  5 2 -2 25 23 21 2 0.68611267D-01 0.13440068D-01 0.24109678D+05 0.24109678D+05 0.24109678D+05 0.12249897D+01  1  2 12  2  5  2       -2 0.782041779219D-01 0.100000000000D+01
-.257137522975D-03 0.000000000000D+00 -.343213193405D-04 0.148108032641D-02 0.000000000000D+00  5 2 -2 25 23 21 2 0.68611267D-01 0.14298380D-01 0.14944872D+05 0.14944872D+05 0.14944872D+05 0.12480049D+01  1  2  5  2  5  2       -2 -.102106024721D+00 0.100000000000D+01
0.177009486509D-04 0.000000000000D+00 0.000000000000D+00 0.148108032641D-02 0.000000000000D+00  5 2 21 25 23 2 2 0.68611267D-01 0.13440068D-01 0.24109678D+05 0.24109678D+05 0.24109678D+05 0.12249897D+01  1  2 12  4  5  2       -2 0.112574460090D+00 0.100000000000D+01
-.247581352150D-04 0.000000000000D+00 -.358288628342D-05 0.148108032641D-02 0.000000000000D+00  5 2 21 25 23 2 2 0.68611267D-01 0.14298380D-01 0.14944872D+05 0.14944872D+05 0.14944872D+05 0.12480049D+01  1  2  5  4  5  2       -2 -.146151958195D+00 0.100000000000D+01
  </mgrwgt>
  </event>
  <event>
  4     66 0.45228882E-03 0.17321354E+03 0.75467711E-02 0.11704105E+00
        2 -1    0    0  501    0 0.00000000E+00 0.00000000E+00 0.49335643E+03 0.49335653E+03 0.32000000E+00 0.0000E+00 0.9000E+01
       -2 -1    0    0    0  501 0.00000000E+00 0.00000000E+00 -.66304465E+02 0.66305237E+02 0.32000000E+00 0.0000E+00 0.9000E+01
       25  1    1    2    0    0 0.13364261E+03 -.16845271E+02 0.30584606E+03 0.35680656E+03 0.12500000E+03 0.0000E+00 0.9000E+01
       23  1    1    2    0    0 -.13364261E+03 0.16845271E+02 0.12120590E+03 0.20285520E+03 0.91188000E+02 0.0000E+00 0.9000E+01
#aMCatNLO 1  0  0  2  1 0.81763182D+01 0.00000000D+00  -5  5  0 0.00000000D+00 0.00000000D+00 0.00000000D+00 0.00000000D+00 0.00000000D+00
  <mgrwgt>
 0.8087033803D-01    6    2    0
 0.180864531428560D+03 0.000000000000000D+00 0.000000000000000D+00 0.180864531428560D+03
 0.180864531428560D+03 0.000000000000000D+00 0.000000000000000D+00 -.180864531428560D+03
 0.190968431566226D+03 0.133642614103362D+03 -.168452714820744D+02 0.519598920243251D+02
 0.170760631290893D+03 -.133642614103362D+03 0.168452714820744D+02 -.519598920243251D+02
 0.000000000000000D+00 -.000000000000000D+00 0.000000000000000D+00 0.000000000000000D+00
 0.191255730085922D+03 0.000000000000000D+00 0.000000000000000D+00 0.191255730085922D+03
 0.182526295933271D+03 0.000000000000000D+00 0.000000000000000D+00 -.182526295933271D+03
 0.193989860449369D+03 0.137738850692429D+03 -.183096856312390D+02 0.519598920243251D+02
 0.167831597032896D+03 -.130039746200005D+03 0.155572377905325D+02 -.519598920243251D+02
 0.119605685369273D+02 -.769910449242395D+01 0.275244784070656D+01 0.872943415265056D+01
0.386692708142D-03 0.000000000000D+00 0.000000000000D+00 0.110793119042D-02 0.000000000000D+00  5 2 -2 25 23 21 0 0.75901056D-01 0.10200754D-01 0.30002930D+05 0.30002930D+05 0.30002930D+05 0.12148939D+01  1  2  2  2  5  2       -2 0.153760783988D+00 0.100000000000D+01
-.214341296100D-04 0.000000000000D+00 -.148500181779D-05 0.110793119042D-02 0.000000000000D+00  5 2 -2 25 23 21 2 0.75901056D-01 0.10200754D-01 0.30002930D+05 0.30002930D+05 0.30002930D+05 0.12148939D+01  1  2  3  2  5  2       -2 -.125794655673D-01 0.100000000000D+01
0.266050660314D-04 0.000000000000D+00 0.000000000000D+00 0.110793119042D-02 0.000000000000D+00  5 2 -2 25 23 21 2 0.75901056D-01 0.10200754D-01 0.30002930D+05 0.30002930D+05 0.30002930D+05 0.12148939D+01  1  2 15  2  5  2       -2 0.156142338479D-01 0.100000000000D+01
-.130109792175D-03 0.000000000000D+00 0.000000000000D+00 0.110793119042D-02 0.000000000000D+00  5 2 -2 25 23 21 2 0.75901056D-01 0.10200754D-01 0.30002930D+05 0.30002930D+05 0.30002930D+05 0.12148939D+01  1  2  4  2  5  2       -2 -.763600706167D-01 0.100000000000D+01
0.556774847349D-06 0.000000000000D+00 0.000000000000D+00 0.110793119042D-02 0.130234643323D-03  5 2 -2 25 23 21 2 0.80261794D-01 0.10294478D-01 0.31446594D+05 0.31446594D+05 0.31446594D+05 0.12127577D+01  1  2 11  2  5  2       -2 0.301897461869D-03 0.100000000000D+01
0.157720591445D-07 0.000000000000D+00 0.000000000000D+00 0.110793119042D-02 0.229046628345D-06  5 2 21 25 23 2 2 0.80261794D-01 0.10294478D-01 0.31446594D+05 0.31446594D+05 0.31446594D+05 0.12127577D+01  1  2 11  4  5  2       -2 0.132958919493D-03 0.100000000000D+01
  </mgrwgt>
  </event>
  <event>
  4     66 0.45228882E-03 0.12267534E+03 0.75467711E-02 0.11035873E+00
        2 -1    0    0  501    0 0.00000000E+00 0.00000000E+00 0.20763166E+03 0.20763190E+03 0.32000000E+00 0.0000E+00 0.9000E+01
       -2 -1    0    0    0  501 0.00000000E+00 0.00000000E+00 -.81388716E+02 0.81389345E+02 0.32000000E+00 0.0000E+00 0.9000E+01
       25  1    1    2    0    0 0.52888414E+02 -.22446292E+02 0.11744332E+03 0.18088381E+03 0.12500000E+03 0.0000E+00 0.9000E+01
       23  1    1    2    0    0 -.52888414E+02 0.22446292E+02 0.87996215E+01 0.10813744E+03 0.91188000E+02 0.0000E+00 0.9000E+01
#aMCatNLO 1  0  0  2  1 0.20935899D+03 0.00000000D+00  -5  5  0 0.00000000D+00 0.00000000D+00 0.00000000D+00 0.00000000D+00 0.00000000D+00
  <mgrwgt>
 0.1498785097D+00    5    2    0
 0.129996155871657D+03 0.000000000000000D+00 0.000000000000000D+00 0.129996155871657D+03
 0.129996155871657D+03 0.000000000000000D+00 0.000000000000000D+00 -.129996155871657D+03
 0.144053780512528D+03 0.528884144575565D+02 -.224462917435430D+02 0.427255343217751D+02
 0.115938531230785D+03 -.528884144575565D+02 0.224462917435430D+02 -.427255343217751D+02
 0.000000000000000D+00 0.000000000000000D+00 0.000000000000000D+00 -.000000000000000D+00
 0.244914703101698D+03 0.000000000000000D+00 0.000000000000000D+00 0.244914703101698D+03
 0.307368054005161D+03 0.000000000000000D+00 0.000000000000000D+00 -.307368054005161D+03
 0.158470609958144D+03 -.374813728544895D+02 -.791050543667585D+02 0.427255343217751D+02
 0.175336502593782D+03 -.139897805056054D+03 -.321056171913337D+02 -.427255343217751D+02
 0.218475644554932D+03 0.177379177910544D+03 0.111210671558092D+03 -.624533509034627D+02
0.182231829138D-03 0.000000000000D+00 0.000000000000D+00 0.140157656141D-02 0.000000000000D+00  5 2 -2 25 23 21 0 0.31943399D-01 0.12521408D-01 0.15049239D+05 0.15049239D+05 0.15049239D+05 0.12476603D+01  1  2  2  2  5  2       -2 0.129615385685D+00 0.100000000000D+01
-.100826341151D-04 0.000000000000D+00 -.699818206633D-06 0.140157656141D-02 0.000000000000D+00  5 2 -2 25 23 21 2 0.31943399D-01 0.12521408D-01 0.15049239D+05 0.15049239D+05 0.15049239D+05 0.12476603D+01  1  2  3  2  5  2       -2 -.111634658628D-01 0.100000000000D+01
0.126173962399D-04 0.000000000000D+00 0.000000000000D+00 0.140157656141D-02 0.000000000000D+00  5 2 -2 25 23 21 2 0.31943399D-01 0.12521408D-01 0.15049239D+05 0.15049239D+05 0.15049239D+05 0.12476603D+01  1  2 15  2  5  2       -2 0.139699477928D-01 0.100000000000D+01
0.648424309942D-04 0.000000000000D+00 -.605832758954D-04 0.140157656141D-02 0.000000000000D+00  5 2 -2 25 23 21 2 0.31943399D-01 0.53590385D-01 0.15049239D+05 0.15049239D+05 0.15049239D+05 0.12476603D+01  1  2  5  2  5  2       -2 0.548799521345D-02 0.100000000000D+01
0.113528433119D-04 0.000000000000D+00 -.105970054257D-04 0.140157656141D-02 0.000000000000D+00  5 2 21 25 23 2 2 0.31943399D-01 0.53590385D-01 0.15049239D+05 0.15049239D+05 0.15049239D+05 0.12476603D+01  1  2  5  4  5  2       -2 0.119686468635D-01 0.100000000000D+01
  </mgrwgt>
  </event>
  <event>
  4     66 0.45228882E-03 0.13450910E+03 0.75467711E-02 0.10519003E+00
        2 -1    0    0  501    0 0.00000000E+00 0.00000000E+00 0.81873050E+03 0.81873056E+03 0.32000000E+00 0.0000E+00 0.9000E+01
       -2 -1    0    0    0  501 0.00000000E+00 0.00000000E+00 -.26958582E+02 0.26960481E+02 0.32000000E+00 0.0000E+00 0.9000E+01
       25  1    1    2    0    0 -.79818149E+01 -.79015448E+02 0.24986126E+03 0.29045275E+03 0.12500000E+03 0.0000E+00 0.9000E+01
       23  1    1    2    0    0 0.79818149E+01 0.79015448E+02 0.54191065E+03 0.55523829E+03 0.91188000E+02 0.0000E+00 0.9000E+01
#aMCatNLO 1  0  0  1  1 0.32985949D+03 0.00000000D+00  -5  5  0 0.00000000D+00 0.00000000D+00 0.00000000D+00 0.00000000D+00 0.00000000D+00
  <mgrwgt>
 0.1925624150D+00    3    2    0
 0.148568645882795D+03 0.000000000000000D+00 0.000000000000000D+00 0.148568645882795D+03
 0.148568645882795D+03 0.000000000000000D+00 0.000000000000000D+00 -.148568645882795D+03
 0.160868934097320D+03 -.798181487775460D+01 -.790154479575814D+02 -.628224766538841D+02
 0.136268357668271D+03 0.798181487775460D+01 0.790154479575814D+02 0.628224766538841D+02
 0.000000000000000D+00 0.000000000000000D+00 -.000000000000000D+00 -.000000000000000D+00
 0.359872061115233D+03 0.000000000000000D+00 0.000000000000000D+00 0.359872061115233D+03
 0.419245353136932D+03 0.000000000000000D+00 0.000000000000000D+00 -.419245353136932D+03
 0.176930042387189D+03 -.101013658671540D+03 0.391000906392085D+02 -.628224766538841D+02
 0.267027001113942D+03 -.103088121483365D+03 0.220032596712416D+03 0.628224766538841D+02
 0.335160370751033D+03 0.204101780154905D+03 -.259132687351624D+03 -.593732920216992D+02
0.218564905423D-03 0.000000000000D+00 0.000000000000D+00 0.115754216583D-02 0.000000000000D+00  5 2 -2 25 23 21 0 0.12595869D+00 0.41476250D-02 0.18092697D+05 0.18092697D+05 0.18092697D+05 0.12386469D+01  1  2  2  1  5  1        2 0.188443664454D+00 0.100000000000D+01
-.119965811806D-04 0.000000000000D+00 -.839346786287D-06 0.115754216583D-02 0.000000000000D+00  5 2 -2 25 23 21 2 0.12595869D+00 0.41476250D-02 0.18092697D+05 0.18092697D+05 0.18092697D+05 0.12386469D+01  1  2  3  1  5  1        2 -.158691500615D-01 0.100000000000D+01
0.151102277689D-04 0.000000000000D+00 0.000000000000D+00 0.115754216583D-02 0.000000000000D+00  5 2 -2 25 23 21 2 0.12595869D+00 0.41476250D-02 0.18092697D+05 0.18092697D+05 0.18092697D+05 0.12386469D+01  1  2 15  1  5  1        2 0.199879005792D-01 0.100000000000D+01
  </mgrwgt>
  </event>
  <event>
  4     66 0.45228882E-03 0.11260584E+03 0.75467711E-02 0.11023625E+00
        2 -1    0    0  501    0 0.00000000E+00 0.00000000E+00 0.74553353E+03 0.74553360E+03 0.32000000E+00 0.0000E+00 0.9000E+01
       -2 -1    0    0    0  501 0.00000000E+00 0.00000000E+00 -.20010063E+02 0.20012622E+02 0.32000000E+00 0.0000E+00 0.9000E+01
       25  1    1    2    0    0 -.24324710E+02 -.19535261E+02 0.26022279E+03 0.29036910E+03 0.12500000E+03 0.0000E+00 0.9000E+01
       23  1    1    2    0    0 0.24324710E+02 0.19535261E+02 0.46530069E+03 0.47517712E+03 0.91188000E+02 0.0000E+00 0.9000E+01
#aMCatNLO 1  0  0  2  2 0.22124421D+03 0.00000000D+00  -5  5  0 0.00000000D+00 0.00000000D+00 0.00000000D+00 0.00000000D+00 0.00000000D+00
  <mgrwgt>
 0.1959700710D+00    3    2    0
 0.122144090770138D+03 0.000000000000000D+00 0.000000000000000D+00 0.122144090770138D+03
 0.122144090770138D+03 0.000000000000000D+00 0.000000000000000D+00 -.122144090770138D+03
 0.137105413519996D+03 -.243247097021807D+02 -.195352611647525D+02 -.468996427024640D+02
 0.107182768020280D+03 0.243247097021807D+02 0.195352611647525D+02 0.468996427024640D+02
 0.000000000000000D+00 0.000000000000000D+00 0.000000000000000D+00 0.000000000000000D+00
 0.316636841894348D+03 0.000000000000000D+00 0.000000000000000D+00 0.316636841894348D+03
 0.245382605843150D+03 0.000000000000000D+00 0.000000000000000D+00 -.245382605843150D+03
 0.204883535117337D+03 -.381579902593629D+02 -.150654088082351D+03 -.468996427024640D+02
 0.124700619498262D+03 0.149451435820619D+02 -.693690086201540D+02 0.468996427024640D+02
 0.232435293121900D+03 0.232128466773010D+02 0.220023096702505D+03 0.712542360511981D+02
0.129336421804D-03 0.000000000000D+00 0.000000000000D+00 0.145585371487D-02 0.000000000000D+00  5 2 -2 25 23 21 0 0.11469767D+00 0.30786734D-02 0.12680076D+05 0.12680076D+05 0.12680076D+05 0.12562279D+01  1  2  2  2  5  2       -2 0.191911401554D+00 0.100000000000D+01
-.712760110908D-05 0.000000000000D+00 -.496685914788D-06 0.145585371487D-02 0.000000000000D+00  5 2 -2 25 23 21 2 0.11469767D+00 0.30786734D-02 0.12680076D+05 0.12680076D+05 0.12680076D+05 0.12562279D+01  1  2  3  2  5  2       -2 -.166901492277D-01 0.100000000000D+01
0.886087362049D-05 0.000000000000D+00 0.000000000000D+00 0.145585371487D-02 0.000000000000D+00  5 2 -2 25 23 21 2 0.11469767D+00 0.30786734D-02 0.12680076D+05 0.12680076D+05 0.12680076D+05 0.12562279D+01  1  2 15  2  5  2       -2 0.207488186769D-01 0.100000000000D+01
  </mgrwgt>
  </event>
  <event>
  4     66 0.45228882E-03 0.14135534E+03 0.75467711E-02 0.11999471E+00
        2 -1    0    0  501    0 0.00000000E+00 0.00000000E+00 0.24463041E+03 0.24463062E+03 0.32000000E+00 0.0000E+00 0.9000E+01
       -2 -1    0    0    0  501 0.00000000E+00 0.00000000E+00 -.83094925E+02 0.83095541E+02 0.32000000E+00 0.0000E+00 0.9000E+01
       25  1    1    2    0    0 0.81131707E+02 0.39949764E+02 0.10932978E+03 0.18909347E+03 0.12500000E+03 0.0000E+00 0.9000E+01
       23  1    1    2    0    0 -.81131707E+02 -.39949764E+02 0.52205704E+02 0.13863270E+03 0.91188000E+02 0.0000E+00 0.9000E+01
#aMCatNLO 1  0  0  1  1 0.17604189D+02 0.00000000D+00  -5  5  0 0.00000000D+00 0.00000000D+00 0.00000000D+00 0.00000000D+00 0.00000000D+00
  <mgrwgt>
 0.8429559564D-01    4    2    0
 0.142575176375655D+03 0.000000000000000D+00 0.000000000000000D+00 0.142575176375655D+03
 0.142575176375655D+03 0.000000000000000D+00 0.000000000000000D+00 -.142575176375655D+03
 0.155392534982213D+03 0.811317069394389D+02 0.399497637498299D+02 0.185338186465693D+02
 0.129757817769097D+03 -.811317069394389D+02 -.399497637498299D+02 -.185338186465693D+02
 0.000000000000000D+00 0.000000000000000D+00 -.000000000000000D+00 -.000000000000000D+00
 0.146361863901231D+03 0.000000000000000D+00 0.000000000000000D+00 0.146361863901231D+03
 0.164886898612854D+03 0.000000000000000D+00 0.000000000000000D+00 -.164886898612854D+03
 0.157170206028170D+03 0.793214782943729D+02 0.494173482747589D+02 0.185338186465693D+02
 0.128523040578121D+03 -.826275583219196D+02 -.321263877144494D+02 -.185338186465693D+02
 0.255555159077944D+02 0.330608002754668D+01 -.172909605603095D+02 -.185250347116222D+02
0.247604745051D-03 0.000000000000D+00 0.000000000000D+00 0.138403555207D-02 0.000000000000D+00  5 2 -2 25 23 21 0 0.37635511D-01 0.12783898D-01 0.19981331D+05 0.19981331D+05 0.19981331D+05 0.12338707D+01  1  2  2  1  5  1        2 0.144277287900D+00 0.100000000000D+01
-.137545843154D-04 0.000000000000D+00 -.950867416822D-06 0.138403555207D-02 0.000000000000D+00  5 2 -2 25 23 21 2 0.37635511D-01 0.12783898D-01 0.19981331D+05 0.19981331D+05 0.19981331D+05 0.12338707D+01  1  2  3  1  5  1        2 -.122018527320D-01 0.100000000000D+01
0.171229161780D-04 0.000000000000D+00 0.000000000000D+00 0.138403555207D-02 0.000000000000D+00  5 2 -2 25 23 21 2 0.37635511D-01 0.12783898D-01 0.19981331D+05 0.19981331D+05 0.19981331D+05 0.12338707D+01  1  2 15  1  5  1        2 0.151899393507D-01 0.100000000000D+01
-.709829197254D-04 0.000000000000D+00 0.000000000000D+00 0.138403555207D-02 0.000000000000D+00  5 2 -2 25 23 21 2 0.37635511D-01 0.12783898D-01 0.19981331D+05 0.19981331D+05 0.19981331D+05 0.12338707D+01  1  2  4  1  5  1        2 -.629697788834D-01 0.100000000000D+01
  </mgrwgt>
  </event>
  <event>
  4     66 0.45228882E-03 0.53906011E+02 0.75467711E-02 0.11831892E+00
        2 -1    0    0  501    0 0.00000000E+00 0.00000000E+00 0.33980824E+04 0.33980824E+04 0.32000000E+00 0.0000E+00 0.9000E+01
       -2 -1    0    0    0  501 0.00000000E+00 0.00000000E+00 -.65493422E+01 0.65571551E+01 0.32000000E+00 0.0000E+00 0.9000E+01
       25  1    1    2    0    0 0.19171271E+02 0.51880347E+02 0.85431823E+03 0.86518423E+03 0.12500000E+03 0.0000E+00 0.9000E+01
       23  1    1    2    0    0 -.19171271E+02 -.51880347E+02 0.25372148E+04 0.25394554E+04 0.91188000E+02 0.0000E+00 0.9000E+01
#aMCatNLO 1  0  0  1  2 0.74855717D+02 0.00000000D+00  -5  5  0 0.00000000D+00 0.00000000D+00 0.00000000D+00 0.00000000D+00 0.00000000D+00
  <mgrwgt>
 0.3247446558D+00    8    2    0
 0.149226440030979D+03 0.000000000000000D+00 0.000000000000000D+00 0.149226440030979D+03
 0.149226440030979D+03 0.000000000000000D+00 0.000000000000000D+00 -.149226440030979D+03
 0.161472508245302D+03 0.191712705785914D+02 0.518803473621193D+02 -.859608216632291D+02
 0.136980371816656D+03 -.191712705785914D+02 -.518803473621193D+02 0.859608216632291D+02
 0.000000000000000D+00 -.000000000000000D+00 0.000000000000000D+00 0.000000000000000D+00
 0.272629627714862D+03 0.000000000000000D+00 0.000000000000000D+00 0.272629627714862D+03
 0.165642044700055D+03 0.000000000000000D+00 0.000000000000000D+00 -.165642044700055D+03
 0.158816564242534D+03 0.425405680898721D+02 0.199684321712119D+02 -.859608216632291D+02
 0.148880526985345D+03 0.168603916056544D+01 -.803620207707943D+02 0.859608216632291D+02
 0.130574581187038D+03 -.442266072504375D+02 0.603935885995824D+02 0.106987583014807D+03
0.586883648806D-03 0.000000000000D+00 0.000000000000D+00 0.983091073283D-03 0.000000000000D+00  5 2 -2 25 23 21 0 0.52278251D+00 0.10081933D-02 0.14803646D+05 0.14803646D+05 0.14803646D+05 0.12484754D+01  1  2  2  1  5  1        2 0.150038021292D+00 0.100000000000D+01
-.309524497709D-04 0.000000000000D+00 -.225378774143D-05 0.983091073283D-03 0.000000000000D+00  5 2 -2 25 23 21 2 0.52278251D+00 0.10081933D-02 0.14803646D+05 0.14803646D+05 0.14803646D+05 0.12484754D+01  1  2  3  1  5  1        2 -.123340116203D-01 0.100000000000D+01
0.401404737737D-04 0.000000000000D+00 0.000000000000D+00 0.983091073283D-03 0.000000000000D+00  5 2 -2 25 23 21 2 0.52278251D+00 0.10081933D-02 0.14803646D+05 0.14803646D+05 0.14803646D+05 0.12484754D+01  1  2 15  1  5  1        2 0.159952790048D-01 0.100000000000D+01
0.159294984261D-03 0.000000000000D+00 0.000000000000D+00 0.983091073283D-03 0.000000000000D+00  5 2 -2 25 23 21 2 0.96272203D+00 0.10081933D-02 0.27217542D+05 0.27217542D+05 0.27217542D+05 0.12193602D+01  1  2 12  1  5  1        2 0.222008677211D-05 0.100000000000D+01
-.396804487596D-03 0.000000000000D+00 -.121118388659D-03 0.983091073283D-03 0.000000000000D+00  5 2 -2 25 23 21 2 0.95684090D+00 0.10081933D-02 0.14803646D+05 0.14803646D+05 0.14803646D+05 0.12484754D+01  1  2  5  1  5  1        2 -.110538712144D-04 0.100000000000D+01
0.429263952474D-03 0.000000000000D+00 0.106442131699D-03 0.983091073283D-03 0.000000000000D+00  5 2 -2 25 23 21 2 0.52278251D+00 0.10081933D-02 0.14803646D+05 0.14803646D+05 0.14803646D+05 0.12484754D+01  1  2  6  1  5  1        2 0.171054201434D+00 0.100000000000D+01
0.106186926823D-04 0.000000000000D+00 0.000000000000D+00 0.983091073283D-03 0.000000000000D+00  5 21 -2 25 23 -2 2 0.96272203D+00 0.10081933D-02 0.27217542D+05 0.27217542D+05 0.27217542D+05 0.12193602D+01  1  2 12  3  5  1        2 0.161333274362D-09 0.100000000000D+01
-.196181873773D-04 0.000000000000D+00 -.800187518590D-05 0.983091073283D-03 0.000000000000D+00  5 21 -2 25 23 -2 2 0.95684090D+00 0.10081933D-02 0.14803646D+05 0.14803646D+05 0.14803646D+05 0.12484754D+01  1  2  5  3  5  1        2 -.676584996137D-09 0.100000000000D+01
  </mgrwgt>
  </event>
  <event>
  4     66 0.45228882E-03 0.14988872E+03 0.75467711E-02 0.11986269E+00
        2 -1    0    0  501    0 0.00000000E+00 0.00000000E+00 0.27768974E+04 0.27768974E+04 0.32000000E+00 0.0000E+00 0.9000E+01
       -2 -1    0    0    0  501 0.00000000E+00 0.00000000E+00 -.81169029E+01 0.81232082E+01 0.32000000E+00 0.0000E+00 0.9000E+01
       25  1    1    2    0    0 -.59618682E+02 0.84206645E+02 0.15802762E+04 0.15885663E+04 0.12500000E+03 0.0000E+00 0.9000E+01
       23  1    1    2    0    0 0.59618682E+02 -.84206645E+02 0.11885043E+04 0.11964543E+04 0.91188000E+02 0.0000E+00 0.9000E+01
#aMCatNLO 1  0  0  2  2 0.32302474D+01 0.00000000D+00  -5  5  0 0.00000000D+00 0.00000000D+00 0.00000000D+00 0.00000000D+00 0.00000000D+00
  <mgrwgt>
 0.2283093512D+00    6    2    0
 0.150161954765267D+03 0.000000000000000D+00 0.000000000000000D+00 0.150161954765267D+03
 0.150161954765267D+03 0.000000000000000D+00 0.000000000000000D+00 -.150161954765267D+03
 0.162331729505191D+03 -.596186818726956D+02 0.842066454681639D+02 0.902463489055998D+01
 0.137992180025343D+03 0.596186818726956D+02 -.842066454681639D+02 -.902463489055998D+01
 0.000000000000000D+00 0.000000000000000D+00 -.000000000000000D+00 0.000000000000000D+00
 0.153102521908846D+03 0.000000000000000D+00 0.000000000000000D+00 0.153102521908846D+03
 0.151060384813334D+03 0.000000000000000D+00 0.000000000000000D+00 -.151060384813334D+03
 0.163192260080304D+03 -.613113244211623D+02 0.846533591355517D+02 0.902463489055998D+01
 0.137149021021988D+03 0.581880171025753D+02 -.838290716520963D+02 -.902463489055998D+01
 0.382162561988813D+01 0.312330731858701D+01 -.824287483455311D+00 0.204213709551172D+01
0.448660951563D-03 0.000000000000D+00 0.000000000000D+00 0.134150832219D-02 0.000000000000D+00  5 2 -2 25 23 21 0 0.42721548D+00 0.12492407D-02 0.22466628D+05 0.22466628D+05 0.22466628D+05 0.12283040D+01  1  2  2  2  5  2       -2 0.195484352023D+00 0.100000000000D+01
-.249255078955D-04 0.000000000000D+00 -.172297618914D-05 0.134150832219D-02 0.000000000000D+00  5 2 -2 25 23 21 2 0.42721548D+00 0.12492407D-02 0.22466628D+05 0.22466628D+05 0.22466628D+05 0.12283040D+01  1  2  3  2  5  2       -2 -.163851147542D-01 0.100000000000D+01
0.310201022847D-04 0.000000000000D+00 0.000000000000D+00 0.134150832219D-02 0.000000000000D+00  5 2 -2 25 23 21 2 0.42721548D+00 0.12492407D-02 0.22466628D+05 0.22466628D+05 0.22466628D+05 0.12283040D+01  1  2 15  2  5  2       -2 0.203914775880D-01 0.100000000000D+01
-.551409271933D-03 0.000000000000D+00 0.000000000000D+00 0.134150832219D-02 0.000000000000D+00  5 2 -2 25 23 21 2 0.42721548D+00 0.12492407D-02 0.22466628D+05 0.22466628D+05 0.22466628D+05 0.12283040D+01  1  2  4  2  5  2       -2 -.362476232582D+00 0.100000000000D+01
0.550051741849D-03 0.000000000000D+00 0.000000000000D+00 0.134150832219D-02 0.103298902606D-02  5 2 -2 25 23 21 2 0.43558148D+00 0.12567150D-02 0.22955971D+05 0.22955971D+05 0.22955971D+05 0.12272893D+01  1  2 11  2  5  2       -2 0.333607305723D+00 0.100000000000D+01
0.422926681601D-05 0.000000000000D+00 0.000000000000D+00 0.134150832219D-02 0.115739691821D-05  5 2 21 25 23 2 2 0.43558148D+00 0.12567150D-02 0.22955971D+05 0.22955971D+05 0.22955971D+05 0.12272893D+01  1  2 11  4  5  2       -2 0.576875632469D-01 0.100000000000D+01
  </mgrwgt>
  </event>
  <event>
  4     66 0.45228882E-03 0.12489163E+03 0.75467711E-02 0.11353634E+00
        2 -1    0    0  501    0 0.00000000E+00 0.00000000E+00 0.32634763E+03 0.32634779E+03 0.32000000E+00 0.0000E+00 0.9000E+01
       -2 -1    0    0    0  501 0.00000000E+00 0.00000000E+00 -.91186483E+02 0.91187044E+02 0.32000000E+00 0.0000E+00 0.9000E+01
       25  1    1    2    0    0 -.46767852E+02 0.40677545E+02 0.26829411E+03 0.30240473E+03 0.12500000E+03 0.0000E+00 0.9000E+01
       23  1    1    2    0    0 0.46767852E+02 -.40677545E+02 -.33132961E+02 0.11513010E+03 0.91188000E+02 0.0000E+00 0.9000E+01
#aMCatNLO 1  0  0  2  1 0.15082129D+03 0.00000000D+00  -5  5  0 0.00000000D+00 0.00000000D+00 0.00000000D+00 0.00000000D+00 0.00000000D+00
  <mgrwgt>
 0.1419246113D+00    3    2    0
 0.172506934523792D+03 0.000000000000000D+00 0.000000000000000D+00 0.172506934523792D+03
 0.172506934523792D+03 0.000000000000000D+00 0.000000000000000D+00 -.172506934523792D+03
 0.183100347299021D+03 -.467678523471606D+02 0.406775449005317D+02 0.118569989916174D+03
 0.161913521748562D+03 0.467678523471606D+02 -.406775449005317D+02 -.118569989916174D+03
 0.000000000000000D+00 0.000000000000000D+00 -.000000000000000D+00 0.000000000000000D+00
 0.330670177906869D+03 0.000000000000000D+00 0.000000000000000D+00 0.330670177906869D+03
 0.228204467713406D+03 0.000000000000000D+00 0.000000000000000D+00 -.228204467713406D+03
 0.225823411779925D+03 -.927928056347882D+02 0.112702555523946D+03 0.118569989916174D+03
 0.150715603619320D+03 0.115809976537143D+02 0.143867930741750D+02 -.118569989916174D+03
 0.182335630221031D+03 0.812118079810739D+02 -.127089348598121D+03 0.102465710193463D+03
0.375341257290D-03 0.000000000000D+00 0.000000000000D+00 0.726745062335D-03 0.000000000000D+00  5 2 -2 25 23 21 0 0.50207383D-01 0.14028745D-01 0.15597920D+05 0.15597920D+05 0.15597920D+05 0.12458920D+01  1  2  2  2  5  2       -2 0.137713958162D+00 0.100000000000D+01
-.182073497457D-04 0.000000000000D+00 -.144140925762D-05 0.726745062335D-03 0.000000000000D+00  5 2 -2 25 23 21 2 0.50207383D-01 0.14028745D-01 0.15597920D+05 0.15597920D+05 0.15597920D+05 0.12458920D+01  1  2  3  2  5  2       -2 -.103695318861D-01 0.100000000000D+01
0.256006279802D-04 0.000000000000D+00 0.000000000000D+00 0.726745062335D-03 0.000000000000D+00  5 2 -2 25 23 21 2 0.50207383D-01 0.14028745D-01 0.15597920D+05 0.15597920D+05 0.15597920D+05 0.12458920D+01  1  2 15  2  5  2       -2 0.145801850271D-01 0.100000000000D+01
  </mgrwgt>
  </event>
  <event>
  4     66 0.45228882E-03 0.21021049E+03 0.75467711E-02 0.11143957E+00
        2 -1    0    0  501    0 0.00000000E+00 0.00000000E+00 0.45489590E+03 0.45489601E+03 0.32000000E+00 0.0000E+00 0.9000E+01
       -2 -1    0    0    0  501 0.00000000E+00 0.00000000E+00 -.12668359E+03 0.12668399E+03 0.32000000E+00 0.0000E+00 0.9000E+01
       25  1    1    2    0    0 -.12366936E+03 0.13038323E+03 0.30964643E+03 0.37920945E+03 0.12500000E+03 0.0000E+00 0.9000E+01
       23  1    1    2    0    0 0.12366936E+03 -.13038323E+03 0.18565887E+02 0.20237056E+03 0.91188000E+02 0.0000E+00 0.9000E+01
#aMCatNLO 1  0  0  1  1 0.70236118D+02 0.00000000D+00  -5  5  0 0.00000000D+00 0.00000000D+00 0.00000000D+00 0.00000000D+00 0.00000000D+00
  <mgrwgt>
 0.9091989163D-01    4    2    0
 0.240058316854187D+03 0.000000000000000D+00 0.000000000000000D+00 0.240058316854187D+03
 0.240058316854187D+03 0.000000000000000D+00 0.000000000000000D+00 -.240058316854187D+03
 0.247670788639990D+03 -.123669359654793D+03 0.130383234883976D+03 0.115853015020405D+03
 0.232445845068383D+03 0.123669359654793D+03 -.130383234883976D+03 -.115853015020405D+03
 0.000000000000000D+00 0.000000000000000D+00 0.000000000000000D+00 -.000000000000000D+00
 0.265425004378090D+03 0.000000000000000D+00 0.000000000000000D+00 0.265425004378090D+03
 0.296677108420447D+03 0.000000000000000D+00 0.000000000000000D+00 -.296677108420447D+03
 0.244178302785778D+03 -.143176816041783D+03 0.100381879889560D+03 0.115853015020405D+03
 0.241048545458143D+03 0.104889877627276D+03 -.159265006845519D+03 -.115853015020405D+03
 0.768752645546164D+02 0.382869384145078D+02 0.588831269559595D+02 -.312521040423569D+02
0.114292081739D-02 0.000000000000D+00 0.000000000000D+00 0.835087729776D-03 0.000000000000D+00  5 2 -2 25 23 21 0 0.69984025D-01 0.19489823D-01 0.44188449D+05 0.44188449D+05 0.44188449D+05 0.11976330D+01  1  2  2  1  5  1        2 0.173088641261D+00 0.100000000000D+01
-.621346528373D-04 0.000000000000D+00 -.438911687673D-05 0.835087729776D-03 0.000000000000D+00  5 2 -2 25 23 21 2 0.69984025D-01 0.19489823D-01 0.44188449D+05 0.44188449D+05 0.44188449D+05 0.11976330D+01  1  2  3  1  5  1        2 -.134968929410D-01 0.100000000000D+01
0.781485493305D-04 0.000000000000D+00 0.000000000000D+00 0.835087729776D-03 0.000000000000D+00  5 2 -2 25 23 21 2 0.69984025D-01 0.19489823D-01 0.44188449D+05 0.44188449D+05 0.44188449D+05 0.11976330D+01  1  2 15  1  5  1        2 0.169754324784D-01 0.100000000000D+01
-.394288122624D-03 0.000000000000D+00 0.000000000000D+00 0.835087729776D-03 0.000000000000D+00  5 2 -2 25 23 21 2 0.69984025D-01 0.19489823D-01 0.44188449D+05 0.44188449D+05 0.44188449D+05 0.11976330D+01  1  2  4  1  5  1        2 -.856472891690D-01 0.100000000000D+01
  </mgrwgt>
  </event>
  <event>
  4     66 0.45228882E-03 0.16678130E+03 0.75467711E-02 0.10919451E+00
        2 -1    0    0  501    0 0.00000000E+00 0.00000000E+00 0.13860032E+04 0.13860033E+04 0.32000000E+00 0.0000E+00 0.9000E+01
       -2 -1    0    0    0  501 0.00000000E+00 0.00000000E+00 -.20208348E+02 0.20210881E+02 0.32000000E+00 0.0000E+00 0.9000E+01
       25  1    1    2    0    0 0.99355954E+02 -.78066170E+02 0.78593537E+03 0.80578244E+03 0.12500000E+03 0.0000E+00 0.9000E+01
       23  1    1    2    0    0 -.99355954E+02 0.78066170E+02 0.57985952E+03 0.60043172E+03 0.91188000E+02 0.0000E+00 0.9000E+01
#aMCatNLO 1  0  0  2  1 0.19003479D+03 0.00000000D+00  -5  5  0 0.00000000D+00 0.00000000D+00 0.00000000D+00 0.00000000D+00 0.00000000D+00
  <mgrwgt>
 0.1960250409D+00    5    2    0
 0.167363802799160D+03 0.000000000000000D+00 0.000000000000000D+00 0.167363802799160D+03
 0.167363802799160D+03 0.000000000000000D+00 0.000000000000000D+00 -.167363802799160D+03
 0.178282753811483D+03 0.993559539136920D+02 -.780661704763882D+02 0.139214853969498D+02
 0.156444851786838D+03 -.993559539136920D+02 0.780661704763882D+02 -.139214853969498D+02
 0.000000000000000D+00 0.000000000000000D+00 0.000000000000000D+00 -.000000000000000D+00
 0.270025171663541D+03 0.000000000000000D+00 0.000000000000000D+00 0.270025171663541D+03
 0.308844022492560D+03 0.000000000000000D+00 0.000000000000000D+00 -.308844022492560D+03
 0.174547439153010D+03 0.161285893049269D+02 -.119949445043523D+03 0.139214853969498D+02
 0.210362671120248D+03 -.185880361572019D+03 0.345236945161345D+02 -.139214853969498D+02
 0.193959083882844D+03 0.169751772267092D+03 0.854257505273887D+02 -.388188508290190D+02
0.271763875614D-03 0.000000000000D+00 0.000000000000D+00 0.124094836375D-02 0.000000000000D+00  5 2 -2 25 23 21 0 0.21323146D+00 0.31091743D-02 0.27816000D+05 0.27816000D+05 0.27816000D+05 0.12183588D+01  1  2  2  2  5  2       -2 0.169371628319D+00 0.100000000000D+01
-.150977699409D-04 0.000000000000D+00 -.104364483943D-05 0.124094836375D-02 0.000000000000D+00  5 2 -2 25 23 21 2 0.21323146D+00 0.31091743D-02 0.27816000D+05 0.27816000D+05 0.27816000D+05 0.12183588D+01  1  2  3  2  5  2       -2 -.139672907077D-01 0.100000000000D+01
0.187204296318D-04 0.000000000000D+00 0.000000000000D+00 0.124094836375D-02 0.000000000000D+00  5 2 -2 25 23 21 2 0.21323146D+00 0.31091743D-02 0.27816000D+05 0.27816000D+05 0.27816000D+05 0.12183588D+01  1  2 15  2  5  2       -2 0.173186956658D-01 0.100000000000D+01
0.299766709588D-04 0.000000000000D+00 -.790098365192D-04 0.124094836375D-02 0.000000000000D+00  5 2 -2 25 23 21 2 0.21323146D+00 0.99111299D-02 0.27816000D+05 0.27816000D+05 0.27816000D+05 0.12183588D+01  1  2  5  2  5  2       -2 0.475520829575D-02 0.100000000000D+01
0.745044492675D-05 0.000000000000D+00 -.105410611284D-04 0.124094836375D-02 0.000000000000D+00  5 2 21 25 23 2 2 0.21323146D+00 0.99111299D-02 0.27816000D+05 0.27816000D+05 0.27816000D+05 0.12183588D+01  1  2  5  4  5  2       -2 0.185467993138D-01 0.100000000000D+01
  </mgrwgt>
  </event>
  <event>
  5     66 0.45228882E-03 0.12815571E+03 0.75467711E-02 0.11628548E+00
        2 -1    0    0  501    0 0.00000000E+00 0.00000000E+00 0.27194482E+04 0.27194482E+04 0.32000000E+00 0.0000E+00 0.9000E+01
       21 -1    0    0  502  501 0.00000000E+00 0.00000000E+00 -.26898899E+02 0.26909353E+02 0.75000000E+00 0.0000E+00 0.9000E+01
       25  1    1    2    0    0 -.10619490E+03 0.50636572E+02 0.10184154E+04 0.10327809E+04 0.12500000E+03 0.0000E+00 0.9000E+01
       23  1    1    2    0    0 0.39029317E+02 0.20111422E+02 0.15606427E+04 0.15639210E+04 0.91188000E+02 0.0000E+00 0.9000E+01
        2  1    1    2  502    0 0.67165579E+02 -.70747994E+02 0.11349119E+03 0.14965576E+03 0.32000000E+00 0.0000E+00 0.9000E+01
#aMCatNLO 2  0  0  2  1 0.97552517D+02 0.00000000D+00  -5  5  0 0.00000000D+00 0.00000000D+00 0.00000000D+00 0.00000000D+00 0.00000000D+00
  <mgrwgt>
 0.2100913455D+00    2    2    0
 0.143006174378061D+03 0.000000000000000D+00 0.000000000000000D+00 0.143006174378061D+03
 0.143006174378061D+03 0.000000000000000D+00 0.000000000000000D+00 -.143006174378061D+03
 0.155784903492014D+03 -.675210026428170D+02 0.989992613513836D+01 -.631414429724534D+02
 0.130227445264107D+03 0.675210026428170D+02 -.989992613513836D+01 0.631414429724534D+02
 0.000000000000000D+00 0.000000000000000D+00 -.000000000000000D+00 -.000000000000000D+00
 0.158777584560289D+03 0.000000000000000D+00 0.000000000000000D+00 0.158777584560289D+03
 0.460798494382724D+03 0.000000000000000D+00 0.000000000000000D+00 -.460798494382724D+03
 0.182902324231000D+03 -.106194896236477D+03 0.506365717814901D+02 -.631414429724534D+02
 0.119288935241319D+03 0.390293172184293D+02 0.201114222228888D+02 0.631414429724534D+02
 0.317384819470694D+03 0.671655790180479D+02 -.707479940043790D+02 -.302020909822436D+03
-.846614185687D-05 0.000000000000D+00 0.000000000000D+00 0.117882796563D-02 0.000000000000D+00  5 2 21 25 23 2 2 0.37681975D+00 0.40256778D-02 0.34302396D+05 0.34302396D+05 0.34302396D+05 0.12088368D+01  1  2 13  4  5  2       -2 -.268641674194D-01 0.100000000000D+01
0.109923584905D-03 0.000000000000D+00 0.000000000000D+00 0.117882796563D-02 0.306079541620D-06  5 2 21 25 23 2 2 0.41837725D+00 0.41390957D-02 0.34302396D+05 0.34302396D+05 0.34302396D+05 0.12088368D+01  1  2  1  4  5  2       -2 0.236955512931D+00 0.100000000000D+01
  </mgrwgt>
  </event>
  <event>
  4     66 0.45228882E-03 0.23749947E+03 0.75467711E-02 0.97723685E-01
        2 -1    0    0  501    0 0.00000000E+00 0.00000000E+00 0.21585091E+04 0.21585091E+04 0.32000000E+00 0.0000E+00 0.9000E+01
       -2 -1    0    0    0  501 0.00000000E+00 0.00000000E+00 -.29011750E+02 0.29013515E+02 0.32000000E+00 0.0000E+00 0.9000E+01
       25  1    1    2    0    0 -.18352964E+03 0.10398052E+03 0.14403077E+04 0.14610292E+04 0.12500000E+03 0.0000E+00 0.9000E+01
       23  1    1    2    0    0 0.18352964E+03 -.10398052E+03 0.68918961E+03 0.72649339E+03 0.91188000E+02 0.0000E+00 0.9000E+01
#aMCatNLO 1  0  0  2  1 0.58433598D+03 0.00000000D+00  -5  5  0 0.00000000D+00 0.00000000D+00 0.00000000D+00 0.00000000D+00 0.00000000D+00
  <mgrwgt>
 0.1931788511D+00    5    2    0
 0.250248041496313D+03 0.000000000000000D+00 0.000000000000000D+00 0.250248041496313D+03
 0.250248041496313D+03 0.000000000000000D+00 0.000000000000000D+00 -.250248041496313D+03
 0.257550544856871D+03 -.183529639739834D+03 0.103980519712140D+03 0.788175488925601D+02
 0.242945538135754D+03 0.183529639739834D+03 -.103980519712140D+03 -.788175488925601D+02
 0.000000000000000D+00 -.000000000000000D+00 -.000000000000000D+00 -.000000000000000D+00
 0.569343550073376D+03 0.000000000000000D+00 0.000000000000000D+00 0.569343550073376D+03
 0.846971843824280D+03 0.000000000000000D+00 0.000000000000000D+00 -.846971843824280D+03
 0.407250628645415D+03 -.451441926000244D+02 0.376799509544727D+03 0.788175488925601D+02
 0.362128905030993D+03 0.309482331624205D+03 0.144328004607424D+03 -.788175488925601D+02
 0.646935860221247D+03 -.264338139024181D+03 -.521127514152151D+03 -.277628293750903D+03
0.117516572371D-02 0.000000000000D+00 0.000000000000D+00 0.954404371281D-03 0.000000000000D+00  5 2 -2 25 23 21 0 0.33207845D+00 0.44634838D-02 0.56405998D+05 0.56405998D+05 0.56405998D+05 0.11871313D+01  1  2  2  2  5  2       -2 0.168128205053D+00 0.100000000000D+01
-.650699650432D-04 0.000000000000D+00 -.451294580728D-05 0.954404371281D-03 0.000000000000D+00  5 2 -2 25 23 21 2 0.33207845D+00 0.44634838D-02 0.56405998D+05 0.56405998D+05 0.56405998D+05 0.11871313D+01  1  2  3  2  5  2       -2 -.131195672536D-01 0.100000000000D+01
0.805959736259D-04 0.000000000000D+00 0.000000000000D+00 0.954404371281D-03 0.000000000000D+00  5 2 -2 25 23 21 2 0.33207845D+00 0.44634838D-02 0.56405998D+05 0.56405998D+05 0.56405998D+05 0.11871313D+01  1  2 15  2  5  2       -2 0.162499594960D-01 0.100000000000D+01
0.302831216524D-02 0.000000000000D+00 -.105719294477D-02 0.954404371281D-03 0.000000000000D+00  5 2 -2 25 23 21 2 0.33207845D+00 0.65443729D-01 0.56405998D+05 0.56405998D+05 0.56405998D+05 0.11871313D+01  1  2  5  2  5  2       -2 0.595112864079D-02 0.100000000000D+01
0.688743280912D-03 0.000000000000D+00 -.320962244213D-03 0.954404371281D-03 0.000000000000D+00  5 2 21 25 23 2 2 0.33207845D+00 0.65443729D-01 0.56405998D+05 0.56405998D+05 0.56405998D+05 0.11871313D+01  1  2  5  4  5  2       -2 0.159691251231D-01 0.100000000000D+01
  </mgrwgt>
  </event>
  <event>
  4     66 0.45228882E-03 0.13697218E+03 0.75467711E-02 0.12145438E+00
        2 -1    0    0  501    0 0.00000000E+00 0.00000000E+00 0.17114086E+03 0.17114116E+03 0.32000000E+00 0.0000E+00 0.9000E+01
       -2 -1    0    0    0  501 0.00000000E+00 0.00000000E+00 -.11414218E+03 0.11414263E+03 0.32000000E+00 0.0000E+00 0.9000E+01
       25  1    1    2    0    0 0.23290683E+02 -.80167301E+02 0.59413032E+02 0.16162970E+03 0.12500000E+03 0.0000E+00 0.9000E+01
       23  1    1    2    0    0 -.23290683E+02 0.80167301E+02 -.24143491E+01 0.12365408E+03 0.91188000E+02 0.0000E+00 0.9000E+01
#aMCatNLO 1  0  0  1  1 0.42291367D+01 0.00000000D+00  -5  5  0 0.00000000D+00 0.00000000D+00 0.00000000D+00 0.00000000D+00 0.00000000D+00
  <mgrwgt>
 0.1880169729D+00    6    2    0
 0.139765865320064D+03 0.000000000000000D+00 0.000000000000000D+00 0.139765865320064D+03
 0.139765865320064D+03 0.000000000000000D+00 0.000000000000000D+00 -.139765865320064D+03
 0.152840854408531D+03 0.232906829870064D+02 -.801673009153481D+02 0.276780549583338D+02
 0.126690876231597D+03 -.232906829870064D+02 0.801673009153481D+02 -.276780549583338D+02
 0.000000000000000D+00 -.000000000000000D+00 0.000000000000000D+00 -.000000000000000D+00
 0.139915776138217D+03 0.000000000000000D+00 0.000000000000000D+00 0.139915776138217D+03
 0.173171517518248D+03 0.000000000000000D+00 0.000000000000000D+00 -.173171517518248D+03
 0.153376733523562D+03 0.255842662068877D+02 -.804909496945846D+02 0.276780549583338D+02
 0.126186987355413D+03 -.213966166516290D+02 0.799000281816081D+02 -.276780549583338D+02
 0.335235727774904D+02 -.418764955525870D+01 0.590921512976489D+00 -.332557413800315D+02
0.335158886386D-03 0.000000000000D+00 0.000000000000D+00 0.138280329741D-02 0.000000000000D+00  5 2 -2 25 23 21 0 0.26329421D-01 0.17560392D-01 0.18761378D+05 0.18761378D+05 0.18761378D+05 0.12368945D+01  1  2  2  1  5  1        2 0.170641454791D+00 0.100000000000D+01
-.186107088705D-04 0.000000000000D+00 -.128709837309D-05 0.138280329741D-02 0.000000000000D+00  5 2 -2 25 23 21 2 0.26329421D-01 0.17560392D-01 0.18761378D+05 0.18761378D+05 0.18761378D+05 0.12368945D+01  1  2  3  1  5  1        2 -.144964630112D-01 0.100000000000D+01
0.231450056439D-04 0.000000000000D+00 0.000000000000D+00 0.138280329741D-02 0.000000000000D+00  5 2 -2 25 23 21 2 0.26329421D-01 0.17560392D-01 0.18761378D+05 0.18761378D+05 0.18761378D+05 0.12368945D+01  1  2 15  1  5  1        2 0.180283685347D-01 0.100000000000D+01
-.100008804073D-04 0.000000000000D+00 0.000000000000D+00 0.138280329741D-02 0.000000000000D+00  5 2 -2 25 23 21 2 0.26329421D-01 0.17560392D-01 0.18761378D+05 0.18761378D+05 0.18761378D+05 0.12368945D+01  1  2  4  1  5  1        2 -.778999843114D-02 0.100000000000D+01
0.871004709826D-05 0.000000000000D+00 0.000000000000D+00 0.138280329741D-02 0.643673604467D-03  5 2 -2 25 23 21 2 0.26357661D-01 0.21757529D-01 0.19349079D+05 0.19349079D+05 0.19349079D+05 0.12354112D+01  1  2 11  1  5  1        2 0.471245258387D-02 0.100000000000D+01
0.560610701165D-05 0.000000000000D+00 0.000000000000D+00 0.138280329741D-02 0.144843390301D-06  5 21 -2 25 23 -2 2 0.26357661D-01 0.21757529D-01 0.19349079D+05 0.19349079D+05 0.19349079D+05 0.12354112D+01  1  2 11  3  5  1        2 0.169211583964D-01 0.100000000000D+01
  </mgrwgt>
  </event>
  <event>
  4     66 0.45228882E-03 0.14713414E+03 0.75467711E-02 0.11045396E+00
        2 -1    0    0  501    0 0.00000000E+00 0.00000000E+00 0.50125522E+03 0.50125532E+03 0.32000000E+00 0.0000E+00 0.9000E+01
       -2 -1    0    0    0  501 0.00000000E+00 0.00000000E+00 -.87114366E+02 0.87114953E+02 0.32000000E+00 0.0000E+00 0.9000E+01
       25  1    1    2    0    0 -.70604120E+02 -.69625057E+02 0.42426627E+03 0.45327636E+03 0.12500000E+03 0.0000E+00 0.9000E+01
       23  1    1    2    0    0 0.70604120E+02 0.69625057E+02 -.10125417E+02 0.13509391E+03 0.91188000E+02 0.0000E+00 0.9000E+01
#aMCatNLO 1  0  0  2  1 0.19130583D+03 0.00000000D+00  -5  5  0 0.00000000D+00 0.00000000D+00 0.00000000D+00 0.00000000D+00 0.00000000D+00
  <mgrwgt>
 0.1061522299D+00    5    2    0
 0.208965866696087D+03 0.000000000000000D+00 0.000000000000000D+00 0.208965866696087D+03
 0.208965866696087D+03 0.000000000000000D+00 0.000000000000000D+00 -.208965866696087D+03
 0.217711013417383D+03 -.706041200571787D+02 -.696250573082360D+02 0.148123242568479D+03
 0.200220719974792D+03 0.706041200571787D+02 0.696250573082360D+02 -.148123242568479D+03
 0.000000000000000D+00 0.000000000000000D+00 0.000000000000000D+00 -.000000000000000D+00
 0.256415374453028D+03 0.000000000000000D+00 0.000000000000000D+00 0.256415374453028D+03
 0.573814362951325D+03 0.000000000000000D+00 0.000000000000000D+00 -.573814362951325D+03
 0.282866707694472D+03 -.167215085960988D+03 -.120362761516879D+03 0.148123242568479D+03
 0.176768859644425D+03 -.215446644520614D+01 0.314140363743131D+02 -.148123242568479D+03
 0.370594170065456D+03 0.169369552406194D+03 0.889487251425660D+02 -.317398988498296D+03
0.472364690739D-03 0.000000000000D+00 0.000000000000D+00 0.610639609627D-03 0.000000000000D+00  5 2 -2 25 23 21 0 0.77116241D-01 0.13402263D-01 0.21648454D+05 0.21648454D+05 0.21648454D+05 0.12300571D+01  1  2  2  2  5  2       -2 0.118549463381D+00 0.100000000000D+01
-.223153952238D-04 0.000000000000D+00 -.181400478892D-05 0.610639609627D-03 0.000000000000D+00  5 2 -2 25 23 21 2 0.77116241D-01 0.13402263D-01 0.21648454D+05 0.21648454D+05 0.21648454D+05 0.12300571D+01  1  2  3  2  5  2       -2 -.847378247227D-02 0.100000000000D+01
0.322499394247D-04 0.000000000000D+00 0.000000000000D+00 0.610639609627D-03 0.000000000000D+00  5 2 -2 25 23 21 2 0.77116241D-01 0.13402263D-01 0.21648454D+05 0.21648454D+05 0.21648454D+05 0.12300571D+01  1  2 15  2  5  2       -2 0.122462079962D-01 0.100000000000D+01
-.150590495004D-03 0.000000000000D+00 -.137278482069D-03 0.610639609627D-03 0.000000000000D+00  5 2 -2 25 23 21 2 0.77116241D-01 0.43871888D-01 0.21648454D+05 0.21648454D+05 0.21648454D+05 0.12300571D+01  1  2  5  2  5  2       -2 -.715869354866D-02 0.100000000000D+01
-.150798882065D-04 0.000000000000D+00 -.188252565965D-04 0.610639609627D-03 0.000000000000D+00  5 2 21 25 23 2 2 0.77116241D-01 0.43871888D-01 0.21648454D+05 0.21648454D+05 0.21648454D+05 0.12300571D+01  1  2  5  4  5  2       -2 -.901096545550D-02 0.100000000000D+01
  </mgrwgt>
  </event>
  <event>
  4     66 0.45228882E-03 0.16261994E+03 0.75467711E-02 0.11260584E+00
        2 -1    0    0  501    0 0.00000000E+00 0.00000000E+00 0.58088121E+03 0.58088130E+03 0.32000000E+00 0.0000E+00 0.9000E+01
       -2 -1    0    0    0  501 0.00000000E+00 0.00000000E+00 -.46810788E+02 0.46811881E+02 0.32000000E+00 0.0000E+00 0.9000E+01
       25  1    1    2    0    0 -.71882680E+02 -.97130228E+02 0.23309656E+03 0.29079272E+03 0.12500000E+03 0.0000E+00 0.9000E+01
       23  1    1    2    0    0 0.71882680E+02 0.97130228E+02 0.30097387E+03 0.33690046E+03 0.91188000E+02 0.0000E+00 0.9000E+01
#aMCatNLO 1  0  0  2  1 0.11625666D+03 0.00000000D+00  -5  5  0 0.00000000D+00 0.00000000D+00 0.00000000D+00 0.00000000D+00 0.00000000D+00
  <mgrwgt>
 0.1711357850D+00    3    2    0
 0.164899599474891D+03 0.000000000000000D+00 0.000000000000000D+00 0.164899599474891D+03
 0.164899599474891D+03 0.000000000000000D+00 0.000000000000000D+00 -.164899599474891D+03
 0.175981719563838D+03 -.718826803331381D+02 -.971302275935903D+02 -.272610487029871D+02
 0.153817479385944D+03 0.718826803331381D+02 0.971302275935903D+02 0.272610487029871D+02
 0.000000000000000D+00 -.000000000000000D+00 0.000000000000000D+00 0.000000000000000D+00
 0.270856652304550D+03 0.000000000000000D+00 0.000000000000000D+00 0.270856652304550D+03
 0.210037661919108D+03 0.000000000000000D+00 0.000000000000000D+00 -.210037661919108D+03
 0.164889177453516D+03 -.138671733285728D+02 -.103092082958808D+03 -.272610487029871D+02
 0.184800862063809D+03 0.129514807135833D+03 0.912077695797262D+02 0.272610487029871D+02
 0.131204274706333D+03 -.115647633807260D+03 0.118843133790821D+02 0.608189903854425D+02
0.295266212204D-03 0.000000000000D+00 0.000000000000D+00 0.123073607849D-02 0.000000000000D+00  5 2 -2 25 23 21 0 0.89366431D-01 0.72017505D-02 0.26445246D+05 0.26445246D+05 0.26445246D+05 0.12206895D+01  1  2  2  2  5  2       -2 0.167867946032D+00 0.100000000000D+01
-.163998133507D-04 0.000000000000D+00 -.113390000024D-05 0.123073607849D-02 0.000000000000D+00  5 2 -2 25 23 21 2 0.89366431D-01 0.72017505D-02 0.26445246D+05 0.26445246D+05 0.26445246D+05 0.12206895D+01  1  2  3  2  5  2       -2 -.138932331112D-01 0.100000000000D+01
0.202572271102D-04 0.000000000000D+00 0.000000000000D+00 0.123073607849D-02 0.000000000000D+00  5 2 -2 25 23 21 2 0.89366431D-01 0.72017505D-02 0.26445246D+05 0.26445246D+05 0.26445246D+05 0.12206895D+01  1  2 15  2  5  2       -2 0.171610720446D-01 0.100000000000D+01
  </mgrwgt>
  </event>
  <event>
  5     66 -.45228882E-03 0.14787451E+03 0.75467711E-02 0.11960852E+00
        2 -1    0    0  502    0 0.00000000E+00 0.00000000E+00 0.99092235E+02 0.99092751E+02 0.32000000E+00 0.0000E+00 0.9000E+01
       -2 -1    0    0    0  501 0.00000000E+00 0.00000000E+00 -.24337063E+03 0.24337084E+03 0.32000000E+00 0.0000E+00 0.9000E+01
       25  1    1    2    0    0 0.17940028E+02 0.10474856E+03 -.93620631E+02 0.18890190E+03 0.12500000E+03 0.0000E+00 0.9000E+01
       23  1    1    2    0    0 -.13634826E+02 -.94307000E+02 -.52755668E+02 0.14204975E+03 0.91188000E+02 0.0000E+00 0.9000E+01
       21  1    1    2  502  501 -.43052028E+01 -.10441564E+02 0.20979065E+01 0.11511939E+02 0.75000000E+00 0.0000E+00 0.9000E+01
#aMCatNLO 2  0  0  1  2 0.11294292D+02 0.00000000D+00  -5  5  0 0.00000000D+00 0.00000000D+00 0.00000000D+00 0.00000000D+00 0.00000000D+00
  <mgrwgt>
 -.1629942711D-01    3    2    0
 0.148303247232327D+03 0.000000000000000D+00 0.000000000000000D+00 0.148303247232327D+03
 0.148303247232327D+03 0.000000000000000D+00 0.000000000000000D+00 -.148303247232327D+03
 0.160625547641146D+03 0.155816383984886D+02 0.990286757244071D+02 -.112294471861672D+02
 0.135980946823509D+03 -.155816383984886D+02 -.990286757244071D+02 0.112294471861672D+02
 0.000000000000000D+00 -.000000000000000D+00 -.000000000000000D+00 0.000000000000000D+00
 0.159343371246196D+03 0.000000000000000D+00 0.000000000000000D+00 0.159343371246196D+03
 0.151327700742027D+03 0.000000000000000D+00 0.000000000000000D+00 -.151327700742027D+03
 0.164454269815653D+03 0.179400283910432D+02 0.104748564466638D+03 -.112294471861672D+02
 0.132367180882986D+03 -.136348256315351D+02 -.943070001473896D+02 0.112294471861672D+02
 0.138496212895832D+02 -.430520275950810D+01 -.104415643192483D+02 0.801567050416880D+01
-.156162380058D-02 0.000000000000D+00 0.000000000000D+00 0.135222736047D-02 0.000000000000D+00  5 2 -2 25 23 21 2 0.15381435D-01 0.36690944D-01 0.23601365D+05 0.23601365D+05 0.23601365D+05 0.12259874D+01  1  2 13  1  5  1        2 -.605692455723D+00 0.100000000000D+01
-.296776012487D-04 0.000000000000D+00 0.000000000000D+00 0.135222736047D-02 0.000000000000D+00  5 2 -2 25 23 21 2 0.14187822D-01 0.36690944D-01 0.21866871D+05 0.21866871D+05 0.21866871D+05 0.12295820D+01  1  2  8  1  5  1        2 -.127072850173D-01 0.100000000000D+01
0.159522891024D-02 0.000000000000D+00 0.000000000000D+00 0.135222736047D-02 0.851567076666D-04  5 2 -2 25 23 21 2 0.15244004D-01 0.37439208D-01 0.23601365D+05 0.23601365D+05 0.23601365D+05 0.12259874D+01  1  2  1  1  5  1        2 0.602100313631D+00 0.100000000000D+01
  </mgrwgt>
  </event>
  <event>
  4     66 0.45228882E-03 0.25767679E+03 0.75467711E-02 0.99299932E-01
        2 -1    0    0  501    0 0.00000000E+00 0.00000000E+00 0.17979943E+03 0.17979971E+03 0.32000000E+00 0.0000E+00 0.9000E+01
       -2 -1    0    0    0  501 0.00000000E+00 0.00000000E+00 -.40062699E+03 0.40062712E+03 0.32000000E+00 0.0000E+00 0.9000E+01
       25  1    1    2    0    0 0.12797532E+03 -.19519175E+03 -.32070368E+02 0.26670397E+03 0.12500000E+03 0.0000E+00 0.9000E+01
       23  1    1    2    0    0 -.12797532E+03 0.19519175E+03 -.18875720E+03 0.31372286E+03 0.91188000E+02 0.0000E+00 0.9000E+01
#aMCatNLO 1  0  0  2  1 0.47723105D+03 0.00000000D+00  -5  5  0 0.00000000D+00 0.00000000D+00 0.00000000D+00 0.00000000D+00 0.00000000D+00
  <mgrwgt>
 0.1812734691D+00    5    2    0
 0.268388938717350D+03 0.000000000000000D+00 0.000000000000000D+00 0.268388938717350D+03
 0.268388938717350D+03 0.000000000000000D+00 0.000000000000000D+00 -.268388938717350D+03
 0.275197852574730D+03 0.127975319643542D+03 -.195191745870227D+03 0.750423744827460D+02
 0.261580024859970D+03 -.127975319643542D+03 0.195191745870227D+03 -.750423744827460D+02
 0.000000000000000D+00 -.000000000000000D+00 0.000000000000000D+00 -.000000000000000D+00
 0.402922344423243D+03 0.000000000000000D+00 0.000000000000000D+00 0.402922344423243D+03
 0.165911071082041D+04 0.000000000000000D+00 0.000000000000000D+00 -.165911071082041D+04
 0.498481449271580D+03 0.420753748407954D+03 -.224039461927005D+03 0.750423744827460D+02
 0.219766396275005D+03 0.541774774326628D+02 0.177244070588348D+03 -.750423744827460D+02
 0.134378520969707D+04 -.474931225840617D+03 0.467953913386578D+02 -.125618836639717D+04
0.372153935908D-02 0.000000000000D+00 0.000000000000D+00 0.956651030329D-03 0.000000000000D+00  5 2 -2 25 23 21 0 0.27661482D-01 0.61634953D-01 0.66397330D+05 0.66397330D+05 0.66397330D+05 0.11802717D+01  1  2  2  2  5  2       -2 0.179140308870D+00 0.100000000000D+01
-.206335140009D-03 0.000000000000D+00 -.142916910427D-04 0.956651030329D-03 0.000000000000D+00  5 2 -2 25 23 21 2 0.27661482D-01 0.61634953D-01 0.66397330D+05 0.66397330D+05 0.66397330D+05 0.11802717D+01  1  2  3  2  5  2       -2 -.138359162004D-01 0.100000000000D+01
0.254980212003D-03 0.000000000000D+00 0.000000000000D+00 0.956651030329D-03 0.000000000000D+00  5 2 -2 25 23 21 2 0.27661482D-01 0.61634953D-01 0.66397330D+05 0.66397330D+05 0.66397330D+05 0.11802717D+01  1  2 15  2  5  2       -2 0.170978382349D-01 0.100000000000D+01
-.161426470578D-02 0.000000000000D+00 -.166584269955D-02 0.956651030329D-03 0.000000000000D+00  5 2 -2 25 23 21 2 0.27661482D-01 0.43221064D+00 0.66397330D+05 0.66397330D+05 0.66397330D+05 0.11802717D+01  1  2  5  2  5  2       -2 -.243841139017D-03 0.100000000000D+01
-.541641656276D-03 0.000000000000D+00 -.396567614394D-03 0.956651030329D-03 0.000000000000D+00  5 2 21 25 23 2 2 0.27661482D-01 0.43221064D+00 0.66397330D+05 0.66397330D+05 0.66397330D+05 0.11802717D+01  1  2  5  4  5  2       -2 -.884920684594D-03 0.100000000000D+01
  </mgrwgt>
  </event>
  <event>
  4     66 0.45228882E-03 0.12476073E+03 0.75467711E-02 0.12003676E+00
        2 -1    0    0  501    0 0.00000000E+00 0.00000000E+00 0.80238359E+03 0.80238366E+03 0.32000000E+00 0.0000E+00 0.9000E+01
       -2 -1    0    0    0  501 0.00000000E+00 0.00000000E+00 -.45233807E+02 0.45234939E+02 0.32000000E+00 0.0000E+00 0.9000E+01
       25  1    1    2    0    0 -.68104165E+02 0.52405355E+02 0.68796271E+03 0.70448718E+03 0.12500000E+03 0.0000E+00 0.9000E+01
       23  1    1    2    0    0 0.68104165E+02 -.52405355E+02 0.69187072E+02 0.14313141E+03 0.91188000E+02 0.0000E+00 0.9000E+01
#aMCatNLO 1  0  0  1  2 0.21872397D+02 0.00000000D+00  -5  5  0 0.00000000D+00 0.00000000D+00 0.00000000D+00 0.00000000D+00 0.00000000D+00
  <mgrwgt>
 0.1603227464D+00    6    2    0
 0.190513442326575D+03 0.000000000000000D+00 0.000000000000000D+00 0.190513442326575D+03
 0.190513442326575D+03 0.000000000000000D+00 0.000000000000000D+00 -.190513442326575D+03
 0.200105611475812D+03 -.681041652280727D+02 0.524053553077329D+02 0.130509605614937D+03
 0.180921273177337D+03 0.681041652280727D+02 -.524053553077329D+02 -.130509605614937D+03
 0.000000000000000D+00 -.000000000000000D+00 0.000000000000000D+00 -.000000000000000D+00
 0.201089391592031D+03 0.000000000000000D+00 0.000000000000000D+00 0.201089391592031D+03
 0.202481404521238D+03 0.000000000000000D+00 0.000000000000000D+00 -.202481404521238D+03
 0.195545580216362D+03 -.582746440724912D+02 0.467373795009062D+02 0.130509605614937D+03
 0.186108567668918D+03 0.772226202234892D+02 -.576633105521053D+02 -.130509605614937D+03
 0.219166482279892D+02 -.189479761509979D+02 0.109259310511991D+02 -.139201292920721D+01
0.265316011998D-03 0.000000000000D+00 0.000000000000D+00 0.680438540978D-03 0.000000000000D+00  5 2 -2 25 23 21 0 0.12344372D+00 0.69591393D-02 0.19180514D+05 0.19180514D+05 0.19180514D+05 0.12358314D+01  1  2  2  1  5  1        2 0.107640709190D+00 0.100000000000D+01
-.129172463280D-04 0.000000000000D+00 -.101888334538D-05 0.680438540978D-03 0.000000000000D+00  5 2 -2 25 23 21 2 0.12344372D+00 0.69591393D-02 0.19180514D+05 0.19180514D+05 0.19180514D+05 0.12358314D+01  1  2  3  1  5  1        2 -.800389690513D-02 0.100000000000D+01
0.180907733048D-04 0.000000000000D+00 0.000000000000D+00 0.680438540978D-03 0.000000000000D+00  5 2 -2 25 23 21 2 0.12344372D+00 0.69591393D-02 0.19180514D+05 0.19180514D+05 0.19180514D+05 0.12358314D+01  1  2 15  1  5  1        2 0.112095628425D-01 0.100000000000D+01
0.489675378543D-03 0.000000000000D+00 0.000000000000D+00 0.680438540978D-03 0.000000000000D+00  5 2 -2 25 23 21 2 0.13395248D+00 0.69591393D-02 0.22525743D+05 0.22525743D+05 0.22525743D+05 0.12281801D+01  1  2 12  1  5  1        2 0.270898987111D+00 0.100000000000D+01
-.363394146526D-03 0.000000000000D+00 0.000000000000D+00 0.680438540978D-03 0.000000000000D+00  5 2 -2 25 23 21 2 0.12344372D+00 0.69591393D-02 0.19180514D+05 0.19180514D+05 0.19180514D+05 0.12358314D+01  1  2  4  1  5  1        2 -.225169452596D+00 0.100000000000D+01
0.666371602755D-05 0.000000000000D+00 0.000000000000D+00 0.680438540978D-03 0.000000000000D+00  5 21 -2 25 23 -2 2 0.13395248D+00 0.69591393D-02 0.22525743D+05 0.22525743D+05 0.22525743D+05 0.12281801D+01  1  2 12  3  5  1        2 0.374683674955D-02 0.100000000000D+01
  </mgrwgt>
  </event>
  <event>
  4     66 0.45228882E-03 0.10956153E+03 0.75467711E-02 0.10779240E+00
        2 -1    0    0  501    0 0.00000000E+00 0.00000000E+00 0.69266464E+03 0.69266471E+03 0.32000000E+00 0.0000E+00 0.9000E+01
       -2 -1    0    0    0  501 0.00000000E+00 0.00000000E+00 -.18023022E+02 0.18025862E+02 0.32000000E+00 0.0000E+00 0.9000E+01
       25  1    1    2    0    0 0.17174654E+02 0.41039013E+01 0.31771316E+03 0.34187492E+03 0.12500000E+03 0.0000E+00 0.9000E+01
       23  1    1    2    0    0 -.17174654E+02 -.41039013E+01 0.35692846E+03 0.36881566E+03 0.91188000E+02 0.0000E+00 0.9000E+01
#aMCatNLO 1  0  0  1  2 0.27697839D+03 0.00000000D+00  -5  5  0 0.00000000D+00 0.00000000D+00 0.00000000D+00 0.00000000D+00 0.00000000D+00
  <mgrwgt>
 0.2162667417D+00    3    2    0
 0.111736053292115D+03 0.000000000000000D+00 0.000000000000000D+00 0.111736053292115D+03
 0.111736053292115D+03 0.000000000000000D+00 0.000000000000000D+00 -.111736053292115D+03
 0.128090999705181D+03 0.171746543787123D+02 0.410390126265955D+01 -.216908609066295D+02
 0.953811068790493D+02 -.171746543787123D+02 -.410390126265955D+01 0.216908609066295D+02
 0.000000000000000D+00 0.000000000000000D+00 0.000000000000000D+00 -.000000000000000D+00
 0.232359148810166D+03 0.000000000000000D+00 0.000000000000000D+00 0.232359148810166D+03
 0.530408578459029D+03 0.000000000000000D+00 0.000000000000000D+00 -.530408578459029D+03
 0.182283721748389D+03 -.130368913993693D+03 -.116536703093221D+02 -.216908609066295D+02
 0.173605041148227D+03 -.145043238317593D+03 -.177601953692191D+02 0.216908609066295D+02
 0.406878964372579D+03 0.275412152311286D+03 0.294138656785412D+02 -.298049429648862D+03
0.112574414824D-03 0.000000000000D+00 0.000000000000D+00 0.178524189958D-02 0.000000000000D+00  5 2 -2 25 23 21 0 0.10656402D+00 0.27729968D-02 0.12003729D+05 0.12003729D+05 0.12003729D+05 0.12590083D+01  1  2  2  1  5  1        2 0.211892918079D+00 0.100000000000D+01
-.625119710812D-05 0.000000000000D+00 -.432315394449D-06 0.178524189958D-02 0.000000000000D+00  5 2 -2 25 23 21 2 0.10656402D+00 0.27729968D-02 0.12003729D+05 0.12003729D+05 0.12003729D+05 0.12590083D+01  1  2  3  1  5  1        2 -.186507850930D-01 0.100000000000D+01
0.771717474171D-05 0.000000000000D+00 0.000000000000D+00 0.178524189958D-02 0.000000000000D+00  5 2 -2 25 23 21 2 0.10656402D+00 0.27729968D-02 0.12003729D+05 0.12003729D+05 0.12003729D+05 0.12590083D+01  1  2 15  1  5  1        2 0.230246087499D-01 0.100000000000D+01
  </mgrwgt>
  </event>
  <event>
  4     66 0.45228882E-03 0.42278196E+02 0.75467711E-02 0.12070427E+00
        2 -1    0    0  501    0 0.00000000E+00 0.00000000E+00 0.27071790E+03 0.27071808E+03 0.32000000E+00 0.0000E+00 0.9000E+01
       -2 -1    0    0    0  501 0.00000000E+00 0.00000000E+00 -.56005574E+02 0.56006488E+02 0.32000000E+00 0.0000E+00 0.9000E+01
       25  1    1    2    0    0 0.57780197E+02 0.43235148E+01 0.11047622E+03 0.17659909E+03 0.12500000E+03 0.0000E+00 0.9000E+01
       23  1    1    2    0    0 -.57780197E+02 -.43235148E+01 0.10423610E+03 0.15012548E+03 0.91188000E+02 0.0000E+00 0.9000E+01
#aMCatNLO 1  0  0  1  2 0.40443369D+02 0.00000000D+00  -5  5  0 0.00000000D+00 0.00000000D+00 0.00000000D+00 0.00000000D+00 0.00000000D+00
  <mgrwgt>
 0.1662698406D+00    9    2    0
 0.123133632114878D+03 0.000000000000000D+00 0.000000000000000D+00 0.123133632114878D+03
 0.123133632114878D+03 0.000000000000000D+00 0.000000000000000D+00 -.123133632114878D+03
 0.137974720878467D+03 0.577801971833898D+02 0.432351483248434D+01 -.740132653195699D+01
 0.108292543351289D+03 -.577801971833898D+02 -.432351483248434D+01 0.740132653195699D+01
 0.000000000000000D+00 -.000000000000000D+00 -.000000000000000D+00 0.000000000000000D+00
 0.151053276116935D+03 0.000000000000000D+00 0.000000000000000D+00 0.151053276116935D+03
 0.140348817686601D+03 0.000000000000000D+00 0.000000000000000D+00 -.140348817686601D+03
 0.149053756429969D+03 0.800042127277007D+02 0.116862576247825D+02 -.740132653195699D+01
 0.100512330030734D+03 -.416128719225470D+02 0.103266651546664D+01 0.740132653195699D+01
 0.418360073428335D+02 -.383913408051537D+02 -.127189241402491D+02 0.107044584303341D+02
0.108475055308D-03 0.000000000000D+00 0.000000000000D+00 0.161814827269D-02 0.000000000000D+00  5 2 -2 25 23 21 0 0.41648992D-01 0.86163270D-02 0.15106301D+05 0.15106301D+05 0.15106301D+05 0.12474731D+01  1  2  2  1  5  1        2 0.104713416260D+00 0.100000000000D+01
-.602636724644D-05 0.000000000000D+00 -.416572774521D-06 0.161814827269D-02 0.000000000000D+00  5 2 -2 25 23 21 2 0.41648992D-01 0.86163270D-02 0.15106301D+05 0.15106301D+05 0.15106301D+05 0.12474731D+01  1  2  3  1  5  1        2 -.905295562933D-02 0.100000000000D+01
0.750373479003D-05 0.000000000000D+00 0.000000000000D+00 0.161814827269D-02 0.000000000000D+00  5 2 -2 25 23 21 2 0.41648992D-01 0.86163270D-02 0.15106301D+05 0.15106301D+05 0.15106301D+05 0.12474731D+01  1  2 15  1  5  1        2 0.112722931296D-01 0.100000000000D+01
0.855270292834D-04 0.000000000000D+00 0.000000000000D+00 0.161814827269D-02 0.000000000000D+00  5 2 -2 25 23 21 2 0.53462682D-01 0.86163270D-02 0.20960193D+05 0.20960193D+05 0.20960193D+05 0.12315903D+01  1  2 12  1  5  1        2 0.972403458007D-01 0.100000000000D+01
-.873669585756D-04 0.000000000000D+00 0.000000000000D+00 0.161814827269D-02 0.000000000000D+00  5 2 -2 25 23 21 2 0.41648992D-01 0.86163270D-02 0.15106301D+05 0.15106301D+05 0.15106301D+05 0.12474731D+01  1  2  4  1  5  1        2 -.131244772698D+00 0.100000000000D+01
-.185272244165D-03 0.000000000000D+00 -.659373233997D-04 0.161814827269D-02 0.000000000000D+00  5 2 -2 25 23 21 2 0.57344184D-01 0.86163270D-02 0.15106301D+05 0.15106301D+05 0.15106301D+05 0.12474731D+01  1  2  5  1  5  1        2 -.198473489412D+00 0.100000000000D+01
0.199313453023D-03 0.000000000000D+00 0.627036069611D-04 0.161814827269D-02 0.000000000000D+00  5 2 -2 25 23 21 2 0.41648992D-01 0.86163270D-02 0.15106301D+05 0.15106301D+05 0.15106301D+05 0.12474731D+01  1  2  6  1  5  1        2 0.299413522734D+00 0.100000000000D+01
0.289200572194D-05 0.000000000000D+00 0.000000000000D+00 0.161814827269D-02 0.000000000000D+00  5 21 -2 25 23 -2 2 0.53462682D-01 0.86163270D-02 0.20960193D+05 0.20960193D+05 0.20960193D+05 0.12315903D+01  1  2 12  3  5  1        2 0.955995006248D-02 0.100000000000D+01
-.586897406134D-05 0.000000000000D+00 -.266905022626D-05 0.161814827269D-02 0.000000000000D+00  5 21 -2 25 23 -2 2 0.57344184D-01 0.86163270D-02 0.15106301D+05 0.15106301D+05 0.15106301D+05 0.12474731D+01  1  2  5  3  5  1        2 -.171584696436D-01 0.100000000000D+01
  </mgrwgt>
  </event>
  <event>
  4     66 0.45228882E-03 0.54872357E+02 0.75467711E-02 0.11702828E+00
        2 -1    0    0  501    0 0.00000000E+00 0.00000000E+00 0.39024829E+03 0.39024842E+03 0.32000000E+00 0.0000E+00 0.9000E+01
       -2 -1    0    0    0  501 0.00000000E+00 0.00000000E+00 -.43933195E+02 0.43934360E+02 0.32000000E+00 0.0000E+00 0.9000E+01
       25  1    1    2    0    0 0.49544174E+02 -.95187767E+01 0.27972827E+03 0.31051270E+03 0.12500000E+03 0.0000E+00 0.9000E+01
       23  1    1    2    0    0 -.49544174E+02 0.95187767E+01 0.66586826E+02 0.12367008E+03 0.91188000E+02 0.0000E+00 0.9000E+01
#aMCatNLO 1  0  0  2  1 0.96773693D+02 0.00000000D+00  -5  5  0 0.00000000D+00 0.00000000D+00 0.00000000D+00 0.00000000D+00 0.00000000D+00
  <mgrwgt>
 0.1140570535D+00    7    2    0
 0.130939434878368D+03 0.000000000000000D+00 0.000000000000000D+00 0.130939434878368D+03
 0.130939434878368D+03 0.000000000000000D+00 0.000000000000000D+00 -.130939434878368D+03
 0.144895789323441D+03 0.495441739692443D+02 -.951877666362213D+01 0.531465660244969D+02
 0.116983080433295D+03 -.495441739692443D+02 0.951877666362213D+01 -.531465660244969D+02
 0.000000000000000D+00 0.000000000000000D+00 0.000000000000000D+00 -.000000000000000D+00
 0.170265430686829D+03 0.000000000000000D+00 0.000000000000000D+00 0.170265430686829D+03
 0.215927674785259D+03 0.000000000000000D+00 0.000000000000000D+00 -.215927674785259D+03
 0.136489103398329D+03 -.634399291272025D+00 -.133908701667544D+02 0.531465660244969D+02
 0.142698450117850D+03 -.958524479462983D+02 0.594533973314421D+01 -.531465660244969D+02
 0.107005551955908D+03 0.964868472375703D+02 0.744553043361020D+01 -.456622440984295D+02
0.130995168553D-03 0.000000000000D+00 0.000000000000D+00 0.132373586285D-02 0.000000000000D+00  5 2 -2 25 23 21 0 0.60038298D-01 0.67590528D-02 0.14281522D+05 0.14281522D+05 0.14281522D+05 0.12502600D+01  1  2  2  2  5  2       -2 0.124432399557D+00 0.100000000000D+01
-.720363237205D-05 0.000000000000D+00 -.503055939062D-06 0.132373586285D-02 0.000000000000D+00  5 2 -2 25 23 21 2 0.60038298D-01 0.67590528D-02 0.14281522D+05 0.14281522D+05 0.14281522D+05 0.12502600D+01  1  2  3  2  5  2       -2 -.106962223201D-01 0.100000000000D+01
0.904723776480D-05 0.000000000000D+00 0.000000000000D+00 0.132373586285D-02 0.000000000000D+00  5 2 -2 25 23 21 2 0.60038298D-01 0.67590528D-02 0.14281522D+05 0.14281522D+05 0.14281522D+05 0.12502600D+01  1  2 15  2  5  2       -2 0.134336764451D-01 0.100000000000D+01
0.332973855035D-05 0.000000000000D+00 0.000000000000D+00 0.132373586285D-02 0.000000000000D+00  5 2 -2 25 23 21 2 0.60038298D-01 0.11628789D-01 0.31492534D+05 0.31492534D+05 0.31492534D+05 0.12126915D+01  1  2 12  2  5  2       -2 0.204243188261D-02 0.100000000000D+01
-.321646844911D-04 0.000000000000D+00 -.364327369250D-04 0.132373586285D-02 0.000000000000D+00  5 2 -2 25 23 21 2 0.60038298D-01 0.14412464D-01 0.14281522D+05 0.14281522D+05 0.14281522D+05 0.12502600D+01  1  2  5  2  5  2       -2 -.145802435530D-01 0.100000000000D+01
0.200583549599D-06 0.000000000000D+00 0.000000000000D+00 0.132373586285D-02 0.000000000000D+00  5 2 21 25 23 2 2 0.60038298D-01 0.11628789D-01 0.31492534D+05 0.31492534D+05 0.31492534D+05 0.12126915D+01  1  2 12  4  5  2       -2 0.187117989974D-02 0.100000000000D+01
-.363197152511D-06 0.000000000000D+00 -.298498525863D-05 0.132373586285D-02 0.000000000000D+00  5 2 21 25 23 2 2 0.60038298D-01 0.14412464D-01 0.14281522D+05 0.14281522D+05 0.14281522D+05 0.12502600D+01  1  2  5  4  5  2       -2 -.244616841677D-02 0.100000000000D+01
  </mgrwgt>
  </event>
  <event>
  4     66 0.45228882E-03 0.13105404E+03 0.75467711E-02 0.11495865E+00
        2 -1    0    0  501    0 0.00000000E+00 0.00000000E+00 0.18302949E+04 0.18302949E+04 0.32000000E+00 0.0000E+00 0.9000E+01
       -2 -1    0    0    0  501 0.00000000E+00 0.00000000E+00 -.17682037E+02 0.17684932E+02 0.32000000E+00 0.0000E+00 0.9000E+01
       25  1    1    2    0    0 -.13086925E+03 -.12353677E+02 0.12489062E+04 0.12620107E+04 0.12500000E+03 0.0000E+00 0.9000E+01
       23  1    1    2    0    0 0.13086925E+03 0.12353677E+02 0.56370664E+03 0.58596911E+03 0.91188000E+02 0.0000E+00 0.9000E+01
#aMCatNLO 1  0  0  1  2 0.54614129D+02 0.00000000D+00  -5  5  0 0.00000000D+00 0.00000000D+00 0.00000000D+00 0.00000000D+00 0.00000000D+00
  <mgrwgt>
 0.2678440050D+00    9    2    0
 0.179905648132343D+03 0.000000000000000D+00 0.000000000000000D+00 0.179905648132343D+03
 0.179905648132343D+03 0.000000000000000D+00 0.000000000000000D+00 -.179905648132343D+03
 0.190063401282236D+03 -.130869245462960D+03 -.123536765225944D+02 0.567426098739132D+02
 0.169747894982449D+03 0.130869245462960D+03 0.123536765225944D+02 -.567426098739132D+02
 0.000000000000000D+00 -.000000000000000D+00 0.000000000000000D+00 0.000000000000000D+00
 0.240278902934343D+03 0.000000000000000D+00 0.000000000000000D+00 0.240278902934343D+03
 0.194753803088878D+03 0.000000000000000D+00 0.000000000000000D+00 -.194753803088878D+03
 0.189814719892609D+03 -.124725716313277D+03 -.403534360711283D+02 0.567426098739132D+02
 0.174117790387109D+03 0.136430368212304D+03 -.129917065638610D+02 -.567426098739132D+02
 0.711001957435018D+02 -.117046518990268D+02 0.533451426349893D+02 0.455250998454647D+02
0.386952304877D-03 0.000000000000D+00 0.000000000000D+00 0.109351333434D-02 0.000000000000D+00  5 2 -2 25 23 21 0 0.28158405D+00 0.27205382D-02 0.29134875D+05 0.29134875D+05 0.29134875D+05 0.12162344D+01  1  2  2  1  5  1        2 0.172291872545D+00 0.100000000000D+01
-.214250696047D-04 0.000000000000D+00 -.148599873761D-05 0.109351333434D-02 0.000000000000D+00  5 2 -2 25 23 21 2 0.28158405D+00 0.27205382D-02 0.29134875D+05 0.29134875D+05 0.29134875D+05 0.12162344D+01  1  2  3  1  5  1        2 -.141112075002D-01 0.100000000000D+01
0.266208882365D-04 0.000000000000D+00 0.000000000000D+00 0.109351333434D-02 0.000000000000D+00  5 2 -2 25 23 21 2 0.28158405D+00 0.27205382D-02 0.29134875D+05 0.29134875D+05 0.29134875D+05 0.12162344D+01  1  2 15  1  5  1        2 0.175333328981D-01 0.100000000000D+01
0.405727253668D-03 0.000000000000D+00 0.000000000000D+00 0.109351333434D-02 0.000000000000D+00  5 2 -2 25 23 21 2 0.38473704D+00 0.27205382D-02 0.40072371D+05 0.40072371D+05 0.40072371D+05 0.12019205D+01  1  2 12  1  5  1        2 0.115904408753D+00 0.100000000000D+01
-.442475057662D-03 0.000000000000D+00 0.000000000000D+00 0.109351333434D-02 0.000000000000D+00  5 2 -2 25 23 21 2 0.28158405D+00 0.27205382D-02 0.29134875D+05 0.29134875D+05 0.29134875D+05 0.12162344D+01  1  2  4  1  5  1        2 -.291427634427D+00 0.100000000000D+01
-.674415632073D-03 0.000000000000D+00 -.177729015112D-03 0.109351333434D-02 0.000000000000D+00  5 2 -2 25 23 21 2 0.38639656D+00 0.27205382D-02 0.29134875D+05 0.29134875D+05 0.29134875D+05 0.12162344D+01  1  2  5  1  5  1        2 -.195372483578D+00 0.100000000000D+01
0.703672017135D-03 0.000000000000D+00 0.169187719096D-03 0.109351333434D-02 0.000000000000D+00  5 2 -2 25 23 21 2 0.28158405D+00 0.27205382D-02 0.29134875D+05 0.29134875D+05 0.29134875D+05 0.12162344D+01  1  2  6  1  5  1        2 0.463459957381D+00 0.100000000000D+01
0.161385950228D-04 0.000000000000D+00 0.000000000000D+00 0.109351333434D-02 0.000000000000D+00  5 21 -2 25 23 -2 2 0.38473704D+00 0.27205382D-02 0.40072371D+05 0.40072371D+05 0.40072371D+05 0.12019205D+01  1  2 12  3  5  1        2 0.945456667445D-03 0.100000000000D+01
-.227671519332D-04 0.000000000000D+00 -.713965656451D-05 0.109351333434D-02 0.000000000000D+00  5 21 -2 25 23 -2 2 0.38639656D+00 0.27205382D-02 0.29134875D+05 0.29134875D+05 0.29134875D+05 0.12162344D+01  1  2  5  3  5  1        2 -.137969778312D-02 0.100000000000D+01
  </mgrwgt>
  </event>
  <event>
  4     66 0.45228882E-03 0.70611618E+02 0.75467711E-02 0.12358233E+00
        2 -1    0    0  501    0 0.00000000E+00 0.00000000E+00 0.28369793E+03 0.28369811E+03 0.32000000E+00 0.0000E+00 0.9000E+01
       -2 -1    0    0    0  501 0.00000000E+00 0.00000000E+00 -.59868062E+02 0.59868917E+02 0.32000000E+00 0.0000E+00 0.9000E+01
       25  1    1    2    0    0 -.50246480E+02 0.16569092E+02 0.18869003E+03 0.23243961E+03 0.12500000E+03 0.0000E+00 0.9000E+01
       23  1    1    2    0    0 0.50246480E+02 -.16569092E+02 0.35139834E+02 0.11112742E+03 0.91188000E+02 0.0000E+00 0.9000E+01
#aMCatNLO 1  0  0  1  2 0.77347611D+01 0.00000000D+00  -5  5  0 0.00000000D+00 0.00000000D+00 0.00000000D+00 0.00000000D+00 0.00000000D+00
  <mgrwgt>
 0.2597927908D+00   11    2    0
 0.130325066823203D+03 0.000000000000000D+00 0.000000000000000D+00 0.130325066823203D+03
 0.130325066823203D+03 0.000000000000000D+00 0.000000000000000D+00 -.130325066823203D+03
 0.144347213203370D+03 -.502464795923201D+02 0.165690923495341D+02 0.491108381813056D+02
 0.116302920443036D+03 0.502464795923201D+02 -.165690923495341D+02 -.491108381813056D+02
 0.000000000000000D+00 -.000000000000000D+00 -.000000000000000D+00 0.000000000000000D+00
 0.134423520278469D+03 0.000000000000000D+00 0.000000000000000D+00 0.134423520278469D+03
 0.134083579823078D+03 0.000000000000000D+00 0.000000000000000D+00 -.134083579823078D+03
 0.143962429494300D+03 -.478030511441583D+02 0.200792176227060D+02 0.491108381813056D+02
 0.116802442947357D+03 0.522220509641193D+02 -.137310706320067D+02 -.491108381813056D+02
 0.774222765988907D+01 -.441899981996106D+01 -.634814699069926D+01 0.339940455391000D+00
0.114508574027D-03 0.000000000000D+00 0.000000000000D+00 0.135748382805D-02 0.000000000000D+00  5 2 -2 25 23 21 0 0.43645915D-01 0.92105508D-02 0.14539686D+05 0.14539686D+05 0.14539686D+05 0.12493686D+01  1  2  2  1  5  1        2 0.947178301025D-01 0.100000000000D+01
-.631487447886D-05 0.000000000000D+00 -.439743075065D-06 0.135748382805D-02 0.000000000000D+00  5 2 -2 25 23 21 2 0.43645915D-01 0.92105508D-02 0.14539686D+05 0.14539686D+05 0.14539686D+05 0.12493686D+01  1  2  3  1  5  1        2 -.815341702228D-02 0.100000000000D+01
0.792095371703D-05 0.000000000000D+00 0.000000000000D+00 0.135748382805D-02 0.000000000000D+00  5 2 -2 25 23 21 2 0.43645915D-01 0.92105508D-02 0.14539686D+05 0.14539686D+05 0.14539686D+05 0.12493686D+01  1  2 15  1  5  1        2 0.102270977967D-01 0.100000000000D+01
0.284121903042D-03 0.000000000000D+00 0.000000000000D+00 0.135748382805D-02 0.000000000000D+00  5 2 -2 25 23 21 2 0.45629095D-01 0.92105508D-02 0.15504924D+05 0.15504924D+05 0.15504924D+05 0.12461867D+01  1  2 12  1  5  1        2 0.349059850751D+00 0.100000000000D+01
-.227734755462D-03 0.000000000000D+00 0.000000000000D+00 0.135748382805D-02 0.000000000000D+00  5 2 -2 25 23 21 2 0.43645915D-01 0.92105508D-02 0.14539686D+05 0.14539686D+05 0.14539686D+05 0.12493686D+01  1  2  4  1  5  1        2 -.294038533619D+00 0.100000000000D+01
-.194268778997D-02 0.000000000000D+00 -.327669758286D-03 0.135748382805D-02 0.000000000000D+00  5 2 -2 25 23 21 2 0.46199027D-01 0.92105508D-02 0.14539686D+05 0.14539686D+05 0.14539686D+05 0.12493686D+01  1  2  5  1  5  1        2 -.236223800968D+01 0.100000000000D+01
0.195867838086D-02 0.000000000000D+00 0.327140986441D-03 0.135748382805D-02 0.000000000000D+00  5 2 -2 25 23 21 2 0.43645915D-01 0.92105508D-02 0.14539686D+05 0.14539686D+05 0.14539686D+05 0.12493686D+01  1  2  6  1  5  1        2 0.252893730591D+01 0.100000000000D+01
0.332248147073D-05 0.000000000000D+00 0.000000000000D+00 0.135748382805D-02 0.188117814428D-03  5 2 -2 25 23 21 2 0.45018488D-01 0.94761787D-02 0.15504924D+05 0.15504924D+05 0.15504924D+05 0.12461867D+01  1  2 11  1  5  1        2 0.396081487717D-02 0.100000000000D+01
0.341209835009D-05 0.000000000000D+00 0.000000000000D+00 0.135748382805D-02 0.000000000000D+00  5 21 -2 25 23 -2 2 0.45629095D-01 0.92105508D-02 0.15504924D+05 0.15504924D+05 0.15504924D+05 0.12461867D+01  1  2 12  3  5  1        2 0.144007454605D-01 0.100000000000D+01
-.186822453340D-04 0.000000000000D+00 -.321342074960D-05 0.135748382805D-02 0.000000000000D+00  5 21 -2 25 23 -2 2 0.46199027D-01 0.92105508D-02 0.14539686D+05 0.14539686D+05 0.14539686D+05 0.12493686D+01  1  2  5  3  5  1        2 -.772275113970D-01 0.100000000000D+01
0.353335514778D-07 0.000000000000D+00 0.000000000000D+00 0.135748382805D-02 0.106422244841D-05  5 21 -2 25 23 -2 2 0.45018488D-01 0.94761787D-02 0.15504924D+05 0.15504924D+05 0.15504924D+05 0.12461867D+01  1  2 11  3  5  1        2 0.146617611823D-03 0.100000000000D+01
  </mgrwgt>
  </event>
  <event>
  4     66 0.45228882E-03 0.12518522E+03 0.75467711E-02 0.11660735E+00
        2 -1    0    0  501    0 0.00000000E+00 0.00000000E+00 0.10249381E+04 0.10249381E+04 0.32000000E+00 0.0000E+00 0.9000E+01
       -2 -1    0    0    0  501 0.00000000E+00 0.00000000E+00 -.23211138E+02 0.23213343E+02 0.32000000E+00 0.0000E+00 0.9000E+01
       25  1    1    2    0    0 0.56357839E+02 0.27168077E+02 0.84412914E+03 0.85562452E+03 0.12500000E+03 0.0000E+00 0.9000E+01
       23  1    1    2    0    0 -.56357839E+02 -.27168077E+02 0.15759781E+03 0.19252696E+03 0.91188000E+02 0.0000E+00 0.9000E+01
#aMCatNLO 1  0  0  1  1 0.97113046D+02 0.00000000D+00  -5  5  0 0.00000000D+00 0.00000000D+00 0.00000000D+00 0.00000000D+00 0.00000000D+00
  <mgrwgt>
 0.1920744217D+00    3    2    0
 0.154243836762722D+03 0.000000000000000D+00 0.000000000000000D+00 0.154243836762722D+03
 0.154243836762722D+03 0.000000000000000D+00 0.000000000000000D+00 -.154243836762722D+03
 0.166091552706220D+03 0.563578386042368D+02 0.271680767545456D+02 0.897055935473414D+02
 0.142396120819224D+03 -.563578386042368D+02 -.271680767545456D+02 -.897055935473414D+02
 0.000000000000000D+00 -.000000000000000D+00 -.000000000000000D+00 -.000000000000000D+00
 0.171475338787352D+03 0.000000000000000D+00 0.000000000000000D+00 0.171475338787352D+03
 0.403051674895602D+03 0.000000000000000D+00 0.000000000000000D+00 -.403051674895602D+03
 0.188846349097250D+03 0.773410513203039D+02 0.775191062535529D+02 0.897055935473414D+02
 0.134566063089469D+03 -.399843930247888D+02 0.121214187353377D+02 -.897055935473414D+02
 0.251114601496235D+03 -.373566582955151D+02 -.896405249888907D+02 -.231576336108250D+03
0.235152691894D-03 0.000000000000D+00 0.000000000000D+00 0.947611311581D-03 0.000000000000D+00  5 2 -2 25 23 21 0 0.15768296D+00 0.35711178D-02 0.15671338D+05 0.15671338D+05 0.15671338D+05 0.12456606D+01  1  2  2  1  5  1        2 0.187546832609D+00 0.100000000000D+01
-.123719338782D-04 0.000000000000D+00 -.903048254000D-06 0.947611311581D-03 0.000000000000D+00  5 2 -2 25 23 21 2 0.15768296D+00 0.35711178D-02 0.15671338D+05 0.15671338D+05 0.15671338D+05 0.12456606D+01  1  2  3  1  5  1        2 -.153107635443D-01 0.100000000000D+01
0.160304733518D-04 0.000000000000D+00 0.000000000000D+00 0.947611311581D-03 0.000000000000D+00  5 2 -2 25 23 21 2 0.15768296D+00 0.35711178D-02 0.15671338D+05 0.15671338D+05 0.15671338D+05 0.12456606D+01  1  2 15  1  5  1        2 0.198383526302D-01 0.100000000000D+01
  </mgrwgt>
  </event>
  <event>
  4     66 0.45228882E-03 0.89691311E+02 0.75467711E-02 0.11526961E+00
        2 -1    0    0  501    0 0.00000000E+00 0.00000000E+00 0.82014547E+03 0.82014554E+03 0.32000000E+00 0.0000E+00 0.9000E+01
       -2 -1    0    0    0  501 0.00000000E+00 0.00000000E+00 -.22230695E+02 0.22232998E+02 0.32000000E+00 0.0000E+00 0.9000E+01
       25  1    1    2    0    0 -.35333365E+02 0.70978301E+02 0.47840562E+03 0.50078270E+03 0.12500000E+03 0.0000E+00 0.9000E+01
       23  1    1    2    0    0 0.35333365E+02 -.70978301E+02 0.31950915E+03 0.34159584E+03 0.91188000E+02 0.0000E+00 0.9000E+01
#aMCatNLO 1  0  0  1  2 0.10458196D+03 0.00000000D+00  -5  5  0 0.00000000D+00 0.00000000D+00 0.00000000D+00 0.00000000D+00 0.00000000D+00
  <mgrwgt>
 0.1219792074D+00    7    2    0
 0.135031106726850D+03 0.000000000000000D+00 0.000000000000000D+00 0.135031106726850D+03
 0.135031106726850D+03 0.000000000000000D+00 0.000000000000000D+00 -.135031106726850D+03
 0.148564559931056D+03 -.353333646398607D+02 0.709783008742018D+02 0.126515855032632D+02
 0.121497653522644D+03 0.353333646398607D+02 -.709783008742018D+02 -.126515855032632D+02
 0.000000000000000D+00 0.000000000000000D+00 0.000000000000000D+00 0.000000000000000D+00
 0.391153834537835D+03 0.000000000000000D+00 0.000000000000000D+00 0.391153834537835D+03
 0.155901813681564D+03 0.000000000000000D+00 0.000000000000000D+00 -.155901813681564D+03
 0.158426456802117D+03 -.859263377733642D+02 0.439379571211993D+02 0.126515855032632D+02
 0.131178420780850D+03 -.630835496077162D+01 -.932344827652317D+02 -.126515855032632D+02
 0.257450770636432D+03 0.922346927341358D+02 0.492965256440324D+02 0.235252020856272D+03
0.133358910618D-03 0.000000000000D+00 0.000000000000D+00 0.146337256756D-02 0.000000000000D+00  5 2 -2 25 23 21 0 0.12617641D+00 0.34202888D-02 0.18071698D+05 0.18071698D+05 0.18071698D+05 0.12387031D+01  1  2  2  1  5  1        2 0.152673595088D+00 0.100000000000D+01
-.740864966568D-05 0.000000000000D+00 -.512133330979D-06 0.146337256756D-02 0.000000000000D+00  5 2 -2 25 23 21 2 0.12617641D+00 0.34202888D-02 0.18071698D+05 0.18071698D+05 0.18071698D+05 0.12387031D+01  1  2  3  1  5  1        2 -.130141383805D-01 0.100000000000D+01
0.922693097486D-05 0.000000000000D+00 0.000000000000D+00 0.146337256756D-02 0.000000000000D+00  5 2 -2 25 23 21 2 0.12617641D+00 0.34202888D-02 0.18071698D+05 0.18071698D+05 0.18071698D+05 0.12387031D+01  1  2 15  1  5  1        2 0.162081569453D-01 0.100000000000D+01
0.218434114433D-04 0.000000000000D+00 0.000000000000D+00 0.146337256756D-02 0.000000000000D+00  5 2 -2 25 23 21 2 0.35525199D+00 0.34202888D-02 0.38625877D+05 0.38625877D+05 0.38625877D+05 0.12035450D+01  1  2 12  1  5  1        2 0.564564450536D-02 0.100000000000D+01
-.169776111993D-03 0.000000000000D+00 -.481298762113D-04 0.146337256756D-02 0.000000000000D+00  5 2 -2 25 23 21 2 0.37943749D+00 0.34202888D-02 0.18071698D+05 0.18071698D+05 0.18071698D+05 0.12387031D+01  1  2  5  1  5  1        2 -.387141260492D-01 0.100000000000D+01
0.254188890408D-05 0.000000000000D+00 0.000000000000D+00 0.146337256756D-02 0.000000000000D+00  5 21 -2 25 23 -2 2 0.35525199D+00 0.34202888D-02 0.38625877D+05 0.38625877D+05 0.38625877D+05 0.12035450D+01  1  2 12  3  5  1        2 0.160612082924D-03 0.100000000000D+01
-.188824882864D-04 0.000000000000D+00 -.603210069850D-05 0.146337256756D-02 0.000000000000D+00  5 21 -2 25 23 -2 2 0.37943749D+00 0.34202888D-02 0.18071698D+05 0.18071698D+05 0.18071698D+05 0.12387031D+01  1  2  5  3  5  1        2 -.980536749025D-03 0.100000000000D+01
  </mgrwgt>
  </event>
  <event>
  4     66 0.45228882E-03 0.12558341E+03 0.75467711E-02 0.12332785E+00
        2 -1    0    0  501    0 0.00000000E+00 0.00000000E+00 0.65574793E+02 0.65575574E+02 0.32000000E+00 0.0000E+00 0.9000E+01
       -2 -1    0    0    0  501 0.00000000E+00 0.00000000E+00 -.26653356E+03 0.26653376E+03 0.32000000E+00 0.0000E+00 0.9000E+01
       25  1    1    2    0    0 -.59537998E+02 0.21634305E+02 -.16256207E+03 0.21462582E+03 0.12500000E+03 0.0000E+00 0.9000E+01
       23  1    1    2    0    0 0.59537998E+02 -.21634305E+02 -.38396697E+02 0.11748351E+03 0.91188000E+02 0.0000E+00 0.9000E+01
#aMCatNLO 1  0  0  2  2 0.11404643D+01 0.00000000D+00  -5  5  0 0.00000000D+00 0.00000000D+00 0.00000000D+00 0.00000000D+00 0.00000000D+00
  <mgrwgt>
 0.1943580724D+00    6    2    0
 0.132204556432246D+03 0.000000000000000D+00 0.000000000000000D+00 0.132204556432246D+03
 0.132204556432246D+03 0.000000000000000D+00 0.000000000000000D+00 -.132204556432246D+03
 0.146027356593726D+03 -.595379982794464D+02 0.216343046872660D+02 -.410630307615780D+02
 0.118381756270766D+03 0.595379982794464D+02 -.216343046872660D+02 0.410630307615780D+02
 0.000000000000000D+00 0.000000000000000D+00 0.000000000000000D+00 0.000000000000000D+00
 0.229278222618727D+03 0.000000000000000D+00 0.000000000000000D+00 0.229278222618727D+03
 0.132209135917577D+03 0.000000000000000D+00 0.000000000000000D+00 -.132209135917577D+03
 0.146200327951583D+03 -.600775173954620D+02 0.213085734253172D+02 -.410630307615780D+02
 0.118211244459113D+03 0.591011935091938D+02 -.218980228110841D+02 0.410630307615780D+02
 0.970757861256077D+02 0.976323886268126D+00 0.589449385766864D+00 0.970690867011504D+02
0.455749431926D-03 0.000000000000D+00 0.000000000000D+00 0.139058465628D-02 0.000000000000D+00  5 2 -2 25 23 21 0 0.10088505D-01 0.41005238D-01 0.15771194D+05 0.15771194D+05 0.15771194D+05 0.12453480D+01  1  2  2  2  5  2       -2 0.156280218323D+00 0.100000000000D+01
-.252381435104D-04 0.000000000000D+00 -.175019782018D-05 0.139058465628D-02 0.000000000000D+00  5 2 -2 25 23 21 2 0.10088505D-01 0.41005238D-01 0.15771194D+05 0.15771194D+05 0.15771194D+05 0.12453480D+01  1  2  3  2  5  2       -2 -.134219838824D-01 0.100000000000D+01
0.314457158812D-04 0.000000000000D+00 0.000000000000D+00 0.139058465628D-02 0.000000000000D+00  5 2 -2 25 23 21 2 0.10088505D-01 0.41005238D-01 0.15771194D+05 0.15771194D+05 0.15771194D+05 0.12453480D+01  1  2 15  2  5  2       -2 0.167232542898D-01 0.100000000000D+01
-.471242229263D-06 0.000000000000D+00 0.000000000000D+00 0.139058465628D-02 0.000000000000D+00  5 2 -2 25 23 21 2 0.10088505D-01 0.41005238D-01 0.15771194D+05 0.15771194D+05 0.15771194D+05 0.12453480D+01  1  2  4  2  5  2       -2 -.250612950325D-03 0.100000000000D+01
0.544291916595D-06 0.000000000000D+00 0.000000000000D+00 0.139058465628D-02 0.102071218301D-01  5 2 -2 25 23 21 2 0.17496177D-01 0.41006659D-01 0.15914543D+05 0.15914543D+05 0.15914543D+05 0.12449030D+01  1  2 11  2  5  2       -2 0.150661283545D-03 0.100000000000D+01
0.988026918573D-05 0.000000000000D+00 0.000000000000D+00 0.139058465628D-02 0.857747285176D-07  5 2 21 25 23 2 2 0.17496177D-01 0.41006659D-01 0.15914543D+05 0.15914543D+05 0.15914543D+05 0.12449030D+01  1  2 11  4  5  2       -2 0.348765353641D-01 0.100000000000D+01
  </mgrwgt>
  </event>
  <event>
  4     66 0.45228882E-03 0.11622209E+03 0.75467711E-02 0.11979486E+00
        4 -1    0    0  501    0 0.00000000E+00 0.00000000E+00 0.24491280E+02 0.24540279E+02 0.15500000E+01 0.0000E+00 0.9000E+01
       -4 -1    0    0    0  501 0.00000000E+00 0.00000000E+00 -.59624431E+03 0.59624633E+03 0.15500000E+01 0.0000E+00 0.9000E+01
       25  1    1    2    0    0 0.38900725E+02 -.16474687E+02 -.23676918E+03 0.27105225E+03 0.12500000E+03 0.0000E+00 0.9000E+01
       23  1    1    2    0    0 -.38900725E+02 0.16474687E+02 -.33498386E+03 0.34973435E+03 0.91188000E+02 0.0000E+00 0.9000E+01
#aMCatNLO 1  0  0  2  2 0.63175485D+02 0.00000000D+00  -5  5  0 0.00000000D+00 0.00000000D+00 0.00000000D+00 0.00000000D+00 0.00000000D+00
  <mgrwgt>
 0.3168367337D-01    4    2    0
 0.120907485720254D+03 0.000000000000000D+00 0.000000000000000D+00 0.120907485720254D+03
 0.120907485720254D+03 0.000000000000000D+00 0.000000000000000D+00 -.120907485720254D+03
 0.136021828336129D+03 0.389007251114908D+02 -.164746865609106D+02 0.330492976086241D+02
 0.105793143104378D+03 -.389007251114908D+02 0.164746865609106D+02 -.330492976086241D+02
 0.000000000000000D+00 0.000000000000000D+00 -.000000000000000D+00 0.000000000000000D+00
 0.197223867824827D+03 0.000000000000000D+00 0.000000000000000D+00 0.197223867824827D+03
 0.138774220505611D+03 0.000000000000000D+00 0.000000000000000D+00 -.138774220505611D+03
 0.134880684585358D+03 0.339479506704986D+02 0.179744164596463D+02 0.330492976086241D+02
 0.115050550644719D+03 -.429382993298290D+02 0.445580995767501D+02 -.330492976086241D+02
 0.860668531003615D+02 0.899034865933035D+01 -.625325160363964D+02 0.584496473192157D+02
0.571874074434D-03 0.000000000000D+00 0.000000000000D+00 0.156466377024D-02 0.000000000000D+00  5 4 -4 25 23 21 0 0.37718134D-02 0.91733818D-01 0.13507574D+05 0.13507574D+05 0.13507574D+05 0.12530448D+01  1  2  2  2  5  2       -4 0.360145625912D-01 0.100000000000D+01
-.317104421046D-04 0.000000000000D+00 -.219614702373D-05 0.156466377024D-02 0.000000000000D+00  5 4 -4 25 23 21 2 0.37718134D-02 0.91733818D-01 0.13507574D+05 0.13507574D+05 0.13507574D+05 0.12530448D+01  1  2  3  2  5  2       -4 -.313554634985D-02 0.100000000000D+01
0.395878416183D-04 0.000000000000D+00 0.000000000000D+00 0.156466377024D-02 0.000000000000D+00  5 4 -4 25 23 21 2 0.37718134D-02 0.91733818D-01 0.13507574D+05 0.13507574D+05 0.13507574D+05 0.12530448D+01  1  2 15  2  5  2       -4 0.391446804416D-02 0.100000000000D+01
-.516765963581D-04 0.000000000000D+00 0.000000000000D+00 0.156466377024D-02 0.000000000000D+00  5 4 -4 25 23 21 2 0.37718134D-02 0.91733818D-01 0.13507574D+05 0.13507574D+05 0.13507574D+05 0.12530448D+01  1  2  4  2  5  2       -4 -.510981091178D-02 0.100000000000D+01
  </mgrwgt>
  </event>
  <event>
  5     66 0.45228882E-03 0.13049572E+03 0.75467711E-02 0.12083065E+00
        2 -1    0    0  501    0 0.00000000E+00 0.00000000E+00 0.41654763E+04 0.41654763E+04 0.32000000E+00 0.0000E+00 0.9000E+01
       21 -1    0    0  502  501 0.00000000E+00 0.00000000E+00 -.49686702E+01 0.50249560E+01 0.75000000E+00 0.0000E+00 0.9000E+01
       25  1    1    2    0    0 0.53338721E+02 0.25079087E+02 0.20639892E+04 0.20686107E+04 0.12500000E+03 0.0000E+00 0.9000E+01
       23  1    1    2    0    0 -.74192612E+02 -.39531880E+02 0.16526324E+04 0.16572798E+04 0.91188000E+02 0.0000E+00 0.9000E+01
        2  1    1    2  502    0 0.20853891E+02 0.14452793E+02 0.44388608E+03 0.44461075E+03 0.32000000E+00 0.0000E+00 0.9000E+01
#aMCatNLO 2  0  0  2  2 0.25372583D+02 0.00000000D+00  -5  5  0 0.00000000D+00 0.00000000D+00 0.00000000D+00 0.00000000D+00 0.00000000D+00
  <mgrwgt>
 0.3063620722D-01    1    2    0
 0.130710188980180D+03 0.000000000000000D+00 0.000000000000000D+00 0.130710188980180D+03
 0.130710188980180D+03 0.000000000000000D+00 0.000000000000000D+00 -.130710188980180D+03
 0.144691020759691D+03 0.646035205645724D+02 0.328861584153249D+02 0.744158610959318D+01
 0.116729357200669D+03 -.646035205645724D+02 -.328861584153249D+02 -.744158610959318D+01
 0.000000000000000D+00 0.000000000000000D+00 0.000000000000000D+00 0.000000000000000D+00
 0.147001058604852D+03 0.000000000000000D+00 0.000000000000000D+00 0.147001058604852D+03
 0.141590729609689D+03 0.000000000000000D+00 0.000000000000000D+00 -.141590729609689D+03
 0.138399266612192D+03 0.533387213191002D+02 0.250790869652264D+02 0.744158610959318D+01
 0.124249514068412D+03 -.741926118486568D+02 -.395318801157320D+02 -.744158610959318D+01
 0.259430075339373D+02 0.208538905295566D+02 0.144527931505056D+02 0.541032899516284D+01
0.773425966557D-05 0.000000000000D+00 0.000000000000D+00 0.151757776713D-02 0.277890503034D-06  5 2 21 25 23 2 2 0.64084244D+00 0.76873615D-03 0.20678168D+05 0.20678168D+05 0.20678168D+05 0.12322349D+01  1  2  1  4  5  2       -2 0.306362072213D-01 0.100000000000D+01
  </mgrwgt>
  </event>
  <event>
  4     66 0.45228882E-03 0.10965885E+03 0.75467711E-02 0.11280695E+00
        2 -1    0    0  501    0 0.00000000E+00 0.00000000E+00 0.24596092E+04 0.24596092E+04 0.32000000E+00 0.0000E+00 0.9000E+01
       -2 -1    0    0    0  501 0.00000000E+00 0.00000000E+00 -.50764012E+01 0.50864771E+01 0.32000000E+00 0.0000E+00 0.9000E+01
       25  1    1    2    0    0 -.92151997E+01 -.15739485E+02 0.16438547E+04 0.16487012E+04 0.12500000E+03 0.0000E+00 0.9000E+01
       23  1    1    2    0    0 0.92151997E+01 0.15739485E+02 0.81067814E+03 0.81599445E+03 0.91188000E+02 0.0000E+00 0.9000E+01
#aMCatNLO 1  0  0  1  2 0.17519979D+03 0.00000000D+00  -5  5  0 0.00000000D+00 0.00000000D+00 0.00000000D+00 0.00000000D+00 0.00000000D+00
  <mgrwgt>
 0.2236047128D+00    3    2    0
 0.111796268217627D+03 0.000000000000000D+00 0.000000000000000D+00 0.111796268217627D+03
 0.111796268217627D+03 0.000000000000000D+00 0.000000000000000D+00 -.111796268217627D+03
 0.128142405643634D+03 -.921519973373338D+01 -.157394853546865D+02 0.215133637252420D+02
 0.954501307916210D+02 0.921519973373338D+01 0.157394853546865D+02 -.215133637252420D+02
 0.000000000000000D+00 0.000000000000000D+00 -.000000000000000D+00 -.000000000000000D+00
 0.184969407694795D+03 0.000000000000000D+00 0.000000000000000D+00 0.184969407694795D+03
 0.320734156888609D+03 0.000000000000000D+00 0.000000000000000D+00 -.320734156888609D+03
 0.152699928039593D+03 -.338258217395386D+02 0.780080572003124D+02 0.215133637252420D+02
 0.131357443293084D+03 -.106602777295339D+02 0.914497688594695D+02 -.215133637252420D+02
 0.221646193250727D+03 0.444860994690725D+02 -.169457826059782D+03 -.135764749193814D+03
0.174014170897D-03 0.000000000000D+00 0.000000000000D+00 0.178474506767D-02 0.000000000000D+00  5 2 -2 25 23 21 0 0.37840219D+00 0.78176146D-03 0.12025063D+05 0.12025063D+05 0.12025063D+05 0.12589179D+01  1  2  2  1  5  1        2 0.219076658534D+00 0.100000000000D+01
-.966307379232D-05 0.000000000000D+00 -.668260235227D-06 0.178474506767D-02 0.000000000000D+00  5 2 -2 25 23 21 2 0.37840219D+00 0.78176146D-03 0.12025063D+05 0.12025063D+05 0.12025063D+05 0.12589179D+01  1  2  3  1  5  1        2 -.192806478102D-01 0.100000000000D+01
0.119324437066D-04 0.000000000000D+00 0.000000000000D+00 0.178474506767D-02 0.000000000000D+00  5 2 -2 25 23 21 2 0.37840219D+00 0.78176146D-03 0.12025063D+05 0.12025063D+05 0.12025063D+05 0.12589179D+01  1  2 15  1  5  1        2 0.238087020306D-01 0.100000000000D+01
  </mgrwgt>
  </event>
  <event>
  4     66 0.45228882E-03 0.68256012E+02 0.75467711E-02 0.11993532E+00
        2 -1    0    0  501    0 0.00000000E+00 0.00000000E+00 0.58840382E+03 0.58840391E+03 0.32000000E+00 0.0000E+00 0.9000E+01
       -2 -1    0    0    0  501 0.00000000E+00 0.00000000E+00 -.23327901E+02 0.23330095E+02 0.32000000E+00 0.0000E+00 0.9000E+01
       25  1    1    2    0    0 0.33178914E+02 0.29139304E+02 0.33863775E+03 0.36366257E+03 0.12500000E+03 0.0000E+00 0.9000E+01
       23  1    1    2    0    0 -.33178914E+02 -.29139304E+02 0.22643817E+03 0.24807143E+03 0.91188000E+02 0.0000E+00 0.9000E+01
#aMCatNLO 1  0  0  2  1 0.60306981D+02 0.00000000D+00  -5  5  0 0.00000000D+00 0.00000000D+00 0.00000000D+00 0.00000000D+00 0.00000000D+00
  <mgrwgt>
 0.1359772717D+00    9    2    0
 0.117161954977935D+03 0.000000000000000D+00 0.000000000000000D+00 0.117161954977935D+03
 0.117161954977935D+03 0.000000000000000D+00 0.000000000000000D+00 -.117161954977935D+03
 0.132759485459089D+03 0.331789141692269D+02 0.291393037092389D+02 0.708107430083770D+01
 0.101564424496780D+03 -.331789141692269D+02 -.291393037092389D+02 -.708107430083770D+01
 0.000000000000000D+00 -.000000000000000D+00 -.000000000000000D+00 -.000000000000000D+00
 0.136413052063773D+03 0.000000000000000D+00 0.000000000000000D+00 0.136413052063773D+03
 0.179894584954114D+03 0.000000000000000D+00 0.000000000000000D+00 -.179894584954114D+03
 0.148182547455686D+03 0.643448972910889D+02 0.462888750111936D+02 0.708107430083770D+01
 0.937774218853263D+02 -.115088898436576D+02 -.172150327554452D+02 -.708107430083770D+01
 0.743476676768748D+02 -.528360074474314D+02 -.290738422557484D+02 -.434815328903416D+02
0.797447815078D-04 0.000000000000D+00 0.000000000000D+00 0.171805557774D-02 0.000000000000D+00  5 2 -2 25 23 21 0 0.90523840D-01 0.35890833D-02 0.13675874D+05 0.13675874D+05 0.13675874D+05 0.12524242D+01  1  2  2  2  5  2       -2 0.124702775176D+00 0.100000000000D+01
-.443024694500D-05 0.000000000000D+00 -.306240958273D-06 0.171805557774D-02 0.000000000000D+00  5 2 -2 25 23 21 2 0.90523840D-01 0.35890833D-02 0.13675874D+05 0.13675874D+05 0.13675874D+05 0.12524242D+01  1  2  3  2  5  2       -2 -.108668756965D-01 0.100000000000D+01
0.551337007490D-05 0.000000000000D+00 0.000000000000D+00 0.171805557774D-02 0.000000000000D+00  5 2 -2 25 23 21 2 0.90523840D-01 0.35890833D-02 0.13675874D+05 0.13675874D+05 0.13675874D+05 0.12524242D+01  1  2 15  2  5  2       -2 0.135236495880D-01 0.100000000000D+01
0.271965951562D-04 0.000000000000D+00 0.000000000000D+00 0.171805557774D-02 0.000000000000D+00  5 2 -2 25 23 21 2 0.90523840D-01 0.56780345D-02 0.22775328D+05 0.22775328D+05 0.22775328D+05 0.12276610D+01  1  2 12  2  5  2       -2 0.328870475804D-01 0.100000000000D+01
-.449327976284D-04 0.000000000000D+00 0.000000000000D+00 0.171805557774D-02 0.000000000000D+00  5 2 -2 25 23 21 2 0.90523840D-01 0.35890833D-02 0.13675874D+05 0.13675874D+05 0.13675874D+05 0.12524242D+01  1  2  4  2  5  2       -2 -.110214877993D+00 0.100000000000D+01
-.523564617588D-04 0.000000000000D+00 -.242044926885D-04 0.171805557774D-02 0.000000000000D+00  5 2 -2 25 23 21 2 0.90523840D-01 0.64125583D-02 0.13675874D+05 0.13675874D+05 0.13675874D+05 0.12524242D+01  1  2  5  2  5  2       -2 -.539794253927D-01 0.100000000000D+01
0.596467380818D-04 0.000000000000D+00 0.206313477671D-04 0.171805557774D-02 0.000000000000D+00  5 2 -2 25 23 21 2 0.90523840D-01 0.35890833D-02 0.13675874D+05 0.13675874D+05 0.13675874D+05 0.12524242D+01  1  2  6  2  5  2       -2 0.146306446679D+00 0.100000000000D+01
0.143403839741D-05 0.000000000000D+00 0.000000000000D+00 0.171805557774D-02 0.000000000000D+00  5 2 21 25 23 2 2 0.90523840D-01 0.56780345D-02 0.22775328D+05 0.22775328D+05 0.22775328D+05 0.12276610D+01  1  2 12  4  5  2       -2 0.302277773000D-01 0.100000000000D+01
-.206618122230D-05 0.000000000000D+00 -.154328525747D-05 0.171805557774D-02 0.000000000000D+00  5 2 21 25 23 2 2 0.90523840D-01 0.64125583D-02 0.13675874D+05 0.13675874D+05 0.13675874D+05 0.12524242D+01  1  2  5  4  5  2       -2 -.366092455813D-01 0.100000000000D+01
  </mgrwgt>
  </event>
  <event>
  4     66 0.45228882E-03 0.10875952E+03 0.75467711E-02 0.10246006E+00
        2 -1    0    0  501    0 0.00000000E+00 0.00000000E+00 0.13218753E+03 0.13218792E+03 0.32000000E+00 0.0000E+00 0.9000E+01
       -2 -1    0    0    0  501 0.00000000E+00 0.00000000E+00 -.90618328E+02 0.90618893E+02 0.32000000E+00 0.0000E+00 0.9000E+01
       25  1    1    2    0    0 -.18906981E+01 -.11715690E+02 0.11633310E+02 0.12609983E+03 0.12500000E+03 0.0000E+00 0.9000E+01
       23  1    1    2    0    0 0.18906981E+01 0.11715690E+02 0.29935893E+02 0.96706986E+02 0.91188000E+02 0.0000E+00 0.9000E+01
#aMCatNLO 1  0  0  2  1 0.43493740D+03 0.00000000D+00  -5  5  0 0.00000000D+00 0.00000000D+00 0.00000000D+00 0.00000000D+00 0.00000000D+00
  <mgrwgt>
 0.1438714214D+00    3    2    0
 0.109447335185465D+03 0.000000000000000D+00 0.000000000000000D+00 0.109447335185465D+03
 0.109447335185465D+03 0.000000000000000D+00 0.000000000000000D+00 -.109447335185465D+03
 0.126144289578218D+03 -.189069814792930D+01 -.117156896008922D+02 -.121057701482482D+02
 0.927503807927129D+02 0.189069814792930D+01 0.117156896008922D+02 0.121057701482482D+02
 0.000000000000000D+00 0.000000000000000D+00 -.000000000000000D+00 0.000000000000000D+00
 0.474021191135676D+03 0.000000000000000D+00 0.000000000000000D+00 0.474021191135676D+03
 0.448574176791259D+03 0.000000000000000D+00 0.000000000000000D+00 -.448574176791259D+03
 0.259366934554862D+03 -.698490849992070D+02 0.215918416060968D+03 -.121057701482482D+02
 0.227547248158194D+03 -.545717569329603D+02 0.200842904964887D+03 0.121057701482482D+02
 0.435681185213879D+03 0.124420841932167D+03 -.416761321025855D+03 0.254470143444166D+02
0.144780573615D-03 0.000000000000D+00 0.000000000000D+00 0.187340194722D-02 0.000000000000D+00  5 2 -2 25 23 21 0 0.20336616D-01 0.13941355D-01 0.11828632D+05 0.11828632D+05 0.11828632D+05 0.12597569D+01  1  2  2  2  5  2       -2 0.140816672487D+00 0.100000000000D+01
-.804297651820D-05 0.000000000000D+00 -.555995524284D-06 0.187340194722D-02 0.000000000000D+00  5 2 -2 25 23 21 2 0.20336616D-01 0.13941355D-01 0.11828632D+05 0.11828632D+05 0.11828632D+05 0.12597569D+01  1  2  3  2  5  2       -2 -.124146379666D-01 0.100000000000D+01
0.100220333139D-04 0.000000000000D+00 0.000000000000D+00 0.187340194722D-02 0.000000000000D+00  5 2 -2 25 23 21 2 0.20336616D-01 0.13941355D-01 0.11828632D+05 0.11828632D+05 0.11828632D+05 0.12597569D+01  1  2 15  2  5  2       -2 0.154693868620D-01 0.100000000000D+01
  </mgrwgt>
  </event>
  <event>
  4     66 0.45228882E-03 0.11489633E+03 0.75467711E-02 0.10535518E+00
        2 -1    0    0  501    0 0.00000000E+00 0.00000000E+00 0.41364644E+03 0.41364656E+03 0.32000000E+00 0.0000E+00 0.9000E+01
       -2 -1    0    0    0  501 0.00000000E+00 0.00000000E+00 -.36630699E+02 0.36632097E+02 0.32000000E+00 0.0000E+00 0.9000E+01
       25  1    1    2    0    0 -.11408039E+02 0.36794965E+02 0.29135846E+03 0.31937246E+03 0.12500000E+03 0.0000E+00 0.9000E+01
       23  1    1    2    0    0 0.11408039E+02 -.36794965E+02 0.85657272E+02 0.13090620E+03 0.91188000E+02 0.0000E+00 0.9000E+01
#aMCatNLO 1  0  0  2  1 0.33754300D+03 0.00000000D+00  -5  5  0 0.00000000D+00 0.00000000D+00 0.00000000D+00 0.00000000D+00 0.00000000D+00
  <mgrwgt>
 0.1870397661D+00    3    2    0
 0.123095493993121D+03 0.000000000000000D+00 0.000000000000000D+00 0.123095493993121D+03
 0.123095493993121D+03 0.000000000000000D+00 0.000000000000000D+00 -.123095493993121D+03
 0.137941180904310D+03 -.114080386711700D+02 0.367949654173816D+02 0.438036135825166D+02
 0.108249807081933D+03 0.114080386711700D+02 -.367949654173816D+02 -.438036135825166D+02
 0.000000000000000D+00 -.000000000000000D+00 0.000000000000000D+00 0.000000000000000D+00
 0.474585364556221D+03 0.000000000000000D+00 0.000000000000000D+00 0.474585364556221D+03
 0.316099128383619D+03 0.000000000000000D+00 0.000000000000000D+00 -.316099128383619D+03
 0.195414917426165D+03 0.135585968914198D+03 -.475360749682442D+02 0.438036135825166D+02
 0.222371246830432D+03 0.157196023202046D+03 -.120434105632483D+03 -.438036135825166D+02
 0.372898328683242D+03 -.292781992116245D+03 0.167970180600727D+03 0.158486236172602D+03
0.156328756001D-03 0.000000000000D+00 0.000000000000D+00 0.146769493740D-02 0.000000000000D+00  5 2 -2 25 23 21 0 0.63638030D-01 0.56356092D-02 0.13201166D+05 0.13201166D+05 0.13201166D+05 0.12541972D+01  1  2  2  2  5  2       -2 0.183219551277D+00 0.100000000000D+01
-.863475825953D-05 0.000000000000D+00 -.600343585349D-06 0.146769493740D-02 0.000000000000D+00  5 2 -2 25 23 21 2 0.63638030D-01 0.56356092D-02 0.13201166D+05 0.13201166D+05 0.13201166D+05 0.12541972D+01  1  2  3  2  5  2       -2 -.159189641580D-01 0.100000000000D+01
0.107069176646D-04 0.000000000000D+00 0.000000000000D+00 0.146769493740D-02 0.000000000000D+00  5 2 -2 25 23 21 2 0.63638030D-01 0.56356092D-02 0.13201166D+05 0.13201166D+05 0.13201166D+05 0.12541972D+01  1  2 15  2  5  2       -2 0.197391789581D-01 0.100000000000D+01
  </mgrwgt>
  </event>
  <event>
  5     66 0.45228882E-03 0.11509995E+03 0.75467711E-02 0.12212801E+00
        2 -1    0    0  501    0 0.00000000E+00 0.00000000E+00 0.74377924E+03 0.74377931E+03 0.32000000E+00 0.0000E+00 0.9000E+01
       21 -1    0    0  502  501 0.00000000E+00 0.00000000E+00 -.29827833E+02 0.29837261E+02 0.75000000E+00 0.0000E+00 0.9000E+01
       25  1    1    2    0    0 -.34951035E+02 -.47065580E+02 0.35422032E+03 0.38017598E+03 0.12500000E+03 0.0000E+00 0.9000E+01
       23  1    1    2    0    0 0.69336363E+01 0.25087810E+02 0.33947698E+03 0.35247318E+03 0.91188000E+02 0.0000E+00 0.9000E+01
        2  1    1    2  502    0 0.28017399E+02 0.21977770E+02 0.20254112E+02 0.40967407E+02 0.32000000E+00 0.0000E+00 0.9000E+01
#aMCatNLO 2  0  0  2  1 0.35608946D+02 0.00000000D+00  -5  5  0 0.00000000D+00 0.00000000D+00 0.00000000D+00 0.00000000D+00 0.00000000D+00
  <mgrwgt>
 0.2883083835D-01    2    2    0
 0.116501996623221D+03 0.000000000000000D+00 0.000000000000000D+00 0.116501996623221D+03
 0.116501996623221D+03 0.000000000000000D+00 0.000000000000000D+00 -.116501996623221D+03
 0.132187883706427D+03 -.187279737168200D+02 -.343396765771980D+02 -.178517845555995D+02
 0.100816109540014D+03 0.187279737168200D+02 0.343396765771980D+02 0.178517845555995D+02
 0.000000000000000D+00 0.000000000000000D+00 0.000000000000000D+00 -.000000000000000D+00
 0.122912813919666D+03 0.000000000000000D+00 0.000000000000000D+00 0.122912813919666D+03
 0.180525233871898D+03 0.000000000000000D+00 0.000000000000000D+00 -.180525233871898D+03
 0.139213612411671D+03 -.349510350783027D+02 -.470655799480127D+02 -.178517845555995D+02
 0.964956531611339D+02 0.693363625211370D+01 0.250878100179685D+02 0.178517845555995D+02
 0.677287822187588D+02 0.280173988261890D+02 0.219777699300442D+02 -.576124199522322D+02
-.566284266797D-05 0.000000000000D+00 0.000000000000D+00 0.170520688412D-02 0.000000000000D+00  5 2 21 25 23 2 2 0.10845970D+00 0.46344755D-02 0.18023492D+05 0.18023492D+05 0.18023492D+05 0.12388324D+01  1  2 13  4  5  2       -2 -.138290202304D+00 0.100000000000D+01
0.717974647964D-05 0.000000000000D+00 0.000000000000D+00 0.170520688412D-02 0.672342223532D-06  5 2 21 25 23 2 2 0.11442797D+00 0.45896142D-02 0.18023492D+05 0.18023492D+05 0.18023492D+05 0.12388324D+01  1  2  1  4  5  2       -2 0.167121040652D+00 0.100000000000D+01
  </mgrwgt>
  </event>
  <event>
  4     66 0.45228882E-03 0.89609611E+02 0.75467711E-02 0.11453586E+00
        2 -1    0    0  501    0 0.00000000E+00 0.00000000E+00 0.90292801E+02 0.90293368E+02 0.32000000E+00 0.0000E+00 0.9000E+01
       -2 -1    0    0    0  501 0.00000000E+00 0.00000000E+00 -.23172745E+03 0.23172767E+03 0.32000000E+00 0.0000E+00 0.9000E+01
       25  1    1    2    0    0 -.46230373E+02 -.81782270E+02 -.95762199E+02 0.18336026E+03 0.12500000E+03 0.0000E+00 0.9000E+01
       23  1    1    2    0    0 0.46230373E+02 0.81782270E+02 -.45672451E+02 0.13866078E+03 0.91188000E+02 0.0000E+00 0.9000E+01
#aMCatNLO 1  0  0  1  2 0.10476991D+03 0.00000000D+00  -5  5  0 0.00000000D+00 0.00000000D+00 0.00000000D+00 0.00000000D+00 0.00000000D+00
  <mgrwgt>
 0.8525033914D-01    7    2    0
 0.144649394926331D+03 0.000000000000000D+00 0.000000000000000D+00 0.144649394926331D+03
 0.144649394926331D+03 0.000000000000000D+00 0.000000000000000D+00 -.144649394926331D+03
 0.157282957375249D+03 -.462303729218803D+02 -.817822699831437D+02 -.169511538431011D+02
 0.132015832477413D+03 0.462303729218803D+02 0.817822699831437D+02 0.169511538431011D+02
 0.000000000000000D+00 0.000000000000000D+00 -.000000000000000D+00 0.000000000000000D+00
 0.232751105786722D+03 0.000000000000000D+00 0.000000000000000D+00 0.232751105786722D+03
 0.188619781288182D+03 0.000000000000000D+00 0.000000000000000D+00 -.188619781288182D+03
 0.169867166472610D+03 -.982159514719159D+02 -.574120153390133D+02 -.169511538431011D+02
 0.137818590228015D+03 0.335250874115315D+01 0.101882930547593D+03 0.169511538431011D+02
 0.113685130374279D+03 0.948634427307627D+02 -.444709152085792D+02 0.441313244985402D+02
0.355344096870D-03 0.000000000000D+00 0.000000000000D+00 0.137080145997D-02 0.000000000000D+00  5 2 -2 25 23 21 0 0.13891261D-01 0.35650438D-01 0.20633866D+05 0.20633866D+05 0.20633866D+05 0.12323370D+01  1  2  2  1  5  1        2 0.108682447344D+00 0.100000000000D+01
-.197401731967D-04 0.000000000000D+00 -.136461489623D-05 0.137080145997D-02 0.000000000000D+00  5 2 -2 25 23 21 2 0.13891261D-01 0.35650438D-01 0.20633866D+05 0.20633866D+05 0.20633866D+05 0.12323370D+01  1  2  3  1  5  1        2 -.916896378830D-02 0.100000000000D+01
0.245099960429D-04 0.000000000000D+00 0.000000000000D+00 0.137080145997D-02 0.000000000000D+00  5 2 -2 25 23 21 2 0.13891261D-01 0.35650438D-01 0.20633866D+05 0.20633866D+05 0.20633866D+05 0.12323370D+01  1  2 15  1  5  1        2 0.113844627365D-01 0.100000000000D+01
0.295733998892D-04 0.000000000000D+00 0.000000000000D+00 0.137080145997D-02 0.000000000000D+00  5 2 -2 25 23 21 2 0.23426774D-01 0.35650438D-01 0.42140153D+05 0.42140153D+05 0.42140153D+05 0.11997083D+01  1  2 12  1  5  1        2 0.723833515940D-02 0.100000000000D+01
-.155878632145D-03 0.000000000000D+00 -.142899681758D-03 0.137080145997D-02 0.000000000000D+00  5 2 -2 25 23 21 2 0.28729824D-01 0.35650438D-01 0.20633866D+05 0.20633866D+05 0.20633866D+05 0.12323370D+01  1  2  5  1  5  1        2 -.317582575122D-01 0.100000000000D+01
0.172760077183D-05 0.000000000000D+00 0.000000000000D+00 0.137080145997D-02 0.000000000000D+00  5 21 -2 25 23 -2 2 0.23426774D-01 0.35650438D-01 0.42140153D+05 0.42140153D+05 0.42140153D+05 0.11997083D+01  1  2 12  3  5  1        2 0.254393643157D-02 0.100000000000D+01
-.347196707134D-05 0.000000000000D+00 -.112285506621D-04 0.137080145997D-02 0.000000000000D+00  5 21 -2 25 23 -2 2 0.28729824D-01 0.35650438D-01 0.20633866D+05 0.20633866D+05 0.20633866D+05 0.12323370D+01  1  2  5  3  5  1        2 -.367162122732D-02 0.100000000000D+01
  </mgrwgt>
  </event>
  <event>
  4     66 0.45228882E-03 0.11671606E+03 0.75467711E-02 0.11790564E+00
        2 -1    0    0  501    0 0.00000000E+00 0.00000000E+00 0.12507146E+04 0.12507147E+04 0.32000000E+00 0.0000E+00 0.9000E+01
       -2 -1    0    0    0  501 0.00000000E+00 0.00000000E+00 -.10898818E+02 0.10903515E+02 0.32000000E+00 0.0000E+00 0.9000E+01
       25  1    1    2    0    0 0.19257344E+02 0.39074463E+02 0.68471426E+03 0.69739248E+03 0.12500000E+03 0.0000E+00 0.9000E+01
       23  1    1    2    0    0 -.19257344E+02 -.39074463E+02 0.55510157E+03 0.56422572E+03 0.91188000E+02 0.0000E+00 0.9000E+01
#aMCatNLO 1  0  0  1  1 0.88167829D+02 0.00000000D+00  -5  5  0 0.00000000D+00 0.00000000D+00 0.00000000D+00 0.00000000D+00 0.00000000D+00
  <mgrwgt>
 0.1629781590D+00    3    2    0
 0.116766006374750D+03 0.000000000000000D+00 0.000000000000000D+00 0.116766006374750D+03
 0.116766006374750D+03 0.000000000000000D+00 0.000000000000000D+00 -.116766006374750D+03
 0.132416427423964D+03 0.192573442457536D+02 0.390744630443891D+02 -.338397430826837D+01
 0.101115585325536D+03 -.192573442457536D+02 -.390744630443891D+02 0.338397430826837D+01
 0.000000000000000D+00 -.000000000000000D+00 -.000000000000000D+00 -.000000000000000D+00
 0.155937055666322D+03 0.000000000000000D+00 0.000000000000000D+00 0.155937055666322D+03
 0.187246031758583D+03 0.000000000000000D+00 0.000000000000000D+00 -.187246031758583D+03
 0.152668842093695D+03 0.691766546587170D+02 0.537207084310985D+02 -.338397430826837D+01
 0.969524049423606D+02 0.154249720513448D+02 -.288987272246319D+02 0.338397430826837D+01
 0.935618403888495D+02 -.846016267100618D+02 -.248219812064666D+02 -.313089760922603D+02
0.895617525001D-04 0.000000000000D+00 0.000000000000D+00 0.172904949527D-02 0.000000000000D+00  5 2 -2 25 23 21 0 0.19241800D+00 0.16771057D-02 0.13622639D+05 0.13622639D+05 0.13622639D+05 0.12526196D+01  1  2  2  1  5  1        2 0.159628124491D+00 0.100000000000D+01
-.497565180942D-05 0.000000000000D+00 -.343940711751D-06 0.172904949527D-02 0.000000000000D+00  5 2 -2 25 23 21 2 0.19241800D+00 0.16771057D-02 0.13622639D+05 0.13622639D+05 0.13622639D+05 0.12526196D+01  1  2  3  1  5  1        2 -.139147434388D-01 0.100000000000D+01
0.617356144254D-05 0.000000000000D+00 0.000000000000D+00 0.172904949527D-02 0.000000000000D+00  5 2 -2 25 23 21 2 0.19241800D+00 0.16771057D-02 0.13622639D+05 0.13622639D+05 0.13622639D+05 0.12526196D+01  1  2 15  1  5  1        2 0.172647779360D-01 0.100000000000D+01
  </mgrwgt>
  </event>
  <event>
  4     66 0.45228882E-03 0.22863638E+03 0.75467711E-02 0.10774598E+00
        2 -1    0    0  501    0 0.00000000E+00 0.00000000E+00 0.20207379E+03 0.20207404E+03 0.32000000E+00 0.0000E+00 0.9000E+01
       -2 -1    0    0    0  501 0.00000000E+00 0.00000000E+00 -.28058386E+03 0.28058404E+03 0.32000000E+00 0.0000E+00 0.9000E+01
       25  1    1    2    0    0 0.18185953E+03 -.85413484E+02 0.26853875E+02 0.23814803E+03 0.12500000E+03 0.0000E+00 0.9000E+01
       23  1    1    2    0    0 -.18185953E+03 0.85413484E+02 -.10536394E+03 0.24451005E+03 0.91188000E+02 0.0000E+00 0.9000E+01
#aMCatNLO 1  0  0  2  1 0.15080657D+03 0.00000000D+00  -5  5  0 0.00000000D+00 0.00000000D+00 0.00000000D+00 0.00000000D+00 0.00000000D+00
  <mgrwgt>
 0.1958477000D+00    3    2    0
 0.238114987324476D+03 0.000000000000000D+00 0.000000000000000D+00 0.238114987324476D+03
 0.238114987324476D+03 0.000000000000000D+00 0.000000000000000D+00 -.238114987324476D+03
 0.245789586830091D+03 0.181859531165782D+03 -.854134841902208D+02 0.664768278180898D+02
 0.230440387818861D+03 -.181859531165782D+03 0.854134841902208D+02 -.664768278180898D+02
 0.000000000000000D+00 0.000000000000000D+00 0.000000000000000D+00 0.000000000000000D+00
 0.438513668030905D+03 0.000000000000000D+00 0.000000000000000D+00 0.438513668030905D+03
 0.279892180955195D+03 0.000000000000000D+00 0.000000000000000D+00 -.279892180955195D+03
 0.229386477500450D+03 0.124224889764460D+03 -.130928087843352D+03 0.664768278180898D+02
 0.270150920101778D+03 -.242576816160498D+03 0.374644886861853D+02 -.664768278180898D+02
 0.218868451383872D+03 0.118351926396038D+03 0.934635991571667D+02 0.158621487075710D+03
0.222181106509D-02 0.000000000000D+00 0.000000000000D+00 0.990069425213D-03 0.000000000000D+00  5 2 -2 25 23 21 0 0.31088308D-01 0.43166781D-01 0.52274594D+05 0.52274594D+05 0.52274594D+05 0.11903730D+01  1  2  2  2  5  2       -2 0.192297465923D+00 0.100000000000D+01
-.123186312213D-03 0.000000000000D+00 -.853233950622D-05 0.990069425213D-03 0.000000000000D+00  5 2 -2 25 23 21 2 0.31088308D-01 0.43166781D-01 0.52274594D+05 0.52274594D+05 0.52274594D+05 0.11903730D+01  1  2  3  2  5  2       -2 -.151075854626D-01 0.100000000000D+01
0.152134699857D-03 0.000000000000D+00 0.000000000000D+00 0.990069425213D-03 0.000000000000D+00  5 2 -2 25 23 21 2 0.31088308D-01 0.43166781D-01 0.52274594D+05 0.52274594D+05 0.52274594D+05 0.11903730D+01  1  2 15  2  5  2       -2 0.186578195144D-01 0.100000000000D+01
  </mgrwgt>
  </event>
  <event>
  4     66 0.45228882E-03 0.15345994E+03 0.75467711E-02 0.11028325E+00
        2 -1    0    0  501    0 0.00000000E+00 0.00000000E+00 0.11587548E+04 0.11587548E+04 0.32000000E+00 0.0000E+00 0.9000E+01
       -2 -1    0    0    0  501 0.00000000E+00 0.00000000E+00 -.22630229E+02 0.22632491E+02 0.32000000E+00 0.0000E+00 0.9000E+01
       25  1    1    2    0    0 -.74351156E+01 -.10801089E+03 0.41952634E+03 0.45094233E+03 0.12500000E+03 0.0000E+00 0.9000E+01
       23  1    1    2    0    0 0.74351156E+01 0.10801089E+03 0.71659822E+03 0.73044500E+03 0.91188000E+02 0.0000E+00 0.9000E+01
#aMCatNLO 1  0  0  1  1 0.17988997D+03 0.00000000D+00  -5  5  0 0.00000000D+00 0.00000000D+00 0.00000000D+00 0.00000000D+00 0.00000000D+00
  <mgrwgt>
 0.1993951680D+00    3    2    0
 0.161939028211054D+03 0.000000000000000D+00 0.000000000000000D+00 0.161939028211054D+03
 0.161939028211054D+03 0.000000000000000D+00 0.000000000000000D+00 -.161939028211054D+03
 0.173223751752919D+03 -.743511559119720D+01 -.108010889652651D+03 -.515735876582711D+02
 0.150654304669189D+03 0.743511559119720D+01 0.108010889652651D+03 0.515735876582711D+02
 0.000000000000000D+00 -.000000000000000D+00 -.000000000000000D+00 -.000000000000000D+00
 0.208561809477564D+03 0.000000000000000D+00 0.000000000000000D+00 0.208561809477564D+03
 0.532150958921095D+03 0.000000000000000D+00 0.000000000000000D+00 -.532150958921095D+03
 0.138532102607962D+03 0.859851836316305D+01 -.288508923778105D+02 -.515735876582711D+02
 0.231950550370680D+03 0.271125205510704D+02 0.205160626726191D+03 0.515735876582711D+02
 0.370230115420016D+03 -.357110389142335D+02 -.176309734348381D+03 -.323589149443531D+03
0.279231729618D-03 0.000000000000D+00 0.000000000000D+00 0.116558857075D-02 0.000000000000D+00  5 2 -2 25 23 21 0 0.17827015D+00 0.34817511D-02 0.23549953D+05 0.23549953D+05 0.23549953D+05 0.12260896D+01  1  2  2  1  5  1        2 0.195441032515D+00 0.100000000000D+01
-.154583205750D-04 0.000000000000D+00 -.107232336514D-05 0.116558857075D-02 0.000000000000D+00  5 2 -2 25 23 21 2 0.17827015D+00 0.34817511D-02 0.23549953D+05 0.23549953D+05 0.23549953D+05 0.12260896D+01  1  2  3  1  5  1        2 -.162651368811D-01 0.100000000000D+01
0.192163149964D-04 0.000000000000D+00 0.000000000000D+00 0.116558857075D-02 0.000000000000D+00  5 2 -2 25 23 21 2 0.17827015D+00 0.34817511D-02 0.23549953D+05 0.23549953D+05 0.23549953D+05 0.12260896D+01  1  2 15  1  5  1        2 0.202192723492D-01 0.100000000000D+01
  </mgrwgt>
  </event>
  <event>
  4     66 0.45228882E-03 0.13632913E+03 0.75467711E-02 0.10998031E+00
        2 -1    0    0  501    0 0.00000000E+00 0.00000000E+00 0.53457491E+03 0.53457501E+03 0.32000000E+00 0.0000E+00 0.9000E+01
       -2 -1    0    0    0  501 0.00000000E+00 0.00000000E+00 -.56232196E+02 0.56233107E+02 0.32000000E+00 0.0000E+00 0.9000E+01
       25  1    1    2    0    0 -.43291837E+02 -.70149880E+02 0.71744373E+02 0.16603447E+03 0.12500000E+03 0.0000E+00 0.9000E+01
       23  1    1    2    0    0 0.43291837E+02 0.70149880E+02 0.40659834E+03 0.42477365E+03 0.91188000E+02 0.0000E+00 0.9000E+01
#aMCatNLO 1  0  0  1  1 0.20467542D+03 0.00000000D+00  -5  5  0 0.00000000D+00 0.00000000D+00 0.00000000D+00 0.00000000D+00 0.00000000D+00
  <mgrwgt>
 0.1397439826D+00    3    2    0
 0.173379983265386D+03 0.000000000000000D+00 0.000000000000000D+00 0.173379983265386D+03
 0.173379983265386D+03 0.000000000000000D+00 0.000000000000000D+00 -.173379983265386D+03
 0.183920053287211D+03 -.432918368490107D+02 -.701498797804512D+02 -.106800736093893D+03
 0.162839913243561D+03 0.432918368490107D+02 0.701498797804512D+02 0.106800736093893D+03
 0.000000000000000D+00 -.000000000000000D+00 -.000000000000000D+00 -.000000000000000D+00
 0.298916304665469D+03 0.000000000000000D+00 0.000000000000000D+00 0.298916304665469D+03
 0.308649715056974D+03 0.000000000000000D+00 0.000000000000000D+00 -.308649715056974D+03
 0.182619303944032D+03 0.558834048768355D+02 -.565283822710055D+02 -.106800736093893D+03
 0.220039985375231D+03 0.146888369522391D+03 0.843786317072529D+02 0.106800736093893D+03
 0.204906730403180D+03 -.202771774399227D+03 -.278502494362474D+02 -.973341039150495D+01
0.292425236471D-03 0.000000000000D+00 0.000000000000D+00 0.821988973616D-03 0.000000000000D+00  5 2 -2 25 23 21 0 0.82242372D-01 0.86511845D-02 0.18585631D+05 0.18585631D+05 0.18585631D+05 0.12373482D+01  1  2  2  1  5  1        2 0.136278070387D+00 0.100000000000D+01
-.151041730153D-04 0.000000000000D+00 -.112298990538D-05 0.821988973616D-03 0.000000000000D+00  5 2 -2 25 23 21 2 0.82242372D-01 0.86511845D-02 0.18585631D+05 0.18585631D+05 0.18585631D+05 0.12373482D+01  1  2  3  1  5  1        2 -.107768531130D-01 0.100000000000D+01
0.199617819918D-04 0.000000000000D+00 0.000000000000D+00 0.821988973616D-03 0.000000000000D+00  5 2 -2 25 23 21 2 0.82242372D-01 0.86511845D-02 0.18585631D+05 0.18585631D+05 0.18585631D+05 0.12373482D+01  1  2 15  1  5  1        2 0.142427653724D-01 0.100000000000D+01
  </mgrwgt>
  </event>
  <event>
  4     66 0.45228882E-03 0.96937345E+02 0.75467711E-02 0.11846183E+00
        2 -1    0    0  501    0 0.00000000E+00 0.00000000E+00 0.21880058E+03 0.21880082E+03 0.32000000E+00 0.0000E+00 0.9000E+01
       -2 -1    0    0    0  501 0.00000000E+00 0.00000000E+00 -.10988163E+03 0.10988209E+03 0.32000000E+00 0.0000E+00 0.9000E+01
       25  1    1    2    0    0 0.71512947E+02 -.80717160E+02 0.33036213E+02 0.16836197E+03 0.12500000E+03 0.0000E+00 0.9000E+01
       23  1    1    2    0    0 -.71512947E+02 0.80717160E+02 0.75882746E+02 0.16032094E+03 0.91188000E+02 0.0000E+00 0.9000E+01
#aMCatNLO 1  0  0  2  1 0.20353993D+02 0.00000000D+00  -5  5  0 0.00000000D+00 0.00000000D+00 0.00000000D+00 0.00000000D+00 0.00000000D+00
  <mgrwgt>
 0.1981334575D+00    9    2    0
 0.155055728742983D+03 0.000000000000000D+00 0.000000000000000D+00 0.155055728742983D+03
 0.155055728742983D+03 0.000000000000000D+00 0.000000000000000D+00 -.155055728742983D+03
 0.166841408503510D+03 0.715129469379245D+02 -.807171601289056D+02 -.241183347769581D+02
 0.143270048982456D+03 -.715129469379245D+02 0.807171601289056D+02 0.241183347769581D+02
 0.000000000000000D+00 0.000000000000000D+00 0.000000000000000D+00 -.000000000000000D+00
 0.165487328813182D+03 0.000000000000000D+00 0.000000000000000D+00 0.165487328813182D+03
 0.165645984082355D+03 0.000000000000000D+00 0.000000000000000D+00 -.165645984082355D+03
 0.169694580190266D+03 0.663630887803053D+02 -.904737360844267D+02 -.241183347769581D+02
 0.141084120995077D+03 -.758642903041888D+02 0.724733967548214D+02 0.241183347769581D+02
 0.203546117101952D+02 0.950120152388350D+01 0.180003393296053D+02 -.158655269173084D+00
0.319472008610D-03 0.000000000000D+00 0.000000000000D+00 0.128727106774D-02 0.000000000000D+00  5 2 -2 25 23 21 0 0.33661682D-01 0.16904919D-01 0.23457120D+05 0.23457120D+05 0.23457120D+05 0.12262749D+01  1  2  2  2  5  2       -2 0.133541946098D+00 0.100000000000D+01
-.177451695746D-04 0.000000000000D+00 -.122685663197D-05 0.128727106774D-02 0.000000000000D+00  5 2 -2 25 23 21 2 0.33661682D-01 0.16904919D-01 0.23457120D+05 0.23457120D+05 0.23457120D+05 0.12262749D+01  1  2  3  2  5  2       -2 -.111542583606D-01 0.100000000000D+01
0.219829030656D-04 0.000000000000D+00 0.000000000000D+00 0.128727106774D-02 0.000000000000D+00  5 2 -2 25 23 21 2 0.33661682D-01 0.16904919D-01 0.23457120D+05 0.23457120D+05 0.23457120D+05 0.12262749D+01  1  2 15  2  5  2       -2 0.138180127993D-01 0.100000000000D+01
0.382336924945D-03 0.000000000000D+00 0.000000000000D+00 0.128727106774D-02 0.000000000000D+00  5 2 -2 25 23 21 2 0.33661682D-01 0.18590776D-01 0.26786757D+05 0.26786757D+05 0.26786757D+05 0.12200964D+01  1  2 12  2  5  2       -2 0.203651527651D+00 0.100000000000D+01
-.300027729017D-03 0.000000000000D+00 0.000000000000D+00 0.128727106774D-02 0.000000000000D+00  5 2 -2 25 23 21 2 0.33661682D-01 0.16904919D-01 0.23457120D+05 0.23457120D+05 0.23457120D+05 0.12262749D+01  1  2  4  2  5  2       -2 -.188591424315D+00 0.100000000000D+01
-.130952418160D-02 0.000000000000D+00 -.299226637314D-03 0.128727106774D-02 0.000000000000D+00  5 2 -2 25 23 21 2 0.33661682D-01 0.19231892D-01 0.23457120D+05 0.23457120D+05 0.23457120D+05 0.12262749D+01  1  2  5  2  5  2       -2 -.663302770562D+00 0.100000000000D+01
0.133943108571D-02 0.000000000000D+00 0.296755391806D-03 0.128727106774D-02 0.000000000000D+00  5 2 -2 25 23 21 2 0.33661682D-01 0.16904919D-01 0.23457120D+05 0.23457120D+05 0.23457120D+05 0.12262749D+01  1  2  6  2  5  2       -2 0.841939566897D+00 0.100000000000D+01
0.594326102292D-05 0.000000000000D+00 0.000000000000D+00 0.128727106774D-02 0.000000000000D+00  5 2 21 25 23 2 2 0.33661682D-01 0.18590776D-01 0.26786757D+05 0.26786757D+05 0.26786757D+05 0.12200964D+01  1  2 12  4  5  2       -2 0.445437018168D-01 0.100000000000D+01
-.248097689469D-04 0.000000000000D+00 -.602992717332D-05 0.128727106774D-02 0.000000000000D+00  5 2 21 25 23 2 2 0.33661682D-01 0.19231892D-01 0.23457120D+05 0.23457120D+05 0.23457120D+05 0.12262749D+01  1  2  5  4  5  2       -2 -.176312844547D+00 0.100000000000D+01
  </mgrwgt>
  </event>
  <event>
  4     66 0.45228882E-03 0.56024274E+02 0.75467711E-02 0.12084134E+00
        2 -1    0    0  501    0 0.00000000E+00 0.00000000E+00 0.69102672E+02 0.69103413E+02 0.32000000E+00 0.0000E+00 0.9000E+01
       -2 -1    0    0    0  501 0.00000000E+00 0.00000000E+00 -.34790100E+03 0.34790115E+03 0.32000000E+00 0.0000E+00 0.9000E+01
       25  1    1    2    0    0 0.36569562E+02 0.23980675E+02 -.28645326E+03 0.31558339E+03 0.12500000E+03 0.0000E+00 0.9000E+01
       23  1    1    2    0    0 -.36569562E+02 -.23980675E+02 0.76549265E+01 0.10142118E+03 0.91188000E+02 0.0000E+00 0.9000E+01
#aMCatNLO 1  0  0  2  1 0.49566774D+02 0.00000000D+00  -5  5  0 0.00000000D+00 0.00000000D+00 0.00000000D+00 0.00000000D+00 0.00000000D+00
  <mgrwgt>
 0.6574667640D-01    7    2    0
 0.155051842970001D+03 0.000000000000000D+00 0.000000000000000D+00 0.155051842970001D+03
 0.155051842970001D+03 0.000000000000000D+00 0.000000000000000D+00 -.155051842970001D+03
 0.166837818092874D+03 0.365695617614971D+02 0.239806747515127D+02 -.101476361469187D+03
 0.143265867847129D+03 -.365695617614971D+02 -.239806747515127D+02 0.101476361469187D+03
 0.000000000000000D+00 -.000000000000000D+00 0.000000000000000D+00 -.000000000000000D+00
 0.161010628679656D+03 0.000000000000000D+00 0.000000000000000D+00 0.161010628679656D+03
 0.310935909354176D+03 0.000000000000000D+00 0.000000000000000D+00 -.310935909354176D+03
 0.173938312445089D+03 0.631098652931626D+02 0.186876831602827D+02 -.101476361469187D+03
 0.140101750487963D+03 -.145003440912747D+02 -.283819877739558D+02 0.101476361469187D+03
 0.157906475100780D+03 -.486095212018879D+02 0.969430461367313D+01 -.149925280674521D+03
0.436692275317D-03 0.000000000000D+00 0.000000000000D+00 0.844702298751D-03 0.000000000000D+00  5 2 -2 25 23 21 0 0.10631249D-01 0.53523299D-01 0.13637656D+05 0.13637656D+05 0.13637656D+05 0.12525644D+01  1  2  2  2  5  2       -2 0.832514880325D-01 0.100000000000D+01
-.218904990328D-04 0.000000000000D+00 -.167701332094D-05 0.844702298751D-03 0.000000000000D+00  5 2 -2 25 23 21 2 0.10631249D-01 0.53523299D-01 0.13637656D+05 0.13637656D+05 0.13637656D+05 0.12525644D+01  1  2  3  2  5  2       -2 -.654745131594D-02 0.100000000000D+01
0.297414254099D-04 0.000000000000D+00 0.000000000000D+00 0.844702298751D-03 0.000000000000D+00  5 2 -2 25 23 21 2 0.10631249D-01 0.53523299D-01 0.13637656D+05 0.13637656D+05 0.13637656D+05 0.12525644D+01  1  2 15  2  5  2       -2 0.889566449110D-02 0.100000000000D+01
0.934208024185D-03 0.000000000000D+00 0.000000000000D+00 0.844702298751D-03 0.000000000000D+00  5 2 -2 25 23 21 2 0.10631249D-01 0.10735218D+00 0.20654529D+05 0.20654529D+05 0.20654529D+05 0.12322894D+01  1  2 12  2  5  2       -2 0.604779354673D-01 0.100000000000D+01
-.113242922910D-02 0.000000000000D+00 -.117297935715D-03 0.844702298751D-03 0.000000000000D+00  5 2 -2 25 23 21 2 0.10631249D-01 0.10908388D+00 0.13637656D+05 0.13637656D+05 0.13637656D+05 0.12525644D+01  1  2  5  2  5  2       -2 -.725984628595D-01 0.100000000000D+01
0.703455957129D-04 0.000000000000D+00 0.000000000000D+00 0.844702298751D-03 0.000000000000D+00  5 2 21 25 23 2 2 0.10631249D-01 0.10735218D+00 0.20654529D+05 0.20654529D+05 0.20654529D+05 0.12322894D+01  1  2 12  4  5  2       -2 0.540267336258D-01 0.100000000000D+01
-.800569704056D-04 0.000000000000D+00 -.903161329346D-05 0.844702298751D-03 0.000000000000D+00  5 2 21 25 23 2 2 0.10631249D-01 0.10908388D+00 0.13637656D+05 0.13637656D+05 0.13637656D+05 0.12525644D+01  1  2  5  4  5  2       -2 -.617592310418D-01 0.100000000000D+01
  </mgrwgt>
  </event>
  <event>
  5     66 0.45228882E-03 0.19178255E+03 0.75467711E-02 0.11377257E+00
        2 -1    0    0  502    0 0.00000000E+00 0.00000000E+00 0.13048112E+04 0.13048112E+04 0.32000000E+00 0.0000E+00 0.9000E+01
       -2 -1    0    0    0  501 0.00000000E+00 0.00000000E+00 -.40419046E+02 0.40420312E+02 0.32000000E+00 0.0000E+00 0.9000E+01
       25  1    1    2    0    0 -.16309646E+03 0.69017189E+02 0.73386636E+03 0.76521151E+03 0.12500000E+03 0.0000E+00 0.9000E+01
       23  1    1    2    0    0 0.13885576E+03 -.32537258E+02 0.49646447E+03 0.52453009E+03 0.91188000E+02 0.0000E+00 0.9000E+01
       21  1    1    2  502  501 0.24240704E+02 -.36479931E+02 0.34061308E+02 0.55489929E+02 0.75000000E+00 0.0000E+00 0.9000E+01
#aMCatNLO 2  0  0  1  1 0.43799510D+02 0.00000000D+00  -5  5  0 0.00000000D+00 0.00000000D+00 0.00000000D+00 0.00000000D+00 0.00000000D+00
  <mgrwgt>
 0.2073063419D-01    1    2    0
 0.192224517128187D+03 0.000000000000000D+00 0.000000000000000D+00 0.192224517128187D+03
 0.192224517128187D+03 0.000000000000000D+00 0.000000000000000D+00 -.192224517128187D+03
 0.201731302169459D+03 -.149932864535324D+03 0.492072401599838D+02 0.130116072433615D+02
 0.182717732086915D+03 0.149932864535324D+03 -.492072401599838D+02 -.130116072433615D+02
 0.000000000000000D+00 0.000000000000000D+00 -.000000000000000D+00 -.000000000000000D+00
 0.200341129279989D+03 0.000000000000000D+00 0.000000000000000D+00 0.200341129279989D+03
 0.263246801301911D+03 0.000000000000000D+00 0.000000000000000D+00 -.263246801301911D+03
 0.217159227054470D+03 -.163096461105793D+03 0.690171887764623D+02 0.130116072433615D+02
 0.169776758637632D+03 0.138855757402328D+03 -.325372577619999D+02 -.130116072433615D+02
 0.766519448897985D+02 0.242407037034645D+02 -.364799310144625D+02 -.629056720219219D+02
0.594372026493D-04 0.000000000000D+00 0.000000000000D+00 0.115341380493D-02 0.478443050537D-05  5 2 -2 25 23 21 2 0.20073849D+00 0.62183598D-02 0.46191896D+05 0.46191896D+05 0.46191896D+05 0.11957041D+01  1  2  1  1  5  1        2 0.207306341938D-01 0.100000000000D+01
  </mgrwgt>
  </event>
  <event>
  4     66 0.45228882E-03 0.11662559E+03 0.75467711E-02 0.11739831E+00
        2 -1    0    0  501    0 0.00000000E+00 0.00000000E+00 0.20880031E+04 0.20880032E+04 0.32000000E+00 0.0000E+00 0.9000E+01
       -2 -1    0    0    0  501 0.00000000E+00 0.00000000E+00 -.65554923E+01 0.65632979E+01 0.32000000E+00 0.0000E+00 0.9000E+01
       25  1    1    2    0    0 0.13854028E+02 -.41048683E+02 0.12658220E+04 0.12727165E+04 0.12500000E+03 0.0000E+00 0.9000E+01
       23  1    1    2    0    0 -.13854028E+02 0.41048683E+02 0.81562560E+03 0.82184993E+03 0.91188000E+02 0.0000E+00 0.9000E+01
#aMCatNLO 1  0  0  1  1 0.95491533D+02 0.00000000D+00  -5  5  0 0.00000000D+00 0.00000000D+00 0.00000000D+00 0.00000000D+00 0.00000000D+00
  <mgrwgt>
 0.2810531889D+00    6    2    0
 0.117030290640922D+03 0.000000000000000D+00 0.000000000000000D+00 0.117030290640922D+03
 0.117030290640922D+03 0.000000000000000D+00 0.000000000000000D+00 -.117030290640922D+03
 0.132645369044914D+03 0.138540279276178D+02 -.410486829238816D+02 0.963667315295287D+01
 0.101415212236929D+03 -.138540279276178D+02 0.410486829238816D+02 -.963667315295287D+01
 0.000000000000000D+00 0.000000000000000D+00 0.000000000000000D+00 0.000000000000000D+00
 0.184646619363656D+03 0.000000000000000D+00 0.000000000000000D+00 0.184646619363656D+03
 0.165530013717198D+03 0.000000000000000D+00 0.000000000000000D+00 -.165530013717198D+03
 0.150235370695166D+03 -.274475589392601D+02 -.780988645675007D+02 0.963667315295287D+01
 0.102555033816944D+03 -.436344040797484D+02 0.143337688115479D+02 -.963667315295287D+01
 0.973862285687443D+02 0.710819630190084D+02 0.637650957559528D+02 0.191166056464582D+02
0.113240319986D-03 0.000000000000D+00 0.000000000000D+00 0.171653622485D-02 0.000000000000D+00  5 2 -2 25 23 21 0 0.32123185D+00 0.10091396D-02 0.13601528D+05 0.13601528D+05 0.13601528D+05 0.12526973D+01  1  2  2  1  5  1        2 0.154795362400D+00 0.100000000000D+01
-.629103710035D-05 0.000000000000D+00 -.434872645607D-06 0.171653622485D-02 0.000000000000D+00  5 2 -2 25 23 21 2 0.32123185D+00 0.10091396D-02 0.13601528D+05 0.13601528D+05 0.13601528D+05 0.12526973D+01  1  2  3  1  5  1        2 -.134949531579D-01 0.100000000000D+01
0.783832002972D-05 0.000000000000D+00 0.000000000000D+00 0.171653622485D-02 0.000000000000D+00  5 2 -2 25 23 21 2 0.32123185D+00 0.10091396D-02 0.13601528D+05 0.13601528D+05 0.13601528D+05 0.12526973D+01  1  2 15  1  5  1        2 0.168140419378D-01 0.100000000000D+01
-.498416606773D-04 0.000000000000D+00 -.342957365545D-04 0.171653622485D-02 0.000000000000D+00  5 2 -2 25 23 21 2 0.56357658D+00 0.10091396D-02 0.13601528D+05 0.13601528D+05 0.13601528D+05 0.12526973D+01  1  2  5  1  5  1        2 -.134485377963D-01 0.100000000000D+01
0.635922134705D-04 0.000000000000D+00 0.295091841366D-04 0.171653622485D-02 0.000000000000D+00  5 2 -2 25 23 21 2 0.32123185D+00 0.10091396D-02 0.13601528D+05 0.13601528D+05 0.13601528D+05 0.12526973D+01  1  2  6  1  5  1        2 0.136412157217D+00 0.100000000000D+01
-.134338287202D-05 0.000000000000D+00 -.212799401618D-05 0.171653622485D-02 0.000000000000D+00  5 21 -2 25 23 -2 2 0.56357658D+00 0.10091396D-02 0.13601528D+05 0.13601528D+05 0.13601528D+05 0.12526973D+01  1  2  5  3  5  1        2 -.248816686941D-04 0.100000000000D+01
  </mgrwgt>
  </event>
  <event>
  4     66 0.45228882E-03 0.16519838E+03 0.75467711E-02 0.10527116E+00
        2 -1    0    0  501    0 0.00000000E+00 0.00000000E+00 0.33531409E+03 0.33531424E+03 0.32000000E+00 0.0000E+00 0.9000E+01
       -2 -1    0    0    0  501 0.00000000E+00 0.00000000E+00 -.15886102E+03 0.15886135E+03 0.32000000E+00 0.0000E+00 0.9000E+01
       25  1    1    2    0    0 0.93338049E+02 0.82041189E+02 -.81099925E+02 0.19402306E+03 0.12500000E+03 0.0000E+00 0.9000E+01
       23  1    1    2    0    0 -.93338049E+02 -.82041189E+02 0.25755299E+03 0.30015253E+03 0.91188000E+02 0.0000E+00 0.9000E+01
#aMCatNLO 1  0  0  2  1 0.30538914D+03 0.00000000D+00  -5  5  0 0.00000000D+00 0.00000000D+00 0.00000000D+00 0.00000000D+00 0.00000000D+00
  <mgrwgt>
 0.1392632783D+00    5    2    0
 0.230799603510788D+03 0.000000000000000D+00 0.000000000000000D+00 0.230799603510788D+03
 0.230799603510788D+03 0.000000000000000D+00 0.000000000000000D+00 -.230799603510788D+03
 0.238717455778306D+03 0.933380490586981D+02 0.820411889362545D+02 -.160991538936396D+03
 0.222881751243271D+03 -.933380490586981D+02 -.820411889362545D+02 0.160991538936396D+03
 0.000000000000000D+00 0.000000000000000D+00 -.000000000000000D+00 -.000000000000000D+00
 0.382799316624490D+03 0.000000000000000D+00 0.000000000000000D+00 0.382799316624490D+03
 0.496570562603175D+03 0.000000000000000D+00 0.000000000000000D+00 -.496570562603175D+03
 0.322503348839998D+03 0.492519586366719D+02 0.245029343088446D+03 -.160991538936396D+03
 0.230973259239428D+03 -.128990136197980D+03 0.497660958304054D+02 0.160991538936396D+03
 0.325893271148239D+03 0.797381775613086D+02 -.294795438918852D+03 -.113771245978685D+03
0.847748229156D-03 0.000000000000D+00 0.000000000000D+00 0.595905254968D-03 0.000000000000D+00  5 2 -2 25 23 21 0 0.51586820D-01 0.24440194D-01 0.27290504D+05 0.27290504D+05 0.27290504D+05 0.12192368D+01  1  2  2  2  5  2       -2 0.120219827190D+00 0.100000000000D+01
-.406936502274D-04 0.000000000000D+00 -.325557641719D-05 0.595905254968D-03 0.000000000000D+00  5 2 -2 25 23 21 2 0.51586820D-01 0.24440194D-01 0.27290504D+05 0.27290504D+05 0.27290504D+05 0.12192368D+01  1  2  3  2  5  2       -2 -.857851276999D-02 0.100000000000D+01
0.576837372162D-04 0.000000000000D+00 0.000000000000D+00 0.595905254968D-03 0.000000000000D+00  5 2 -2 25 23 21 2 0.51586820D-01 0.24440194D-01 0.27290504D+05 0.27290504D+05 0.27290504D+05 0.12192368D+01  1  2 15  2  5  2       -2 0.121601447293D-01 0.100000000000D+01
0.253697405479D-03 0.000000000000D+00 -.246515225132D-03 0.595905254968D-03 0.000000000000D+00  5 2 -2 25 23 21 2 0.51586820D-01 0.82387279D-01 0.27290504D+05 0.27290504D+05 0.27290504D+05 0.12192368D+01  1  2  5  2  5  2       -2 0.497309768428D-02 0.100000000000D+01
0.449419318034D-04 0.000000000000D+00 -.348228113509D-04 0.595905254968D-03 0.000000000000D+00  5 2 21 25 23 2 2 0.51586820D-01 0.82387279D-01 0.27290504D+05 0.27290504D+05 0.27290504D+05 0.12192368D+01  1  2  5  4  5  2       -2 0.104887214979D-01 0.100000000000D+01
  </mgrwgt>
  </event>
  <event>
  5     66 0.45228882E-03 0.16806308E+03 0.75467711E-02 0.11544465E+00
        2 -1    0    0  501    0 0.00000000E+00 0.00000000E+00 0.38781288E+03 0.38781301E+03 0.32000000E+00 0.0000E+00 0.9000E+01
       21 -1    0    0  502  501 0.00000000E+00 0.00000000E+00 -.12031008E+03 0.12031242E+03 0.75000000E+00 0.0000E+00 0.9000E+01
       25  1    1    2    0    0 0.72731973E+02 0.79069801E+02 0.19705138E+03 0.25689730E+03 0.12500000E+03 0.0000E+00 0.9000E+01
       23  1    1    2    0    0 -.12139313E+03 -.86887030E+02 0.91755469E+02 0.19753472E+03 0.91188000E+02 0.0000E+00 0.9000E+01
        2  1    1    2  502    0 0.48661158E+02 0.78172287E+01 -.21304060E+02 0.53693414E+02 0.32000000E+00 0.0000E+00 0.9000E+01
#aMCatNLO 2  0  0  2  1 0.49285063D+02 0.00000000D+00  -5  5  0 0.00000000D+00 0.00000000D+00 0.00000000D+00 0.00000000D+00 0.00000000D+00
  <mgrwgt>
 0.1691551709D-01    2    2    0
 0.173687969077215D+03 0.000000000000000D+00 0.000000000000000D+00 0.173687969077215D+03
 0.173687969077215D+03 0.000000000000000D+00 0.000000000000000D+00 -.173687969077215D+03
 0.184209349306997D+03 0.974547597879882D+02 0.830414220298485D+02 0.437581580283423D+02
 0.163166588847433D+03 -.974547597879882D+02 -.830414220298485D+02 -.437581580283423D+02
 0.000000000000000D+00 0.000000000000000D+00 0.000000000000000D+00 -.000000000000000D+00
 0.183071984073550D+03 0.000000000000000D+00 0.000000000000000D+00 0.183071984073550D+03
 0.254863040680489D+03 0.000000000000000D+00 0.000000000000000D+00 -.254863040680489D+03
 0.170533720121377D+03 0.727319728605992D+02 0.790698009875322D+02 0.437581580283423D+02
 0.180321035876780D+03 -.121393131218149D+03 -.868870297265066D+02 -.437581580283423D+02
 0.870802687558821D+02 0.486611583575495D+02 0.781722873897441D+01 -.717910566069388D+02
-.249538224320D-04 0.000000000000D+00 0.000000000000D+00 0.115406586918D-02 0.000000000000D+00  5 2 21 25 23 2 2 0.56605343D-01 0.18724538D-01 0.37838081D+05 0.37838081D+05 0.37838081D+05 0.12044585D+01  1  2 13  4  5  2       -2 -.102891248262D+00 0.100000000000D+01
0.301000364100D-04 0.000000000000D+00 0.000000000000D+00 0.115406586918D-02 0.192177465012D-06  5 2 21 25 23 2 2 0.59663617D-01 0.18509405D-01 0.37838081D+05 0.37838081D+05 0.37838081D+05 0.12044585D+01  1  2  1  4  5  2       -2 0.119806765347D+00 0.100000000000D+01
  </mgrwgt>
  </event>
  <event>
  4     66 0.45228882E-03 0.11526416E+03 0.75467711E-02 0.12136021E+00
        2 -1    0    0  501    0 0.00000000E+00 0.00000000E+00 0.22020120E+03 0.22020143E+03 0.32000000E+00 0.0000E+00 0.9000E+01
       -2 -1    0    0    0  501 0.00000000E+00 0.00000000E+00 -.65162296E+02 0.65163081E+02 0.32000000E+00 0.0000E+00 0.9000E+01
       25  1    1    2    0    0 0.35189008E+02 0.18132718E+02 0.48896039E+02 0.13993886E+03 0.12500000E+03 0.0000E+00 0.9000E+01
       23  1    1    2    0    0 -.35189008E+02 -.18132718E+02 0.10614287E+03 0.14542565E+03 0.91188000E+02 0.0000E+00 0.9000E+01
#aMCatNLO 1  0  0  1  1 0.44737522D+02 0.00000000D+00  -5  5  0 0.00000000D+00 0.00000000D+00 0.00000000D+00 0.00000000D+00 0.00000000D+00
  <mgrwgt>
 0.1699681469D+00    3    2    0
 0.119787148506001D+03 0.000000000000000D+00 0.000000000000000D+00 0.119787148506001D+03
 0.119787148506001D+03 0.000000000000000D+00 0.000000000000000D+00 -.119787148506001D+03
 0.135042851532511D+03 0.351890075725233D+02 0.181327180426176D+02 -.323188804335743D+02
 0.104531445479491D+03 -.351890075725233D+02 -.181327180426176D+02 0.323188804335743D+02
 0.000000000000000D+00 -.000000000000000D+00 0.000000000000000D+00 -.000000000000000D+00
 0.125004960810285D+03 0.000000000000000D+00 0.000000000000000D+00 0.125004960810285D+03
 0.280845800366961D+03 0.000000000000000D+00 0.000000000000000D+00 -.280845800366961D+03
 0.135998395760993D+03 0.423199395504919D+02 -.592252762987809D+01 -.323188804335743D+02
 0.107717196011447D+03 -.296048736445637D+02 -.369700472893693D+02 0.323188804335743D+02
 0.162135169404806D+03 -.127150659059282D+02 0.428925749192474D+02 -.155840839556677D+03
0.176108048702D-03 0.000000000000D+00 0.000000000000D+00 0.158509036472D-02 0.000000000000D+00  5 2 -2 25 23 21 0 0.33877186D-01 0.10025047D-01 0.13285827D+05 0.13285827D+05 0.13285827D+05 0.12538758D+01  1  2  2  1  5  1        2 0.166405551362D+00 0.100000000000D+01
-.976615746011D-05 0.000000000000D+00 -.676301277329D-06 0.158509036472D-02 0.000000000000D+00  5 2 -2 25 23 21 2 0.33877186D-01 0.10025047D-01 0.13285827D+05 0.13285827D+05 0.13285827D+05 0.12538758D+01  1  2  3  1  5  1        2 -.145084624454D-01 0.100000000000D+01
0.121642661217D-04 0.000000000000D+00 0.000000000000D+00 0.158509036472D-02 0.000000000000D+00  5 2 -2 25 23 21 2 0.33877186D-01 0.10025047D-01 0.13285827D+05 0.13285827D+05 0.13285827D+05 0.12538758D+01  1  2 15  1  5  1        2 0.180710580311D-01 0.100000000000D+01
  </mgrwgt>
  </event>
  <event>
  4     66 0.45228882E-03 0.20183904E+03 0.75467711E-02 0.10753256E+00
        2 -1    0    0  501    0 0.00000000E+00 0.00000000E+00 0.17481850E+03 0.17481879E+03 0.32000000E+00 0.0000E+00 0.9000E+01
       -2 -1    0    0    0  501 0.00000000E+00 0.00000000E+00 -.70693671E+03 0.70693679E+03 0.32000000E+00 0.0000E+00 0.9000E+01
       25  1    1    2    0    0 -.28327670E+03 0.38680982E+02 -.53135436E+02 0.31652849E+03 0.12500000E+03 0.0000E+00 0.9000E+01
       23  1    1    2    0    0 0.28327670E+03 -.38680982E+02 -.47898278E+03 0.56522709E+03 0.91188000E+02 0.0000E+00 0.9000E+01
#aMCatNLO 1  0  0  2  1 0.28590403D+02 0.00000000D+00  -5  5  0 0.00000000D+00 0.00000000D+00 0.00000000D+00 0.00000000D+00 0.00000000D+00
  <mgrwgt>
 0.1475942977D+00    9    2    0
 0.351547685606315D+03 0.000000000000000D+00 0.000000000000000D+00 0.351547685606315D+03
 0.351547685606315D+03 0.000000000000000D+00 0.000000000000000D+00 -.351547685606315D+03
 0.356745948143154D+03 -.283276701793258D+03 0.386809816509683D+02 0.172918372060950D+03
 0.346349423069475D+03 0.283276701793258D+03 -.386809816509683D+02 -.172918372060950D+03
 0.000000000000000D+00 -.000000000000000D+00 -.000000000000000D+00 -.000000000000000D+00
 0.360115997896122D+03 0.000000000000000D+00 0.000000000000000D+00 0.360115997896122D+03
 0.376525105579468D+03 0.000000000000000D+00 0.000000000000000D+00 -.376525105579468D+03
 0.348828373716643D+03 -.271867273302196D+03 0.473672526205385D+02 0.172918372060950D+03
 0.354848052051627D+03 0.294615354863029D+03 -.300485937034791D+02 -.172918372060950D+03
 0.329646777073190D+02 -.227480815608330D+02 -.173186589170594D+02 -.164091076833466D+02
0.662051411461D-02 0.000000000000D+00 0.000000000000D+00 0.752606967821D-03 0.000000000000D+00  5 2 -2 25 23 21 0 0.26895182D-01 0.10875952D+00 0.93676384D+05 0.93676384D+05 0.93676384D+05 0.11661868D+01  1  2  2  2  5  2       -2 0.926087321083D-01 0.100000000000D+01
-.359222525145D-03 0.000000000000D+00 -.254245174215D-04 0.752606967821D-03 0.000000000000D+00  5 2 -2 25 23 21 2 0.26895182D-01 0.10875952D+00 0.93676384D+05 0.93676384D+05 0.93676384D+05 0.11661868D+01  1  2  3  2  5  2       -2 -.683376485738D-02 0.100000000000D+01
0.455696431400D-03 0.000000000000D+00 0.000000000000D+00 0.752606967821D-03 0.000000000000D+00  5 2 -2 25 23 21 2 0.26895182D-01 0.10875952D+00 0.93676384D+05 0.93676384D+05 0.93676384D+05 0.11661868D+01  1  2 15  2  5  2       -2 0.866906176686D-02 0.100000000000D+01
0.178409479973D-01 0.000000000000D+00 0.000000000000D+00 0.752606967821D-03 0.000000000000D+00  5 2 -2 25 23 21 2 0.26895182D-01 0.11774634D+00 0.10285119D+06 0.10285119D+06 0.10285119D+06 0.11624517D+01  1  2 12  2  5  2       -2 0.278476704851D+00 0.100000000000D+01
-.175436119037D-01 0.000000000000D+00 0.000000000000D+00 0.752606967821D-03 0.000000000000D+00  5 2 -2 25 23 21 2 0.26895182D-01 0.10875952D+00 0.93676384D+05 0.93676384D+05 0.93676384D+05 0.11661868D+01  1  2  4  2  5  2       -2 -.333745547974D+00 0.100000000000D+01
-.488804994263D-01 0.000000000000D+00 -.830969555114D-02 0.752606967821D-03 0.000000000000D+00  5 2 -2 25 23 21 2 0.26895182D-01 0.11840630D+00 0.93676384D+05 0.93676384D+05 0.93676384D+05 0.11661868D+01  1  2  5  2  5  2       -2 -.758293935377D+00 0.100000000000D+01
0.494379667825D-01 0.000000000000D+00 0.827977904020D-02 0.752606967821D-03 0.000000000000D+00  5 2 -2 25 23 21 2 0.26895182D-01 0.10875952D+00 0.93676384D+05 0.93676384D+05 0.93676384D+05 0.11661868D+01  1  2  6  2  5  2       -2 0.940496256135D+00 0.100000000000D+01
0.240649227438D-03 0.000000000000D+00 0.000000000000D+00 0.752606967821D-03 0.000000000000D+00  5 2 21 25 23 2 2 0.26895182D-01 0.11774634D+00 0.10285119D+06 0.10285119D+06 0.10285119D+06 0.11624517D+01  1  2 12  4  5  2       -2 0.416808671272D-01 0.100000000000D+01
-.668581446716D-03 0.000000000000D+00 -.117090925239D-03 0.752606967821D-03 0.000000000000D+00  5 2 21 25 23 2 2 0.26895182D-01 0.11840630D+00 0.93676384D+05 0.93676384D+05 0.93676384D+05 0.11661868D+01  1  2  5  4  5  2       -2 -.115464076035D+00 0.100000000000D+01
  </mgrwgt>
  </event>
  <event>
  4     66 0.45228882E-03 0.69865656E+02 0.75467711E-02 0.11732287E+00
        2 -1    0    0  501    0 0.00000000E+00 0.00000000E+00 0.47551007E+03 0.47551017E+03 0.32000000E+00 0.0000E+00 0.9000E+01
       -2 -1    0    0    0  501 0.00000000E+00 0.00000000E+00 -.36045001E+02 0.36046422E+02 0.32000000E+00 0.0000E+00 0.9000E+01
       25  1    1    2    0    0 -.17365798E+02 -.48502524E+02 0.14144018E+03 0.19566397E+03 0.12500000E+03 0.0000E+00 0.9000E+01
       23  1    1    2    0    0 0.17365798E+02 0.48502524E+02 0.29802489E+03 0.31589262E+03 0.91188000E+02 0.0000E+00 0.9000E+01
#aMCatNLO 1  0  0  2  1 0.91842930D+02 0.00000000D+00  -5  5  0 0.00000000D+00 0.00000000D+00 0.00000000D+00 0.00000000D+00 0.00000000D+00
  <mgrwgt>
 0.5530080551D-01    7    2    0
 0.130920402928954D+03 0.000000000000000D+00 0.000000000000000D+00 0.130920402928954D+03
 0.130920402928954D+03 0.000000000000000D+00 0.000000000000000D+00 -.130920402928954D+03
 0.144878786214649D+03 -.173657983019480D+02 -.485025243551796D+02 -.520653135546234D+02
 0.116962019643258D+03 0.173657983019480D+02 0.485025243551796D+02 0.520653135546234D+02
 0.000000000000000D+00 0.000000000000000D+00 -.000000000000000D+00 -.000000000000000D+00
 0.148072072785856D+03 0.000000000000000D+00 0.000000000000000D+00 0.148072072785856D+03
 0.364724536495038D+03 0.000000000000000D+00 0.000000000000000D+00 -.364724536495038D+03
 0.143776202054554D+03 -.473734396437126D+02 -.956852224819863D+01 -.520653135546234D+02
 0.133704844934152D+03 -.869272025546758D+01 0.823126597425002D+02 0.520653135546234D+02
 0.235315562292188D+03 0.560661598991802D+02 -.727441374943016D+02 -.216652463709182D+03
0.139690636580D-03 0.000000000000D+00 0.000000000000D+00 0.133174275734D-02 0.000000000000D+00  5 2 -2 25 23 21 0 0.73155512D-01 0.55455024D-02 0.14392153D+05 0.14392153D+05 0.14392153D+05 0.12498758D+01  1  2  2  2  5  2       -2 0.144888695402D+00 0.100000000000D+01
-.768856247973D-05 0.000000000000D+00 -.536448825856D-06 0.133174275734D-02 0.000000000000D+00  5 2 -2 25 23 21 2 0.73155512D-01 0.55455024D-02 0.14392153D+05 0.14392153D+05 0.14392153D+05 0.12498758D+01  1  2  3  2  5  2       -2 -.124579359641D-01 0.100000000000D+01
0.965758519037D-05 0.000000000000D+00 0.000000000000D+00 0.133174275734D-02 0.000000000000D+00  5 2 -2 25 23 21 2 0.73155512D-01 0.55455024D-02 0.14392153D+05 0.14392153D+05 0.14392153D+05 0.12498758D+01  1  2 15  2  5  2       -2 0.156483839713D-01 0.100000000000D+01
0.217182639076D-04 0.000000000000D+00 0.000000000000D+00 0.133174275734D-02 0.000000000000D+00  5 2 -2 25 23 21 2 0.73155512D-01 0.15109371D-01 0.30452330D+05 0.30452330D+05 0.30452330D+05 0.12142169D+01  1  2 12  2  5  2       -2 0.704019706573D-02 0.100000000000D+01
-.151391878540D-03 0.000000000000D+00 -.401952419599D-04 0.133174275734D-02 0.000000000000D+00  5 2 -2 25 23 21 2 0.73155512D-01 0.17286932D-01 0.14392153D+05 0.14392153D+05 0.14392153D+05 0.12498758D+01  1  2  5  2  5  2       -2 -.411991300467D-01 0.100000000000D+01
0.243226069568D-05 0.000000000000D+00 0.000000000000D+00 0.133174275734D-02 0.000000000000D+00  5 2 21 25 23 2 2 0.73155512D-01 0.15109371D-01 0.30452330D+05 0.30452330D+05 0.30452330D+05 0.12142169D+01  1  2 12  4  5  2       -2 0.114574167958D-01 0.100000000000D+01
-.178724173410D-04 0.000000000000D+00 -.523753769438D-05 0.133174275734D-02 0.000000000000D+00  5 2 21 25 23 2 2 0.73155512D-01 0.17286932D-01 0.14392153D+05 0.14392153D+05 0.14392153D+05 0.12498758D+01  1  2  5  4  5  2       -2 -.700768217152D-01 0.100000000000D+01
  </mgrwgt>
  </event>
  <event>
  4     66 0.45228882E-03 0.13240341E+03 0.75467711E-02 0.11352907E+00
        2 -1    0    0  501    0 0.00000000E+00 0.00000000E+00 0.35006673E+03 0.35006687E+03 0.32000000E+00 0.0000E+00 0.9000E+01
       -2 -1    0    0    0  501 0.00000000E+00 0.00000000E+00 -.62233858E+02 0.62234680E+02 0.32000000E+00 0.0000E+00 0.9000E+01
       25  1    1    2    0    0 -.71856502E+02 0.24242070E+02 0.24670014E+03 0.28676994E+03 0.12500000E+03 0.0000E+00 0.9000E+01
       23  1    1    2    0    0 0.71856502E+02 -.24242070E+02 0.41132726E+02 0.12553162E+03 0.91188000E+02 0.0000E+00 0.9000E+01
#aMCatNLO 1  0  0  2  1 0.13818557D+03 0.00000000D+00  -5  5  0 0.00000000D+00 0.00000000D+00 0.00000000D+00 0.00000000D+00 0.00000000D+00
  <mgrwgt>
 0.1799072898D+00    3    2    0
 0.147601499558156D+03 0.000000000000000D+00 0.000000000000000D+00 0.147601499558156D+03
 0.147601499558156D+03 0.000000000000000D+00 0.000000000000000D+00 -.147601499558156D+03
 0.159982384369424D+03 -.718565020688362D+02 0.242420702853113D+02 0.649486600881002D+02
 0.135220614746888D+03 0.718565020688362D+02 -.242420702853113D+02 -.649486600881002D+02
 0.000000000000000D+00 0.000000000000000D+00 -.000000000000000D+00 0.000000000000000D+00
 0.585169297708407D+03 0.000000000000000D+00 0.000000000000000D+00 0.585169297708407D+03
 0.174279515528896D+03 0.000000000000000D+00 0.000000000000000D+00 -.174279515528896D+03
 0.188922809241781D+03 -.740182205044518D+02 0.101832226912316D+03 0.649486600881002D+02
 0.137022066098087D+03 0.701697629978214D+02 0.362997405965737D+02 -.649486600881002D+02
 0.433503937897435D+03 0.384845750663045D+01 -.138131967508889D+03 0.410889782179511D+03
0.280523176692D-03 0.000000000000D+00 0.000000000000D+00 0.114746284368D-02 0.000000000000D+00  5 2 -2 25 23 21 0 0.53856494D-01 0.95745142D-02 0.17530664D+05 0.17530664D+05 0.17530664D+05 0.12401769D+01  1  2  2  2  5  2       -2 0.176009570796D+00 0.100000000000D+01
-.153608837127D-04 0.000000000000D+00 -.107728286194D-05 0.114746284368D-02 0.000000000000D+00  5 2 -2 25 23 21 2 0.53856494D-01 0.95745142D-02 0.17530664D+05 0.17530664D+05 0.17530664D+05 0.12401769D+01  1  2  3  2  5  2       -2 -.148235098290D-01 0.100000000000D+01
0.193999007526D-04 0.000000000000D+00 0.000000000000D+00 0.114746284368D-02 0.000000000000D+00  5 2 -2 25 23 21 2 0.53856494D-01 0.95745142D-02 0.17530664D+05 0.17530664D+05 0.17530664D+05 0.12401769D+01  1  2 15  2  5  2       -2 0.187212288607D-01 0.100000000000D+01
  </mgrwgt>
  </event>
  <event>
  4     66 0.45228882E-03 0.10168802E+03 0.75467711E-02 0.11844076E+00
        2 -1    0    0  501    0 0.00000000E+00 0.00000000E+00 0.58696334E+02 0.58697206E+02 0.32000000E+00 0.0000E+00 0.9000E+01
       -2 -1    0    0    0  501 0.00000000E+00 0.00000000E+00 -.27074707E+03 0.27074726E+03 0.32000000E+00 0.0000E+00 0.9000E+01
       25  1    1    2    0    0 -.49837422E+02 -.18551169E+02 -.71030184E+02 0.15329123E+03 0.12500000E+03 0.0000E+00 0.9000E+01
       23  1    1    2    0    0 0.49837422E+02 0.18551169E+02 -.14102055E+03 0.17615323E+03 0.91188000E+02 0.0000E+00 0.9000E+01
#aMCatNLO 1  0  0  2  1 0.74906096D+02 0.00000000D+00  -5  5  0 0.00000000D+00 0.00000000D+00 0.00000000D+00 0.00000000D+00 0.00000000D+00
  <mgrwgt>
 0.1246687186D+00    9    2    0
 0.126063616071482D+03 0.000000000000000D+00 0.000000000000000D+00 0.126063616071482D+03
 0.126063616071482D+03 0.000000000000000D+00 0.000000000000000D+00 -.126063616071482D+03
 0.140559766673443D+03 -.498374223633407D+02 -.185511694510488D+02 0.361127879215836D+02
 0.111567465469521D+03 0.498374223633407D+02 0.185511694510488D+02 -.361127879215836D+02
 0.000000000000000D+00 -.000000000000000D+00 0.000000000000000D+00 -.000000000000000D+00
 0.153956449936082D+03 0.000000000000000D+00 0.000000000000000D+00 0.153956449936082D+03
 0.194000683973102D+03 0.000000000000000D+00 0.000000000000000D+00 -.194000683973102D+03
 0.143666364612432D+03 -.284059222293626D+02 -.538887228627887D+02 0.361127879215836D+02
 0.119352768650298D+03 0.672494984665736D+02 -.101589145589716D+02 -.361127879215836D+02
 0.849380006464536D+02 -.388435762372110D+02 0.640476374217603D+02 -.400442340370202D+02
0.296768299321D-03 0.000000000000D+00 0.000000000000D+00 0.148121745969D-02 0.000000000000D+00  5 2 -2 25 23 21 0 0.90302869D-02 0.41653477D-01 0.14568816D+05 0.14568816D+05 0.14568816D+05 0.12492692D+01  1  2  2  2  5  2       -2 0.112890307479D+00 0.100000000000D+01
-.164492527150D-04 0.000000000000D+00 -.113966841028D-05 0.148121745969D-02 0.000000000000D+00  5 2 -2 25 23 21 2 0.90302869D-02 0.41653477D-01 0.14568816D+05 0.14568816D+05 0.14568816D+05 0.12492692D+01  1  2  3  2  5  2       -2 -.976556486819D-02 0.100000000000D+01
0.204554845473D-04 0.000000000000D+00 0.000000000000D+00 0.148121745969D-02 0.000000000000D+00  5 2 -2 25 23 21 2 0.90302869D-02 0.41653477D-01 0.14568816D+05 0.14568816D+05 0.14568816D+05 0.12492692D+01  1  2 15  2  5  2       -2 0.121439778887D-01 0.100000000000D+01
0.476093748264D-04 0.000000000000D+00 0.000000000000D+00 0.148121745969D-02 0.000000000000D+00  5 2 -2 25 23 21 2 0.90302869D-02 0.66703633D-01 0.26849763D+05 0.26849763D+05 0.26849763D+05 0.12199879D+01  1  2 12  2  5  2       -2 0.106836113550D-01 0.100000000000D+01
-.129067365056D-03 0.000000000000D+00 0.000000000000D+00 0.148121745969D-02 0.000000000000D+00  5 2 -2 25 23 21 2 0.90302869D-02 0.41653477D-01 0.14568816D+05 0.14568816D+05 0.14568816D+05 0.12492692D+01  1  2  4  2  5  2       -2 -.766244976389D-01 0.100000000000D+01
-.142620818334D-03 0.000000000000D+00 -.855411737520D-04 0.148121745969D-02 0.000000000000D+00  5 2 -2 25 23 21 2 0.90302869D-02 0.75753132D-01 0.14568816D+05 0.14568816D+05 0.14568816D+05 0.12492692D+01  1  2  5  2  5  2       -2 -.252351306221D-01 0.100000000000D+01
0.174870898035D-03 0.000000000000D+00 0.722320864193D-04 0.148121745969D-02 0.000000000000D+00  5 2 -2 25 23 21 2 0.90302869D-02 0.41653477D-01 0.14568816D+05 0.14568816D+05 0.14568816D+05 0.12492692D+01  1  2  6  2  5  2       -2 0.103817062569D+00 0.100000000000D+01
0.256132094373D-05 0.000000000000D+00 0.000000000000D+00 0.148121745969D-02 0.000000000000D+00  5 2 21 25 23 2 2 0.90302869D-02 0.66703633D-01 0.26849763D+05 0.26849763D+05 0.26849763D+05 0.12199879D+01  1  2 12  4  5  2       -2 0.693384313109D-02 0.100000000000D+01
-.471731901822D-05 0.000000000000D+00 -.559882853754D-05 0.148121745969D-02 0.000000000000D+00  5 2 21 25 23 2 2 0.90302869D-02 0.75753132D-01 0.14568816D+05 0.14568816D+05 0.14568816D+05 0.12492692D+01  1  2  5  4  5  2       -2 -.101748907253D-01 0.100000000000D+01
  </mgrwgt>
  </event>
  <event>
  4     66 0.45228882E-03 0.63413849E+02 0.75467711E-02 0.11979933E+00
        2 -1    0    0  501    0 0.00000000E+00 0.00000000E+00 0.34171088E+04 0.34171088E+04 0.32000000E+00 0.0000E+00 0.9000E+01
       -2 -1    0    0    0  501 0.00000000E+00 0.00000000E+00 -.35059925E+01 0.35205658E+01 0.32000000E+00 0.0000E+00 0.9000E+01
       25  1    1    2    0    0 -.14608784E-01 -.87561105E+01 0.22067543E+04 0.22103091E+04 0.12500000E+03 0.0000E+00 0.9000E+01
       23  1    1    2    0    0 0.14608784E-01 0.87561105E+01 0.12068485E+04 0.12103203E+04 0.91188000E+02 0.0000E+00 0.9000E+01
#aMCatNLO 1  0  0  2  1 0.74673926D+02 0.00000000D+00  -5  5  0 0.00000000D+00 0.00000000D+00 0.00000000D+00 0.00000000D+00 0.00000000D+00
  <mgrwgt>
 0.2489403004D+00    7    2    0
 0.109568738712622D+03 0.000000000000000D+00 0.000000000000000D+00 0.109568738712622D+03
 0.109568738712622D+03 0.000000000000000D+00 0.000000000000000D+00 -.109568738712622D+03
 0.126247192671949D+03 -.146087837083747D-01 -.875611046249782D+01 0.153845368373637D+02
 0.928902847532950D+02 0.146087837083747D-01 0.875611046249782D+01 -.153845368373637D+02
 0.000000000000000D+00 -.000000000000000D+00 0.000000000000000D+00 -.000000000000000D+00
 0.137113558357040D+03 0.000000000000000D+00 0.000000000000000D+00 0.137113558357040D+03
 0.181026266658067D+03 0.000000000000000D+00 0.000000000000000D+00 -.181026266658067D+03
 0.134951136088377D+03 0.367045507263855D+02 -.316686140179451D+02 0.153845368373637D+02
 0.965600497803151D+02 0.266474631591415D+02 -.786260790443740D+01 -.153845368373637D+02
 0.866286391464148D+02 -.633520138855270D+02 0.395312219223825D+02 -.439127083010271D+02
0.391702662862D-03 0.000000000000D+00 0.000000000000D+00 0.186037101057D-02 0.000000000000D+00  5 2 -2 25 23 21 0 0.52571017D+00 0.54050564D-03 0.11762892D+05 0.11762892D+05 0.11762892D+05 0.12600412D+01  1  2  2  2  5  2       -2 0.236151406100D+00 0.100000000000D+01
-.217585065433D-04 0.000000000000D+00 -.150424136307D-05 0.186037101057D-02 0.000000000000D+00  5 2 -2 25 23 21 2 0.52571017D+00 0.54050564D-03 0.11762892D+05 0.11762892D+05 0.11762892D+05 0.12600412D+01  1  2  3  2  5  2       -2 -.208272799893D-01 0.100000000000D+01
0.268275971274D-04 0.000000000000D+00 0.000000000000D+00 0.186037101057D-02 0.000000000000D+00  5 2 -2 25 23 21 2 0.52571017D+00 0.54050564D-03 0.11762892D+05 0.11762892D+05 0.11762892D+05 0.12600412D+01  1  2 15  2  5  2       -2 0.256794222390D-01 0.100000000000D+01
0.320388765728D-04 0.000000000000D+00 0.000000000000D+00 0.186037101057D-02 0.000000000000D+00  5 2 -2 25 23 21 2 0.52571017D+00 0.92482800D-03 0.23114924D+05 0.23114924D+05 0.23114924D+05 0.12269649D+01  1  2 12  2  5  2       -2 0.134859753063D-01 0.100000000000D+01
-.738328173505D-04 0.000000000000D+00 -.108324653234D-03 0.186037101057D-02 0.000000000000D+00  5 2 -2 25 23 21 2 0.52571017D+00 0.13790699D-02 0.11762892D+05 0.11762892D+05 0.11762892D+05 0.12600412D+01  1  2  5  2  5  2       -2 -.187035848819D-01 0.100000000000D+01
0.191387194419D-05 0.000000000000D+00 0.000000000000D+00 0.186037101057D-02 0.000000000000D+00  5 2 21 25 23 2 2 0.52571017D+00 0.92482800D-03 0.23114924D+05 0.23114924D+05 0.23114924D+05 0.12269649D+01  1  2 12  4  5  2       -2 0.189608021529D-01 0.100000000000D+01
-.102368267306D-05 0.000000000000D+00 -.112058759605D-04 0.186037101057D-02 0.000000000000D+00  5 2 21 25 23 2 2 0.52571017D+00 0.13790699D-02 0.11762892D+05 0.11762892D+05 0.11762892D+05 0.12600412D+01  1  2  5  4  5  2       -2 -.580644054389D-02 0.100000000000D+01
  </mgrwgt>
  </event>
  <event>
  4     66 0.45228882E-03 0.12876080E+03 0.75467711E-02 0.10974306E+00
        2 -1    0    0  501    0 0.00000000E+00 0.00000000E+00 0.34177306E+04 0.34177306E+04 0.32000000E+00 0.0000E+00 0.9000E+01
       -2 -1    0    0    0  501 0.00000000E+00 0.00000000E+00 -.26352393E+02 0.26354336E+02 0.32000000E+00 0.0000E+00 0.9000E+01
       25  1    1    2    0    0 0.33614394E+02 0.24053824E+03 0.93611519E+03 0.97515395E+03 0.12500000E+03 0.0000E+00 0.9000E+01
       23  1    1    2    0    0 -.33614394E+02 -.24053824E+03 0.24552630E+04 0.24689310E+04 0.91188000E+02 0.0000E+00 0.9000E+01
#aMCatNLO 1  0  0  1  2 0.20647826D+02 0.00000000D+00  -5  5  0 0.00000000D+00 0.00000000D+00 0.00000000D+00 0.00000000D+00 0.00000000D+00
  <mgrwgt>
 0.2686347432D+00    9    2    0
 0.300114563904968D+03 0.000000000000000D+00 0.000000000000000D+00 0.300114563904968D+03
 0.300114563904968D+03 0.000000000000000D+00 0.000000000000000D+00 -.300114563904968D+03
 0.306203695802541D+03 0.336143940465334D+02 0.240538235642186D+03 -.138373165860162D+03
 0.294025432007395D+03 -.336143940465334D+02 -.240538235642186D+03 0.138373165860162D+03
 0.000000000000000D+00 0.000000000000000D+00 0.000000000000000D+00 0.000000000000000D+00
 0.329364296150542D+03 0.000000000000000D+00 0.000000000000000D+00 0.329364296150542D+03
 0.303958235057434D+03 0.000000000000000D+00 0.000000000000000D+00 -.303958235057434D+03
 0.299133769757344D+03 0.272431285312503D+02 0.232307320433312D+03 -.138373165860162D+03
 0.301450394693512D+03 -.398818643679599D+02 -.248635059839207D+03 0.138373165860162D+03
 0.327383667571192D+02 0.126387358367096D+02 0.163277394058951D+02 0.254060610931073D+02
0.319391021414D-02 0.000000000000D+00 0.000000000000D+00 0.804022386634D-03 0.000000000000D+00  5 2 -2 25 23 21 0 0.52580486D+00 0.40543649D-02 0.70911602D+05 0.70911602D+05 0.70911602D+05 0.11775394D+01  1  2  2  1  5  1        2 0.989283491949D-01 0.100000000000D+01
-.174355037447D-03 0.000000000000D+00 -.122654561982D-04 0.804022386634D-03 0.000000000000D+00  5 2 -2 25 23 21 2 0.52580486D+00 0.40543649D-02 0.70911602D+05 0.70911602D+05 0.70911602D+05 0.11775394D+01  1  2  3  1  5  1        2 -.748830423248D-02 0.100000000000D+01
0.218518797465D-03 0.000000000000D+00 0.000000000000D+00 0.804022386634D-03 0.000000000000D+00  5 2 -2 25 23 21 2 0.52580486D+00 0.40543649D-02 0.70911602D+05 0.70911602D+05 0.70911602D+05 0.11775394D+01  1  2 15  1  5  1        2 0.938507576204D-02 0.100000000000D+01
0.121036164023D-01 0.000000000000D+00 0.000000000000D+00 0.804022386634D-03 0.000000000000D+00  5 2 -2 25 23 21 2 0.58021297D+00 0.40543649D-02 0.76637285D+05 0.76637285D+05 0.76637285D+05 0.11743389D+01  1  2 12  1  5  1        2 0.296178358260D+00 0.100000000000D+01
-.123291031031D-01 0.000000000000D+00 0.000000000000D+00 0.804022386634D-03 0.000000000000D+00  5 2 -2 25 23 21 2 0.52580486D+00 0.40543649D-02 0.70911602D+05 0.70911602D+05 0.70911602D+05 0.11775394D+01  1  2  4  1  5  1        2 -.529517680138D+00 0.100000000000D+01
-.217832518034D-01 0.000000000000D+00 -.275228298326D-02 0.804022386634D-03 0.000000000000D+00  5 2 -2 25 23 21 2 0.57860965D+00 0.40543649D-02 0.70911602D+05 0.70911602D+05 0.70911602D+05 0.11775394D+01  1  2  5  1  5  1        2 -.547346632847D+00 0.100000000000D+01
0.220889389527D-01 0.000000000000D+00 0.276766798627D-02 0.804022386634D-03 0.000000000000D+00  5 2 -2 25 23 21 2 0.52580486D+00 0.40543649D-02 0.70911602D+05 0.70911602D+05 0.70911602D+05 0.11775394D+01  1  2  6  1  5  1        2 0.948688936508D+00 0.100000000000D+01
0.193978343753D-03 0.000000000000D+00 0.000000000000D+00 0.804022386634D-03 0.000000000000D+00  5 21 -2 25 23 -2 2 0.58021297D+00 0.40543649D-02 0.76637285D+05 0.76637285D+05 0.76637285D+05 0.11743389D+01  1  2 12  3  5  1        2 0.244286097737D-03 0.100000000000D+01
-.332222520139D-03 0.000000000000D+00 -.430321886538D-04 0.804022386634D-03 0.000000000000D+00  5 21 -2 25 23 -2 2 0.57860965D+00 0.40543649D-02 0.70911602D+05 0.70911602D+05 0.70911602D+05 0.11775394D+01  1  2  5  3  5  1        2 -.437645397390D-03 0.100000000000D+01
  </mgrwgt>
  </event>
  <event>
  4     66 -.45228882E-03 0.63500560E+02 0.75467711E-02 0.12295678E+00
        2 -1    0    0  501    0 0.00000000E+00 0.00000000E+00 0.16499574E+04 0.16499574E+04 0.32000000E+00 0.0000E+00 0.9000E+01
       -2 -1    0    0    0  501 0.00000000E+00 0.00000000E+00 -.11429176E+02 0.11433655E+02 0.32000000E+00 0.0000E+00 0.9000E+01
       25  1    1    2    0    0 0.66147917E+02 0.17399707E+01 0.12123384E+04 0.12205605E+04 0.12500000E+03 0.0000E+00 0.9000E+01
       23  1    1    2    0    0 -.66147917E+02 -.17399707E+01 0.42618980E+03 0.44083055E+03 0.91188000E+02 0.0000E+00 0.9000E+01
#aMCatNLO 1  0  0  2  1 0.30341311D+01 0.00000000D+00  -5  5  0 0.00000000D+00 0.00000000D+00 0.00000000D+00 0.00000000D+00 0.00000000D+00
  <mgrwgt>
 -.1555260630D+00   11    2    0
 0.137336811154615D+03 0.000000000000000D+00 0.000000000000000D+00 0.137336811154615D+03
 0.137336811154615D+03 0.000000000000000D+00 0.000000000000000D+00 -.137336811154615D+03
 0.150643055479326D+03 0.661479169710436D+02 0.173997067837105D+01 0.518628551718628D+02
 0.124030566829904D+03 -.661479169710436D+02 -.173997067837105D+01 -.518628551718628D+02
 0.000000000000000D+00 0.000000000000000D+00 0.000000000000000D+00 -.000000000000000D+00
 0.138083616371560D+03 0.000000000000000D+00 0.000000000000000D+00 0.138083616371560D+03
 0.140461936117512D+03 0.000000000000000D+00 0.000000000000000D+00 -.140461936117512D+03
 0.150065640368222D+03 0.648415783956342D+02 0.714411442900661D+00 0.518628551718628D+02
 0.124624739412847D+03 -.672281252357551D+02 -.258800317389707D+01 -.518628551718628D+02
 0.385517270800354D+01 0.238654684012093D+01 0.187359173099641D+01 -.237831974595219D+01
0.102737371337D-03 0.000000000000D+00 0.000000000000D+00 0.128584068363D-02 0.000000000000D+00  5 2 -2 25 23 21 0 0.25383994D+00 0.17586817D-02 0.16141813D+05 0.16141813D+05 0.16141813D+05 0.12442066D+01  1  2  2  2  5  2       -2 0.106167114615D+00 0.100000000000D+01
-.566557073370D-05 0.000000000000D+00 -.394538557306D-06 0.128584068363D-02 0.000000000000D+00  5 2 -2 25 23 21 2 0.25383994D+00 0.17586817D-02 0.16141813D+05 0.16141813D+05 0.16141813D+05 0.12442066D+01  1  2  3  2  5  2       -2 -.906338117520D-02 0.100000000000D+01
0.710490326764D-05 0.000000000000D+00 0.000000000000D+00 0.128584068363D-02 0.000000000000D+00  5 2 -2 25 23 21 2 0.25383994D+00 0.17586817D-02 0.16141813D+05 0.16141813D+05 0.16141813D+05 0.12442066D+01  1  2 15  2  5  2       -2 0.113659240268D-01 0.100000000000D+01
0.259138180106D-05 0.000000000000D+00 0.000000000000D+00 0.128584068363D-02 0.000000000000D+00  5 2 -2 25 23 21 2 0.25383994D+00 0.18034138D-02 0.16534566D+05 0.16534566D+05 0.16534566D+05 0.12430288D+01  1  2 12  2  5  2       -2 0.399210215651D-02 0.100000000000D+01
-.118048916397D-02 0.000000000000D+00 0.000000000000D+00 0.128584068363D-02 0.000000000000D+00  5 2 -2 25 23 21 2 0.25383994D+00 0.17586817D-02 0.16141813D+05 0.16141813D+05 0.16141813D+05 0.12442066D+01  1  2  4  2  5  2       -2 -.188846345217D+01 0.100000000000D+01
-.371463066894D-02 0.000000000000D+00 -.419651481517D-03 0.128584068363D-02 0.000000000000D+00  5 2 -2 25 23 21 2 0.25383994D+00 0.18092511D-02 0.16141813D+05 0.16141813D+05 0.16141813D+05 0.12442066D+01  1  2  5  2  5  2       -2 -.570387931443D+01 0.100000000000D+01
0.372519877918D-02 0.000000000000D+00 0.419482913857D-03 0.128584068363D-02 0.000000000000D+00  5 2 -2 25 23 21 2 0.25383994D+00 0.17586817D-02 0.16141813D+05 0.16141813D+05 0.16141813D+05 0.12442066D+01  1  2  6  2  5  2       -2 0.595931073427D+01 0.100000000000D+01
0.117825867457D-02 0.000000000000D+00 0.000000000000D+00 0.128584068363D-02 0.115137556608D-02  5 2 -2 25 23 21 2 0.25522026D+00 0.17987008D-02 0.16534566D+05 0.16534566D+05 0.16534566D+05 0.12430288D+01  1  2 11  2  5  2       -2 0.180284278777D+01 0.100000000000D+01
0.931699510332D-07 0.000000000000D+00 0.000000000000D+00 0.128584068363D-02 0.000000000000D+00  5 2 21 25 23 2 2 0.25383994D+00 0.18034138D-02 0.16534566D+05 0.16534566D+05 0.16534566D+05 0.12430288D+01  1  2 12  4  5  2       -2 0.306498822595D-02 0.100000000000D+01
-.188092013838D-04 0.000000000000D+00 -.213871075300D-05 0.128584068363D-02 0.000000000000D+00  5 2 21 25 23 2 2 0.25383994D+00 0.18092511D-02 0.16141813D+05 0.16141813D+05 0.16141813D+05 0.12442066D+01  1  2  5  4  5  2       -2 -.616639030147D+00 0.100000000000D+01
0.537743501232D-05 0.000000000000D+00 0.000000000000D+00 0.128584068363D-02 0.469881182692D-05  5 2 21 25 23 2 2 0.25522026D+00 0.17987008D-02 0.16534566D+05 0.16534566D+05 0.16534566D+05 0.12430288D+01  1  2 11  4  5  2       -2 0.175775463842D+00 0.100000000000D+01
  </mgrwgt>
  </event>
  <event>
  4     66 0.45228882E-03 0.25975790E+03 0.75467711E-02 0.10155211E+00
        2 -1    0    0  501    0 0.00000000E+00 0.00000000E+00 0.13785873E+04 0.13785873E+04 0.32000000E+00 0.0000E+00 0.9000E+01
       -2 -1    0    0    0  501 0.00000000E+00 0.00000000E+00 -.52785640E+02 0.52786610E+02 0.32000000E+00 0.0000E+00 0.9000E+01
       25  1    1    2    0    0 0.13724585E+03 0.19161709E+03 0.87255748E+03 0.91243360E+03 0.12500000E+03 0.0000E+00 0.9000E+01
       23  1    1    2    0    0 -.13724585E+03 -.19161709E+03 0.45324414E+03 0.51894030E+03 0.91188000E+02 0.0000E+00 0.9000E+01
#aMCatNLO 1  0  0  1  2 0.35879599D+03 0.00000000D+00  -5  5  0 0.00000000D+00 0.00000000D+00 0.00000000D+00 0.00000000D+00 0.00000000D+00
  <mgrwgt>
 0.2450386250D+00    5    2    0
 0.269759766503993D+03 0.000000000000000D+00 0.000000000000000D+00 0.269759766503993D+03
 0.269759766503993D+03 0.000000000000000D+00 0.000000000000000D+00 -.269759766503993D+03
 0.276534079766801D+03 0.137245846106030D+03 0.191617092919441D+03 0.727500151217440D+02
 0.262985453241185D+03 -.137245846106030D+03 -.191617092919441D+03 -.727500151217440D+02
 0.000000000000000D+00 0.000000000000000D+00 0.000000000000000D+00 0.000000000000000D+00
 0.758787160950349D+03 0.000000000000000D+00 0.000000000000000D+00 0.758787160950349D+03
 0.397981818021449D+03 0.000000000000000D+00 0.000000000000000D+00 -.397981818021449D+03
 0.194909304576160D+03 0.863306116389495D+01 0.130374623930766D+03 0.727500151217440D+02
 0.453022706470238D+03 -.332577473444738D+03 -.284629549925020D+03 -.727500151217440D+02
 0.508836967925401D+03 0.323944412280843D+03 0.154254925994254D+03 0.360805342928901D+03
0.164784968258D-02 0.000000000000D+00 0.000000000000D+00 0.960703713221D-03 0.000000000000D+00  5 2 -2 25 23 21 0 0.21209042D+00 0.81209452D-02 0.67474165D+05 0.67474165D+05 0.67474165D+05 0.11796017D+01  1  2  2  1  5  1        2 0.241895391074D+00 0.100000000000D+01
-.913883164790D-04 0.000000000000D+00 -.632817666991D-05 0.960703713221D-03 0.000000000000D+00  5 2 -2 25 23 21 2 0.21209042D+00 0.81209452D-02 0.67474165D+05 0.67474165D+05 0.67474165D+05 0.11796017D+01  1  2  3  1  5  1        2 -.186668670053D-01 0.100000000000D+01
0.112908150866D-03 0.000000000000D+00 0.000000000000D+00 0.960703713221D-03 0.000000000000D+00  5 2 -2 25 23 21 2 0.21209042D+00 0.81209452D-02 0.67474165D+05 0.67474165D+05 0.67474165D+05 0.11796017D+01  1  2 15  1  5  1        2 0.230624823526D-01 0.100000000000D+01
-.299822749966D-03 0.000000000000D+00 -.537622224344D-03 0.960703713221D-03 0.000000000000D+00  5 2 -2 25 23 21 2 0.64314649D+00 0.81209452D-02 0.67474165D+05 0.67474165D+05 0.67474165D+05 0.11796017D+01  1  2  5  1  5  1        2 -.125075173750D-02 0.100000000000D+01
-.115990268182D-04 0.000000000000D+00 -.679985619983D-04 0.960703713221D-03 0.000000000000D+00  5 21 -2 25 23 -2 2 0.64314649D+00 0.81209452D-02 0.67474165D+05 0.67474165D+05 0.67474165D+05 0.11796017D+01  1  2  5  3  5  1        2 -.162964454173D-05 0.100000000000D+01
  </mgrwgt>
  </event>
  <event>
  4     66 0.45228882E-03 0.17009102E+03 0.75467711E-02 0.10553153E+00
        2 -1    0    0  501    0 0.00000000E+00 0.00000000E+00 0.11940842E+03 0.11940885E+03 0.32000000E+00 0.0000E+00 0.9000E+01
       -2 -1    0    0    0  501 0.00000000E+00 0.00000000E+00 -.28728517E+03 0.28728535E+03 0.32000000E+00 0.0000E+00 0.9000E+01
       25  1    1    2    0    0 -.11399773E+03 0.63880961E+02 -.80651761E+01 0.18101466E+03 0.12500000E+03 0.0000E+00 0.9000E+01
       23  1    1    2    0    0 0.11399773E+03 -.63880961E+02 -.15981158E+03 0.22567953E+03 0.91188000E+02 0.0000E+00 0.9000E+01
#aMCatNLO 1  0  0  2  1 0.29255623D+03 0.00000000D+00  -5  5  0 0.00000000D+00 0.00000000D+00 0.00000000D+00 0.00000000D+00 0.00000000D+00
  <mgrwgt>
 0.1435093245D+00    5    2    0
 0.185214445703161D+03 0.000000000000000D+00 0.000000000000000D+00 0.185214445703161D+03
 0.185214445703161D+03 0.000000000000000D+00 0.000000000000000D+00 -.185214445703161D+03
 0.195081047398629D+03 -.113997733451825D+03 0.638809609342023D+02 0.731802886856542D+02
 0.175347844007692D+03 0.113997733451825D+03 -.638809609342023D+02 -.731802886856542D+02
 0.000000000000000D+00 -.000000000000000D+00 0.000000000000000D+00 -.000000000000000D+00
 0.353856097972886D+03 0.000000000000000D+00 0.000000000000000D+00 0.353856097972886D+03
 0.417584911721272D+03 0.000000000000000D+00 0.000000000000000D+00 -.417584911721272D+03
 0.147230194591499D+03 -.120059504739545D+01 0.263616031164109D+02 0.731802886856542D+02
 0.324793864392227D+03 0.278802585247608D+03 -.118699481085519D+03 -.731802886856542D+02
 0.299416950710432D+03 -.277601990200212D+03 0.923378779691081D+02 -.637288137483853D+02
0.894486571650D-03 0.000000000000D+00 0.000000000000D+00 0.101763699200D-02 0.000000000000D+00  5 2 -2 25 23 21 0 0.18370572D-01 0.44197765D-01 0.28930955D+05 0.28930955D+05 0.28930955D+05 0.12165558D+01  1  2  2  2  5  2       -2 0.132401405195D+00 0.100000000000D+01
-.492553046872D-04 0.000000000000D+00 -.343506395886D-05 0.101763699200D-02 0.000000000000D+00  5 2 -2 25 23 21 2 0.18370572D-01 0.44197765D-01 0.28930955D+05 0.28930955D+05 0.28930955D+05 0.12165558D+01  1  2  3  2  5  2       -2 -.107903577167D-01 0.100000000000D+01
0.615786398190D-04 0.000000000000D+00 0.000000000000D+00 0.101763699200D-02 0.000000000000D+00  5 2 -2 25 23 21 2 0.18370572D-01 0.44197765D-01 0.28930955D+05 0.28930955D+05 0.28930955D+05 0.12165558D+01  1  2 15  2  5  2       -2 0.134900302734D-01 0.100000000000D+01
0.251203963574D-03 0.000000000000D+00 -.268934691780D-03 0.101763699200D-02 0.000000000000D+00  5 2 -2 25 23 21 2 0.18370572D-01 0.16727759D+00 0.28930955D+05 0.28930955D+05 0.28930955D+05 0.12165558D+01  1  2  5  2  5  2       -2 0.275013727676D-02 0.100000000000D+01
0.451139728703D-04 0.000000000000D+00 -.423929481198D-04 0.101763699200D-02 0.000000000000D+00  5 2 21 25 23 2 2 0.18370572D-01 0.16727759D+00 0.28930955D+05 0.28930955D+05 0.28930955D+05 0.12165558D+01  1  2  5  4  5  2       -2 0.565810946261D-02 0.100000000000D+01
  </mgrwgt>
  </event>
  <event>
  4     66 0.45228882E-03 0.45169962E+02 0.75467711E-02 0.11944560E+00
        2 -1    0    0  501    0 0.00000000E+00 0.00000000E+00 0.18694829E+04 0.18694829E+04 0.32000000E+00 0.0000E+00 0.9000E+01
       -2 -1    0    0    0  501 0.00000000E+00 0.00000000E+00 -.11144046E+02 0.11148639E+02 0.32000000E+00 0.0000E+00 0.9000E+01
       25  1    1    2    0    0 0.62671830E+02 -.71088905E+02 0.10551668E+04 0.10667630E+04 0.12500000E+03 0.0000E+00 0.9000E+01
       23  1    1    2    0    0 -.62671830E+02 0.71088905E+02 0.80317202E+03 0.81386850E+03 0.91188000E+02 0.0000E+00 0.9000E+01
#aMCatNLO 1  0  0  2  1 0.20874926D+02 0.00000000D+00  -5  5  0 0.00000000D+00 0.00000000D+00 0.00000000D+00 0.00000000D+00 0.00000000D+00
  <mgrwgt>
 0.1486947288D+00    9    2    0
 0.144353550792358D+03 0.000000000000000D+00 0.000000000000000D+00 0.144353550792358D+03
 0.144353550792358D+03 0.000000000000000D+00 0.000000000000000D+00 -.144353550792358D+03
 0.157013004986378D+03 0.626718301127014D+02 -.710889050525418D+02 0.683322936887689D+01
 0.131694096598338D+03 -.626718301127014D+02 0.710889050525418D+02 -.683322936887689D+01
 0.000000000000000D+00 -.000000000000000D+00 0.000000000000000D+00 -.000000000000000D+00
 0.146858562932846D+03 0.000000000000000D+00 0.000000000000000D+00 0.146858562932846D+03
 0.195920352660015D+03 0.000000000000000D+00 0.000000000000000D+00 -.195920352660015D+03
 0.164045075111197D+03 0.678453469900715D+02 -.814622767692355D+02 0.683322936887689D+01
 0.125415721983064D+03 -.585287729270228D+02 0.627816987073660D+02 -.683322936887689D+01
 0.533181184986001D+02 -.931657406304862D+01 0.186805780618696D+02 -.490617897271684D+02
0.164974275370D-03 0.000000000000D+00 0.000000000000D+00 0.138610474352D-02 0.000000000000D+00  5 2 -2 25 23 21 0 0.28761311D+00 0.17148240D-02 0.20790892D+05 0.20790892D+05 0.20790892D+05 0.12319761D+01  1  2  2  2  5  2       -2 0.137146984830D+00 0.100000000000D+01
-.916522328212D-05 0.000000000000D+00 -.633544656145D-06 0.138610474352D-02 0.000000000000D+00  5 2 -2 25 23 21 2 0.28761311D+00 0.17148240D-02 0.20790892D+05 0.20790892D+05 0.20790892D+05 0.12319761D+01  1  2  3  2  5  2       -2 -.115642540547D-01 0.100000000000D+01
0.113739275007D-04 0.000000000000D+00 0.000000000000D+00 0.138610474352D-02 0.000000000000D+00  5 2 -2 25 23 21 2 0.28761311D+00 0.17148240D-02 0.20790892D+05 0.20790892D+05 0.20790892D+05 0.12319761D+01  1  2 15  2  5  2       -2 0.143510946944D-01 0.100000000000D+01
0.690047981663D-03 0.000000000000D+00 0.000000000000D+00 0.138610474352D-02 0.000000000000D+00  5 2 -2 25 23 21 2 0.28761311D+00 0.23383744D-02 0.24026093D+05 0.24026093D+05 0.24026093D+05 0.12251521D+01  1  2 12  2  5  2       -2 0.549111750358D+00 0.100000000000D+01
-.674605332396D-03 0.000000000000D+00 0.000000000000D+00 0.138610474352D-02 0.000000000000D+00  5 2 -2 25 23 21 2 0.28761311D+00 0.17148240D-02 0.20790892D+05 0.20790892D+05 0.20790892D+05 0.12319761D+01  1  2  4  2  5  2       -2 -.851185749692D+00 0.100000000000D+01
-.789260911217D-03 0.000000000000D+00 -.716514528156D-04 0.138610474352D-02 0.000000000000D+00  5 2 -2 25 23 21 2 0.28761311D+00 0.23707721D-02 0.20790892D+05 0.20790892D+05 0.20790892D+05 0.12319761D+01  1  2  5  2  5  2       -2 -.621717913034D+00 0.100000000000D+01
0.775056186966D-03 0.000000000000D+00 0.680503935961D-04 0.138610474352D-02 0.000000000000D+00  5 2 -2 25 23 21 2 0.28761311D+00 0.17148240D-02 0.20790892D+05 0.20790892D+05 0.20790892D+05 0.12319761D+01  1  2  6  2  5  2       -2 0.977929983466D+00 0.100000000000D+01
0.273221110140D-04 0.000000000000D+00 0.000000000000D+00 0.138610474352D-02 0.000000000000D+00  5 2 21 25 23 2 2 0.28761311D+00 0.23383744D-02 0.24026093D+05 0.24026093D+05 0.24026093D+05 0.12251521D+01  1  2 12  4  5  2       -2 0.442449778540D+00 0.100000000000D+01
-.304370879184D-04 0.000000000000D+00 -.292716172489D-05 0.138610474352D-02 0.000000000000D+00  5 2 21 25 23 2 2 0.28761311D+00 0.23707721D-02 0.20790892D+05 0.20790892D+05 0.20790892D+05 0.12319761D+01  1  2  5  4  5  2       -2 -.487826946278D+00 0.100000000000D+01
  </mgrwgt>
  </event>
  <event>
  4     66 0.45228882E-03 0.12457202E+03 0.75467711E-02 0.10844298E+00
        2 -1    0    0  501    0 0.00000000E+00 0.00000000E+00 0.14654311E+04 0.14654311E+04 0.32000000E+00 0.0000E+00 0.9000E+01
       -2 -1    0    0    0  501 0.00000000E+00 0.00000000E+00 -.11205665E+02 0.11210234E+02 0.32000000E+00 0.0000E+00 0.9000E+01
       25  1    1    2    0    0 0.53562642E+02 -.29904977E+02 0.63571522E+03 0.65078576E+03 0.12500000E+03 0.0000E+00 0.9000E+01
       23  1    1    2    0    0 -.53562642E+02 0.29904977E+02 0.81851022E+03 0.82585562E+03 0.91188000E+02 0.0000E+00 0.9000E+01
#aMCatNLO 1  0  0  1  1 0.25015186D+03 0.00000000D+00  -5  5  0 0.00000000D+00 0.00000000D+00 0.00000000D+00 0.00000000D+00 0.00000000D+00
  <mgrwgt>
 0.1963929004D+00    3    2    0
 0.128158220261019D+03 0.000000000000000D+00 0.000000000000000D+00 0.128158220261019D+03
 0.128158220261019D+03 0.000000000000000D+00 0.000000000000000D+00 -.128158220261019D+03
 0.142417447334227D+03 0.535626418418459D+02 -.299049768238877D+02 -.299076088191963D+02
 0.113898993187812D+03 -.535626418418459D+02 0.299049768238877D+02 0.299076088191963D+02
 0.000000000000000D+00 0.000000000000000D+00 -.000000000000000D+00 -.000000000000000D+00
 0.266188262604483D+03 0.000000000000000D+00 0.000000000000000D+00 0.266188262604483D+03
 0.358662830558341D+03 0.000000000000000D+00 0.000000000000000D+00 -.358662830558341D+03
 0.167987547240458D+03 0.490993616659286D+02 0.963825899557667D+02 -.299076088191963D+02
 0.190166151687119D+03 -.579347619978608D+02 0.153613190157804D+03 0.299076088191963D+02
 0.266697394235247D+03 0.883540033193226D+01 -.249995780113570D+03 -.924745679538578D+02
0.145382551947D-03 0.000000000000D+00 0.000000000000D+00 0.148753848277D-02 0.000000000000D+00  5 2 -2 25 23 21 0 0.22545129D+00 0.17243026D-02 0.15518189D+05 0.15518189D+05 0.15518189D+05 0.12461445D+01  1  2  2  1  5  1        2 0.192295507865D+00 0.100000000000D+01
-.806889813537D-05 0.000000000000D+00 -.558307279583D-06 0.148753848277D-02 0.000000000000D+00  5 2 -2 25 23 21 2 0.22545129D+00 0.17243026D-02 0.15518189D+05 0.15518189D+05 0.15518189D+05 0.12461445D+01  1  2  3  1  5  1        2 -.165732592243D-01 0.100000000000D+01
0.100637648524D-04 0.000000000000D+00 0.000000000000D+00 0.148753848277D-02 0.000000000000D+00  5 2 -2 25 23 21 2 0.22545129D+00 0.17243026D-02 0.15518189D+05 0.15518189D+05 0.15518189D+05 0.12461445D+01  1  2 15  1  5  1        2 0.206706517884D-01 0.100000000000D+01
  </mgrwgt>
  </event>
  <event>
  4     66 0.45228882E-03 0.11286216E+03 0.75467711E-02 0.11656176E+00
        2 -1    0    0  501    0 0.00000000E+00 0.00000000E+00 0.39202749E+03 0.39202762E+03 0.32000000E+00 0.0000E+00 0.9000E+01
       -2 -1    0    0    0  501 0.00000000E+00 0.00000000E+00 -.37036296E+02 0.37037679E+02 0.32000000E+00 0.0000E+00 0.9000E+01
       25  1    1    2    0    0 0.23101075E+01 -.32009021E+02 0.12536589E+03 0.17992087E+03 0.12500000E+03 0.0000E+00 0.9000E+01
       23  1    1    2    0    0 -.23101075E+01 0.32009021E+02 0.22962530E+03 0.24914443E+03 0.91188000E+02 0.0000E+00 0.9000E+01
#aMCatNLO 1  0  0  2  1 0.11257823D+03 0.00000000D+00  -5  5  0 0.00000000D+00 0.00000000D+00 0.00000000D+00 0.00000000D+00 0.00000000D+00
  <mgrwgt>
 0.1675340565D+00    5    2    0
 0.120497182297933D+03 0.000000000000000D+00 0.000000000000000D+00 0.120497182297933D+03
 0.120497182297933D+03 0.000000000000000D+00 0.000000000000000D+00 -.120497182297933D+03
 0.135662990569546D+03 0.231010750023988D+01 -.320090213835739D+02 -.418274188024541D+02
 0.105331374026321D+03 -.231010750023988D+01 0.320090213835739D+02 0.418274188024541D+02
 0.000000000000000D+00 -.000000000000000D+00 0.000000000000000D+00 -.000000000000000D+00
 0.183950370245424D+03 0.000000000000000D+00 0.000000000000000D+00 0.183950370245424D+03
 0.195179214876269D+03 0.000000000000000D+00 0.000000000000000D+00 -.195179214876269D+03
 0.156949233520148D+03 0.613713840206316D+02 -.590938419996393D+02 -.418274188024541D+02
 0.109043512818851D+03 0.409596311799503D+02 0.121660179928099D+02 0.418274188024541D+02
 0.113136838782694D+03 -.102331015200582D+03 0.469278240068294D+02 -.112288446308448D+02
0.125304471849D-03 0.000000000000D+00 0.000000000000D+00 0.151419287934D-02 0.000000000000D+00  5 2 -2 25 23 21 0 0.60312038D-01 0.56980082D-02 0.12737867D+05 0.12737867D+05 0.12737867D+05 0.12559981D+01  1  2  2  2  5  2       -2 0.152706135604D+00 0.100000000000D+01
-.692509216796D-05 0.000000000000D+00 -.481202165327D-06 0.151419287934D-02 0.000000000000D+00  5 2 -2 25 23 21 2 0.60312038D-01 0.56980082D-02 0.12737867D+05 0.12737867D+05 0.12737867D+05 0.12559981D+01  1  2  3  2  5  2       -2 -.133135376126D-01 0.100000000000D+01
0.859323071318D-05 0.000000000000D+00 0.000000000000D+00 0.151419287934D-02 0.000000000000D+00  5 2 -2 25 23 21 2 0.60312038D-01 0.56980082D-02 0.12737867D+05 0.12737867D+05 0.12737867D+05 0.12559981D+01  1  2 15  2  5  2       -2 0.165205455089D-01 0.100000000000D+01
-.302376067799D-05 0.000000000000D+00 -.343992918736D-04 0.151419287934D-02 0.000000000000D+00  5 2 -2 25 23 21 2 0.60312038D-01 0.14037234D-01 0.12737867D+05 0.12737867D+05 0.12737867D+05 0.12559981D+01  1  2  5  2  5  2       -2 -.143301895509D-02 0.100000000000D+01
0.184173559449D-05 0.000000000000D+00 -.340614955196D-05 0.151419287934D-02 0.000000000000D+00  5 2 21 25 23 2 2 0.60312038D-01 0.14037234D-01 0.12737867D+05 0.12737867D+05 0.12737867D+05 0.12559981D+01  1  2  5  4  5  2       -2 0.130539319125D-01 0.100000000000D+01
  </mgrwgt>
  </event>
  <event>
  5     66 0.45228882E-03 0.12466451E+03 0.75467711E-02 0.11862944E+00
        2 -1    0    0  501    0 0.00000000E+00 0.00000000E+00 0.31234838E+03 0.31234855E+03 0.32000000E+00 0.0000E+00 0.9000E+01
       21 -1    0    0  502  501 0.00000000E+00 0.00000000E+00 -.96325429E+02 0.96328349E+02 0.75000000E+00 0.0000E+00 0.9000E+01
       25  1    1    2    0    0 -.82699873E+02 -.18531586E+02 0.55585436E+02 0.16092678E+03 0.12500000E+03 0.0000E+00 0.9000E+01
       23  1    1    2    0    0 0.24125626E+02 0.50021926E+02 0.14396765E+03 0.17923776E+03 0.91188000E+02 0.0000E+00 0.9000E+01
        2  1    1    2  502    0 0.58574247E+02 -.31490341E+02 0.16469872E+02 0.68512357E+02 0.32000000E+00 0.0000E+00 0.9000E+01
#aMCatNLO 2  0  0  2  1 0.66502511D+02 0.00000000D+00  -5  5  0 0.00000000D+00 0.00000000D+00 0.00000000D+00 0.00000000D+00 0.00000000D+00
  <mgrwgt>
 0.2868041886D-01    2    2    0
 0.133667401887904D+03 0.000000000000000D+00 0.000000000000000D+00 0.133667401887904D+03
 0.133667401887904D+03 0.000000000000000D+00 0.000000000000000D+00 -.133667401887904D+03
 0.147338926419611D+03 -.497031578028117D+02 -.362710848019730D+02 -.479349950474633D+02
 0.119995877356197D+03 0.497031578028117D+02 0.362710848019730D+02 0.479349950474633D+02
 0.000000000000000D+00 0.000000000000000D+00 -.000000000000000D+00 -.000000000000000D+00
 0.159429084339342D+03 0.000000000000000D+00 0.000000000000000D+00 0.159429084339342D+03
 0.188720874161094D+03 0.000000000000000D+00 0.000000000000000D+00 -.188720874161094D+03
 0.158447001979103D+03 -.826998731518488D+02 -.185315856481255D+02 -.479349950474633D+02
 0.117035268346232D+03 0.241256262121458D+02 0.500219262178706D+02 0.479349950474633D+02
 0.726676881751000D+02 0.585742469397030D+02 -.314903405697451D+02 -.292917898217526D+02
-.189476200186D-05 0.000000000000D+00 0.000000000000D+00 0.133749634380D-02 0.000000000000D+00  5 2 21 25 23 2 2 0.40288871D-01 0.15496911D-01 0.26291496D+05 0.26291496D+05 0.26291496D+05 0.12209593D+01  1  2 13  4  5  2       -2 -.163647053106D-01 0.100000000000D+01
0.580328703931D-05 0.000000000000D+00 0.000000000000D+00 0.133749634380D-02 0.144029071291D-06  5 2 21 25 23 2 2 0.48053734D-01 0.14819503D-01 0.26291496D+05 0.26291496D+05 0.26291496D+05 0.12209593D+01  1  2  1  4  5  2       -2 0.450451241665D-01 0.100000000000D+01
  </mgrwgt>
  </event>
  <event>
  4     66 0.45228882E-03 0.11343955E+03 0.75467711E-02 0.12453915E+00
        2 -1    0    0  501    0 0.00000000E+00 0.00000000E+00 0.10019560E+04 0.10019561E+04 0.32000000E+00 0.0000E+00 0.9000E+01
       -2 -1    0    0    0  501 0.00000000E+00 0.00000000E+00 -.21736347E+02 0.21738703E+02 0.32000000E+00 0.0000E+00 0.9000E+01
       25  1    1    2    0    0 -.27641622E+02 0.19845835E+02 0.20578168E+03 0.24316459E+03 0.12500000E+03 0.0000E+00 0.9000E+01
       23  1    1    2    0    0 0.27641622E+02 -.19845835E+02 0.77443797E+03 0.78053017E+03 0.91188000E+02 0.0000E+00 0.9000E+01
#aMCatNLO 1  0  0  2  1 0.10304272D+02 0.00000000D+00  -5  5  0 0.00000000D+00 0.00000000D+00 0.00000000D+00 0.00000000D+00 0.00000000D+00
  <mgrwgt>
 0.1519279496D+00    4    2    0
 0.147580809340490D+03 0.000000000000000D+00 0.000000000000000D+00 0.147580809340490D+03
 0.147580809340490D+03 0.000000000000000D+00 0.000000000000000D+00 -.147580809340490D+03
 0.159963429900483D+03 -.276416216413953D+02 0.198458354933039D+02 -.938369994838574D+02
 0.135198188780497D+03 0.276416216413953D+02 -.198458354933039D+02 0.938369994838574D+02
 0.000000000000000D+00 0.000000000000000D+00 -.000000000000000D+00 0.000000000000000D+00
 0.170885389206460D+03 0.000000000000000D+00 0.000000000000000D+00 0.170885389206460D+03
 0.148814150542250D+03 0.000000000000000D+00 0.000000000000000D+00 -.148814150542250D+03
 0.161166577825171D+03 -.306835754720804D+02 0.245520168620134D+02 -.938369994838574D+02
 0.134174850301647D+03 0.250899437277597D+02 -.158981559016661D+02 0.938369994838574D+02
 0.243581116218929D+02 0.559363174432064D+01 -.865386096034733D+01 0.220712386642095D+02
0.190491297043D-03 0.000000000000D+00 0.000000000000D+00 0.912291274382D-03 0.000000000000D+00  5 2 -2 25 23 21 0 0.15414726D+00 0.33442385D-02 0.12868531D+05 0.12868531D+05 0.12868531D+05 0.12554829D+01  1  2  2  2  5  2       -2 0.171742713944D+00 0.100000000000D+01
-.969212203367D-05 0.000000000000D+00 -.731536738157D-06 0.912291274382D-03 0.000000000000D+00  5 2 -2 25 23 21 2 0.15414726D+00 0.33442385D-02 0.12868531D+05 0.12868531D+05 0.12868531D+05 0.12554829D+01  1  2  3  2  5  2       -2 -.137734786047D-01 0.100000000000D+01
0.130588033478D-04 0.000000000000D+00 0.000000000000D+00 0.912291274382D-03 0.000000000000D+00  5 2 -2 25 23 21 2 0.15414726D+00 0.33442385D-02 0.12868531D+05 0.12868531D+05 0.12868531D+05 0.12554829D+01  1  2 15  2  5  2       -2 0.185578708036D-01 0.100000000000D+01
-.173099355858D-04 0.000000000000D+00 0.000000000000D+00 0.912291274382D-03 0.000000000000D+00  5 2 -2 25 23 21 2 0.15414726D+00 0.33442385D-02 0.12868531D+05 0.12868531D+05 0.12868531D+05 0.12554829D+01  1  2  4  2  5  2       -2 -.245991565739D-01 0.100000000000D+01
  </mgrwgt>
  </event>
  <event>
  4     66 0.45228882E-03 0.45288117E+02 0.75467711E-02 0.12371257E+00
        2 -1    0    0  501    0 0.00000000E+00 0.00000000E+00 0.32967563E+03 0.32967579E+03 0.32000000E+00 0.0000E+00 0.9000E+01
       -2 -1    0    0    0  501 0.00000000E+00 0.00000000E+00 -.42192352E+02 0.42193566E+02 0.32000000E+00 0.0000E+00 0.9000E+01
       25  1    1    2    0    0 0.19570410E+02 0.41304803E+01 0.22913753E+03 0.26178057E+03 0.12500000E+03 0.0000E+00 0.9000E+01
       23  1    1    2    0    0 -.19570410E+02 -.41304803E+01 0.58345756E+02 0.11008878E+03 0.91188000E+02 0.0000E+00 0.9000E+01
#aMCatNLO 1  0  0  2  1 0.25886390D+02 0.00000000D+00  -5  5  0 0.00000000D+00 0.00000000D+00 0.00000000D+00 0.00000000D+00 0.00000000D+00
  <mgrwgt>
 0.1606866812D+00    9    2    0
 0.117940854044548D+03 0.000000000000000D+00 0.000000000000000D+00 0.117940854044548D+03
 0.117940854044548D+03 0.000000000000000D+00 0.000000000000000D+00 -.117940854044548D+03
 0.133435376098032D+03 0.195704099491609D+02 0.413048029076718D+01 0.421893088520382D+02
 0.102446331991064D+03 -.195704099491609D+02 -.413048029076718D+01 -.421893088520382D+02
 0.000000000000000D+00 0.000000000000000D+00 0.000000000000000D+00 -.000000000000000D+00
 0.121223530573500D+03 0.000000000000000D+00 0.000000000000000D+00 0.121223530573500D+03
 0.183718082451730D+03 0.000000000000000D+00 0.000000000000000D+00 -.183718082451730D+03
 0.133377762971459D+03 0.167571792211632D+02 -.101924883324794D+02 0.421893088520382D+02
 0.103920120244998D+03 -.217463014614119D+02 -.152085712370231D+02 -.421893088520382D+02
 0.676437298087735D+02 0.498912224024870D+01 0.254010595695025D+02 -.624945518782301D+02
0.111484747838D-03 0.000000000000D+00 0.000000000000D+00 0.154673839132D-02 0.000000000000D+00  5 2 -2 25 23 21 0 0.50719434D-01 0.64912364D-02 0.12094058D+05 0.12094058D+05 0.12094058D+05 0.12586269D+01  1  2  2  2  5  2       -2 0.133712431629D+00 0.100000000000D+01
-.615675187747D-05 0.000000000000D+00 -.428130786306D-06 0.154673839132D-02 0.000000000000D+00  5 2 -2 25 23 21 2 0.50719434D-01 0.64912364D-02 0.12094058D+05 0.12094058D+05 0.12094058D+05 0.12586269D+01  1  2  3  2  5  2       -2 -.116977410528D-01 0.100000000000D+01
0.762886567237D-05 0.000000000000D+00 0.000000000000D+00 0.154673839132D-02 0.000000000000D+00  5 2 -2 25 23 21 2 0.50719434D-01 0.64912364D-02 0.12094058D+05 0.12094058D+05 0.12094058D+05 0.12586269D+01  1  2 15  2  5  2       -2 0.144947363380D-01 0.100000000000D+01
0.326009319965D-03 0.000000000000D+00 0.000000000000D+00 0.154673839132D-02 0.000000000000D+00  5 2 -2 25 23 21 2 0.50719434D-01 0.10160322D-01 0.15300032D+05 0.15300032D+05 0.15300032D+05 0.12468432D+01  1  2 12  2  5  2       -2 0.307411635029D+00 0.100000000000D+01
-.313229631665D-03 0.000000000000D+00 0.000000000000D+00 0.154673839132D-02 0.000000000000D+00  5 2 -2 25 23 21 2 0.50719434D-01 0.64912364D-02 0.12094058D+05 0.12094058D+05 0.12094058D+05 0.12586269D+01  1  2  4  2  5  2       -2 -.595131847801D+00 0.100000000000D+01
-.354689784314D-03 0.000000000000D+00 -.376968181451D-04 0.154673839132D-02 0.000000000000D+00  5 2 -2 25 23 21 2 0.50719434D-01 0.10356814D-01 0.12094058D+05 0.12094058D+05 0.12094058D+05 0.12586269D+01  1  2  5  2  5  2       -2 -.328246119353D+00 0.100000000000D+01
0.338457779478D-03 0.000000000000D+00 0.339264517986D-04 0.154673839132D-02 0.000000000000D+00  5 2 -2 25 23 21 2 0.50719434D-01 0.64912364D-02 0.12094058D+05 0.12094058D+05 0.12094058D+05 0.12586269D+01  1  2  6  2  5  2       -2 0.643064970043D+00 0.100000000000D+01
0.168851045734D-04 0.000000000000D+00 0.000000000000D+00 0.154673839132D-02 0.000000000000D+00  5 2 21 25 23 2 2 0.50719434D-01 0.10160322D-01 0.15300032D+05 0.15300032D+05 0.15300032D+05 0.12468432D+01  1  2 12  4  5  2       -2 0.251287013510D+00 0.100000000000D+01
-.173960530689D-04 0.000000000000D+00 -.201580923038D-05 0.154673839132D-02 0.000000000000D+00  5 2 21 25 23 2 2 0.50719434D-01 0.10356814D-01 0.12094058D+05 0.12094058D+05 0.12094058D+05 0.12586269D+01  1  2  5  4  5  2       -2 -.254208397191D+00 0.100000000000D+01
  </mgrwgt>
  </event>
  <event>
  5     66 0.45228882E-03 0.11518768E+03 0.75467711E-02 0.11816051E+00
        2 -1    0    0  502    0 0.00000000E+00 0.00000000E+00 0.30575406E+04 0.30575406E+04 0.32000000E+00 0.0000E+00 0.9000E+01
       -2 -1    0    0    0  501 0.00000000E+00 0.00000000E+00 -.17582875E+02 0.17585786E+02 0.32000000E+00 0.0000E+00 0.9000E+01
       25  1    1    2    0    0 -.73197315E+01 -.53094496E+02 0.56110581E+03 0.57735374E+03 0.12500000E+03 0.0000E+00 0.9000E+01
       23  1    1    2    0    0 0.59710487E+02 -.16010028E+02 0.34507743E+03 0.36223659E+03 0.91188000E+02 0.0000E+00 0.9000E+01
       21  1    1    2  502  501 -.52390755E+02 0.69104524E+02 0.21337744E+04 0.21355360E+04 0.75000000E+00 0.0000E+00 0.9000E+01
#aMCatNLO 2  0  0  1  2 0.86719240D+02 0.00000000D+00  -5  5  0 0.00000000D+00 0.00000000D+00 0.00000000D+00 0.00000000D+00 0.00000000D+00
  <mgrwgt>
 0.3832173771D-01    2    2    0
 0.116341830553280D+03 0.000000000000000D+00 0.000000000000000D+00 0.116341830553280D+03
 0.116341830553280D+03 0.000000000000000D+00 0.000000000000000D+00 -.116341830553280D+03
 0.132049312164230D+03 -.366209674514418D+02 -.144455405203969D+02 0.161941947944436D+02
 0.100634348942329D+03 0.366209674514418D+02 0.144455405203969D+02 -.161941947944436D+02
 0.000000000000000D+00 -.000000000000000D+00 0.000000000000000D+00 0.000000000000000D+00
 0.411340044349755D+03 0.000000000000000D+00 0.000000000000000D+00 0.411340044349755D+03
 0.130705676324591D+03 0.000000000000000D+00 0.000000000000000D+00 -.130705676324591D+03
 0.136966623363681D+03 -.731973153893782D+01 -.530944959558520D+02 0.161941947944436D+02
 0.111351544885609D+03 0.597104869365466D+02 -.160100283938506D+02 -.161941947944436D+02
 0.293727552425056D+03 -.523907553976087D+02 0.691045243497027D+02 0.280634368025164D+03
-.351764057568D-04 0.000000000000D+00 0.000000000000D+00 0.171347824789D-02 0.000000000000D+00  5 2 -2 25 23 21 2 0.45363229D+00 0.24079785D-02 0.27704404D+05 0.27704404D+05 0.27704404D+05 0.12185437D+01  1  2 13  1  5  1        2 -.699298597787D-02 0.100000000000D+01
0.313069708798D-03 0.000000000000D+00 0.000000000000D+00 0.171347824789D-02 0.354571251732D-05  5 2 -2 25 23 21 2 0.47038944D+00 0.27052734D-02 0.27704404D+05 0.27704404D+05 0.27704404D+05 0.12185437D+01  1  2  1  1  5  1        2 0.453147236841D-01 0.100000000000D+01
  </mgrwgt>
  </event>
  <event>
  4     66 0.45228882E-03 0.48643235E+02 0.75467711E-02 0.12440041E+00
        2 -1    0    0  501    0 0.00000000E+00 0.00000000E+00 0.52827389E+03 0.52827399E+03 0.32000000E+00 0.0000E+00 0.9000E+01
       -2 -1    0    0    0  501 0.00000000E+00 0.00000000E+00 -.23175002E+02 0.23177211E+02 0.32000000E+00 0.0000E+00 0.9000E+01
       25  1    1    2    0    0 -.36081579E+01 -.14358655E+02 0.24519548E+03 0.27561752E+03 0.12500000E+03 0.0000E+00 0.9000E+01
       23  1    1    2    0    0 0.36081579E+01 0.14358655E+02 0.25990340E+03 0.27583368E+03 0.91188000E+02 0.0000E+00 0.9000E+01
#aMCatNLO 1  0  0  2  1 0.19748025D+02 0.00000000D+00  -5  5  0 0.00000000D+00 0.00000000D+00 0.00000000D+00 0.00000000D+00 0.00000000D+00
  <mgrwgt>
 0.1338802515D+00    9    2    0
 0.110649828170838D+03 0.000000000000000D+00 0.000000000000000D+00 0.110649828170838D+03
 0.110649828170838D+03 0.000000000000000D+00 0.000000000000000D+00 -.110649828170838D+03
 0.127165327509694D+03 -.360815793375974D+01 -.143586545564896D+02 -.180784611153790D+02
 0.941343288319826D+02 0.360815793375974D+01 0.143586545564896D+02 0.180784611153790D+02
 0.000000000000000D+00 -.000000000000000D+00 -.000000000000000D+00 -.000000000000000D+00
 0.113594023339430D+03 0.000000000000000D+00 0.000000000000000D+00 0.113594023339430D+03
 0.150017784289969D+03 0.000000000000000D+00 0.000000000000000D+00 -.150017784289969D+03
 0.126686782063195D+03 0.576023248245101D+01 -.803303896263362D+01 -.180784611153790D+02
 0.954922502612625D+02 0.106063106346570D+02 0.190838658133114D+02 0.180784611153790D+02
 0.414327753049420D+02 -.163665431171080D+02 -.110508268506778D+02 -.364237609505388D+02
0.647570637097D-04 0.000000000000D+00 0.000000000000D+00 0.182486665721D-02 0.000000000000D+00  5 2 -2 25 23 21 0 0.81273084D-01 0.35655624D-02 0.11908893D+05 0.11908893D+05 0.11908893D+05 0.12594122D+01  1  2  2  2  5  2       -2 0.114592992681D+00 0.100000000000D+01
-.359677556368D-05 0.000000000000D+00 -.248684175572D-06 0.182486665721D-02 0.000000000000D+00  5 2 -2 25 23 21 2 0.81273084D-01 0.35655624D-02 0.11908893D+05 0.11908893D+05 0.11908893D+05 0.12594122D+01  1  2  3  2  5  2       -2 -.100953190146D-01 0.100000000000D+01
0.443709740663D-05 0.000000000000D+00 0.000000000000D+00 0.182486665721D-02 0.000000000000D+00  5 2 -2 25 23 21 2 0.81273084D-01 0.35655624D-02 0.11908893D+05 0.11908893D+05 0.11908893D+05 0.12594122D+01  1  2 15  2  5  2       -2 0.124539085149D-01 0.100000000000D+01
0.179274809525D-03 0.000000000000D+00 0.000000000000D+00 0.182486665721D-02 0.000000000000D+00  5 2 -2 25 23 21 2 0.81273084D-01 0.48691172D-02 0.14268732D+05 0.14268732D+05 0.14268732D+05 0.12503046D+01  1  2 12  2  5  2       -2 0.314792685313D+00 0.100000000000D+01
-.177654213236D-03 0.000000000000D+00 0.000000000000D+00 0.182486665721D-02 0.000000000000D+00  5 2 -2 25 23 21 2 0.81273084D-01 0.35655624D-02 0.11908893D+05 0.11908893D+05 0.11908893D+05 0.12594122D+01  1  2  4  2  5  2       -2 -.498634381033D+00 0.100000000000D+01
-.216869428166D-03 0.000000000000D+00 -.277203968754D-04 0.182486665721D-02 0.000000000000D+00  5 2 -2 25 23 21 2 0.81273084D-01 0.49569453D-02 0.11908893D+05 0.11908893D+05 0.11908893D+05 0.12594122D+01  1  2  5  2  5  2       -2 -.373669670634D+00 0.100000000000D+01
0.215632163281D-03 0.000000000000D+00 0.262810548804D-04 0.182486665721D-02 0.000000000000D+00  5 2 -2 25 23 21 2 0.81273084D-01 0.35655624D-02 0.11908893D+05 0.11908893D+05 0.11908893D+05 0.12594122D+01  1  2  6  2  5  2       -2 0.605229723008D+00 0.100000000000D+01
0.712213763734D-05 0.000000000000D+00 0.000000000000D+00 0.182486665721D-02 0.000000000000D+00  5 2 21 25 23 2 2 0.81273084D-01 0.48691172D-02 0.14268732D+05 0.14268732D+05 0.14268732D+05 0.12503046D+01  1  2 12  4  5  2       -2 0.225732453786D+00 0.100000000000D+01
-.825208621947D-05 0.000000000000D+00 -.114643071571D-05 0.182486665721D-02 0.000000000000D+00  5 2 21 25 23 2 2 0.81273084D-01 0.49569453D-02 0.11908893D+05 0.11908893D+05 0.11908893D+05 0.12594122D+01  1  2  5  4  5  2       -2 -.256522141115D+00 0.100000000000D+01
  </mgrwgt>
  </event>
  <event>
  4     66 0.45228882E-03 0.12503472E+03 0.75467711E-02 0.10209668E+00
        2 -1    0    0  501    0 0.00000000E+00 0.00000000E+00 0.21143509E+02 0.21145931E+02 0.32000000E+00 0.0000E+00 0.9000E+01
       -2 -1    0    0    0  501 0.00000000E+00 0.00000000E+00 -.74126635E+03 0.74126641E+03 0.32000000E+00 0.0000E+00 0.9000E+01
       25  1    1    2    0    0 -.27833774E+02 -.55699628E+02 -.38285836E+03 0.40753245E+03 0.12500000E+03 0.0000E+00 0.9000E+01
       23  1    1    2    0    0 0.27833774E+02 0.55699628E+02 -.33726447E+03 0.35487990E+03 0.91188000E+02 0.0000E+00 0.9000E+01
#aMCatNLO 1  0  0  2  1 0.44038220D+03 0.00000000D+00  -5  5  0 0.00000000D+00 0.00000000D+00 0.00000000D+00 0.00000000D+00 0.00000000D+00
  <mgrwgt>
 0.1363842632D+00    5    2    0
 0.125195532230956D+03 0.000000000000000D+00 0.000000000000000D+00 0.125195532230956D+03
 0.125195532230956D+03 0.000000000000000D+00 0.000000000000000D+00 -.125195532230956D+03
 0.139792196596173D+03 -.278337742650950D+02 -.556996278470691D+02 0.630005532046404D+01
 0.110598867865739D+03 0.278337742650950D+02 0.556996278470691D+02 -.630005532046404D+01
 0.000000000000000D+00 0.000000000000000D+00 0.000000000000000D+00 -.000000000000000D+00
 0.454032732769011D+03 0.000000000000000D+00 0.000000000000000D+00 0.454032732769011D+03
 0.494823310679671D+03 0.000000000000000D+00 0.000000000000000D+00 -.494823310679671D+03
 0.351614744643053D+03 -.307089261627826D+03 -.116894924381837D+03 0.630005532046404D+01
 0.154974011229252D+03 -.123085306354671D+03 0.226276263673459D+02 -.630005532046404D+01
 0.442267287576377D+03 0.430174567982497D+03 0.942672980144909D+02 -.407905779106602D+02
0.792332736553D-03 0.000000000000D+00 0.000000000000D+00 0.158946221329D-02 0.000000000000D+00  5 2 -2 25 23 21 0 0.32530392D-02 0.11404117D+00 0.15633682D+05 0.15633682D+05 0.15633682D+05 0.12457791D+01  1  2  2  2  5  2       -2 0.133441463562D+00 0.100000000000D+01
-.440183969515D-04 0.000000000000D+00 -.304276633436D-05 0.158946221329D-02 0.000000000000D+00  5 2 -2 25 23 21 2 0.32530392D-02 0.11404117D+00 0.15633682D+05 0.15633682D+05 0.15633682D+05 0.12457791D+01  1  2  3  2  5  2       -2 -.115053415703D-01 0.100000000000D+01
0.548828995320D-04 0.000000000000D+00 0.000000000000D+00 0.158946221329D-02 0.000000000000D+00  5 2 -2 25 23 21 2 0.32530392D-02 0.11404117D+00 0.15633682D+05 0.15633682D+05 0.15633682D+05 0.12457791D+01  1  2 15  2  5  2       -2 0.143450590938D-01 0.100000000000D+01
0.533817118180D-03 0.000000000000D+00 -.300710200468D-03 0.158946221329D-02 0.000000000000D+00  5 2 -2 25 23 21 2 0.32530392D-02 0.69588704D+00 0.15633682D+05 0.15633682D+05 0.15633682D+05 0.12457791D+01  1  2  5  2  5  2       -2 0.716153069654D-04 0.100000000000D+01
0.981110513684D-04 0.000000000000D+00 -.666574334489D-04 0.158946221329D-02 0.000000000000D+00  5 2 21 25 23 2 2 0.32530392D-02 0.69588704D+00 0.15633682D+05 0.15633682D+05 0.15633682D+05 0.12457791D+01  1  2  5  4  5  2       -2 0.314668367956D-04 0.100000000000D+01
  </mgrwgt>
  </event>
  <event>
  4     66 0.45228882E-03 0.11033380E+03 0.75467711E-02 0.12328550E+00
        2 -1    0    0  501    0 0.00000000E+00 0.00000000E+00 0.10110656E+04 0.10110657E+04 0.32000000E+00 0.0000E+00 0.9000E+01
       -2 -1    0    0    0  501 0.00000000E+00 0.00000000E+00 -.13201984E+02 0.13205862E+02 0.32000000E+00 0.0000E+00 0.9000E+01
       25  1    1    2    0    0 0.10608932E+01 0.21831713E+02 0.71769411E+03 0.72882617E+03 0.12500000E+03 0.0000E+00 0.9000E+01
       23  1    1    2    0    0 -.10608932E+01 -.21831713E+02 0.28016954E+03 0.29544538E+03 0.91188000E+02 0.0000E+00 0.9000E+01
#aMCatNLO 1  0  0  2  1 0.30110974D+02 0.00000000D+00  -5  5  0 0.00000000D+00 0.00000000D+00 0.00000000D+00 0.00000000D+00 0.00000000D+00
  <mgrwgt>
 0.1382385313D+00    4    2    0
 0.115542566729001D+03 0.000000000000000D+00 0.000000000000000D+00 0.115542566729001D+03
 0.115542566729001D+03 0.000000000000000D+00 0.000000000000000D+00 -.115542566729001D+03
 0.131358704588273D+03 0.106089323196769D+01 0.218317126732873D+02 0.339464298330541D+02
 0.997264288697288D+02 -.106089323196769D+01 -.218317126732873D+02 -.339464298330541D+02
 0.000000000000000D+00 0.000000000000000D+00 0.000000000000000D+00 0.000000000000000D+00
 0.142130000643279D+03 0.000000000000000D+00 0.000000000000000D+00 0.142130000643279D+03
 0.125369836729419D+03 0.000000000000000D+00 0.000000000000000D+00 -.125369836729419D+03
 0.131301909301720D+03 -.148035226766101D+02 0.156104773863527D+02 0.339464298330541D+02
 0.101736734814531D+03 -.132290495901325D+02 -.266034587084767D+02 -.339464298330541D+02
 0.344611932564467D+02 0.280325722667427D+02 0.109929813221241D+02 0.167601639138598D+02
0.109336550965D-03 0.000000000000D+00 0.000000000000D+00 0.164309270835D-02 0.000000000000D+00  5 2 -2 25 23 21 0 0.15554886D+00 0.20313767D-02 0.12173548D+05 0.12173548D+05 0.12173548D+05 0.12582939D+01  1  2  2  2  5  2       -2 0.200820219352D+00 0.100000000000D+01
-.605853777832D-05 0.000000000000D+00 -.419881144683D-06 0.164309270835D-02 0.000000000000D+00  5 2 -2 25 23 21 2 0.15554886D+00 0.20313767D-02 0.12173548D+05 0.12173548D+05 0.12173548D+05 0.12582939D+01  1  2  3  2  5  2       -2 -.176187089941D-01 0.100000000000D+01
0.746205474886D-05 0.000000000000D+00 0.000000000000D+00 0.164309270835D-02 0.000000000000D+00  5 2 -2 25 23 21 2 0.15554886D+00 0.20313767D-02 0.12173548D+05 0.12173548D+05 0.12173548D+05 0.12582939D+01  1  2 15  2  5  2       -2 0.217002478037D-01 0.100000000000D+01
-.229234547387D-04 0.000000000000D+00 0.000000000000D+00 0.164309270835D-02 0.000000000000D+00  5 2 -2 25 23 21 2 0.15554886D+00 0.20313767D-02 0.12173548D+05 0.12173548D+05 0.12173548D+05 0.12582939D+01  1  2  4  2  5  2       -2 -.666632268308D-01 0.100000000000D+01
  </mgrwgt>
  </event>
  <event>
  4     66 0.45228882E-03 0.49012077E+02 0.75467711E-02 0.12257053E+00
        2 -1    0    0  501    0 0.00000000E+00 0.00000000E+00 0.90050881E+02 0.90051449E+02 0.32000000E+00 0.0000E+00 0.9000E+01
       -2 -1    0    0    0  501 0.00000000E+00 0.00000000E+00 -.17208014E+03 0.17208044E+03 0.32000000E+00 0.0000E+00 0.9000E+01
       25  1    1    2    0    0 0.12902910E+02 0.51233018E+02 -.13396820E+02 0.13636635E+03 0.12500000E+03 0.0000E+00 0.9000E+01
       23  1    1    2    0    0 -.12902910E+02 -.51233018E+02 -.68632443E+02 0.12576554E+03 0.91188000E+02 0.0000E+00 0.9000E+01
#aMCatNLO 1  0  0  2  1 0.20455413D+02 0.00000000D+00  -5  5  0 0.00000000D+00 0.00000000D+00 0.00000000D+00 0.00000000D+00 0.00000000D+00
  <mgrwgt>
 0.1743546536D+00    9    2    0
 0.124483260230103D+03 0.000000000000000D+00 0.000000000000000D+00 0.124483260230103D+03
 0.124483260230103D+03 0.000000000000000D+00 0.000000000000000D+00 -.124483260230103D+03
 0.139163444221284D+03 0.129029101005622D+02 0.512330179127368D+02 0.308246166889454D+02
 0.109803076238922D+03 -.129029101005622D+02 -.512330179127368D+02 -.308246166889454D+02
 0.000000000000000D+00 -.000000000000000D+00 -.000000000000000D+00 -.000000000000000D+00
 0.134573717814185D+03 0.000000000000000D+00 0.000000000000000D+00 0.134573717814185D+03
 0.135719170158478D+03 0.000000000000000D+00 0.000000000000000D+00 -.135719170158478D+03
 0.142029669553736D+03 0.237811717267588D+02 0.550611106937129D+02 0.308246166889454D+02
 0.107775759198887D+03 -.448563606265881D+01 -.482709540198811D+02 -.308246166889454D+02
 0.204874592200396D+02 -.192955356641000D+02 -.679015667383181D+01 -.114545234429303D+01
0.212381293541D-03 0.000000000000D+00 0.000000000000D+00 0.152793443080D-02 0.000000000000D+00  5 2 -2 25 23 21 0 0.13854048D-01 0.26473935D-01 0.14531622D+05 0.14531622D+05 0.14531622D+05 0.12493962D+01  1  2  2  2  5  2       -2 0.110265192185D+00 0.100000000000D+01
-.117841509779D-04 0.000000000000D+00 -.815600088477D-06 0.152793443080D-02 0.000000000000D+00  5 2 -2 25 23 21 2 0.13854048D-01 0.26473935D-01 0.14531622D+05 0.14531622D+05 0.14531622D+05 0.12493962D+01  1  2  3  2  5  2       -2 -.955038420828D-02 0.100000000000D+01
0.146553983037D-04 0.000000000000D+00 0.000000000000D+00 0.152793443080D-02 0.000000000000D+00  5 2 -2 25 23 21 2 0.13854048D-01 0.26473935D-01 0.14531622D+05 0.14531622D+05 0.14531622D+05 0.12493962D+01  1  2 15  2  5  2       -2 0.118773668793D-01 0.100000000000D+01
0.210586555665D-03 0.000000000000D+00 0.000000000000D+00 0.152793443080D-02 0.000000000000D+00  5 2 -2 25 23 21 2 0.13854048D-01 0.29847151D-01 0.17209965D+05 0.17209965D+05 0.17209965D+05 0.12410748D+01  1  2 12  2  5  2       -2 0.136886953195D+00 0.100000000000D+01
-.172935684200D-03 0.000000000000D+00 0.000000000000D+00 0.152793443080D-02 0.000000000000D+00  5 2 -2 25 23 21 2 0.13854048D-01 0.26473935D-01 0.14531622D+05 0.14531622D+05 0.14531622D+05 0.12493962D+01  1  2  4  2  5  2       -2 -.140154537270D+00 0.100000000000D+01
-.640446137467D-03 0.000000000000D+00 -.162124847341D-03 0.152793443080D-02 0.000000000000D+00  5 2 -2 25 23 21 2 0.13854048D-01 0.31060432D-01 0.14531622D+05 0.14531622D+05 0.14531622D+05 0.12493962D+01  1  2  5  2  5  2       -2 -.390543810034D+00 0.100000000000D+01
0.659955513823D-03 0.000000000000D+00 0.160077290831D-03 0.152793443080D-02 0.000000000000D+00  5 2 -2 25 23 21 2 0.13854048D-01 0.26473935D-01 0.14531622D+05 0.14531622D+05 0.14531622D+05 0.12493962D+01  1  2  6  2  5  2       -2 0.534856412584D+00 0.100000000000D+01
0.399362384179D-05 0.000000000000D+00 0.000000000000D+00 0.152793443080D-02 0.000000000000D+00  5 2 21 25 23 2 2 0.13854048D-01 0.29847151D-01 0.17209965D+05 0.17209965D+05 0.17209965D+05 0.12410748D+01  1  2 12  4  5  2       -2 0.343285421379D-01 0.100000000000D+01
-.141108704564D-04 0.000000000000D+00 -.389097789992D-05 0.152793443080D-02 0.000000000000D+00  5 2 21 25 23 2 2 0.13854048D-01 0.31060432D-01 0.14531622D+05 0.14531622D+05 0.14531622D+05 0.12493962D+01  1  2  5  4  5  2       -2 -.113611081883D+00 0.100000000000D+01
  </mgrwgt>
  </event>
  <event>
  4     66 0.45228882E-03 0.11642914E+03 0.75467711E-02 0.11155931E+00
        2 -1    0    0  501    0 0.00000000E+00 0.00000000E+00 0.10280956E+04 0.10280956E+04 0.32000000E+00 0.0000E+00 0.9000E+01
       -2 -1    0    0    0  501 0.00000000E+00 0.00000000E+00 -.15009470E+02 0.15012881E+02 0.32000000E+00 0.0000E+00 0.9000E+01
       25  1    1    2    0    0 0.32575321E+02 0.27763699E+02 0.38608084E+03 0.40806297E+03 0.12500000E+03 0.0000E+00 0.9000E+01
       23  1    1    2    0    0 -.32575321E+02 -.27763699E+02 0.62700525E+03 0.63504552E+03 0.91188000E+02 0.0000E+00 0.9000E+01
#aMCatNLO 1  0  0  2  2 0.19128432D+03 0.00000000D+00  -5  5  0 0.00000000D+00 0.00000000D+00 0.00000000D+00 0.00000000D+00 0.00000000D+00
  <mgrwgt>
 0.2025430060D+00    5    2    0
 0.124229522015762D+03 0.000000000000000D+00 0.000000000000000D+00 0.124229522015762D+03
 0.124229522015762D+03 0.000000000000000D+00 0.000000000000000D+00 -.124229522015762D+03
 0.138939690213690D+03 0.325753214672419D+02 0.277636986122894D+02 -.429797974326068D+02
 0.109519353817835D+03 -.325753214672419D+02 -.277636986122894D+02 0.429797974326068D+02
 0.000000000000000D+00 0.000000000000000D+00 0.000000000000000D+00 -.000000000000000D+00
 0.210443891185416D+03 0.000000000000000D+00 0.000000000000000D+00 0.210443891185416D+03
 0.327243407484004D+03 0.000000000000000D+00 0.000000000000000D+00 -.327243407484004D+03
 0.152628589108537D+03 0.271354022556828D+02 -.713224590878420D+02 -.429797974326068D+02
 0.160934146647295D+03 -.376212928480577D+02 -.119674239292280D+03 0.429797974326068D+02
 0.224124562913588D+03 0.104858905923749D+02 0.190996698380122D+03 -.116799516298589D+03
0.111658429322D-03 0.000000000000D+00 0.000000000000D+00 0.146025154556D-02 0.000000000000D+00  5 2 -2 25 23 21 0 0.15816881D+00 0.23094154D-02 0.13555745D+05 0.13555745D+05 0.13555745D+05 0.12528663D+01  1  2  2  2  5  2       -2 0.167084638173D+00 0.100000000000D+01
-.617152898435D-05 0.000000000000D+00 -.428797768936D-06 0.146025154556D-02 0.000000000000D+00  5 2 -2 25 23 21 2 0.15816881D+00 0.23094154D-02 0.13555745D+05 0.13555745D+05 0.13555745D+05 0.12528663D+01  1  2  3  2  5  2       -2 -.144959682111D-01 0.100000000000D+01
0.771710795597D-05 0.000000000000D+00 0.000000000000D+00 0.146025154556D-02 0.000000000000D+00  5 2 -2 25 23 21 2 0.15816881D+00 0.23094154D-02 0.13555745D+05 0.13555745D+05 0.13555745D+05 0.12528663D+01  1  2 15  2  5  2       -2 0.181262944556D-01 0.100000000000D+01
0.367304863259D-04 0.000000000000D+00 -.393454348445D-04 0.146025154556D-02 0.000000000000D+00  5 2 -2 25 23 21 2 0.15816881D+00 0.10686443D-01 0.13555745D+05 0.13555745D+05 0.13555745D+05 0.12528663D+01  1  2  5  2  5  2       -2 0.865488154242D-02 0.100000000000D+01
0.627515062404D-05 0.000000000000D+00 -.730610294435D-05 0.146025154556D-02 0.000000000000D+00  5 2 21 25 23 2 2 0.15816881D+00 0.10686443D-01 0.13555745D+05 0.13555745D+05 0.13555745D+05 0.12528663D+01  1  2  5  4  5  2       -2 0.231731599986D-01 0.100000000000D+01
  </mgrwgt>
  </event>
  <event>
  4     66 0.45228882E-03 0.11145908E+03 0.75467711E-02 0.12386478E+00
        2 -1    0    0  501    0 0.00000000E+00 0.00000000E+00 0.11260730E+02 0.11265276E+02 0.32000000E+00 0.0000E+00 0.9000E+01
       -2 -1    0    0    0  501 0.00000000E+00 0.00000000E+00 -.13252500E+04 0.13252500E+04 0.32000000E+00 0.0000E+00 0.9000E+01
       25  1    1    2    0    0 -.20425781E+02 0.17452868E+02 -.10086186E+04 0.10166899E+04 0.12500000E+03 0.0000E+00 0.9000E+01
       23  1    1    2    0    0 0.20425781E+02 -.17452868E+02 -.30537061E+03 0.31982538E+03 0.91188000E+02 0.0000E+00 0.9000E+01
#aMCatNLO 1  0  0  1  2 0.21417253D+02 0.00000000D+00  -5  5  0 0.00000000D+00 0.00000000D+00 0.00000000D+00 0.00000000D+00 0.00000000D+00
  <mgrwgt>
 0.1513463971D+00    4    2    0
 0.122173426948143D+03 0.000000000000000D+00 0.000000000000000D+00 0.122173426948143D+03
 0.122173426948143D+03 0.000000000000000D+00 0.000000000000000D+00 -.122173426948143D+03
 0.137131157198074D+03 -.204257811044762D+02 0.174528682420201D+02 -.495796241502663D+02
 0.107215696698212D+03 0.204257811044762D+02 -.174528682420201D+02 0.495796241502663D+02
 0.000000000000000D+00 -.000000000000000D+00 0.000000000000000D+00 -.000000000000000D+00
 0.124720309142239D+03 0.000000000000000D+00 0.000000000000000D+00 0.124720309142239D+03
 0.177814507889744D+03 0.000000000000000D+00 0.000000000000000D+00 -.177814507889744D+03
 0.135413002276637D+03 -.944002631681437D+01 0.128229465345813D+02 -.495796241502663D+02
 0.109870677864646D+03 0.291761343803876D+02 -.211406849977155D+02 0.495796241502663D+02
 0.572511368907002D+02 -.197361080635732D+02 0.831773846313423D+01 -.530941987475049D+02
0.184607215762D-02 0.000000000000D+00 0.000000000000D+00 0.143414213753D-02 0.000000000000D+00  5 2 -2 25 23 21 0 0.17327727D-02 0.20388496D+00 0.12423125D+05 0.12423125D+05 0.12423125D+05 0.12572641D+01  1  2  2  1  5  1        2 0.161321819573D+00 0.100000000000D+01
-.101509073166D-03 0.000000000000D+00 -.708940316722D-05 0.143414213753D-02 0.000000000000D+00  5 2 -2 25 23 21 2 0.17327727D-02 0.20388496D+00 0.12423125D+05 0.12423125D+05 0.12423125D+05 0.12572641D+01  1  2  3  1  5  1        2 -.140217541720D-01 0.100000000000D+01
0.126453295421D-03 0.000000000000D+00 0.000000000000D+00 0.143414213753D-02 0.000000000000D+00  5 2 -2 25 23 21 2 0.17327727D-02 0.20388496D+00 0.12423125D+05 0.12423125D+05 0.12423125D+05 0.12572641D+01  1  2 15  1  5  1        2 0.174673747609D-01 0.100000000000D+01
-.971602857120D-04 0.000000000000D+00 0.000000000000D+00 0.143414213753D-02 0.000000000000D+00  5 2 -2 25 23 21 2 0.17327727D-02 0.20388496D+00 0.12423125D+05 0.12423125D+05 0.12423125D+05 0.12572641D+01  1  2  4  1  5  1        2 -.134210430560D-01 0.100000000000D+01
  </mgrwgt>
  </event>
  <event>
  4     66 0.45228882E-03 0.11522425E+03 0.75467711E-02 0.11668829E+00
        4 -1    0    0  501    0 0.00000000E+00 0.00000000E+00 0.14593348E+03 0.14594171E+03 0.15500000E+01 0.0000E+00 0.9000E+01
       -4 -1    0    0    0  501 0.00000000E+00 0.00000000E+00 -.11983620E+03 0.11984622E+03 0.15500000E+01 0.0000E+00 0.9000E+01
       25  1    1    2    0    0 -.36614180E+02 0.14745802E+02 0.79171085E+02 0.15313751E+03 0.12500000E+03 0.0000E+00 0.9000E+01
       23  1    1    2    0    0 0.36614180E+02 -.14745802E+02 -.53073808E+02 0.11265042E+03 0.91188000E+02 0.0000E+00 0.9000E+01
#aMCatNLO 1  0  0  2  2 0.10736724D+03 0.00000000D+00  -5  5  0 0.00000000D+00 0.00000000D+00 0.00000000D+00 0.00000000D+00 0.00000000D+00
  <mgrwgt>
 0.2125630542D-01    3    2    0
 0.132251802556208D+03 0.000000000000000D+00 0.000000000000000D+00 0.132251802556208D+03
 0.132251802556208D+03 0.000000000000000D+00 0.000000000000000D+00 -.132251802556208D+03
 0.146069664609342D+03 -.366141799953435D+02 0.147458016348124D+02 0.644461796889548D+02
 0.118433940503074D+03 0.366141799953435D+02 -.147458016348124D+02 -.644461796889548D+02
 0.000000000000000D+00 -.000000000000000D+00 -.000000000000000D+00 0.000000000000000D+00
 0.469107264305164D+03 0.000000000000000D+00 0.000000000000000D+00 0.469107264305164D+03
 0.151562283773348D+03 0.000000000000000D+00 0.000000000000000D+00 -.151562283773348D+03
 0.151844827413717D+03 0.316941123774608D+01 0.571707649783206D+02 0.644461796889548D+02
 0.133619500154415D+03 0.702734725793217D+02 0.211482493993731D+02 -.644461796889548D+02
 0.335205220510380D+03 -.734428838170678D+02 -.783190143776937D+02 0.317544980531816D+03
0.272678911648D-03 0.000000000000D+00 0.000000000000D+00 0.122411334900D-02 0.000000000000D+00  5 4 -4 25 23 21 0 0.22452708D-01 0.18437743D-01 0.13276628D+05 0.13276628D+05 0.13276628D+05 0.12539106D+01  1  2  2  2  5  2       -4 0.207906469523D-01 0.100000000000D+01
-.147989380414D-04 0.000000000000D+00 -.104715881873D-05 0.122411334900D-02 0.000000000000D+00  5 4 -4 25 23 21 2 0.22452708D-01 0.18437743D-01 0.13276628D+05 0.13276628D+05 0.13276628D+05 0.12539106D+01  1  2  3  2  5  2       -4 -.177410851515D-02 0.100000000000D+01
0.186832837488D-04 0.000000000000D+00 0.000000000000D+00 0.122411334900D-02 0.000000000000D+00  5 4 -4 25 23 21 2 0.22452708D-01 0.18437743D-01 0.13276628D+05 0.13276628D+05 0.13276628D+05 0.12539106D+01  1  2 15  2  5  2       -4 0.223976698172D-02 0.100000000000D+01
  </mgrwgt>
  </event>
  <event>
  4     66 0.45228882E-03 0.11349253E+03 0.75467711E-02 0.11622603E+00
        2 -1    0    0  501    0 0.00000000E+00 0.00000000E+00 0.18606042E+04 0.18606042E+04 0.32000000E+00 0.0000E+00 0.9000E+01
       -2 -1    0    0    0  501 0.00000000E+00 0.00000000E+00 -.71900988E+01 0.71972162E+01 0.32000000E+00 0.0000E+00 0.9000E+01
       25  1    1    2    0    0 0.13712757E+02 -.31331424E+02 0.12327004E+04 0.12394938E+04 0.12500000E+03 0.0000E+00 0.9000E+01
       23  1    1    2    0    0 -.13712757E+02 0.31331424E+02 0.62071374E+03 0.62830765E+03 0.91188000E+02 0.0000E+00 0.9000E+01
#aMCatNLO 1  0  0  2  1 0.11650960D+03 0.00000000D+00  -5  5  0 0.00000000D+00 0.00000000D+00 0.00000000D+00 0.00000000D+00 0.00000000D+00
  <mgrwgt>
 0.2602836242D+00    3    2    0
 0.115691835217431D+03 0.000000000000000D+00 0.000000000000000D+00 0.115691835217431D+03
 0.115691835217431D+03 0.000000000000000D+00 0.000000000000000D+00 -.115691835217431D+03
 0.131487566701554D+03 0.137127567341059D+02 -.313314241025861D+02 0.222324619318424D+02
 0.998961037333074D+02 -.137127567341059D+02 0.313314241025861D+02 -.222324619318424D+02
 0.000000000000000D+00 -.000000000000000D+00 -.000000000000000D+00 0.000000000000000D+00
 0.270995531234563D+03 0.000000000000000D+00 0.000000000000000D+00 0.270995531234563D+03
 0.153519942645813D+03 0.000000000000000D+00 0.000000000000000D+00 -.153519942645813D+03
 0.140807942217339D+03 0.590659196430876D+02 0.147922738159845D+02 0.222324619318424D+02
 0.118253611632516D+03 0.226219577781379D+02 0.682834532142834D+02 -.222324619318424D+02
 0.165453920030520D+03 -.816878774212256D+02 -.830757270302679D+02 0.117475588588749D+03
0.163175807774D-03 0.000000000000D+00 0.000000000000D+00 0.170351897764D-02 0.000000000000D+00  5 2 -2 25 23 21 0 0.28624735D+00 0.11067187D-02 0.12880555D+05 0.12880555D+05 0.12880555D+05 0.12554357D+01  1  2  2  2  5  2       -2 0.254815319596D+00 0.100000000000D+01
-.906126241185D-05 0.000000000000D+00 -.626638067029D-06 0.170351897764D-02 0.000000000000D+00  5 2 -2 25 23 21 2 0.28624735D+00 0.11067187D-02 0.12880555D+05 0.12880555D+05 0.12880555D+05 0.12554357D+01  1  2  3  2  5  2       -2 -.223021870367D-01 0.100000000000D+01
0.112830060809D-04 0.000000000000D+00 0.000000000000D+00 0.170351897764D-02 0.000000000000D+00  5 2 -2 25 23 21 2 0.28624735D+00 0.11067187D-02 0.12880555D+05 0.12880555D+05 0.12880555D+05 0.12554357D+01  1  2 15  2  5  2       -2 0.277704916287D-01 0.100000000000D+01
  </mgrwgt>
  </event>
  <event>
  4     66 0.45228882E-03 0.82436978E+02 0.75467711E-02 0.11858623E+00
        2 -1    0    0  501    0 0.00000000E+00 0.00000000E+00 0.17351561E+03 0.17351590E+03 0.32000000E+00 0.0000E+00 0.9000E+01
       -2 -1    0    0    0  501 0.00000000E+00 0.00000000E+00 -.15443909E+03 0.15443942E+03 0.32000000E+00 0.0000E+00 0.9000E+01
       25  1    1    2    0    0 -.80204572E+02 -.59259044E+01 0.10245519E+03 0.18052688E+03 0.12500000E+03 0.0000E+00 0.9000E+01
       23  1    1    2    0    0 0.80204572E+02 0.59259044E+01 -.83378679E+02 0.14742844E+03 0.91188000E+02 0.0000E+00 0.9000E+01
#aMCatNLO 1  0  0  1  2 0.49911537D+02 0.00000000D+00  -5  5  0 0.00000000D+00 0.00000000D+00 0.00000000D+00 0.00000000D+00 0.00000000D+00
  <mgrwgt>
 0.1373871327D+00    9    2    0
 0.163700016627321D+03 0.000000000000000D+00 0.000000000000000D+00 0.163700016627321D+03
 0.163700016627321D+03 0.000000000000000D+00 0.000000000000000D+00 -.163700016627321D+03
 0.174863345756116D+03 -.802045719590877D+02 -.592590436766754D+01 0.921102599242218D+02
 0.152536687498526D+03 0.802045719590877D+02 0.592590436766754D+01 -.921102599242218D+02
 0.000000000000000D+00 -.000000000000000D+00 -.000000000000000D+00 0.000000000000000D+00
 0.210620702751455D+03 0.000000000000000D+00 0.000000000000000D+00 0.210620702751455D+03
 0.179422077393244D+03 0.000000000000000D+00 0.000000000000000D+00 -.179422077393244D+03
 0.169729335305560D+03 -.665695803332020D+02 0.163474234734710D+02 0.921102599242218D+02
 0.161453308041999D+03 0.926286633432011D+02 0.262211761301574D+02 -.921102599242218D+02
 0.588601367971400D+02 -.260590830099992D+02 -.425685996036284D+02 0.311986253582106D+02
0.361180910681D-03 0.000000000000D+00 0.000000000000D+00 0.925866100064D-03 0.000000000000D+00  5 2 -2 25 23 21 0 0.26694757D-01 0.23759909D-01 0.18255079D+05 0.18255079D+05 0.18255079D+05 0.12382148D+01  1  2  2  1  5  1        2 0.108333642289D+00 0.100000000000D+01
-.191668373911D-04 0.000000000000D+00 -.138702979813D-05 0.925866100064D-03 0.000000000000D+00  5 2 -2 25 23 21 2 0.26694757D-01 0.23759909D-01 0.18255079D+05 0.18255079D+05 0.18255079D+05 0.12382148D+01  1  2  3  1  5  1        2 -.881416103484D-02 0.100000000000D+01
0.246103955105D-04 0.000000000000D+00 0.000000000000D+00 0.925866100064D-03 0.000000000000D+00  5 2 -2 25 23 21 2 0.26694757D-01 0.23759909D-01 0.18255079D+05 0.18255079D+05 0.18255079D+05 0.12382148D+01  1  2 15  1  5  1        2 0.113174638431D-01 0.100000000000D+01
0.372663950147D-03 0.000000000000D+00 0.000000000000D+00 0.925866100064D-03 0.000000000000D+00  5 2 -2 25 23 21 2 0.35347602D-01 0.23759909D-01 0.26418168D+05 0.26418168D+05 0.26418168D+05 0.12207369D+01  1  2 12  1  5  1        2 0.123854135678D+00 0.100000000000D+01
-.431706932555D-03 0.000000000000D+00 0.000000000000D+00 0.925866100064D-03 0.000000000000D+00  5 2 -2 25 23 21 2 0.26694757D-01 0.23759909D-01 0.18255079D+05 0.18255079D+05 0.18255079D+05 0.12382148D+01  1  2  4  1  5  1        2 -.198526984173D+00 0.100000000000D+01
-.635867004914D-03 0.000000000000D+00 -.216075764811D-03 0.925866100064D-03 0.000000000000D+00  5 2 -2 25 23 21 2 0.37266098D-01 0.23759909D-01 0.18255079D+05 0.18255079D+05 0.18255079D+05 0.12382148D+01  1  2  5  1  5  1        2 -.203987036870D+00 0.100000000000D+01
0.681183813291D-03 0.000000000000D+00 0.204584620482D-03 0.925866100064D-03 0.000000000000D+00  5 2 -2 25 23 21 2 0.26694757D-01 0.23759909D-01 0.18255079D+05 0.18255079D+05 0.18255079D+05 0.12382148D+01  1  2  6  1  5  1        2 0.313252713640D+00 0.100000000000D+01
0.137301467602D-04 0.000000000000D+00 0.000000000000D+00 0.925866100064D-03 0.000000000000D+00  5 21 -2 25 23 -2 2 0.35347602D-01 0.23759909D-01 0.26418168D+05 0.26418168D+05 0.26418168D+05 0.12207369D+01  1  2 12  3  5  1        2 0.196682559292D-01 0.100000000000D+01
-.208415992430D-04 0.000000000000D+00 -.901714764144D-05 0.925866100064D-03 0.000000000000D+00  5 21 -2 25 23 -2 2 0.37266098D-01 0.23759909D-01 0.18255079D+05 0.18255079D+05 0.18255079D+05 0.12382148D+01  1  2  5  3  5  1        2 -.277108965713D-01 0.100000000000D+01
  </mgrwgt>
  </event>
  <event>
  4     66 0.45228882E-03 0.13600202E+03 0.75467711E-02 0.10911732E+00
        2 -1    0    0  501    0 0.00000000E+00 0.00000000E+00 0.58237009E+03 0.58237018E+03 0.32000000E+00 0.0000E+00 0.9000E+01
       -2 -1    0    0    0  501 0.00000000E+00 0.00000000E+00 -.33736781E+02 0.33738299E+02 0.32000000E+00 0.0000E+00 0.9000E+01
       25  1    1    2    0    0 -.70996407E+02 -.40822561E+02 0.37405548E+03 0.40280203E+03 0.12500000E+03 0.0000E+00 0.9000E+01
       23  1    1    2    0    0 0.70996407E+02 0.40822561E+02 0.17457783E+03 0.21330645E+03 0.91188000E+02 0.0000E+00 0.9000E+01
#aMCatNLO 1  0  0  1  2 0.22457848D+03 0.00000000D+00  -5  5  0 0.00000000D+00 0.00000000D+00 0.00000000D+00 0.00000000D+00 0.00000000D+00
  <mgrwgt>
 0.1643051819D+00    5    2    0
 0.140170563058379D+03 0.000000000000000D+00 0.000000000000000D+00 0.140170563058379D+03
 0.140170563058379D+03 0.000000000000000D+00 0.000000000000000D+00 -.140170563058379D+03
 0.153207802291262D+03 -.709964071303426D+02 -.408225611642062D+02 0.337736488626228D+02
 0.127133323825496D+03 0.709964071303426D+02 0.408225611642062D+02 -.337736488626228D+02
 0.000000000000000D+00 0.000000000000000D+00 -.000000000000000D+00 0.000000000000000D+00
 0.478989848149761D+03 0.000000000000000D+00 0.000000000000000D+00 0.478989848149761D+03
 0.221716823642285D+03 0.000000000000000D+00 0.000000000000000D+00 -.221716823642285D+03
 0.227586820987550D+03 -.184856722107452D+03 0.292932419068193D+02 0.337736488626228D+02
 0.131615965293661D+03 -.637148032966317D+01 0.884661283039740D+02 -.337736488626228D+02
 0.341503885510835D+03 0.191228202437115D+03 -.117759370210793D+03 0.257273024507476D+03
0.173782427307D-03 0.000000000000D+00 0.000000000000D+00 0.135768550600D-02 0.000000000000D+00  5 2 -2 25 23 21 0 0.89595522D-01 0.51903975D-02 0.18496548D+05 0.18496548D+05 0.18496548D+05 0.12375801D+01  1  2  2  1  5  1        2 0.160529488239D+00 0.100000000000D+01
-.964388014874D-05 0.000000000000D+00 -.667370278823D-06 0.135768550600D-02 0.000000000000D+00  5 2 -2 25 23 21 2 0.89595522D-01 0.51903975D-02 0.18496548D+05 0.18496548D+05 0.18496548D+05 0.12375801D+01  1  2  3  1  5  1        2 -.136441777880D-01 0.100000000000D+01
0.120319447612D-04 0.000000000000D+00 0.000000000000D+00 0.135768550600D-02 0.000000000000D+00  5 2 -2 25 23 21 2 0.89595522D-01 0.51903975D-02 0.18496548D+05 0.18496548D+05 0.18496548D+05 0.12375801D+01  1  2 15  1  5  1        2 0.170228156017D-01 0.100000000000D+01
0.292679984161D-05 0.000000000000D+00 -.758495211486D-04 0.135768550600D-02 0.000000000000D+00  5 2 -2 25 23 21 2 0.37440634D+00 0.51903975D-02 0.18496548D+05 0.18496548D+05 0.18496548D+05 0.12375801D+01  1  2  5  1  5  1        2 0.372355021572D-03 0.100000000000D+01
0.829900759013D-06 0.000000000000D+00 -.130143404437D-04 0.135768550600D-02 0.000000000000D+00  5 21 -2 25 23 -2 2 0.37440634D+00 0.51903975D-02 0.18496548D+05 0.18496548D+05 0.18496548D+05 0.12375801D+01  1  2  5  3  5  1        2 0.247007851948D-04 0.100000000000D+01
  </mgrwgt>
  </event>
  <event>
  4     66 0.45228882E-03 0.98873205E+02 0.75467711E-02 0.11585532E+00
        2 -1    0    0  501    0 0.00000000E+00 0.00000000E+00 0.15629566E+03 0.15629599E+03 0.32000000E+00 0.0000E+00 0.9000E+01
       -2 -1    0    0    0  501 0.00000000E+00 0.00000000E+00 -.22901944E+03 0.22901967E+03 0.32000000E+00 0.0000E+00 0.9000E+01
       25  1    1    2    0    0 -.60620752E+02 0.13543681E+03 0.61686726E+01 0.19411609E+03 0.12500000E+03 0.0000E+00 0.9000E+01
       23  1    1    2    0    0 0.60620752E+02 -.13543681E+03 -.78892451E+02 0.19119957E+03 0.91188000E+02 0.0000E+00 0.9000E+01
#aMCatNLO 1  0  0  1  2 0.11417376D+02 0.00000000D+00  -5  5  0 0.00000000D+00 0.00000000D+00 0.00000000D+00 0.00000000D+00 0.00000000D+00
  <mgrwgt>
 0.2543662694D+00    9    2    0
 0.189195274310644D+03 0.000000000000000D+00 0.000000000000000D+00 0.189195274310644D+03
 0.189195274310644D+03 0.000000000000000D+00 0.000000000000000D+00 -.189195274310644D+03
 0.198854274360505D+03 -.606207518248008D+02 0.135436805983707D+03 0.435892012380426D+02
 0.179536274260783D+03 0.606207518248008D+02 -.135436805983707D+03 -.435892012380426D+02
 0.000000000000000D+00 -.000000000000000D+00 0.000000000000000D+00 0.000000000000000D+00
 0.195481831417248D+03 0.000000000000000D+00 0.000000000000000D+00 0.195481831417248D+03
 0.194537307595482D+03 0.000000000000000D+00 0.000000000000000D+00 -.194537307595482D+03
 0.194709051794119D+03 -.565707416723865D+02 0.131096710762058D+03 0.435892012380426D+02
 0.183853708874996D+03 0.643602596071071D+02 -.139444158865930D+03 -.435892012380426D+02
 0.114563783436156D+02 -.778951793472055D+01 0.834744810387275D+01 0.944523821765624D+00
0.669270368743D-03 0.000000000000D+00 0.000000000000D+00 0.111226395031D-02 0.000000000000D+00  5 2 -2 25 23 21 0 0.24045529D-01 0.35233803D-01 0.33889588D+05 0.33889588D+05 0.33889588D+05 0.12093806D+01  1  2  2  1  5  1        2 0.112582521872D+00 0.100000000000D+01
-.371478755626D-04 0.000000000000D+00 -.257017443891D-05 0.111226395031D-02 0.000000000000D+00  5 2 -2 25 23 21 2 0.24045529D-01 0.35233803D-01 0.33889588D+05 0.33889588D+05 0.33889588D+05 0.12093806D+01  1  2  3  1  5  1        2 -.913964531000D-02 0.100000000000D+01
0.460450088714D-04 0.000000000000D+00 0.000000000000D+00 0.111226395031D-02 0.000000000000D+00  5 2 -2 25 23 21 2 0.24045529D-01 0.35233803D-01 0.33889588D+05 0.33889588D+05 0.33889588D+05 0.12093806D+01  1  2 15  1  5  1        2 0.113286437786D-01 0.100000000000D+01
0.174653180423D-02 0.000000000000D+00 0.000000000000D+00 0.111226395031D-02 0.000000000000D+00  5 2 -2 25 23 21 2 0.25173638D-01 0.35233803D-01 0.36061321D+05 0.36061321D+05 0.36061321D+05 0.12065989D+01  1  2 12  1  5  1        2 0.406833206623D+00 0.100000000000D+01
-.141788849704D-02 0.000000000000D+00 0.000000000000D+00 0.111226395031D-02 0.000000000000D+00  5 2 -2 25 23 21 2 0.24045529D-01 0.35233803D-01 0.33889588D+05 0.33889588D+05 0.33889588D+05 0.12093806D+01  1  2  4  1  5  1        2 -.348848965273D+00 0.100000000000D+01
-.112835158127D-01 0.000000000000D+00 -.188238283015D-02 0.111226395031D-02 0.000000000000D+00  5 2 -2 25 23 21 2 0.25509378D-01 0.35233803D-01 0.33889588D+05 0.33889588D+05 0.33889588D+05 0.12093806D+01  1  2  5  1  5  1        2 -.259925087533D+01 0.100000000000D+01
0.113781667338D-01 0.000000000000D+00 0.187910052891D-02 0.111226395031D-02 0.000000000000D+00  5 2 -2 25 23 21 2 0.24045529D-01 0.35233803D-01 0.33889588D+05 0.33889588D+05 0.33889588D+05 0.12093806D+01  1  2  6  1  5  1        2 0.279941737314D+01 0.100000000000D+01
0.209597319066D-04 0.000000000000D+00 0.000000000000D+00 0.111226395031D-02 0.000000000000D+00  5 21 -2 25 23 -2 2 0.25173638D-01 0.35233803D-01 0.36061321D+05 0.36061321D+05 0.36061321D+05 0.12065989D+01  1  2 12  3  5  1        2 0.278687417132D-01 0.100000000000D+01
-.112376414686D-03 0.000000000000D+00 -.191288464799D-04 0.111226395031D-02 0.000000000000D+00  5 21 -2 25 23 -2 2 0.25509378D-01 0.35233803D-01 0.33889588D+05 0.33889588D+05 0.33889588D+05 0.12093806D+01  1  2  5  3  5  1        2 -.146424731786D+00 0.100000000000D+01
  </mgrwgt>
  </event>
  <event>
  4     66 0.45228882E-03 0.16678531E+03 0.75467711E-02 0.11280862E+00
        2 -1    0    0  501    0 0.00000000E+00 0.00000000E+00 0.23161314E+03 0.23161336E+03 0.32000000E+00 0.0000E+00 0.9000E+01
       -2 -1    0    0    0  501 0.00000000E+00 0.00000000E+00 -.12674210E+03 0.12674251E+03 0.32000000E+00 0.0000E+00 0.9000E+01
       25  1    1    2    0    0 -.12056415E+03 0.37835831E+02 0.14772075E+02 0.17835492E+03 0.12500000E+03 0.0000E+00 0.9000E+01
       23  1    1    2    0    0 0.12056415E+03 -.37835831E+02 0.90098964E+02 0.18000094E+03 0.91188000E+02 0.0000E+00 0.9000E+01
#aMCatNLO 1  0  0  1  2 0.10649867D+03 0.00000000D+00  -5  5  0 0.00000000D+00 0.00000000D+00 0.00000000D+00 0.00000000D+00 0.00000000D+00
  <mgrwgt>
 0.1613321532D+00    3    2    0
 0.171333732681362D+03 0.000000000000000D+00 0.000000000000000D+00 0.171333732681362D+03
 0.171333732681362D+03 0.000000000000000D+00 0.000000000000000D+00 -.171333732681362D+03
 0.181999683486266D+03 -.120564150862384D+03 0.378358306924610D+02 -.391359199680378D+02
 0.160667781876458D+03 0.120564150862384D+03 -.378358306924610D+02 0.391359199680378D+02
 0.000000000000000D+00 0.000000000000000D+00 -.000000000000000D+00 -.000000000000000D+00
 0.198848228505000D+03 0.000000000000000D+00 0.000000000000000D+00 0.198848228505000D+03
 0.325348101437113D+03 0.000000000000000D+00 0.000000000000000D+00 -.325348101437113D+03
 0.229384316294137D+03 -.182331935743341D+03 0.470702617166100D+02 -.391359199680378D+02
 0.129451242829863D+03 0.770038531417668D+02 -.313234623848116D+02 0.391359199680378D+02
 0.165360770818114D+03 0.105328082601574D+03 -.157467993317984D+02 -.126499872932113D+03
0.509129959864D-03 0.000000000000D+00 0.000000000000D+00 0.117550757667D-02 0.000000000000D+00  5 2 -2 25 23 21 0 0.35632839D-01 0.19498833D-01 0.27817338D+05 0.27817338D+05 0.27817338D+05 0.12183566D+01  1  2  2  1  5  1        2 0.158207514340D+00 0.100000000000D+01
-.282601015617D-04 0.000000000000D+00 -.195519310287D-05 0.117550757667D-02 0.000000000000D+00  5 2 -2 25 23 21 2 0.35632839D-01 0.19498833D-01 0.27817338D+05 0.27817338D+05 0.27817338D+05 0.12183566D+01  1  2  3  1  5  1        2 -.130352999390D-01 0.100000000000D+01
0.350342157996D-04 0.000000000000D+00 0.000000000000D+00 0.117550757667D-02 0.000000000000D+00  5 2 -2 25 23 21 2 0.35632839D-01 0.19498833D-01 0.27817338D+05 0.27817338D+05 0.27817338D+05 0.12183566D+01  1  2 15  1  5  1        2 0.161599387773D-01 0.100000000000D+01
  </mgrwgt>
  </event>
  <event>
  5     66 0.45228882E-03 0.12796114E+03 0.75467711E-02 0.12234399E+00
        2 -1    0    0  501    0 0.00000000E+00 0.00000000E+00 0.29242241E+02 0.29243991E+02 0.32000000E+00 0.0000E+00 0.9000E+01
       21 -1    0    0  502  501 0.00000000E+00 0.00000000E+00 -.66841315E+03 0.66841357E+03 0.75000000E+00 0.0000E+00 0.9000E+01
       25  1    1    2    0    0 -.64090639E+02 0.18430026E+01 -.24099859E+03 0.27895578E+03 0.12500000E+03 0.0000E+00 0.9000E+01
       23  1    1    2    0    0 0.70602921E+02 -.85658846E+01 -.38803433E+03 0.40490004E+03 0.91188000E+02 0.0000E+00 0.9000E+01
        2  1    1    2  502    0 -.65122827E+01 0.67228820E+01 -.10137989E+02 0.13801746E+02 0.32000000E+00 0.0000E+00 0.9000E+01
#aMCatNLO 2  0  0  2  1 0.93598595D+01 0.00000000D+00  -5  5  0 0.00000000D+00 0.00000000D+00 0.00000000D+00 0.00000000D+00 0.00000000D+00
  <mgrwgt>
 0.2467492447D-01    1    2    0
 0.134060392696063D+03 0.000000000000000D+00 0.000000000000000D+00 0.134060392696063D+03
 0.134060392696063D+03 0.000000000000000D+00 0.000000000000000D+00 -.134060392696063D+03
 0.147691839891232D+03 -.676562369249740D+02 0.552390809485988D+01 0.397492089854449D+02
 0.120428945500894D+03 0.676562369249740D+02 -.552390809485988D+01 -.397492089854449D+02
 0.000000000000000D+00 -.000000000000000D+00 0.000000000000000D+00 0.000000000000000D+00
 0.143104300319784D+03 0.000000000000000D+00 0.000000000000000D+00 0.143104300319784D+03
 0.136585832121165D+03 0.000000000000000D+00 0.000000000000000D+00 -.136585832121165D+03
 0.146000021297014D+03 -.640906385153348D+02 0.184300256553675D+01 0.397492089854449D+02
 0.122284086559659D+03 0.706029212410201D+02 -.856588460090215D+01 -.397492089854449D+02
 0.114060245842760D+02 -.651228272568535D+01 0.672288203536541D+01 0.651846819861918D+01
0.958068554293D-05 0.000000000000D+00 0.000000000000D+00 0.138106342468D-02 0.454511729970D-06  5 2 21 25 23 2 2 0.44989001D-02 0.10283129D+00 0.17620992D+05 0.17620992D+05 0.17620992D+05 0.12399274D+01  1  2  1  4  5  2       -2 0.246749244738D-01 0.100000000000D+01
  </mgrwgt>
  </event>
  <event>
  4     66 0.45228882E-03 0.83630296E+02 0.75467711E-02 0.12301431E+00
        2 -1    0    0  501    0 0.00000000E+00 0.00000000E+00 0.64282438E+02 0.64283235E+02 0.32000000E+00 0.0000E+00 0.9000E+01
       -2 -1    0    0    0  501 0.00000000E+00 0.00000000E+00 -.19209631E+03 0.19209658E+03 0.32000000E+00 0.0000E+00 0.9000E+01
       25  1    1    2    0    0 0.95440180E+01 -.21717239E+02 -.84071011E+02 0.15249807E+03 0.12500000E+03 0.0000E+00 0.9000E+01
       23  1    1    2    0    0 -.95440180E+01 0.21717239E+02 -.43742860E+02 0.10388174E+03 0.91188000E+02 0.0000E+00 0.9000E+01
#aMCatNLO 1  0  0  2  1 0.32568168D+02 0.00000000D+00  -5  5  0 0.00000000D+00 0.00000000D+00 0.00000000D+00 0.00000000D+00 0.00000000D+00
  <mgrwgt>
 0.1144328901D+00    9    2    0
 0.111124054363671D+03 0.000000000000000D+00 0.000000000000000D+00 0.111124054363671D+03
 0.111124054363671D+03 0.000000000000000D+00 0.000000000000000D+00 -.111124054363671D+03
 0.127569073171385D+03 0.954401804200748D+01 -.217172390074281D+02 -.928125418864324D+01
 0.946790355559568D+02 -.954401804200748D+01 0.217172390074281D+02 0.928125418864324D+01
 0.000000000000000D+00 0.000000000000000D+00 -.000000000000000D+00 -.000000000000000D+00
 0.116054245066101D+03 0.000000000000000D+00 0.000000000000000D+00 0.116054245066101D+03
 0.183147970136789D+03 0.000000000000000D+00 0.000000000000000D+00 -.183147970136789D+03
 0.125470491413067D+03 0.580368831647604D+00 -.560050963231856D+01 -.928125418864324D+01
 0.991512069593671D+02 -.164102419193667D+02 0.340627770202740D+02 0.928125418864324D+01
 0.745805168304555D+02 0.158298730877191D+02 -.284622673879554D+02 -.670937250706882D+02
0.150167513687D-03 0.000000000000D+00 0.000000000000D+00 0.183979991156D-02 0.000000000000D+00  5 2 -2 25 23 21 0 0.98896877D-02 0.29553360D-01 0.12260471D+05 0.12260471D+05 0.12260471D+05 0.12579326D+01  1  2  2  2  5  2       -2 0.955189938249D-01 0.100000000000D+01
-.834250969215D-05 0.000000000000D+00 -.576682792573D-06 0.183979991156D-02 0.000000000000D+00  5 2 -2 25 23 21 2 0.98896877D-02 0.29553360D-01 0.12260471D+05 0.12260471D+05 0.12260471D+05 0.12579326D+01  1  2  3  2  5  2       -2 -.839702034626D-02 0.100000000000D+01
0.103827836721D-04 0.000000000000D+00 0.000000000000D+00 0.183979991156D-02 0.000000000000D+00  5 2 -2 25 23 21 2 0.98896877D-02 0.29553360D-01 0.12260471D+05 0.12260471D+05 0.12260471D+05 0.12579326D+01  1  2 15  2  5  2       -2 0.104506256466D-01 0.100000000000D+01
0.283070713174D-03 0.000000000000D+00 0.000000000000D+00 0.183979991156D-02 0.000000000000D+00  5 2 -2 25 23 21 2 0.98896877D-02 0.49000262D-01 0.16436621D+05 0.16436621D+05 0.16436621D+05 0.12433195D+01  1  2 12  2  5  2       -2 0.109119751683D+00 0.100000000000D+01
-.278883779853D-03 0.000000000000D+00 0.000000000000D+00 0.183979991156D-02 0.000000000000D+00  5 2 -2 25 23 21 2 0.98896877D-02 0.29553360D-01 0.12260471D+05 0.12260471D+05 0.12260471D+05 0.12579326D+01  1  2  4  2  5  2       -2 -.280706029729D+00 0.100000000000D+01
-.321095081008D-03 0.000000000000D+00 -.463855768489D-04 0.183979991156D-02 0.000000000000D+00  5 2 -2 25 23 21 2 0.98896877D-02 0.50134051D-01 0.12260471D+05 0.12260471D+05 0.12260471D+05 0.12579326D+01  1  2  5  2  5  2       -2 -.120085482076D+00 0.100000000000D+01
0.307462731211D-03 0.000000000000D+00 0.405844788580D-04 0.183979991156D-02 0.000000000000D+00  5 2 -2 25 23 21 2 0.98896877D-02 0.29553360D-01 0.12260471D+05 0.12260471D+05 0.12260471D+05 0.12579326D+01  1  2  6  2  5  2       -2 0.309471718339D+00 0.100000000000D+01
0.161028458291D-04 0.000000000000D+00 0.000000000000D+00 0.183979991156D-02 0.000000000000D+00  5 2 21 25 23 2 2 0.98896877D-02 0.49000262D-01 0.16436621D+05 0.16436621D+05 0.16436621D+05 0.12433195D+01  1  2 12  4  5  2       -2 0.777290506935D-01 0.100000000000D+01
-.167062437736D-04 0.000000000000D+00 -.273449601479D-05 0.183979991156D-02 0.000000000000D+00  5 2 21 25 23 2 2 0.98896877D-02 0.50134051D-01 0.12260471D+05 0.12260471D+05 0.12260471D+05 0.12579326D+01  1  2  5  4  5  2       -2 -.786687179481D-01 0.100000000000D+01
  </mgrwgt>
  </event>
  <event>
  5     66 0.45228882E-03 0.13623699E+03 0.75467711E-02 0.11578784E+00
        2 -1    0    0  502    0 0.00000000E+00 0.00000000E+00 0.60230260E+02 0.60231110E+02 0.32000000E+00 0.0000E+00 0.9000E+01
       -2 -1    0    0    0  501 0.00000000E+00 0.00000000E+00 -.68544777E+03 0.68544785E+03 0.32000000E+00 0.0000E+00 0.9000E+01
       25  1    1    2    0    0 -.66102289E+02 -.54219569E+02 -.38252097E+03 0.41140803E+03 0.12500000E+03 0.0000E+00 0.9000E+01
       23  1    1    2    0    0 0.95903838E+02 -.34086703E+02 -.14493341E+03 0.19919938E+03 0.91188000E+02 0.0000E+00 0.9000E+01
       21  1    1    2  502  501 -.29801549E+02 0.88306272E+02 -.97763139E+02 0.13507155E+03 0.75000000E+00 0.0000E+00 0.9000E+01
#aMCatNLO 2  0  0  1  2 0.93199410D+02 0.00000000D+00  -5  5  0 0.00000000D+00 0.00000000D+00 0.00000000D+00 0.00000000D+00 0.00000000D+00
  <mgrwgt>
 0.2077579337D-01    2    2    0
 0.146583729693054D+03 0.000000000000000D+00 0.000000000000000D+00 0.146583729693054D+03
 0.146583729693054D+03 0.000000000000000D+00 0.000000000000000D+00 -.146583729693054D+03
 0.159050578284140D+03 -.819648878986431D+02 -.721641017704474D+01 -.538680520200869D+02
 0.134116881101967D+03 0.819648878986431D+02 0.721641017704474D+01 0.538680520200869D+02
 0.000000000000000D+00 -.000000000000000D+00 0.000000000000000D+00 0.000000000000000D+00
 0.222822406217363D+03 0.000000000000000D+00 0.000000000000000D+00 0.222822406217363D+03
 0.185279643639648D+03 0.000000000000000D+00 0.000000000000000D+00 -.185279643639648D+03
 0.160735936796745D+03 -.661022892588576D+02 -.542195693843723D+02 -.538680520200869D+02
 0.146889304740765D+03 0.959038382017626D+02 -.340867025826319D+02 0.538680520200869D+02
 0.100476808319500D+03 -.298015489429050D+02 0.883062719670042D+02 0.375427625777151D+02
-.879285574371D-04 0.000000000000D+00 0.000000000000D+00 0.122002125073D-02 0.000000000000D+00  5 2 -2 25 23 21 2 0.97330802D-02 0.83428855D-01 0.36346561D+05 0.36346561D+05 0.36346561D+05 0.12062474D+01  1  2 13  1  5  1        2 -.108880797862D-01 0.100000000000D+01
0.410497251125D-03 0.000000000000D+00 0.000000000000D+00 0.122002125073D-02 0.123843766051D-05  5 2 -2 25 23 21 2 0.92661992D-02 0.10545283D+00 0.36346561D+05 0.36346561D+05 0.36346561D+05 0.12062474D+01  1  2  1  1  5  1        2 0.316638731524D-01 0.100000000000D+01
  </mgrwgt>
  </event>
  <event>
  4     66 0.45228882E-03 0.14363581E+03 0.75467711E-02 0.10748322E+00
        2 -1    0    0  501    0 0.00000000E+00 0.00000000E+00 0.15391181E+03 0.15391214E+03 0.32000000E+00 0.0000E+00 0.9000E+01
       -2 -1    0    0    0  501 0.00000000E+00 0.00000000E+00 -.15171899E+03 0.15171933E+03 0.32000000E+00 0.0000E+00 0.9000E+01
       25  1    1    2    0    0 -.30827841E+01 -.93880154E+02 -.50793591E+02 0.16440187E+03 0.12500000E+03 0.0000E+00 0.9000E+01
       23  1    1    2    0    0 0.30827841E+01 0.93880154E+02 0.52986410E+02 0.14122959E+03 0.91188000E+02 0.0000E+00 0.9000E+01
#aMCatNLO 1  0  0  2  2 0.25781719D+03 0.00000000D+00  -5  5  0 0.00000000D+00 0.00000000D+00 0.00000000D+00 0.00000000D+00 0.00000000D+00
  <mgrwgt>
 0.1829164491D+00    3    2    0
 0.152811799699841D+03 0.000000000000000D+00 0.000000000000000D+00 0.152811799699841D+03
 0.152811799699841D+03 0.000000000000000D+00 0.000000000000000D+00 -.152811799699841D+03
 0.164770543511442D+03 -.308278413644580D+01 -.938801543556073D+02 -.519744655498387D+02
 0.140853055888241D+03 0.308278413644580D+01 0.938801543556073D+02 0.519744655498387D+02
 0.000000000000000D+00 -.000000000000000D+00 0.000000000000000D+00 0.000000000000000D+00
 0.516296937568272D+03 0.000000000000000D+00 0.000000000000000D+00 0.516296937568272D+03
 0.252446663188984D+03 0.000000000000000D+00 0.000000000000000D+00 -.252446663188984D+03
 0.230031626777449D+03 0.137834940029658D+03 -.124858854534666D+03 -.519744655498387D+02
 0.169812703841794D+03 0.113969489256268D+03 0.695033343914875D+02 0.519744655498387D+02
 0.368899270138013D+03 -.251804429285926D+03 0.553555201431780D+02 0.263850274379288D+03
0.505897778532D-03 0.000000000000D+00 0.000000000000D+00 0.120045113258D-02 0.000000000000D+00  5 2 -2 25 23 21 0 0.23678791D-01 0.23341434D-01 0.20631245D+05 0.20631245D+05 0.20631245D+05 0.12323431D+01  1  2  2  2  5  2       -2 0.179177297874D+00 0.100000000000D+01
-.279743874441D-04 0.000000000000D+00 -.194278067551D-05 0.120045113258D-02 0.000000000000D+00  5 2 -2 25 23 21 2 0.23678791D-01 0.23341434D-01 0.20631245D+05 0.20631245D+05 0.20631245D+05 0.12323431D+01  1  2  3  2  5  2       -2 -.150467967614D-01 0.100000000000D+01
0.349260639801D-04 0.000000000000D+00 0.000000000000D+00 0.120045113258D-02 0.000000000000D+00  5 2 -2 25 23 21 2 0.23678791D-01 0.23341434D-01 0.20631245D+05 0.20631245D+05 0.20631245D+05 0.12323431D+01  1  2 15  2  5  2       -2 0.187859479473D-01 0.100000000000D+01
  </mgrwgt>
  </event>
  <event>
  4     66 0.45228882E-03 0.11643038E+03 0.75467711E-02 0.10814141E+00
        2 -1    0    0  501    0 0.00000000E+00 0.00000000E+00 0.68830580E+02 0.68831324E+02 0.32000000E+00 0.0000E+00 0.9000E+01
       -2 -1    0    0    0  501 0.00000000E+00 0.00000000E+00 -.28266308E+03 0.28266326E+03 0.32000000E+00 0.0000E+00 0.9000E+01
       25  1    1    2    0    0 -.79696150E+01 -.42056434E+02 -.20792815E+02 0.13375201E+03 0.12500000E+03 0.0000E+00 0.9000E+01
       23  1    1    2    0    0 0.79696150E+01 0.42056434E+02 -.19303968E+03 0.21774258E+03 0.91188000E+02 0.0000E+00 0.9000E+01
#aMCatNLO 1  0  0  2  1 0.26350499D+03 0.00000000D+00  -5  5  0 0.00000000D+00 0.00000000D+00 0.00000000D+00 0.00000000D+00 0.00000000D+00
  <mgrwgt>
 0.1385164230D+00    3    2    0
 0.139484859969112D+03 0.000000000000000D+00 0.000000000000000D+00 0.139484859969112D+03
 0.139484859969112D+03 0.000000000000000D+00 0.000000000000000D+00 -.139484859969112D+03
 0.152586189851113D+03 -.796961502016022D+01 -.420564341238562D+02 0.763235672547867D+02
 0.126383530087111D+03 0.796961502016022D+01 0.420564341238562D+02 -.763235672547867D+02
 0.000000000000000D+00 -.000000000000000D+00 -.000000000000000D+00 0.000000000000000D+00
 0.346266987936157D+03 0.000000000000000D+00 0.000000000000000D+00 0.346266987936157D+03
 0.304302054145035D+03 0.000000000000000D+00 0.000000000000000D+00 -.304302054145035D+03
 0.196024199835910D+03 0.128809048272610D+03 -.195813453551378D+02 0.763235672547867D+02
 0.187719181106004D+03 0.131209054361600D+03 0.623067953448695D+02 -.763235672547867D+02
 0.266825661139278D+03 -.260018102634210D+03 -.427254499897317D+02 0.419649337911218D+02
0.470459691971D-03 0.000000000000D+00 0.000000000000D+00 0.108721372009D-02 0.000000000000D+00  5 2 -2 25 23 21 0 0.10589391D-01 0.43486699D-01 0.13556034D+05 0.13556034D+05 0.13556034D+05 0.12528652D+01  1  2  2  2  5  2       -2 0.135301899889D+00 0.100000000000D+01
-.250994373642D-04 0.000000000000D+00 -.180668909205D-05 0.108721372009D-02 0.000000000000D+00  5 2 -2 25 23 21 2 0.10589391D-01 0.43486699D-01 0.13556034D+05 0.13556034D+05 0.13556034D+05 0.12528652D+01  1  2  3  2  5  2       -2 -.113306328428D-01 0.100000000000D+01
0.322201977720D-04 0.000000000000D+00 0.000000000000D+00 0.108721372009D-02 0.000000000000D+00  5 2 -2 25 23 21 2 0.10589391D-01 0.43486699D-01 0.13556034D+05 0.13556034D+05 0.13556034D+05 0.12528652D+01  1  2 15  2  5  2       -2 0.145451559643D-01 0.100000000000D+01
  </mgrwgt>
  </event>
  <event>
  5     66 0.45228882E-03 0.13106202E+03 0.75467711E-02 0.11190553E+00
        2 -1    0    0  501    0 0.00000000E+00 0.00000000E+00 0.88798216E+03 0.88798222E+03 0.32000000E+00 0.0000E+00 0.9000E+01
       21 -1    0    0  502  501 0.00000000E+00 0.00000000E+00 -.14017562E+03 0.14017763E+03 0.75000000E+00 0.0000E+00 0.9000E+01
       25  1    1    2    0    0 0.35546913E+02 0.17782496E+03 0.55245608E+03 0.59474197E+03 0.12500000E+03 0.0000E+00 0.9000E+01
       23  1    1    2    0    0 0.33543092E+01 -.12466331E+02 0.24059757E+03 0.25762201E+03 0.91188000E+02 0.0000E+00 0.9000E+01
        2  1    1    2  502    0 -.38901222E+02 -.16535863E+03 -.45247103E+02 0.17579586E+03 0.32000000E+00 0.0000E+00 0.9000E+01
#aMCatNLO 2  0  0  2  1 0.16987284D+03 0.00000000D+00  -5  5  0 0.00000000D+00 0.00000000D+00 0.00000000D+00 0.00000000D+00 0.00000000D+00
  <mgrwgt>
 0.8522961712D-01    1    2    0
 0.131085376500399D+03 0.000000000000000D+00 0.000000000000000D+00 0.131085376500399D+03
 0.131085376500399D+03 0.000000000000000D+00 0.000000000000000D+00 -.131085376500399D+03
 0.145026192881198D+03 0.108147396381080D+02 0.726951462821134D+02 -.246043394476254D+01
 0.117144560119600D+03 -.108147396381080D+02 -.726951462821134D+02 0.246043394476254D+01
 0.000000000000000D+00 -.000000000000000D+00 -.000000000000000D+00 -.000000000000000D+00
 0.168589992974311D+03 0.000000000000000D+00 0.000000000000000D+00 0.168589992974311D+03
 0.738326467426153D+03 0.000000000000000D+00 0.000000000000000D+00 -.738326467426153D+03
 0.220264282783524D+03 0.355469129455035D+02 0.177824963137881D+03 -.246043394476254D+01
 0.921301572199633D+02 0.335430916799564D+01 -.124663306623925D+02 0.246043394476254D+01
 0.594522020396976D+03 -.389012221134991D+02 -.165358632475488D+03 -.569736474451842D+03
0.782400047512D-04 0.000000000000D+00 0.000000000000D+00 0.151659609605D-02 0.294255131819D-06  5 2 21 25 23 2 2 0.13661277D+00 0.21565634D-01 0.58134196D+05 0.58134196D+05 0.58134196D+05 0.11858526D+01  1  2  1  4  5  2       -2 0.852296171176D-01 0.100000000000D+01
  </mgrwgt>
  </event>
  <event>
  4     66 0.45228882E-03 0.13628455E+03 0.75467711E-02 0.11661378E+00
        2 -1    0    0  501    0 0.00000000E+00 0.00000000E+00 0.13261945E+03 0.13261984E+03 0.32000000E+00 0.0000E+00 0.9000E+01
       -2 -1    0    0    0  501 0.00000000E+00 0.00000000E+00 -.16274613E+03 0.16274644E+03 0.32000000E+00 0.0000E+00 0.9000E+01
       25  1    1    2    0    0 0.28029226E+02 0.77443632E+02 0.38581505E+02 0.15458553E+03 0.12500000E+03 0.0000E+00 0.9000E+01
       23  1    1    2    0    0 -.28029226E+02 -.77443632E+02 -.68708181E+02 0.14078075E+03 0.91188000E+02 0.0000E+00 0.9000E+01
#aMCatNLO 1  0  0  1  1 0.80364860D+02 0.00000000D+00  -5  5  0 0.00000000D+00 0.00000000D+00 0.00000000D+00 0.00000000D+00 0.00000000D+00
  <mgrwgt>
 0.8002238547D-01    4    2    0
 0.146912917981688D+03 0.000000000000000D+00 0.000000000000000D+00 0.146912917981688D+03
 0.146912917981688D+03 0.000000000000000D+00 0.000000000000000D+00 -.146912917981688D+03
 0.159351832061577D+03 0.280292258799707D+02 0.774436318753556D+02 0.546338060170169D+02
 0.134474003901799D+03 -.280292258799707D+02 -.774436318753556D+02 -.546338060170169D+02
 0.000000000000000D+00 -.000000000000000D+00 -.000000000000000D+00 -.000000000000000D+00
 0.185225009981590D+03 0.000000000000000D+00 0.000000000000000D+00 0.185225009981590D+03
 0.201361972364012D+03 0.000000000000000D+00 0.000000000000000D+00 -.201361972364012D+03
 0.185804676091440D+03 0.600904325815717D+02 0.110917378303400D+03 0.546338060170169D+02
 0.118813334860065D+03 -.450164482290874D+01 -.528794821320454D+02 -.546338060170169D+02
 0.819689713940970D+02 -.555887877586630D+02 -.580378961713543D+02 -.161369623824224D+02
0.394685360689D-03 0.000000000000D+00 0.000000000000D+00 0.121406169469D-02 0.000000000000D+00  5 2 -2 25 23 21 0 0.20403046D-01 0.25037920D-01 0.18573478D+05 0.18573478D+05 0.18573478D+05 0.12373798D+01  1  2  2  1  5  1        2 0.145758584002D+00 0.100000000000D+01
-.217766217239D-04 0.000000000000D+00 -.151569570809D-05 0.121406169469D-02 0.000000000000D+00  5 2 -2 25 23 21 2 0.20403046D-01 0.25037920D-01 0.18573478D+05 0.18573478D+05 0.18573478D+05 0.12373798D+01  1  2  3  1  5  1        2 -.123134475182D-01 0.100000000000D+01
0.271305041589D-04 0.000000000000D+00 0.000000000000D+00 0.121406169469D-02 0.000000000000D+00  5 2 -2 25 23 21 2 0.20403046D-01 0.25037920D-01 0.18573478D+05 0.18573478D+05 0.18573478D+05 0.12373798D+01  1  2 15  1  5  1        2 0.153407651260D-01 0.100000000000D+01
-.121609896599D-03 0.000000000000D+00 0.000000000000D+00 0.121406169469D-02 0.000000000000D+00  5 2 -2 25 23 21 2 0.20403046D-01 0.25037920D-01 0.18573478D+05 0.18573478D+05 0.18573478D+05 0.12373798D+01  1  2  4  1  5  1        2 -.687635161437D-01 0.100000000000D+01
  </mgrwgt>
  </event>
  <event>
  4     66 0.45228882E-03 0.12734847E+03 0.75467711E-02 0.11518329E+00
        2 -1    0    0  501    0 0.00000000E+00 0.00000000E+00 0.26837589E+03 0.26837608E+03 0.32000000E+00 0.0000E+00 0.9000E+01
       -2 -1    0    0    0  501 0.00000000E+00 0.00000000E+00 -.62351318E+02 0.62352140E+02 0.32000000E+00 0.0000E+00 0.9000E+01
       25  1    1    2    0    0 0.19546776E+02 0.63807124E+02 0.85399427E+02 0.16544331E+03 0.12500000E+03 0.0000E+00 0.9000E+01
       23  1    1    2    0    0 -.19546776E+02 -.63807124E+02 0.12062514E+03 0.16528491E+03 0.91188000E+02 0.0000E+00 0.9000E+01
#aMCatNLO 1  0  0  2  1 0.11566748D+03 0.00000000D+00  -5  5  0 0.00000000D+00 0.00000000D+00 0.00000000D+00 0.00000000D+00 0.00000000D+00
  <mgrwgt>
 0.1666953194D+00    3    2    0
 0.129359025975972D+03 0.000000000000000D+00 0.000000000000000D+00 0.129359025975972D+03
 0.129359025975972D+03 0.000000000000000D+00 0.000000000000000D+00 -.129359025975972D+03
 0.143485888405652D+03 0.195467755283039D+02 0.638071239337006D+02 -.225781902134518D+02
 0.115232163546292D+03 -.195467755283039D+02 -.638071239337006D+02 0.225781902134518D+02
 0.000000000000000D+00 0.000000000000000D+00 -.000000000000000D+00 0.000000000000000D+00
 0.397319770117042D+03 0.000000000000000D+00 0.000000000000000D+00 0.397319770117042D+03
 0.154783381271809D+03 0.000000000000000D+00 0.000000000000000D+00 -.154783381271809D+03
 0.183993637240055D+03 0.867985360218918D+01 0.132829002905822D+03 -.225781902134518D+02
 0.994036042700056D+02 -.266691448636461D+02 -.185689858849351D+02 0.225781902134518D+02
 0.268705909878791D+03 0.179892912614569D+02 -.114260017020887D+03 0.242536388845233D+03
0.197526417113D-03 0.000000000000D+00 0.000000000000D+00 0.150140970595D-02 0.000000000000D+00  5 2 -2 25 23 21 0 0.41288676D-01 0.95925884D-02 0.16217632D+05 0.16217632D+05 0.16217632D+05 0.12439768D+01  1  2  2  2  5  2       -2 0.163275624483D+00 0.100000000000D+01
-.109704159116D-04 0.000000000000D+00 -.758553451613D-06 0.150140970595D-02 0.000000000000D+00  5 2 -2 25 23 21 2 0.41288676D-01 0.95925884D-02 0.16217632D+05 0.16217632D+05 0.16217632D+05 0.12439768D+01  1  2  3  2  5  2       -2 -.140327823646D-01 0.100000000000D+01
0.136438327082D-04 0.000000000000D+00 0.000000000000D+00 0.150140970595D-02 0.000000000000D+00  5 2 -2 25 23 21 2 0.41288676D-01 0.95925884D-02 0.16217632D+05 0.16217632D+05 0.16217632D+05 0.12439768D+01  1  2 15  2  5  2       -2 0.174524773313D-01 0.100000000000D+01
  </mgrwgt>
  </event>
  <event>
  5     66 0.45228882E-03 0.10932411E+03 0.75467711E-02 0.12343405E+00
        2 -1    0    0  501    0 0.00000000E+00 0.00000000E+00 0.82436606E+03 0.82436613E+03 0.32000000E+00 0.0000E+00 0.9000E+01
       -2 -1    0    0    0  502 0.00000000E+00 0.00000000E+00 -.22684542E+02 0.22686799E+02 0.32000000E+00 0.0000E+00 0.9000E+01
       25  1    1    2    0    0 0.16160616E+02 -.25462037E+02 0.53018299E+03 0.54555338E+03 0.12500000E+03 0.0000E+00 0.9000E+01
       23  1    1    2    0    0 0.91519148E+01 0.88516793E+01 0.14767855E+03 0.17402964E+03 0.91188000E+02 0.0000E+00 0.9000E+01
       21  1    1    2  501  502 -.25312531E+02 0.16610358E+02 0.12381998E+03 0.12746991E+03 0.75000000E+00 0.0000E+00 0.9000E+01
#aMCatNLO 2  0  0  2  2 0.30275868D+02 0.00000000D+00  -5  5  0 0.00000000D+00 0.00000000D+00 0.00000000D+00 0.00000000D+00 0.00000000D+00
  <mgrwgt>
 0.6096789549D-01    1    2    0
 0.119777728512948D+03 0.000000000000000D+00 0.000000000000000D+00 0.119777728512948D+03
 0.119777728512948D+03 0.000000000000000D+00 0.000000000000000D+00 -.119777728512948D+03
 0.135034631333596D+03 0.182351928840671D+01 -.160538786978911D+02 0.484592552105205D+02
 0.104520825692300D+03 -.182351928840671D+01 0.160538786978911D+02 -.484592552105205D+02
 0.000000000000000D+00 -.000000000000000D+00 0.000000000000000D+00 0.000000000000000D+00
 0.142435817156858D+03 0.000000000000000D+00 0.000000000000000D+00 0.142435817156858D+03
 0.131288192982353D+03 0.000000000000000D+00 0.000000000000000D+00 -.131288192982353D+03
 0.137414629015895D+03 0.161606156650078D+02 -.254620374939968D+02 0.484592552105205D+02
 0.104046434494048D+03 0.915191483998654D+01 0.885167928290734D+01 -.484592552105205D+02
 0.322629466292679D+02 -.253125305049944D+02 0.166103582110895D+02 0.111476241745052D+02
0.357562467752D-04 0.000000000000D+00 0.000000000000D+00 0.147164087933D-02 0.135750006042D-04  5 2 -2 25 23 21 2 0.12682163D+00 0.34899953D-02 0.15742084D+05 0.15742084D+05 0.15742084D+05 0.12454389D+01  1  2  1  2  5  2       -2 0.609678954888D-01 0.100000000000D+01
  </mgrwgt>
  </event>
  <event>
  4     66 0.45228882E-03 0.11666324E+03 0.75467711E-02 0.11835206E+00
        2 -1    0    0  501    0 0.00000000E+00 0.00000000E+00 0.13545993E+04 0.13545994E+04 0.32000000E+00 0.0000E+00 0.9000E+01
       -2 -1    0    0    0  501 0.00000000E+00 0.00000000E+00 -.23570782E+02 0.23572954E+02 0.32000000E+00 0.0000E+00 0.9000E+01
       25  1    1    2    0    0 -.79124082E+01 -.10988215E+03 0.10469706E+04 0.10601458E+04 0.12500000E+03 0.0000E+00 0.9000E+01
       23  1    1    2    0    0 0.79124082E+01 0.10988215E+03 0.28405790E+03 0.31802647E+03 0.91188000E+02 0.0000E+00 0.9000E+01
#aMCatNLO 1  0  0  2  1 0.19155509D+02 0.00000000D+00  -5  5  0 0.00000000D+00 0.00000000D+00 0.00000000D+00 0.00000000D+00 0.00000000D+00
  <mgrwgt>
 0.7612135869D-01    9    2    0
 0.178691042141721D+03 0.000000000000000D+00 0.000000000000000D+00 0.178691042141721D+03
 0.178691042141721D+03 0.000000000000000D+00 0.000000000000000D+00 -.178691042141721D+03
 0.188917839982828D+03 -.791240816017790D+01 -.109882149103213D+03 0.890407624032011D+02
 0.168464244300615D+03 0.791240816017790D+01 0.109882149103213D+03 -.890407624032011D+02
 0.000000000000000D+00 0.000000000000000D+00 0.000000000000000D+00 -.000000000000000D+00
 0.185237867872193D+03 0.000000000000000D+00 0.000000000000000D+00 0.185237867872193D+03
 0.193530781468944D+03 0.000000000000000D+00 0.000000000000000D+00 -.193530781468944D+03
 0.189894368478592D+03 -.180455900524725D+02 -.110367434011116D+03 0.890407624032011D+02
 0.168000710676153D+03 -.108798969661276D+01 0.109451113985967D+03 -.890407624032011D+02
 0.208735701863929D+02 0.191335797490853D+02 0.916320025149730D+00 -.829291359675093D+01
0.202419090285D-03 0.000000000000D+00 0.000000000000D+00 0.942091320360D-03 0.000000000000D+00  5 2 -2 25 23 21 0 0.20840007D+00 0.36264442D-02 0.23967483D+05 0.23967483D+05 0.23967483D+05 0.12252664D+01  1  2  2  2  5  2       -2 0.104173202385D+00 0.100000000000D+01
-.109642175481D-04 0.000000000000D+00 -.777342604864D-06 0.942091320360D-03 0.000000000000D+00  5 2 -2 25 23 21 2 0.20840007D+00 0.36264442D-02 0.23967483D+05 0.23967483D+05 0.23967483D+05 0.12252664D+01  1  2  3  2  5  2       -2 -.847116692543D-02 0.100000000000D+01
0.139201884241D-04 0.000000000000D+00 0.000000000000D+00 0.942091320360D-03 0.000000000000D+00  5 2 -2 25 23 21 2 0.20840007D+00 0.36264442D-02 0.23967483D+05 0.23967483D+05 0.23967483D+05 0.12252664D+01  1  2 15  2  5  2       -2 0.107550073005D-01 0.100000000000D+01
0.388626460316D-03 0.000000000000D+00 0.000000000000D+00 0.942091320360D-03 0.000000000000D+00  5 2 -2 25 23 21 2 0.20840007D+00 0.39899325D-02 0.27116915D+05 0.27116915D+05 0.27116915D+05 0.12195310D+01  1  2 12  2  5  2       -2 0.258410349217D+00 0.100000000000D+01
-.371793828055D-03 0.000000000000D+00 0.000000000000D+00 0.942091320360D-03 0.000000000000D+00  5 2 -2 25 23 21 2 0.20840007D+00 0.36264442D-02 0.23967483D+05 0.23967483D+05 0.23967483D+05 0.12252664D+01  1  2  4  2  5  2       -2 -.287255115605D+00 0.100000000000D+01
-.102299643579D-02 0.000000000000D+00 -.208852994104D-03 0.942091320360D-03 0.000000000000D+00  5 2 -2 25 23 21 2 0.20840007D+00 0.40800125D-02 0.23967483D+05 0.23967483D+05 0.23967483D+05 0.12252664D+01  1  2  5  2  5  2       -2 -.663221934882D+00 0.100000000000D+01
0.104180845508D-02 0.000000000000D+00 0.207411061879D-03 0.942091320360D-03 0.000000000000D+00  5 2 -2 25 23 21 2 0.20840007D+00 0.36264442D-02 0.23967483D+05 0.23967483D+05 0.23967483D+05 0.12252664D+01  1  2  6  2  5  2       -2 0.804921398961D+00 0.100000000000D+01
0.606648370333D-05 0.000000000000D+00 0.000000000000D+00 0.942091320360D-03 0.000000000000D+00  5 2 21 25 23 2 2 0.20840007D+00 0.39899325D-02 0.27116915D+05 0.27116915D+05 0.27116915D+05 0.12195310D+01  1  2 12  4  5  2       -2 0.747085718225D-01 0.100000000000D+01
-.181822220116D-04 0.000000000000D+00 -.390278869696D-05 0.942091320360D-03 0.000000000000D+00  5 2 21 25 23 2 2 0.20840007D+00 0.40800125D-02 0.23967483D+05 0.23967483D+05 0.23967483D+05 0.12252664D+01  1  2  5  4  5  2       -2 -.217898953586D+00 0.100000000000D+01
  </mgrwgt>
  </event>
  <event>
  4     66 0.45228882E-03 0.10816410E+03 0.75467711E-02 0.12219820E+00
        2 -1    0    0  501    0 0.00000000E+00 0.00000000E+00 0.17218404E+04 0.17218405E+04 0.32000000E+00 0.0000E+00 0.9000E+01
       -2 -1    0    0    0  501 0.00000000E+00 0.00000000E+00 -.68486976E+01 0.68561694E+01 0.32000000E+00 0.0000E+00 0.9000E+01
       25  1    1    2    0    0 -.19305355E+01 -.33260466E+01 0.91194772E+03 0.92048272E+03 0.12500000E+03 0.0000E+00 0.9000E+01
       23  1    1    2    0    0 0.19305355E+01 0.33260466E+01 0.80304401E+03 0.80821391E+03 0.91188000E+02 0.0000E+00 0.9000E+01
#aMCatNLO 1  0  0  2  1 0.46292823D+02 0.00000000D+00  -5  5  0 0.00000000D+00 0.00000000D+00 0.00000000D+00 0.00000000D+00 0.00000000D+00
  <mgrwgt>
 0.9372720142D-01    4    2    0
 0.108622504065951D+03 0.000000000000000D+00 0.000000000000000D+00 0.108622504065951D+03
 0.108622504065951D+03 0.000000000000000D+00 0.000000000000000D+00 -.108622504065951D+03
 0.125446247724912D+03 -.193053546974054D+01 -.332604659063546D+01 -.984741159579568D+01
 0.917987604069903D+02 0.193053546974054D+01 0.332604659063546D+01 0.984741159579568D+01
 0.000000000000000D+00 0.000000000000000D+00 -.000000000000000D+00 0.000000000000000D+00
 0.146054404334733D+03 0.000000000000000D+00 0.000000000000000D+00 0.146054404334733D+03
 0.126371592342487D+03 0.000000000000000D+00 0.000000000000000D+00 -.126371592342487D+03
 0.128427321392029D+03 -.272902064766193D+02 0.518169810563469D+01 -.984741159579568D+01
 0.936952102532869D+02 -.165986327539017D+02 0.954227205500483D+01 0.984741159579568D+01
 0.503034650319041D+02 0.438888392305210D+02 -.147239701606395D+02 0.196828119922454D+02
0.630528891131D-04 0.000000000000D+00 0.000000000000D+00 0.189980904988D-02 0.000000000000D+00  5 2 -2 25 23 21 0 0.26489910D+00 0.10542228D-02 0.11699473D+05 0.11699473D+05 0.11699473D+05 0.12603171D+01  1  2  2  2  5  2       -2 0.123720186821D+00 0.100000000000D+01
-.350286211029D-05 0.000000000000D+00 -.242139696401D-06 0.189980904988D-02 0.000000000000D+00  5 2 -2 25 23 21 2 0.26489910D+00 0.10542228D-02 0.11699473D+05 0.11699473D+05 0.11699473D+05 0.12603171D+01  1  2  3  2  5  2       -2 -.109173761699D-01 0.100000000000D+01
0.431565936109D-05 0.000000000000D+00 0.000000000000D+00 0.189980904988D-02 0.000000000000D+00  5 2 -2 25 23 21 2 0.26489910D+00 0.10542228D-02 0.11699473D+05 0.11699473D+05 0.11699473D+05 0.12603171D+01  1  2 15  2  5  2       -2 0.134506227145D-01 0.100000000000D+01
-.104361069636D-04 0.000000000000D+00 0.000000000000D+00 0.189980904988D-02 0.000000000000D+00  5 2 -2 25 23 21 2 0.26489910D+00 0.10542228D-02 0.11699473D+05 0.11699473D+05 0.11699473D+05 0.12603171D+01  1  2  4  2  5  2       -2 -.325262319452D-01 0.100000000000D+01
  </mgrwgt>
  </event>
  <event>
  4     66 0.45228882E-03 0.45409254E+02 0.75467711E-02 0.11840877E+00
        2 -1    0    0  501    0 0.00000000E+00 0.00000000E+00 0.17379970E+04 0.17379970E+04 0.32000000E+00 0.0000E+00 0.9000E+01
       -2 -1    0    0    0  501 0.00000000E+00 0.00000000E+00 -.14525284E+02 0.14528808E+02 0.32000000E+00 0.0000E+00 0.9000E+01
       25  1    1    2    0    0 -.12124742E+02 -.10609736E+03 0.67708319E+03 0.69675699E+03 0.12500000E+03 0.0000E+00 0.9000E+01
       23  1    1    2    0    0 0.12124742E+02 0.10609736E+03 0.10463885E+04 0.10557689E+04 0.91188000E+02 0.0000E+00 0.9000E+01
#aMCatNLO 1  0  0  1  2 0.22621240D+02 0.00000000D+00  -5  5  0 0.00000000D+00 0.00000000D+00 0.00000000D+00 0.00000000D+00 0.00000000D+00
  <mgrwgt>
 0.3908080401D+00    9    2    0
 0.158896237084544D+03 0.000000000000000D+00 0.000000000000000D+00 0.158896237084544D+03
 0.158896237084544D+03 0.000000000000000D+00 0.000000000000000D+00 -.158896237084544D+03
 0.170397057982069D+03 -.121247415551008D+02 -.106097357960170D+03 -.447939576844706D+02
 0.147395416187019D+03 0.121247415551008D+02 0.106097357960170D+03 0.447939576844706D+02
 0.000000000000000D+00 -.000000000000000D+00 -.000000000000000D+00 0.000000000000000D+00
 0.170728823413045D+03 0.000000000000000D+00 0.000000000000000D+00 0.170728823413045D+03
 0.170490249089035D+03 0.000000000000000D+00 0.000000000000000D+00 -.170490249089035D+03
 0.169555493235028D+03 -.586061957182871D-01 -.105439855872670D+03 -.447939576844706D+02
 0.149041081050334D+03 0.226463360785758D+02 0.106670695665821D+03 0.447939576844706D+02
 0.226224982167181D+02 -.225877298828575D+02 -.123083979315169D+01 0.238574324010100D+00
0.205049909898D-03 0.000000000000D+00 0.000000000000D+00 0.120508870199D-02 0.000000000000D+00  5 2 -2 25 23 21 0 0.26738443D+00 0.22349324D-02 0.23230025D+05 0.23230025D+05 0.23230025D+05 0.12267315D+01  1  2  2  1  5  1        2 0.135635007258D+00 0.100000000000D+01
-.113676336364D-04 0.000000000000D+00 -.787445644889D-06 0.120508870199D-02 0.000000000000D+00  5 2 -2 25 23 21 2 0.26738443D+00 0.22349324D-02 0.23230025D+05 0.23230025D+05 0.23230025D+05 0.12267315D+01  1  2  3  1  5  1        2 -.113156975571D-01 0.100000000000D+01
0.141211023524D-04 0.000000000000D+00 0.000000000000D+00 0.120508870199D-02 0.000000000000D+00  5 2 -2 25 23 21 2 0.26738443D+00 0.22349324D-02 0.23230025D+05 0.23230025D+05 0.23230025D+05 0.12267315D+01  1  2 15  1  5  1        2 0.140565863138D-01 0.100000000000D+01
0.304192377839D-03 0.000000000000D+00 0.000000000000D+00 0.120508870199D-02 0.000000000000D+00  5 2 -2 25 23 21 2 0.29635465D+00 0.22349324D-02 0.26945751D+05 0.26945751D+05 0.26945751D+05 0.12198232D+01  1  2 12  1  5  1        2 0.239902315277D+00 0.100000000000D+01
-.240248195267D-03 0.000000000000D+00 0.000000000000D+00 0.120508870199D-02 0.000000000000D+00  5 2 -2 25 23 21 2 0.26738443D+00 0.22349324D-02 0.23230025D+05 0.23230025D+05 0.23230025D+05 0.12267315D+01  1  2  4  1  5  1        2 -.239150557033D+00 0.100000000000D+01
-.110250521999D-02 0.000000000000D+00 -.238179573148D-03 0.120508870199D-02 0.000000000000D+00  5 2 -2 25 23 21 2 0.29867386D+00 0.22349324D-02 0.23230025D+05 0.23230025D+05 0.23230025D+05 0.12267315D+01  1  2  5  1  5  1        2 -.862942497199D+00 0.100000000000D+01
0.112342819623D-02 0.000000000000D+00 0.236728522489D-03 0.120508870199D-02 0.000000000000D+00  5 2 -2 25 23 21 2 0.26738443D+00 0.22349324D-02 0.23230025D+05 0.23230025D+05 0.23230025D+05 0.12267315D+01  1  2  6  1  5  1        2 0.111829551359D+01 0.100000000000D+01
0.506277532540D-05 0.000000000000D+00 0.000000000000D+00 0.120508870199D-02 0.000000000000D+00  5 21 -2 25 23 -2 2 0.29635465D+00 0.22349324D-02 0.26945751D+05 0.26945751D+05 0.26945751D+05 0.12198232D+01  1  2 12  3  5  1        2 0.139225221564D-02 0.100000000000D+01
-.185846633287D-04 0.000000000000D+00 -.421985936946D-05 0.120508870199D-02 0.000000000000D+00  5 21 -2 25 23 -2 2 0.29867386D+00 0.22349324D-02 0.23230025D+05 0.23230025D+05 0.23230025D+05 0.12267315D+01  1  2  5  3  5  1        2 -.506488275693D-02 0.100000000000D+01
  </mgrwgt>
  </event>
  <event>
  5     66 0.45228882E-03 0.11275344E+03 0.75467711E-02 0.12065441E+00
        2 -1    0    0  501    0 0.00000000E+00 0.00000000E+00 0.61642115E+03 0.61642123E+03 0.32000000E+00 0.0000E+00 0.9000E+01
       21 -1    0    0  502  501 0.00000000E+00 0.00000000E+00 -.40605363E+02 0.40612289E+02 0.75000000E+00 0.0000E+00 0.9000E+01
       25  1    1    2    0    0 0.14548477E+02 0.45029945E+02 0.37044118E+03 0.39381597E+03 0.12500000E+03 0.0000E+00 0.9000E+01
       23  1    1    2    0    0 0.35246919E+02 -.16094158E+02 0.16644261E+03 0.19370018E+03 0.91188000E+02 0.0000E+00 0.9000E+01
        2  1    1    2  502    0 -.49795396E+02 -.28935787E+02 0.38932000E+02 0.69517366E+02 0.32000000E+00 0.0000E+00 0.9000E+01
#aMCatNLO 2  0  0  2  1 0.57592197D+02 0.00000000D+00  -5  5  0 0.00000000D+00 0.00000000D+00 0.00000000D+00 0.00000000D+00 0.00000000D+00
  <mgrwgt>
 0.4687782556D-01    2    2    0
 0.115773670286044D+03 0.000000000000000D+00 0.000000000000000D+00 0.115773670286044D+03
 0.115773670286044D+03 0.000000000000000D+00 0.000000000000000D+00 -.115773670286044D+03
 0.131558236496003D+03 -.138071945054516D+02 0.285526451534683D+02 0.260130241334417D+02
 0.999891040760856D+02 0.138071945054516D+02 -.285526451534683D+02 -.260130241334417D+02
 0.000000000000000D+00 -.000000000000000D+00 -.000000000000000D+00 -.000000000000000D+00
 0.130807533985434D+03 0.000000000000000D+00 0.000000000000000D+00 0.130807533985434D+03
 0.191366628697908D+03 0.000000000000000D+00 0.000000000000000D+00 -.191366628697908D+03
 0.136165456541586D+03 0.145484769233288D+02 0.450299450346413D+02 0.260130241334417D+02
 0.102436790134284D+03 0.352469187217929D+02 -.160941581037228D+02 -.260130241334417D+02
 0.835719160074729D+02 -.497953956451217D+02 -.289357869309184D+02 -.605590947124739D+02
-.205659257941D-05 0.000000000000D+00 0.000000000000D+00 0.168458168622D-02 0.000000000000D+00  5 2 21 25 23 2 2 0.83934929D-01 0.63587888D-02 0.21072681D+05 0.21072681D+05 0.21072681D+05 0.12313359D+01  1  2 13  4  5  2       -2 -.391240798143D-01 0.100000000000D+01
0.503696208550D-05 0.000000000000D+00 0.000000000000D+00 0.168458168622D-02 0.330603565104D-06  5 2 21 25 23 2 2 0.94834353D-01 0.62475043D-02 0.21072681D+05 0.21072681D+05 0.21072681D+05 0.12313359D+01  1  2  1  4  5  2       -2 0.860019053704D-01 0.100000000000D+01
  </mgrwgt>
  </event>
  <event>
  4     66 0.45228882E-03 0.16959463E+03 0.75467711E-02 0.11742243E+00
        2 -1    0    0  501    0 0.00000000E+00 0.00000000E+00 0.18690442E+04 0.18690442E+04 0.32000000E+00 0.0000E+00 0.9000E+01
       -2 -1    0    0    0  501 0.00000000E+00 0.00000000E+00 -.15684773E+02 0.15688037E+02 0.32000000E+00 0.0000E+00 0.9000E+01
       25  1    1    2    0    0 0.10038003E+03 -.82656936E+02 0.11139905E+04 0.11284982E+04 0.12500000E+03 0.0000E+00 0.9000E+01
       23  1    1    2    0    0 -.10038003E+03 0.82656936E+02 0.73936886E+03 0.75623401E+03 0.91188000E+02 0.0000E+00 0.9000E+01
#aMCatNLO 1  0  0  2  1 0.77600710D+01 0.00000000D+00  -5  5  0 0.00000000D+00 0.00000000D+00 0.00000000D+00 0.00000000D+00 0.00000000D+00
  <mgrwgt>
 0.1431043855D+00    6    2    0
 0.171226852857780D+03 0.000000000000000D+00 0.000000000000000D+00 0.171226852857780D+03
 0.171226852857780D+03 0.000000000000000D+00 0.000000000000000D+00 -.171226852857780D+03
 0.181899461350548D+03 0.100380030208489D+03 -.826569359110848D+02 0.235392124072411D+02
 0.160554244365011D+03 -.100380030208489D+03 0.826569359110848D+02 -.235392124072411D+02
 0.000000000000000D+00 0.000000000000000D+00 -.000000000000000D+00 0.000000000000000D+00
 0.188851976702357D+03 0.000000000000000D+00 0.000000000000000D+00 0.188851976702357D+03
 0.172127103935388D+03 0.000000000000000D+00 0.000000000000000D+00 -.172127103935388D+03
 0.179546662597224D+03 0.993166059749424D+02 -.787027401471261D+02 0.235392124072411D+02
 0.162994954233329D+03 -.101331956472841D+03 0.861965419153109D+02 -.235392124072411D+02
 0.184374638071930D+02 0.201535049789868D+01 -.749380176818483D+01 0.167248727669696D+02
0.327387460402D-03 0.000000000000D+00 0.000000000000D+00 0.121118380634D-02 0.000000000000D+00  5 2 -2 25 23 21 0 0.28754551D+00 0.24132952D-02 0.28762338D+05 0.28762338D+05 0.28762338D+05 0.12168234D+01  1  2  2  2  5  2       -2 0.166028801810D+00 0.100000000000D+01
-.181861634215D-04 0.000000000000D+00 -.125725405104D-05 0.121118380634D-02 0.000000000000D+00  5 2 -2 25 23 21 2 0.28754551D+00 0.24132952D-02 0.28762338D+05 0.28762338D+05 0.28762338D+05 0.12168234D+01  1  2  3  2  5  2       -2 -.136558148413D-01 0.100000000000D+01
0.225490915548D-04 0.000000000000D+00 0.000000000000D+00 0.121118380634D-02 0.000000000000D+00  5 2 -2 25 23 21 2 0.28754551D+00 0.24132952D-02 0.28762338D+05 0.28762338D+05 0.28762338D+05 0.12168234D+01  1  2 15  2  5  2       -2 0.169318955282D-01 0.100000000000D+01
-.355722327076D-04 0.000000000000D+00 0.000000000000D+00 0.121118380634D-02 0.000000000000D+00  5 2 -2 25 23 21 2 0.28754551D+00 0.24132952D-02 0.28762338D+05 0.28762338D+05 0.28762338D+05 0.12168234D+01  1  2  4  2  5  2       -2 -.267108467072D-01 0.100000000000D+01
0.320933728603D-06 0.000000000000D+00 0.000000000000D+00 0.121118380634D-02 0.158971676131D-03  5 2 -2 25 23 21 2 0.31714382D+00 0.24259834D-02 0.30109759D+05 0.30109759D+05 0.30109759D+05 0.12147320D+01  1  2 11  2  5  2       -2 0.189600826500D-03 0.100000000000D+01
0.269487515824D-07 0.000000000000D+00 0.000000000000D+00 0.121118380634D-02 0.162885862167D-06  5 2 21 25 23 2 2 0.31714382D+00 0.24259834D-02 0.30109759D+05 0.30109759D+05 0.30109759D+05 0.12147320D+01  1  2 11  4  5  2       -2 0.320748925384D-03 0.100000000000D+01
  </mgrwgt>
  </event>
  <event>
  5     66 0.45228882E-03 0.19451664E+03 0.75467711E-02 0.11346940E+00
       21 -1    0    0  501  502 0.00000000E+00 0.00000000E+00 0.40414112E+03 0.40414182E+03 0.75000000E+00 0.0000E+00 0.9000E+01
       -2 -1    0    0    0  501 0.00000000E+00 0.00000000E+00 -.16150930E+03 0.16150962E+03 0.32000000E+00 0.0000E+00 0.9000E+01
       25  1    1    2    0    0 0.47274585E+00 0.16147765E+03 -.94808502E+01 0.20442637E+03 0.12500000E+03 0.0000E+00 0.9000E+01
       23  1    1    2    0    0 0.45422589E+02 -.15747594E+03 0.12338518E+03 0.22450176E+03 0.91188000E+02 0.0000E+00 0.9000E+01
       -2  1    1    2    0  502 -.45895335E+02 -.40017089E+01 0.12872749E+03 0.13672331E+03 0.32000000E+00 0.0000E+00 0.9000E+01
#aMCatNLO 2  0  0  1  2 0.46069463D+02 0.00000000D+00  -5  5  0 0.00000000D+00 0.00000000D+00 0.00000000D+00 0.00000000D+00 0.00000000D+00
  <mgrwgt>
 0.5621565151D-02    2    2    0
 0.205476729814966D+03 0.000000000000000D+00 0.000000000000000D+00 0.205476729814966D+03
 0.205476729814966D+03 0.000000000000000D+00 0.000000000000000D+00 -.205476729814966D+03
 0.214370375171526D+03 -.234090371487935D+02 0.159395347665046D+03 -.661422548276535D+02
 0.196583084458406D+03 0.234090371487935D+02 -.159395347665046D+03 0.661422548276535D+02
 0.000000000000000D+00 -.000000000000000D+00 -.000000000000000D+00 0.000000000000000D+00
 0.307873195536269D+03 0.000000000000000D+00 0.000000000000000D+00 0.307873195536269D+03
 0.212011611604759D+03 0.000000000000000D+00 0.000000000000000D+00 -.212011611604759D+03
 0.214651002066593D+03 0.472745850169968D+00 0.161477649617113D+03 -.661422548276535D+02
 0.198876677044231D+03 0.454225887107848D+02 -.157475940668028D+03 0.661422548276535D+02
 0.106357128030204D+03 -.458953345609547D+02 -.400170894908582D+01 0.958615839315101D+02
-.151365613671D-03 0.000000000000D+00 0.000000000000D+00 0.101980791466D-02 0.000000000000D+00  5 21 -2 25 23 -2 2 0.62572540D-01 0.24081751D-01 0.47924117D+05 0.47924117D+05 0.47924117D+05 0.11941099D+01  1  2 13  3  5  1        2 -.615616424275D-01 0.100000000000D+01
0.172144237164D-03 0.000000000000D+00 0.000000000000D+00 0.101980791466D-02 0.201712820656D-06  5 21 -2 25 23 -2 2 0.62175566D-01 0.24847635D-01 0.47924117D+05 0.47924117D+05 0.47924117D+05 0.11941099D+01  1  2  1  3  5  1        2 0.671832075784D-01 0.100000000000D+01
  </mgrwgt>
  </event>
  <event>
  4     66 0.45228882E-03 0.12394717E+03 0.75467711E-02 0.11220036E+00
        2 -1    0    0  501    0 0.00000000E+00 0.00000000E+00 0.10398386E+04 0.10398386E+04 0.32000000E+00 0.0000E+00 0.9000E+01
       -2 -1    0    0    0  501 0.00000000E+00 0.00000000E+00 -.46084050E+02 0.46085161E+02 0.32000000E+00 0.0000E+00 0.9000E+01
       25  1    1    2    0    0 0.17932228E+03 0.53044873E+01 0.66943639E+03 0.70424051E+03 0.12500000E+03 0.0000E+00 0.9000E+01
       23  1    1    2    0    0 -.17932228E+03 -.53044873E+01 0.32431812E+03 0.38168326E+03 0.91188000E+02 0.0000E+00 0.9000E+01
#aMCatNLO 1  0  0  2  1 0.50475726D+02 0.00000000D+00  -5  5  0 0.00000000D+00 0.00000000D+00 0.00000000D+00 0.00000000D+00 0.00000000D+00
  <mgrwgt>
 0.2126493487D+00    9    2    0
 0.218907747952866D+03 0.000000000000000D+00 0.000000000000000D+00 0.218907747952866D+03
 0.218907747952866D+03 0.000000000000000D+00 0.000000000000000D+00 -.218907747952866D+03
 0.227255726409953D+03 0.179322276117548D+03 0.530448731864935D+01 0.619318083735951D+02
 0.210559769495779D+03 -.179322276117548D+03 -.530448731864935D+01 -.619318083735951D+02
 0.000000000000000D+00 0.000000000000000D+00 -.000000000000000D+00 -.000000000000000D+00
 0.241784303443179D+03 0.000000000000000D+00 0.000000000000000D+00 0.241784303443179D+03
 0.250084945058057D+03 0.000000000000000D+00 0.000000000000000D+00 -.250084945058057D+03
 0.216609278729188D+03 0.163735588468971D+03 0.254889743197929D+02 0.619318083735951D+02
 0.224106284142644D+03 -.194585934957645D+03 0.144616830437851D+02 -.619318083735951D+02
 0.511536856294039D+02 0.308503464886737D+02 -.399506573635780D+02 -.830064161487831D+01
0.568086160316D-03 0.000000000000D+00 0.000000000000D+00 0.101737651963D-02 0.000000000000D+00  5 2 -2 25 23 21 0 0.15997525D+00 0.70899431D-02 0.44078980D+05 0.44078980D+05 0.44078980D+05 0.11977412D+01  1  2  2  2  5  2       -2 0.160308994454D+00 0.100000000000D+01
-.314933559250D-04 0.000000000000D+00 -.218160043613D-05 0.101737651963D-02 0.000000000000D+00  5 2 -2 25 23 21 2 0.15997525D+00 0.70899431D-02 0.44078980D+05 0.44078980D+05 0.44078980D+05 0.11977412D+01  1  2  3  2  5  2       -2 -.127493657842D-01 0.100000000000D+01
0.389955374383D-04 0.000000000000D+00 0.000000000000D+00 0.101737651963D-02 0.000000000000D+00  5 2 -2 25 23 21 2 0.15997525D+00 0.70899431D-02 0.44078980D+05 0.44078980D+05 0.44078980D+05 0.11977412D+01  1  2 15  2  5  2       -2 0.157864526073D-01 0.100000000000D+01
0.422067773188D-03 0.000000000000D+00 0.000000000000D+00 0.101737651963D-02 0.000000000000D+00  5 2 -2 25 23 21 2 0.15997525D+00 0.84249893D-02 0.56031996D+05 0.56031996D+05 0.56031996D+05 0.11874137D+01  1  2 12  2  5  2       -2 0.128506796734D+00 0.100000000000D+01
-.381626606747D-03 0.000000000000D+00 0.000000000000D+00 0.101737651963D-02 0.000000000000D+00  5 2 -2 25 23 21 2 0.15997525D+00 0.70899431D-02 0.44078980D+05 0.44078980D+05 0.44078980D+05 0.11977412D+01  1  2  4  2  5  2       -2 -.154492814739D+00 0.100000000000D+01
-.102604467398D-02 0.000000000000D+00 -.315548566921D-03 0.101737651963D-02 0.000000000000D+00  5 2 -2 25 23 21 2 0.15997525D+00 0.89753946D-02 0.44078980D+05 0.44078980D+05 0.44078980D+05 0.11977412D+01  1  2  5  2  5  2       -2 -.287506246291D+00 0.100000000000D+01
0.107889270260D-02 0.000000000000D+00 0.306974117824D-03 0.101737651963D-02 0.000000000000D+00  5 2 -2 25 23 21 2 0.15997525D+00 0.70899431D-02 0.44078980D+05 0.44078980D+05 0.44078980D+05 0.11977412D+01  1  2  6  2  5  2       -2 0.436765066899D+00 0.100000000000D+01
0.107667470089D-04 0.000000000000D+00 0.000000000000D+00 0.101737651963D-02 0.000000000000D+00  5 2 21 25 23 2 2 0.15997525D+00 0.84249893D-02 0.56031996D+05 0.56031996D+05 0.56031996D+05 0.11874137D+01  1  2 12  4  5  2       -2 0.522177737122D-01 0.100000000000D+01
-.284509241437D-04 0.000000000000D+00 -.102265740947D-04 0.101737651963D-02 0.000000000000D+00  5 2 21 25 23 2 2 0.15997525D+00 0.89753946D-02 0.44078980D+05 0.44078980D+05 0.44078980D+05 0.11977412D+01  1  2  5  4  5  2       -2 -.126187308927D+00 0.100000000000D+01
  </mgrwgt>
  </event>
  <event>
  4     66 0.45228882E-03 0.12052097E+03 0.75467711E-02 0.10964492E+00
        2 -1    0    0  501    0 0.00000000E+00 0.00000000E+00 0.14027417E+03 0.14027454E+03 0.32000000E+00 0.0000E+00 0.9000E+01
       -2 -1    0    0    0  501 0.00000000E+00 0.00000000E+00 -.10450657E+03 0.10450706E+03 0.32000000E+00 0.0000E+00 0.9000E+01
       25  1    1    2    0    0 0.32740408E+02 -.41390271E+02 0.84876478E+01 0.13594899E+03 0.12500000E+03 0.0000E+00 0.9000E+01
       23  1    1    2    0    0 -.32740408E+02 0.41390271E+02 0.27279953E+02 0.10883261E+03 0.91188000E+02 0.0000E+00 0.9000E+01
#aMCatNLO 1  0  0  2  1 0.22648292D+03 0.00000000D+00  -5  5  0 0.00000000D+00 0.00000000D+00 0.00000000D+00 0.00000000D+00 0.00000000D+00
  <mgrwgt>
 0.1539559242D+00    5    2    0
 0.121077155441223D+03 0.000000000000000D+00 0.000000000000000D+00 0.121077155441223D+03
 0.121077155441223D+03 0.000000000000000D+00 0.000000000000000D+00 -.121077155441223D+03
 0.136170317791631D+03 0.327404081544567D+02 -.413902709041452D+02 -.115007215354025D+02
 0.105983993090814D+03 -.327404081544567D+02 0.413902709041452D+02 0.115007215354025D+02
 0.000000000000000D+00 0.000000000000000D+00 -.000000000000000D+00 -.000000000000000D+00
 0.256229923499602D+03 0.000000000000000D+00 0.000000000000000D+00 0.256229923499602D+03
 0.307558299814356D+03 0.000000000000000D+00 0.000000000000000D+00 -.307558299814356D+03
 0.139388640550018D+03 -.573436939296499D+02 0.195864056184368D+02 -.115007215354025D+02
 0.192173152824973D+03 -.130212175835051D+03 0.107367555579689D+03 0.115007215354025D+02
 0.232226429938966D+03 0.187555869764701D+03 -.126953961198126D+03 -.513283763147541D+02
0.185971756160D-03 0.000000000000D+00 0.000000000000D+00 0.164351780239D-02 0.000000000000D+00  5 2 -2 25 23 21 0 0.21580708D-01 0.16078000D-01 0.14525304D+05 0.14525304D+05 0.14525304D+05 0.12494178D+01  1  2  2  2  5  2       -2 0.135317975277D+00 0.100000000000D+01
-.103314979295D-04 0.000000000000D+00 -.714180511144D-06 0.164351780239D-02 0.000000000000D+00  5 2 -2 25 23 21 2 0.21580708D-01 0.16078000D-01 0.14525304D+05 0.14525304D+05 0.14525304D+05 0.12494178D+01  1  2  3  2  5  2       -2 -.117351106164D-01 0.100000000000D+01
0.128850206776D-04 0.000000000000D+00 0.000000000000D+00 0.164351780239D-02 0.000000000000D+00  5 2 -2 25 23 21 2 0.21580708D-01 0.16078000D-01 0.14525304D+05 0.14525304D+05 0.14525304D+05 0.12494178D+01  1  2 15  2  5  2       -2 0.146355488796D-01 0.100000000000D+01
0.913891123966D-04 0.000000000000D+00 -.682585473346D-04 0.164351780239D-02 0.000000000000D+00  5 2 -2 25 23 21 2 0.21580708D-01 0.80865269D-01 0.14525304D+05 0.14525304D+05 0.14525304D+05 0.12494178D+01  1  2  5  2  5  2       -2 0.503526705157D-02 0.100000000000D+01
0.159825540241D-04 0.000000000000D+00 -.134427783179D-04 0.164351780239D-02 0.000000000000D+00  5 2 21 25 23 2 2 0.21580708D-01 0.80865269D-01 0.14525304D+05 0.14525304D+05 0.14525304D+05 0.12494178D+01  1  2  5  4  5  2       -2 0.107022436465D-01 0.100000000000D+01
  </mgrwgt>
  </event>
  <event>
  4     66 0.45228882E-03 0.10091205E+03 0.75467711E-02 0.11051797E+00
        2 -1    0    0  501    0 0.00000000E+00 0.00000000E+00 0.61200486E+03 0.61200494E+03 0.32000000E+00 0.0000E+00 0.9000E+01
       -2 -1    0    0    0  501 0.00000000E+00 0.00000000E+00 -.11033278E+03 0.11033324E+03 0.32000000E+00 0.0000E+00 0.9000E+01
       25  1    1    2    0    0 0.51790881E+02 0.21825147E+03 0.35869274E+03 0.44113658E+03 0.12500000E+03 0.0000E+00 0.9000E+01
       23  1    1    2    0    0 -.51790881E+02 -.21825147E+03 0.14297933E+03 0.28120160E+03 0.91188000E+02 0.0000E+00 0.9000E+01
#aMCatNLO 1  0  0  2  1 0.26924776D+02 0.00000000D+00  -5  5  0 0.00000000D+00 0.00000000D+00 0.00000000D+00 0.00000000D+00 0.00000000D+00
  <mgrwgt>
 0.2718374372D+00    9    2    0
 0.259854563743886D+03 0.000000000000000D+00 0.000000000000000D+00 0.259854563743886D+03
 0.259854563743886D+03 0.000000000000000D+00 0.000000000000000D+00 -.259854563743886D+03
 0.266887102013258D+03 0.517908814742945D+02 0.218251469701667D+03 0.727167504101589D+02
 0.252822025474513D+03 -.517908814742945D+02 -.218251469701667D+03 -.727167504101589D+02
 0.000000000000000D+00 0.000000000000000D+00 0.000000000000000D+00 -.000000000000000D+00
 0.272415072047819D+03 0.000000000000000D+00 0.000000000000000D+00 0.272415072047819D+03
 0.275043838848885D+03 0.000000000000000D+00 0.000000000000000D+00 -.275043838848885D+03
 0.255650043963553D+03 0.495555602710657D+02 0.204910872416702D+03 0.727167504101589D+02
 0.264756067397490D+03 -.540049887281640D+02 -.231465460235522D+03 -.727167504101589D+02
 0.270527995356607D+02 0.444942845709831D+01 0.265545878188198D+02 -.262876680106681D+01
0.141550169050D-02 0.000000000000D+00 0.000000000000D+00 0.964620451134D-03 0.000000000000D+00  5 2 -2 25 23 21 0 0.94154635D-01 0.16974316D-01 0.62232463D+05 0.62232463D+05 0.62232463D+05 0.11829818D+01  1  2  2  2  5  2       -2 0.194019872561D+00 0.100000000000D+01
-.784797732721D-04 0.000000000000D+00 -.543589920167D-05 0.964620451134D-03 0.000000000000D+00  5 2 -2 25 23 21 2 0.94154635D-01 0.16974316D-01 0.62232463D+05 0.62232463D+05 0.62232463D+05 0.11829818D+01  1  2  3  2  5  2       -2 -.150539241840D-01 0.100000000000D+01
0.967793878760D-04 0.000000000000D+00 0.000000000000D+00 0.964620451134D-03 0.000000000000D+00  5 2 -2 25 23 21 2 0.94154635D-01 0.16974316D-01 0.62232463D+05 0.62232463D+05 0.62232463D+05 0.11829818D+01  1  2 15  2  5  2       -2 0.185641408851D-01 0.100000000000D+01
0.225558071668D-02 0.000000000000D+00 0.000000000000D+00 0.964620451134D-03 0.000000000000D+00  5 2 -2 25 23 21 2 0.94154635D-01 0.18355134D-01 0.69324061D+05 0.69324061D+05 0.69324061D+05 0.11784778D+01  1  2 12  2  5  2       -2 0.376408302133D+00 0.100000000000D+01
-.186630597079D-02 0.000000000000D+00 0.000000000000D+00 0.964620451134D-03 0.000000000000D+00  5 2 -2 25 23 21 2 0.94154635D-01 0.16974316D-01 0.62232463D+05 0.62232463D+05 0.62232463D+05 0.11829818D+01  1  2  4  2  5  2       -2 -.357993243571D+00 0.100000000000D+01
-.795730267866D-02 0.000000000000D+00 -.163467029732D-02 0.964620451134D-03 0.000000000000D+00  5 2 -2 25 23 21 2 0.94154635D-01 0.18815034D-01 0.62232463D+05 0.62232463D+05 0.62232463D+05 0.11829818D+01  1  2  5  2  5  2       -2 -.128262999839D+01 0.100000000000D+01
0.809130471532D-02 0.000000000000D+00 0.162604488934D-02 0.964620451134D-03 0.000000000000D+00  5 2 -2 25 23 21 2 0.94154635D-01 0.16974316D-01 0.62232463D+05 0.62232463D+05 0.62232463D+05 0.11829818D+01  1  2  6  2  5  2       -2 0.155206727358D+01 0.100000000000D+01
0.295308865866D-04 0.000000000000D+00 0.000000000000D+00 0.964620451134D-03 0.000000000000D+00  5 2 21 25 23 2 2 0.94154635D-01 0.18355134D-01 0.69324061D+05 0.69324061D+05 0.69324061D+05 0.11784778D+01  1  2 12  4  5  2       -2 0.679613050877D-01 0.100000000000D+01
-.126838122886D-03 0.000000000000D+00 -.272257958011D-04 0.964620451134D-03 0.000000000000D+00  5 2 21 25 23 2 2 0.94154635D-01 0.18815034D-01 0.62232463D+05 0.62232463D+05 0.62232463D+05 0.11829818D+01  1  2  5  4  5  2       -2 -.281506290877D+00 0.100000000000D+01
  </mgrwgt>
  </event>
  <event>
  5     66 0.45228882E-03 0.16031415E+03 0.75467711E-02 0.11712443E+00
        2 -1    0    0  502    0 0.00000000E+00 0.00000000E+00 0.16691692E+04 0.16691692E+04 0.32000000E+00 0.0000E+00 0.9000E+01
       -2 -1    0    0    0  501 0.00000000E+00 0.00000000E+00 -.27568324E+02 0.27570182E+02 0.32000000E+00 0.0000E+00 0.9000E+01
       25  1    1    2    0    0 -.37218882E+01 -.12592851E+03 0.13026919E+04 0.13147254E+04 0.12500000E+03 0.0000E+00 0.9000E+01
       23  1    1    2    0    0 -.22780218E+02 0.10957643E+03 0.26416402E+03 0.30103789E+03 0.91188000E+02 0.0000E+00 0.9000E+01
       21  1    1    2  502  501 0.26502106E+02 0.16352076E+02 0.74744979E+02 0.80976085E+02 0.75000000E+00 0.0000E+00 0.9000E+01
#aMCatNLO 2  0  0  1  1 0.31140841D+02 0.00000000D+00  -5  5  0 0.00000000D+00 0.00000000D+00 0.00000000D+00 0.00000000D+00 0.00000000D+00
  <mgrwgt>
 0.9652988187D-01    1    2    0
 0.196649419413096D+03 0.000000000000000D+00 0.000000000000000D+00 0.196649419413096D+03
 0.196649419413096D+03 0.000000000000000D+00 0.000000000000000D+00 -.196649419413096D+03
 0.205942287754401D+03 0.102960468629734D+02 -.117279293243289D+03 0.113696018755568D+03
 0.187356551071791D+03 -.102960468629734D+02 0.117279293243289D+03 -.113696018755568D+03
 0.000000000000000D+00 0.000000000000000D+00 0.000000000000000D+00 -.000000000000000D+00
 0.206912809074431D+03 0.000000000000000D+00 0.000000000000000D+00 0.206912809074431D+03
 0.222393375095530D+03 0.000000000000000D+00 0.000000000000000D+00 -.222393375095530D+03
 0.210769128727703D+03 -.372188824724955D+01 -.125928505476891D+03 0.113696018755568D+03
 0.183760627603690D+03 -.227802177380599D+02 0.109576429546878D+03 -.113696018755568D+03
 0.347764278385676D+02 0.265021059853094D+02 0.163520759300132D+02 -.154805660210992D+02
0.235126682176D-03 0.000000000000D+00 0.000000000000D+00 0.804836114054D-03 0.657168049175D-05  5 2 -2 25 23 21 2 0.25679049D+00 0.42413447D-02 0.31148560D+05 0.31148560D+05 0.31148560D+05 0.12131896D+01  1  2  1  1  5  1        2 0.965298818679D-01 0.100000000000D+01
  </mgrwgt>
  </event>
  <event>
  4     66 0.45228882E-03 0.13162310E+03 0.75467711E-02 0.12243237E+00
        2 -1    0    0  501    0 0.00000000E+00 0.00000000E+00 0.13345088E+03 0.13345126E+03 0.32000000E+00 0.0000E+00 0.9000E+01
       -2 -1    0    0    0  501 0.00000000E+00 0.00000000E+00 -.15283403E+03 0.15283437E+03 0.32000000E+00 0.0000E+00 0.9000E+01
       25  1    1    2    0    0 0.55859911E+02 0.49264061E+02 -.65843565E+02 0.15971115E+03 0.12500000E+03 0.0000E+00 0.9000E+01
       23  1    1    2    0    0 -.55859911E+02 -.49264061E+02 0.46460407E+02 0.12657448E+03 0.91188000E+02 0.0000E+00 0.9000E+01
#aMCatNLO 1  0  0  2  1 0.10261840D+01 0.00000000D+00  -5  5  0 0.00000000D+00 0.00000000D+00 0.00000000D+00 0.00000000D+00 0.00000000D+00
  <mgrwgt>
 0.1202564691D+00    6    2    0
 0.142814350714238D+03 0.000000000000000D+00 0.000000000000000D+00 0.142814350714238D+03
 0.142814350714238D+03 0.000000000000000D+00 0.000000000000000D+00 -.142814350714238D+03
 0.155610243808039D+03 0.558599113171109D+02 0.492640610756475D+02 -.551567817405687D+02
 0.130018457620437D+03 -.558599113171109D+02 -.492640610756475D+02 0.551567817405687D+02
 0.000000000000000D+00 -.000000000000000D+00 -.000000000000000D+00 0.000000000000000D+00
 0.144882066034256D+03 0.000000000000000D+00 0.000000000000000D+00 0.144882066034256D+03
 0.142942650109581D+03 0.000000000000000D+00 0.000000000000000D+00 -.142942650109581D+03
 0.155813822072700D+03 0.559357802716956D+02 0.498183205489988D+02 -.551567817405687D+02
 0.129816722745940D+03 -.557966104176028D+02 -.488016173341188D+02 0.551567817405687D+02
 0.219417132519763D+01 -.139169854092827D+00 -.101670321487998D+01 0.193941592467526D+01
0.239566673415D-03 0.000000000000D+00 0.000000000000D+00 0.123217375178D-02 0.000000000000D+00  5 2 -2 25 23 21 0 0.20530959D-01 0.23512984D-01 0.17324641D+05 0.17324641D+05 0.17324641D+05 0.12407516D+01  1  2  2  2  5  2       -2 0.977927139731D-01 0.100000000000D+01
-.132015021606D-04 0.000000000000D+00 -.919999105268D-06 0.123217375178D-02 0.000000000000D+00  5 2 -2 25 23 21 2 0.20530959D-01 0.23512984D-01 0.17324641D+05 0.17324641D+05 0.17324641D+05 0.12407516D+01  1  2  3  2  5  2       -2 -.829608427471D-02 0.100000000000D+01
0.165288718882D-04 0.000000000000D+00 0.000000000000D+00 0.123217375178D-02 0.000000000000D+00  5 2 -2 25 23 21 2 0.20530959D-01 0.23512984D-01 0.17324641D+05 0.17324641D+05 0.17324641D+05 0.12407516D+01  1  2 15  2  5  2       -2 0.103870690231D-01 0.100000000000D+01
-.249449666127D-03 0.000000000000D+00 0.000000000000D+00 0.123217375178D-02 0.000000000000D+00  5 2 -2 25 23 21 2 0.20530959D-01 0.23512984D-01 0.17324641D+05 0.17324641D+05 0.17324641D+05 0.12407516D+01  1  2  4  2  5  2       -2 -.156759089027D+00 0.100000000000D+01
0.249472040334D-03 0.000000000000D+00 0.000000000000D+00 0.123217375178D-02 0.960208179728D-02  5 2 -2 25 23 21 2 0.20828214D-01 0.23534107D-01 0.17459298D+05 0.17459298D+05 0.17459298D+05 0.12403752D+01  1  2 11  2  5  2       -2 0.153961815045D+00 0.100000000000D+01
0.274586283137D-05 0.000000000000D+00 0.000000000000D+00 0.123217375178D-02 0.162468040278D-05  5 2 21 25 23 2 2 0.20828214D-01 0.23534107D-01 0.17459298D+05 0.17459298D+05 0.17459298D+05 0.12403752D+01  1  2 11  4  5  2       -2 0.231700443986D-01 0.100000000000D+01
  </mgrwgt>
  </event>
  <event>
  4     66 0.45228882E-03 0.56186785E+02 0.75467711E-02 0.12344820E+00
        2 -1    0    0  501    0 0.00000000E+00 0.00000000E+00 0.41018036E+04 0.41018036E+04 0.32000000E+00 0.0000E+00 0.9000E+01
       -2 -1    0    0    0  501 0.00000000E+00 0.00000000E+00 -.29699468E+01 0.29871364E+01 0.32000000E+00 0.0000E+00 0.9000E+01
       25  1    1    2    0    0 0.10697143E+02 -.13198376E+02 0.26388038E+04 0.26418174E+04 0.12500000E+03 0.0000E+00 0.9000E+01
       23  1    1    2    0    0 -.10697143E+02 0.13198376E+02 0.14600299E+04 0.14629734E+04 0.91188000E+02 0.0000E+00 0.9000E+01
#aMCatNLO 1  0  0  2  1 0.29824135D+02 0.00000000D+00  -5  5  0 0.00000000D+00 0.00000000D+00 0.00000000D+00 0.00000000D+00 0.00000000D+00
  <mgrwgt>
 0.1150483270D+00    9    2    0
 0.110532546844476D+03 0.000000000000000D+00 0.000000000000000D+00 0.110532546844476D+03
 0.110532546844476D+03 0.000000000000000D+00 0.000000000000000D+00 -.110532546844476D+03
 0.127065570068588D+03 0.106971426773389D+02 -.131983755874927D+02 0.152326332998421D+02
 0.939995236203638D+02 -.106971426773389D+02 0.131983755874927D+02 -.152326332998421D+02
 0.000000000000000D+00 0.000000000000000D+00 0.000000000000000D+00 -.000000000000000D+00
 0.119637381521528D+03 0.000000000000000D+00 0.000000000000000D+00 0.119637381521528D+03
 0.138975216137596D+03 0.000000000000000D+00 0.000000000000000D+00 -.138975216137596D+03
 0.128175137410421D+03 -.281194659129197D+01 -.237471196000807D+02 0.152326332998421D+02
 0.948926878084875D+02 -.206946143641438D+02 0.539172278506514D+01 -.152326332998421D+02
 0.355447724402156D+02 0.235065609554358D+02 0.183553968150155D+02 -.193378346160683D+02
0.352737090448D-03 0.000000000000D+00 0.000000000000D+00 0.183787289178D-02 0.000000000000D+00  5 2 -2 25 23 21 0 0.63104803D+00 0.45823813D-03 0.11979993D+05 0.11979993D+05 0.11979993D+05 0.12591090D+01  1  2  2  2  5  2       -2 0.899158339308D-01 0.100000000000D+01
-.195942104781D-04 0.000000000000D+00 -.135460330513D-05 0.183787289178D-02 0.000000000000D+00  5 2 -2 25 23 21 2 0.63104803D+00 0.45823813D-03 0.11979993D+05 0.11979993D+05 0.11979993D+05 0.12591090D+01  1  2  3  2  5  2       -2 -.791843773408D-02 0.100000000000D+01
0.243766477111D-04 0.000000000000D+00 0.000000000000D+00 0.183787289178D-02 0.000000000000D+00  5 2 -2 25 23 21 2 0.63104803D+00 0.45823813D-03 0.11979993D+05 0.11979993D+05 0.11979993D+05 0.12591090D+01  1  2 15  2  5  2       -2 0.985112246710D-02 0.100000000000D+01
0.254904983009D-03 0.000000000000D+00 0.000000000000D+00 0.183787289178D-02 0.000000000000D+00  5 2 -2 25 23 21 2 0.63104803D+00 0.59137251D-03 0.15719268D+05 0.15719268D+05 0.15719268D+05 0.12455103D+01  1  2 12  2  5  2       -2 0.699415722481D-01 0.100000000000D+01
-.265195062272D-03 0.000000000000D+00 0.000000000000D+00 0.183787289178D-02 0.000000000000D+00  5 2 -2 25 23 21 2 0.63104803D+00 0.45823813D-03 0.11979993D+05 0.11979993D+05 0.11979993D+05 0.12591090D+01  1  2  4  2  5  2       -2 -.107170972280D+00 0.100000000000D+01
-.388874711392D-03 0.000000000000D+00 -.131185649647D-03 0.183787289178D-02 0.000000000000D+00  5 2 -2 25 23 21 2 0.63104803D+00 0.68675950D-03 0.11979993D+05 0.11979993D+05 0.11979993D+05 0.12591090D+01  1  2  5  2  5  2       -2 -.888178332183D-01 0.100000000000D+01
0.417372578125D-03 0.000000000000D+00 0.121134930220D-03 0.183787289178D-02 0.000000000000D+00  5 2 -2 25 23 21 2 0.63104803D+00 0.45823813D-03 0.11979993D+05 0.11979993D+05 0.11979993D+05 0.12591090D+01  1  2  6  2  5  2       -2 0.168669147220D+00 0.100000000000D+01
0.875501383368D-05 0.000000000000D+00 0.000000000000D+00 0.183787289178D-02 0.000000000000D+00  5 2 21 25 23 2 2 0.63104803D+00 0.59137251D-03 0.15719268D+05 0.15719268D+05 0.15719268D+05 0.12455103D+01  1  2 12  4  5  2       -2 0.605362620788D-01 0.100000000000D+01
-.141190838239D-04 0.000000000000D+00 -.629704155707D-05 0.183787289178D-02 0.000000000000D+00  5 2 21 25 23 2 2 0.63104803D+00 0.68675950D-03 0.11979993D+05 0.11979993D+05 0.11979993D+05 0.12591090D+01  1  2  5  4  5  2       -2 -.799583676644D-01 0.100000000000D+01
  </mgrwgt>
  </event>
  <event>
  4     66 0.45228882E-03 0.10843814E+03 0.75467711E-02 0.11333614E+00
        2 -1    0    0  501    0 0.00000000E+00 0.00000000E+00 0.15468779E+03 0.15468812E+03 0.32000000E+00 0.0000E+00 0.9000E+01
       -2 -1    0    0    0  501 0.00000000E+00 0.00000000E+00 -.94486546E+02 0.94487088E+02 0.32000000E+00 0.0000E+00 0.9000E+01
       25  1    1    2    0    0 -.77335932E+01 0.35913799E+01 -.20682687E+02 0.12698614E+03 0.12500000E+03 0.0000E+00 0.9000E+01
       23  1    1    2    0    0 0.77335932E+01 -.35913799E+01 0.80883931E+02 0.12218907E+03 0.91188000E+02 0.0000E+00 0.9000E+01
#aMCatNLO 1  0  0  2  1 0.16729181D+03 0.00000000D+00  -5  5  0 0.00000000D+00 0.00000000D+00 0.00000000D+00 0.00000000D+00 0.00000000D+00
  <mgrwgt>
 0.1504282132D+00    5    2    0
 0.120896747903737D+03 0.000000000000000D+00 0.000000000000000D+00 0.120896747903737D+03
 0.120896747903737D+03 0.000000000000000D+00 0.000000000000000D+00 -.120896747903737D+03
 0.136012432946440D+03 -.773359317836615D+01 0.359137991369555D+01 -.529308553008260D+02
 0.105781062861034D+03 0.773359317836615D+01 -.359137991369555D+01 0.529308553008260D+02
 0.000000000000000D+00 -.000000000000000D+00 -.000000000000000D+00 -.000000000000000D+00
 0.200227038803706D+03 0.000000000000000D+00 0.000000000000000D+00 0.200227038803706D+03
 0.278492154752878D+03 0.000000000000000D+00 0.000000000000000D+00 -.278492154752878D+03
 0.160363075483691D+03 0.841889827994750D+02 0.142075934239625D+02 -.529308553008260D+02
 0.133661831297547D+03 0.819981899638157D+02 0.498549913197295D+01 0.529308553008260D+02
 0.184694286775346D+03 -.166187172763291D+03 -.191930925559354D+02 -.782651159491715D+02
0.174090217259D-03 0.000000000000D+00 0.000000000000D+00 0.141953986464D-02 0.000000000000D+00  5 2 -2 25 23 21 0 0.23798189D-01 0.14536459D-01 0.11758831D+05 0.11758831D+05 0.11758831D+05 0.12600588D+01  1  2  2  2  5  2       -2 0.132874297958D+00 0.100000000000D+01
-.953258820335D-05 0.000000000000D+00 -.668552273282D-06 0.141953986464D-02 0.000000000000D+00  5 2 -2 25 23 21 2 0.23798189D-01 0.14536459D-01 0.11758831D+05 0.11758831D+05 0.11758831D+05 0.12600588D+01  1  2  3  2  5  2       -2 -.115520498733D-01 0.100000000000D+01
0.119518003714D-04 0.000000000000D+00 0.000000000000D+00 0.141953986464D-02 0.000000000000D+00  5 2 -2 25 23 21 2 0.23798189D-01 0.14536459D-01 0.11758831D+05 0.11758831D+05 0.11758831D+05 0.12600588D+01  1  2 15  2  5  2       -2 0.144837677890D-01 0.100000000000D+01
0.360475784728D-04 0.000000000000D+00 -.531347934895D-04 0.141953986464D-02 0.000000000000D+00  5 2 -2 25 23 21 2 0.23798189D-01 0.53331240D-01 0.11758831D+05 0.11758831D+05 0.11758831D+05 0.12600588D+01  1  2  5  2  5  2       -2 0.431581469900D-02 0.100000000000D+01
0.686349334631D-05 0.000000000000D+00 -.814178487048D-05 0.141953986464D-02 0.000000000000D+00  5 2 21 25 23 2 2 0.23798189D-01 0.53331240D-01 0.11758831D+05 0.11758831D+05 0.11758831D+05 0.12600588D+01  1  2  5  4  5  2       -2 0.103063825964D-01 0.100000000000D+01
  </mgrwgt>
  </event>
  <event>
  4     66 0.45228882E-03 0.14069742E+03 0.75467711E-02 0.10818998E+00
        2 -1    0    0  501    0 0.00000000E+00 0.00000000E+00 0.26784672E+03 0.26784691E+03 0.32000000E+00 0.0000E+00 0.9000E+01
       -2 -1    0    0    0  501 0.00000000E+00 0.00000000E+00 -.82502871E+02 0.82503491E+02 0.32000000E+00 0.0000E+00 0.9000E+01
       25  1    1    2    0    0 0.61799359E+02 -.64615616E+02 0.15666416E+03 0.21946070E+03 0.12500000E+03 0.0000E+00 0.9000E+01
       23  1    1    2    0    0 -.61799359E+02 0.64615616E+02 0.28679687E+02 0.13088970E+03 0.91188000E+02 0.0000E+00 0.9000E+01
#aMCatNLO 1  0  0  1  1 0.24219474D+03 0.00000000D+00  -5  5  0 0.00000000D+00 0.00000000D+00 0.00000000D+00 0.00000000D+00 0.00000000D+00
  <mgrwgt>
 0.1956478966D+00    3    2    0
 0.148654853402394D+03 0.000000000000000D+00 0.000000000000000D+00 0.148654853402394D+03
 0.148654853402394D+03 0.000000000000000D+00 0.000000000000000D+00 -.148654853402394D+03
 0.160948008467122D+03 0.617993590397601D+02 -.646156162751441D+02 0.478008659460357D+02
 0.136361698337666D+03 -.617993590397601D+02 0.646156162751441D+02 -.478008659460357D+02
 0.000000000000000D+00 0.000000000000000D+00 0.000000000000000D+00 -.000000000000000D+00
 0.265761118530013D+03 0.000000000000000D+00 0.000000000000000D+00 0.265761118530013D+03
 0.389840039974809D+03 0.000000000000000D+00 0.000000000000000D+00 -.389840039974809D+03
 0.192438845966303D+03 -.451469210775710D+02 -.130707850448499D+03 0.478008659460357D+02
 0.191033906883181D+03 -.160879847365418D+03 0.338439973123615D+01 -.478008659460357D+02
 0.272128405655338D+03 0.206026768442989D+03 0.127323450717263D+03 -.124078921444796D+03
0.358179570163D-03 0.000000000000D+00 0.000000000000D+00 0.124094555088D-02 0.000000000000D+00  5 2 -2 25 23 21 0 0.41207250D-01 0.12692812D-01 0.19795765D+05 0.19795765D+05 0.19795765D+05 0.12343171D+01  1  2  2  1  5  1        2 0.191630493980D+00 0.100000000000D+01
-.198256364386D-04 0.000000000000D+00 -.137550386027D-05 0.124094555088D-02 0.000000000000D+00  5 2 -2 25 23 21 2 0.41207250D-01 0.12692812D-01 0.19795765D+05 0.19795765D+05 0.19795765D+05 0.12343171D+01  1  2  3  1  5  1        2 -.161601146711D-01 0.100000000000D+01
0.247542873693D-04 0.000000000000D+00 0.000000000000D+00 0.124094555088D-02 0.000000000000D+00  5 2 -2 25 23 21 2 0.41207250D-01 0.12692812D-01 0.19795765D+05 0.19795765D+05 0.19795765D+05 0.12343171D+01  1  2 15  1  5  1        2 0.201775173134D-01 0.100000000000D+01
  </mgrwgt>
  </event>
  <event>
  4     66 0.45228882E-03 0.16343695E+03 0.75467711E-02 0.11725589E+00
        2 -1    0    0  501    0 0.00000000E+00 0.00000000E+00 0.82601237E+03 0.82601243E+03 0.32000000E+00 0.0000E+00 0.9000E+01
       -2 -1    0    0    0  501 0.00000000E+00 0.00000000E+00 -.35072363E+02 0.35073823E+02 0.32000000E+00 0.0000E+00 0.9000E+01
       25  1    1    2    0    0 -.11607561E+03 0.37322712E+02 0.54038673E+03 0.56789907E+03 0.12500000E+03 0.0000E+00 0.9000E+01
       23  1    1    2    0    0 0.11607561E+03 -.37322712E+02 0.25055327E+03 0.29318719E+03 0.91188000E+02 0.0000E+00 0.9000E+01
#aMCatNLO 1  0  0  2  1 0.22785675D+02 0.00000000D+00  -5  5  0 0.00000000D+00 0.00000000D+00 0.00000000D+00 0.00000000D+00 0.00000000D+00
  <mgrwgt>
 0.1941552266D+00    4    2    0
 0.170208287528967D+03 0.000000000000000D+00 0.000000000000000D+00 0.170208287528967D+03
 0.170208287528967D+03 0.000000000000000D+00 0.000000000000000D+00 -.170208287528967D+03
 0.180944763352384D+03 -.116075608230971D+03 0.373227122733792D+02 0.474286380472708D+02
 0.159471811705550D+03 0.116075608230971D+03 -.373227122733792D+02 -.474286380472708D+02
 0.000000000000000D+00 0.000000000000000D+00 0.000000000000000D+00 0.000000000000000D+00
 0.230452089451048D+03 0.000000000000000D+00 0.000000000000000D+00 0.230452089451048D+03
 0.172757381484074D+03 0.000000000000000D+00 0.000000000000000D+00 -.172757381484074D+03
 0.188587525629245D+03 -.128252652009549D+03 0.352425363511178D+02 0.474286380472708D+02
 0.152590773159811D+03 0.105792339702438D+03 -.390793789967785D+02 -.474286380472708D+02
 0.620311721460658D+02 0.224603123071109D+02 0.383684264566072D+01 0.576947079669733D+02
0.351271894459D-03 0.000000000000D+00 0.000000000000D+00 0.115321503544D-02 0.000000000000D+00  5 2 -2 25 23 21 0 0.12707894D+00 0.53958653D-02 0.26711636D+05 0.26711636D+05 0.26711636D+05 0.12202261D+01  1  2  2  2  5  2       -2 0.203729202363D+00 0.100000000000D+01
-.194760021640D-04 0.000000000000D+00 -.134897656673D-05 0.115321503544D-02 0.000000000000D+00  5 2 -2 25 23 21 2 0.12707894D+00 0.53958653D-02 0.26711636D+05 0.26711636D+05 0.26711636D+05 0.12202261D+01  1  2  3  2  5  2       -2 -.168186190341D-01 0.100000000000D+01
0.241544912842D-04 0.000000000000D+00 0.000000000000D+00 0.115321503544D-02 0.000000000000D+00  5 2 -2 25 23 21 2 0.12707894D+00 0.53958653D-02 0.26711636D+05 0.26711636D+05 0.26711636D+05 0.12202261D+01  1  2 15  2  5  2       -2 0.208587565071D-01 0.100000000000D+01
-.157651766119D-04 0.000000000000D+00 0.000000000000D+00 0.115321503544D-02 0.000000000000D+00  5 2 -2 25 23 21 2 0.12707894D+00 0.53958653D-02 0.26711636D+05 0.26711636D+05 0.26711636D+05 0.12202261D+01  1  2  4  2  5  2       -2 -.136141132666D-01 0.100000000000D+01
  </mgrwgt>
  </event>
  <event>
  4     66 0.45228882E-03 0.54246323E+02 0.75467711E-02 0.11841782E+00
        2 -1    0    0  501    0 0.00000000E+00 0.00000000E+00 0.12798430E+04 0.12798431E+04 0.32000000E+00 0.0000E+00 0.9000E+01
       -2 -1    0    0    0  501 0.00000000E+00 0.00000000E+00 -.94228372E+01 0.94282693E+01 0.32000000E+00 0.0000E+00 0.9000E+01
       25  1    1    2    0    0 -.10341214E+02 -.25158833E+01 0.82547595E+03 0.83495438E+03 0.12500000E+03 0.0000E+00 0.9000E+01
       23  1    1    2    0    0 0.10341214E+02 0.25158833E+01 0.44494425E+03 0.45431697E+03 0.91188000E+02 0.0000E+00 0.9000E+01
#aMCatNLO 1  0  0  1  2 0.92130354D+02 0.00000000D+00  -5  5  0 0.00000000D+00 0.00000000D+00 0.00000000D+00 0.00000000D+00 0.00000000D+00
  <mgrwgt>
 0.1767417747D+00    7    2    0
 0.109832964511720D+03 0.000000000000000D+00 0.000000000000000D+00 0.109832964511720D+03
 0.109832964511720D+03 0.000000000000000D+00 0.000000000000000D+00 -.109832964511720D+03
 0.126471295017722D+03 -.103412143124268D+02 -.251588325277359D+01 0.160224243316211D+02
 0.931946340057176D+02 0.103412143124268D+02 0.251588325277359D+01 -.160224243316211D+02
 0.000000000000000D+00 -.000000000000000D+00 0.000000000000000D+00 0.000000000000000D+00
 0.286774404814500D+03 0.000000000000000D+00 0.000000000000000D+00 0.286774404814500D+03
 0.131757607651090D+03 0.000000000000000D+00 0.000000000000000D+00 -.131757607651090D+03
 0.133200753000180D+03 0.402989765185375D+02 -.153855454862914D+02 0.160224243316211D+02
 0.105003198538436D+03 0.489929526836955D+02 -.730704216306760D+01 -.160224243316211D+02
 0.180328060926974D+03 -.892919292022330D+02 0.226925876493590D+02 0.155016797163411D+03
0.887622909340D-04 0.000000000000D+00 0.000000000000D+00 0.185175832148D-02 0.000000000000D+00  5 2 -2 25 23 21 0 0.19689935D+00 0.14500882D-02 0.11800395D+05 0.11800395D+05 0.11800395D+05 0.12598788D+01  1  2  2  1  5  1        2 0.187086815886D+00 0.100000000000D+01
-.493051072172D-05 0.000000000000D+00 -.340870568834D-06 0.185175832148D-02 0.000000000000D+00  5 2 -2 25 23 21 2 0.19689935D+00 0.14500882D-02 0.11800395D+05 0.11800395D+05 0.11800395D+05 0.12598788D+01  1  2  3  1  5  1        2 -.164954473876D-01 0.100000000000D+01
0.608725308217D-05 0.000000000000D+00 0.000000000000D+00 0.185175832148D-02 0.000000000000D+00  5 2 -2 25 23 21 2 0.19689935D+00 0.14500882D-02 0.11800395D+05 0.11800395D+05 0.11800395D+05 0.12598788D+01  1  2 15  1  5  1        2 0.203654283743D-01 0.100000000000D+01
0.385718574858D-05 0.000000000000D+00 0.000000000000D+00 0.185175832148D-02 0.000000000000D+00  5 2 -2 25 23 21 2 0.50206451D+00 0.14500882D-02 0.26918557D+05 0.26918557D+05 0.26918557D+05 0.12198698D+01  1  2 12  1  5  1        2 0.104532235855D-02 0.100000000000D+01
-.690161521391D-04 0.000000000000D+00 -.287082006539D-04 0.185175832148D-02 0.000000000000D+00  5 2 -2 25 23 21 2 0.53316765D+00 0.14500882D-02 0.11800395D+05 0.11800395D+05 0.11800395D+05 0.12598788D+01  1  2  5  1  5  1        2 -.151565074743D-01 0.100000000000D+01
0.398707739188D-06 0.000000000000D+00 0.000000000000D+00 0.185175832148D-02 0.000000000000D+00  5 21 -2 25 23 -2 2 0.50206451D+00 0.14500882D-02 0.26918557D+05 0.26918557D+05 0.26918557D+05 0.12198698D+01  1  2 12  3  5  1        2 0.107227703094D-04 0.100000000000D+01
-.600665681396D-05 0.000000000000D+00 -.319160799411D-05 0.185175832148D-02 0.000000000000D+00  5 21 -2 25 23 -2 2 0.53316765D+00 0.14500882D-02 0.11800395D+05 0.11800395D+05 0.11800395D+05 0.12598788D+01  1  2  5  3  5  1        2 -.114559871945D-03 0.100000000000D+01
  </mgrwgt>
  </event>
  <event>
  5     66 0.45228882E-03 0.12189880E+03 0.75467711E-02 0.12120266E+00
       21 -1    0    0  501  502 0.00000000E+00 0.00000000E+00 0.37405235E+03 0.37405310E+03 0.75000000E+00 0.0000E+00 0.9000E+01
       -2 -1    0    0    0  501 0.00000000E+00 0.00000000E+00 -.93080165E+02 0.93080715E+02 0.32000000E+00 0.0000E+00 0.9000E+01
       25  1    1    2    0    0 0.26071158E+02 0.39487259E+02 -.11449754E+02 0.13414561E+03 0.12500000E+03 0.0000E+00 0.9000E+01
       23  1    1    2    0    0 -.39758538E+01 -.66836593E+02 0.26583933E+03 0.28890957E+03 0.91188000E+02 0.0000E+00 0.9000E+01
       -2  1    1    2    0  502 -.22095304E+02 0.27349333E+02 0.26582608E+02 0.44078633E+02 0.32000000E+00 0.0000E+00 0.9000E+01
#aMCatNLO 2  0  0  1  2 0.35159472D+02 0.00000000D+00  -5  5  0 0.00000000D+00 0.00000000D+00 0.00000000D+00 0.00000000D+00 0.00000000D+00
  <mgrwgt>
 0.2427252020D-02    2    2    0
 0.168096282795337D+03 0.000000000000000D+00 0.000000000000000D+00 0.168096282795337D+03
 0.168096282795337D+03 0.000000000000000D+00 0.000000000000000D+00 -.168096282795337D+03
 0.178967654449789D+03 0.144216687583600D+02 0.539068732310458D+02 -.115284369399912D+03
 0.157224911140885D+03 -.144216687583600D+02 -.539068732310458D+02 0.115284369399912D+03
 0.000000000000000D+00 -.000000000000000D+00 0.000000000000000D+00 0.000000000000000D+00
 0.186641307291590D+03 0.000000000000000D+00 0.000000000000000D+00 0.186641307291590D+03
 0.186544376978597D+03 0.000000000000000D+00 0.000000000000000D+00 -.186544376978597D+03
 0.176506188888888D+03 0.260711575815302D+02 0.394872590907935D+02 -.115284369399912D+03
 0.161519889470139D+03 -.397585379406751D+01 -.668365925905758D+02 0.115284369399912D+03
 0.351596059111611D+02 -.220953037874627D+02 0.273493334997824D+02 0.969303129925311D-01
-.607507927912D-05 0.000000000000D+00 0.000000000000D+00 0.744097729093D-03 0.000000000000D+00  5 21 -2 25 23 -2 2 0.60092376D-01 0.12903903D-01 0.19873195D+05 0.19873195D+05 0.19873195D+05 0.12341303D+01  1  2 13  3  5  1        2 -.832196207976D-02 0.100000000000D+01
0.847219754948D-05 0.000000000000D+00 0.000000000000D+00 0.744097729093D-03 0.907376908520D-07  5 21 -2 25 23 -2 2 0.57546390D-01 0.14320070D-01 0.19873195D+05 0.19873195D+05 0.19873195D+05 0.12341303D+01  1  2  1  3  5  1        2 0.107492140997D-01 0.100000000000D+01
  </mgrwgt>
  </event>
  <event>
  5     66 0.45228882E-03 0.13095886E+03 0.75467711E-02 0.11623913E+00
        2 -1    0    0  501    0 0.00000000E+00 0.00000000E+00 0.34378733E+03 0.34378748E+03 0.32000000E+00 0.0000E+00 0.9000E+01
       21 -1    0    0  502  501 0.00000000E+00 0.00000000E+00 -.10312857E+03 0.10313130E+03 0.75000000E+00 0.0000E+00 0.9000E+01
       25  1    1    2    0    0 -.21670032E+02 -.54844541E+02 0.12362877E+03 0.18543621E+03 0.12500000E+03 0.0000E+00 0.9000E+01
       23  1    1    2    0    0 -.67751266E+02 0.81591365E+02 0.79516107E+02 0.16088955E+03 0.91188000E+02 0.0000E+00 0.9000E+01
        2  1    1    2  502    0 0.89421299E+02 -.26746824E+02 0.37513885E+02 0.10059302E+03 0.32000000E+00 0.0000E+00 0.9000E+01
#aMCatNLO 2  0  0  2  2 0.93335745D+02 0.00000000D+00  -5  5  0 0.00000000D+00 0.00000000D+00 0.00000000D+00 0.00000000D+00 0.00000000D+00
  <mgrwgt>
 0.3854025012D-01    1    2    0
 0.132251775338615D+03 0.000000000000000D+00 0.000000000000000D+00 0.132251775338615D+03
 0.132251775338615D+03 0.000000000000000D+00 0.000000000000000D+00 -.132251775338615D+03
 0.146069640235484D+03 0.251732480137677D+02 -.688558450785977D+02 0.183444809540414D+02
 0.118433910441747D+03 -.251732480137677D+02 0.688558450785977D+02 -.183444809540414D+02
 0.000000000000000D+00 0.000000000000000D+00 -.000000000000000D+00 -.000000000000000D+00
 0.175493621438259D+03 0.000000000000000D+00 0.000000000000000D+00 0.175493621438259D+03
 0.202029206428096D+03 0.000000000000000D+00 0.000000000000000D+00 -.202029206428096D+03
 0.139423936313333D+03 -.216700324847561D+02 -.548445414580235D+02 0.183444809540414D+02
 0.141064369264430D+03 -.677512662378739D+02 0.815913651905825D+02 -.183444809540414D+02
 0.970345222885921D+02 0.894212987226301D+02 -.267468237325591D+02 -.265355849898367D+02
0.635781887218D-05 0.000000000000D+00 0.000000000000D+00 0.148098878749D-02 0.109223034138D-06  5 2 21 25 23 2 2 0.52890505D-01 0.15866132D-01 0.34487105D+05 0.34487105D+05 0.34487105D+05 0.12085959D+01  1  2  1  4  5  2       -2 0.385402501222D-01 0.100000000000D+01
  </mgrwgt>
  </event>
  <event>
  4     66 0.45228882E-03 0.11112161E+03 0.75467711E-02 0.11203719E+00
        4 -1    0    0  501    0 0.00000000E+00 0.00000000E+00 0.15587465E+04 0.15587473E+04 0.15500000E+01 0.0000E+00 0.9000E+01
       -4 -1    0    0    0  501 0.00000000E+00 0.00000000E+00 -.10106946E+02 0.10225109E+02 0.15500000E+01 0.0000E+00 0.9000E+01
       25  1    1    2    0    0 0.20475126E+01 -.25380003E+02 0.49812635E+03 0.51420152E+03 0.12500000E+03 0.0000E+00 0.9000E+01
       23  1    1    2    0    0 -.20475126E+01 0.25380003E+02 0.10505132E+04 0.10547709E+04 0.91188000E+02 0.0000E+00 0.9000E+01
#aMCatNLO 1  0  0  1  2 0.18774786D+03 0.00000000D+00  -5  5  0 0.00000000D+00 0.00000000D+00 0.00000000D+00 0.00000000D+00 0.00000000D+00
  <mgrwgt>
 0.3670579122D-02    3    2    0
 0.125886717623257D+03 0.000000000000000D+00 0.000000000000000D+00 0.125886717623257D+03
 0.125886717623257D+03 0.000000000000000D+00 0.000000000000000D+00 -.125886717623257D+03
 0.140403238496166D+03 0.204751255604018D+01 -.253800033659711D+02 -.586492327459400D+02
 0.111370196750348D+03 -.204751255604018D+01 0.253800033659711D+02 0.586492327459400D+02
 0.000000000000000D+00 0.000000000000000D+00 0.000000000000000D+00 -.000000000000000D+00
 0.175147862013518D+03 0.000000000000000D+00 0.000000000000000D+00 0.175147862013518D+03
 0.643538744679445D+03 0.000000000000000D+00 0.000000000000000D+00 -.643538744679445D+03
 0.183694527923455D+03 -.897582777615552D+02 -.813781215107161D+02 -.586492327459400D+02
 0.130374127594788D+03 -.705253950063734D+02 -.163889584662847D+02 0.586492327459400D+02
 0.504617951174720D+03 0.160283672767929D+03 0.977670799770008D+02 -.468390882665927D+03
0.176771574998D-03 0.000000000000D+00 0.000000000000D+00 0.132011950826D-02 0.000000000000D+00  5 4 -4 25 23 21 0 0.23981630D+00 0.15640636D-02 0.12348012D+05 0.12348012D+05 0.12348012D+05 0.12575716D+01  1  2  2  1  5  1        4 0.359062727814D-02 0.100000000000D+01
-.963479712182D-05 0.000000000000D+00 -.678849393019D-06 0.132011950826D-02 0.000000000000D+00  5 4 -4 25 23 21 2 0.23981630D+00 0.15640636D-02 0.12348012D+05 0.12348012D+05 0.12348012D+05 0.12575716D+01  1  2  3  1  5  1        4 -.309503741170D-03 0.100000000000D+01
0.121236839767D-04 0.000000000000D+00 0.000000000000D+00 0.132011950826D-02 0.000000000000D+00  5 4 -4 25 23 21 2 0.23981630D+00 0.15640636D-02 0.12348012D+05 0.12348012D+05 0.12348012D+05 0.12575716D+01  1  2 15  1  5  1        4 0.389455584804D-03 0.100000000000D+01
  </mgrwgt>
  </event>
  <event>
  4     66 0.45228882E-03 0.17307773E+03 0.75467711E-02 0.11638812E+00
        2 -1    0    0  501    0 0.00000000E+00 0.00000000E+00 0.21770815E+03 0.21770839E+03 0.32000000E+00 0.0000E+00 0.9000E+01
       -2 -1    0    0    0  501 0.00000000E+00 0.00000000E+00 -.16183655E+03 0.16183687E+03 0.32000000E+00 0.0000E+00 0.9000E+01
       25  1    1    2    0    0 0.12320870E+03 -.54008072E+02 0.10271390E+03 0.21041008E+03 0.12500000E+03 0.0000E+00 0.9000E+01
       23  1    1    2    0    0 -.12320870E+03 0.54008072E+02 -.46842293E+02 0.16913518E+03 0.91188000E+02 0.0000E+00 0.9000E+01
#aMCatNLO 1  0  0  1  2 0.21591749D+02 0.00000000D+00  -5  5  0 0.00000000D+00 0.00000000D+00 0.00000000D+00 0.00000000D+00 0.00000000D+00
  <mgrwgt>
 0.1666376082D+00    4    2    0
 0.187705197432829D+03 0.000000000000000D+00 0.000000000000000D+00 0.187705197432829D+03
 0.187705197432829D+03 0.000000000000000D+00 0.000000000000000D+00 -.187705197432829D+03
 0.197440874382605D+03 0.123208702837131D+03 -.540080715947990D+02 0.725302876374433D+02
 0.177969520483053D+03 -.123208702837131D+03 0.540080715947990D+02 -.725302876374433D+02
 0.000000000000000D+00 -.000000000000000D+00 0.000000000000000D+00 -.000000000000000D+00
 0.190024650364425D+03 0.000000000000000D+00 0.000000000000000D+00 0.190024650364425D+03
 0.246022668620642D+03 0.000000000000000D+00 0.000000000000000D+00 -.246022668620642D+03
 0.204915150088968D+03 0.131214152190338D+03 -.623491970773076D+02 0.725302876374433D+02
 0.171115657395323D+03 -.116263153270349D+03 0.467712885080004D+02 -.725302876374433D+02
 0.600165115007762D+02 -.149509989199890D+02 0.155779085693072D+02 -.559980182562169D+02
0.840429009992D-03 0.000000000000D+00 0.000000000000D+00 0.101735821475D-02 0.000000000000D+00  5 2 -2 25 23 21 0 0.33493605D-01 0.24897973D-01 0.29955900D+05 0.29955900D+05 0.29955900D+05 0.12149655D+01  1  2  2  1  5  1        2 0.183484714204D+00 0.100000000000D+01
-.463168267683D-04 0.000000000000D+00 -.322746868841D-05 0.101735821475D-02 0.000000000000D+00  5 2 -2 25 23 21 2 0.33493605D-01 0.24897973D-01 0.29955900D+05 0.29955900D+05 0.29955900D+05 0.12149655D+01  1  2  3  1  5  1        2 -.149267587345D-01 0.100000000000D+01
0.578149750100D-04 0.000000000000D+00 0.000000000000D+00 0.101735821475D-02 0.000000000000D+00  5 2 -2 25 23 21 2 0.33493605D-01 0.24897973D-01 0.29955900D+05 0.29955900D+05 0.29955900D+05 0.12149655D+01  1  2 15  1  5  1        2 0.186323253002D-01 0.100000000000D+01
-.637736959822D-04 0.000000000000D+00 0.000000000000D+00 0.101735821475D-02 0.000000000000D+00  5 2 -2 25 23 21 2 0.33493605D-01 0.24897973D-01 0.29955900D+05 0.29955900D+05 0.29955900D+05 0.12149655D+01  1  2  4  1  5  1        2 -.205526725373D-01 0.100000000000D+01
  </mgrwgt>
  </event>
  <event>
  4     66 0.45228882E-03 0.10966917E+03 0.75467711E-02 0.11888033E+00
        2 -1    0    0  501    0 0.00000000E+00 0.00000000E+00 0.27212415E+03 0.27212434E+03 0.32000000E+00 0.0000E+00 0.9000E+01
       -2 -1    0    0    0  501 0.00000000E+00 0.00000000E+00 -.52109130E+02 0.52110112E+02 0.32000000E+00 0.0000E+00 0.9000E+01
       25  1    1    2    0    0 0.17852566E+02 0.40185107E+01 0.61636030E+02 0.14056622E+03 0.12500000E+03 0.0000E+00 0.9000E+01
       23  1    1    2    0    0 -.17852566E+02 -.40185107E+01 0.15837899E+03 0.18366823E+03 0.91188000E+02 0.0000E+00 0.9000E+01
#aMCatNLO 1  0  0  1  2 0.84597949D+02 0.00000000D+00  -5  5  0 0.00000000D+00 0.00000000D+00 0.00000000D+00 0.00000000D+00 0.00000000D+00
  <mgrwgt>
 0.1771222911D+00    3    2    0
 0.119081243852040D+03 0.000000000000000D+00 0.000000000000000D+00 0.119081243852040D+03
 0.119081243852040D+03 0.000000000000000D+00 0.000000000000000D+00 -.119081243852040D+03
 0.134427381538262D+03 0.178525655791576D+02 0.401851066184825D+01 -.459440788517526D+02
 0.103735106165818D+03 -.178525655791576D+02 -.401851066184825D+01 0.459440788517526D+02
 0.000000000000000D+00 0.000000000000000D+00 0.000000000000000D+00 -.000000000000000D+00
 0.136836566516166D+03 0.000000000000000D+00 0.000000000000000D+00 0.136836566516166D+03
 0.297326207271437D+03 0.000000000000000D+00 0.000000000000000D+00 -.297326207271437D+03
 0.139674696732890D+03 0.593229798774555D+01 -.416889717608063D+02 -.459440788517526D+02
 0.113066640332950D+03 -.272809320069170D+02 -.401709618938687D+02 0.459440788517526D+02
 0.181421436721762D+03 0.213486340191714D+02 0.818599336546750D+02 -.160489640755271D+03
0.163089338833D-03 0.000000000000D+00 0.000000000000D+00 0.150137456911D-02 0.000000000000D+00  5 2 -2 25 23 21 0 0.41865344D-01 0.80168793D-02 0.12027327D+05 0.12027327D+05 0.12027327D+05 0.12589083D+01  1  2  2  1  5  1        2 0.173421126931D+00 0.100000000000D+01
-.898583405185D-05 0.000000000000D+00 -.626306003530D-06 0.150137456911D-02 0.000000000000D+00  5 2 -2 25 23 21 2 0.41865344D-01 0.80168793D-02 0.12027327D+05 0.12027327D+05 0.12027327D+05 0.12589083D+01  1  2  3  1  5  1        2 -.151433880758D-01 0.100000000000D+01
0.111820431786D-04 0.000000000000D+00 0.000000000000D+00 0.150137456911D-02 0.000000000000D+00  5 2 -2 25 23 21 2 0.41865344D-01 0.80168793D-02 0.12027327D+05 0.12027327D+05 0.12027327D+05 0.12589083D+01  1  2 15  1  5  1        2 0.188445522538D-01 0.100000000000D+01
  </mgrwgt>
  </event>
  <event>
  4     66 0.45228882E-03 0.81097840E+02 0.75467711E-02 0.12255793E+00
        2 -1    0    0  501    0 0.00000000E+00 0.00000000E+00 0.15254963E+04 0.15254963E+04 0.32000000E+00 0.0000E+00 0.9000E+01
       -2 -1    0    0    0  501 0.00000000E+00 0.00000000E+00 -.10303413E+02 0.10308381E+02 0.32000000E+00 0.0000E+00 0.9000E+01
       25  1    1    2    0    0 -.24599905E+02 -.57083041E+02 0.78431617E+03 0.79664326E+03 0.12500000E+03 0.0000E+00 0.9000E+01
       23  1    1    2    0    0 0.24599905E+02 0.57083041E+02 0.73087672E+03 0.73916146E+03 0.91188000E+02 0.0000E+00 0.9000E+01
#aMCatNLO 1  0  0  1  2 0.12288216D+02 0.00000000D+00  -5  5  0 0.00000000D+00 0.00000000D+00 0.00000000D+00 0.00000000D+00 0.00000000D+00
  <mgrwgt>
 0.3250312579D+00    9    2    0
 0.125386039216661D+03 0.000000000000000D+00 0.000000000000000D+00 0.125386039216661D+03
 0.125386039216661D+03 0.000000000000000D+00 0.000000000000000D+00 -.125386039216661D+03
 0.139960525941154D+03 -.245999050255127D+02 -.570830406152784D+02 -.100159856516853D+02
 0.110811552492168D+03 0.245999050255127D+02 0.570830406152784D+02 0.100159856516853D+02
 0.000000000000000D+00 0.000000000000000D+00 0.000000000000000D+00 0.000000000000000D+00
 0.134758393597607D+03 0.000000000000000D+00 0.000000000000000D+00 0.134758393597607D+03
 0.129630003442400D+03 0.000000000000000D+00 0.000000000000000D+00 -.129630003442400D+03
 0.142672107932101D+03 -.303831720499098D+02 -.608840970155579D+02 -.100159856516853D+02
 0.108400860685125D+03 0.201143510995805D+02 0.541349070798498D+02 0.100159856516853D+02
 0.133154284227813D+02 0.102688209503293D+02 0.674918993570806D+01 0.512839015520744D+01
0.859622325113D-04 0.000000000000D+00 0.000000000000D+00 0.158212050303D-02 0.000000000000D+00  5 2 -2 25 23 21 0 0.23469212D+00 0.15855252D-02 0.15619956D+05 0.15619956D+05 0.15619956D+05 0.12458224D+01  1  2  2  1  5  1        2 0.119454372358D+00 0.100000000000D+01
-.477561844124D-05 0.000000000000D+00 -.330117607219D-06 0.158212050303D-02 0.000000000000D+00  5 2 -2 25 23 21 2 0.23469212D+00 0.15855252D-02 0.15619956D+05 0.15619956D+05 0.15619956D+05 0.12458224D+01  1  2  3  1  5  1        2 -.102999769306D-01 0.100000000000D+01
0.594146217896D-05 0.000000000000D+00 0.000000000000D+00 0.158212050303D-02 0.000000000000D+00  5 2 -2 25 23 21 2 0.23469212D+00 0.15855252D-02 0.15619956D+05 0.15619956D+05 0.15619956D+05 0.12458224D+01  1  2 15  1  5  1        2 0.128144499252D-01 0.100000000000D+01
0.235854442048D-03 0.000000000000D+00 0.000000000000D+00 0.158212050303D-02 0.000000000000D+00  5 2 -2 25 23 21 2 0.25598483D+00 0.15855252D-02 0.17232529D+05 0.17232529D+05 0.17232529D+05 0.12410111D+01  1  2 12  1  5  1        2 0.429431903902D+00 0.100000000000D+01
-.224435837373D-03 0.000000000000D+00 0.000000000000D+00 0.158212050303D-02 0.000000000000D+00  5 2 -2 25 23 21 2 0.23469212D+00 0.15855252D-02 0.15619956D+05 0.15619956D+05 0.15619956D+05 0.12458224D+01  1  2  4  1  5  1        2 -.484059598935D+00 0.100000000000D+01
-.730845058650D-03 0.000000000000D+00 -.127885248923D-03 0.158212050303D-02 0.000000000000D+00  5 2 -2 25 23 21 2 0.25656790D+00 0.15855252D-02 0.15619956D+05 0.15619956D+05 0.15619956D+05 0.12458224D+01  1  2  5  1  5  1        2 -.133216580977D+01 0.100000000000D+01
0.739808421191D-03 0.000000000000D+00 0.127379081694D-03 0.158212050303D-02 0.000000000000D+00  5 2 -2 25 23 21 2 0.23469212D+00 0.15855252D-02 0.15619956D+05 0.15619956D+05 0.15619956D+05 0.12458224D+01  1  2  6  1  5  1        2 0.159560688633D+01 0.100000000000D+01
0.338743274155D-05 0.000000000000D+00 0.000000000000D+00 0.158212050303D-02 0.000000000000D+00  5 21 -2 25 23 -2 2 0.25598483D+00 0.15855252D-02 0.17232529D+05 0.17232529D+05 0.17232529D+05 0.12410111D+01  1  2 12  3  5  1        2 0.276045195565D-02 0.100000000000D+01
-.103980569794D-04 0.000000000000D+00 -.187894291258D-05 0.158212050303D-02 0.000000000000D+00  5 21 -2 25 23 -2 2 0.25656790D+00 0.15855252D-02 0.15619956D+05 0.15619956D+05 0.15619956D+05 0.12458224D+01  1  2  5  3  5  1        2 -.851142088188D-02 0.100000000000D+01
  </mgrwgt>
  </event>
  <event>
  4     66 0.45228882E-03 0.12423956E+03 0.75467711E-02 0.11858737E+00
        2 -1    0    0  501    0 0.00000000E+00 0.00000000E+00 0.30772756E+02 0.30774419E+02 0.32000000E+00 0.0000E+00 0.9000E+01
       -2 -1    0    0    0  501 0.00000000E+00 0.00000000E+00 -.50535512E+03 0.50535523E+03 0.32000000E+00 0.0000E+00 0.9000E+01
       25  1    1    2    0    0 0.59324967E+02 -.12737522E+02 -.28818205E+03 0.31993060E+03 0.12500000E+03 0.0000E+00 0.9000E+01
       23  1    1    2    0    0 -.59324967E+02 0.12737522E+02 -.18640032E+03 0.21619905E+03 0.91188000E+02 0.0000E+00 0.9000E+01
#aMCatNLO 1  0  0  1  2 0.67547901D+02 0.00000000D+00  -5  5  0 0.00000000D+00 0.00000000D+00 0.00000000D+00 0.00000000D+00 0.00000000D+00
  <mgrwgt>
 0.9867979847D-01    7    2    0
 0.124706226638828D+03 0.000000000000000D+00 0.000000000000000D+00 0.124706226638828D+03
 0.124706226638828D+03 0.000000000000000D+00 0.000000000000000D+00 -.124706226638828D+03
 0.139360163440978D+03 0.593249671035412D+02 -.127375221206984D+02 -.107032220702224D+02
 0.110052289836677D+03 -.593249671035412D+02 0.127375221206984D+02 0.107032220702224D+02
 0.000000000000000D+00 0.000000000000000D+00 -.000000000000000D+00 0.000000000000000D+00
 0.167427900975531D+03 0.000000000000000D+00 0.000000000000000D+00 0.167427900975531D+03
 0.159036745454353D+03 0.000000000000000D+00 0.000000000000000D+00 -.159036745454353D+03
 0.138487455949646D+03 0.536087171052941D+02 0.237764998064303D+02 -.107032220702224D+02
 0.119910088122285D+03 -.640560583595608D+02 0.429585883642179D+02 0.107032220702224D+02
 0.680671023579518D+02 0.104473412542667D+02 -.667350881706482D+02 0.839115552117817D+01
0.429912672989D-03 0.000000000000D+00 0.000000000000D+00 0.159051214896D-02 0.000000000000D+00  5 2 -2 25 23 21 0 0.47344059D-02 0.77747078D-01 0.15435468D+05 0.15435468D+05 0.15435468D+05 0.12464082D+01  1  2  2  1  5  1        2 0.105035178163D+00 0.100000000000D+01
-.238836292025D-04 0.000000000000D+00 -.165097786289D-05 0.159051214896D-02 0.000000000000D+00  5 2 -2 25 23 21 2 0.47344059D-02 0.77747078D-01 0.15435468D+05 0.15435468D+05 0.15435468D+05 0.12464082D+01  1  2  3  1  5  1        2 -.906515869361D-02 0.100000000000D+01
0.297998670784D-04 0.000000000000D+00 0.000000000000D+00 0.159051214896D-02 0.000000000000D+00  5 2 -2 25 23 21 2 0.47344059D-02 0.77747078D-01 0.15435468D+05 0.15435468D+05 0.15435468D+05 0.12464082D+01  1  2 15  1  5  1        2 0.113106982957D-01 0.100000000000D+01
-.196492896120D-03 0.000000000000D+00 0.000000000000D+00 0.159051214896D-02 0.000000000000D+00  5 2 -2 25 23 21 2 0.47344059D-02 0.77747078D-01 0.15435468D+05 0.15435468D+05 0.15435468D+05 0.12464082D+01  1  2  4  1  5  1        2 -.745799254543D-01 0.100000000000D+01
-.291391474391D-03 0.000000000000D+00 -.194944683629D-03 0.159051214896D-02 0.000000000000D+00  5 2 -2 25 23 21 2 0.81075527D-02 0.77747078D-01 0.15435468D+05 0.15435468D+05 0.15435468D+05 0.12464082D+01  1  2  5  1  5  1        2 -.555489256128D-01 0.100000000000D+01
0.367025808035D-03 0.000000000000D+00 0.169780995119D-03 0.159051214896D-02 0.000000000000D+00  5 2 -2 25 23 21 2 0.47344059D-02 0.77747078D-01 0.15435468D+05 0.15435468D+05 0.15435468D+05 0.12464082D+01  1  2  6  1  5  1        2 0.139306600613D+00 0.100000000000D+01
-.791321671341D-05 0.000000000000D+00 -.116601375628D-04 0.159051214896D-02 0.000000000000D+00  5 21 -2 25 23 -2 2 0.81075527D-02 0.77747078D-01 0.15435468D+05 0.15435468D+05 0.15435468D+05 0.12464082D+01  1  2  5  3  5  1        2 -.177786688429D-01 0.100000000000D+01
  </mgrwgt>
  </event>
  <event>
  4     66 0.45228882E-03 0.10936211E+03 0.75467711E-02 0.11963162E+00
        2 -1    0    0  501    0 0.00000000E+00 0.00000000E+00 0.15571895E+04 0.15571895E+04 0.32000000E+00 0.0000E+00 0.9000E+01
       -2 -1    0    0    0  501 0.00000000E+00 0.00000000E+00 -.76795986E+01 0.76862627E+01 0.32000000E+00 0.0000E+00 0.9000E+01
       25  1    1    2    0    0 -.61281825E+01 -.15218859E+02 0.90680282E+03 0.91552472E+03 0.12500000E+03 0.0000E+00 0.9000E+01
       23  1    1    2    0    0 0.61281825E+01 0.15218859E+02 0.64270706E+03 0.64935105E+03 0.91188000E+02 0.0000E+00 0.9000E+01
#aMCatNLO 1  0  0  2  1 0.75483920D+02 0.00000000D+00  -5  5  0 0.00000000D+00 0.00000000D+00 0.00000000D+00 0.00000000D+00 0.00000000D+00
  <mgrwgt>
 0.1508856461D+00    3    2    0
 0.109379294457379D+03 0.000000000000000D+00 0.000000000000000D+00 0.109379294457379D+03
 0.109379294457379D+03 0.000000000000000D+00 0.000000000000000D+00 -.109379294457379D+03
 0.126086635394855D+03 -.612818251825137D+01 -.152188588096072D+02 0.191607430735361D+01
 0.926719535199030D+02 0.612818251825137D+01 0.152188588096072D+02 -.191607430735361D+01
 0.000000000000000D+00 -.000000000000000D+00 -.000000000000000D+00 0.000000000000000D+00
 0.185725844959520D+03 0.000000000000000D+00 0.000000000000000D+00 0.185725844959520D+03
 0.136051868153111D+03 0.000000000000000D+00 0.000000000000000D+00 -.136051868153111D+03
 0.130191666758445D+03 0.358469202759175D+02 -.601639919907841D+01 0.191607430735361D+01
 0.101223852153019D+03 0.378858315509449D+02 0.221812832730277D+02 -.191607430735361D+01
 0.903621942011675D+02 -.737327518268624D+02 -.161648840739493D+02 0.496739768064085D+02
0.730114610803D-04 0.000000000000D+00 0.000000000000D+00 0.189107480897D-02 0.000000000000D+00  5 2 -2 25 23 21 0 0.23956813D+00 0.11819919D-02 0.11960071D+05 0.11960071D+05 0.11960071D+05 0.12591938D+01  1  2  2  2  5  2       -2 0.147718090342D+00 0.100000000000D+01
-.405619216048D-05 0.000000000000D+00 -.280383234908D-06 0.189107480897D-02 0.000000000000D+00  5 2 -2 25 23 21 2 0.23956813D+00 0.11819919D-02 0.11960071D+05 0.11960071D+05 0.11960071D+05 0.12591938D+01  1  2  3  2  5  2       -2 -.130120675713D-01 0.100000000000D+01
0.504359979218D-05 0.000000000000D+00 0.000000000000D+00 0.189107480897D-02 0.000000000000D+00  5 2 -2 25 23 21 2 0.23956813D+00 0.11819919D-02 0.11960071D+05 0.11960071D+05 0.11960071D+05 0.12591938D+01  1  2 15  2  5  2       -2 0.161796233270D-01 0.100000000000D+01
  </mgrwgt>
  </event>
  <event>
  4     66 0.45228882E-03 0.11952220E+03 0.75467711E-02 0.11185531E+00
        2 -1    0    0  501    0 0.00000000E+00 0.00000000E+00 0.11189270E+04 0.11189270E+04 0.32000000E+00 0.0000E+00 0.9000E+01
       -2 -1    0    0    0  501 0.00000000E+00 0.00000000E+00 -.18392838E+02 0.18395622E+02 0.32000000E+00 0.0000E+00 0.9000E+01
       25  1    1    2    0    0 -.45381810E+02 -.22128968E+02 0.91185749E+03 0.92176910E+03 0.12500000E+03 0.0000E+00 0.9000E+01
       23  1    1    2    0    0 0.45381810E+02 0.22128968E+02 0.18867666E+03 0.21555355E+03 0.91188000E+02 0.0000E+00 0.9000E+01
#aMCatNLO 1  0  0  1  1 0.18255420D+03 0.00000000D+00  -5  5  0 0.00000000D+00 0.00000000D+00 0.00000000D+00 0.00000000D+00 0.00000000D+00
  <mgrwgt>
 0.1552090092D+00    5    2    0
 0.143463764265157D+03 0.000000000000000D+00 0.000000000000000D+00 0.143463764265157D+03
 0.143463764265157D+03 0.000000000000000D+00 0.000000000000000D+00 -.143463764265157D+03
 0.156201734534935D+03 -.453818100106212D+02 -.221289678210473D+02 0.788972875012656D+02
 0.130725793995380D+03 0.453818100106212D+02 0.221289678210473D+02 -.788972875012656D+02
 0.000000000000000D+00 -.000000000000000D+00 -.000000000000000D+00 0.000000000000000D+00
 0.280554227004704D+03 0.000000000000000D+00 0.000000000000000D+00 0.280554227004704D+03
 0.245427371049420D+03 0.000000000000000D+00 0.000000000000000D+00 -.245427371049420D+03
 0.163928951165667D+03 -.207547955950305D+02 0.677654596016785D+02 0.788972875012656D+02
 0.176149630893366D+03 0.689891236799946D+02 0.108301246339450D+03 -.788972875012656D+02
 0.185903015995091D+03 -.482343280849641D+02 -.176066705941128D+03 0.351268559552844D+02
0.151849693276D-03 0.000000000000D+00 0.000000000000D+00 0.105381679428D-02 0.000000000000D+00  5 2 -2 25 23 21 0 0.17214283D+00 0.28298850D-02 0.14285556D+05 0.14285556D+05 0.14285556D+05 0.12502459D+01  1  2  2  1  5  1        2 0.150096015908D+00 0.100000000000D+01
-.809416890385D-05 0.000000000000D+00 -.583142805124D-06 0.105381679428D-02 0.000000000000D+00  5 2 -2 25 23 21 2 0.17214283D+00 0.28298850D-02 0.14285556D+05 0.14285556D+05 0.14285556D+05 0.12502459D+01  1  2  3  1  5  1        2 -.125059998242D-01 0.100000000000D+01
0.104016406623D-04 0.000000000000D+00 0.000000000000D+00 0.105381679428D-02 0.000000000000D+00  5 2 -2 25 23 21 2 0.17214283D+00 0.28298850D-02 0.14285556D+05 0.14285556D+05 0.14285556D+05 0.12502459D+01  1  2 15  1  5  1        2 0.160711887581D-01 0.100000000000D+01
0.715775182861D-05 0.000000000000D+00 -.501766004957D-04 0.105381679428D-02 0.000000000000D+00  5 2 -2 25 23 21 2 0.43350113D+00 0.28298850D-02 0.14285556D+05 0.14285556D+05 0.14285556D+05 0.12502459D+01  1  2  5  1  5  1        2 0.142046473973D-02 0.100000000000D+01
0.381705736887D-05 0.000000000000D+00 -.510708003097D-05 0.105381679428D-02 0.000000000000D+00  5 21 -2 25 23 -2 2 0.43350113D+00 0.28298850D-02 0.14285556D+05 0.14285556D+05 0.14285556D+05 0.12502459D+01  1  2  5  3  5  1        2 0.127339646882D-03 0.100000000000D+01
  </mgrwgt>
  </event>
  <event>
  4     66 0.45228882E-03 0.58662190E+02 0.75467711E-02 0.11888454E+00
        2 -1    0    0  501    0 0.00000000E+00 0.00000000E+00 0.15136409E+03 0.15136443E+03 0.32000000E+00 0.0000E+00 0.9000E+01
       -2 -1    0    0    0  501 0.00000000E+00 0.00000000E+00 -.23088806E+03 0.23088828E+03 0.32000000E+00 0.0000E+00 0.9000E+01
       25  1    1    2    0    0 0.55956595E+02 -.10061162E+02 -.18585130E+03 0.23108023E+03 0.12500000E+03 0.0000E+00 0.9000E+01
       23  1    1    2    0    0 -.55956595E+02 0.10061162E+02 0.10632733E+03 0.15117249E+03 0.91188000E+02 0.0000E+00 0.9000E+01
#aMCatNLO 1  0  0  1  2 0.65413655D+02 0.00000000D+00  -5  5  0 0.00000000D+00 0.00000000D+00 0.00000000D+00 0.00000000D+00 0.00000000D+00
  <mgrwgt>
 0.8511524906D-01    9    2    0
 0.186944562700088D+03 0.000000000000000D+00 0.000000000000000D+00 0.186944562700088D+03
 0.186944562700088D+03 0.000000000000000D+00 0.000000000000000D+00 -.186944562700088D+03
 0.196719851896018D+03 0.559565954469647D+02 -.100611623533548D+02 -.140859265112648D+03
 0.177169273504158D+03 -.559565954469647D+02 0.100611623533548D+02 0.140859265112648D+03
 0.000000000000000D+00 0.000000000000000D+00 0.000000000000000D+00 0.000000000000000D+00
 0.232678356539705D+03 0.000000000000000D+00 0.000000000000000D+00 0.232678356539705D+03
 0.214723029320878D+03 0.000000000000000D+00 0.000000000000000D+00 -.214723029320878D+03
 0.192103601601341D+03 0.267062009763091D+02 -.269117076668189D+02 -.140859265112648D+03
 0.187464606187783D+03 -.833872576727640D+02 -.574107297300531D+01 0.140859265112648D+03
 0.678331780714595D+02 0.566810566964548D+02 0.326527806398242D+02 0.179553272188265D+02
0.476685543523D-03 0.000000000000D+00 0.000000000000D+00 0.587232710088D-03 0.000000000000D+00  5 2 -2 25 23 21 0 0.23286827D-01 0.35521283D-01 0.14979554D+05 0.14979554D+05 0.14979554D+05 0.12478901D+01  1  2  2  1  5  1        2 0.806173675751D-01 0.100000000000D+01
-.207050937505D-04 0.000000000000D+00 -.183059800131D-05 0.587232710088D-03 0.000000000000D+00  5 2 -2 25 23 21 2 0.23286827D-01 0.35521283D-01 0.14979554D+05 0.14979554D+05 0.14979554D+05 0.12478901D+01  1  2  3  1  5  1        2 -.545288690620D-02 0.100000000000D+01
0.325017177342D-04 0.000000000000D+00 0.000000000000D+00 0.587232710088D-03 0.000000000000D+00  5 2 -2 25 23 21 2 0.23286827D-01 0.35521283D-01 0.14979554D+05 0.14979554D+05 0.14979554D+05 0.12478901D+01  1  2 15  1  5  1        2 0.855964204738D-02 0.100000000000D+01
0.214153838879D-03 0.000000000000D+00 0.000000000000D+00 0.587232710088D-03 0.000000000000D+00  5 2 -2 25 23 21 2 0.30367567D-01 0.35521283D-01 0.25557911D+05 0.25557911D+05 0.25557911D+05 0.12222713D+01  1  2 12  1  5  1        2 0.408138940696D-01 0.100000000000D+01
-.367811664836D-03 0.000000000000D+00 0.000000000000D+00 0.587232710088D-03 0.000000000000D+00  5 2 -2 25 23 21 2 0.23286827D-01 0.35521283D-01 0.14979554D+05 0.14979554D+05 0.14979554D+05 0.12478901D+01  1  2  4  1  5  1        2 -.968667630923D-01 0.100000000000D+01
-.499201682129D-03 0.000000000000D+00 -.277644401777D-03 0.587232710088D-03 0.000000000000D+00  5 2 -2 25 23 21 2 0.32972483D-01 0.35521283D-01 0.14979554D+05 0.14979554D+05 0.14979554D+05 0.12478901D+01  1  2  5  1  5  1        2 -.900371934303D-01 0.100000000000D+01
0.576527307802D-03 0.000000000000D+00 0.261659754025D-03 0.587232710088D-03 0.000000000000D+00  5 2 -2 25 23 21 2 0.23286827D-01 0.35521283D-01 0.14979554D+05 0.14979554D+05 0.14979554D+05 0.12478901D+01  1  2  6  1  5  1        2 0.151834048455D+00 0.100000000000D+01
0.757480366502D-05 0.000000000000D+00 0.000000000000D+00 0.587232710088D-03 0.000000000000D+00  5 21 -2 25 23 -2 2 0.30367567D-01 0.35521283D-01 0.25557911D+05 0.25557911D+05 0.25557911D+05 0.12222713D+01  1  2 12  3  5  1        2 0.711670637430D-02 0.100000000000D+01
-.136868350529D-04 0.000000000000D+00 -.119390837410D-04 0.587232710088D-03 0.000000000000D+00  5 21 -2 25 23 -2 2 0.32972483D-01 0.35521283D-01 0.14979554D+05 0.14979554D+05 0.14979554D+05 0.12478901D+01  1  2  5  3  5  1        2 -.114695660339D-01 0.100000000000D+01
  </mgrwgt>
  </event>
  <event>
  4     66 0.45228882E-03 0.46117884E+02 0.75467711E-02 0.11792328E+00
        2 -1    0    0  501    0 0.00000000E+00 0.00000000E+00 0.16832011E+02 0.16835052E+02 0.32000000E+00 0.0000E+00 0.9000E+01
       -2 -1    0    0    0  501 0.00000000E+00 0.00000000E+00 -.93135675E+03 0.93135681E+03 0.32000000E+00 0.0000E+00 0.9000E+01
       25  1    1    2    0    0 -.13707709E+02 -.19585310E+02 -.72969394E+03 0.74070894E+03 0.12500000E+03 0.0000E+00 0.9000E+01
       23  1    1    2    0    0 0.13707709E+02 0.19585310E+02 -.18483080E+03 0.20748292E+03 0.91188000E+02 0.0000E+00 0.9000E+01
#aMCatNLO 1  0  0  2  1 0.95727918D+02 0.00000000D+00  -5  5  0 0.00000000D+00 0.00000000D+00 0.00000000D+00 0.00000000D+00 0.00000000D+00
  <mgrwgt>
 0.7938541281D-01    7    2    0
 0.125212119065752D+03 0.000000000000000D+00 0.000000000000000D+00 0.125212119065752D+03
 0.125212119065752D+03 0.000000000000000D+00 0.000000000000000D+00 -.125212119065752D+03
 0.139806849812545D+03 -.137077091013867D+02 -.195853098748797D+02 -.578746023986706D+02
 0.110617388318960D+03 0.137077091013867D+02 0.195853098748797D+02 0.578746023986706D+02
 0.000000000000000D+00 -.000000000000000D+00 -.000000000000000D+00 -.000000000000000D+00
 0.150467646799295D+03 0.000000000000000D+00 0.000000000000000D+00 0.150467646799295D+03
 0.273579364618280D+03 0.000000000000000D+00 0.000000000000000D+00 -.273579364618280D+03
 0.144105232307228D+03 0.386553251071158D+02 -.172514989603590D+02 -.578746023986706D+02
 0.123992013693261D+03 0.569776539782647D+02 0.215138434511096D+02 0.578746023986706D+02
 0.155949765417085D+03 -.956329790853805D+02 -.426234449075065D+01 -.123111717818985D+03
0.646334473991D-03 0.000000000000D+00 0.000000000000D+00 0.133279170685D-02 0.000000000000D+00  5 2 -2 25 23 21 0 0.25897783D-02 0.14328589D+00 0.12269429D+05 0.12269429D+05 0.12269429D+05 0.12578955D+01  1  2  2  2  5  2       -2 0.840511084147D-01 0.100000000000D+01
-.352515081359D-04 0.000000000000D+00 -.248209456390D-05 0.133279170685D-02 0.000000000000D+00  5 2 -2 25 23 21 2 0.25897783D-02 0.14328589D+00 0.12269429D+05 0.12269429D+05 0.12269429D+05 0.12578955D+01  1  2  3  2  5  2       -2 -.725358933331D-02 0.100000000000D+01
0.443724389013D-04 0.000000000000D+00 0.000000000000D+00 0.133279170685D-02 0.000000000000D+00  5 2 -2 25 23 21 2 0.25897783D-02 0.14328589D+00 0.12269429D+05 0.12269429D+05 0.12269429D+05 0.12578955D+01  1  2 15  2  5  2       -2 0.913037389115D-02 0.100000000000D+01
0.128159436829D-04 0.000000000000D+00 0.000000000000D+00 0.133279170685D-02 0.000000000000D+00  5 2 -2 25 23 21 2 0.25897783D-02 0.31168977D+00 0.28452493D+05 0.28452493D+05 0.28452493D+05 0.12173199D+01  1  2 12  2  5  2       -2 0.228825633818D-03 0.100000000000D+01
-.289200235518D-03 0.000000000000D+00 -.152972552983D-03 0.133279170685D-02 0.000000000000D+00  5 2 -2 25 23 21 2 0.25897783D-02 0.33480263D+00 0.12269429D+05 0.12269429D+05 0.12269429D+05 0.12578955D+01  1  2  5  2  5  2       -2 -.407129374699D-02 0.100000000000D+01
0.107877303796D-05 0.000000000000D+00 0.000000000000D+00 0.133279170685D-02 0.000000000000D+00  5 2 21 25 23 2 2 0.25897783D-02 0.31168977D+00 0.28452493D+05 0.28452493D+05 0.28452493D+05 0.12173199D+01  1  2 12  4  5  2       -2 0.217710628370D-03 0.100000000000D+01
-.170958454378D-04 0.000000000000D+00 -.141550010217D-04 0.133279170685D-02 0.000000000000D+00  5 2 21 25 23 2 2 0.25897783D-02 0.33480263D+00 0.12269429D+05 0.12269429D+05 0.12269429D+05 0.12578955D+01  1  2  5  4  5  2       -2 -.291772267484D-02 0.100000000000D+01
  </mgrwgt>
  </event>
  <event>
  4     66 0.45228882E-03 0.87342069E+02 0.75467711E-02 0.12610248E+00
        2 -1    0    0  501    0 0.00000000E+00 0.00000000E+00 0.16236805E+03 0.16236837E+03 0.32000000E+00 0.0000E+00 0.9000E+01
       -2 -1    0    0    0  501 0.00000000E+00 0.00000000E+00 -.17803510E+03 0.17803538E+03 0.32000000E+00 0.0000E+00 0.9000E+01
       25  1    1    2    0    0 -.99325683E+01 0.11232388E+02 0.12153124E+03 0.17498476E+03 0.12500000E+03 0.0000E+00 0.9000E+01
       23  1    1    2    0    0 0.99325683E+01 -.11232388E+02 -.13719829E+03 0.16541899E+03 0.91188000E+02 0.0000E+00 0.9000E+01
#aMCatNLO 1  0  0  2  1 0.11849221D+01 0.00000000D+00  -5  5  0 0.00000000D+00 0.00000000D+00 0.00000000D+00 0.00000000D+00 0.00000000D+00
  <mgrwgt>
 0.9406304373D-02   10    2    0
 0.170021511638781D+03 0.000000000000000D+00 0.000000000000000D+00 0.170021511638781D+03
 0.170021511638781D+03 0.000000000000000D+00 0.000000000000000D+00 -.170021511638781D+03
 0.180769781939321D+03 -.993256826993566D+01 0.112323878246418D+02 0.129722363583577D+03
 0.159273241338242D+03 0.993256826993566D+01 -.112323878246418D+02 -.129722363583577D+03
 0.000000000000000D+00 -.000000000000000D+00 0.000000000000000D+00 -.000000000000000D+00
 0.170313299156169D+03 0.000000000000000D+00 0.000000000000000D+00 0.170313299156169D+03
 0.171229779470200D+03 0.000000000000000D+00 0.000000000000000D+00 -.171229779470200D+03
 0.180726850548769D+03 -.932694282764524D+01 0.110594318596023D+02 0.129722363583577D+03
 0.159318237226615D+03 0.104663135050926D+02 -.113848160678851D+02 -.129722363583577D+03
 0.149799085098459D+01 -.113937067744737D+01 0.325384208282893D+00 -.916480314031220D+00
0.204981520766D-03 0.000000000000D+00 0.000000000000D+00 0.618698452647D-03 0.000000000000D+00  5 2 -2 25 23 21 0 0.24979747D-01 0.27390061D-01 0.11914661D+05 0.11914661D+05 0.11914661D+05 0.12593875D+01  1  2  2  2  5  2       -2 0.510190293383D-01 0.100000000000D+01
-.866860863845D-05 0.000000000000D+00 -.787183012617D-06 0.618698452647D-03 0.000000000000D+00  5 2 -2 25 23 21 2 0.24979747D-01 0.27390061D-01 0.11914661D+05 0.11914661D+05 0.11914661D+05 0.12593875D+01  1  2  3  2  5  2       -2 -.342204453185D-02 0.100000000000D+01
0.139793559712D-04 0.000000000000D+00 0.000000000000D+00 0.618698452647D-03 0.000000000000D+00  5 2 -2 25 23 21 2 0.24979747D-01 0.27390061D-01 0.11914661D+05 0.11914661D+05 0.11914661D+05 0.12593875D+01  1  2 15  2  5  2       -2 0.551853021117D-02 0.100000000000D+01
-.759414991534D-02 0.000000000000D+00 0.000000000000D+00 0.618698452647D-03 0.000000000000D+00  5 2 -2 25 23 21 2 0.24979747D-01 0.27390061D-01 0.11914661D+05 0.11914661D+05 0.11914661D+05 0.12593875D+01  1  2  4  2  5  2       -2 -.299788815896D+01 0.100000000000D+01
-.280171418001D-01 0.000000000000D+00 -.266781156494D-02 0.618698452647D-03 0.000000000000D+00  5 2 -2 25 23 21 2 0.24979747D-01 0.27626094D-01 0.11914661D+05 0.11914661D+05 0.11914661D+05 0.12593875D+01  1  2  5  2  5  2       -2 -.108939341506D+02 0.100000000000D+01
0.280390991146D-01 0.000000000000D+00 0.266771335779D-02 0.618698452647D-03 0.000000000000D+00  5 2 -2 25 23 21 2 0.24979747D-01 0.27390061D-01 0.11914661D+05 0.11914661D+05 0.11914661D+05 0.12593875D+01  1  2  6  2  5  2       -2 0.110687942904D+02 0.100000000000D+01
0.759447030306D-02 0.000000000000D+00 0.000000000000D+00 0.618698452647D-03 0.372434546593D-02  5 2 -2 25 23 21 2 0.25022616D-01 0.27584710D-01 0.12046094D+05 0.12046094D+05 0.12046094D+05 0.12588290D+01  1  2 11  2  5  2       -2 0.295347377462D+01 0.100000000000D+01
0.405587558450D-09 0.000000000000D+00 0.000000000000D+00 0.618698452647D-03 0.000000000000D+00  5 2 21 25 23 2 2 0.24979747D-01 0.27608109D-01 0.12046094D+05 0.12046094D+05 0.12046094D+05 0.12588290D+01  1  2 12  4  5  2       -2 0.212480672942D-05 0.100000000000D+01
-.444280093034D-04 0.000000000000D+00 -.423740442543D-05 0.618698452647D-03 0.000000000000D+00  5 2 21 25 23 2 2 0.24979747D-01 0.27626094D-01 0.11914661D+05 0.11914661D+05 0.11914661D+05 0.12593875D+01  1  2  5  4  5  2       -2 -.232655569552D+00 0.100000000000D+01
0.111692842041D-04 0.000000000000D+00 0.000000000000D+00 0.618698452647D-03 0.489428142412D-05  5 2 21 25 23 2 2 0.25022616D-01 0.27584710D-01 0.12046094D+05 0.12046094D+05 0.12046094D+05 0.12588290D+01  1  2 11  4  5  2       -2 0.584984785691D-01 0.100000000000D+01
  </mgrwgt>
  </event>
  <event>
  4     66 0.45228882E-03 0.45113328E+02 0.75467711E-02 0.12407286E+00
        2 -1    0    0  501    0 0.00000000E+00 0.00000000E+00 0.31958464E+03 0.31958480E+03 0.32000000E+00 0.0000E+00 0.9000E+01
       -2 -1    0    0    0  501 0.00000000E+00 0.00000000E+00 -.39929947E+02 0.39931229E+02 0.32000000E+00 0.0000E+00 0.9000E+01
       25  1    1    2    0    0 0.22344253E+02 0.14061804E+02 0.18986734E+03 0.22884844E+03 0.12500000E+03 0.0000E+00 0.9000E+01
       23  1    1    2    0    0 -.22344253E+02 -.14061804E+02 0.89787354E+02 0.13066759E+03 0.91188000E+02 0.0000E+00 0.9000E+01
#aMCatNLO 1  0  0  1  2 0.19357370D+02 0.00000000D+00  -5  5  0 0.00000000D+00 0.00000000D+00 0.00000000D+00 0.00000000D+00 0.00000000D+00
  <mgrwgt>
 0.1803350069D+00    9    2    0
 0.112965734246026D+03 0.000000000000000D+00 0.000000000000000D+00 0.112965734246026D+03
 0.112965734246026D+03 0.000000000000000D+00 0.000000000000000D+00 -.112965734246026D+03
 0.129142649982439D+03 0.223442528619501D+02 0.140618036790193D+02 0.188632999716594D+02
 0.967888185096133D+02 -.223442528619501D+02 -.140618036790193D+02 -.188632999716594D+02
 0.000000000000000D+00 0.000000000000000D+00 -.000000000000000D+00 0.000000000000000D+00
 0.130699254035661D+03 0.000000000000000D+00 0.000000000000000D+00 0.130699254035661D+03
 0.118788309632949D+03 0.000000000000000D+00 0.000000000000000D+00 -.118788309632949D+03
 0.128811103004805D+03 0.135324939929519D+02 0.206965643966426D+02 0.188632999716594D+02
 0.979481001793688D+02 -.289965102937847D+02 -.905302654968425D+01 -.188632999716594D+02
 0.227283604844364D+02 0.154640163008327D+02 -.116435378469583D+02 0.119109444027129D+02
0.784778722669D-04 0.000000000000D+00 0.000000000000D+00 0.177094561567D-02 0.000000000000D+00  5 2 -2 25 23 21 0 0.49166979D-01 0.61431797D-02 0.12397760D+05 0.12397760D+05 0.12397760D+05 0.12573677D+01  1  2  2  1  5  1        2 0.105822723659D+00 0.100000000000D+01
-.435877509115D-05 0.000000000000D+00 -.301375693203D-06 0.177094561567D-02 0.000000000000D+00  5 2 -2 25 23 21 2 0.49166979D-01 0.61431797D-02 0.12397760D+05 0.12397760D+05 0.12397760D+05 0.12573677D+01  1  2  3  1  5  1        2 -.929224791190D-02 0.100000000000D+01
0.542391613429D-05 0.000000000000D+00 0.000000000000D+00 0.177094561567D-02 0.000000000000D+00  5 2 -2 25 23 21 2 0.49166979D-01 0.61431797D-02 0.12397760D+05 0.12397760D+05 0.12397760D+05 0.12573677D+01  1  2 15  1  5  1        2 0.115629671913D-01 0.100000000000D+01
0.158540613929D-03 0.000000000000D+00 0.000000000000D+00 0.177094561567D-02 0.000000000000D+00  5 2 -2 25 23 21 2 0.58008207D-01 0.61431797D-02 0.14749416D+05 0.14749416D+05 0.14749416D+05 0.12486575D+01  1  2 12  1  5  1        2 0.281890688856D+00 0.100000000000D+01
-.158007941605D-03 0.000000000000D+00 0.000000000000D+00 0.177094561567D-02 0.000000000000D+00  5 2 -2 25 23 21 2 0.49166979D-01 0.61431797D-02 0.12397760D+05 0.12397760D+05 0.12397760D+05 0.12573677D+01  1  2  4  1  5  1        2 -.336848985033D+00 0.100000000000D+01
-.335832598944D-03 0.000000000000D+00 -.735283780065D-04 0.177094561567D-02 0.000000000000D+00  5 2 -2 25 23 21 2 0.59271035D-01 0.61431797D-02 0.12397760D+05 0.12397760D+05 0.12397760D+05 0.12573677D+01  1  2  5  1  5  1        2 -.587798510062D+00 0.100000000000D+01
0.344801043125D-03 0.000000000000D+00 0.722625958146D-04 0.177094561567D-02 0.000000000000D+00  5 2 -2 25 23 21 2 0.49166979D-01 0.61431797D-02 0.12397760D+05 0.12397760D+05 0.12397760D+05 0.12573677D+01  1  2  6  1  5  1        2 0.735063568548D+00 0.100000000000D+01
0.391073964218D-05 0.000000000000D+00 0.000000000000D+00 0.177094561567D-02 0.000000000000D+00  5 21 -2 25 23 -2 2 0.58008207D-01 0.61431797D-02 0.14749416D+05 0.14749416D+05 0.14749416D+05 0.12486575D+01  1  2 12  3  5  1        2 0.187622790165D-01 0.100000000000D+01
-.836764444107D-05 0.000000000000D+00 -.199693339402D-05 0.177094561567D-02 0.000000000000D+00  5 21 -2 25 23 -2 2 0.59271035D-01 0.61431797D-02 0.12397760D+05 0.12397760D+05 0.12397760D+05 0.12573677D+01  1  2  5  3  5  1        2 -.388274773254D-01 0.100000000000D+01
  </mgrwgt>
  </event>
  <event>
  5     66 0.45228882E-03 0.19094241E+03 0.75467711E-02 0.11362189E+00
        2 -1    0    0  501    0 0.00000000E+00 0.00000000E+00 0.32097928E+03 0.32097944E+03 0.32000000E+00 0.0000E+00 0.9000E+01
       21 -1    0    0  502  501 0.00000000E+00 0.00000000E+00 -.16041058E+03 0.16041233E+03 0.75000000E+00 0.0000E+00 0.9000E+01
       25  1    1    2    0    0 0.11090543E+03 0.84266941E+02 0.89861645E+02 0.20760792E+03 0.12500000E+03 0.0000E+00 0.9000E+01
       23  1    1    2    0    0 -.15879261E+03 -.74927381E+02 0.13087402E+02 0.19828196E+03 0.91188000E+02 0.0000E+00 0.9000E+01
        2  1    1    2  502    0 0.47887173E+02 -.93395598E+01 0.57619652E+02 0.75501890E+02 0.32000000E+00 0.0000E+00 0.9000E+01
#aMCatNLO 2  0  0  2  1 0.48789432D+02 0.00000000D+00  -5  5  0 0.00000000D+00 0.00000000D+00 0.00000000D+00 0.00000000D+00 0.00000000D+00
  <mgrwgt>
 0.4553070305D-01    1    2    0
 0.194786857582621D+03 0.000000000000000D+00 0.000000000000000D+00 0.194786857582621D+03
 0.194786857582621D+03 0.000000000000000D+00 0.000000000000000D+00 -.194786857582621D+03
 0.204168584803231D+03 0.135102281165057D+03 0.795477671478673D+02 0.384621552482532D+02
 0.185405130362011D+03 -.135102281165057D+03 -.795477671478673D+02 -.384621552482532D+02
 0.000000000000000D+00 0.000000000000000D+00 -.000000000000000D+00 0.000000000000000D+00
 0.247665898786694D+03 0.000000000000000D+00 0.000000000000000D+00 0.247665898786694D+03
 0.207895951169472D+03 0.000000000000000D+00 0.000000000000000D+00 -.207895951169472D+03
 0.191063523822644D+03 0.110905434428953D+03 0.842669411056957D+02 0.384621552482532D+02
 0.201553450122909D+03 -.158792607079537D+03 -.749273812634014D+02 -.384621552482532D+02
 0.629448760106118D+02 0.478871726505846D+02 -.933955984229421D+01 0.397699476172223D+02
0.163406772597D-04 0.000000000000D+00 0.000000000000D+00 0.111112824587D-02 0.459562311768D-07  5 2 21 25 23 2 2 0.49381481D-01 0.24678651D-01 0.47043696D+05 0.47043696D+05 0.47043696D+05 0.11949120D+01  1  2  1  4  5  2       -2 0.455307030453D-01 0.100000000000D+01
  </mgrwgt>
  </event>
  <event>
  4     66 0.45228882E-03 0.11071108E+03 0.75467711E-02 0.10847764E+00
        2 -1    0    0  501    0 0.00000000E+00 0.00000000E+00 0.11181575E+04 0.11181575E+04 0.32000000E+00 0.0000E+00 0.9000E+01
       -2 -1    0    0    0  501 0.00000000E+00 0.00000000E+00 -.12525815E+02 0.12529902E+02 0.32000000E+00 0.0000E+00 0.9000E+01
       25  1    1    2    0    0 -.21476523E+02 -.99013707E+01 0.82287088E+03 0.83264685E+03 0.12500000E+03 0.0000E+00 0.9000E+01
       23  1    1    2    0    0 0.21476523E+02 0.99013707E+01 0.28276077E+03 0.29804058E+03 0.91188000E+02 0.0000E+00 0.9000E+01
#aMCatNLO 1  0  0  2  1 0.26008843D+03 0.00000000D+00  -5  5  0 0.00000000D+00 0.00000000D+00 0.00000000D+00 0.00000000D+00 0.00000000D+00
  <mgrwgt>
 0.2061848121D+00    5    2    0
 0.118356117552510D+03 0.000000000000000D+00 0.000000000000000D+00 0.118356117552510D+03
 0.118356117552510D+03 0.000000000000000D+00 0.000000000000000D+00 -.118356117552510D+03
 0.133796275626209D+03 -.214765226048439D+02 -.990137069843248D+01 0.414386921432164D+02
 0.102915959478812D+03 0.214765226048439D+02 0.990137069843248D+01 -.414386921432164D+02
 0.000000000000000D+00 -.000000000000000D+00 -.000000000000000D+00 -.000000000000000D+00
 0.236967831487950D+03 0.000000000000000D+00 0.000000000000000D+00 0.236967831487950D+03
 0.452497317765513D+03 0.000000000000000D+00 0.000000000000000D+00 -.452497317765513D+03
 0.173171570247727D+03 0.109602071428209D+03 0.251716800029077D+02 0.414386921432164D+02
 0.178508217594725D+03 0.141647693473527D+03 0.420558929513483D+02 -.414386921432164D+02
 0.337785361411011D+03 -.251249764901736D+03 -.672275729542560D+02 -.215529486277563D+03
0.959213077488D-04 0.000000000000D+00 0.000000000000D+00 0.154645410860D-02 0.000000000000D+00  5 2 -2 25 23 21 0 0.17202454D+00 0.19273664D-02 0.12256944D+05 0.12256944D+05 0.12256944D+05 0.12579472D+01  1  2  2  2  5  2       -2 0.164971810901D+00 0.100000000000D+01
-.530007205407D-05 0.000000000000D+00 -.368363078416D-06 0.154645410860D-02 0.000000000000D+00  5 2 -2 25 23 21 2 0.17202454D+00 0.19273664D-02 0.12256944D+05 0.12256944D+05 0.12256944D+05 0.12579472D+01  1  2  3  2  5  2       -2 -.144245158702D-01 0.100000000000D+01
0.658028202373D-05 0.000000000000D+00 0.000000000000D+00 0.154645410860D-02 0.000000000000D+00  5 2 -2 25 23 21 2 0.17202454D+00 0.19273664D-02 0.12256944D+05 0.12256944D+05 0.12256944D+05 0.12579472D+01  1  2 15  2  5  2       -2 0.179086966202D-01 0.100000000000D+01
0.916448215413D-04 0.000000000000D+00 -.521815266630D-04 0.154645410860D-02 0.000000000000D+00  5 2 -2 25 23 21 2 0.17202454D+00 0.15919493D-01 0.12256944D+05 0.12256944D+05 0.12256944D+05 0.12579472D+01  1  2  5  2  5  2       -2 0.102003737783D-01 0.100000000000D+01
0.168826087768D-04 0.000000000000D+00 -.133430481899D-04 0.154645410860D-02 0.000000000000D+00  5 2 21 25 23 2 2 0.17202454D+00 0.15919493D-01 0.12256944D+05 0.12256944D+05 0.12256944D+05 0.12579472D+01  1  2  5  4  5  2       -2 0.275284467087D-01 0.100000000000D+01
  </mgrwgt>
  </event>
  <event>
  5     66 0.45228882E-03 0.11738453E+03 0.75467711E-02 0.11955138E+00
       21 -1    0    0  501  502 0.00000000E+00 0.00000000E+00 0.23269446E+04 0.23269448E+04 0.75000000E+00 0.0000E+00 0.9000E+01
       -4 -1    0    0    0  501 0.00000000E+00 0.00000000E+00 -.18882999E+02 0.18946508E+02 0.15500000E+01 0.0000E+00 0.9000E+01
       25  1    1    2    0    0 0.28109478E+02 -.59048875E+01 0.29145974E+03 0.31843177E+03 0.12500000E+03 0.0000E+00 0.9000E+01
       23  1    1    2    0    0 -.42409194E+02 -.56898894E+02 0.71607688E+03 0.72533949E+03 0.91188000E+02 0.0000E+00 0.9000E+01
       -4  1    1    2    0  502 0.14299716E+02 0.62803782E+02 0.13005250E+04 0.13021200E+04 0.15500000E+01 0.0000E+00 0.9000E+01
#aMCatNLO 2  0  0  1  2 0.64411155D+02 0.00000000D+00  -5  5  0 0.00000000D+00 0.00000000D+00 0.00000000D+00 0.00000000D+00 0.00000000D+00
  <mgrwgt>
 0.1312973067D-02    2    2    0
 0.132457159880521D+03 0.000000000000000D+00 0.000000000000000D+00 0.132457159880521D+03
 0.132457159880521D+03 0.000000000000000D+00 0.000000000000000D+00 -.132457159880521D+03
 0.146253599164350D+03 0.357775243419907D+02 0.277728653950118D+02 -.609405609445400D+02
 0.118660720596693D+03 -.357775243419907D+02 -.277728653950118D+02 0.609405609445400D+02
 0.000000000000000D+00 0.000000000000000D+00 0.000000000000000D+00 0.000000000000000D+00
 0.309263494286588D+03 0.000000000000000D+00 0.000000000000000D+00 0.309263494286588D+03
 0.142313368172560D+03 0.000000000000000D+00 0.000000000000000D+00 -.142313368172560D+03
 0.141999163427569D+03 0.281094779287817D+02 -.590488750660521D+01 -.609405609445400D+02
 0.130633178243490D+03 -.424091943029222D+02 -.568988944034697D+02 0.609405609445400D+02
 0.178944520788089D+03 0.142997163741405D+02 0.628037819100749D+02 0.166950126114028D+03
-.151776137920D-04 0.000000000000D+00 0.000000000000D+00 0.125237242445D-02 0.000000000000D+00  5 21 -4 25 23 -4 2 0.35577760D+00 0.27083738D-02 0.23749348D+05 0.23749348D+05 0.23749348D+05 0.12256945D+01  1  2 13  3  5  1        4 -.101413845171D-02 0.100000000000D+01
0.401513832003D-04 0.000000000000D+00 0.000000000000D+00 0.125237242445D-02 0.381487506720D-06  5 21 -4 25 23 -4 2 0.35798825D+00 0.29099054D-02 0.23749348D+05 0.23749348D+05 0.23749348D+05 0.12256945D+01  1  2  1  3  5  1        4 0.232711151879D-02 0.100000000000D+01
  </mgrwgt>
  </event>
  <event>
  5     66 0.45228882E-03 0.11439434E+03 0.75467711E-02 0.12342119E+00
        2 -1    0    0  501    0 0.00000000E+00 0.00000000E+00 0.59960956E+03 0.59960964E+03 0.32000000E+00 0.0000E+00 0.9000E+01
       21 -1    0    0  502  501 0.00000000E+00 0.00000000E+00 -.27523990E+02 0.27534206E+02 0.75000000E+00 0.0000E+00 0.9000E+01
       25  1    1    2    0    0 0.60479938E+01 -.25617342E+02 0.25011663E+03 0.28084899E+03 0.12500000E+03 0.0000E+00 0.9000E+01
       23  1    1    2    0    0 -.21244865E+02 0.40567898E+02 0.22572751E+03 0.24772012E+03 0.91188000E+02 0.0000E+00 0.9000E+01
        2  1    1    2  502    0 0.15196871E+02 -.14950556E+02 0.96241427E+02 0.98574736E+02 0.32000000E+00 0.0000E+00 0.9000E+01
#aMCatNLO 2  0  0  2  2 0.21318162D+02 0.00000000D+00  -5  5  0 0.00000000D+00 0.00000000D+00 0.00000000D+00 0.00000000D+00 0.00000000D+00
  <mgrwgt>
 0.5796088524D-01    1    2    0
 0.114567879438552D+03 0.000000000000000D+00 0.000000000000000D+00 0.114567879438552D+03
 0.114567879438552D+03 0.000000000000000D+00 0.000000000000000D+00 -.114567879438552D+03
 0.130518573236460D+03 0.145988105644831D+02 -.340295649446122D+02 -.624190671702522D+01
 0.986171856406443D+02 -.145988105644831D+02 0.340295649446122D+02 0.624190671702522D+01
 0.000000000000000D+00 0.000000000000000D+00 -.000000000000000D+00 0.000000000000000D+00
 0.137379188896971D+03 0.000000000000000D+00 0.000000000000000D+00 0.137379188896971D+03
 0.120153770628205D+03 0.000000000000000D+00 0.000000000000000D+00 -.120153770628205D+03
 0.127893658289389D+03 0.604799377363775D+01 -.256173418311329D+02 -.624190671702522D+01
 0.102231655421886D+03 -.212448645551879D+02 0.405678981075792D+02 0.624190671702522D+01
 0.274076458139011D+02 0.151968707815502D+02 -.149505562764462D+02 0.172254182687659D+02
0.167869070031D-05 0.000000000000D+00 0.000000000000D+00 0.176957108308D-02 0.308677564070D-06  5 2 21 25 23 2 2 0.92247718D-01 0.42352203D-02 0.15762844D+05 0.15762844D+05 0.15762844D+05 0.12453740D+01  1  2  1  4  5  2       -2 0.579608852353D-01 0.100000000000D+01
  </mgrwgt>
  </event>
  <event>
  5     66 0.45228882E-03 0.26795062E+03 0.75467711E-02 0.10734838E+00
        2 -1    0    0  501    0 0.00000000E+00 0.00000000E+00 0.20862022E+04 0.20862022E+04 0.32000000E+00 0.0000E+00 0.9000E+01
       -2 -1    0    0    0  502 0.00000000E+00 0.00000000E+00 -.74682241E+02 0.74682927E+02 0.32000000E+00 0.0000E+00 0.9000E+01
       25  1    1    2    0    0 0.18260987E+03 0.81025207E+02 0.10308858E+04 0.10574791E+04 0.12500000E+03 0.0000E+00 0.9000E+01
       23  1    1    2    0    0 -.24453012E+03 -.16555079E+03 0.36210503E+03 0.47606444E+03 0.91188000E+02 0.0000E+00 0.9000E+01
       21  1    1    2  501  502 0.61920253E+02 0.84525587E+02 0.61852913E+03 0.62734164E+03 0.75000000E+00 0.0000E+00 0.9000E+01
#aMCatNLO 2  0  0  2  1 0.10477926D+03 0.00000000D+00  -5  5  0 0.00000000D+00 0.00000000D+00 0.00000000D+00 0.00000000D+00 0.00000000D+00
  <mgrwgt>
 0.7878145411D-02    1    2    0
 0.316367483658062D+03 0.000000000000000D+00 0.000000000000000D+00 0.316367483658062D+03
 0.316367483658062D+03 0.000000000000000D+00 0.000000000000000D+00 -.316367483658062D+03
 0.322143795252635D+03 0.212335907769391D+03 0.121603382736012D+03 0.168159758559173D+03
 0.310591172063489D+03 -.212335907769391D+03 -.121603382736012D+03 -.168159758559173D+03
 0.000000000000000D+00 0.000000000000000D+00 0.000000000000000D+00 0.000000000000000D+00
 0.457191476124655D+03 0.000000000000000D+00 0.000000000000000D+00 0.457191476124655D+03
 0.340781146122067D+03 0.000000000000000D+00 0.000000000000000D+00 -.340781146122067D+03
 0.289506739898809D+03 0.182609868129545D+03 0.810252066326745D+02 0.168159758559173D+03
 0.351845138130951D+03 -.244530121432325D+03 -.165550793401908D+03 -.168159758559173D+03
 0.156620744216962D+03 0.619202533027803D+02 0.845255867692334D+02 0.116410330002588D+03
0.165768829360D-03 0.000000000000D+00 0.000000000000D+00 0.728554346651D-03 0.484818940241D-06  5 2 -2 25 23 21 2 0.32095343D+00 0.11489601D-01 0.10546247D+06 0.10546247D+06 0.10546247D+06 0.11614558D+01  1  2  1  2  5  2       -2 0.787814541122D-02 0.100000000000D+01
  </mgrwgt>
  </event>
  <event>
  5     66 0.45228882E-03 0.11589515E+03 0.75467711E-02 0.11620773E+00
        2 -1    0    0  501    0 0.00000000E+00 0.00000000E+00 0.16907531E+04 0.16907532E+04 0.32000000E+00 0.0000E+00 0.9000E+01
       21 -1    0    0  502  501 0.00000000E+00 0.00000000E+00 -.35092752E+02 0.35100765E+02 0.75000000E+00 0.0000E+00 0.9000E+01
       25  1    1    2    0    0 -.52027580E+02 -.33097162E+02 0.17786326E+03 0.22597042E+03 0.12500000E+03 0.0000E+00 0.9000E+01
       23  1    1    2    0    0 -.60828261E+02 0.46480966E+02 0.43799630E+03 0.45389048E+03 0.91188000E+02 0.0000E+00 0.9000E+01
        2  1    1    2  502    0 0.11285584E+03 -.13383804E+02 0.10398008E+04 0.10459930E+04 0.32000000E+00 0.0000E+00 0.9000E+01
#aMCatNLO 2  0  0  2  1 0.11364668D+03 0.00000000D+00  -5  5  0 0.00000000D+00 0.00000000D+00 0.00000000D+00 0.00000000D+00 0.00000000D+00
  <mgrwgt>
 0.4832092003D-01    1    2    0
 0.132299166121204D+03 0.000000000000000D+00 0.000000000000000D+00 0.132299166121204D+03
 0.132299166121204D+03 0.000000000000000D+00 0.000000000000000D+00 -.132299166121204D+03
 0.146112081331311D+03 0.908371317535783D+01 -.403444745120325D+02 -.633525835484505D+02
 0.118486250911098D+03 -.908371317535783D+01 0.403444745120325D+02 0.633525835484505D+02
 0.000000000000000D+00 0.000000000000000D+00 -.000000000000000D+00 0.000000000000000D+00
 0.375768038437669D+03 0.000000000000000D+00 0.000000000000000D+00 0.375768038437669D+03
 0.157916698593166D+03 0.000000000000000D+00 0.000000000000000D+00 -.157916698593166D+03
 0.153104020434533D+03 -.520275803669541D+02 -.330971616927302D+02 -.633525835484505D+02
 0.134867930387185D+03 -.608282605179596D+02 0.464809658141743D+02 0.633525835484505D+02
 0.245712786209117D+03 0.112855840884914D+03 -.133838041214442D+02 0.217851339844503D+03
0.100377885789D-04 0.000000000000D+00 0.000000000000D+00 0.123323169603D-02 0.609753408325D-07  5 2 21 25 23 2 2 0.26011633D+00 0.53995003D-02 0.34612872D+05 0.34612872D+05 0.34612872D+05 0.12084326D+01  1  2  1  4  5  2       -2 0.483209200277D-01 0.100000000000D+01
  </mgrwgt>
  </event>
  <event>
  5     66 0.45228882E-03 0.13202960E+03 0.75467711E-02 0.12031179E+00
        2 -1    0    0  501    0 0.00000000E+00 0.00000000E+00 0.18941111E+03 0.18941138E+03 0.32000000E+00 0.0000E+00 0.9000E+01
       -2 -1    0    0    0  502 0.00000000E+00 0.00000000E+00 -.13789816E+03 0.13789853E+03 0.32000000E+00 0.0000E+00 0.9000E+01
       25  1    1    2    0    0 0.33281194E+02 0.75010775E+02 -.36767690E+02 0.15398415E+03 0.12500000E+03 0.0000E+00 0.9000E+01
       23  1    1    2    0    0 -.34004305E+01 -.71878359E+02 0.55128233E+02 0.12857852E+03 0.91188000E+02 0.0000E+00 0.9000E+01
       21  1    1    2  501  502 -.29880764E+02 -.31324159E+01 0.33152407E+02 0.44747253E+02 0.75000000E+00 0.0000E+00 0.9000E+01
#aMCatNLO 2  0  0  2  2 0.30044502D+02 0.00000000D+00  -5  5  0 0.00000000D+00 0.00000000D+00 0.00000000D+00 0.00000000D+00 0.00000000D+00
  <mgrwgt>
 0.2327553006D-01    1    2    0
 0.140180130916157D+03 0.000000000000000D+00 0.000000000000000D+00 0.140180130916157D+03
 0.140180130916157D+03 0.000000000000000D+00 0.000000000000000D+00 -.140180130916157D+03
 0.153216480305023D+03 0.168126736343604D+02 0.732843710647004D+02 -.468724311293472D+02
 0.127143781527291D+03 -.168126736343604D+02 -.732843710647004D+02 0.468724311293472D+02
 0.000000000000000D+00 -.000000000000000D+00 -.000000000000000D+00 0.000000000000000D+00
 0.177474947531225D+03 0.000000000000000D+00 0.000000000000000D+00 0.177474947531225D+03
 0.147166762857850D+03 0.000000000000000D+00 0.000000000000000D+00 -.147166762857850D+03
 0.156704431949607D+03 0.332811942741749D+02 0.750107745617794D+02 -.468724311293472D+02
 0.125261077444459D+03 -.340043049359879D+01 -.718783587112954D+02 0.468724311293472D+02
 0.426762009950083D+02 -.298807637805761D+02 -.313241585048395D+01 0.303081846733750D+02
0.462658528145D-04 0.000000000000D+00 0.000000000000D+00 0.129616605317D-02 0.119030655607D-04  5 2 -2 25 23 21 2 0.29139587D-01 0.21214690D-01 0.21864847D+05 0.21864847D+05 0.21864847D+05 0.12295863D+01  1  2  1  2  5  2       -2 0.232755300556D-01 0.100000000000D+01
  </mgrwgt>
  </event>
  <event>
  4     66 0.45228882E-03 0.14926095E+03 0.75467711E-02 0.10789148E+00
        2 -1    0    0  501    0 0.00000000E+00 0.00000000E+00 0.49393729E+03 0.49393740E+03 0.32000000E+00 0.0000E+00 0.9000E+01
       -2 -1    0    0    0  501 0.00000000E+00 0.00000000E+00 -.12501246E+03 0.12501287E+03 0.32000000E+00 0.0000E+00 0.9000E+01
       25  1    1    2    0    0 0.94066879E+02 0.40125110E+02 -.57203329E+02 0.17133541E+03 0.12500000E+03 0.0000E+00 0.9000E+01
       23  1    1    2    0    0 -.94066879E+02 -.40125110E+02 0.42612816E+03 0.44761486E+03 0.91188000E+02 0.0000E+00 0.9000E+01
#aMCatNLO 1  0  0  2  2 0.24306763D+03 0.00000000D+00  -5  5  0 0.00000000D+00 0.00000000D+00 0.00000000D+00 0.00000000D+00 0.00000000D+00
  <mgrwgt>
 0.9528338052D-01    5    2    0
 0.248492407209392D+03 0.000000000000000D+00 0.000000000000000D+00 0.248492407209392D+03
 0.248492407209392D+03 0.000000000000000D+00 0.000000000000000D+00 -.248492407209392D+03
 0.255846503797382D+03 0.940668786091234D+02 0.401251097817317D+02 -.198428403760864D+03
 0.241138310621403D+03 -.940668786091234D+02 -.401251097817317D+02 0.198428403760864D+03
 0.000000000000000D+00 0.000000000000000D+00 -.000000000000000D+00 -.000000000000000D+00
 0.333330689555337D+03 0.000000000000000D+00 0.000000000000000D+00 0.333330689555337D+03
 0.537076225436778D+03 0.000000000000000D+00 0.000000000000000D+00 -.537076225436778D+03
 0.297725595104511D+03 0.759412325856287D+02 0.166956963779969D+03 -.198428403760864D+03
 0.255515563397817D+03 -.110328847618268D+03 0.736659063518840D+02 0.198428403760864D+03
 0.317165756489788D+03 0.343876150326394D+02 -.240622870131853D+03 -.203745535881441D+03
0.597149333370D-03 0.000000000000D+00 0.000000000000D+00 0.429380379479D-03 0.000000000000D+00  5 2 -2 25 23 21 0 0.75990392D-01 0.19232726D-01 0.22278831D+05 0.22278831D+05 0.22278831D+05 0.12287000D+01  1  2  2  2  5  2       -2 0.839447385298D-01 0.100000000000D+01
-.226952644754D-04 0.000000000000D+00 -.229321067317D-05 0.429380379479D-03 0.000000000000D+00  5 2 -2 25 23 21 2 0.75990392D-01 0.19232726D-01 0.22278831D+05 0.22278831D+05 0.22278831D+05 0.12287000D+01  1  2  3  2  5  2       -2 -.481656594396D-02 0.100000000000D+01
0.406321169898D-04 0.000000000000D+00 0.000000000000D+00 0.429380379479D-03 0.000000000000D+00  5 2 -2 25 23 21 2 0.75990392D-01 0.19232726D-01 0.22278831D+05 0.22278831D+05 0.22278831D+05 0.12287000D+01  1  2 15  2  5  2       -2 0.862326460818D-02 0.100000000000D+01
0.504477202872D-04 0.000000000000D+00 -.164508782578D-03 0.429380379479D-03 0.000000000000D+00  5 2 -2 25 23 21 2 0.75990392D-01 0.53993344D-01 0.22278831D+05 0.22278831D+05 0.22278831D+05 0.12287000D+01  1  2  5  2  5  2       -2 0.161515665345D-02 0.100000000000D+01
0.149980124662D-04 0.000000000000D+00 -.190796393020D-04 0.429380379479D-03 0.000000000000D+00  5 2 21 25 23 2 2 0.75990392D-01 0.53993344D-01 0.22278831D+05 0.22278831D+05 0.22278831D+05 0.12287000D+01  1  2  5  4  5  2       -2 0.591678666903D-02 0.100000000000D+01
  </mgrwgt>
  </event>
  <event>
  4     66 0.45228882E-03 0.16640252E+03 0.75467711E-02 0.10934205E+00
        2 -1    0    0  501    0 0.00000000E+00 0.00000000E+00 0.59910940E+03 0.59910949E+03 0.32000000E+00 0.0000E+00 0.9000E+01
       -2 -1    0    0    0  501 0.00000000E+00 0.00000000E+00 -.50003121E+02 0.50004145E+02 0.32000000E+00 0.0000E+00 0.9000E+01
       25  1    1    2    0    0 0.67844280E+02 0.10600676E+03 0.20218159E+03 0.26896594E+03 0.12500000E+03 0.0000E+00 0.9000E+01
       23  1    1    2    0    0 -.67844280E+02 -.10600676E+03 0.34692468E+03 0.38014769E+03 0.91188000E+02 0.0000E+00 0.9000E+01
#aMCatNLO 1  0  0  2  1 0.18680449D+03 0.00000000D+00  -5  5  0 0.00000000D+00 0.00000000D+00 0.00000000D+00 0.00000000D+00 0.00000000D+00
  <mgrwgt>
 0.1551951790D+00    5    2    0
 0.173082927749792D+03 0.000000000000000D+00 0.000000000000000D+00 0.173082927749792D+03
 0.173082927749792D+03 0.000000000000000D+00 0.000000000000000D+00 -.173082927749792D+03
 0.183641087284982D+03 0.678442802437149D+02 0.106006758353888D+03 -.475265163958296D+02
 0.162524768214603D+03 -.678442802437149D+02 -.106006758353888D+03 0.475265163958296D+02
 0.000000000000000D+00 0.000000000000000D+00 -.000000000000000D+00 -.000000000000000D+00
 0.235596219058021D+03 0.000000000000000D+00 0.000000000000000D+00 0.235596219058021D+03
 0.420830283817512D+03 0.000000000000000D+00 0.000000000000000D+00 -.420830283817512D+03
 0.178054656449828D+03 -.230496940600094D+02 0.115275333556156D+03 -.475265163958296D+02
 0.215298515749678D+03 -.162791098001065D+03 -.963249095037156D+02 0.475265163958296D+02
 0.263073330676027D+03 0.185840792061074D+03 -.189504240524405D+02 -.185234064759491D+03
0.320727402325D-03 0.000000000000D+00 0.000000000000D+00 0.114387210523D-02 0.000000000000D+00  5 2 -2 25 23 21 0 0.92170762D-01 0.76928732D-02 0.27689800D+05 0.27689800D+05 0.27689800D+05 0.12185680D+01  1  2  2  2  5  2       -2 0.159142316102D+00 0.100000000000D+01
-.177846245086D-04 0.000000000000D+00 -.123167767439D-05 0.114387210523D-02 0.000000000000D+00  5 2 -2 25 23 21 2 0.92170762D-01 0.76928732D-02 0.27689800D+05 0.27689800D+05 0.27689800D+05 0.12185680D+01  1  2  3  2  5  2       -2 -.131036968914D-01 0.100000000000D+01
0.220554815275D-04 0.000000000000D+00 0.000000000000D+00 0.114387210523D-02 0.000000000000D+00  5 2 -2 25 23 21 2 0.92170762D-01 0.76928732D-02 0.27689800D+05 0.27689800D+05 0.27689800D+05 0.12185680D+01  1  2 15  2  5  2       -2 0.162504608736D-01 0.100000000000D+01
-.416004660635D-04 0.000000000000D+00 -.937257186341D-04 0.114387210523D-02 0.000000000000D+00  5 2 -2 25 23 21 2 0.92170762D-01 0.25166242D-01 0.27689800D+05 0.27689800D+05 0.27689800D+05 0.12185680D+01  1  2  5  2  5  2       -2 -.440806752723D-02 0.100000000000D+01
-.189031747049D-05 0.000000000000D+00 -.128443528754D-04 0.114387210523D-02 0.000000000000D+00  5 2 21 25 23 2 2 0.92170762D-01 0.25166242D-01 0.27689800D+05 0.27689800D+05 0.27689800D+05 0.12185680D+01  1  2  5  4  5  2       -2 -.268583355999D-02 0.100000000000D+01
  </mgrwgt>
  </event>
  <event>
  5     66 0.45228882E-03 0.21373184E+03 0.75467711E-02 0.10505860E+00
        2 -1    0    0  501    0 0.00000000E+00 0.00000000E+00 0.31184279E+04 0.31184279E+04 0.32000000E+00 0.0000E+00 0.9000E+01
       21 -1    0    0  502  501 0.00000000E+00 0.00000000E+00 -.64441125E+02 0.64445489E+02 0.75000000E+00 0.0000E+00 0.9000E+01
       25  1    1    2    0    0 0.56927206E+02 -.46192570E+02 0.13804990E+04 0.13880840E+04 0.12500000E+03 0.0000E+00 0.9000E+01
       23  1    1    2    0    0 -.24009896E+03 0.23913885E+03 0.12154098E+04 0.12650578E+04 0.91188000E+02 0.0000E+00 0.9000E+01
        2  1    1    2  502    0 0.18317176E+03 -.19294628E+03 0.45807785E+03 0.52973161E+03 0.32000000E+00 0.0000E+00 0.9000E+01
#aMCatNLO 2  0  0  2  1 0.26604541D+03 0.00000000D+00  -5  5  0 0.00000000D+00 0.00000000D+00 0.00000000D+00 0.00000000D+00 0.00000000D+00
  <mgrwgt>
 0.2566038067D-01    1    2    0
 0.239602836677281D+03 0.000000000000000D+00 0.000000000000000D+00 0.239602836677281D+03
 0.239602836677281D+03 0.000000000000000D+00 0.000000000000000D+00 -.239602836677281D+03
 0.247229779618951D+03 0.133257799519743D+03 -.126596364199173D+03 0.108227923241377D+03
 0.231975893735610D+03 -.133257799519743D+03 0.126596364199173D+03 -.108227923241377D+03
 0.000000000000000D+00 0.000000000000000D+00 -.000000000000000D+00 -.000000000000000D+00
 0.325625429754169D+03 0.000000000000000D+00 0.000000000000000D+00 0.325625429754169D+03
 0.617156647847408D+03 0.000000000000000D+00 0.000000000000000D+00 -.617156647847408D+03
 0.180866646104171D+03 0.569272058426841D+02 -.461925701685302D+02 0.108227923241377D+03
 0.367237574718625D+03 -.240098962019857D+03 0.239138850898518D+03 -.108227923241377D+03
 0.394677856778782D+03 0.183171756177172D+03 -.192946280729988D+03 -.291531218093239D+03
0.111234658595D-03 0.000000000000D+00 0.000000000000D+00 0.864047856624D-03 0.195206530587D-07  5 2 21 25 23 2 2 0.47975838D+00 0.99143544D-02 0.14511714D+06 0.14511714D+06 0.14511714D+06 0.11490019D+01  1  2  1  4  5  2       -2 0.256603806655D-01 0.100000000000D+01
  </mgrwgt>
  </event>
  <event>
  4     66 0.45228882E-03 0.91438291E+02 0.75467711E-02 0.12036529E+00
        2 -1    0    0  501    0 0.00000000E+00 0.00000000E+00 0.15330669E+02 0.15334008E+02 0.32000000E+00 0.0000E+00 0.9000E+01
       -2 -1    0    0    0  501 0.00000000E+00 0.00000000E+00 -.13696119E+04 0.13696119E+04 0.32000000E+00 0.0000E+00 0.9000E+01
       25  1    1    2    0    0 -.70935819E+02 -.64132339E+02 -.76757066E+03 0.78353977E+03 0.12500000E+03 0.0000E+00 0.9000E+01
       23  1    1    2    0    0 0.70935819E+02 0.64132339E+02 -.58671057E+03 0.60140618E+03 0.91188000E+02 0.0000E+00 0.9000E+01
#aMCatNLO 1  0  0  2  1 0.53133257D+01 0.00000000D+00  -5  5  0 0.00000000D+00 0.00000000D+00 0.00000000D+00 0.00000000D+00 0.00000000D+00
  <mgrwgt>
 0.1917398588D+00   11    2    0
 0.144911715014103D+03 0.000000000000000D+00 0.000000000000000D+00 0.144911715014103D+03
 0.144911715014103D+03 0.000000000000000D+00 0.000000000000000D+00 -.144911715014103D+03
 0.157522408109703D+03 -.709358191091104D+02 -.641323393223783D+02 -.659254708279605D+01
 0.132301021918502D+03 0.709358191091104D+02 0.641323393223783D+02 0.659254708279605D+01
 0.000000000000000D+00 0.000000000000000D+00 0.000000000000000D+00 -.000000000000000D+00
 0.146863736098267D+03 0.000000000000000D+00 0.000000000000000D+00 0.146863736098267D+03
 0.148597404803652D+03 0.000000000000000D+00 0.000000000000000D+00 -.148597404803652D+03
 0.159258524700888D+03 -.734672817147020D+02 -.655543631676566D+02 -.659254708279605D+01
 0.130613605770002D+03 0.688348133997344D+02 0.629521203409882D+02 0.659254708279605D+01
 0.558901043102953D+01 0.463246831496757D+01 0.260224282666839D+01 -.173366870538500D+01
0.155426097539D-02 0.000000000000D+00 0.000000000000D+00 0.138187004936D-02 0.000000000000D+00  5 2 -2 25 23 21 0 0.23588242D-02 0.21070978D+00 0.20955611D+05 0.20955611D+05 0.20955611D+05 0.12316007D+01  1  2  2  2  5  2       -2 0.821054980301D-01 0.100000000000D+01
-.863477175741D-04 0.000000000000D+00 -.596877139180D-05 0.138187004936D-02 0.000000000000D+00  5 2 -2 25 23 21 2 0.23588242D-02 0.21070978D+00 0.20955611D+05 0.20955611D+05 0.20955611D+05 0.12316007D+01  1  2  3  2  5  2       -2 -.691893101481D-02 0.100000000000D+01
0.107404677595D-03 0.000000000000D+00 0.000000000000D+00 0.138187004936D-02 0.000000000000D+00  5 2 -2 25 23 21 2 0.23588242D-02 0.21070978D+00 0.20955611D+05 0.20955611D+05 0.20955611D+05 0.12316007D+01  1  2 15  2  5  2       -2 0.860619800761D-02 0.100000000000D+01
0.106497258568D-02 0.000000000000D+00 0.000000000000D+00 0.138187004936D-02 0.000000000000D+00  5 2 -2 25 23 21 2 0.23588242D-02 0.21746036D+00 0.21738917D+05 0.21738917D+05 0.21738917D+05 0.12298597D+01  1  2 12  2  5  2       -2 0.775016321170D-01 0.100000000000D+01
-.424610460562D-02 0.000000000000D+00 0.000000000000D+00 0.138187004936D-02 0.000000000000D+00  5 2 -2 25 23 21 2 0.23588242D-02 0.21070978D+00 0.20955611D+05 0.20955611D+05 0.20955611D+05 0.12316007D+01  1  2  4  2  5  2       -2 -.340234874451D+00 0.100000000000D+01
-.329678837536D-01 0.000000000000D+00 -.435037992527D-02 0.138187004936D-02 0.000000000000D+00  5 2 -2 25 23 21 2 0.23588242D-02 0.21773291D+00 0.20955611D+05 0.20955611D+05 0.20955611D+05 0.12316007D+01  1  2  5  2  5  2       -2 -.239542519468D+01 0.100000000000D+01
0.330950681901D-01 0.000000000000D+00 0.434804261778D-02 0.138187004936D-02 0.000000000000D+00  5 2 -2 25 23 21 2 0.23588242D-02 0.21070978D+00 0.20955611D+05 0.20955611D+05 0.20955611D+05 0.12316007D+01  1  2  6  2  5  2       -2 0.265186504254D+01 0.100000000000D+01
0.326869523544D-02 0.000000000000D+00 0.000000000000D+00 0.138187004936D-02 0.394980346331D-03  5 2 -2 25 23 21 2 0.23905986D-02 0.21606898D+00 0.21738917D+05 0.21738917D+05 0.21738917D+05 0.12298597D+01  1  2 11  2  5  2       -2 0.238136048452D+00 0.100000000000D+01
0.223297880099D-04 0.000000000000D+00 0.000000000000D+00 0.138187004936D-02 0.000000000000D+00  5 2 21 25 23 2 2 0.23588242D-02 0.21746036D+00 0.21738917D+05 0.21738917D+05 0.21738917D+05 0.12298597D+01  1  2 12  4  5  2       -2 0.186465773696D-01 0.100000000000D+01
-.191384283924D-03 0.000000000000D+00 -.254767625239D-04 0.138187004936D-02 0.000000000000D+00  5 2 21 25 23 2 2 0.23588242D-02 0.21773291D+00 0.20955611D+05 0.20955611D+05 0.20955611D+05 0.12316007D+01  1  2  5  4  5  2       -2 -.159875395193D+00 0.100000000000D+01
0.207299174937D-04 0.000000000000D+00 0.000000000000D+00 0.138187004936D-02 0.180366830220D-05  5 2 21 25 23 2 2 0.23905986D-02 0.21606898D+00 0.21738917D+05 0.21738917D+05 0.21738917D+05 0.12298597D+01  1  2 11  4  5  2       -2 0.173332575794D-01 0.100000000000D+01
  </mgrwgt>
  </event>
  <event>
  4     66 0.45228882E-03 0.64667992E+02 0.75467711E-02 0.12531357E+00
        2 -1    0    0  501    0 0.00000000E+00 0.00000000E+00 0.23522965E+04 0.23522965E+04 0.32000000E+00 0.0000E+00 0.9000E+01
       -2 -1    0    0    0  501 0.00000000E+00 0.00000000E+00 -.53502839E+01 0.53598449E+01 0.32000000E+00 0.0000E+00 0.9000E+01
       25  1    1    2    0    0 0.87961409E+01 -.86608896E+01 0.16293039E+04 0.16341385E+04 0.12500000E+03 0.0000E+00 0.9000E+01
       23  1    1    2    0    0 -.87961409E+01 0.86608896E+01 0.71764235E+03 0.72351791E+03 0.91188000E+02 0.0000E+00 0.9000E+01
#aMCatNLO 1  0  0  1  2 0.10360950D+02 0.00000000D+00  -5  5  0 0.00000000D+00 0.00000000D+00 0.00000000D+00 0.00000000D+00 0.00000000D+00
  <mgrwgt>
 0.4992013758D+00    9    2    0
 0.112235246780003D+03 0.000000000000000D+00 0.000000000000000D+00 0.112235246780003D+03
 0.112235246780003D+03 0.000000000000000D+00 0.000000000000000D+00 -.112235246780003D+03
 0.128517450601251D+03 0.879614085277165D+01 -.866088959551730D+01 0.271910280526016D+02
 0.959530429587562D+02 -.879614085277165D+01 0.866088959551730D+01 -.271910280526016D+02
 0.000000000000000D+00 -.000000000000000D+00 -.000000000000000D+00 0.000000000000000D+00
 0.118325238856195D+03 0.000000000000000D+00 0.000000000000000D+00 0.118325238856195D+03
 0.116849730986043D+03 0.000000000000000D+00 0.000000000000000D+00 -.116849730986043D+03
 0.129030194083922D+03 0.147211542881676D+02 -.822961695348609D+01 0.271910280526016D+02
 0.956792889592715D+02 -.438754242563977D+01 0.898178471449972D+01 -.271910280526016D+02
 0.104654867990440D+02 -.103336118625279D+02 -.752167761013627D+00 0.147550787015202D+01
0.103289975920D-03 0.000000000000D+00 0.000000000000D+00 0.174654857241D-02 0.000000000000D+00  5 2 -2 25 23 21 0 0.36189251D+00 0.82385774D-03 0.11840465D+05 0.11840465D+05 0.11840465D+05 0.12597059D+01  1  2  2  1  5  1        2 0.137348684293D+00 0.100000000000D+01
-.573164528468D-05 0.000000000000D+00 -.396660704409D-06 0.174654857241D-02 0.000000000000D+00  5 2 -2 25 23 21 2 0.36189251D+00 0.82385774D-03 0.11840465D+05 0.11840465D+05 0.11840465D+05 0.12597059D+01  1  2  3  1  5  1        2 -.120943896035D-01 0.100000000000D+01
0.708624127150D-05 0.000000000000D+00 0.000000000000D+00 0.174654857241D-02 0.000000000000D+00  5 2 -2 25 23 21 2 0.36189251D+00 0.82385774D-03 0.11840465D+05 0.11840465D+05 0.11840465D+05 0.12597059D+01  1  2 15  1  5  1        2 0.149527332040D-01 0.100000000000D+01
0.228867457877D-03 0.000000000000D+00 0.000000000000D+00 0.174654857241D-02 0.000000000000D+00  5 2 -2 25 23 21 2 0.38861613D+00 0.82385774D-03 0.13021986D+05 0.13021986D+05 0.13021986D+05 0.12548852D+01  1  2 12  1  5  1        2 0.388952218166D+00 0.100000000000D+01
-.194127503414D-03 0.000000000000D+00 0.000000000000D+00 0.174654857241D-02 0.000000000000D+00  5 2 -2 25 23 21 2 0.36189251D+00 0.82385774D-03 0.11840465D+05 0.11840465D+05 0.11840465D+05 0.12597059D+01  1  2  4  1  5  1        2 -.409629965293D+00 0.100000000000D+01
-.924250496256D-03 0.000000000000D+00 -.161591087228D-03 0.174654857241D-02 0.000000000000D+00  5 2 -2 25 23 21 2 0.38808886D+00 0.82385774D-03 0.11840465D+05 0.11840465D+05 0.11840465D+05 0.12597059D+01  1  2  5  1  5  1        2 -.158737030773D+01 0.100000000000D+01
0.933656436363D-03 0.000000000000D+00 0.161197266512D-03 0.174654857241D-02 0.000000000000D+00  5 2 -2 25 23 21 2 0.36189251D+00 0.82385774D-03 0.11840465D+05 0.11840465D+05 0.11840465D+05 0.12597059D+01  1  2  6  1  5  1        2 0.197011575845D+01 0.100000000000D+01
0.279873441790D-05 0.000000000000D+00 0.000000000000D+00 0.174654857241D-02 0.000000000000D+00  5 21 -2 25 23 -2 2 0.38861613D+00 0.82385774D-03 0.13021986D+05 0.13021986D+05 0.13021986D+05 0.12548852D+01  1  2 12  3  5  1        2 0.106000152539D-02 0.100000000000D+01
-.106677640564D-04 0.000000000000D+00 -.191243517615D-05 0.174654857241D-02 0.000000000000D+00  5 21 -2 25 23 -2 2 0.38808886D+00 0.82385774D-03 0.11840465D+05 0.11840465D+05 0.11840465D+05 0.12597059D+01  1  2  5  3  5  1        2 -.413335720973D-02 0.100000000000D+01
  </mgrwgt>
  </event>
  <event>
  4     66 0.45228882E-03 0.80555396E+02 0.75467711E-02 0.12313198E+00
        2 -1    0    0  501    0 0.00000000E+00 0.00000000E+00 0.10901480E+04 0.10901481E+04 0.32000000E+00 0.0000E+00 0.9000E+01
       -2 -1    0    0    0  501 0.00000000E+00 0.00000000E+00 -.10836027E+02 0.10840751E+02 0.32000000E+00 0.0000E+00 0.9000E+01
       25  1    1    2    0    0 -.21959591E+01 0.41672912E+00 0.56695084E+03 0.58057148E+03 0.12500000E+03 0.0000E+00 0.9000E+01
       23  1    1    2    0    0 0.21959591E+01 -.41672912E+00 0.51236115E+03 0.52041733E+03 0.91188000E+02 0.0000E+00 0.9000E+01
#aMCatNLO 1  0  0  1  2 0.35697834D+02 0.00000000D+00  -5  5  0 0.00000000D+00 0.00000000D+00 0.00000000D+00 0.00000000D+00 0.00000000D+00
  <mgrwgt>
 0.1464053219D+00    9    2    0
 0.108699123490371D+03 0.000000000000000D+00 0.000000000000000D+00 0.108699123490371D+03
 0.108699123490371D+03 0.000000000000000D+00 0.000000000000000D+00 -.108699123490371D+03
 0.125511008492938D+03 -.219595911745370D+01 0.416729122066985D+00 -.110913188263501D+02
 0.918872384878034D+02 0.219595911745370D+01 -.416729122066985D+00 0.110913188263501D+02
 0.000000000000000D+00 0.000000000000000D+00 0.000000000000000D+00 0.000000000000000D+00
 0.162262206464910D+03 0.000000000000000D+00 0.000000000000000D+00 0.162262206464910D+03
 0.116268800568627D+03 0.000000000000000D+00 0.000000000000000D+00 -.116268800568627D+03
 0.127218142414792D+03 -.748000115493199D+01 -.195061013245799D+02 -.110913188263501D+02
 0.930914877239783D+02 -.167156214723451D+01 -.149987422587293D+02 0.110913188263501D+02
 0.582213768947663D+02 0.915156330216650D+01 0.345048435833091D+02 0.459934058962830D+02
0.507589754179D-04 0.000000000000D+00 0.000000000000D+00 0.189487333723D-02 0.000000000000D+00  5 2 -2 25 23 21 0 0.16771545D+00 0.16674480D-02 0.11689434D+05 0.11689434D+05 0.11689434D+05 0.12603609D+01  1  2  2  1  5  1        2 0.111338958241D+00 0.100000000000D+01
-.281984444978D-05 0.000000000000D+00 -.194927830750D-06 0.189487333723D-02 0.000000000000D+00  5 2 -2 25 23 21 2 0.16771545D+00 0.16674480D-02 0.11689434D+05 0.11689434D+05 0.11689434D+05 0.12603609D+01  1  2  3  1  5  1        2 -.982537928759D-02 0.100000000000D+01
0.347892607342D-05 0.000000000000D+00 0.000000000000D+00 0.189487333723D-02 0.000000000000D+00  5 2 -2 25 23 21 2 0.16771545D+00 0.16674480D-02 0.11689434D+05 0.11689434D+05 0.11689434D+05 0.12603609D+01  1  2 15  1  5  1        2 0.121218630296D-01 0.100000000000D+01
0.722454780847D-04 0.000000000000D+00 0.000000000000D+00 0.189487333723D-02 0.000000000000D+00  5 2 -2 25 23 21 2 0.25390218D+00 0.16674480D-02 0.16238399D+05 0.16238399D+05 0.16238399D+05 0.12439140D+01  1  2 12  1  5  1        2 0.124710368901D+00 0.100000000000D+01
-.777390414515D-04 0.000000000000D+00 0.000000000000D+00 0.189487333723D-02 0.000000000000D+00  5 2 -2 25 23 21 2 0.16771545D+00 0.16674480D-02 0.11689434D+05 0.11689434D+05 0.11689434D+05 0.12603609D+01  1  2  4  1  5  1        2 -.270871525476D+00 0.100000000000D+01
-.974441698417D-04 0.000000000000D+00 -.219051917890D-04 0.189487333723D-02 0.000000000000D+00  5 2 -2 25 23 21 2 0.25720918D+00 0.16674480D-02 0.11689434D+05 0.11689434D+05 0.11689434D+05 0.12603609D+01  1  2  5  1  5  1        2 -.167154635460D+00 0.100000000000D+01
0.994407983778D-04 0.000000000000D+00 0.200444352963D-04 0.189487333723D-02 0.000000000000D+00  5 2 -2 25 23 21 2 0.16771545D+00 0.16674480D-02 0.11689434D+05 0.11689434D+05 0.11689434D+05 0.12603609D+01  1  2  6  1  5  1        2 0.346488459958D+00 0.100000000000D+01
0.353142438279D-05 0.000000000000D+00 0.000000000000D+00 0.189487333723D-02 0.000000000000D+00  5 21 -2 25 23 -2 2 0.25390218D+00 0.16674480D-02 0.16238399D+05 0.16238399D+05 0.16238399D+05 0.12439140D+01  1  2 12  3  5  1        2 0.277064821953D-02 0.100000000000D+01
-.405621466982D-05 0.000000000000D+00 -.109547135167D-05 0.189487333723D-02 0.000000000000D+00  5 21 -2 25 23 -2 2 0.25720918D+00 0.16674480D-02 0.11689434D+05 0.11689434D+05 0.11689434D+05 0.12603609D+01  1  2  5  3  5  1        2 -.317343620146D-02 0.100000000000D+01
  </mgrwgt>
  </event>
  <event>
  4     66 0.45228882E-03 0.13301718E+03 0.75467711E-02 0.11910805E+00
        2 -1    0    0  501    0 0.00000000E+00 0.00000000E+00 0.28307831E+03 0.28307849E+03 0.32000000E+00 0.0000E+00 0.9000E+01
       -2 -1    0    0    0  501 0.00000000E+00 0.00000000E+00 -.86711755E+02 0.86712345E+02 0.32000000E+00 0.0000E+00 0.9000E+01
       25  1    1    2    0    0 0.71423006E+02 0.28477020E+02 0.81755404E+01 0.14698308E+03 0.12500000E+03 0.0000E+00 0.9000E+01
       23  1    1    2    0    0 -.71423006E+02 -.28477020E+02 0.18819101E+03 0.22280775E+03 0.91188000E+02 0.0000E+00 0.9000E+01
#aMCatNLO 1  0  0  1  2 0.45987203D+02 0.00000000D+00  -5  5  0 0.00000000D+00 0.00000000D+00 0.00000000D+00 0.00000000D+00 0.00000000D+00
  <mgrwgt>
 0.7311653495D-01    4    2    0
 0.156672777616833D+03 0.000000000000000D+00 0.000000000000000D+00 0.156672777616833D+03
 0.156672777616833D+03 0.000000000000000D+00 0.000000000000000D+00 -.156672777616833D+03
 0.168336815184797D+03 0.714230058132611D+02 0.284770196024071D+02 -.824627003057952D+02
 0.145008740048869D+03 -.714230058132611D+02 -.284770196024071D+02 0.824627003057952D+02
 0.000000000000000D+00 0.000000000000000D+00 -.000000000000000D+00 -.000000000000000D+00
 0.173389360441401D+03 0.000000000000000D+00 0.000000000000000D+00 0.173389360441401D+03
 0.193508408407954D+03 0.000000000000000D+00 0.000000000000000D+00 -.193508408407954D+03
 0.172293734205019D+03 0.667918108659180D+02 0.529045168755731D+02 -.824627003057952D+02
 0.144408428374317D+03 -.753579063395845D+02 -.772216627193191D+01 0.824627003057952D+02
 0.501956062700188D+02 0.856609547366647D+01 -.451823506036411D+02 -.201190479665523D+02
0.323055940448D-03 0.000000000000D+00 0.000000000000D+00 0.100186152893D-02 0.000000000000D+00  5 2 -2 25 23 21 0 0.43550568D-01 0.13340329D-01 0.17693570D+05 0.17693570D+05 0.17693570D+05 0.12397279D+01  1  2  2  1  5  1        2 0.149964166664D+00 0.100000000000D+01
-.173629183823D-04 0.000000000000D+00 -.124061987390D-05 0.100186152893D-02 0.000000000000D+00  5 2 -2 25 23 21 2 0.43550568D-01 0.13340329D-01 0.17693570D+05 0.17693570D+05 0.17693570D+05 0.12397279D+01  1  2  3  1  5  1        2 -.123875443541D-01 0.100000000000D+01
0.222082913012D-04 0.000000000000D+00 0.000000000000D+00 0.100186152893D-02 0.000000000000D+00  5 2 -2 25 23 21 2 0.43550568D-01 0.13340329D-01 0.17693570D+05 0.17693570D+05 0.17693570D+05 0.12397279D+01  1  2 15  1  5  1        2 0.158444673565D-01 0.100000000000D+01
-.112558340002D-03 0.000000000000D+00 0.000000000000D+00 0.100186152893D-02 0.000000000000D+00  5 2 -2 25 23 21 2 0.43550568D-01 0.13340329D-01 0.17693570D+05 0.17693570D+05 0.17693570D+05 0.12397279D+01  1  2  4  1  5  1        2 -.803045547124D-01 0.100000000000D+01
  </mgrwgt>
  </event>
  <event>
  4     66 0.45228882E-03 0.14914047E+03 0.75467711E-02 0.11033154E+00
        2 -1    0    0  501    0 0.00000000E+00 0.00000000E+00 0.15440695E+04 0.15440695E+04 0.32000000E+00 0.0000E+00 0.9000E+01
       -2 -1    0    0    0  501 0.00000000E+00 0.00000000E+00 -.14601565E+02 0.14605071E+02 0.32000000E+00 0.0000E+00 0.9000E+01
       25  1    1    2    0    0 -.30854964E+01 -.10204594E+03 0.73626954E+03 0.75375110E+03 0.12500000E+03 0.0000E+00 0.9000E+01
       23  1    1    2    0    0 0.30854964E+01 0.10204594E+03 0.79319839E+03 0.80492349E+03 0.91188000E+02 0.0000E+00 0.9000E+01
#aMCatNLO 1  0  0  1  2 0.18301984D+03 0.00000000D+00  -5  5  0 0.00000000D+00 0.00000000D+00 0.00000000D+00 0.00000000D+00 0.00000000D+00
  <mgrwgt>
 0.1772806557D+00    5    2    0
 0.150161878868521D+03 0.000000000000000D+00 0.000000000000000D+00 0.150161878868521D+03
 0.150161878868521D+03 0.000000000000000D+00 0.000000000000000D+00 -.150161878868521D+03
 0.162331659759449D+03 -.308549637453405D+01 -.102045939324613D+03 -.174262371078156D+02
 0.137992097977593D+03 0.308549637453405D+01 0.102045939324613D+03 0.174262371078156D+02
 0.000000000000000D+00 0.000000000000000D+00 0.000000000000000D+00 0.000000000000000D+00
 0.342144683448046D+03 0.000000000000000D+00 0.000000000000000D+00 0.342144683448046D+03
 0.226204681848039D+03 0.000000000000000D+00 0.000000000000000D+00 -.226204681848039D+03
 0.202030382310697D+03 -.104009489404068D+03 -.118615461685118D+03 -.174262371078156D+02
 0.149666391657271D+03 -.765925162906988D+02 0.889645443771216D+02 0.174262371078156D+02
 0.216652591328116D+03 0.180602005694767D+03 0.296509173079965D+02 0.115940001600007D+03
0.213045452613D-03 0.000000000000D+00 0.000000000000D+00 0.133057882104D-02 0.000000000000D+00  5 2 -2 25 23 21 0 0.23754943D+00 0.22466669D-02 0.22242881D+05 0.22242881D+05 0.22242881D+05 0.12287763D+01  1  2  2  1  5  1        2 0.176029325480D+00 0.100000000000D+01
-.118351880979D-04 0.000000000000D+00 -.818150634189D-06 0.133057882104D-02 0.000000000000D+00  5 2 -2 25 23 21 2 0.23754943D+00 0.22466669D-02 0.22242881D+05 0.22242881D+05 0.22242881D+05 0.12287763D+01  1  2  3  1  5  1        2 -.147650031428D-01 0.100000000000D+01
0.147202741762D-04 0.000000000000D+00 0.000000000000D+00 0.133057882104D-02 0.000000000000D+00  5 2 -2 25 23 21 2 0.23754943D+00 0.22466669D-02 0.22242881D+05 0.22242881D+05 0.22242881D+05 0.12287763D+01  1  2 15  1  5  1        2 0.183642957488D-01 0.100000000000D+01
-.423723795896D-04 0.000000000000D+00 -.648455251288D-04 0.133057882104D-02 0.000000000000D+00  5 2 -2 25 23 21 2 0.59946560D+00 0.22466669D-02 0.22242881D+05 0.22242881D+05 0.22242881D+05 0.12287763D+01  1  2  5  1  5  1        2 -.234701911358D-02 0.100000000000D+01
-.337409257858D-06 0.000000000000D+00 -.661731953740D-05 0.133057882104D-02 0.000000000000D+00  5 21 -2 25 23 -2 2 0.59946560D+00 0.22466669D-02 0.22242881D+05 0.22242881D+05 0.22242881D+05 0.12287763D+01  1  2  5  3  5  1        2 -.943228931706D-06 0.100000000000D+01
  </mgrwgt>
  </event>
  <event>
  5     66 0.45228882E-03 0.12079950E+03 0.75467711E-02 0.12286275E+00
        2 -1    0    0  501    0 0.00000000E+00 0.00000000E+00 0.70108219E+02 0.70108950E+02 0.32000000E+00 0.0000E+00 0.9000E+01
       21 -1    0    0  502  501 0.00000000E+00 0.00000000E+00 -.33172077E+03 0.33172162E+03 0.75000000E+00 0.0000E+00 0.9000E+01
       25  1    1    2    0    0 0.55549323E+02 -.27780110E+02 -.23641155E+03 0.27454122E+03 0.12500000E+03 0.0000E+00 0.9000E+01
       23  1    1    2    0    0 -.43527465E+02 0.16538877E+02 -.34911484E+02 0.10817688E+03 0.91188000E+02 0.0000E+00 0.9000E+01
        2  1    1    2  502    0 -.12021859E+02 0.11241233E+02 0.97104822E+01 0.19112464E+02 0.32000000E+00 0.0000E+00 0.9000E+01
#aMCatNLO 2  0  0  2  2 0.16458749D+02 0.00000000D+00  -5  5  0 0.00000000D+00 0.00000000D+00 0.00000000D+00 0.00000000D+00 0.00000000D+00
  <mgrwgt>
 0.2868635047D-01    1    2    0
 0.134709008290971D+03 0.000000000000000D+00 0.000000000000000D+00 0.134709008290971D+03
 0.134709008290971D+03 0.000000000000000D+00 0.000000000000000D+00 -.134709008290971D+03
 0.148274820905764D+03 0.488644416378699D+02 -.215293036359823D+02 -.592383148224641D+02
 0.121143195676177D+03 -.488644416378699D+02 0.215293036359823D+02 0.592383148224641D+02
 0.000000000000000D+00 -.000000000000000D+00 0.000000000000000D+00 0.000000000000000D+00
 0.169879585388010D+03 0.000000000000000D+00 0.000000000000000D+00 0.169879585388010D+03
 0.136899535619592D+03 0.000000000000000D+00 0.000000000000000D+00 -.136899535619592D+03
 0.151629943567372D+03 0.555493233324699D+02 -.277801101607566D+02 -.592383148224641D+02
 0.118290337380158D+03 -.435274645977966D+02 0.165388771140576D+02 0.592383148224641D+02
 0.368588400600715D+02 -.120218587346733D+02 0.112412330466990D+02 0.329800497684175D+02
0.719333171159D-05 0.000000000000D+00 0.000000000000D+00 0.125151821657D-02 0.129042649312D-06  5 2 21 25 23 2 2 0.10785947D-01 0.51033830D-01 0.16696121D+05 0.16696121D+05 0.16696121D+05 0.12425533D+01  1  2  1  4  5  2       -2 0.286863504663D-01 0.100000000000D+01
  </mgrwgt>
  </event>
  <event>
  4     66 0.45228882E-03 0.15609656E+03 0.75467711E-02 0.11014014E+00
        2 -1    0    0  501    0 0.00000000E+00 0.00000000E+00 0.14026234E+04 0.14026235E+04 0.32000000E+00 0.0000E+00 0.9000E+01
       -2 -1    0    0    0  501 0.00000000E+00 0.00000000E+00 -.18076618E+02 0.18079450E+02 0.32000000E+00 0.0000E+00 0.9000E+01
       25  1    1    2    0    0 0.11167410E+03 -.78716091E+01 0.60214283E+03 0.62508724E+03 0.12500000E+03 0.0000E+00 0.9000E+01
       23  1    1    2    0    0 -.11167410E+03 0.78716091E+01 0.78240398E+03 0.79561568E+03 0.91188000E+02 0.0000E+00 0.9000E+01
#aMCatNLO 1  0  0  2  2 0.17994415D+03 0.00000000D+00  -5  5  0 0.00000000D+00 0.00000000D+00 0.00000000D+00 0.00000000D+00 0.00000000D+00
  <mgrwgt>
 0.2528096594D+00    3    2    0
 0.159237953644953D+03 0.000000000000000D+00 0.000000000000000D+00 0.159237953644953D+03
 0.159237953644953D+03 0.000000000000000D+00 0.000000000000000D+00 -.159237953644953D+03
 0.170714094364989D+03 0.111674100040426D+03 -.787160910970059D+01 -.313884559200248D+02
 0.147761812924918D+03 -.111674100040426D+03 0.787160910970059D+01 0.313884559200248D+02
 0.000000000000000D+00 -.000000000000000D+00 0.000000000000000D+00 0.000000000000000D+00
 0.550329631041816D+03 0.000000000000000D+00 0.000000000000000D+00 0.550329631041816D+03
 0.204929303165996D+03 0.000000000000000D+00 0.000000000000000D+00 -.204929303165996D+03
 0.244909821102630D+03 0.190954587303654D+03 -.831079472443533D+02 -.313884559200248D+02
 0.120886298414767D+03 -.604293271177877D+02 -.407591346752129D+02 0.313884559200248D+02
 0.389462814690415D+03 -.130525260185867D+03 0.123867081919566D+03 0.345400327875820D+03
0.345085746507D-03 0.000000000000D+00 0.000000000000D+00 0.124730350309D-02 0.000000000000D+00  5 2 -2 25 23 21 0 0.21578844D+00 0.27812388D-02 0.24366136D+05 0.24366136D+05 0.24366136D+05 0.12244952D+01  1  2  2  2  5  2       -2 0.247866017290D+00 0.100000000000D+01
-.191621764344D-04 0.000000000000D+00 -.132522012975D-05 0.124730350309D-02 0.000000000000D+00  5 2 -2 25 23 21 2 0.21578844D+00 0.27812388D-02 0.24366136D+05 0.24366136D+05 0.24366136D+05 0.12244952D+01  1  2  3  2  5  2       -2 -.206371155520D-01 0.100000000000D+01
0.237524953773D-04 0.000000000000D+00 0.000000000000D+00 0.124730350309D-02 0.000000000000D+00  5 2 -2 25 23 21 2 0.21578844D+00 0.27812388D-02 0.24366136D+05 0.24366136D+05 0.24366136D+05 0.12244952D+01  1  2 15  2  5  2       -2 0.255807576673D-01 0.100000000000D+01
  </mgrwgt>
  </event>
  <event>
  5     66 0.45228882E-03 0.15136200E+03 0.75467711E-02 0.11628246E+00
        2 -1    0    0  501    0 0.00000000E+00 0.00000000E+00 0.89897958E+03 0.89897964E+03 0.32000000E+00 0.0000E+00 0.9000E+01
       21 -1    0    0  502  501 0.00000000E+00 0.00000000E+00 -.59068477E+02 0.59073238E+02 0.75000000E+00 0.0000E+00 0.9000E+01
       25  1    1    2    0    0 0.13066301E+03 0.48116702E+02 0.14195482E+03 0.23487062E+03 0.12500000E+03 0.0000E+00 0.9000E+01
       23  1    1    2    0    0 -.67899582E+02 -.37461534E+02 0.53508663E+03 0.54831257E+03 0.91188000E+02 0.0000E+00 0.9000E+01
        2  1    1    2  502    0 -.62763426E+02 -.10655168E+02 0.16286965E+03 0.17486968E+03 0.32000000E+00 0.0000E+00 0.9000E+01
#aMCatNLO 2  0  0  2  1 0.63661450D+02 0.00000000D+00  -5  5  0 0.00000000D+00 0.00000000D+00 0.00000000D+00 0.00000000D+00 0.00000000D+00
  <mgrwgt>
 0.3842302033D-01    1    2    0
 0.194253703883809D+03 0.000000000000000D+00 0.000000000000000D+00 0.194253703883809D+03
 0.194253703883809D+03 0.000000000000000D+00 0.000000000000000D+00 -.194253703883809D+03
 0.203661180433615D+03 0.964185679033898D+02 0.423031213463220D+02 -.121518649200159D+03
 0.184846227334002D+03 -.964185679033898D+02 -.423031213463220D+02 0.121518649200159D+03
 0.000000000000000D+00 -.000000000000000D+00 -.000000000000000D+00 0.000000000000000D+00
 0.242372606896980D+03 0.000000000000000D+00 0.000000000000000D+00 0.242372606896980D+03
 0.219098546640127D+03 0.000000000000000D+00 0.000000000000000D+00 -.219098546640127D+03
 0.223113918748781D+03 0.130663007759645D+03 0.481167022894234D+02 -.121518649200159D+03
 0.170574773135104D+03 -.678995819139736D+02 -.374615343862023D+02 0.121518649200159D+03
 0.677824616532225D+02 -.627634258456716D+02 -.106551679032210D+02 0.232740602568533D+02
0.708843953814D-05 0.000000000000D+00 0.000000000000D+00 0.751880222684D-03 0.298280723482D-07  5 2 21 25 23 2 2 0.13830469D+00 0.90878135D-02 0.34314384D+05 0.34314384D+05 0.34314384D+05 0.12088211D+01  1  2  1  4  5  2       -2 0.384230203331D-01 0.100000000000D+01
  </mgrwgt>
  </event>
  <event>
  5     66 0.45228882E-03 0.19967446E+03 0.75467711E-02 0.10934214E+00
        2 -1    0    0  501    0 0.00000000E+00 0.00000000E+00 0.22521176E+03 0.22521198E+03 0.32000000E+00 0.0000E+00 0.9000E+01
       -2 -1    0    0    0  502 0.00000000E+00 0.00000000E+00 -.49612583E+03 0.49612593E+03 0.32000000E+00 0.0000E+00 0.9000E+01
       25  1    1    2    0    0 -.14330802E+03 0.26000856E+02 -.10589954E+02 0.19222482E+03 0.12500000E+03 0.0000E+00 0.9000E+01
       23  1    1    2    0    0 0.13071146E+03 -.16934841E+03 -.10164883E+01 0.23255247E+03 0.91188000E+02 0.0000E+00 0.9000E+01
       21  1    1    2  501  502 0.12596563E+02 0.14334755E+03 -.25930763E+03 0.29656062E+03 0.75000000E+00 0.0000E+00 0.9000E+01
#aMCatNLO 2  0  0  2  1 0.14389995D+03 0.00000000D+00  -5  5  0 0.00000000D+00 0.00000000D+00 0.00000000D+00 0.00000000D+00 0.00000000D+00
  <mgrwgt>
 0.2572063544D-01    2    2    0
 0.199745990679321D+03 0.000000000000000D+00 0.000000000000000D+00 0.199745990679321D+03
 0.199745990679321D+03 0.000000000000000D+00 0.000000000000000D+00 -.199745990679321D+03
 0.208894795908327D+03 -.137180218401160D+03 0.957345878430707D+02 -.533967485051037D+01
 0.190597185450315D+03 0.137180218401160D+03 -.957345878430707D+02 0.533967485051037D+01
 0.000000000000000D+00 0.000000000000000D+00 0.000000000000000D+00 -.000000000000000D+00
 0.231451483025095D+03 0.000000000000000D+00 0.000000000000000D+00 0.231451483025095D+03
 0.482749339501454D+03 0.000000000000000D+00 0.000000000000000D+00 -.482749339501454D+03
 0.192007148632399D+03 -.143308019661741D+03 0.260008557371653D+02 -.533967485051037D+01
 0.232611548425524D+03 0.130711457028839D+03 -.169348410062831D+03 0.533967485051037D+01
 0.289582125468626D+03 0.125965626329022D+02 0.143347554325666D+03 -.251297856476359D+03
-.150111569979D-03 0.000000000000D+00 0.000000000000D+00 0.113741908049D-02 0.000000000000D+00  5 2 -2 25 23 21 2 0.29901658D-01 0.75298184D-01 0.80764833D+05 0.80764833D+05 0.80764833D+05 0.11721919D+01  1  2 13  2  5  2       -2 -.593704742271D-02 0.100000000000D+01
0.969681279204D-03 0.000000000000D+00 0.000000000000D+00 0.113741908049D-02 0.570552789193D-06  5 2 -2 25 23 21 2 0.34647920D-01 0.76326926D-01 0.80764833D+05 0.80764833D+05 0.80764833D+05 0.11721919D+01  1  2  1  2  5  2       -2 0.316576828614D-01 0.100000000000D+01
  </mgrwgt>
  </event>
  <event>
  4     66 0.45228882E-03 0.10877243E+03 0.75467711E-02 0.99980191E-01
        2 -1    0    0  501    0 0.00000000E+00 0.00000000E+00 0.87932270E+03 0.87932276E+03 0.32000000E+00 0.0000E+00 0.9000E+01
       -2 -1    0    0    0  501 0.00000000E+00 0.00000000E+00 -.19214180E+02 0.19216845E+02 0.32000000E+00 0.0000E+00 0.9000E+01
       25  1    1    2    0    0 -.35861437E+01 0.11433043E+02 0.23264548E+03 0.26437189E+03 0.12500000E+03 0.0000E+00 0.9000E+01
       23  1    1    2    0    0 0.35861437E+01 -.11433043E+02 0.62746304E+03 0.63416771E+03 0.91188000E+02 0.0000E+00 0.9000E+01
#aMCatNLO 1  0  0  2  2 0.53629830D+03 0.00000000D+00  -5  5  0 0.00000000D+00 0.00000000D+00 0.00000000D+00 0.00000000D+00 0.00000000D+00
  <mgrwgt>
 0.1889479482D+00    5    2    0
 0.129987260364715D+03 0.000000000000000D+00 0.000000000000000D+00 0.129987260364715D+03
 0.129987260364715D+03 0.000000000000000D+00 0.000000000000000D+00 -.129987260364715D+03
 0.144045847020612D+03 -.358614373530402D+01 0.114330428510262D+02 -.705735867599334D+02
 0.115928673708818D+03 0.358614373530402D+01 -.114330428510262D+02 0.705735867599334D+02
 0.000000000000000D+00 -.000000000000000D+00 -.000000000000000D+00 -.000000000000000D+00
 0.402398866689261D+03 0.000000000000000D+00 0.000000000000000D+00 0.402398866689261D+03
 0.986700129915406D+03 0.000000000000000D+00 0.000000000000000D+00 -.986700129915406D+03
 0.350590119928476D+03 0.875534704252088D+02 0.307639709497658D+03 -.705735867599334D+02
 0.245398651079235D+03 0.701628489635007D+02 0.204943382632061D+03 0.705735867599334D+02
 0.793110225596956D+03 -.157716319388709D+03 -.512583092129718D+03 -.584301263226145D+03
0.127393177329D-03 0.000000000000D+00 0.000000000000D+00 0.117975302479D-02 0.000000000000D+00  5 2 -2 25 23 21 0 0.13528062D+00 0.29562371D-02 0.11831442D+05 0.11831442D+05 0.11831442D+05 0.12597448D+01  1  2  2  2  5  2       -2 0.163062186974D+00 0.100000000000D+01
-.680420804349D-05 0.000000000000D+00 -.489223344337D-06 0.117975302479D-02 0.000000000000D+00  5 2 -2 25 23 21 2 0.13528062D+00 0.29562371D-02 0.11831442D+05 0.11831442D+05 0.11831442D+05 0.12597448D+01  1  2  3  2  5  2       -2 -.138213288618D-01 0.100000000000D+01
0.873995428949D-05 0.000000000000D+00 0.000000000000D+00 0.117975302479D-02 0.000000000000D+00  5 2 -2 25 23 21 2 0.13528062D+00 0.29562371D-02 0.11831442D+05 0.11831442D+05 0.11831442D+05 0.12597448D+01  1  2 15  2  5  2       -2 0.177533934442D-01 0.100000000000D+01
0.644097151113D-03 0.000000000000D+00 -.195250787254D-03 0.117975302479D-02 0.000000000000D+00  5 2 -2 25 23 21 2 0.13528062D+00 0.76304563D-01 0.11831442D+05 0.11831442D+05 0.11831442D+05 0.12597448D+01  1  2  5  2  5  2       -2 0.543099802530D-02 0.100000000000D+01
0.159787510695D-03 0.000000000000D+00 -.650424170627D-04 0.117975302479D-02 0.000000000000D+00  5 2 21 25 23 2 2 0.13528062D+00 0.76304563D-01 0.11831442D+05 0.11831442D+05 0.11831442D+05 0.12597448D+01  1  2  5  4  5  2       -2 0.165226986172D-01 0.100000000000D+01
  </mgrwgt>
  </event>
  <event>
  4     66 0.45228882E-03 0.14339206E+03 0.75467711E-02 0.10614775E+00
        2 -1    0    0  501    0 0.00000000E+00 0.00000000E+00 0.34793263E+03 0.34793278E+03 0.32000000E+00 0.0000E+00 0.9000E+01
       -2 -1    0    0    0  501 0.00000000E+00 0.00000000E+00 -.65617835E+02 0.65618615E+02 0.32000000E+00 0.0000E+00 0.9000E+01
       25  1    1    2    0    0 0.36420341E+02 -.86180821E+02 0.87494907E+02 0.17898026E+03 0.12500000E+03 0.0000E+00 0.9000E+01
       23  1    1    2    0    0 -.36420341E+02 0.86180821E+02 0.19481989E+03 0.23457113E+03 0.91188000E+02 0.0000E+00 0.9000E+01
#aMCatNLO 1  0  0  2  2 0.29564304D+03 0.00000000D+00  -5  5  0 0.00000000D+00 0.00000000D+00 0.00000000D+00 0.00000000D+00 0.00000000D+00
  <mgrwgt>
 0.1825180469D+00    3    2    0
 0.151098569013660D+03 0.000000000000000D+00 0.000000000000000D+00 0.151098569013660D+03
 0.151098569013660D+03 0.000000000000000D+00 0.000000000000000D+00 -.151098569013660D+03
 0.163192907007256D+03 0.364203410914897D+02 -.861808208832448D+02 -.474694613846484D+02
 0.139004231020063D+03 -.364203410914897D+02 0.861808208832448D+02 0.474694613846484D+02
 0.000000000000000D+00 0.000000000000000D+00 0.000000000000000D+00 0.000000000000000D+00
 0.367209484003105D+03 0.000000000000000D+00 0.000000000000000D+00 0.367209484003105D+03
 0.351607215142150D+03 0.000000000000000D+00 0.000000000000000D+00 -.351607215142150D+03
 0.292493353248460D+03 -.348680392318314D+02 -.257794941320631D+03 -.474694613846484D+02
 0.130268894158341D+03 -.785459143922847D+02 -.152290186607118D+02 0.474694613846484D+02
 0.296054451738454D+03 0.113413953624116D+03 0.273023959981343D+03 0.156022688609544D+02
0.306168005161D-03 0.000000000000D+00 0.000000000000D+00 0.122995545020D-02 0.000000000000D+00  5 2 -2 25 23 21 0 0.53528168D-01 0.10095123D-01 0.20561283D+05 0.20561283D+05 0.20561283D+05 0.12325049D+01  1  2  2  2  5  2       -2 0.178777139827D+00 0.100000000000D+01
-.169526575596D-04 0.000000000000D+00 -.117576575570D-05 0.122995545020D-02 0.000000000000D+00  5 2 -2 25 23 21 2 0.53528168D-01 0.10095123D-01 0.20561283D+05 0.20561283D+05 0.20561283D+05 0.12325049D+01  1  2  3  2  5  2       -2 -.150372109043D-01 0.100000000000D+01
0.211700830963D-04 0.000000000000D+00 0.000000000000D+00 0.122995545020D-02 0.000000000000D+00  5 2 -2 25 23 21 2 0.53528168D-01 0.10095123D-01 0.20561283D+05 0.20561283D+05 0.20561283D+05 0.12325049D+01  1  2 15  2  5  2       -2 0.187781180186D-01 0.100000000000D+01
  </mgrwgt>
  </event>
  <event>
  4     66 0.45228882E-03 0.10877858E+03 0.75467711E-02 0.11466050E+00
        2 -1    0    0  501    0 0.00000000E+00 0.00000000E+00 0.20768026E+04 0.20768026E+04 0.32000000E+00 0.0000E+00 0.9000E+01
       -2 -1    0    0    0  501 0.00000000E+00 0.00000000E+00 -.19125857E+02 0.19128534E+02 0.32000000E+00 0.0000E+00 0.9000E+01
       25  1    1    2    0    0 0.50407152E+02 -.15798036E+03 0.11729408E+04 0.11911817E+04 0.12500000E+03 0.0000E+00 0.9000E+01
       23  1    1    2    0    0 -.50407152E+02 0.15798036E+03 0.88473594E+03 0.90474947E+03 0.91188000E+02 0.0000E+00 0.9000E+01
#aMCatNLO 1  0  0  1  2 0.10475599D+02 0.00000000D+00  -5  5  0 0.00000000D+00 0.00000000D+00 0.00000000D+00 0.00000000D+00 0.00000000D+00
  <mgrwgt>
 0.4268092261D+00    9    2    0
 0.199307451364081D+03 0.000000000000000D+00 0.000000000000000D+00 0.199307451364081D+03
 0.199307451364081D+03 0.000000000000000D+00 0.000000000000000D+00 -.199307451364081D+03
 0.208476386852909D+03 0.504071517007652D+02 -.157980364051910D+03 0.184045512492386D+02
 0.190138515875253D+03 -.504071517007652D+02 0.157980364051910D+03 -.184045512492386D+02
 0.000000000000000D+00 0.000000000000000D+00 0.000000000000000D+00 0.000000000000000D+00
 0.208219885729049D+03 0.000000000000000D+00 0.000000000000000D+00 0.208219885729049D+03
 0.202478448122354D+03 0.000000000000000D+00 0.000000000000000D+00 -.202478448122354D+03
 0.210839723763719D+03 0.468234288849290D+02 -.162164201097325D+03 0.184045512492386D+02
 0.187912804555540D+03 -.536382012795484D+02 0.154208257329941D+03 -.184045512492386D+02
 0.119458055321440D+02 0.681477239461940D+01 0.795594376738333D+01 0.574143760669481D+01
0.410423284623D-03 0.000000000000D+00 0.000000000000D+00 0.113056193050D-02 0.000000000000D+00  5 2 -2 25 23 21 0 0.31950830D+00 0.29426473D-02 0.39384008D+05 0.39384008D+05 0.39384008D+05 0.12026853D+01  1  2  2  1  5  1        2 0.121305472907D+00 0.100000000000D+01
-.228007831224D-04 0.000000000000D+00 -.157613347989D-05 0.113056193050D-02 0.000000000000D+00  5 2 -2 25 23 21 2 0.31950830D+00 0.29426473D-02 0.39384008D+05 0.39384008D+05 0.39384008D+05 0.12026853D+01  1  2  3  1  5  1        2 -.974770064590D-02 0.100000000000D+01
0.282182995646D-04 0.000000000000D+00 0.000000000000D+00 0.113056193050D-02 0.000000000000D+00  5 2 -2 25 23 21 2 0.31950830D+00 0.29426473D-02 0.39384008D+05 0.39384008D+05 0.39384008D+05 0.12026853D+01  1  2 15  1  5  1        2 0.120637758544D-01 0.100000000000D+01
0.132602837276D-02 0.000000000000D+00 0.000000000000D+00 0.113056193050D-02 0.000000000000D+00  5 2 -2 25 23 21 2 0.33625837D+00 0.29426473D-02 0.41518107D+05 0.41518107D+05 0.41518107D+05 0.12003609D+01  1  2 12  1  5  1        2 0.495112584281D+00 0.100000000000D+01
-.129632155436D-02 0.000000000000D+00 0.000000000000D+00 0.113056193050D-02 0.000000000000D+00  5 2 -2 25 23 21 2 0.31950830D+00 0.29426473D-02 0.39384008D+05 0.39384008D+05 0.39384008D+05 0.12026853D+01  1  2  4  1  5  1        2 -.554198265249D+00 0.100000000000D+01
-.676246976757D-02 0.000000000000D+00 -.943476285972D-03 0.113056193050D-02 0.000000000000D+00  5 2 -2 25 23 21 2 0.33594655D+00 0.29426473D-02 0.39384008D+05 0.39384008D+05 0.39384008D+05 0.12026853D+01  1  2  5  1  5  1        2 -.254173779727D+01 0.100000000000D+01
0.680242659609D-02 0.000000000000D+00 0.942290206964D-03 0.113056193050D-02 0.000000000000D+00  5 2 -2 25 23 21 2 0.31950830D+00 0.29426473D-02 0.39384008D+05 0.39384008D+05 0.39384008D+05 0.12026853D+01  1  2  6  1  5  1        2 0.290814652148D+01 0.100000000000D+01
0.180704236893D-04 0.000000000000D+00 0.000000000000D+00 0.113056193050D-02 0.000000000000D+00  5 21 -2 25 23 -2 2 0.33625837D+00 0.29426473D-02 0.41518107D+05 0.41518107D+05 0.41518107D+05 0.12003609D+01  1  2 12  3  5  1        2 0.182587056653D-02 0.100000000000D+01
-.582532092549D-04 0.000000000000D+00 -.824387490998D-05 0.113056193050D-02 0.000000000000D+00  5 21 -2 25 23 -2 2 0.33594655D+00 0.29426473D-02 0.39384008D+05 0.39384008D+05 0.39384008D+05 0.12026853D+01  1  2  5  3  5  1        2 -.596123581067D-02 0.100000000000D+01
  </mgrwgt>
  </event>
  <event>
  5     66 -.45228882E-03 0.16729262E+03 0.75467711E-02 0.11776952E+00
        2 -1    0    0  501    0 0.00000000E+00 0.00000000E+00 0.11182787E+04 0.11182787E+04 0.32000000E+00 0.0000E+00 0.9000E+01
       -2 -1    0    0    0  502 0.00000000E+00 0.00000000E+00 -.33745037E+02 0.33746554E+02 0.32000000E+00 0.0000E+00 0.9000E+01
       25  1    1    2    0    0 0.11362965E+03 -.63235522E+02 0.84205626E+03 0.86115862E+03 0.12500000E+03 0.0000E+00 0.9000E+01
       23  1    1    2    0    0 -.10840397E+03 0.60879240E+02 0.22762947E+03 0.27493295E+03 0.91188000E+02 0.0000E+00 0.9000E+01
       21  1    1    2  501  502 -.52256825E+01 0.23562818E+01 0.14847917E+02 0.15933705E+02 0.75000000E+00 0.0000E+00 0.9000E+01
#aMCatNLO 2  0  0  2  1 0.57323487D+01 0.00000000D+00  -5  5  0 0.00000000D+00 0.00000000D+00 0.00000000D+00 0.00000000D+00 0.00000000D+00
  <mgrwgt>
 -.3954907075D-01    3    2    0
 0.191339784192897D+03 0.000000000000000D+00 0.000000000000000D+00 0.191339784192897D+03
 0.191339784192897D+03 0.000000000000000D+00 0.000000000000000D+00 -.191339784192897D+03
 0.200890527503853D+03 0.110873448088368D+03 -.619927381179029D+02 0.927145240532313D+02
 0.181789040881941D+03 -.110873448088368D+03 0.619927381179029D+02 -.927145240532313D+02
 0.000000000000000D+00 -.000000000000000D+00 0.000000000000000D+00 -.000000000000000D+00
 0.194007372023835D+03 0.000000000000000D+00 0.000000000000000D+00 0.194007372023835D+03
 0.194465776073883D+03 0.000000000000000D+00 0.000000000000000D+00 -.194465776073883D+03
 0.202808806859276D+03 0.113629652470856D+03 -.632355220474898D+02 0.927145240532313D+02
 0.179913692977209D+03 -.108403970000689D+03 0.608792402578260D+02 -.927145240532313D+02
 0.575064826123234D+01 -.522568247016726D+01 0.235628178966378D+01 -.458404050047552D+00
-.154763306252D-03 0.000000000000D+00 0.000000000000D+00 0.919438465711D-03 0.000000000000D+00  5 2 -2 25 23 21 2 0.16965614D+00 0.52260807D-02 0.28949823D+05 0.28949823D+05 0.28949823D+05 0.12165260D+01  1  2 13  2  5  2       -2 -.942552932263D-01 0.100000000000D+01
-.703949381307D-03 0.000000000000D+00 0.000000000000D+00 0.919438465711D-03 0.000000000000D+00  5 2 -2 25 23 21 2 0.16965614D+00 0.51075691D-02 0.27986822D+05 0.27986822D+05 0.27986822D+05 0.12180774D+01  1  2  8  2  5  2       -2 -.444792321753D+00 0.100000000000D+01
0.828563937525D-03 0.000000000000D+00 0.000000000000D+00 0.919438465711D-03 0.220884147358D-03  5 2 -2 25 23 21 2 0.17202143D+00 0.51910135D-02 0.28949823D+05 0.28949823D+05 0.28949823D+05 0.12165260D+01  1  2  1  2  5  2       -2 0.499498544224D+00 0.100000000000D+01
  </mgrwgt>
  </event>
  <event>
  4     66 0.45228882E-03 0.10818043E+03 0.75467711E-02 0.11472843E+00
        4 -1    0    0  501    0 0.00000000E+00 0.00000000E+00 0.17368855E+02 0.17437879E+02 0.15500000E+01 0.0000E+00 0.9000E+01
       -4 -1    0    0    0  501 0.00000000E+00 0.00000000E+00 -.70262584E+03 0.70262755E+03 0.15500000E+01 0.0000E+00 0.9000E+01
       25  1    1    2    0    0 0.33425164E+01 -.26577414E+01 -.46763834E+03 0.48407526E+03 0.12500000E+03 0.0000E+00 0.9000E+01
       23  1    1    2    0    0 -.33425164E+01 0.26577414E+01 -.21761864E+03 0.23599017E+03 0.91188000E+02 0.0000E+00 0.9000E+01
#aMCatNLO 1  0  0  2  1 0.14525981D+03 0.00000000D+00  -5  5  0 0.00000000D+00 0.00000000D+00 0.00000000D+00 0.00000000D+00 0.00000000D+00
  <mgrwgt>
 0.4004442802D-01    5    2    0
 0.110586037580781D+03 0.000000000000000D+00 0.000000000000000D+00 0.110586037580781D+03
 0.110586037580781D+03 0.000000000000000D+00 0.000000000000000D+00 -.110586037580781D+03
 0.127111063741204D+03 0.334251641120549D+01 -.265774137527150D+01 -.226712708122745D+02
 0.940610114203568D+02 -.334251641120549D+01 0.265774137527150D+01 0.226712708122745D+02
 0.000000000000000D+00 -.000000000000000D+00 -.000000000000000D+00 -.000000000000000D+00
 0.200952745931999D+03 0.000000000000000D+00 0.000000000000000D+00 0.200952745931999D+03
 0.209146161136292D+03 0.000000000000000D+00 0.000000000000000D+00 -.209146161136292D+03
 0.150672197593815D+03 0.156061656472218D+02 0.794957370007824D+02 -.226712708122745D+02
 0.113936003765068D+03 0.584019108568728D+01 0.641721688724382D+02 0.226712708122745D+02
 0.145490705709408D+03 -.214463567329091D+02 -.143667905873221D+03 -.819341520429385D+01
0.516623851738D-03 0.000000000000D+00 0.000000000000D+00 0.180603588555D-02 0.000000000000D+00  5 4 -4 25 23 21 0 0.26775726D-02 0.10810172D+00 0.11703005D+05 0.11703005D+05 0.11703005D+05 0.12603017D+01  1  2  2  2  5  2       -4 0.375427507233D-01 0.100000000000D+01
-.286844453218D-04 0.000000000000D+00 -.198397162086D-05 0.180603588555D-02 0.000000000000D+00  5 4 -4 25 23 21 2 0.26775726D-02 0.10810172D+00 0.11703005D+05 0.11703005D+05 0.11703005D+05 0.12603017D+01  1  2  3  2  5  2       -4 -.331090809726D-02 0.100000000000D+01
0.354951278569D-04 0.000000000000D+00 0.000000000000D+00 0.180603588555D-02 0.000000000000D+00  5 4 -4 25 23 21 2 0.26775726D-02 0.10810172D+00 0.11703005D+05 0.11703005D+05 0.11703005D+05 0.12603017D+01  1  2 15  2  5  2       -4 0.409703255254D-02 0.100000000000D+01
0.250658022176D-04 0.000000000000D+00 -.129165122725D-03 0.180603588555D-02 0.000000000000D+00  5 4 -4 25 23 21 2 0.26775726D-02 0.30062653D+00 0.11703005D+05 0.11703005D+05 0.11703005D+05 0.12603017D+01  1  2  5  2  5  2       -4 0.158805824067D-03 0.100000000000D+01
0.101451737834D-04 0.000000000000D+00 -.148170284137D-04 0.180603588555D-02 0.000000000000D+00  5 4 21 25 23 4 2 0.26775726D-02 0.30062653D+00 0.11703005D+05 0.11703005D+05 0.11703005D+05 0.12603017D+01  1  2  5  4  5  2       -4 0.155674702017D-02 0.100000000000D+01
  </mgrwgt>
  </event>
  <event>
  5     66 0.45228882E-03 0.14529537E+03 0.75467711E-02 0.11718776E+00
       21 -1    0    0  501  502 0.00000000E+00 0.00000000E+00 0.62300871E+02 0.62305385E+02 0.75000000E+00 0.0000E+00 0.9000E+01
       -2 -1    0    0    0  501 0.00000000E+00 0.00000000E+00 -.55098859E+03 0.55098868E+03 0.32000000E+00 0.0000E+00 0.9000E+01
       25  1    1    2    0    0 -.64493088E+02 0.60400246E+02 -.12090763E+03 0.19506717E+03 0.12500000E+03 0.0000E+00 0.9000E+01
       23  1    1    2    0    0 0.10723902E+03 -.24660048E+02 -.27747307E+03 0.31211357E+03 0.91188000E+02 0.0000E+00 0.9000E+01
       -2  1    1    2    0  502 -.42745935E+02 -.35740198E+02 -.90307022E+02 0.10611332E+03 0.32000000E+00 0.0000E+00 0.9000E+01
#aMCatNLO 2  0  0  1  1 0.55718728D+02 0.00000000D+00  -5  5  0 0.00000000D+00 0.00000000D+00 0.00000000D+00 0.00000000D+00 0.00000000D+00
  <mgrwgt>
 0.3431717120D-01    1    2    0
 0.154451086339819D+03 0.000000000000000D+00 0.000000000000000D+00 0.154451086339819D+03
 0.154451086339819D+03 0.000000000000000D+00 0.000000000000000D+00 -.154451086339819D+03
 0.166282904472709D+03 -.870071258479819D+02 0.415760893206916D+02 0.522129597739052D+02
 0.142619268206930D+03 0.870071258479819D+02 -.415760893206916D+02 -.522129597739052D+02
 0.000000000000000D+00 -.000000000000000D+00 -.000000000000000D+00 -.000000000000000D+00
 0.179743640022975D+03 0.000000000000000D+00 0.000000000000000D+00 0.179743640022975D+03
 0.190984861120845D+03 0.000000000000000D+00 0.000000000000000D+00 -.190984861120845D+03
 0.161736641604596D+03 -.644930875605838D+02 0.604002460763612D+02 0.522129597739052D+02
 0.152150486140793D+03 0.107239022436814D+03 -.246600484047517D+02 -.522129597739052D+02
 0.568413733984304D+02 -.427459348762297D+02 -.357401976716095D+02 -.112412210978702D+02
0.259904559063D-04 0.000000000000D+00 0.000000000000D+00 0.119214693448D-02 0.912870907662D-07  5 21 -2 25 23 -2 2 0.95850804D-02 0.84767623D-01 0.30924409D+05 0.30924409D+05 0.30924409D+05 0.12135175D+01  1  2  1  3  5  1        2 0.343171711963D-01 0.100000000000D+01
  </mgrwgt>
  </event>
  <event>
  4     66 0.45228882E-03 0.12063553E+03 0.75467711E-02 0.95733017E-01
        2 -1    0    0  501    0 0.00000000E+00 0.00000000E+00 0.39556117E+03 0.39556130E+03 0.32000000E+00 0.0000E+00 0.9000E+01
       -2 -1    0    0    0  501 0.00000000E+00 0.00000000E+00 -.50192429E+02 0.50193450E+02 0.32000000E+00 0.0000E+00 0.9000E+01
       25  1    1    2    0    0 -.52382748E+02 0.82660659E+01 0.74076750E+02 0.15467594E+03 0.12500000E+03 0.0000E+00 0.9000E+01
       23  1    1    2    0    0 0.52382748E+02 -.82660659E+01 0.27129199E+03 0.29107881E+03 0.91188000E+02 0.0000E+00 0.9000E+01
#aMCatNLO 1  0  0  2  1 0.77370890D+03 0.00000000D+00  -5  5  0 0.00000000D+00 0.00000000D+00 0.00000000D+00 0.00000000D+00 0.00000000D+00
  <mgrwgt>
 0.1744467727D+00    5    2    0
 0.140905756519279D+03 0.000000000000000D+00 0.000000000000000D+00 0.140905756519279D+03
 0.140905756519279D+03 0.000000000000000D+00 0.000000000000000D+00 -.140905756519279D+03
 0.153874972320976D+03 -.523827482060289D+02 0.826606586750572D+01 -.723894118793565D+02
 0.127936540717581D+03 0.523827482060289D+02 -.826606586750572D+01 0.723894118793565D+02
 0.000000000000000D+00 0.000000000000000D+00 -.000000000000000D+00 -.000000000000000D+00
 0.760033844974518D+03 0.000000000000000D+00 0.000000000000000D+00 0.760033844974518D+03
 0.841372596481287D+03 0.000000000000000D+00 0.000000000000000D+00 -.841372596481287D+03
 0.575341692358156D+03 -.447695182872075D+03 0.331242900673278D+03 -.723894118793565D+02
 0.248092090237045D+03 -.151464476914946D+03 0.158280507880247D+03 0.723894118793565D+02
 0.777972658860605D+03 0.599159659787020D+03 -.489523408553525D+03 -.813387515067689D+02
0.211491561963D-03 0.000000000000D+00 0.000000000000D+00 0.111658299074D-02 0.000000000000D+00  5 2 -2 25 23 21 0 0.60855653D-01 0.77220006D-02 0.14552931D+05 0.14552931D+05 0.14552931D+05 0.12493234D+01  1  2  2  2  5  2       -2 0.161651563311D+00 0.100000000000D+01
-.114049097397D-04 0.000000000000D+00 -.812183284944D-06 0.111658299074D-02 0.000000000000D+00  5 2 -2 25 23 21 2 0.60855653D-01 0.77220006D-02 0.14552931D+05 0.14552931D+05 0.14552931D+05 0.12493234D+01  1  2  3  2  5  2       -2 -.136059369580D-01 0.100000000000D+01
0.145090377679D-04 0.000000000000D+00 0.000000000000D+00 0.111658299074D-02 0.000000000000D+00  5 2 -2 25 23 21 2 0.60855653D-01 0.77220006D-02 0.14552931D+05 0.14552931D+05 0.14552931D+05 0.12493234D+01  1  2 15  2  5  2       -2 0.173091289364D-01 0.100000000000D+01
0.146193845306D-02 0.000000000000D+00 -.352493331322D-03 0.111658299074D-02 0.000000000000D+00  5 2 -2 25 23 21 2 0.60855653D-01 0.21861793D+00 0.14552931D+05 0.14552931D+05 0.14552931D+05 0.12493234D+01  1  2  5  2  5  2       -2 0.219964752690D-02 0.100000000000D+01
0.390581932540D-03 0.000000000000D+00 -.118677881169D-03 0.111658299074D-02 0.000000000000D+00  5 2 21 25 23 2 2 0.60855653D-01 0.21861793D+00 0.14552931D+05 0.14552931D+05 0.14552931D+05 0.12493234D+01  1  2  5  4  5  2       -2 0.689236988868D-02 0.100000000000D+01
  </mgrwgt>
  </event>
  <event>
  4     66 0.45228882E-03 0.83728172E+02 0.75467711E-02 0.11553124E+00
        2 -1    0    0  501    0 0.00000000E+00 0.00000000E+00 0.86511775E+03 0.86511781E+03 0.32000000E+00 0.0000E+00 0.9000E+01
       -2 -1    0    0    0  501 0.00000000E+00 0.00000000E+00 -.52929920E+02 0.52930888E+02 0.32000000E+00 0.0000E+00 0.9000E+01
       25  1    1    2    0    0 -.11025477E+03 0.87367157E+02 0.67705848E+03 0.70272492E+03 0.12500000E+03 0.0000E+00 0.9000E+01
       23  1    1    2    0    0 0.11025477E+03 -.87367157E+02 0.13512935E+03 0.21532378E+03 0.91188000E+02 0.0000E+00 0.9000E+01
#aMCatNLO 1  0  0  2  1 0.30523672D+02 0.00000000D+00  -5  5  0 0.00000000D+00 0.00000000D+00 0.00000000D+00 0.00000000D+00 0.00000000D+00
  <mgrwgt>
 0.1312830548D+00    9    2    0
 0.213988515793282D+03 0.000000000000000D+00 0.000000000000000D+00 0.213988515793282D+03
 0.213988515793282D+03 0.000000000000000D+00 0.000000000000000D+00 -.213988515793282D+03
 0.222528400082051D+03 -.110254772266409D+03 0.873671565839397D+02 0.118763437075545D+03
 0.205448631504513D+03 0.110254772266409D+03 -.873671565839397D+02 -.118763437075545D+03
 0.000000000000000D+00 0.000000000000000D+00 -.000000000000000D+00 -.000000000000000D+00
 0.222448202277518D+03 0.000000000000000D+00 0.000000000000000D+00 0.222448202277518D+03
 0.243955984563229D+03 0.000000000000000D+00 0.000000000000000D+00 -.243955984563229D+03
 0.232108665213663D+03 -.126071428555076D+03 0.908332174006514D+02 0.118763437075545D+03
 0.196955472353819D+03 0.962552814951577D+02 -.842993092759773D+02 -.118763437075545D+03
 0.373400492732648D+02 0.298161470599179D+02 -.653390812467411D+01 -.215077822857101D+02
0.427947558679D-03 0.000000000000D+00 0.000000000000D+00 0.797696965358D-03 0.000000000000D+00  5 2 -2 25 23 21 0 0.13309512D+00 0.81431436D-02 0.31653759D+05 0.31653759D+05 0.31653759D+05 0.12124601D+01  1  2  2  2  5  2       -2 0.124728725331D+00 0.100000000000D+01
-.227896302644D-04 0.000000000000D+00 -.164343130651D-05 0.797696965358D-03 0.000000000000D+00  5 2 -2 25 23 21 2 0.13309512D+00 0.81431436D-02 0.31653759D+05 0.31653759D+05 0.31653759D+05 0.12124601D+01  1  2  3  2  5  2       -2 -.976445815822D-02 0.100000000000D+01
0.294754875889D-04 0.000000000000D+00 0.000000000000D+00 0.797696965358D-03 0.000000000000D+00  5 2 -2 25 23 21 2 0.13309512D+00 0.81431436D-02 0.31653759D+05 0.31653759D+05 0.31653759D+05 0.12124601D+01  1  2 15  2  5  2       -2 0.126290844527D-01 0.100000000000D+01
0.758290690337D-03 0.000000000000D+00 0.000000000000D+00 0.797696965358D-03 0.000000000000D+00  5 2 -2 25 23 21 2 0.13309512D+00 0.94286504D-02 0.37455229D+05 0.37455229D+05 0.37455229D+05 0.12049101D+01  1  2 12  2  5  2       -2 0.255472927188D+00 0.100000000000D+01
-.763187435535D-03 0.000000000000D+00 0.000000000000D+00 0.797696965358D-03 0.000000000000D+00  5 2 -2 25 23 21 2 0.13309512D+00 0.81431436D-02 0.31653759D+05 0.31653759D+05 0.31653759D+05 0.12124601D+01  1  2  4  2  5  2       -2 -.326995729844D+00 0.100000000000D+01
-.147517293568D-02 0.000000000000D+00 -.316035997513D-03 0.797696965358D-03 0.000000000000D+00  5 2 -2 25 23 21 2 0.13309512D+00 0.96454570D-02 0.31653759D+05 0.31653759D+05 0.31653759D+05 0.12124601D+01  1  2  5  2  5  2       -2 -.484820624260D+00 0.100000000000D+01
0.151144210989D-02 0.000000000000D+00 0.311559715231D-03 0.797696965358D-03 0.000000000000D+00  5 2 -2 25 23 21 2 0.13309512D+00 0.81431436D-02 0.31653759D+05 0.31653759D+05 0.31653759D+05 0.12124601D+01  1  2  6  2  5  2       -2 0.647593360200D+00 0.100000000000D+01
0.169764173237D-04 0.000000000000D+00 0.000000000000D+00 0.797696965358D-03 0.000000000000D+00  5 2 21 25 23 2 2 0.13309512D+00 0.94286504D-02 0.37455229D+05 0.37455229D+05 0.37455229D+05 0.12049101D+01  1  2 12  4  5  2       -2 0.900436007365D-01 0.100000000000D+01
-.343540777526D-04 0.000000000000D+00 -.794301139070D-05 0.797696965358D-03 0.000000000000D+00  5 2 21 25 23 2 2 0.13309512D+00 0.96454570D-02 0.31653759D+05 0.31653759D+05 0.31653759D+05 0.12124601D+01  1  2  5  4  5  2       -2 -.177603830820D+00 0.100000000000D+01
  </mgrwgt>
  </event>
  <event>
  4     66 0.45228882E-03 0.15749180E+03 0.75467711E-02 0.11793184E+00
        2 -1    0    0  501    0 0.00000000E+00 0.00000000E+00 0.38447802E+02 0.38449134E+02 0.32000000E+00 0.0000E+00 0.9000E+01
       -2 -1    0    0    0  501 0.00000000E+00 0.00000000E+00 -.65267926E+03 0.65267934E+03 0.32000000E+00 0.0000E+00 0.9000E+01
       25  1    1    2    0    0 -.10837062E+03 0.34985552E+02 -.36658653E+03 0.40370641E+03 0.12500000E+03 0.0000E+00 0.9000E+01
       23  1    1    2    0    0 0.10837062E+03 -.34985552E+02 -.24764493E+03 0.28742206E+03 0.91188000E+02 0.0000E+00 0.9000E+01
#aMCatNLO 1  0  0  2  1 0.21494865D+02 0.00000000D+00  -5  5  0 0.00000000D+00 0.00000000D+00 0.00000000D+00 0.00000000D+00 0.00000000D+00
  <mgrwgt>
 0.3877274637D-01    4    2    0
 0.158412658503889D+03 0.000000000000000D+00 0.000000000000000D+00 0.158412658503889D+03
 0.158412658503889D+03 0.000000000000000D+00 0.000000000000000D+00 -.158412658503889D+03
 0.169948587395299D+03 -.108370623127337D+03 0.349855521918068D+02 -.170100422834403D+02
 0.146876729612480D+03 0.108370623127337D+03 -.349855521918068D+02 0.170100422834403D+02
 0.000000000000000D+00 0.000000000000000D+00 0.000000000000000D+00 0.000000000000000D+00
 0.174954311384091D+03 0.000000000000000D+00 0.000000000000000D+00 0.174954311384091D+03
 0.165916817186381D+03 0.000000000000000D+00 0.000000000000000D+00 -.165916817186381D+03
 0.177483558936384D+03 -.120106749443181D+03 0.340652446407398D+02 -.170100422834403D+02
 0.140070075477473D+03 0.986776687302839D+02 -.357456410732391D+02 0.170100422834403D+02
 0.233174941566164D+02 0.214290807128967D+02 0.168039643249925D+01 0.903749419771002D+01
0.115582700666D-02 0.000000000000D+00 0.000000000000D+00 0.128152748634D-02 0.000000000000D+00  5 2 -2 25 23 21 0 0.59151550D-02 0.10041230D+00 0.24803668D+05 0.24803668D+05 0.24803668D+05 0.12236649D+01  1  2  2  2  5  2       -2 0.120842142386D+00 0.100000000000D+01
-.642099578803D-04 0.000000000000D+00 -.443868004180D-05 0.128152748634D-02 0.000000000000D+00  5 2 -2 25 23 21 2 0.59151550D-02 0.10041230D+00 0.24803668D+05 0.24803668D+05 0.24803668D+05 0.12236649D+01  1  2  3  2  5  2       -2 -.100520116298D-01 0.100000000000D+01
0.795721252045D-04 0.000000000000D+00 0.000000000000D+00 0.128152748634D-02 0.000000000000D+00  5 2 -2 25 23 21 2 0.59151550D-02 0.10041230D+00 0.24803668D+05 0.24803668D+05 0.24803668D+05 0.12236649D+01  1  2 15  2  5  2       -2 0.124569452211D-01 0.100000000000D+01
-.539602752759D-03 0.000000000000D+00 0.000000000000D+00 0.128152748634D-02 0.000000000000D+00  5 2 -2 25 23 21 2 0.59151550D-02 0.10041230D+00 0.24803668D+05 0.24803668D+05 0.24803668D+05 0.12236649D+01  1  2  4  2  5  2       -2 -.844743296095D-01 0.100000000000D+01
  </mgrwgt>
  </event>
  <event>
  4     66 0.45228882E-03 0.89014800E+02 0.75467711E-02 0.11949474E+00
        2 -1    0    0  501    0 0.00000000E+00 0.00000000E+00 0.30345251E+04 0.30345251E+04 0.32000000E+00 0.0000E+00 0.9000E+01
       -2 -1    0    0    0  501 0.00000000E+00 0.00000000E+00 -.65559188E+01 0.65637239E+01 0.32000000E+00 0.0000E+00 0.9000E+01
       25  1    1    2    0    0 -.17095290E+02 -.81208925E+02 0.20288648E+04 0.20344052E+04 0.12500000E+03 0.0000E+00 0.9000E+01
       23  1    1    2    0    0 0.17095290E+02 0.81208925E+02 0.99910443E+03 0.10066837E+04 0.91188000E+02 0.0000E+00 0.9000E+01
#aMCatNLO 1  0  0  1  2 0.33758069D+02 0.00000000D+00  -5  5  0 0.00000000D+00 0.00000000D+00 0.00000000D+00 0.00000000D+00 0.00000000D+00
  <mgrwgt>
 0.3467318846D+00    9    2    0
 0.141088602736758D+03 0.000000000000000D+00 0.000000000000000D+00 0.141088602736758D+03
 0.141088602736758D+03 0.000000000000000D+00 0.000000000000000D+00 -.141088602736758D+03
 0.154041010858693D+03 -.170952903723929D+02 -.812089254150111D+02 0.348782812992661D+02
 0.128136194614824D+03 0.170952903723929D+02 0.812089254150111D+02 -.348782812992661D+02
 0.000000000000000D+00 -.000000000000000D+00 0.000000000000000D+00 0.000000000000000D+00
 0.175216784564666D+03 0.000000000000000D+00 0.000000000000000D+00 0.175216784564666D+03
 0.150696230151871D+03 0.000000000000000D+00 0.000000000000000D+00 -.150696230151871D+03
 0.155117617229395D+03 0.945085577799105D+00 -.849652133627933D+02 0.348782812992661D+02
 0.129071725474315D+03 0.321041795128018D+02 0.780838403534043D+02 -.348782812992661D+02
 0.417236720128277D+02 -.330492650906009D+02 0.688137300938909D+01 0.245205544127955D+02
0.418033479156D-03 0.000000000000D+00 0.000000000000D+00 0.134628466202D-02 0.000000000000D+00  5 2 -2 25 23 21 0 0.46685062D+00 0.10092046D-02 0.18678474D+05 0.18678474D+05 0.18678474D+05 0.12371080D+01  1  2  2  1  5  1        2 0.176585546057D+00 0.100000000000D+01
-.231954835491D-04 0.000000000000D+00 -.160535863070D-05 0.134628466202D-02 0.000000000000D+00  5 2 -2 25 23 21 2 0.46685062D+00 0.10092046D-02 0.18678474D+05 0.18678474D+05 0.18678474D+05 0.12371080D+01  1  2  3  1  5  1        2 -.149955608923D-01 0.100000000000D+01
0.288949560042D-04 0.000000000000D+00 0.000000000000D+00 0.134628466202D-02 0.000000000000D+00  5 2 -2 25 23 21 2 0.46685062D+00 0.10092046D-02 0.18678474D+05 0.18678474D+05 0.18678474D+05 0.12371080D+01  1  2 15  1  5  1        2 0.186801913969D-01 0.100000000000D+01
0.416743762178D-03 0.000000000000D+00 0.000000000000D+00 0.134628466202D-02 0.000000000000D+00  5 2 -2 25 23 21 2 0.59283465D+00 0.10092046D-02 0.23897073D+05 0.23897073D+05 0.23897073D+05 0.12254041D+01  1  2 12  1  5  1        2 0.782966617771D-01 0.100000000000D+01
-.429693274236D-03 0.000000000000D+00 0.000000000000D+00 0.134628466202D-02 0.000000000000D+00  5 2 -2 25 23 21 2 0.46685062D+00 0.10092046D-02 0.18678474D+05 0.18678474D+05 0.18678474D+05 0.12371080D+01  1  2  4  1  5  1        2 -.277790788244D+00 0.100000000000D+01
-.788128549345D-03 0.000000000000D+00 -.183262487991D-03 0.134628466202D-02 0.000000000000D+00  5 2 -2 25 23 21 2 0.58808052D+00 0.10092046D-02 0.18678474D+05 0.18678474D+05 0.18678474D+05 0.12371080D+01  1  2  5  1  5  1        2 -.159803591955D+00 0.100000000000D+01
0.813440651515D-03 0.000000000000D+00 0.178485247760D-03 0.134628466202D-02 0.000000000000D+00  5 2 -2 25 23 21 2 0.46685062D+00 0.10092046D-02 0.18678474D+05 0.18678474D+05 0.18678474D+05 0.12371080D+01  1  2  6  1  5  1        2 0.525878186425D+00 0.100000000000D+01
0.136378961240D-04 0.000000000000D+00 0.000000000000D+00 0.134628466202D-02 0.000000000000D+00  5 21 -2 25 23 -2 2 0.59283465D+00 0.10092046D-02 0.23897073D+05 0.23897073D+05 0.23897073D+05 0.12254041D+01  1  2 12  3  5  1        2 0.134580666319D-03 0.100000000000D+01
-.224489891813D-04 0.000000000000D+00 -.584598583491D-05 0.134628466202D-02 0.000000000000D+00  5 21 -2 25 23 -2 2 0.58808052D+00 0.10092046D-02 0.18678474D+05 0.18678474D+05 0.18678474D+05 0.12371080D+01  1  2  5  3  5  1        2 -.253340610168D-03 0.100000000000D+01
  </mgrwgt>
  </event>
  <event>
  4     66 0.45228882E-03 0.10957145E+03 0.75467711E-02 0.11664730E+00
        2 -1    0    0  501    0 0.00000000E+00 0.00000000E+00 0.33969701E+04 0.33969701E+04 0.32000000E+00 0.0000E+00 0.9000E+01
       -2 -1    0    0    0  501 0.00000000E+00 0.00000000E+00 -.36011672E+01 0.36153568E+01 0.32000000E+00 0.0000E+00 0.9000E+01
       25  1    1    2    0    0 0.10270397E+02 0.14437902E+02 0.17089615E+04 0.17136185E+04 0.12500000E+03 0.0000E+00 0.9000E+01
       23  1    1    2    0    0 -.10270397E+02 -.14437902E+02 0.16844074E+04 0.16869670E+04 0.91188000E+02 0.0000E+00 0.9000E+01
#aMCatNLO 1  0  0  2  1 0.11519056D+03 0.00000000D+00  -5  5  0 0.00000000D+00 0.00000000D+00 0.00000000D+00 0.00000000D+00 0.00000000D+00
  <mgrwgt>
 0.3216305796D+00    3    2    0
 0.110712282092990D+03 0.000000000000000D+00 0.000000000000000D+00 0.110712282092990D+03
 0.110712282092990D+03 0.000000000000000D+00 0.000000000000000D+00 -.110712282092990D+03
 0.127218464871022D+03 0.102703974823028D+02 0.144379018121567D+02 -.156717494542753D+02
 0.942060993149570D+02 -.102703974823028D+02 -.144379018121567D+02 0.156717494542753D+02
 0.000000000000000D+00 -.000000000000000D+00 0.000000000000000D+00 0.000000000000000D+00
 0.190906747333690D+03 0.000000000000000D+00 0.000000000000000D+00 0.190906747333690D+03
 0.174975363818203D+03 0.000000000000000D+00 0.000000000000000D+00 -.174975363818203D+03
 0.143731416346140D+03 0.655966117557220D+02 -.220272749126833D+02 -.156717494542753D+02
 0.105863661328177D+03 0.305825543523651D+02 -.413638378796504D+02 0.156717494542753D+02
 0.116287033477576D+03 -.961791661080872D+02 0.633911127923337D+02 0.159313835154877D+02
0.526834823189D-03 0.000000000000D+00 0.000000000000D+00 0.183221264020D-02 0.000000000000D+00  5 2 -2 25 23 21 0 0.52261188D+00 0.55511839D-03 0.12005903D+05 0.12005903D+05 0.12005903D+05 0.12589991D+01  1  2  2  2  5  2       -2 0.314900995716D+00 0.100000000000D+01
-.292647833427D-04 0.000000000000D+00 -.202318443984D-05 0.183221264020D-02 0.000000000000D+00  5 2 -2 25 23 21 2 0.52261188D+00 0.55511839D-03 0.12005903D+05 0.12005903D+05 0.12005903D+05 0.12589991D+01  1  2  3  2  5  2       -2 -.277265412426D-01 0.100000000000D+01
0.363677181540D-04 0.000000000000D+00 0.000000000000D+00 0.183221264020D-02 0.000000000000D+00  5 2 -2 25 23 21 2 0.52261188D+00 0.55511839D-03 0.12005903D+05 0.12005903D+05 0.12005903D+05 0.12589991D+01  1  2 15  2  5  2       -2 0.344561251484D-01 0.100000000000D+01
  </mgrwgt>
  </event>
  <event>
  4     66 0.45228882E-03 0.12233332E+03 0.75467711E-02 0.10751071E+00
        2 -1    0    0  501    0 0.00000000E+00 0.00000000E+00 0.56086778E+03 0.56086787E+03 0.32000000E+00 0.0000E+00 0.9000E+01
       -2 -1    0    0    0  501 0.00000000E+00 0.00000000E+00 -.26717323E+02 0.26719239E+02 0.32000000E+00 0.0000E+00 0.9000E+01
       25  1    1    2    0    0 -.51711171E+02 -.23332808E+02 0.31030608E+03 0.33931302E+03 0.12500000E+03 0.0000E+00 0.9000E+01
       23  1    1    2    0    0 0.51711171E+02 0.23332808E+02 0.22384438E+03 0.24827409E+03 0.91188000E+02 0.0000E+00 0.9000E+01
#aMCatNLO 1  0  0  2  1 0.27459180D+03 0.00000000D+00  -5  5  0 0.00000000D+00 0.00000000D+00 0.00000000D+00 0.00000000D+00 0.00000000D+00
  <mgrwgt>
 0.1747373767D+00    5    2    0
 0.122415175705128D+03 0.000000000000000D+00 0.000000000000000D+00 0.122415175705128D+03
 0.122415175705128D+03 0.000000000000000D+00 0.000000000000000D+00 -.122415175705128D+03
 0.137343367030050D+03 -.517111713049055D+02 -.233328077747070D+02 0.444244423422618D+01
 0.107486984380207D+03 0.517111713049055D+02 0.233328077747070D+02 -.444244423422618D+01
 0.000000000000000D+00 0.000000000000000D+00 0.000000000000000D+00 -.000000000000000D+00
 0.263505226415729D+03 0.000000000000000D+00 0.000000000000000D+00 0.263505226415729D+03
 0.420873158820282D+03 0.000000000000000D+00 0.000000000000000D+00 -.420873158820282D+03
 0.242576878984694D+03 -.824207158365198D+02 -.190802600894684D+03 0.444244423422618D+01
 0.125312449392461D+03 0.328936309043370D+02 -.792857639421676D+02 -.444244423422618D+01
 0.316489056858856D+03 0.495270849321828D+02 0.270088364836852D+03 -.157367932404553D+03
0.107120361797D-03 0.000000000000D+00 0.000000000000D+00 0.163192924237D-02 0.000000000000D+00  5 2 -2 25 23 21 0 0.86287505D-01 0.41105117D-02 0.14965442D+05 0.14965442D+05 0.14965442D+05 0.12479367D+01  1  2  2  2  5  2       -2 0.145152448266D+00 0.100000000000D+01
-.595112797368D-05 0.000000000000D+00 -.411370394741D-06 0.163192924237D-02 0.000000000000D+00  5 2 -2 25 23 21 2 0.86287505D-01 0.41105117D-02 0.14965442D+05 0.14965442D+05 0.14965442D+05 0.12479367D+01  1  2  3  2  5  2       -2 -.125584710981D-01 0.100000000000D+01
0.740561565120D-05 0.000000000000D+00 0.000000000000D+00 0.163192924237D-02 0.000000000000D+00  5 2 -2 25 23 21 2 0.86287505D-01 0.41105117D-02 0.14965442D+05 0.14965442D+05 0.14965442D+05 0.12479367D+01  1  2 15  2  5  2       -2 0.156278289646D-01 0.100000000000D+01
0.906591473221D-04 0.000000000000D+00 -.531068031434D-04 0.163192924237D-02 0.000000000000D+00  5 2 -2 25 23 21 2 0.86287505D-01 0.30401727D-01 0.14965442D+05 0.14965442D+05 0.14965442D+05 0.12479367D+01  1  2  5  2  5  2       -2 0.776041165833D-02 0.100000000000D+01
0.165590537022D-04 0.000000000000D+00 -.129580384774D-04 0.163192924237D-02 0.000000000000D+00  5 2 21 25 23 2 2 0.86287505D-01 0.30401727D-01 0.14965442D+05 0.14965442D+05 0.14965442D+05 0.12479367D+01  1  2  5  4  5  2       -2 0.187551589481D-01 0.100000000000D+01
  </mgrwgt>
  </event>
  <event>
  5     66 0.45228882E-03 0.11577278E+03 0.75467711E-02 0.11592220E+00
        2 -1    0    0  501    0 0.00000000E+00 0.00000000E+00 0.12088386E+03 0.12088429E+03 0.32000000E+00 0.0000E+00 0.9000E+01
       21 -1    0    0  502  501 0.00000000E+00 0.00000000E+00 -.29704829E+03 0.29704924E+03 0.75000000E+00 0.0000E+00 0.9000E+01
       25  1    1    2    0    0 -.82587594E+02 -.54779565E+02 -.70541582E+02 0.17442083E+03 0.12500000E+03 0.0000E+00 0.9000E+01
       23  1    1    2    0    0 0.12327061E+02 -.40399578E+02 -.39461158E+02 0.10796535E+03 0.91188000E+02 0.0000E+00 0.9000E+01
        2  1    1    2  502    0 0.70260533E+02 0.95179143E+02 -.66161692E+02 0.13554735E+03 0.32000000E+00 0.0000E+00 0.9000E+01
#aMCatNLO 2  0  0  2  1 0.11830305D+03 0.00000000D+00  -5  5  0 0.00000000D+00 0.00000000D+00 0.00000000D+00 0.00000000D+00 0.00000000D+00
  <mgrwgt>
 0.2233280551D-01    1    2    0
 0.115807750419495D+03 0.000000000000000D+00 0.000000000000000D+00 0.115807750419495D+03
 0.115807750419495D+03 0.000000000000000D+00 0.000000000000000D+00 -.115807750419495D+03
 0.131587671516143D+03 -.409863909485566D+02 0.157592639175996D+01 -.281913250136043D+01
 0.100027829322846D+03 0.409863909485566D+02 -.157592639175996D+01 0.281913250136043D+01
 0.000000000000000D+00 0.000000000000000D+00 0.000000000000000D+00 -.000000000000000D+00
 0.182381546430956D+03 0.000000000000000D+00 0.000000000000000D+00 0.182381546430956D+03
 0.196886970083741D+03 0.000000000000000D+00 0.000000000000000D+00 -.196886970083741D+03
 0.159544536019290D+03 -.825875943934061D+02 -.547795647834153D+02 -.281913250136043D+01
 0.100534974858280D+03 0.123270609113841D+02 -.403995778069757D+02 0.281913250136043D+01
 0.119189005637127D+03 0.702605334820220D+02 0.951791425903910D+02 -.145054236527844D+02
0.904193377155D-05 0.000000000000D+00 0.000000000000D+00 0.174778991615D-02 0.134602788909D-06  5 2 21 25 23 2 2 0.18597602D-01 0.45699791D-01 0.35781150D+05 0.35781150D+05 0.35781150D+05 0.12069471D+01  1  2  1  4  5  2       -2 0.223328055064D-01 0.100000000000D+01
  </mgrwgt>
  </event>
  <event>
  4     66 0.45228882E-03 0.11556488E+03 0.75467711E-02 0.11474521E+00
        2 -1    0    0  501    0 0.00000000E+00 0.00000000E+00 0.10846518E+04 0.10846519E+04 0.32000000E+00 0.0000E+00 0.9000E+01
       -2 -1    0    0    0  501 0.00000000E+00 0.00000000E+00 -.14421171E+02 0.14424721E+02 0.32000000E+00 0.0000E+00 0.9000E+01
       25  1    1    2    0    0 -.43707339E+00 -.40434870E+02 0.38911831E+03 0.41069846E+03 0.12500000E+03 0.0000E+00 0.9000E+01
       23  1    1    2    0    0 0.43707339E+00 0.40434870E+02 0.68111233E+03 0.68837811E+03 0.91188000E+02 0.0000E+00 0.9000E+01
#aMCatNLO 1  0  0  2  1 0.13669688D+03 0.00000000D+00  -5  5  0 0.00000000D+00 0.00000000D+00 0.00000000D+00 0.00000000D+00 0.00000000D+00
  <mgrwgt>
 0.2068065469D+00    3    2    0
 0.125075679140901D+03 0.000000000000000D+00 0.000000000000000D+00 0.125075679140901D+03
 0.125075679140901D+03 0.000000000000000D+00 0.000000000000000D+00 -.125075679140901D+03
 0.139686330680449D+03 -.437073391995008D+00 -.404348700235384D+02 -.474563086638372D+02
 0.110465027601354D+03 0.437073391995008D+00 0.404348700235384D+02 0.474563086638372D+02
 0.000000000000000D+00 0.000000000000000D+00 -.000000000000000D+00 0.000000000000000D+00
 0.320247460480051D+03 0.000000000000000D+00 0.000000000000000D+00 0.320247460480051D+03
 0.168818712245166D+03 0.000000000000000D+00 0.000000000000000D+00 -.168818712245166D+03
 0.137098467924961D+03 -.215411008431551D+01 0.302365422149911D+02 -.474563086638372D+02
 0.147965980520341D+03 -.116610541556272D+01 0.106420012279216D+03 0.474563086638372D+02
 0.204001724279914D+03 0.332021549987824D+01 -.136656554494207D+03 0.151428748234886D+03
0.137770115087D-03 0.000000000000D+00 0.000000000000D+00 0.141924095604D-02 0.000000000000D+00  5 2 -2 25 23 21 0 0.16686979D+00 0.22189183D-02 0.13355242D+05 0.13355242D+05 0.13355242D+05 0.12536140D+01  1  2  2  2  5  2       -2 0.202517315531D+00 0.100000000000D+01
-.759568860471D-05 0.000000000000D+00 -.529073517640D-06 0.141924095604D-02 0.000000000000D+00  5 2 -2 25 23 21 2 0.16686979D+00 0.22189183D-02 0.13355242D+05 0.13355242D+05 0.13355242D+05 0.12536140D+01  1  2  3  2  5  2       -2 -.175469635500D-01 0.100000000000D+01
0.945240105967D-05 0.000000000000D+00 0.000000000000D+00 0.141924095604D-02 0.000000000000D+00  5 2 -2 25 23 21 2 0.16686979D+00 0.22189183D-02 0.13355242D+05 0.13355242D+05 0.13355242D+05 0.12536140D+01  1  2 15  2  5  2       -2 0.218361949108D-01 0.100000000000D+01
  </mgrwgt>
  </event>
  <event>
  4     66 0.45228882E-03 0.85618430E+02 0.75467711E-02 0.11558663E+00
        2 -1    0    0  501    0 0.00000000E+00 0.00000000E+00 0.16293020E+03 0.16293052E+03 0.32000000E+00 0.0000E+00 0.9000E+01
       -2 -1    0    0    0  501 0.00000000E+00 0.00000000E+00 -.19580189E+03 0.19580215E+03 0.32000000E+00 0.0000E+00 0.9000E+01
       25  1    1    2    0    0 0.14084670E+03 0.14075781E+02 -.18264352E+02 0.18972218E+03 0.12500000E+03 0.0000E+00 0.9000E+01
       23  1    1    2    0    0 -.14084670E+03 -.14075781E+02 -.14607338E+02 0.16901049E+03 0.91188000E+02 0.0000E+00 0.9000E+01
#aMCatNLO 1  0  0  1  2 0.27532957D+02 0.00000000D+00  -5  5  0 0.00000000D+00 0.00000000D+00 0.00000000D+00 0.00000000D+00 0.00000000D+00
  <mgrwgt>
 0.1735727183D+00    9    2    0
 0.178611714958881D+03 0.000000000000000D+00 0.000000000000000D+00 0.178611714958881D+03
 0.178611714958881D+03 0.000000000000000D+00 0.000000000000000D+00 -.178611714958881D+03
 0.188843054848433D+03 0.140846695227820D+03 0.140757809959627D+02 -.883287746609321D+00
 0.168380375069330D+03 -.140846695227820D+03 -.140757809959627D+02 0.883287746609321D+00
 0.000000000000000D+00 0.000000000000000D+00 0.000000000000000D+00 0.000000000000000D+00
 0.208523432905083D+03 0.000000000000000D+00 0.000000000000000D+00 0.208523432905083D+03
 0.185591528304358D+03 0.000000000000000D+00 0.000000000000000D+00 -.185591528304358D+03
 0.178536662257914D+03 0.126960924728965D+03 0.114229227835625D+02 -.883287746609321D+00
 0.179746246383855D+03 -.154004760697835D+03 -.165896121185716D+02 0.883287746609321D+00
 0.358320525676719D+02 0.270438359688702D+02 0.516668933500915D+01 0.229319046007249D+02
0.551083842290D-03 0.000000000000D+00 0.000000000000D+00 0.120199712497D-02 0.000000000000D+00  5 2 -2 25 23 21 0 0.25066229D-01 0.30123412D-01 0.31901362D+05 0.31901362D+05 0.31901362D+05 0.12121073D+01  1  2  2  1  5  1        2 0.117850408342D+00 0.100000000000D+01
-.306157690105D-04 0.000000000000D+00 -.211630705810D-05 0.120199712497D-02 0.000000000000D+00  5 2 -2 25 23 21 2 0.25066229D-01 0.30123412D-01 0.31901362D+05 0.31901362D+05 0.31901362D+05 0.12121073D+01  1  2  3  1  5  1        2 -.961923971451D-02 0.100000000000D+01
0.379565733909D-04 0.000000000000D+00 0.000000000000D+00 0.120199712497D-02 0.000000000000D+00  5 2 -2 25 23 21 2 0.25066229D-01 0.30123412D-01 0.31901362D+05 0.31901362D+05 0.31901362D+05 0.12121073D+01  1  2 15  1  5  1        2 0.119256641263D-01 0.100000000000D+01
0.143484549913D-02 0.000000000000D+00 0.000000000000D+00 0.120199712497D-02 0.000000000000D+00  5 2 -2 25 23 21 2 0.29696637D-01 0.30123412D-01 0.37212630D+05 0.37212630D+05 0.37212630D+05 0.12051989D+01  1  2 12  1  5  1        2 0.370704552871D+00 0.100000000000D+01
-.144996990055D-02 0.000000000000D+00 0.000000000000D+00 0.120199712497D-02 0.000000000000D+00  5 2 -2 25 23 21 2 0.25066229D-01 0.30123412D-01 0.31901362D+05 0.31901362D+05 0.31901362D+05 0.12121073D+01  1  2  4  1  5  1        2 -.455569417428D+00 0.100000000000D+01
-.270909893357D-02 0.000000000000D+00 -.525805248023D-03 0.120199712497D-02 0.000000000000D+00  5 2 -2 25 23 21 2 0.30261863D-01 0.30123412D-01 0.31901362D+05 0.31901362D+05 0.31901362D+05 0.12121073D+01  1  2  5  1  5  1        2 -.691762639490D+00 0.100000000000D+01
0.276808157380D-02 0.000000000000D+00 0.516612875479D-03 0.120199712497D-02 0.000000000000D+00  5 2 -2 25 23 21 2 0.25066229D-01 0.30123412D-01 0.31901362D+05 0.31901362D+05 0.31901362D+05 0.12121073D+01  1  2  6  1  5  1        2 0.869709991559D+00 0.100000000000D+01
0.360963120105D-04 0.000000000000D+00 0.000000000000D+00 0.120199712497D-02 0.000000000000D+00  5 21 -2 25 23 -2 2 0.29696637D-01 0.30123412D-01 0.37212630D+05 0.37212630D+05 0.37212630D+05 0.12051989D+01  1  2 12  3  5  1        2 0.464198857374D-01 0.100000000000D+01
-.685644304386D-04 0.000000000000D+00 -.143671887096D-04 0.120199712497D-02 0.000000000000D+00  5 21 -2 25 23 -2 2 0.30261863D-01 0.30123412D-01 0.31901362D+05 0.31901362D+05 0.31901362D+05 0.12121073D+01  1  2  5  3  5  1        2 -.860864877524D-01 0.100000000000D+01
  </mgrwgt>
  </event>
  <event>
  4     66 0.45228882E-03 0.10904680E+03 0.75467711E-02 0.11348850E+00
        2 -1    0    0  501    0 0.00000000E+00 0.00000000E+00 0.61215607E+03 0.61215615E+03 0.32000000E+00 0.0000E+00 0.9000E+01
       -2 -1    0    0    0  501 0.00000000E+00 0.00000000E+00 -.20009019E+02 0.20011578E+02 0.32000000E+00 0.0000E+00 0.9000E+01
       25  1    1    2    0    0 0.44048835E+01 0.13509857E+02 0.39367677E+03 0.41328963E+03 0.12500000E+03 0.0000E+00 0.9000E+01
       23  1    1    2    0    0 -.44048835E+01 -.13509857E+02 0.19847028E+03 0.21887810E+03 0.91188000E+02 0.0000E+00 0.9000E+01
#aMCatNLO 1  0  0  2  2 0.16428630D+03 0.00000000D+00  -5  5  0 0.00000000D+00 0.00000000D+00 0.00000000D+00 0.00000000D+00 0.00000000D+00
  <mgrwgt>
 0.2170638869D+00    3    2    0
 0.110677358218200D+03 0.000000000000000D+00 0.000000000000000D+00 0.110677358218200D+03
 0.110677358218200D+03 0.000000000000000D+00 0.000000000000000D+00 -.110677358218200D+03
 0.127188749467684D+03 0.440488350682935D+01 0.135098570848338D+02 0.187098571344589D+02
 0.941659669687156D+02 -.440488350682935D+01 -.135098570848338D+02 -.187098571344589D+02
 0.000000000000000D+00 0.000000000000000D+00 -.000000000000000D+00 0.000000000000000D+00
 0.938841848256002D+03 0.000000000000000D+00 0.000000000000000D+00 0.938841848256002D+03
 0.146253224012275D+03 0.000000000000000D+00 0.000000000000000D+00 -.146253224012275D+03
 0.160243880520351D+03 -.793480308678666D+02 0.583689342683314D+02 0.187098571344589D+02
 0.115415144369712D+03 -.654732071456996D+02 0.191990780493752D+02 -.187098571344589D+02
 0.809436047378213D+03 0.144821238013566D+03 -.775680123177066D+02 0.792588624243727D+03
0.114232225134D-03 0.000000000000D+00 0.000000000000D+00 0.182171881481D-02 0.000000000000D+00  5 2 -2 25 23 21 0 0.94178060D-01 0.30785139D-02 0.11891205D+05 0.11891205D+05 0.11891205D+05 0.12594879D+01  1  2  2  2  5  2       -2 0.212732484059D+00 0.100000000000D+01
-.634453496062D-05 0.000000000000D+00 -.438681822549D-06 0.182171881481D-02 0.000000000000D+00  5 2 -2 25 23 21 2 0.94178060D-01 0.30785139D-02 0.11891205D+05 0.11891205D+05 0.11891205D+05 0.12594879D+01  1  2  3  2  5  2       -2 -.187427362751D-01 0.100000000000D+01
0.781074226197D-05 0.000000000000D+00 0.000000000000D+00 0.182171881481D-02 0.000000000000D+00  5 2 -2 25 23 21 2 0.94178060D-01 0.30785139D-02 0.11891205D+05 0.11891205D+05 0.11891205D+05 0.12594879D+01  1  2 15  2  5  2       -2 0.230741391193D-01 0.100000000000D+01
  </mgrwgt>
  </event>
  <event>
  4     66 0.45228882E-03 0.93759008E+02 0.75467711E-02 0.11160864E+00
        2 -1    0    0  501    0 0.00000000E+00 0.00000000E+00 0.72275649E+03 0.72275656E+03 0.32000000E+00 0.0000E+00 0.9000E+01
       -2 -1    0    0    0  501 0.00000000E+00 0.00000000E+00 -.64836712E+02 0.64837502E+02 0.32000000E+00 0.0000E+00 0.9000E+01
       25  1    1    2    0    0 -.61038408E+02 -.17250985E+03 0.27186870E+03 0.35074624E+03 0.12500000E+03 0.0000E+00 0.9000E+01
       23  1    1    2    0    0 0.61038408E+02 0.17250985E+03 0.38605108E+03 0.43684782E+03 0.91188000E+02 0.0000E+00 0.9000E+01
#aMCatNLO 1  0  0  2  1 0.60904320D+02 0.00000000D+00  -5  5  0 0.00000000D+00 0.00000000D+00 0.00000000D+00 0.00000000D+00 0.00000000D+00
  <mgrwgt>
 0.2106307830D+00    9    2    0
 0.216475156509291D+03 0.000000000000000D+00 0.000000000000000D+00 0.216475156509291D+03
 0.216475156509291D+03 0.000000000000000D+00 0.000000000000000D+00 -.216475156509291D+03
 0.224916943518331D+03 -.610384078502198D+02 -.172509847172192D+03 -.384356199034845D+02
 0.208033369500251D+03 0.610384078502198D+02 0.172509847172192D+03 0.384356199034845D+02
 0.000000000000000D+00 -.000000000000000D+00 -.000000000000000D+00 -.000000000000000D+00
 0.228534968536120D+03 0.000000000000000D+00 0.000000000000000D+00 0.228534968536120D+03
 0.312008630293808D+03 0.000000000000000D+00 0.000000000000000D+00 -.312008630293808D+03
 0.210211348464300D+03 -.327235254522721D+02 -.161293784839307D+03 -.384356199034845D+02
 0.227001768659650D+03 0.893472284967619D+02 0.183723508330294D+03 0.384356199034845D+02
 0.103330481705979D+03 -.566237030444898D+02 -.224297234909867D+02 -.834736617576879D+02
0.651587939865D-03 0.000000000000D+00 0.000000000000D+00 0.107028422951D-02 0.000000000000D+00  5 2 -2 25 23 21 0 0.11119337D+00 0.99749449D-02 0.45381873D+05 0.45381873D+05 0.45381873D+05 0.11964726D+01  1  2  2  2  5  2       -2 0.173798328144D+00 0.100000000000D+01
-.361880037245D-04 0.000000000000D+00 -.250226925613D-05 0.107028422951D-02 0.000000000000D+00  5 2 -2 25 23 21 2 0.11119337D+00 0.99749449D-02 0.45381873D+05 0.45381873D+05 0.45381873D+05 0.11964726D+01  1  2  3  2  5  2       -2 -.138179199722D-01 0.100000000000D+01
0.446208449206D-04 0.000000000000D+00 0.000000000000D+00 0.107028422951D-02 0.000000000000D+00  5 2 -2 25 23 21 2 0.11119337D+00 0.99749449D-02 0.45381873D+05 0.45381873D+05 0.45381873D+05 0.11964726D+01  1  2 15  2  5  2       -2 0.170378910342D-01 0.100000000000D+01
0.895157681973D-03 0.000000000000D+00 0.000000000000D+00 0.107028422951D-02 0.000000000000D+00  5 2 -2 25 23 21 2 0.11119337D+00 0.14559244D-01 0.60342973D+05 0.60342973D+05 0.60342973D+05 0.11842785D+01  1  2 12  2  5  2       -2 0.182027282838D+00 0.100000000000D+01
-.928642432784D-03 0.000000000000D+00 0.000000000000D+00 0.107028422951D-02 0.000000000000D+00  5 2 -2 25 23 21 2 0.11119337D+00 0.99749449D-02 0.45381873D+05 0.45381873D+05 0.45381873D+05 0.11964726D+01  1  2  4  2  5  2       -2 -.354590071247D+00 0.100000000000D+01
-.115162588155D-02 0.000000000000D+00 -.235906627057D-03 0.107028422951D-02 0.000000000000D+00  5 2 -2 25 23 21 2 0.11119337D+00 0.15113534D-01 0.45381873D+05 0.45381873D+05 0.45381873D+05 0.11964726D+01  1  2  5  2  5  2       -2 -.224498896772D+00 0.100000000000D+01
0.116648890595D-02 0.000000000000D+00 0.216910631066D-03 0.107028422951D-02 0.000000000000D+00  5 2 -2 25 23 21 2 0.11119337D+00 0.99749449D-02 0.45381873D+05 0.45381873D+05 0.45381873D+05 0.11964726D+01  1  2  6  2  5  2       -2 0.445408662870D+00 0.100000000000D+01
0.408968079374D-04 0.000000000000D+00 0.000000000000D+00 0.107028422951D-02 0.000000000000D+00  5 2 21 25 23 2 2 0.11119337D+00 0.14559244D-01 0.60342973D+05 0.60342973D+05 0.60342973D+05 0.11842785D+01  1  2 12  4  5  2       -2 0.119755618737D+00 0.100000000000D+01
-.479031693815D-04 0.000000000000D+00 -.115484875454D-04 0.107028422951D-02 0.000000000000D+00  5 2 21 25 23 2 2 0.11119337D+00 0.15113534D-01 0.45381873D+05 0.45381873D+05 0.45381873D+05 0.11964726D+01  1  2  5  4  5  2       -2 -.134490112638D+00 0.100000000000D+01
  </mgrwgt>
  </event>
  <event>
  4     66 0.45228882E-03 0.12026849E+03 0.75467711E-02 0.11489587E+00
        2 -1    0    0  501    0 0.00000000E+00 0.00000000E+00 0.10122552E+04 0.10122552E+04 0.32000000E+00 0.0000E+00 0.9000E+01
       -2 -1    0    0    0  501 0.00000000E+00 0.00000000E+00 -.14298943E+02 0.14302523E+02 0.32000000E+00 0.0000E+00 0.9000E+01
       25  1    1    2    0    0 -.74278446E+01 -.51672890E+02 0.57634044E+03 0.59204608E+03 0.12500000E+03 0.0000E+00 0.9000E+01
       23  1    1    2    0    0 0.74278446E+01 0.51672890E+02 0.42161578E+03 0.43451165E+03 0.91188000E+02 0.0000E+00 0.9000E+01
#aMCatNLO 1  0  0  1  1 0.12894048D+03 0.00000000D+00  -5  5  0 0.00000000D+00 0.00000000D+00 0.00000000D+00 0.00000000D+00 0.00000000D+00
  <mgrwgt>
 0.2145969110D+00    3    2    0
 0.120316425261794D+03 0.000000000000000D+00 0.000000000000000D+00 0.120316425261794D+03
 0.120316425261794D+03 0.000000000000000D+00 0.000000000000000D+00 -.120316425261794D+03
 0.135505017841932D+03 -.742784463270421D+01 -.516728895596966D+02 0.336889729824114D+01
 0.105127832681656D+03 0.742784463270421D+01 0.516728895596966D+02 -.336889729824114D+01
 0.000000000000000D+00 0.000000000000000D+00 0.000000000000000D+00 -.000000000000000D+00
 0.145394751581265D+03 0.000000000000000D+00 0.000000000000000D+00 0.145394751581265D+03
 0.603828111456990D+03 0.000000000000000D+00 0.000000000000000D+00 -.603828111456990D+03
 0.164163990155625D+03 -.805103104168535D+02 -.695093958497126D+02 0.336889729824114D+01
 0.108837503782044D+03 -.447534419327380D+02 0.389375249813505D+02 -.336889729824114D+01
 0.476221369100586D+03 0.125263752349591D+03 0.305718708683621D+02 -.458433359875724D+03
0.127815764937D-03 0.000000000000D+00 0.000000000000D+00 0.166621471548D-02 0.000000000000D+00  5 2 -2 25 23 21 0 0.15573184D+00 0.22001166D-02 0.14464509D+05 0.14464509D+05 0.14464509D+05 0.12496264D+01  1  2  2  1  5  1        2 0.210129442665D+00 0.100000000000D+01
-.710087445864D-05 0.000000000000D+00 -.490846192021D-06 0.166621471548D-02 0.000000000000D+00  5 2 -2 25 23 21 2 0.15573184D+00 0.22001166D-02 0.14464509D+05 0.14464509D+05 0.14464509D+05 0.12496264D+01  1  2  3  1  5  1        2 -.182294965277D-01 0.100000000000D+01
0.884107237707D-05 0.000000000000D+00 0.000000000000D+00 0.166621471548D-02 0.000000000000D+00  5 2 -2 25 23 21 2 0.15573184D+00 0.22001166D-02 0.14464509D+05 0.14464509D+05 0.14464509D+05 0.12496264D+01  1  2 15  1  5  1        2 0.226969648791D-01 0.100000000000D+01
  </mgrwgt>
  </event>
  <event>
  5     66 0.45228882E-03 0.11279975E+03 0.75467711E-02 0.11857723E+00
        2 -1    0    0  501    0 0.00000000E+00 0.00000000E+00 0.29875763E+03 0.29875780E+03 0.32000000E+00 0.0000E+00 0.9000E+01
       -2 -1    0    0    0  502 0.00000000E+00 0.00000000E+00 -.15929562E+03 0.15929595E+03 0.32000000E+00 0.0000E+00 0.9000E+01
       25  1    1    2    0    0 0.49533086E+02 -.54324547E+02 0.18701515E+03 0.23665238E+03 0.12500000E+03 0.0000E+00 0.9000E+01
       23  1    1    2    0    0 0.24997579E+02 0.14316318E+02 0.36302655E+02 0.10228866E+03 0.91188000E+02 0.0000E+00 0.9000E+01
       21  1    1    2  501  502 -.74530665E+02 0.40008228E+02 -.83855801E+02 0.11911270E+03 0.75000000E+00 0.0000E+00 0.9000E+01
#aMCatNLO 2  0  0  2  1 0.84590060D+02 0.00000000D+00  -5  5  0 0.00000000D+00 0.00000000D+00 0.00000000D+00 0.00000000D+00 0.00000000D+00
  <mgrwgt>
 0.4733210338D-01    2    2    0
 0.120265029027799D+03 0.000000000000000D+00 0.000000000000000D+00 0.120265029027799D+03
 0.120265029027799D+03 0.000000000000000D+00 0.000000000000000D+00 -.120265029027799D+03
 0.135460112575965D+03 0.647665501392600D+01 -.312117578747981D+02 0.413318425585973D+02
 0.105069945479633D+03 -.647665501392600D+01 0.312117578747981D+02 -.413318425585973D+02
 0.000000000000000D+00 -.000000000000000D+00 0.000000000000000D+00 -.000000000000000D+00
 0.135478983240612D+03 0.000000000000000D+00 0.000000000000000D+00 0.135478983240612D+03
 0.351275823179132D+03 0.000000000000000D+00 0.000000000000000D+00 -.351275823179132D+03
 0.150791260382604D+03 0.495330859744992D+02 -.543245468672176D+02 0.413318425585973D+02
 0.104179693165059D+03 0.249975787223575D+02 0.143163184058150D+02 -.413318425585973D+02
 0.231783852872081D+03 -.745306646968567D+02 0.400082284614026D+02 -.215796839938520D+03
-.273656261201D-04 0.000000000000D+00 0.000000000000D+00 0.152082034966D-02 0.000000000000D+00  5 2 -2 25 23 21 2 0.40801073D-01 0.23906547D-01 0.26444640D+05 0.26444640D+05 0.26444640D+05 0.12206905D+01  1  2 13  2  5  2       -2 -.771452925586D-02 0.100000000000D+01
0.231518180176D-03 0.000000000000D+00 0.000000000000D+00 0.152082034966D-02 0.278646353148D-05  5 2 -2 25 23 21 2 0.45962554D-01 0.24506953D-01 0.26444640D+05 0.26444640D+05 0.26444640D+05 0.12206905D+01  1  2  1  2  5  2       -2 0.550466326405D-01 0.100000000000D+01
  </mgrwgt>
  </event>
  <event>
  4     66 0.45228882E-03 0.13329519E+03 0.75467711E-02 0.10955053E+00
        2 -1    0    0  501    0 0.00000000E+00 0.00000000E+00 0.91694383E+03 0.91694388E+03 0.32000000E+00 0.0000E+00 0.9000E+01
       -2 -1    0    0    0  501 0.00000000E+00 0.00000000E+00 -.19436058E+02 0.19438692E+02 0.32000000E+00 0.0000E+00 0.9000E+01
       25  1    1    2    0    0 0.47773358E+02 -.60853472E+02 0.52073621E+03 0.54108838E+03 0.12500000E+03 0.0000E+00 0.9000E+01
       23  1    1    2    0    0 -.47773358E+02 0.60853472E+02 0.37677156E+03 0.39529419E+03 0.91188000E+02 0.0000E+00 0.9000E+01
#aMCatNLO 1  0  0  1  1 0.21700473D+03 0.00000000D+00  -5  5  0 0.00000000D+00 0.00000000D+00 0.00000000D+00 0.00000000D+00 0.00000000D+00
  <mgrwgt>
 0.1671044405D+00    5    2    0
 0.133502932872982D+03 0.000000000000000D+00 0.000000000000000D+00 0.133502932872982D+03
 0.133502932872982D+03 0.000000000000000D+00 0.000000000000000D+00 -.133502932872982D+03
 0.147191300047198D+03 0.477733584138844D+02 -.608534722664446D+02 0.740539995947483D+01
 0.119814565698767D+03 -.477733584138844D+02 0.608534722664446D+02 -.740539995947483D+01
 0.000000000000000D+00 -.000000000000000D+00 0.000000000000000D+00 0.000000000000000D+00
 0.393358707641476D+03 0.000000000000000D+00 0.000000000000000D+00 0.393358707641476D+03
 0.225226626142911D+03 0.000000000000000D+00 0.000000000000000D+00 -.225226626142911D+03
 0.249545990226245D+03 0.164464568962119D+03 -.139802599566467D+03 0.740539995947483D+01
 0.945225864426169D+02 0.152690183982392D+02 0.182012398587689D+02 -.740539995947483D+01
 0.274516757115526D+03 -.179733587360358D+03 0.121601359707698D+03 0.168132081498565D+03
0.135122427626D-03 0.000000000000D+00 0.000000000000D+00 0.148620048559D-02 0.000000000000D+00  5 2 -2 25 23 21 0 0.14106849D+00 0.29903697D-02 0.17767609D+05 0.17767609D+05 0.17767609D+05 0.12395253D+01  1  2  2  1  5  1        2 0.163261842715D+00 0.100000000000D+01
-.750677940038D-05 0.000000000000D+00 -.518905700638D-06 0.148620048559D-02 0.000000000000D+00  5 2 -2 25 23 21 2 0.14106849D+00 0.29903697D-02 0.17767609D+05 0.17767609D+05 0.17767609D+05 0.12395253D+01  1  2  3  1  5  1        2 -.139354726069D-01 0.100000000000D+01
0.933674333220D-05 0.000000000000D+00 0.000000000000D+00 0.148620048559D-02 0.000000000000D+00  5 2 -2 25 23 21 2 0.14106849D+00 0.29903697D-02 0.17767609D+05 0.17767609D+05 0.17767609D+05 0.12395253D+01  1  2 15  1  5  1        2 0.173325901833D-01 0.100000000000D+01
0.418594224003D-05 0.000000000000D+00 -.510368200784D-04 0.148620048559D-02 0.000000000000D+00  5 2 -2 25 23 21 2 0.49937465D+00 0.29903697D-02 0.17767609D+05 0.17767609D+05 0.17767609D+05 0.12395253D+01  1  2  5  1  5  1        2 0.422360933770D-03 0.100000000000D+01
0.217021909868D-05 0.000000000000D+00 -.756204469206D-05 0.148620048559D-02 0.000000000000D+00  5 21 -2 25 23 -2 2 0.49937465D+00 0.29903697D-02 0.17767609D+05 0.17767609D+05 0.17767609D+05 0.12395253D+01  1  2  5  3  5  1        2 0.231192584374D-04 0.100000000000D+01
  </mgrwgt>
  </event>
  <event>
  4     66 0.45228882E-03 0.98070576E+02 0.75467711E-02 0.11305702E+00
        2 -1    0    0  501    0 0.00000000E+00 0.00000000E+00 0.10124831E+03 0.10124881E+03 0.32000000E+00 0.0000E+00 0.9000E+01
       -2 -1    0    0    0  501 0.00000000E+00 0.00000000E+00 -.25387072E+03 0.25387092E+03 0.32000000E+00 0.0000E+00 0.9000E+01
       25  1    1    2    0    0 -.37693005E+02 0.10761913E+03 -.11423866E+03 0.20415217E+03 0.12500000E+03 0.0000E+00 0.9000E+01
       23  1    1    2    0    0 0.37693005E+02 -.10761913E+03 -.38383753E+02 0.15096756E+03 0.91188000E+02 0.0000E+00 0.9000E+01
#aMCatNLO 1  0  0  1  2 0.11387075D+03 0.00000000D+00  -5  5  0 0.00000000D+00 0.00000000D+00 0.00000000D+00 0.00000000D+00 0.00000000D+00
  <mgrwgt>
 0.8339802837D-01    7    2    0
 0.160325000512267D+03 0.000000000000000D+00 0.000000000000000D+00 0.160325000512267D+03
 0.160325000512267D+03 0.000000000000000D+00 0.000000000000000D+00 -.160325000512267D+03
 0.171723329894217D+03 -.376930047832369D+02 0.107619128180393D+03 -.293472770467893D+02
 0.148926671130318D+03 0.376930047832369D+02 -.107619128180393D+03 0.293472770467893D+02
 0.000000000000000D+00 0.000000000000000D+00 0.000000000000000D+00 0.000000000000000D+00
 0.295280439039259D+03 0.000000000000000D+00 0.000000000000000D+00 0.295280439039259D+03
 0.196037333823606D+03 0.000000000000000D+00 0.000000000000000D+00 -.196037333823606D+03
 0.156427268936030D+03 -.669087673034206D+02 0.592152400540671D+02 -.293472770467893D+02
 0.183841699156480D+03 0.806611482727211D+01 -.156704161164514D+03 0.293472770467893D+02
 0.151048804770355D+03 0.588426524761485D+02 0.974889211104470D+02 0.992431052156529D+02
0.532132414737D-03 0.000000000000D+00 0.000000000000D+00 0.124724634656D-02 0.000000000000D+00  5 2 -2 25 23 21 0 0.15576717D-01 0.39057088D-01 0.24838314D+05 0.24838314D+05 0.24838314D+05 0.12235999D+01  1  2  2  1  5  1        2 0.120471007983D+00 0.100000000000D+01
-.295523625212D-04 0.000000000000D+00 -.204352858627D-05 0.124724634656D-02 0.000000000000D+00  5 2 -2 25 23 21 2 0.15576717D-01 0.39057088D-01 0.24838314D+05 0.24838314D+05 0.24838314D+05 0.12235999D+01  1  2  3  1  5  1        2 -.100169124964D-01 0.100000000000D+01
0.365898968990D-04 0.000000000000D+00 0.000000000000D+00 0.124724634656D-02 0.000000000000D+00  5 2 -2 25 23 21 2 0.15576717D-01 0.39057088D-01 0.24838314D+05 0.24838314D+05 0.24838314D+05 0.12235999D+01  1  2 15  1  5  1        2 0.124023179273D-01 0.100000000000D+01
0.681894199942D-04 0.000000000000D+00 0.000000000000D+00 0.124724634656D-02 0.000000000000D+00  5 2 -2 25 23 21 2 0.29181515D-01 0.39057088D-01 0.50401287D+05 0.50401287D+05 0.50401287D+05 0.11919381D+01  1  2 12  1  5  1        2 0.108895167409D-01 0.100000000000D+01
-.323342898862D-03 0.000000000000D+00 -.210256103479D-03 0.124724634656D-02 0.000000000000D+00  5 2 -2 25 23 21 2 0.34440299D-01 0.39057088D-01 0.24838314D+05 0.24838314D+05 0.24838314D+05 0.12235999D+01  1  2  5  1  5  1        2 -.451017605429D-01 0.100000000000D+01
0.466017360557D-05 0.000000000000D+00 0.000000000000D+00 0.124724634656D-02 0.000000000000D+00  5 21 -2 25 23 -2 2 0.29181515D-01 0.39057088D-01 0.50401287D+05 0.50401287D+05 0.50401287D+05 0.11919381D+01  1  2 12  3  5  1        2 0.372863443362D-02 0.100000000000D+01
-.145608983212D-04 0.000000000000D+00 -.180890957407D-04 0.124724634656D-02 0.000000000000D+00  5 21 -2 25 23 -2 2 0.34440299D-01 0.39057088D-01 0.24838314D+05 0.24838314D+05 0.24838314D+05 0.12235999D+01  1  2  5  3  5  1        2 -.897477567459D-02 0.100000000000D+01
  </mgrwgt>
  </event>
  <event>
  4     66 0.45228882E-03 0.13562298E+03 0.75467711E-02 0.11574499E+00
        4 -1    0    0  501    0 0.00000000E+00 0.00000000E+00 0.37734616E+02 0.37766437E+02 0.15500000E+01 0.0000E+00 0.9000E+01
       -4 -1    0    0    0  501 0.00000000E+00 0.00000000E+00 -.50770912E+03 0.50771149E+03 0.15500000E+01 0.0000E+00 0.9000E+01
       25  1    1    2    0    0 0.18347973E+02 -.79173090E+02 -.20284649E+03 0.25174735E+03 0.12500000E+03 0.0000E+00 0.9000E+01
       23  1    1    2    0    0 -.18347973E+02 0.79173090E+02 -.26712801E+03 0.29373058E+03 0.91188000E+02 0.0000E+00 0.9000E+01
#aMCatNLO 1  0  0  1  2 0.95053922D+02 0.00000000D+00  -5  5  0 0.00000000D+00 0.00000000D+00 0.00000000D+00 0.00000000D+00 0.00000000D+00
  <mgrwgt>
 0.3906219560D-01    3    2    0
 0.138446857992568D+03 0.000000000000000D+00 0.000000000000000D+00 0.138446857992568D+03
 0.138446857992568D+03 0.000000000000000D+00 0.000000000000000D+00 -.138446857992568D+03
 0.151646414779174D+03 0.183479726554927D+02 -.791730904445987D+02 0.276877005954242D+02
 0.125247301205963D+03 -.183479726554927D+02 0.791730904445987D+02 -.276877005954242D+02
 0.000000000000000D+00 0.000000000000000D+00 0.000000000000000D+00 -.000000000000000D+00
 0.164541704040750D+03 0.000000000000000D+00 0.000000000000000D+00 0.164541704040750D+03
 0.270731884278907D+03 0.000000000000000D+00 0.000000000000000D+00 -.270731884278907D+03
 0.178019689589029D+03 -.152238528470424D+02 -.122750297032651D+03 0.276877005954242D+02
 0.114735119226241D+03 -.427867846403231D+02 0.474508012128411D+02 -.276877005954242D+02
 0.142518779504388D+03 0.580106374873655D+02 0.752994958198095D+02 -.106190180238157D+03
0.820750362639D-03 0.000000000000D+00 0.000000000000D+00 0.139387545056D-02 0.000000000000D+00  5 4 -4 25 23 21 0 0.58079553D-02 0.78111725D-01 0.18393593D+05 0.18393593D+05 0.18393593D+05 0.12378495D+01  1  2  2  1  5  1        4 0.382661135778D-01 0.100000000000D+01
-.455736983780D-04 0.000000000000D+00 -.315189750107D-05 0.139387545056D-02 0.000000000000D+00  5 4 -4 25 23 21 2 0.58079553D-02 0.78111725D-01 0.18393593D+05 0.18393593D+05 0.18393593D+05 0.12378495D+01  1  2  3  1  5  1        4 -.325576661632D-02 0.100000000000D+01
0.567171267579D-04 0.000000000000D+00 0.000000000000D+00 0.139387545056D-02 0.000000000000D+00  5 4 -4 25 23 21 2 0.58079553D-02 0.78111725D-01 0.18393593D+05 0.18393593D+05 0.18393593D+05 0.12378495D+01  1  2 15  1  5  1        4 0.405184864174D-02 0.100000000000D+01
  </mgrwgt>
  </event>
  <event>
  5     66 0.45228882E-03 0.11158739E+03 0.75467711E-02 0.11878411E+00
        2 -1    0    0  501    0 0.00000000E+00 0.00000000E+00 0.22619981E+04 0.22619982E+04 0.32000000E+00 0.0000E+00 0.9000E+01
       21 -1    0    0  502  501 0.00000000E+00 0.00000000E+00 -.24099187E+02 0.24110854E+02 0.75000000E+00 0.0000E+00 0.9000E+01
       25  1    1    2    0    0 -.25065567E+02 0.72477948E+02 0.12013250E+04 0.12102430E+04 0.12500000E+03 0.0000E+00 0.9000E+01
       23  1    1    2    0    0 -.62590426E+01 0.47552792E+01 0.95455418E+03 0.95893207E+03 0.91188000E+02 0.0000E+00 0.9000E+01
        2  1    1    2  502    0 0.31324610E+02 -.77233227E+02 0.82019750E+02 0.11693393E+03 0.32000000E+00 0.0000E+00 0.9000E+01
#aMCatNLO 2  0  0  2  1 0.83343881D+02 0.00000000D+00  -5  5  0 0.00000000D+00 0.00000000D+00 0.00000000D+00 0.00000000D+00 0.00000000D+00
  <mgrwgt>
 0.1972201346D+00    2    2    0
 0.112426875783028D+03 0.000000000000000D+00 0.000000000000000D+00 0.112426875783028D+03
 0.112426875783028D+03 0.000000000000000D+00 0.000000000000000D+00 -.112426875783028D+03
 0.128681326965383D+03 -.646199050877830D+01 0.266094033522779D+02 -.135671014395910D+02
 0.961724246006718D+02 0.646199050877830D+01 -.266094033522779D+02 0.135671014395910D+02
 0.000000000000000D+00 0.000000000000000D+00 -.000000000000000D+00 -.000000000000000D+00
 0.125416852487962D+03 0.000000000000000D+00 0.000000000000000D+00 0.125416852487962D+03
 0.434755059905377D+03 0.000000000000000D+00 0.000000000000000D+00 -.434755059905377D+03
 0.147276616699375D+03 -.250655670650509D+02 0.724779479058961D+02 -.135671014395910D+02
 0.925262442756266D+02 -.625904258013170D+01 0.475527919904489D+01 0.135671014395910D+02
 0.320369051418338D+03 0.313246096451826D+02 -.772332271049410D+02 -.309338207417414D+03
-.478676734759D-05 0.000000000000D+00 0.000000000000D+00 0.180013728068D-02 0.000000000000D+00  5 2 21 25 23 2 2 0.31195646D+00 0.35659836D-02 0.25843848D+05 0.25843848D+05 0.25843848D+05 0.12217550D+01  1  2 13  4  5  2       -2 -.318880035472D-01 0.100000000000D+01
0.485836865611D-04 0.000000000000D+00 0.000000000000D+00 0.180013728068D-02 0.810406714205D-06  5 2 21 25 23 2 2 0.34800040D+00 0.37084642D-02 0.25843848D+05 0.25843848D+05 0.25843848D+05 0.12217550D+01  1  2  1  4  5  2       -2 0.229108138127D+00 0.100000000000D+01
  </mgrwgt>
  </event>
  <event>
  4     66 0.45228882E-03 0.14597470E+03 0.75467711E-02 0.11148869E+00
        2 -1    0    0  501    0 0.00000000E+00 0.00000000E+00 0.36554180E+04 0.36554180E+04 0.32000000E+00 0.0000E+00 0.9000E+01
       -2 -1    0    0    0  501 0.00000000E+00 0.00000000E+00 -.73260822E+01 0.73330676E+01 0.32000000E+00 0.0000E+00 0.9000E+01
       25  1    1    2    0    0 0.64351934E+01 0.97230636E+02 0.27745867E+04 0.27791098E+04 0.12500000E+03 0.0000E+00 0.9000E+01
       23  1    1    2    0    0 -.64351934E+01 -.97230636E+02 0.87350527E+03 0.88364128E+03 0.91188000E+02 0.0000E+00 0.9000E+01
#aMCatNLO 1  0  0  1  1 0.16218242D+03 0.00000000D+00  -5  5  0 0.00000000D+00 0.00000000D+00 0.00000000D+00 0.00000000D+00 0.00000000D+00
  <mgrwgt>
 0.2083695245D+00    3    2    0
 0.163684792384192D+03 0.000000000000000D+00 0.000000000000000D+00 0.163684792384192D+03
 0.163684792384192D+03 0.000000000000000D+00 0.000000000000000D+00 -.163684792384192D+03
 0.174849159808813D+03 0.643519338083396D+01 0.972306361036155D+02 0.738377977385942D+02
 0.152520424959570D+03 -.643519338083396D+01 -.972306361036155D+02 -.738377977385942D+02
 0.000000000000000D+00 -.000000000000000D+00 0.000000000000000D+00 -.000000000000000D+00
 0.245464531063817D+03 0.000000000000000D+00 0.000000000000000D+00 0.245464531063817D+03
 0.287390273033392D+03 0.000000000000000D+00 0.000000000000000D+00 -.287390273033392D+03
 0.149869441384169D+03 0.281132462738619D+02 0.243613314468344D+02 0.738377977385942D+02
 0.215471469917975D+03 0.181317631533869D+02 -.179810794433139D+03 -.738377977385942D+02
 0.167513892795064D+03 -.462450094272488D+02 0.155449462986305D+03 -.419257419695750D+02
0.138793213643D-02 0.000000000000D+00 0.000000000000D+00 0.104743942819D-02 0.000000000000D+00  5 2 -2 25 23 21 0 0.56237254D+00 0.11276280D-02 0.21308612D+05 0.21308612D+05 0.21308612D+05 0.12308072D+01  1  2  2  1  5  1        2 0.204070699066D+00 0.100000000000D+01
-.758780387933D-04 0.000000000000D+00 -.533002485482D-05 0.104743942819D-02 0.000000000000D+00  5 2 -2 25 23 21 2 0.56237254D+00 0.11276280D-02 0.21308612D+05 0.21308612D+05 0.21308612D+05 0.12308072D+01  1  2  3  1  5  1        2 -.169008517582D-01 0.100000000000D+01
0.951780390551D-04 0.000000000000D+00 0.000000000000D+00 0.104743942819D-02 0.000000000000D+00  5 2 -2 25 23 21 2 0.56237254D+00 0.11276280D-02 0.21308612D+05 0.21308612D+05 0.21308612D+05 0.12308072D+01  1  2 15  1  5  1        2 0.211996771963D-01 0.100000000000D+01
  </mgrwgt>
  </event>
  <event>
  4     66 0.45228882E-03 0.96359899E+02 0.75467711E-02 0.11403455E+00
        4 -1    0    0  501    0 0.00000000E+00 0.00000000E+00 0.24021360E+03 0.24021860E+03 0.15500000E+01 0.0000E+00 0.9000E+01
       -4 -1    0    0    0  501 0.00000000E+00 0.00000000E+00 -.16452107E+03 0.16452838E+03 0.15500000E+01 0.0000E+00 0.9000E+01
       25  1    1    2    0    0 -.13753692E+03 0.34025261E+01 -.55402254E+02 0.19396492E+03 0.12500000E+03 0.0000E+00 0.9000E+01
       23  1    1    2    0    0 0.13753692E+03 -.34025261E+01 0.13109478E+03 0.21078205E+03 0.91188000E+02 0.0000E+00 0.9000E+01
#aMCatNLO 1  0  0  1  2 0.66156337D+02 0.00000000D+00  -5  5  0 0.00000000D+00 0.00000000D+00 0.00000000D+00 0.00000000D+00 0.00000000D+00
  <mgrwgt>
 0.1973715124D-01    9    2    0
 0.198803140065755D+03 0.000000000000000D+00 0.000000000000000D+00 0.198803140065755D+03
 0.198803140065755D+03 0.000000000000000D+00 0.000000000000000D+00 -.198803140065755D+03
 0.207995334733282D+03 -.137536918743959D+03 0.340252611421351D+01 -.933224414022133D+02
 0.189610945398228D+03 0.137536918743959D+03 -.340252611421351D+01 0.933224414022133D+02
 0.000000000000000D+00 0.000000000000000D+00 -.000000000000000D+00 0.000000000000000D+00
 0.236453031310511D+03 0.000000000000000D+00 0.000000000000000D+00 0.236453031310511D+03
 0.232872591952647D+03 0.000000000000000D+00 0.000000000000000D+00 -.232872591952647D+03
 0.215814431110129D+03 -.144276014911105D+03 0.377653561811535D+02 -.933224414022133D+02
 0.187258037504300D+03 0.131544238718900D+03 0.271543082503938D+02 0.933224414022133D+02
 0.662531546487294D+02 0.127317761922056D+02 -.649196644315472D+02 0.358043935786413D+01
0.712413863492D-03 0.000000000000D+00 0.000000000000D+00 0.916127710277D-03 0.000000000000D+00  5 4 -4 25 23 21 0 0.36956884D-01 0.25311881D-01 0.30789644D+05 0.30789644D+05 0.30789644D+05 0.12137159D+01  1  2  2  1  5  1        4 0.129206340704D-01 0.100000000000D+01
-.388284702775D-04 0.000000000000D+00 -.273585681869D-05 0.916127710277D-03 0.000000000000D+00  5 4 -4 25 23 21 2 0.36956884D-01 0.25311881D-01 0.30789644D+05 0.30789644D+05 0.30789644D+05 0.12137159D+01  1  2  3  1  5  1        4 -.103737519712D-02 0.100000000000D+01
0.490516435486D-04 0.000000000000D+00 0.000000000000D+00 0.916127710277D-03 0.000000000000D+00  5 4 -4 25 23 21 2 0.36956884D-01 0.25311881D-01 0.30789644D+05 0.30789644D+05 0.30789644D+05 0.12137159D+01  1  2 15  1  5  1        4 0.131050638956D-02 0.100000000000D+01
0.444765474949D-03 0.000000000000D+00 0.000000000000D+00 0.916127710277D-03 0.000000000000D+00  5 4 -4 25 23 21 2 0.46584266D-01 0.25311881D-01 0.44752785D+05 0.44752785D+05 0.44752785D+05 0.11970800D+01  1  2 12  1  5  1        4 0.748708239104D-02 0.100000000000D+01
-.446006084496D-03 0.000000000000D+00 0.000000000000D+00 0.916127710277D-03 0.000000000000D+00  5 4 -4 25 23 21 2 0.36956884D-01 0.25311881D-01 0.30789644D+05 0.30789644D+05 0.30789644D+05 0.12137159D+01  1  2  4  1  5  1        4 -.119158866294D-01 0.100000000000D+01
-.102410134695D-02 0.000000000000D+00 -.437272458470D-03 0.916127710277D-03 0.000000000000D+00  5 4 -4 25 23 21 2 0.50779659D-01 0.25311881D-01 0.30789644D+05 0.30789644D+05 0.30789644D+05 0.12137159D+01  1  2  5  1  5  1        4 -.144793742771D-01 0.100000000000D+01
0.112685910147D-02 0.000000000000D+00 0.416090638272D-03 0.916127710277D-03 0.000000000000D+00  5 4 -4 25 23 21 2 0.36956884D-01 0.25311881D-01 0.30789644D+05 0.30789644D+05 0.30789644D+05 0.12137159D+01  1  2  6  1  5  1        4 0.301061482506D-01 0.100000000000D+01
0.142179319526D-04 0.000000000000D+00 0.000000000000D+00 0.916127710277D-03 0.000000000000D+00  5 21 -4 25 23 -4 2 0.46584266D-01 0.25311881D-01 0.44752785D+05 0.44752785D+05 0.44752785D+05 0.11970800D+01  1  2 12  3  5  1        4 0.554469866752D-02 0.100000000000D+01
-.305540276420D-04 0.000000000000D+00 -.176183318547D-04 0.916127710277D-03 0.000000000000D+00  5 21 -4 25 23 -4 2 0.50779659D-01 0.25311881D-01 0.30789644D+05 0.30789644D+05 0.30789644D+05 0.12137159D+01  1  2  5  3  5  1        4 -.101992824255D-01 0.100000000000D+01
  </mgrwgt>
  </event>
  <event>
  4     66 0.45228882E-03 0.62719901E+02 0.75467711E-02 0.11680009E+00
        2 -1    0    0  501    0 0.00000000E+00 0.00000000E+00 0.11412878E+03 0.11412923E+03 0.32000000E+00 0.0000E+00 0.9000E+01
       -2 -1    0    0    0  501 0.00000000E+00 0.00000000E+00 -.18440128E+03 0.18440156E+03 0.32000000E+00 0.0000E+00 0.9000E+01
       25  1    1    2    0    0 -.49607224E+02 -.40120100E+02 0.35748995E+02 0.14482227E+03 0.12500000E+03 0.0000E+00 0.9000E+01
       23  1    1    2    0    0 0.49607224E+02 0.40120100E+02 -.10602149E+03 0.15370851E+03 0.91188000E+02 0.0000E+00 0.9000E+01
#aMCatNLO 1  0  0  2  1 0.91579621D+02 0.00000000D+00  -5  5  0 0.00000000D+00 0.00000000D+00 0.00000000D+00 0.00000000D+00 0.00000000D+00
  <mgrwgt>
 0.1817991424D+00    8    2    0
 0.145071021572839D+03 0.000000000000000D+00 0.000000000000000D+00 0.145071021572839D+03
 0.145071021572839D+03 0.000000000000000D+00 0.000000000000000D+00 -.145071021572839D+03
 0.157667866512561D+03 -.496072243452047D+02 -.401200999206463D+02 0.718585903406441D+02
 0.132474176633118D+03 0.496072243452047D+02 0.401200999206463D+02 -.718585903406441D+02
 0.000000000000000D+00 0.000000000000000D+00 -.000000000000000D+00 -.000000000000000D+00
 0.175475037626895D+03 0.000000000000000D+00 0.000000000000000D+00 0.175475037626895D+03
 0.241924235238896D+03 0.000000000000000D+00 0.000000000000000D+00 -.241924235238896D+03
 0.160669118232611D+03 -.707735619205702D+02 0.412449766340598D+01 0.718585903406441D+02
 0.143582804132414D+03 0.312520990379870D+02 0.784883405258552D+02 -.718585903406441D+02
 0.113147350500766D+03 0.395214628825833D+02 -.826128381892612D+02 -.664491976120007D+02
0.311278203772D-03 0.000000000000D+00 0.000000000000D+00 0.110685368203D-02 0.000000000000D+00  5 2 -2 25 23 21 0 0.17558330D-01 0.28369483D-01 0.15829658D+05 0.15829658D+05 0.15829658D+05 0.12451659D+01  1  2  2  2  5  2       -2 0.108900593110D+00 0.100000000000D+01
-.168668535240D-04 0.000000000000D+00 -.119539026392D-05 0.110685368203D-02 0.000000000000D+00  5 2 -2 25 23 21 2 0.17558330D-01 0.28369483D-01 0.15829658D+05 0.15829658D+05 0.15829658D+05 0.12451659D+01  1  2  3  2  5  2       -2 -.914892503053D-02 0.100000000000D+01
0.214818724589D-04 0.000000000000D+00 0.000000000000D+00 0.110685368203D-02 0.000000000000D+00  5 2 -2 25 23 21 2 0.17558330D-01 0.28369483D-01 0.15829658D+05 0.15829658D+05 0.15829658D+05 0.12451659D+01  1  2 15  2  5  2       -2 0.116522053365D-01 0.100000000000D+01
0.253550151947D-04 0.000000000000D+00 0.000000000000D+00 0.110685368203D-02 0.000000000000D+00  5 2 -2 25 23 21 2 0.17558330D-01 0.48646568D-01 0.32326494D+05 0.32326494D+05 0.32326494D+05 0.12115087D+01  1  2 12  2  5  2       -2 0.481932036753D-02 0.100000000000D+01
-.128241109113D-03 0.000000000000D+00 -.870962864398D-04 0.110685368203D-02 0.000000000000D+00  5 2 -2 25 23 21 2 0.17558330D-01 0.55739759D-01 0.15829658D+05 0.15829658D+05 0.15829658D+05 0.12451659D+01  1  2  5  2  5  2       -2 -.193910867691D-01 0.100000000000D+01
0.164725206120D-03 0.000000000000D+00 0.704166308142D-04 0.110685368203D-02 0.000000000000D+00  5 2 -2 25 23 21 2 0.17558330D-01 0.28369483D-01 0.15829658D+05 0.15829658D+05 0.15829658D+05 0.12451659D+01  1  2  6  2  5  2       -2 0.893503082409D-01 0.100000000000D+01
0.151963087240D-05 0.000000000000D+00 0.000000000000D+00 0.110685368203D-02 0.000000000000D+00  5 2 21 25 23 2 2 0.17558330D-01 0.48646568D-01 0.32326494D+05 0.32326494D+05 0.32326494D+05 0.12115087D+01  1  2 12  4  5  2       -2 0.355627599702D-02 0.100000000000D+01
-.423395240306D-05 0.000000000000D+00 -.637109094832D-05 0.110685368203D-02 0.000000000000D+00  5 2 21 25 23 2 2 0.17558330D-01 0.55739759D-01 0.15829658D+05 0.15829658D+05 0.15829658D+05 0.12451659D+01  1  2  5  4  5  2       -2 -.793954882035D-02 0.100000000000D+01
  </mgrwgt>
  </event>
  <event>
  4     66 0.45228882E-03 0.23074552E+03 0.75467711E-02 0.10429843E+00
        2 -1    0    0  501    0 0.00000000E+00 0.00000000E+00 0.14363654E+03 0.14363689E+03 0.32000000E+00 0.0000E+00 0.9000E+01
       -2 -1    0    0    0  501 0.00000000E+00 0.00000000E+00 -.43654694E+03 0.43654705E+03 0.32000000E+00 0.0000E+00 0.9000E+01
       25  1    1    2    0    0 -.10095341E+03 -.17647804E+03 -.38099076E+02 0.24168705E+03 0.12500000E+03 0.0000E+00 0.9000E+01
       23  1    1    2    0    0 0.10095341E+03 0.17647804E+03 -.25481132E+03 0.33849690E+03 0.91188000E+02 0.0000E+00 0.9000E+01
#aMCatNLO 1  0  0  1  1 0.27069848D+03 0.00000000D+00  -5  5  0 0.00000000D+00 0.00000000D+00 0.00000000D+00 0.00000000D+00 0.00000000D+00
  <mgrwgt>
 0.1693830585D+00    3    2    0
 0.250408121462773D+03 0.000000000000000D+00 0.000000000000000D+00 0.250408121462773D+03
 0.250408121462773D+03 0.000000000000000D+00 0.000000000000000D+00 -.250408121462773D+03
 0.257705956506320D+03 -.100953410314185D+03 -.176478037876619D+03 0.972176481508986D+02
 0.243110286419225D+03 0.100953410314185D+03 0.176478037876619D+03 -.972176481508986D+02
 0.000000000000000D+00 0.000000000000000D+00 -.000000000000000D+00 -.000000000000000D+00
 0.321245289810822D+03 0.000000000000000D+00 0.000000000000000D+00 0.321245289810822D+03
 0.785193933474088D+03 0.000000000000000D+00 0.000000000000000D+00 -.785193933474088D+03
 0.237314326995621D+03 -.163218848340727D+03 -.678338133361183D+02 0.972176481508986D+02
 0.331978722967049D+03 0.286166389391478D+02 0.302695289065865D+03 -.972176481508986D+02
 0.537146173322239D+03 0.134602209401579D+03 -.234861475729747D+03 -.463948643663266D+03
0.321788761111D-02 0.000000000000D+00 0.000000000000D+00 0.903844315164D-03 0.000000000000D+00  5 2 -2 25 23 21 0 0.22097965D-01 0.67161104D-01 0.53243493D+05 0.53243493D+05 0.53243493D+05 0.11895878D+01  1  2  2  1  5  1        2 0.166218992968D+00 0.100000000000D+01
-.177317955955D-03 0.000000000000D+00 -.123575357159D-04 0.903844315164D-03 0.000000000000D+00  5 2 -2 25 23 21 2 0.22097965D-01 0.67161104D-01 0.53243493D+05 0.53243493D+05 0.53243493D+05 0.11895878D+01  1  2  3  1  5  1        2 -.129615078990D-01 0.100000000000D+01
0.220603477695D-03 0.000000000000D+00 0.000000000000D+00 0.903844315164D-03 0.000000000000D+00  5 2 -2 25 23 21 2 0.22097965D-01 0.67161104D-01 0.53243493D+05 0.53243493D+05 0.53243493D+05 0.11895878D+01  1  2 15  1  5  1        2 0.161255734270D-01 0.100000000000D+01
  </mgrwgt>
  </event>
  <event>
  5     66 0.45228882E-03 0.12535722E+03 0.75467711E-02 0.12266195E+00
       21 -1    0    0  501  502 0.00000000E+00 0.00000000E+00 0.37429538E+02 0.37437052E+02 0.75000000E+00 0.0000E+00 0.9000E+01
       -2 -1    0    0    0  501 0.00000000E+00 0.00000000E+00 -.47031820E+03 0.47031831E+03 0.32000000E+00 0.0000E+00 0.9000E+01
       25  1    1    2    0    0 0.47027572E+02 0.49270058E+02 -.24965218E+03 0.28738535E+03 0.12500000E+03 0.0000E+00 0.9000E+01
       23  1    1    2    0    0 -.43578099E+02 -.39661896E+02 -.17891540E+03 0.20927993E+03 0.91188000E+02 0.0000E+00 0.9000E+01
       -2  1    1    2    0  502 -.34494727E+01 -.96081625E+01 -.43210810E+01 0.11090076E+02 0.32000000E+00 0.0000E+00 0.9000E+01
#aMCatNLO 2  0  0  1  2 0.10208607D+02 0.00000000D+00  -5  5  0 0.00000000D+00 0.00000000D+00 0.00000000D+00 0.00000000D+00 0.00000000D+00
  <mgrwgt>
 0.2699779535D-02    2    2    0
 0.125401372734955D+03 0.000000000000000D+00 0.000000000000000D+00 0.125401372734955D+03
 0.125401372734955D+03 0.000000000000000D+00 0.000000000000000D+00 -.125401372734955D+03
 0.139974077356478D+03 0.450865929276173D+02 0.438636541697761D+02 -.330474096578702D+01
 0.110828668113432D+03 -.450865929276173D+02 -.438636541697761D+02 0.330474096578702D+01
 0.000000000000000D+00 -.000000000000000D+00 -.000000000000000D+00 0.000000000000000D+00
 0.137978704768135D+03 0.000000000000000D+00 0.000000000000000D+00 0.137978704768135D+03
 0.127593954115729D+03 0.000000000000000D+00 0.000000000000000D+00 -.127593954115729D+03
 0.142390492891557D+03 0.470275720135630D+02 0.492700580835728D+02 -.330474096578702D+01
 0.108619930764442D+03 -.435780993496593D+02 -.396618955610089D+02 0.330474096578702D+01
 0.145622352278651D+02 -.344947266390374D+01 -.960816252256394D+01 0.103847506524063D+02
-.285023874146D-04 0.000000000000D+00 0.000000000000D+00 0.158880778498D-02 0.000000000000D+00  5 21 -2 25 23 -2 2 0.58017018D-02 0.71112873D-01 0.17047270D+05 0.17047270D+05 0.17047270D+05 0.12415375D+01  1  2 13  3  5  1        2 -.136532420141D+00 0.100000000000D+01
0.297856131579D-04 0.000000000000D+00 0.000000000000D+00 0.158880778498D-02 0.199339049503D-05  5 21 -2 25 23 -2 2 0.57588984D-02 0.72356247D-01 0.17047270D+05 0.17047270D+05 0.17047270D+05 0.12415375D+01  1  2  1  3  5  1        2 0.139232199676D+00 0.100000000000D+01
  </mgrwgt>
  </event>
  <event>
  4     66 0.45228882E-03 0.65517412E+02 0.75467711E-02 0.12538207E+00
        2 -1    0    0  501    0 0.00000000E+00 0.00000000E+00 0.39794795E+03 0.39794807E+03 0.32000000E+00 0.0000E+00 0.9000E+01
       -2 -1    0    0    0  501 0.00000000E+00 0.00000000E+00 -.31195575E+02 0.31197216E+02 0.32000000E+00 0.0000E+00 0.9000E+01
       25  1    1    2    0    0 0.18119059E+02 -.19549423E+02 0.21369870E+03 0.24900324E+03 0.12500000E+03 0.0000E+00 0.9000E+01
       23  1    1    2    0    0 -.18119059E+02 0.19549423E+02 0.15305367E+03 0.18014205E+03 0.91188000E+02 0.0000E+00 0.9000E+01
#aMCatNLO 1  0  0  1  2 0.45913512D+01 0.00000000D+00  -5  5  0 0.00000000D+00 0.00000000D+00 0.00000000D+00 0.00000000D+00 0.00000000D+00
  <mgrwgt>
 0.1726780542D+00   11    2    0
 0.111420800479251D+03 0.000000000000000D+00 0.000000000000000D+00 0.111420800479251D+03
 0.111420800479251D+03 0.000000000000000D+00 0.000000000000000D+00 -.111420800479251D+03
 0.127822021401554D+03 0.181190585690978D+02 -.195494226177983D+02 0.172885715418796D+01
 0.950195795569485D+02 -.181190585690978D+02 0.195494226177983D+02 -.172885715418796D+01
 0.000000000000000D+00 -.000000000000000D+00 -.000000000000000D+00 0.000000000000000D+00
 0.115013526760196D+03 0.000000000000000D+00 0.000000000000000D+00 0.115013526760196D+03
 0.112921054401680D+03 0.000000000000000D+00 0.000000000000000D+00 -.112921054401680D+03
 0.127679207401773D+03 0.194009848001936D+02 -.172508795273736D+02 0.172885715418796D+01
 0.952096878432544D+02 -.171646213284449D+02 0.212607653390338D+02 -.172885715418796D+01
 0.504568591684811D+01 -.223636347174875D+01 -.400988581166017D+01 0.209247235851604D+01
0.520783038110D-04 0.000000000000D+00 0.000000000000D+00 0.184177189578D-02 0.000000000000D+00  5 2 -2 25 23 21 0 0.61222897D-01 0.47994554D-02 0.12411540D+05 0.12411540D+05 0.12411540D+05 0.12573114D+01  1  2  2  1  5  1        2 0.806835604925D-01 0.100000000000D+01
-.289323904734D-05 0.000000000000D+00 -.199994399166D-06 0.184177189578D-02 0.000000000000D+00  5 2 -2 25 23 21 2 0.61222897D-01 0.47994554D-02 0.12411540D+05 0.12411540D+05 0.12411540D+05 0.12573114D+01  1  2  3  1  5  1        2 -.708595283770D-02 0.100000000000D+01
0.359904093012D-05 0.000000000000D+00 0.000000000000D+00 0.184177189578D-02 0.000000000000D+00  5 2 -2 25 23 21 2 0.61222897D-01 0.47994554D-02 0.12411540D+05 0.12411540D+05 0.12411540D+05 0.12573114D+01  1  2 15  1  5  1        2 0.881456176782D-02 0.100000000000D+01
0.359624754014D-04 0.000000000000D+00 0.000000000000D+00 0.184177189578D-02 0.000000000000D+00  5 2 -2 25 23 21 2 0.63599620D-01 0.47994554D-02 0.12933699D+05 0.12933699D+05 0.12933699D+05 0.12552281D+01  1  2 12  1  5  1        2 0.844532758148D-01 0.100000000000D+01
-.308413504221D-03 0.000000000000D+00 0.000000000000D+00 0.184177189578D-02 0.000000000000D+00  5 2 -2 25 23 21 2 0.61222897D-01 0.47994554D-02 0.12411540D+05 0.12411540D+05 0.12411540D+05 0.12573114D+01  1  2  4  1  5  1        2 -.755348420806D+00 0.100000000000D+01
-.141185334802D-02 0.000000000000D+00 -.193389188305D-03 0.184177189578D-02 0.000000000000D+00  5 2 -2 25 23 21 2 0.63891864D-01 0.47994554D-02 0.12411540D+05 0.12411540D+05 0.12411540D+05 0.12573114D+01  1  2  5  1  5  1        2 -.330455732425D+01 0.100000000000D+01
0.141898930251D-02 0.000000000000D+00 0.193213260697D-03 0.184177189578D-02 0.000000000000D+00  5 2 -2 25 23 21 2 0.61222897D-01 0.47994554D-02 0.12411540D+05 0.12411540D+05 0.12411540D+05 0.12573114D+01  1  2  6  1  5  1        2 0.347530608784D+01 0.100000000000D+01
0.274146768560D-03 0.000000000000D+00 0.000000000000D+00 0.184177189578D-02 0.734607559242D-03  5 2 -2 25 23 21 2 0.63197009D-01 0.48640789D-02 0.12933699D+05 0.12933699D+05 0.12933699D+05 0.12552281D+01  1  2 11  1  5  1        2 0.635358574198D+00 0.100000000000D+01
0.632545710057D-06 0.000000000000D+00 0.000000000000D+00 0.184177189578D-02 0.000000000000D+00  5 21 -2 25 23 -2 2 0.63599620D-01 0.47994554D-02 0.12933699D+05 0.12933699D+05 0.12933699D+05 0.12552281D+01  1  2 12  3  5  1        2 0.364949593487D-02 0.100000000000D+01
-.104817317695D-04 0.000000000000D+00 -.145287678242D-05 0.184177189578D-02 0.000000000000D+00  5 21 -2 25 23 -2 2 0.63891864D-01 0.47994554D-02 0.12411540D+05 0.12411540D+05 0.12411540D+05 0.12573114D+01  1  2  5  3  5  1        2 -.600517801401D-01 0.100000000000D+01
0.199833510802D-05 0.000000000000D+00 0.000000000000D+00 0.184177189578D-02 0.420462539442D-05  5 21 -2 25 23 -2 2 0.63197009D-01 0.48640789D-02 0.12933699D+05 0.12933699D+05 0.12933699D+05 0.12552281D+01  1  2 11  3  5  1        2 0.114559762237D-01 0.100000000000D+01
  </mgrwgt>
  </event>
  <event>
  4     66 -.45228882E-03 0.10583171E+03 0.75467711E-02 0.11467032E+00
        2 -1    0    0  501    0 0.00000000E+00 0.00000000E+00 0.20371066E+04 0.20371066E+04 0.32000000E+00 0.0000E+00 0.9000E+01
       -2 -1    0    0    0  501 0.00000000E+00 0.00000000E+00 -.20451750E+02 0.20454253E+02 0.32000000E+00 0.0000E+00 0.9000E+01
       25  1    1    2    0    0 -.15365492E+03 0.74919091E+02 0.11710018E+04 0.11899971E+04 0.12500000E+03 0.0000E+00 0.9000E+01
       23  1    1    2    0    0 0.15365492E+03 -.74919091E+02 0.84565303E+03 0.86756384E+03 0.91188000E+02 0.0000E+00 0.9000E+01
#aMCatNLO 1  0  0  2  1 0.17577691D+01 0.00000000D+00  -5  5  0 0.00000000D+00 0.00000000D+00 0.00000000D+00 0.00000000D+00 0.00000000D+00
  <mgrwgt>
 -.1406549280D+00   11    2    0
 0.204120052544583D+03 0.000000000000000D+00 0.000000000000000D+00 0.204120052544583D+03
 0.204120052544583D+03 0.000000000000000D+00 0.000000000000000D+00 -.204120052544583D+03
 0.213072809224875D+03 -.153654922979390D+03 0.749190905840256D+02 0.235014157284223D+02
 0.195167295864291D+03 0.153654922979390D+03 -.749190905840256D+02 -.235014157284223D+02
 0.000000000000000D+00 0.000000000000000D+00 0.000000000000000D+00 -.000000000000000D+00
 0.204329792113949D+03 0.000000000000000D+00 0.000000000000000D+00 0.204329792113949D+03
 0.207838314636090D+03 0.000000000000000D+00 0.000000000000000D+00 -.207838314636090D+03
 0.213143023181383D+03 -.154131793590531D+03 0.741351603102436D+02 0.235014157284223D+02
 0.195100866124354D+03 0.153218272337236D+03 -.756369030250813D+02 -.235014157284223D+02
 0.392421744430200D+01 0.913521253294581D+00 0.150174271483776D+01 -.350852252214161D+01
0.376833063109D-03 0.000000000000D+00 0.000000000000D+00 0.111424785831D-02 0.000000000000D+00  5 2 -2 25 23 21 0 0.31340121D+00 0.31466175D-02 0.41111600D+05 0.41111600D+05 0.41111600D+05 0.12007932D+01  1  2  2  2  5  2       -2 0.105737406721D+00 0.100000000000D+01
-.209340324748D-04 0.000000000000D+00 -.144713818476D-05 0.111424785831D-02 0.000000000000D+00  5 2 -2 25 23 21 2 0.31340121D+00 0.31466175D-02 0.41111600D+05 0.41111600D+05 0.41111600D+05 0.12007932D+01  1  2  3  2  5  2       -2 -.846971941365D-02 0.100000000000D+01
0.259152350087D-04 0.000000000000D+00 0.000000000000D+00 0.111424785831D-02 0.000000000000D+00  5 2 -2 25 23 21 2 0.31340121D+00 0.31466175D-02 0.41111600D+05 0.41111600D+05 0.41111600D+05 0.12007932D+01  1  2 15  2  5  2       -2 0.104850687190D-01 0.100000000000D+01
0.603466448925D-06 0.000000000000D+00 0.000000000000D+00 0.111424785831D-02 0.000000000000D+00  5 2 -2 25 23 21 2 0.31340121D+00 0.32055372D-02 0.41469537D+05 0.41469537D+05 0.41469537D+05 0.12004123D+01  1  2 12  2  5  2       -2 0.237354057857D-03 0.100000000000D+01
-.219330843172D-01 0.000000000000D+00 0.000000000000D+00 0.111424785831D-02 0.000000000000D+00  5 2 -2 25 23 21 2 0.31340121D+00 0.31466175D-02 0.41111600D+05 0.41111600D+05 0.41111600D+05 0.12007932D+01  1  2  4  2  5  2       -2 -.887392671560D+01 0.100000000000D+01
-.373757543429D-01 0.000000000000D+00 -.226593524268D-02 0.111424785831D-02 0.000000000000D+00  5 2 -2 25 23 21 2 0.31340121D+00 0.32074181D-02 0.41111600D+05 0.41111600D+05 0.41111600D+05 0.12007932D+01  1  2  5  2  5  2       -2 -.146975233855D+02 0.100000000000D+01
0.374126833720D-01 0.000000000000D+00 0.226552033339D-02 0.111424785831D-02 0.000000000000D+00  5 2 -2 25 23 21 2 0.31340121D+00 0.31466175D-02 0.41111600D+05 0.41111600D+05 0.41111600D+05 0.12007932D+01  1  2  6  2  5  2       -2 0.151368319054D+02 0.100000000000D+01
0.219360336946D-01 0.000000000000D+00 0.000000000000D+00 0.111424785831D-02 0.277196843344D-02  5 2 -2 25 23 21 2 0.31372324D+00 0.32039365D-02 0.41469537D+05 0.41469537D+05 0.41469537D+05 0.12004123D+01  1  2 11  2  5  2       -2 0.861257439816D+01 0.100000000000D+01
0.396472858647D-07 0.000000000000D+00 0.000000000000D+00 0.111424785831D-02 0.000000000000D+00  5 2 21 25 23 2 2 0.31340121D+00 0.32055372D-02 0.41469537D+05 0.41469537D+05 0.41469537D+05 0.12004123D+01  1  2 12  4  5  2       -2 0.297730636546D-03 0.100000000000D+01
-.130047055690D-03 0.000000000000D+00 -.790262791580D-05 0.111424785831D-02 0.000000000000D+00  5 2 21 25 23 2 2 0.31340121D+00 0.32074181D-02 0.41111600D+05 0.41111600D+05 0.41111600D+05 0.12007932D+01  1  2  5  4  5  2       -2 -.976463764058D+00 0.100000000000D+01
0.733060379647D-04 0.000000000000D+00 0.000000000000D+00 0.111424785831D-02 0.913938239924D-05  5 2 21 25 23 2 2 0.31372324D+00 0.32039365D-02 0.41469537D+05 0.41469537D+05 0.41469537D+05 0.12004123D+01  1  2 11  4  5  2       -2 0.549564792813D+00 0.100000000000D+01
  </mgrwgt>
  </event>
  <event>
  5     66 0.45228882E-03 0.11645643E+03 0.75467711E-02 0.11480696E+00
        2 -1    0    0  501    0 0.00000000E+00 0.00000000E+00 0.13387222E+03 0.13387260E+03 0.32000000E+00 0.0000E+00 0.9000E+01
       21 -1    0    0  502  501 0.00000000E+00 0.00000000E+00 -.31774468E+03 0.31774557E+03 0.75000000E+00 0.0000E+00 0.9000E+01
       25  1    1    2    0    0 -.83691071E+02 0.93147861E+02 -.44967109E+02 0.18255892E+03 0.12500000E+03 0.0000E+00 0.9000E+01
       23  1    1    2    0    0 -.71916662E+01 0.70885405E+01 -.79064318E+02 0.12111311E+03 0.91188000E+02 0.0000E+00 0.9000E+01
        2  1    1    2  502    0 0.90882737E+02 -.10023640E+03 -.59841034E+02 0.14794614E+03 0.32000000E+00 0.0000E+00 0.9000E+01
#aMCatNLO 2  0  0  2  1 0.13530339D+03 0.00000000D+00  -5  5  0 0.00000000D+00 0.00000000D+00 0.00000000D+00 0.00000000D+00 0.00000000D+00
  <mgrwgt>
 0.2411758677D-01    1    2    0
 0.120960633911140D+03 0.000000000000000D+00 0.000000000000000D+00 0.120960633911140D+03
 0.120960633911140D+03 0.000000000000000D+00 0.000000000000000D+00 -.120960633911140D+03
 0.136068335523736D+03 -.283764185160534D+02 0.321402165813777D+02 0.324249484580004D+02
 0.105852932298544D+03 0.283764185160534D+02 -.321402165813777D+02 -.324249484580004D+02
 0.000000000000000D+00 0.000000000000000D+00 -.000000000000000D+00 0.000000000000000D+00
 0.206567147320551D+03 0.000000000000000D+00 0.000000000000000D+00 0.206567147320551D+03
 0.205925263888437D+03 0.000000000000000D+00 0.000000000000000D+00 -.205925263888437D+03
 0.179880784474278D+03 -.836910709218772D+02 0.931478608907738D+02 0.324249484580004D+02
 0.973067114667639D+02 -.719166623708534D+01 0.708854052019429D+01 -.324249484580004D+02
 0.135304915267947D+03 0.908827371589626D+02 -.100236401410968D+03 0.641883432114195D+00
0.127638646691D-04 0.000000000000D+00 0.000000000000D+00 0.156737703676D-02 0.104459056618D-06  5 2 21 25 23 2 2 0.20595805D-01 0.48883850D-01 0.40800570D+05 0.40800570D+05 0.40800570D+05 0.12011273D+01  1  2  1  4  5  2       -2 0.241175867717D-01 0.100000000000D+01
  </mgrwgt>
  </event>
  <event>
  4     66 -.45228882E-03 0.57957484E+02 0.75467711E-02 0.12280024E+00
        2 -1    0    0  501    0 0.00000000E+00 0.00000000E+00 0.91631718E+03 0.91631723E+03 0.32000000E+00 0.0000E+00 0.9000E+01
       -2 -1    0    0    0  501 0.00000000E+00 0.00000000E+00 -.19570649E+02 0.19573265E+02 0.32000000E+00 0.0000E+00 0.9000E+01
       25  1    1    2    0    0 -.60400731E+02 0.31562395E+02 0.35846683E+03 0.38570442E+03 0.12500000E+03 0.0000E+00 0.9000E+01
       23  1    1    2    0    0 0.60400731E+02 -.31562395E+02 0.53827970E+03 0.55018608E+03 0.91188000E+02 0.0000E+00 0.9000E+01
#aMCatNLO 1  0  0  2  1 0.30226656D+01 0.00000000D+00  -5  5  0 0.00000000D+00 0.00000000D+00 0.00000000D+00 0.00000000D+00 0.00000000D+00
  <mgrwgt>
 -.9138883503D-01   11    2    0
 0.133918527887054D+03 0.000000000000000D+00 0.000000000000000D+00 0.133918527887054D+03
 0.133918527887054D+03 0.000000000000000D+00 0.000000000000000D+00 -.133918527887054D+03
 0.147564415374268D+03 -.604007310248346D+02 0.315623945191065D+02 -.388049433530739D+02
 0.120272640399841D+03 0.604007310248346D+02 -.315623945191065D+02 0.388049433530739D+02
 0.000000000000000D+00 -.000000000000000D+00 0.000000000000000D+00 -.000000000000000D+00
 0.134438743063481D+03 0.000000000000000D+00 0.000000000000000D+00 0.134438743063481D+03
 0.138390966199275D+03 0.000000000000000D+00 0.000000000000000D+00 -.138390966199275D+03
 0.146924106002643D+03 -.595684798183048D+02 0.301241681740242D+02 -.388049433530739D+02
 0.120930005320818D+03 0.610823915254906D+02 -.327403827067514D+02 0.388049433530739D+02
 0.497559793929480D+01 -.151391170718580D+01 0.261621453272715D+01 -.395222313579429D+01
0.994310483655D-04 0.000000000000D+00 0.000000000000D+00 0.138714198578D-02 0.000000000000D+00  5 2 -2 25 23 21 0 0.14097208D+00 0.30110746D-02 0.16411066D+05 0.16411066D+05 0.16411066D+05 0.12433957D+01  1  2  2  2  5  2       -2 0.118733687729D+00 0.100000000000D+01
-.551072114900D-05 0.000000000000D+00 -.381841406520D-06 0.138714198578D-02 0.000000000000D+00  5 2 -2 25 23 21 2 0.14097208D+00 0.30110746D-02 0.16411066D+05 0.16411066D+05 0.16411066D+05 0.12433957D+01  1  2  3  2  5  2       -2 -.101737043107D-01 0.100000000000D+01
0.687100745938D-05 0.000000000000D+00 0.000000000000D+00 0.138714198578D-02 0.000000000000D+00  5 2 -2 25 23 21 2 0.14097208D+00 0.30110746D-02 0.16411066D+05 0.16411066D+05 0.16411066D+05 0.12433957D+01  1  2 15  2  5  2       -2 0.126850182250D-01 0.100000000000D+01
0.636782084409D-05 0.000000000000D+00 0.000000000000D+00 0.138714198578D-02 0.000000000000D+00  5 2 -2 25 23 21 2 0.14097208D+00 0.31173697D-02 0.16804526D+05 0.16804526D+05 0.16804526D+05 0.12422372D+01  1  2 12  2  5  2       -2 0.111595155594D-01 0.100000000000D+01
-.158024744198D-02 0.000000000000D+00 0.000000000000D+00 0.138714198578D-02 0.000000000000D+00  5 2 -2 25 23 21 2 0.14097208D+00 0.30110746D-02 0.16411066D+05 0.16411066D+05 0.16411066D+05 0.12433957D+01  1  2  4  2  5  2       -2 -.291739860858D+01 0.100000000000D+01
-.332437124195D-02 0.000000000000D+00 -.314677306836D-03 0.138714198578D-02 0.000000000000D+00  5 2 -2 25 23 21 2 0.14097208D+00 0.31236494D-02 0.16411066D+05 0.16411066D+05 0.16411066D+05 0.12433957D+01  1  2  5  2  5  2       -2 -.581523690635D+01 0.100000000000D+01
0.333388726965D-02 0.000000000000D+00 0.314465450490D-03 0.138714198578D-02 0.000000000000D+00  5 2 -2 25 23 21 2 0.14097208D+00 0.30110746D-02 0.16411066D+05 0.16411066D+05 0.16411066D+05 0.12433957D+01  1  2  6  2  5  2       -2 0.615490829048D+01 0.100000000000D+01
0.157449346740D-02 0.000000000000D+00 0.000000000000D+00 0.138714198578D-02 0.125011965005D-02  5 2 -2 25 23 21 2 0.14151969D+00 0.31116346D-02 0.16804526D+05 0.16804526D+05 0.16804526D+05 0.12422372D+01  1  2 11  2  5  2       -2 0.275267632084D+01 0.100000000000D+01
0.163043737176D-06 0.000000000000D+00 0.000000000000D+00 0.138714198578D-02 0.000000000000D+00  5 2 21 25 23 2 2 0.14097208D+00 0.31173697D-02 0.16804526D+05 0.16804526D+05 0.16804526D+05 0.12422372D+01  1  2 12  4  5  2       -2 0.556643974265D-02 0.100000000000D+01
-.215184214011D-04 0.000000000000D+00 -.205125169463D-05 0.138714198578D-02 0.000000000000D+00  5 2 21 25 23 2 2 0.14097208D+00 0.31236494D-02 0.16411066D+05 0.16411066D+05 0.16411066D+05 0.12433957D+01  1  2  5  4  5  2       -2 -.733304607670D+00 0.100000000000D+01
0.965647716652D-05 0.000000000000D+00 0.000000000000D+00 0.138714198578D-02 0.736840648188D-05  5 2 21 25 23 2 2 0.14151969D+00 0.31116346D-02 0.16804526D+05 0.16804526D+05 0.16804526D+05 0.12422372D+01  1  2 11  4  5  2       -2 0.328995719303D+00 0.100000000000D+01
  </mgrwgt>
  </event>
  <event>
  4     66 0.45228882E-03 0.40049282E+02 0.75467711E-02 0.11752145E+00
        2 -1    0    0  501    0 0.00000000E+00 0.00000000E+00 0.14190310E+04 0.14190310E+04 0.32000000E+00 0.0000E+00 0.9000E+01
       -2 -1    0    0    0  501 0.00000000E+00 0.00000000E+00 -.13212207E+02 0.13216082E+02 0.32000000E+00 0.0000E+00 0.9000E+01
       25  1    1    2    0    0 -.23297122E+02 0.72001712E+02 0.58783046E+03 0.60571995E+03 0.12500000E+03 0.0000E+00 0.9000E+01
       23  1    1    2    0    0 0.23297122E+02 -.72001712E+02 0.81798832E+03 0.82652716E+03 0.91188000E+02 0.0000E+00 0.9000E+01
#aMCatNLO 1  0  0  2  1 0.71403937D+02 0.00000000D+00  -5  5  0 0.00000000D+00 0.00000000D+00 0.00000000D+00 0.00000000D+00 0.00000000D+00
  <mgrwgt>
 0.1908353406D+00    9    2    0
 0.136935501867194D+03 0.000000000000000D+00 0.000000000000000D+00 0.136935501867194D+03
 0.136935501867194D+03 0.000000000000000D+00 0.000000000000000D+00 -.136935501867194D+03
 0.150280742064819D+03 -.232971217956725D+02 0.720017115874987D+02 -.351041177080532D+02
 0.123590261669569D+03 0.232971217956725D+02 -.720017115874987D+02 0.351041177080532D+02
 0.000000000000000D+00 -.000000000000000D+00 -.000000000000000D+00 -.000000000000000D+00
 0.171113129225367D+03 0.000000000000000D+00 0.000000000000000D+00 0.171113129225367D+03
 0.184574941458939D+03 0.000000000000000D+00 0.000000000000000D+00 -.184574941458939D+03
 0.172434295137569D+03 -.148201801151050D+02 0.112501774745492D+03 -.351041177080532D+02
 0.110591938406952D+03 0.294485204719935D+02 -.426123345823336D+02 0.351041177080532D+02
 0.726618371397847D+02 -.146283403568885D+02 -.698894401631583D+02 -.134618122335719D+02
0.139309122499D-03 0.000000000000D+00 0.000000000000D+00 0.137840561253D-02 0.000000000000D+00  5 2 -2 25 23 21 0 0.21831276D+00 0.20329481D-02 0.17506367D+05 0.17506367D+05 0.17506367D+05 0.12402443D+01  1  2  2  2  5  2       -2 0.154009733529D+00 0.100000000000D+01
-.772829261570D-05 0.000000000000D+00 -.534983711331D-06 0.137840561253D-02 0.000000000000D+00  5 2 -2 25 23 21 2 0.21831276D+00 0.20329481D-02 0.17506367D+05 0.17506367D+05 0.17506367D+05 0.12402443D+01  1  2  3  2  5  2       -2 -.131421575129D-01 0.100000000000D+01
0.962983404208D-05 0.000000000000D+00 0.000000000000D+00 0.137840561253D-02 0.000000000000D+00  5 2 -2 25 23 21 2 0.21831276D+00 0.20329481D-02 0.17506367D+05 0.17506367D+05 0.17506367D+05 0.12402443D+01  1  2 15  2  5  2       -2 0.163757769144D-01 0.100000000000D+01
0.275032801662D-04 0.000000000000D+00 0.000000000000D+00 0.137840561253D-02 0.000000000000D+00  5 2 -2 25 23 21 2 0.21831276D+00 0.29204586D-02 0.29773477D+05 0.29773477D+05 0.29773477D+05 0.12152440D+01  1  2 12  2  5  2       -2 0.266912283102D-01 0.100000000000D+01
-.471621969252D-04 0.000000000000D+00 0.000000000000D+00 0.137840561253D-02 0.000000000000D+00  5 2 -2 25 23 21 2 0.21831276D+00 0.20329481D-02 0.17506367D+05 0.17506367D+05 0.17506367D+05 0.12402443D+01  1  2  4  2  5  2       -2 -.802005114796D-01 0.100000000000D+01
-.638569697780D-04 0.000000000000D+00 -.435550823858D-04 0.137840561253D-02 0.000000000000D+00  5 2 -2 25 23 21 2 0.21831276D+00 0.35089786D-02 0.17506367D+05 0.17506367D+05 0.17506367D+05 0.12402443D+01  1  2  5  2  5  2       -2 -.488494900425D-01 0.100000000000D+01
0.810276323147D-04 0.000000000000D+00 0.377851025547D-04 0.137840561253D-02 0.000000000000D+00  5 2 -2 25 23 21 2 0.21831276D+00 0.20329481D-02 0.17506367D+05 0.17506367D+05 0.17506367D+05 0.12402443D+01  1  2  6  2  5  2       -2 0.137789542882D+00 0.100000000000D+01
0.121801132380D-05 0.000000000000D+00 0.000000000000D+00 0.137840561253D-02 0.000000000000D+00  5 2 21 25 23 2 2 0.21831276D+00 0.29204586D-02 0.29773477D+05 0.29773477D+05 0.29773477D+05 0.12152440D+01  1  2 12  4  5  2       -2 0.230802817826D-01 0.100000000000D+01
-.170790419415D-05 0.000000000000D+00 -.263672666582D-05 0.137840561253D-02 0.000000000000D+00  5 2 21 25 23 2 2 0.21831276D+00 0.35089786D-02 0.17506367D+05 0.17506367D+05 0.17506367D+05 0.12402443D+01  1  2  5  4  5  2       -2 -.249190638029D-01 0.100000000000D+01
  </mgrwgt>
  </event>
  <event>
  4     66 0.45228882E-03 0.12147075E+03 0.75467711E-02 0.10277502E+00
        2 -1    0    0  501    0 0.00000000E+00 0.00000000E+00 0.11606804E+03 0.11606849E+03 0.32000000E+00 0.0000E+00 0.9000E+01
       -2 -1    0    0    0  501 0.00000000E+00 0.00000000E+00 -.14099270E+03 0.14099306E+03 0.32000000E+00 0.0000E+00 0.9000E+01
       25  1    1    2    0    0 0.22582093E+02 -.50013959E+02 0.26177388E+02 0.13900217E+03 0.12500000E+03 0.0000E+00 0.9000E+01
       23  1    1    2    0    0 -.22582093E+02 0.50013959E+02 -.51102042E+02 0.11805938E+03 0.91188000E+02 0.0000E+00 0.9000E+01
#aMCatNLO 1  0  0  1  2 0.41709885D+03 0.00000000D+00  -5  5  0 0.00000000D+00 0.00000000D+00 0.00000000D+00 0.00000000D+00 0.00000000D+00
  <mgrwgt>
 0.1646918710D+00    5    2    0
 0.127925174038067D+03 0.000000000000000D+00 0.000000000000000D+00 0.127925174038067D+03
 0.127925174038067D+03 0.000000000000000D+00 0.000000000000000D+00 -.127925174038067D+03
 0.142210377695138D+03 0.225820927672385D+02 -.500139590103651D+02 0.398427473269000D+02
 0.113639970380997D+03 -.225820927672385D+02 0.500139590103651D+02 -.398427473269000D+02
 0.000000000000000D+00 0.000000000000000D+00 -.000000000000000D+00 0.000000000000000D+00
 0.118804865959310D+04 0.000000000000000D+00 0.000000000000000D+00 0.118804865959310D+04
 0.290761082871163D+03 0.000000000000000D+00 0.000000000000000D+00 -.290761082871163D+03
 0.219465021964613D+03 -.175694884267619D+03 -.915199396639586D+01 0.398427473269000D+02
 0.269851696109871D+03 -.232819140742859D+03 0.933407185454212D+02 -.398427473269000D+02
 0.989493024389783D+03 0.408514025010478D+03 -.841887245790254D+02 0.897287576721942D+03
0.270222395381D-03 0.000000000000D+00 0.000000000000D+00 0.143943850941D-02 0.000000000000D+00  5 2 -2 25 23 21 0 0.17856684D-01 0.21691246D-01 0.14755143D+05 0.14755143D+05 0.14755143D+05 0.12486382D+01  1  2  2  1  5  1        2 0.147640420420D+00 0.100000000000D+01
-.149634314471D-04 0.000000000000D+00 -.103772514945D-05 0.143943850941D-02 0.000000000000D+00  5 2 -2 25 23 21 2 0.17856684D-01 0.21691246D-01 0.14755143D+05 0.14755143D+05 0.14755143D+05 0.12486382D+01  1  2  3  1  5  1        2 -.127464245374D-01 0.100000000000D+01
0.186965704915D-04 0.000000000000D+00 0.000000000000D+00 0.143943850941D-02 0.000000000000D+00  5 2 -2 25 23 21 2 0.17856684D-01 0.21691246D-01 0.14755143D+05 0.14755143D+05 0.14755143D+05 0.12486382D+01  1  2 15  1  5  1        2 0.159264554871D-01 0.100000000000D+01
0.486433892800D-03 0.000000000000D+00 -.373130827866D-03 0.143943850941D-02 0.000000000000D+00  5 2 -2 25 23 21 2 0.28389100D+00 0.21691246D-01 0.14755143D+05 0.14755143D+05 0.14755143D+05 0.12486382D+01  1  2  5  1  5  1        2 0.131870604857D-01 0.100000000000D+01
0.648168364704D-04 0.000000000000D+00 -.115209397461D-03 0.143943850941D-02 0.000000000000D+00  5 21 -2 25 23 -2 2 0.28389100D+00 0.21691246D-01 0.14755143D+05 0.14755143D+05 0.14755143D+05 0.12486382D+01  1  2  5  3  5  1        2 0.684359182640D-03 0.100000000000D+01
  </mgrwgt>
  </event>
  <event>
  4     66 0.45228882E-03 0.12950498E+03 0.75467711E-02 0.12270046E+00
        2 -1    0    0  501    0 0.00000000E+00 0.00000000E+00 0.14802957E+04 0.14802957E+04 0.32000000E+00 0.0000E+00 0.9000E+01
       -2 -1    0    0    0  501 0.00000000E+00 0.00000000E+00 -.13164842E+02 0.13168730E+02 0.32000000E+00 0.0000E+00 0.9000E+01
       25  1    1    2    0    0 0.28369867E+01 0.70657512E+02 0.52485540E+03 0.54414954E+03 0.12500000E+03 0.0000E+00 0.9000E+01
       23  1    1    2    0    0 -.28369867E+01 -.70657512E+02 0.94227544E+03 0.94931490E+03 0.91188000E+02 0.0000E+00 0.9000E+01
#aMCatNLO 1  0  0  1  1 0.15812229D+01 0.00000000D+00  -5  5  0 0.00000000D+00 0.00000000D+00 0.00000000D+00 0.00000000D+00 0.00000000D+00
  <mgrwgt>
 0.1675102407D+00    6    2    0
 0.139609410846718D+03 0.000000000000000D+00 0.000000000000000D+00 0.139609410846718D+03
 0.139609410846718D+03 0.000000000000000D+00 0.000000000000000D+00 -.139609410846718D+03
 0.152699052532882D+03 0.283698669343552D+01 0.706575118070929D+02 -.518793617556319D+02
 0.126519769160554D+03 -.283698669343552D+01 -.706575118070929D+02 0.518793617556319D+02
 0.000000000000000D+00 0.000000000000000D+00 0.000000000000000D+00 -.000000000000000D+00
 0.139814939508717D+03 0.000000000000000D+00 0.000000000000000D+00 0.139814939508717D+03
 0.142686401213514D+03 0.000000000000000D+00 0.000000000000000D+00 -.142686401213514D+03
 0.152304875565780D+03 0.268357812785088D+01 0.698076310539739D+02 -.518793617556319D+02
 0.126918423343315D+03 -.296445911590152D+01 -.713637067838496D+02 0.518793617556319D+02
 0.327804181313690D+01 0.280880988050642D+00 0.155607572987567D+01 -.287146170479731D+01
0.165879376893D-03 0.000000000000D+00 0.000000000000D+00 0.127096926816D-02 0.000000000000D+00  5 2 -2 25 23 21 0 0.22773810D+00 0.20256620D-02 0.16771539D+05 0.16771539D+05 0.16771539D+05 0.12423332D+01  1  2  2  1  5  1        2 0.171048017433D+00 0.100000000000D+01
-.915227687014D-05 0.000000000000D+00 -.637020484310D-06 0.127096926816D-02 0.000000000000D+00  5 2 -2 25 23 21 2 0.22773810D+00 0.20256620D-02 0.16771539D+05 0.16771539D+05 0.16771539D+05 0.12423332D+01  1  2  3  1  5  1        2 -.145656864920D-01 0.100000000000D+01
0.114146979095D-04 0.000000000000D+00 0.000000000000D+00 0.127096926816D-02 0.000000000000D+00  5 2 -2 25 23 21 2 0.22773810D+00 0.20256620D-02 0.16771539D+05 0.16771539D+05 0.16771539D+05 0.12423332D+01  1  2 15  1  5  1        2 0.181662894939D-01 0.100000000000D+01
-.172470640436D-03 0.000000000000D+00 0.000000000000D+00 0.127096926816D-02 0.000000000000D+00  5 2 -2 25 23 21 2 0.22773810D+00 0.20256620D-02 0.16771539D+05 0.16771539D+05 0.16771539D+05 0.12423332D+01  1  2  4  1  5  1        2 -.274483968668D+00 0.100000000000D+01
0.172500731303D-03 0.000000000000D+00 0.000000000000D+00 0.127096926816D-02 0.418108604290D-02  5 2 -2 25 23 21 2 0.22807337D+00 0.20703076D-02 0.16979257D+05 0.16979257D+05 0.16979257D+05 0.12417325D+01  1  2 11  1  5  1        2 0.265103974298D+00 0.100000000000D+01
0.278175796057D-05 0.000000000000D+00 0.000000000000D+00 0.127096926816D-02 0.116137979196D-05  5 21 -2 25 23 -2 2 0.22807337D+00 0.20703076D-02 0.16979257D+05 0.16979257D+05 0.16979257D+05 0.12417325D+01  1  2 11  3  5  1        2 0.224161460723D-02 0.100000000000D+01
  </mgrwgt>
  </event>
  <event>
  4     66 0.45228882E-03 0.12102864E+03 0.75467711E-02 0.12411845E+00
        2 -1    0    0  501    0 0.00000000E+00 0.00000000E+00 0.56357624E+02 0.56358532E+02 0.32000000E+00 0.0000E+00 0.9000E+01
       -2 -1    0    0    0  501 0.00000000E+00 0.00000000E+00 -.26051452E+03 0.26051471E+03 0.32000000E+00 0.0000E+00 0.9000E+01
       25  1    1    2    0    0 0.19198620E+02 0.50370678E+02 -.12237341E+03 0.18304656E+03 0.12500000E+03 0.0000E+00 0.9000E+01
       23  1    1    2    0    0 -.19198620E+02 -.50370678E+02 -.81783489E+02 0.13382669E+03 0.91188000E+02 0.0000E+00 0.9000E+01
#aMCatNLO 1  0  0  2  1 0.27619083D+00 0.00000000D+00  -5  5  0 0.00000000D+00 0.00000000D+00 0.00000000D+00 0.00000000D+00 0.00000000D+00
  <mgrwgt>
 0.7818961860D-01    6    2    0
 0.121169939897258D+03 0.000000000000000D+00 0.000000000000000D+00 0.121169939897258D+03
 0.121169939897258D+03 0.000000000000000D+00 0.000000000000000D+00 -.121169939897258D+03
 0.136251544836152D+03 0.191986195779723D+02 0.503706782729039D+02 -.580441615202934D+01
 0.106088334958364D+03 -.191986195779723D+02 -.503706782729039D+02 0.580441615202934D+01
 0.000000000000000D+00 0.000000000000000D+00 0.000000000000000D+00 0.000000000000000D+00
 0.121527483525905D+03 0.000000000000000D+00 0.000000000000000D+00 0.121527483525905D+03
 0.121223367440540D+03 0.000000000000000D+00 0.000000000000000D+00 -.121223367440540D+03
 0.136213442942870D+03 0.190506021563018D+02 0.503238049929334D+02 -.580441615202934D+01
 0.106126594236699D+03 -.193139059746411D+02 -.504071864858350D+02 0.580441615202934D+01
 0.410813786877003D+00 0.263303818339297D+00 0.833814929016074D-01 0.304116085364896D+00
0.150346307929D-03 0.000000000000D+00 0.000000000000D+00 0.165036864179D-02 0.000000000000D+00  5 2 -2 25 23 21 0 0.86704887D-02 0.40079242D-01 0.14647932D+05 0.14647932D+05 0.14647932D+05 0.12490002D+01  1  2  2  2  5  2       -2 0.647142730206D-01 0.100000000000D+01
-.835255883654D-05 0.000000000000D+00 -.577369409541D-06 0.165036864179D-02 0.000000000000D+00  5 2 -2 25 23 21 2 0.86704887D-02 0.40079242D-01 0.14647932D+05 0.14647932D+05 0.14647932D+05 0.12490002D+01  1  2  3  2  5  2       -2 -.560856612692D-02 0.100000000000D+01
0.103692489980D-04 0.000000000000D+00 0.000000000000D+00 0.165036864179D-02 0.000000000000D+00  5 2 -2 25 23 21 2 0.86704887D-02 0.40079242D-01 0.14647932D+05 0.14647932D+05 0.14647932D+05 0.12490002D+01  1  2 15  2  5  2       -2 0.696273080264D-02 0.100000000000D+01
-.122753947541D-02 0.000000000000D+00 0.000000000000D+00 0.165036864179D-02 0.000000000000D+00  5 2 -2 25 23 21 2 0.86704887D-02 0.40079242D-01 0.14647932D+05 0.14647932D+05 0.14647932D+05 0.12490002D+01  1  2  4  2  5  2       -2 -.824266725441D+00 0.100000000000D+01
0.122754490396D-02 0.000000000000D+00 0.000000000000D+00 0.165036864179D-02 0.179973803757D+00  5 2 -2 25 23 21 2 0.86960732D-02 0.40096914D-01 0.14681400D+05 0.14681400D+05 0.14681400D+05 0.12488869D+01  1  2 11  2  5  2       -2 0.820496800484D+00 0.100000000000D+01
0.185627545316D-05 0.000000000000D+00 0.000000000000D+00 0.165036864179D-02 0.148884955182D-04  5 2 21 25 23 2 2 0.86960732D-02 0.40096914D-01 0.14681400D+05 0.14681400D+05 0.14681400D+05 0.12488869D+01  1  2 11  4  5  2       -2 0.158911058597D-01 0.100000000000D+01
  </mgrwgt>
  </event>
  <event>
  5     66 0.45228882E-03 0.14738562E+03 0.75467711E-02 0.10463245E+00
        2 -1    0    0  501    0 0.00000000E+00 0.00000000E+00 0.38093604E+03 0.38093618E+03 0.32000000E+00 0.0000E+00 0.9000E+01
       21 -1    0    0  502  501 0.00000000E+00 0.00000000E+00 -.57134398E+03 0.57134447E+03 0.75000000E+00 0.0000E+00 0.9000E+01
       25  1    1    2    0    0 0.29455465E+03 -.78114073E+02 -.26278807E+03 0.42136305E+03 0.12500000E+03 0.0000E+00 0.9000E+01
       23  1    1    2    0    0 0.57639225E+01 -.75720550E+02 -.97089547E+02 0.15332468E+03 0.91188000E+02 0.0000E+00 0.9000E+01
        2  1    1    2  502    0 -.30031858E+03 0.15383462E+03 0.16946968E+03 0.37759292E+03 0.32000000E+00 0.0000E+00 0.9000E+01
#aMCatNLO 2  0  0  2  1 0.33742605D+03 0.00000000D+00  -5  5  0 0.00000000D+00 0.00000000D+00 0.00000000D+00 0.00000000D+00 0.00000000D+00
  <mgrwgt>
 0.1852517674D-01    1    2    0
 0.147392118710638D+03 0.000000000000000D+00 0.000000000000000D+00 0.147392118710638D+03
 0.147392118710638D+03 0.000000000000000D+00 0.000000000000000D+00 -.147392118710638D+03
 0.159790591437580D+03 0.967906990901606D+02 0.231881632033709D+02 0.137940888188344D+01
 0.134993645983697D+03 -.967906990901606D+02 -.231881632033709D+02 -.137940888188344D+01
 0.000000000000000D+00 -.000000000000000D+00 0.000000000000000D+00 0.000000000000000D+00
 0.794565758341096D+03 0.000000000000000D+00 0.000000000000000D+00 0.794565758341096D+03
 0.273917865382436D+03 0.000000000000000D+00 0.000000000000000D+00 -.273917865382436D+03
 0.329379955571943D+03 0.294554653598381D+03 -.781140730422486D+02 0.137940888188344D+01
 0.118675939294476D+03 0.576392246209504D+01 -.757205497366048D+02 -.137940888188344D+01
 0.620427728857113D+03 -.300318576060476D+03 0.153834622778853D+03 0.520647892958659D+03
0.130118699656D-03 0.000000000000D+00 0.000000000000D+00 0.136517416736D-02 0.361004534682D-07  5 2 21 25 23 2 2 0.58605585D-01 0.87899111D-01 0.15424119D+06 0.15424119D+06 0.15424119D+06 0.11466692D+01  1  2  1  4  5  2       -2 0.185251767368D-01 0.100000000000D+01
  </mgrwgt>
  </event>
  <event>
  4     66 0.45228882E-03 0.54135359E+02 0.75467711E-02 0.12159351E+00
        2 -1    0    0  501    0 0.00000000E+00 0.00000000E+00 0.79749338E+02 0.79749980E+02 0.32000000E+00 0.0000E+00 0.9000E+01
       -2 -1    0    0    0  501 0.00000000E+00 0.00000000E+00 -.23095863E+03 0.23095885E+03 0.32000000E+00 0.0000E+00 0.9000E+01
       25  1    1    2    0    0 0.50797857E+02 -.54816824E+02 -.12010646E+03 0.18877465E+03 0.12500000E+03 0.0000E+00 0.9000E+01
       23  1    1    2    0    0 -.50797857E+02 0.54816824E+02 -.31102825E+02 0.12193418E+03 0.91188000E+02 0.0000E+00 0.9000E+01
#aMCatNLO 1  0  0  2  1 0.12342698D+02 0.00000000D+00  -5  5  0 0.00000000D+00 0.00000000D+00 0.00000000D+00 0.00000000D+00 0.00000000D+00
  <mgrwgt>
 0.1207158602D+00    9    2    0
 0.135716365529187D+03 0.000000000000000D+00 0.000000000000000D+00 0.135716365529187D+03
 0.135716365529187D+03 0.000000000000000D+00 0.000000000000000D+00 -.135716365529187D+03
 0.149181485648447D+03 0.507978573912174D+02 -.548168239831062D+02 -.323235077481479D+02
 0.122251245409926D+03 -.507978573912174D+02 0.548168239831062D+02 0.323235077481479D+02
 0.000000000000000D+00 -.000000000000000D+00 -.000000000000000D+00 -.000000000000000D+00
 0.139998616431242D+03 0.000000000000000D+00 0.000000000000000D+00 0.139998616431242D+03
 0.145051548566472D+03 0.000000000000000D+00 0.000000000000000D+00 -.145051548566472D+03
 0.149991787221580D+03 0.565828643291781D+02 -.512455514662970D+02 -.323235077481479D+02
 0.121721424965317D+03 -.460802448275886D+02 0.577291593137498D+02 0.323235077481479D+02
 0.133369528108172D+02 -.105026195015894D+02 -.648360784745276D+01 -.505293213523066D+01
0.248598540071D-03 0.000000000000D+00 0.000000000000D+00 0.140068333179D-02 0.000000000000D+00  5 2 -2 25 23 21 0 0.12269195D-01 0.35532163D-01 0.17363097D+05 0.17363097D+05 0.17363097D+05 0.12406438D+01  1  2  2  2  5  2       -2 0.882521617502D-01 0.100000000000D+01
-.137964007745D-04 0.000000000000D+00 -.954683851370D-06 0.140068333179D-02 0.000000000000D+00  5 2 -2 25 23 21 2 0.12269195D-01 0.35532163D-01 0.17363097D+05 0.17363097D+05 0.17363097D+05 0.12406438D+01  1  2  3  2  5  2       -2 -.753853203160D-02 0.100000000000D+01
0.171882633212D-04 0.000000000000D+00 0.000000000000D+00 0.140068333179D-02 0.000000000000D+00  5 2 -2 25 23 21 2 0.12269195D-01 0.35532163D-01 0.17363097D+05 0.17363097D+05 0.17363097D+05 0.12406438D+01  1  2 15  2  5  2       -2 0.939188964802D-02 0.100000000000D+01
0.558120570351D-03 0.000000000000D+00 0.000000000000D+00 0.140068333179D-02 0.000000000000D+00  5 2 -2 25 23 21 2 0.12269195D-01 0.38507942D-01 0.19066274D+05 0.19066274D+05 0.19066274D+05 0.12361186D+01  1  2 12  2  5  2       -2 0.261298459360D+00 0.100000000000D+01
-.529700860152D-03 0.000000000000D+00 0.000000000000D+00 0.140068333179D-02 0.000000000000D+00  5 2 -2 25 23 21 2 0.12269195D-01 0.35532163D-01 0.17363097D+05 0.17363097D+05 0.17363097D+05 0.12406438D+01  1  2  4  2  5  2       -2 -.289435409037D+00 0.100000000000D+01
-.169585558863D-02 0.000000000000D+00 -.306207936496D-03 0.140068333179D-02 0.000000000000D+00  5 2 -2 25 23 21 2 0.12269195D-01 0.39042704D-01 0.17363097D+05 0.17363097D+05 0.17363097D+05 0.12406438D+01  1  2  5  2  5  2       -2 -.777230981829D+00 0.100000000000D+01
0.171842703088D-02 0.000000000000D+00 0.304853844559D-03 0.140068333179D-02 0.000000000000D+00  5 2 -2 25 23 21 2 0.12269195D-01 0.35532163D-01 0.17363097D+05 0.17363097D+05 0.17363097D+05 0.12406438D+01  1  2  6  2  5  2       -2 0.938970781433D+00 0.100000000000D+01
0.753276110408D-05 0.000000000000D+00 0.000000000000D+00 0.140068333179D-02 0.000000000000D+00  5 2 21 25 23 2 2 0.12269195D-01 0.38507942D-01 0.19066274D+05 0.19066274D+05 0.19066274D+05 0.12361186D+01  1  2 12  4  5  2       -2 0.450927614903D-01 0.100000000000D+01
-.252543560182D-04 0.000000000000D+00 -.472310412823D-05 0.140068333179D-02 0.000000000000D+00  5 2 21 25 23 2 2 0.12269195D-01 0.39042704D-01 0.17363097D+05 0.17363097D+05 0.17363097D+05 0.12406438D+01  1  2  5  4  5  2       -2 -.148085270608D+00 0.100000000000D+01
  </mgrwgt>
  </event>
  <event>
  4     66 0.45228882E-03 0.62415326E+02 0.75467711E-02 0.12015728E+00
        2 -1    0    0  501    0 0.00000000E+00 0.00000000E+00 0.21032064E+02 0.21034498E+02 0.32000000E+00 0.0000E+00 0.9000E+01
       -2 -1    0    0    0  501 0.00000000E+00 0.00000000E+00 -.68996741E+03 0.68996749E+03 0.32000000E+00 0.0000E+00 0.9000E+01
       25  1    1    2    0    0 0.38554298E+02 -.34394192E+02 -.34664587E+03 0.37209912E+03 0.12500000E+03 0.0000E+00 0.9000E+01
       23  1    1    2    0    0 -.38554298E+02 0.34394192E+02 -.32228948E+03 0.33890287E+03 0.91188000E+02 0.0000E+00 0.9000E+01
#aMCatNLO 1  0  0  2  1 0.52472964D+02 0.00000000D+00  -5  5  0 0.00000000D+00 0.00000000D+00 0.00000000D+00 0.00000000D+00 0.00000000D+00
  <mgrwgt>
 0.1601099232D+00    9    2    0
 0.120467135317296D+03 0.000000000000000D+00 0.000000000000000D+00 0.120467135317296D+03
 0.120467135317296D+03 0.000000000000000D+00 0.000000000000000D+00 -.120467135317296D+03
 0.135636726253336D+03 0.385542980131399D+02 -.343941915554292D+02 0.101453043662983D+02
 0.105297544381255D+03 -.385542980131399D+02 0.343941915554292D+02 -.101453043662983D+02
 0.000000000000000D+00 0.000000000000000D+00 -.000000000000000D+00 -.000000000000000D+00
 0.145585846446376D+03 0.000000000000000D+00 0.000000000000000D+00 0.145585846446376D+03
 0.154166107532793D+03 0.000000000000000D+00 0.000000000000000D+00 -.154166107532793D+03
 0.129173733447588D+03 0.105483885459076D+02 -.290973832360985D+02 0.101453043662983D+02
 0.117408371919628D+03 -.621073016852142D+02 0.388488137465578D+02 -.101453043662983D+02
 0.531698486119526D+02 0.515589131393066D+02 -.975143051045936D+01 -.858026108641659D+01
0.547180136208D-03 0.000000000000D+00 0.000000000000D+00 0.165586247076D-02 0.000000000000D+00  5 2 -2 25 23 21 0 0.32358951D-02 0.10614903D+00 0.14407733D+05 0.14407733D+05 0.14407733D+05 0.12498220D+01  1  2  2  2  5  2       -2 0.109512955642D+00 0.100000000000D+01
-.303984129634D-04 0.000000000000D+00 -.210131579888D-05 0.165586247076D-02 0.000000000000D+00  5 2 -2 25 23 21 2 0.32358951D-02 0.10614903D+00 0.14407733D+05 0.14407733D+05 0.14407733D+05 0.12498220D+01  1  2  3  2  5  2       -2 -.950347454093D-02 0.100000000000D+01
0.379086147298D-04 0.000000000000D+00 0.000000000000D+00 0.165586247076D-02 0.000000000000D+00  5 2 -2 25 23 21 2 0.32358951D-02 0.10614903D+00 0.14407733D+05 0.14407733D+05 0.14407733D+05 0.12498220D+01  1  2 15  2  5  2       -2 0.118513935382D-01 0.100000000000D+01
0.176637013407D-03 0.000000000000D+00 0.000000000000D+00 0.165586247076D-02 0.000000000000D+00  5 2 -2 25 23 21 2 0.32358951D-02 0.14429418D+00 0.22233329D+05 0.22233329D+05 0.22233329D+05 0.12287965D+01  1  2 12  2  5  2       -2 0.257085358612D-01 0.100000000000D+01
-.212840220382D-03 0.000000000000D+00 0.000000000000D+00 0.165586247076D-02 0.000000000000D+00  5 2 -2 25 23 21 2 0.32358951D-02 0.10614903D+00 0.14407733D+05 0.14407733D+05 0.14407733D+05 0.12498220D+01  1  2  4  2  5  2       -2 -.665403690027D-01 0.100000000000D+01
-.426234514899D-03 0.000000000000D+00 -.187611264538D-03 0.165586247076D-02 0.000000000000D+00  5 2 -2 25 23 21 2 0.32358951D-02 0.15623543D+00 0.14407733D+05 0.14407733D+05 0.14407733D+05 0.12498220D+01  1  2  5  2  5  2       -2 -.518051341003D-01 0.100000000000D+01
0.475944613140D-03 0.000000000000D+00 0.174419322336D-03 0.165586247076D-02 0.000000000000D+00  5 2 -2 25 23 21 2 0.32358951D-02 0.10614903D+00 0.14407733D+05 0.14407733D+05 0.14407733D+05 0.12498220D+01  1  2  6  2  5  2       -2 0.148794857130D+00 0.100000000000D+01
0.694277856314D-05 0.000000000000D+00 0.000000000000D+00 0.165586247076D-02 0.000000000000D+00  5 2 21 25 23 2 2 0.32358951D-02 0.14429418D+00 0.22233329D+05 0.22233329D+05 0.22233329D+05 0.12287965D+01  1  2 12  4  5  2       -2 0.118004800388D-01 0.100000000000D+01
-.136764300861D-04 0.000000000000D+00 -.870907609605D-05 0.165586247076D-02 0.000000000000D+00  5 2 21 25 23 2 2 0.32358951D-02 0.15623543D+00 0.14407733D+05 0.14407733D+05 0.14407733D+05 0.12498220D+01  1  2  5  4  5  2       -2 -.197093213483D-01 0.100000000000D+01
  </mgrwgt>
  </event>
  <event>
  4     66 0.45228882E-03 0.18676272E+03 0.75467711E-02 0.11207957E+00
        2 -1    0    0  501    0 0.00000000E+00 0.00000000E+00 0.93535720E+02 0.93536268E+02 0.32000000E+00 0.0000E+00 0.9000E+01
       -2 -1    0    0    0  501 0.00000000E+00 0.00000000E+00 -.38410610E+03 0.38410623E+03 0.32000000E+00 0.0000E+00 0.9000E+01
       25  1    1    2    0    0 0.42151891E+00 -.15167648E+03 -.11195076E+03 0.22619440E+03 0.12500000E+03 0.0000E+00 0.9000E+01
       23  1    1    2    0    0 -.42151891E+00 0.15167648E+03 -.17861962E+03 0.25144811E+03 0.91188000E+02 0.0000E+00 0.9000E+01
#aMCatNLO 1  0  0  1  1 0.92290661D+02 0.00000000D+00  -5  5  0 0.00000000D+00 0.00000000D+00 0.00000000D+00 0.00000000D+00 0.00000000D+00
  <mgrwgt>
 0.1236975163D+00    7    2    0
 0.189546309340213D+03 0.000000000000000D+00 0.000000000000000D+00 0.189546309340213D+03
 0.189546309340213D+03 0.000000000000000D+00 0.000000000000000D+00 -.189546309340213D+03
 0.199187421163287D+03 0.421518909815506D+00 -.151676476463533D+03 0.323217814963333D+02
 0.179905197517139D+03 -.421518909815506D+00 0.151676476463533D+03 -.323217814963333D+02
 0.000000000000000D+00 0.000000000000000D+00 -.000000000000000D+00 0.000000000000000D+00
 0.242927051951097D+03 0.000000000000000D+00 0.000000000000000D+00 0.242927051951097D+03
 0.239589023085299D+03 0.000000000000000D+00 0.000000000000000D+00 -.239589023085299D+03
 0.174623706816170D+03 -.251712289492834D+02 -.114848381165368D+03 0.323217814963333D+02
 0.215541360473456D+03 -.274955231137728D+02 0.190636107231426D+03 -.323217814963333D+02
 0.923510077467710D+02 0.526667520630561D+02 -.757877260660578D+02 0.333802886579805D+01
0.113949246783D-02 0.000000000000D+00 0.000000000000D+00 0.113595590807D-02 0.000000000000D+00  5 2 -2 25 23 21 0 0.14390163D-01 0.59093299D-01 0.34880314D+05 0.34880314D+05 0.34880314D+05 0.12080877D+01  1  2  2  1  5  1        2 0.125999047402D+00 0.100000000000D+01
-.632882903322D-04 0.000000000000D+00 -.437595111173D-05 0.113595590807D-02 0.000000000000D+00  5 2 -2 25 23 21 2 0.14390163D-01 0.59093299D-01 0.34880314D+05 0.34880314D+05 0.34880314D+05 0.12080877D+01  1  2  3  1  5  1        2 -.102135346877D-01 0.100000000000D+01
0.784153909045D-04 0.000000000000D+00 0.000000000000D+00 0.113595590807D-02 0.000000000000D+00  5 2 -2 25 23 21 2 0.14390163D-01 0.59093299D-01 0.34880314D+05 0.34880314D+05 0.34880314D+05 0.12080877D+01  1  2 15  1  5  1        2 0.126547630036D-01 0.100000000000D+01
-.511829110215D-03 0.000000000000D+00 0.000000000000D+00 0.113595590807D-02 0.000000000000D+00  5 2 -2 25 23 21 2 0.14390163D-01 0.59093299D-01 0.34880314D+05 0.34880314D+05 0.34880314D+05 0.12080877D+01  1  2  4  1  5  1        2 -.825995511007D-01 0.100000000000D+01
-.913440077865D-03 0.000000000000D+00 -.546362289484D-03 0.113595590807D-02 0.000000000000D+00  5 2 -2 25 23 21 2 0.23152121D-01 0.59093299D-01 0.34880314D+05 0.34880314D+05 0.34880314D+05 0.12080877D+01  1  2  5  1  5  1        2 -.851559870370D-01 0.100000000000D+01
0.110265964934D-02 0.000000000000D+00 0.489915761115D-03 0.113595590807D-02 0.000000000000D+00  5 2 -2 25 23 21 2 0.14390163D-01 0.59093299D-01 0.34880314D+05 0.34880314D+05 0.34880314D+05 0.12080877D+01  1  2  6  1  5  1        2 0.177948440671D+00 0.100000000000D+01
-.262647722468D-04 0.000000000000D+00 -.296185279739D-04 0.113595590807D-02 0.000000000000D+00  5 21 -2 25 23 -2 2 0.23152121D-01 0.59093299D-01 0.34880314D+05 0.34880314D+05 0.34880314D+05 0.12080877D+01  1  2  5  3  5  1        2 -.149356619483D-01 0.100000000000D+01
  </mgrwgt>
  </event>
  <event>
  4     66 0.45228882E-03 0.14197295E+03 0.75467711E-02 0.11527548E+00
        2 -1    0    0  501    0 0.00000000E+00 0.00000000E+00 0.80726729E+02 0.80727363E+02 0.32000000E+00 0.0000E+00 0.9000E+01
       -2 -1    0    0    0  501 0.00000000E+00 0.00000000E+00 -.29120417E+03 0.29120435E+03 0.32000000E+00 0.0000E+00 0.9000E+01
       25  1    1    2    0    0 -.67468008E+02 0.61643667E+02 -.43447156E+02 0.16082453E+03 0.12500000E+03 0.0000E+00 0.9000E+01
       23  1    1    2    0    0 0.67468008E+02 -.61643667E+02 -.16703029E+03 0.21110718E+03 0.91188000E+02 0.0000E+00 0.9000E+01
#aMCatNLO 1  0  0  1  1 0.94256563D+02 0.00000000D+00  -5  5  0 0.00000000D+00 0.00000000D+00 0.00000000D+00 0.00000000D+00 0.00000000D+00
  <mgrwgt>
 0.1220002597D+00    7    2    0
 0.153323549063224D+03 0.000000000000000D+00 0.000000000000000D+00 0.153323549063224D+03
 0.153323549063224D+03 0.000000000000000D+00 0.000000000000000D+00 -.153323549063224D+03
 0.165242378070022D+03 -.674680081418895D+02 0.616436669487123D+02 0.576902913211417D+02
 0.141404720056425D+03 0.674680081418895D+02 -.616436669487123D+02 -.576902913211417D+02
 0.000000000000000D+00 -.000000000000000D+00 -.000000000000000D+00 0.000000000000000D+00
 0.210263256660277D+03 0.000000000000000D+00 0.000000000000000D+00 0.210263256660277D+03
 0.204949371425602D+03 0.000000000000000D+00 0.000000000000000D+00 -.204949371425602D+03
 0.185795103422468D+03 -.537949483717290D+02 0.112573328425211D+03 0.576902913211417D+02
 0.135011290596893D+03 0.782345297652308D+02 -.215403315743699D+02 -.576902913211417D+02
 0.944062340665178D+02 -.244395813935019D+02 -.910329968508411D+02 0.531388523467556D+01
0.511925076460D-03 0.000000000000D+00 0.000000000000D+00 0.116885736151D-02 0.000000000000D+00  5 2 -2 25 23 21 0 0.12419559D-01 0.44800704D-01 0.20156318D+05 0.20156318D+05 0.20156318D+05 0.12334540D+01  1  2  2  1  5  1        2 0.115988429453D+00 0.100000000000D+01
-.282357202273D-04 0.000000000000D+00 -.196592708657D-05 0.116885736151D-02 0.000000000000D+00  5 2 -2 25 23 21 2 0.12419559D-01 0.44800704D-01 0.20156318D+05 0.20156318D+05 0.20156318D+05 0.12334540D+01  1  2  3  1  5  1        2 -.973314142696D-02 0.100000000000D+01
0.351807554289D-04 0.000000000000D+00 0.000000000000D+00 0.116885736151D-02 0.000000000000D+00  5 2 -2 25 23 21 2 0.12419559D-01 0.44800704D-01 0.20156318D+05 0.20156318D+05 0.20156318D+05 0.12334540D+01  1  2 15  1  5  1        2 0.121271660627D-01 0.100000000000D+01
-.198093437971D-03 0.000000000000D+00 0.000000000000D+00 0.116885736151D-02 0.000000000000D+00  5 2 -2 25 23 21 2 0.12419559D-01 0.44800704D-01 0.20156318D+05 0.20156318D+05 0.20156318D+05 0.12334540D+01  1  2  4  1  5  1        2 -.682848332538D-01 0.100000000000D+01
-.229507025728D-03 0.000000000000D+00 -.219708908322D-03 0.116885736151D-02 0.000000000000D+00  5 2 -2 25 23 21 2 0.22567341D-01 0.44800704D-01 0.20156318D+05 0.20156318D+05 0.20156318D+05 0.12334540D+01  1  2  5  1  5  1        2 -.396417887862D-01 0.100000000000D+01
0.333547119409D-03 0.000000000000D+00 0.185610890978D-03 0.116885736151D-02 0.000000000000D+00  5 2 -2 25 23 21 2 0.12419559D-01 0.44800704D-01 0.20156318D+05 0.20156318D+05 0.20156318D+05 0.12334540D+01  1  2  6  1  5  1        2 0.114977102040D+00 0.100000000000D+01
-.315760462846D-05 0.000000000000D+00 -.143621202248D-04 0.116885736151D-02 0.000000000000D+00  5 21 -2 25 23 -2 2 0.22567341D-01 0.44800704D-01 0.20156318D+05 0.20156318D+05 0.20156318D+05 0.12334540D+01  1  2  5  3  5  1        2 -.343267438114D-02 0.100000000000D+01
  </mgrwgt>
  </event>
  <event>
  4     66 0.45228882E-03 0.11990919E+03 0.75467711E-02 0.12181317E+00
        2 -1    0    0  501    0 0.00000000E+00 0.00000000E+00 0.25712940E+04 0.25712940E+04 0.32000000E+00 0.0000E+00 0.9000E+01
       -2 -1    0    0    0  501 0.00000000E+00 0.00000000E+00 -.55989500E+01 0.56080871E+01 0.32000000E+00 0.0000E+00 0.9000E+01
       25  1    1    2    0    0 0.50604118E+02 -.89204258E+01 0.13871093E+04 0.13936777E+04 0.12500000E+03 0.0000E+00 0.9000E+01
       23  1    1    2    0    0 -.50604118E+02 0.89204258E+01 0.11785857E+04 0.11832244E+04 0.91188000E+02 0.0000E+00 0.9000E+01
#aMCatNLO 1  0  0  1  1 0.31148887D+02 0.00000000D+00  -5  5  0 0.00000000D+00 0.00000000D+00 0.00000000D+00 0.00000000D+00 0.00000000D+00
  <mgrwgt>
 0.8991710967D-01    4    2    0
 0.120034764934756D+03 0.000000000000000D+00 0.000000000000000D+00 0.120034764934756D+03
 0.120034764934756D+03 0.000000000000000D+00 0.000000000000000D+00 -.120034764934756D+03
 0.135258997389356D+03 0.506041178757353D+02 -.892042578135859D+01 -.544478031437735D+01
 0.104810532480156D+03 -.506041178757353D+02 0.892042578135859D+01 0.544478031437735D+01
 0.000000000000000D+00 -.000000000000000D+00 -.000000000000000D+00 -.000000000000000D+00
 0.131556562481780D+03 0.000000000000000D+00 0.000000000000000D+00 0.131556562481780D+03
 0.144107872029012D+03 0.000000000000000D+00 0.000000000000000D+00 -.144107872029012D+03
 0.139789625861811D+03 0.621743377700804D+02 0.456569696379933D+01 -.544478031437735D+01
 0.102292245329570D+03 -.418921139701565D+02 0.190750429882756D+02 0.544478031437735D+01
 0.335825633194112D+02 -.202822237999239D+02 -.236407399520749D+02 -.125513095472318D+02
0.210490572305D-03 0.000000000000D+00 0.000000000000D+00 0.166932871136D-02 0.000000000000D+00  5 2 -2 25 23 21 0 0.39558439D+00 0.86208131D-03 0.14378213D+05 0.14378213D+05 0.14378213D+05 0.12499241D+01  1  2  2  1  5  1        2 0.201690945355D+00 0.100000000000D+01
-.116939051061D-04 0.000000000000D+00 -.808339221093D-06 0.166932871136D-02 0.000000000000D+00  5 2 -2 25 23 21 2 0.39558439D+00 0.86208131D-03 0.14378213D+05 0.14378213D+05 0.14378213D+05 0.12499241D+01  1  2  3  1  5  1        2 -.175057439509D-01 0.100000000000D+01
0.145539496590D-04 0.000000000000D+00 0.000000000000D+00 0.166932871136D-02 0.000000000000D+00  5 2 -2 25 23 21 2 0.39558439D+00 0.86208131D-03 0.14378213D+05 0.14378213D+05 0.14378213D+05 0.12499241D+01  1  2 15  1  5  1        2 0.217872228220D-01 0.100000000000D+01
-.775254019106D-04 0.000000000000D+00 0.000000000000D+00 0.166932871136D-02 0.000000000000D+00  5 2 -2 25 23 21 2 0.39558439D+00 0.86208131D-03 0.14378213D+05 0.14378213D+05 0.14378213D+05 0.12499241D+01  1  2  4  1  5  1        2 -.116055314561D+00 0.100000000000D+01
  </mgrwgt>
  </event>
  <event>
  4     66 0.45228882E-03 0.14041496E+03 0.75467711E-02 0.11012072E+00
        2 -1    0    0  501    0 0.00000000E+00 0.00000000E+00 0.37186143E+04 0.37186143E+04 0.32000000E+00 0.0000E+00 0.9000E+01
       -2 -1    0    0    0  501 0.00000000E+00 0.00000000E+00 -.24930113E+02 0.24932167E+02 0.32000000E+00 0.0000E+00 0.9000E+01
       25  1    1    2    0    0 -.11836048E+02 -.22916442E+03 0.85240905E+03 0.89156189E+03 0.12500000E+03 0.0000E+00 0.9000E+01
       23  1    1    2    0    0 0.11836048E+02 0.22916442E+03 0.28412751E+04 0.28519846E+04 0.91188000E+02 0.0000E+00 0.9000E+01
#aMCatNLO 1  0  0  1  2 0.31033052D+02 0.00000000D+00  -5  5  0 0.00000000D+00 0.00000000D+00 0.00000000D+00 0.00000000D+00 0.00000000D+00
  <mgrwgt>
 0.2471640255D+00    9    2    0
 0.304482094625074D+03 0.000000000000000D+00 0.000000000000000D+00 0.304482094625074D+03
 0.304482094625074D+03 0.000000000000000D+00 0.000000000000000D+00 -.304482094625074D+03
 0.310483883223678D+03 -.118360483611725D+02 -.229164421198355D+03 -.167686665414008D+03
 0.298480306026469D+03 0.118360483611725D+02 0.229164421198355D+03 0.167686665414008D+03
 0.000000000000000D+00 -.000000000000000D+00 -.000000000000000D+00 0.000000000000000D+00
 0.323588713356179D+03 0.000000000000000D+00 0.000000000000000D+00 0.323588713356179D+03
 0.317744286486130D+03 0.000000000000000D+00 0.000000000000000D+00 -.317744286486130D+03
 0.301478093685260D+03 -.194796897086098D+01 -.217120769691242D+03 -.167686665414008D+03
 0.308276311080042D+03 0.216400195667868D+02 0.241105629184800D+03 0.167686665414008D+03
 0.315785950770072D+02 -.196920505959258D+02 -.239848594935581D+02 0.584442687004976D+01
0.338005733583D-02 0.000000000000D+00 0.000000000000D+00 0.714750445918D-03 0.000000000000D+00  5 2 -2 25 23 21 0 0.57209467D+00 0.38355611D-02 0.64574834D+05 0.64574834D+05 0.64574834D+05 0.11814338D+01  1  2  2  1  5  1        2 0.716698881654D-01 0.100000000000D+01
-.180315842246D-03 0.000000000000D+00 -.129803101591D-04 0.714750445918D-03 0.000000000000D+00  5 2 -2 25 23 21 2 0.57209467D+00 0.38355611D-02 0.64574834D+05 0.64574834D+05 0.64574834D+05 0.11814338D+01  1  2  3  1  5  1        2 -.533660799020D-02 0.100000000000D+01
0.231695980676D-03 0.000000000000D+00 0.000000000000D+00 0.714750445918D-03 0.000000000000D+00  5 2 -2 25 23 21 2 0.57209467D+00 0.38355611D-02 0.64574834D+05 0.64574834D+05 0.64574834D+05 0.11814338D+01  1  2 15  1  5  1        2 0.685724896034D-02 0.100000000000D+01
0.522559700427D-02 0.000000000000D+00 0.000000000000D+00 0.714750445918D-03 0.000000000000D+00  5 2 -2 25 23 21 2 0.61979209D+00 0.38355611D-02 0.72968368D+05 0.72968368D+05 0.72968368D+05 0.11763578D+01  1  2 12  1  5  1        2 0.900933311793D-01 0.100000000000D+01
-.455490129456D-02 0.000000000000D+00 0.000000000000D+00 0.714750445918D-03 0.000000000000D+00  5 2 -2 25 23 21 2 0.57209467D+00 0.38355611D-02 0.64574834D+05 0.64574834D+05 0.64574834D+05 0.11814338D+01  1  2  4  1  5  1        2 -.134806361662D+00 0.100000000000D+01
-.191508744191D-01 0.000000000000D+00 -.350967731118D-02 0.714750445918D-03 0.000000000000D+00  5 2 -2 25 23 21 2 0.61396911D+00 0.38355611D-02 0.64574834D+05 0.64574834D+05 0.64574834D+05 0.11814338D+01  1  2  5  1  5  1        2 -.358516126115D+00 0.100000000000D+01
0.195070228789D-01 0.000000000000D+00 0.358782383039D-02 0.714750445918D-03 0.000000000000D+00  5 2 -2 25 23 21 2 0.57209467D+00 0.38355611D-02 0.64574834D+05 0.64574834D+05 0.64574834D+05 0.11814338D+01  1  2  6  1  5  1        2 0.577327720425D+00 0.100000000000D+01
0.698798628665D-04 0.000000000000D+00 0.000000000000D+00 0.714750445918D-03 0.000000000000D+00  5 21 -2 25 23 -2 2 0.61979209D+00 0.38355611D-02 0.72968368D+05 0.72968368D+05 0.72968368D+05 0.11763578D+01  1  2 12  3  5  1        2 0.473099628129D-04 0.100000000000D+01
-.222847913145D-03 0.000000000000D+00 -.419401748275D-04 0.714750445918D-03 0.000000000000D+00  5 21 -2 25 23 -2 2 0.61396911D+00 0.38355611D-02 0.64574834D+05 0.64574834D+05 0.64574834D+05 0.11814338D+01  1  2  5  3  5  1        2 -.172377410825D-03 0.100000000000D+01
  </mgrwgt>
  </event>
  <event>
  4     66 0.45228882E-03 0.88705999E+02 0.75467711E-02 0.11630254E+00
        2 -1    0    0  501    0 0.00000000E+00 0.00000000E+00 0.59892710E+03 0.59892719E+03 0.32000000E+00 0.0000E+00 0.9000E+01
       -2 -1    0    0    0  501 0.00000000E+00 0.00000000E+00 -.48262416E+02 0.48263477E+02 0.32000000E+00 0.0000E+00 0.9000E+01
       25  1    1    2    0    0 0.12220520E+03 0.13038480E+02 0.37672889E+03 0.41551627E+03 0.12500000E+03 0.0000E+00 0.9000E+01
       23  1    1    2    0    0 -.12220520E+03 -.13038480E+02 0.17393580E+03 0.23167440E+03 0.91188000E+02 0.0000E+00 0.9000E+01
#aMCatNLO 1  0  0  1  2 0.39569685D+02 0.00000000D+00  -5  5  0 0.00000000D+00 0.00000000D+00 0.00000000D+00 0.00000000D+00 0.00000000D+00
  <mgrwgt>
 0.1702122703D+00    9    2    0
 0.170017763296440D+03 0.000000000000000D+00 0.000000000000000D+00 0.170017763296440D+03
 0.170017763296440D+03 0.000000000000000D+00 0.000000000000000D+00 -.170017763296440D+03
 0.180766270561612D+03 0.122205201341100D+03 0.130384803995715D+02 0.441285776657829D+02
 0.159269256031269D+03 -.122205201341100D+03 -.130384803995715D+02 -.441285776657829D+02
 0.000000000000000D+00 -.000000000000000D+00 0.000000000000000D+00 0.000000000000000D+00
 0.272870613225518D+03 0.000000000000000D+00 0.000000000000000D+00 0.272870613225518D+03
 0.175013823577356D+03 0.000000000000000D+00 0.000000000000000D+00 -.175013823577356D+03
 0.196114357820475D+03 0.144033263305520D+03 0.119552933086162D+02 0.441285776657829D+02
 0.146215774237948D+03 -.104512208738788D+03 -.139164704482727D+02 -.441285776657829D+02
 0.105554304744451D+03 -.395210545667319D+02 0.196117713965655D+01 0.978567896481627D+02
0.276636635865D-03 0.000000000000D+00 0.000000000000D+00 0.116492310311D-02 0.000000000000D+00  5 2 -2 25 23 21 0 0.92142720D-01 0.74250752D-02 0.26950325D+05 0.26950325D+05 0.26950325D+05 0.12198153D+01  1  2  2  1  5  1        2 0.144955737405D+00 0.100000000000D+01
-.153457753916D-04 0.000000000000D+00 -.106235752182D-05 0.116492310311D-02 0.000000000000D+00  5 2 -2 25 23 21 2 0.92142720D-01 0.74250752D-02 0.26950325D+05 0.26950325D+05 0.26950325D+05 0.12198153D+01  1  2  3  1  5  1        2 -.119647250960D-01 0.100000000000D+01
0.190136132381D-04 0.000000000000D+00 0.000000000000D+00 0.116492310311D-02 0.000000000000D+00  5 2 -2 25 23 21 2 0.92142720D-01 0.74250752D-02 0.26950325D+05 0.26950325D+05 0.26950325D+05 0.12198153D+01  1  2 15  1  5  1        2 0.148244484017D-01 0.100000000000D+01
0.106215393673D-02 0.000000000000D+00 0.000000000000D+00 0.116492310311D-02 0.000000000000D+00  5 2 -2 25 23 21 2 0.14854874D+00 0.74250752D-02 0.34234709D+05 0.34234709D+05 0.34234709D+05 0.12089255D+01  1  2 12  1  5  1        2 0.451407174345D+00 0.100000000000D+01
-.101099181079D-02 0.000000000000D+00 0.000000000000D+00 0.116492310311D-02 0.000000000000D+00  5 2 -2 25 23 21 2 0.92142720D-01 0.74250752D-02 0.26950325D+05 0.26950325D+05 0.26950325D+05 0.12198153D+01  1  2  4  1  5  1        2 -.788245545222D+00 0.100000000000D+01
-.115184198400D-02 0.000000000000D+00 -.120837720414D-03 0.116492310311D-02 0.000000000000D+00  5 2 -2 25 23 21 2 0.14964386D+00 0.74250752D-02 0.26950325D+05 0.26950325D+05 0.26950325D+05 0.12198153D+01  1  2  5  1  5  1        2 -.492197433756D+00 0.100000000000D+01
0.109240134469D-02 0.000000000000D+00 0.107900885733D-03 0.116492310311D-02 0.000000000000D+00  5 2 -2 25 23 21 2 0.92142720D-01 0.74250752D-02 0.26950325D+05 0.26950325D+05 0.26950325D+05 0.12198153D+01  1  2  6  1  5  1        2 0.851718564241D+00 0.100000000000D+01
0.577705726627D-04 0.000000000000D+00 0.000000000000D+00 0.116492310311D-02 0.000000000000D+00  5 21 -2 25 23 -2 2 0.14854874D+00 0.74250752D-02 0.34234709D+05 0.34234709D+05 0.34234709D+05 0.12089255D+01  1  2 12  3  5  1        2 0.215587029989D-01 0.100000000000D+01
-.581353768623D-04 0.000000000000D+00 -.665094039274D-05 0.116492310311D-02 0.000000000000D+00  5 21 -2 25 23 -2 2 0.14964386D+00 0.74250752D-02 0.26950325D+05 0.26950325D+05 0.26950325D+05 0.12198153D+01  1  2  5  3  5  1        2 -.218446530332D-01 0.100000000000D+01
  </mgrwgt>
  </event>
  <event>
  4     66 0.45228882E-03 0.15224145E+03 0.75467711E-02 0.11812735E+00
        2 -1    0    0  501    0 0.00000000E+00 0.00000000E+00 0.34105880E+04 0.34105880E+04 0.32000000E+00 0.0000E+00 0.9000E+01
       -2 -1    0    0    0  501 0.00000000E+00 0.00000000E+00 -.75236601E+01 0.75304622E+01 0.32000000E+00 0.0000E+00 0.9000E+01
       25  1    1    2    0    0 -.99945779E+02 0.36908791E+02 0.23538837E+04 0.23596069E+04 0.12500000E+03 0.0000E+00 0.9000E+01
       23  1    1    2    0    0 0.99945779E+02 -.36908791E+02 0.10491807E+04 0.10585116E+04 0.91188000E+02 0.0000E+00 0.9000E+01
#aMCatNLO 1  0  0  1  2 0.27685329D+02 0.00000000D+00  -5  5  0 0.00000000D+00 0.00000000D+00 0.00000000D+00 0.00000000D+00 0.00000000D+00
  <mgrwgt>
 0.1593352260D+00    4    2    0
 0.160224080173250D+03 0.000000000000000D+00 0.000000000000000D+00 0.160224080173250D+03
 0.160224080173250D+03 0.000000000000000D+00 0.000000000000000D+00 -.160224080173250D+03
 0.171629589020759D+03 -.999457791121464D+02 0.369087905002013D+02 0.498025927930774D+02
 0.148818571325741D+03 0.999457791121464D+02 -.369087905002013D+02 -.498025927930774D+02
 0.000000000000000D+00 -.000000000000000D+00 0.000000000000000D+00 -.000000000000000D+00
 0.163343859275861D+03 0.000000000000000D+00 0.000000000000000D+00 0.163343859275861D+03
 0.236772429515977D+03 0.000000000000000D+00 0.000000000000000D+00 -.236772429515977D+03
 0.163074937924970D+03 -.866664638605439D+02 0.312579777373511D+02 0.498025927930774D+02
 0.158566945083210D+03 0.112141219709916D+03 -.420983767155101D+02 -.498025927930774D+02
 0.784744057836590D+02 -.254747558493716D+02 0.108403989781590D+02 -.734285702401157D+02
0.834931947660D-03 0.000000000000D+00 0.000000000000D+00 0.117949277983D-02 0.000000000000D+00  5 2 -2 25 23 21 0 0.52470637D+00 0.11580106D-02 0.23177458D+05 0.23177458D+05 0.23177458D+05 0.12268379D+01  1  2  2  1  5  1        2 0.170661163312D+00 0.100000000000D+01
-.462378100765D-04 0.000000000000D+00 -.320635852165D-05 0.117949277983D-02 0.000000000000D+00  5 2 -2 25 23 21 2 0.52470637D+00 0.11580106D-02 0.23177458D+05 0.23177458D+05 0.23177458D+05 0.12268379D+01  1  2  3  1  5  1        2 -.142250982567D-01 0.100000000000D+01
0.574277720067D-04 0.000000000000D+00 0.000000000000D+00 0.117949277983D-02 0.000000000000D+00  5 2 -2 25 23 21 2 0.52470637D+00 0.11580106D-02 0.23177458D+05 0.23177458D+05 0.23177458D+05 0.12268379D+01  1  2 15  1  5  1        2 0.176676987536D-01 0.100000000000D+01
-.480042269432D-04 0.000000000000D+00 0.000000000000D+00 0.117949277983D-02 0.000000000000D+00  5 2 -2 25 23 21 2 0.52470637D+00 0.11580106D-02 0.23177458D+05 0.23177458D+05 0.23177458D+05 0.12268379D+01  1  2  4  1  5  1        2 -.147685377805D-01 0.100000000000D+01
  </mgrwgt>
  </event>
  <event>
  4     66 0.45228882E-03 0.10875125E+03 0.75467711E-02 0.11872252E+00
        2 -1    0    0  501    0 0.00000000E+00 0.00000000E+00 0.14045130E+04 0.14045130E+04 0.32000000E+00 0.0000E+00 0.9000E+01
       -2 -1    0    0    0  501 0.00000000E+00 0.00000000E+00 -.95149879E+01 0.95203673E+01 0.32000000E+00 0.0000E+00 0.9000E+01
       25  1    1    2    0    0 -.40285343E+01 0.11083705E+02 0.55535561E+03 0.56937152E+03 0.12500000E+03 0.0000E+00 0.9000E+01
       23  1    1    2    0    0 0.40285343E+01 -.11083705E+02 0.83964235E+03 0.84466183E+03 0.91188000E+02 0.0000E+00 0.9000E+01
#aMCatNLO 1  0  0  1  2 0.87897686D+02 0.00000000D+00  -5  5  0 0.00000000D+00 0.00000000D+00 0.00000000D+00 0.00000000D+00 0.00000000D+00
  <mgrwgt>
 0.2856654263D+00    6    2    0
 0.115618998453432D+03 0.000000000000000D+00 0.000000000000000D+00 0.115618998453432D+03
 0.115618998453432D+03 0.000000000000000D+00 0.000000000000000D+00 -.115618998453432D+03
 0.131424680810524D+03 -.402853431338094D+01 0.110837054329510D+02 -.388377279370137D+02
 0.998133160963406D+02 0.402853431338094D+01 -.110837054329510D+02 0.388377279370137D+02
 0.000000000000000D+00 -.000000000000000D+00 0.000000000000000D+00 0.000000000000000D+00
 0.180165365662620D+03 0.000000000000000D+00 0.000000000000000D+00 0.180165365662620D+03
 0.157891009872327D+03 0.000000000000000D+00 0.000000000000000D+00 -.157891009872327D+03
 0.136131212310412D+03 0.895331246250552D+01 -.363066942827577D+02 -.388377279370137D+02
 0.111249090845801D+03 0.142693097831786D+02 -.484677888604336D+02 0.388377279370137D+02
 0.906760723787346D+02 -.232226222456841D+02 0.847744831431913D+02 0.222743557902930D+02
0.902606616284D-04 0.000000000000D+00 0.000000000000D+00 0.160765393955D-02 0.000000000000D+00  5 2 -2 25 23 21 0 0.21607933D+00 0.14642609D-02 0.11826835D+05 0.11826835D+05 0.11826835D+05 0.12597646D+01  1  2  2  1  5  1        2 0.161194960270D+00 0.100000000000D+01
-.499161800763D-05 0.000000000000D+00 -.346624706831D-06 0.160765393955D-02 0.000000000000D+00  5 2 -2 25 23 21 2 0.21607933D+00 0.14642609D-02 0.11826835D+05 0.11826835D+05 0.11826835D+05 0.12597646D+01  1  2  3  1  5  1        2 -.141472851192D-01 0.100000000000D+01
0.619146527339D-05 0.000000000000D+00 0.000000000000D+00 0.160765393955D-02 0.000000000000D+00  5 2 -2 25 23 21 2 0.21607933D+00 0.14642609D-02 0.11826835D+05 0.11826835D+05 0.11826835D+05 0.12597646D+01  1  2 15  1  5  1        2 0.175479021821D-01 0.100000000000D+01
-.400290719368D-04 0.000000000000D+00 -.309645123480D-04 0.160765393955D-02 0.000000000000D+00  5 2 -2 25 23 21 2 0.38877865D+00 0.14642609D-02 0.11826835D+05 0.11826835D+05 0.11826835D+05 0.12597646D+01  1  2  5  1  5  1        2 -.301315294115D-01 0.100000000000D+01
0.534044517478D-04 0.000000000000D+00 0.262964857009D-04 0.160765393955D-02 0.000000000000D+00  5 2 -2 25 23 21 2 0.21607933D+00 0.14642609D-02 0.11826835D+05 0.11826835D+05 0.11826835D+05 0.12597646D+01  1  2  6  1  5  1        2 0.151359339668D+00 0.100000000000D+01
-.933787281460D-06 0.000000000000D+00 -.199489495504D-05 0.160765393955D-02 0.000000000000D+00  5 21 -2 25 23 -2 2 0.38877865D+00 0.14642609D-02 0.11826835D+05 0.11826835D+05 0.11826835D+05 0.12597646D+01  1  2  5  3  5  1        2 -.157961270193D-03 0.100000000000D+01
  </mgrwgt>
  </event>
  <event>
  4     66 0.45228882E-03 0.64106779E+02 0.75467711E-02 0.11943622E+00
        2 -1    0    0  501    0 0.00000000E+00 0.00000000E+00 0.72282097E+03 0.72282104E+03 0.32000000E+00 0.0000E+00 0.9000E+01
       -2 -1    0    0    0  501 0.00000000E+00 0.00000000E+00 -.59430931E+02 0.59431793E+02 0.32000000E+00 0.0000E+00 0.9000E+01
       25  1    1    2    0    0 0.84931277E+02 0.21282477E+02 0.57137547E+02 0.16296001E+03 0.12500000E+03 0.0000E+00 0.9000E+01
       23  1    1    2    0    0 -.84931277E+02 -.21282477E+02 0.60625249E+03 0.61929282E+03 0.91188000E+02 0.0000E+00 0.9000E+01
#aMCatNLO 1  0  0  2  1 0.29757753D+02 0.00000000D+00  -5  5  0 0.00000000D+00 0.00000000D+00 0.00000000D+00 0.00000000D+00 0.00000000D+00
  <mgrwgt>
 0.1056066042D+00    9    2    0
 0.207263811877040D+03 0.000000000000000D+00 0.000000000000000D+00 0.207263811877040D+03
 0.207263811877040D+03 0.000000000000000D+00 0.000000000000000D+00 -.207263811877040D+03
 0.216080773928689D+03 0.849312772924465D+02 0.212824774622352D+02 -.152969392860678D+03
 0.198446849825391D+03 -.849312772924465D+02 -.212824774622352D+02 0.152969392860678D+03
 0.000000000000000D+00 0.000000000000000D+00 -.000000000000000D+00 -.000000000000000D+00
 0.217811974884945D+03 0.000000000000000D+00 0.000000000000000D+00 0.217811974884945D+03
 0.229902576296992D+03 0.000000000000000D+00 0.000000000000000D+00 -.229902576296992D+03
 0.217925513613560D+03 0.843240513280045D+02 0.368286396599378D+02 -.152969392860678D+03
 0.197668849547443D+03 -.854854898568415D+02 -.709356110717659D+01 0.152969392860678D+03
 0.321201880209340D+02 0.116143852883700D+01 -.297350785527612D+02 -.120906014120473D+02
0.303314349120D-03 0.000000000000D+00 0.000000000000D+00 0.570838041392D-03 0.000000000000D+00  5 2 -2 25 23 21 0 0.11120330D+00 0.91432919D-02 0.19464824D+05 0.19464824D+05 0.19464824D+05 0.12351250D+01  1  2  2  2  5  2       -2 0.917257506892D-01 0.100000000000D+01
-.136410103803D-04 0.000000000000D+00 -.116480696512D-05 0.570838041392D-03 0.000000000000D+00  5 2 -2 25 23 21 2 0.11120330D+00 0.91432919D-02 0.19464824D+05 0.19464824D+05 0.19464824D+05 0.12351250D+01  1  2  3  2  5  2       -2 -.629312947276D-02 0.100000000000D+01
0.207145480755D-04 0.000000000000D+00 0.000000000000D+00 0.570838041392D-03 0.000000000000D+00  5 2 -2 25 23 21 2 0.11120330D+00 0.91432919D-02 0.19464824D+05 0.19464824D+05 0.19464824D+05 0.12351250D+01  1  2 15  2  5  2       -2 0.955642796055D-02 0.100000000000D+01
0.429083144575D-03 0.000000000000D+00 0.000000000000D+00 0.570838041392D-03 0.000000000000D+00  5 2 -2 25 23 21 2 0.11120330D+00 0.10355314D-01 0.24050829D+05 0.24050829D+05 0.24050829D+05 0.12251040D+01  1  2 12  2  5  2       -2 0.160653346348D+00 0.100000000000D+01
-.416389469288D-03 0.000000000000D+00 0.000000000000D+00 0.570838041392D-03 0.000000000000D+00  5 2 -2 25 23 21 2 0.11120330D+00 0.91432919D-02 0.19464824D+05 0.19464824D+05 0.19464824D+05 0.12351250D+01  1  2  4  2  5  2       -2 -.192096682596D+00 0.100000000000D+01
-.933552936400D-03 0.000000000000D+00 -.245354493178D-03 0.570838041392D-03 0.000000000000D+00  5 2 -2 25 23 21 2 0.11120330D+00 0.10652501D-01 0.19464824D+05 0.19464824D+05 0.19464824D+05 0.12351250D+01  1  2  5  2  5  2       -2 -.338801062293D+00 0.100000000000D+01
0.962616890828D-03 0.000000000000D+00 0.242518793910D-03 0.570838041392D-03 0.000000000000D+00  5 2 -2 25 23 21 2 0.11120330D+00 0.91432919D-02 0.19464824D+05 0.19464824D+05 0.19464824D+05 0.12351250D+01  1  2  6  2  5  2       -2 0.444092670392D+00 0.100000000000D+01
0.839534067184D-05 0.000000000000D+00 0.000000000000D+00 0.570838041392D-03 0.000000000000D+00  5 2 21 25 23 2 2 0.11120330D+00 0.10355314D-01 0.24050829D+05 0.24050829D+05 0.24050829D+05 0.12251040D+01  1  2 12  4  5  2       -2 0.490689227193D-01 0.100000000000D+01
-.198531721174D-04 0.000000000000D+00 -.568028028472D-05 0.570838041392D-03 0.000000000000D+00  5 2 21 25 23 2 2 0.11120330D+00 0.10652501D-01 0.19464824D+05 0.19464824D+05 0.19464824D+05 0.12351250D+01  1  2  5  4  5  2       -2 -.112299639594D+00 0.100000000000D+01
  </mgrwgt>
  </event>
  <event>
  4     66 0.45228882E-03 0.44066948E+02 0.75467711E-02 0.12468422E+00
        2 -1    0    0  501    0 0.00000000E+00 0.00000000E+00 0.35339655E+02 0.35341103E+02 0.32000000E+00 0.0000E+00 0.9000E+01
       -2 -1    0    0    0  501 0.00000000E+00 0.00000000E+00 -.37299720E+03 0.37299734E+03 0.32000000E+00 0.0000E+00 0.9000E+01
       25  1    1    2    0    0 0.31440837E+01 -.28729161E+02 -.23686425E+03 0.26937877E+03 0.12500000E+03 0.0000E+00 0.9000E+01
       23  1    1    2    0    0 -.31440837E+01 0.28729161E+02 -.10079330E+03 0.13895967E+03 0.91188000E+02 0.0000E+00 0.9000E+01
#aMCatNLO 1  0  0  2  1 0.11289214D+02 0.00000000D+00  -5  5  0 0.00000000D+00 0.00000000D+00 0.00000000D+00 0.00000000D+00 0.00000000D+00
  <mgrwgt>
 0.1817021135D+00    6    2    0
 0.114812525859520D+03 0.000000000000000D+00 0.000000000000000D+00 0.114812525859520D+03
 0.114812525859520D+03 0.000000000000000D+00 0.000000000000000D+00 -.114812525859520D+03
 0.130729231378532D+03 0.314408369123011D+01 -.287291612416362D+02 -.250974494504209D+02
 0.988958203405069D+02 -.314408369123011D+01 0.287291612416362D+02 0.250974494504209D+02
 0.000000000000000D+00 -.000000000000000D+00 0.000000000000000D+00 0.000000000000000D+00
 0.120985313404556D+03 0.000000000000000D+00 0.000000000000000D+00 0.120985313404556D+03
 0.120231438256522D+03 0.000000000000000D+00 0.000000000000000D+00 -.120231438256522D+03
 0.131765447662971D+03 0.861669311613463D+01 -.321403769213929D+02 -.250974494504209D+02
 0.981369462781275D+02 0.963745768587849D+00 0.261686473852427D+02 0.250974494504209D+02
 0.113143577199793D+02 -.958043888472248D+01 0.597172953615026D+01 0.753875148034305D+00
0.290894214385D-03 0.000000000000D+00 0.000000000000D+00 0.170684872207D-02 0.000000000000D+00  5 2 -2 25 23 21 0 0.54369919D-02 0.57384307D-01 0.12539045D+05 0.12539045D+05 0.12539045D+05 0.12567937D+01  1  2  2  2  5  2       -2 0.111429524863D+00 0.100000000000D+01
-.161485097037D-04 0.000000000000D+00 -.111711037744D-05 0.170684872207D-02 0.000000000000D+00  5 2 -2 25 23 21 2 0.54369919D-02 0.57384307D-01 0.12539045D+05 0.12539045D+05 0.12539045D+05 0.12567937D+01  1  2  3  2  5  2       -2 -.977069909955D-02 0.100000000000D+01
0.201192718102D-04 0.000000000000D+00 0.000000000000D+00 0.170684872207D-02 0.000000000000D+00  5 2 -2 25 23 21 2 0.54369919D-02 0.57384307D-01 0.12539045D+05 0.12539045D+05 0.12539045D+05 0.12567937D+01  1  2 15  2  5  2       -2 0.121732193600D-01 0.100000000000D+01
0.436409683566D-03 0.000000000000D+00 0.000000000000D+00 0.170684872207D-02 0.000000000000D+00  5 2 -2 25 23 21 2 0.54369919D-02 0.61559864D-01 0.13866935D+05 0.13866935D+05 0.13866935D+05 0.12517300D+01  1  2 12  2  5  2       -2 0.227765842133D+00 0.100000000000D+01
-.319812965075D-03 0.000000000000D+00 0.000000000000D+00 0.170684872207D-02 0.000000000000D+00  5 2 -2 25 23 21 2 0.54369919D-02 0.57384307D-01 0.12539045D+05 0.12539045D+05 0.12539045D+05 0.12567937D+01  1  2  4  2  5  2       -2 -.193503692119D+00 0.100000000000D+01
0.521109890980D-05 0.000000000000D+00 0.000000000000D+00 0.170684872207D-02 0.000000000000D+00  5 2 21 25 23 2 2 0.54369919D-02 0.61559864D-01 0.13866935D+05 0.13866935D+05 0.13866935D+05 0.12517300D+01  1  2 12  4  5  2       -2 0.336079183941D-01 0.100000000000D+01
  </mgrwgt>
  </event>
  <event>
  4     66 0.45228882E-03 0.13510837E+03 0.75467711E-02 0.10750612E+00
        4 -1    0    0  501    0 0.00000000E+00 0.00000000E+00 0.33220710E+03 0.33221072E+03 0.15500000E+01 0.0000E+00 0.9000E+01
       -4 -1    0    0    0  501 0.00000000E+00 0.00000000E+00 -.22287173E+03 0.22287712E+03 0.15500000E+01 0.0000E+00 0.9000E+01
       25  1    1    2    0    0 -.13919739E+03 0.12243103E+03 -.11390045E+03 0.25092545E+03 0.12500000E+03 0.0000E+00 0.9000E+01
       23  1    1    2    0    0 0.13919739E+03 -.12243103E+03 0.22323582E+03 0.30416238E+03 0.91188000E+02 0.0000E+00 0.9000E+01
#aMCatNLO 1  0  0  2  1 0.18471438D+03 0.00000000D+00  -5  5  0 0.00000000D+00 0.00000000D+00 0.00000000D+00 0.00000000D+00 0.00000000D+00
  <mgrwgt>
 0.8442334835D-02    7    2    0
 0.272106725778887D+03 0.000000000000000D+00 0.000000000000000D+00 0.272106725778887D+03
 0.272106725778887D+03 0.000000000000000D+00 0.000000000000000D+00 -.272106725778887D+03
 0.278822609624717D+03 -.139197394003010D+03 0.122431031471698D+03 -.166588642090281D+03
 0.265390841933057D+03 0.139197394003010D+03 -.122431031471698D+03 0.166588642090281D+03
 0.000000000000000D+00 0.000000000000000D+00 -.000000000000000D+00 -.000000000000000D+00
 0.325180847546805D+03 0.000000000000000D+00 0.000000000000000D+00 0.325180847546805D+03
 0.512846406341172D+03 0.000000000000000D+00 0.000000000000000D+00 -.512846406341172D+03
 0.352112435031433D+03 -.183359726899511D+03 0.216761624328704D+03 -.166588642090281D+03
 0.222594170683927D+03 0.105040856403423D+03 -.494727833360603D+02 0.166588642090281D+03
 0.263320648172616D+03 0.783188704960882D+02 -.167288840992643D+03 -.187665558794367D+03
0.186798737215D-02 0.000000000000D+00 0.000000000000D+00 0.666376561309D-03 0.000000000000D+00  5 4 -4 25 23 21 0 0.51109477D-01 0.34288651D-01 0.46263212D+05 0.46263212D+05 0.46263212D+05 0.11956372D+01  1  2  2  2  5  2       -4 0.102072865053D-01 0.100000000000D+01
-.968004140417D-04 0.000000000000D+00 -.717356336144D-05 0.666376561309D-03 0.000000000000D+00  5 4 -4 25 23 21 2 0.51109477D-01 0.34288651D-01 0.46263212D+05 0.46263212D+05 0.46263212D+05 0.11956372D+01  1  2  3  2  5  2       -4 -.756157741415D-03 0.100000000000D+01
0.128133761363D-03 0.000000000000D+00 0.000000000000D+00 0.666376561309D-03 0.000000000000D+00  5 4 -4 25 23 21 2 0.51109477D-01 0.34288651D-01 0.46263212D+05 0.46263212D+05 0.46263212D+05 0.11956372D+01  1  2 15  2  5  2       -4 0.100091860712D-02 0.100000000000D+01
0.382269904805D-04 0.000000000000D+00 0.000000000000D+00 0.666376561309D-03 0.000000000000D+00  5 4 -4 25 23 21 2 0.51109477D-01 0.65399058D-01 0.10322155D+06 0.10322155D+06 0.10322155D+06 0.11623088D+01  1  2 12  2  5  2       -4 0.781298656565D-04 0.100000000000D+01
-.727705079106D-03 0.000000000000D+00 -.503118108634D-03 0.666376561309D-03 0.000000000000D+00  5 4 -4 25 23 21 2 0.51109477D-01 0.74429284D-01 0.46263212D+05 0.46263212D+05 0.46263212D+05 0.11956372D+01  1  2  5  2  5  2       -4 -.114804172105D-02 0.100000000000D+01
0.268075783037D-05 0.000000000000D+00 0.000000000000D+00 0.666376561309D-03 0.000000000000D+00  5 4 21 25 23 4 2 0.51109477D-01 0.65399058D-01 0.10322155D+06 0.10322155D+06 0.10322155D+06 0.11623088D+01  1  2 12  4  5  2       -4 0.119566180672D-03 0.100000000000D+01
-.295011456418D-04 0.000000000000D+00 -.422281386908D-04 0.666376561309D-03 0.000000000000D+00  5 4 21 25 23 4 2 0.51109477D-01 0.74429284D-01 0.46263212D+05 0.46263212D+05 0.46263212D+05 0.11956372D+01  1  2  5  4  5  2       -4 -.105936686078D-02 0.100000000000D+01
  </mgrwgt>
  </event>
  <event>
  4     66 0.45228882E-03 0.30896877E+03 0.75467711E-02 0.97766730E-01
        2 -1    0    0  501    0 0.00000000E+00 0.00000000E+00 0.13886248E+03 0.13886285E+03 0.32000000E+00 0.0000E+00 0.9000E+01
       -2 -1    0    0    0  501 0.00000000E+00 0.00000000E+00 -.69419587E+03 0.69419595E+03 0.32000000E+00 0.0000E+00 0.9000E+01
       25  1    1    2    0    0 -.28586569E+03 0.42513086E+02 -.24188849E+03 0.39706624E+03 0.12500000E+03 0.0000E+00 0.9000E+01
       23  1    1    2    0    0 0.28586569E+03 -.42513086E+02 -.31344490E+03 0.43599256E+03 0.91188000E+02 0.0000E+00 0.9000E+01
#aMCatNLO 1  0  0  2  1 0.52347746D+03 0.00000000D+00  -5  5  0 0.00000000D+00 0.00000000D+00 0.00000000D+00 0.00000000D+00 0.00000000D+00
  <mgrwgt>
 0.1231095410D+00    5    2    0
 0.310480188456450D+03 0.000000000000000D+00 0.000000000000000D+00 0.310480188456450D+03
 0.310480188456450D+03 0.000000000000000D+00 0.000000000000000D+00 -.310480188456450D+03
 0.316366029910892D+03 -.285865691903135D+03 0.425130864843431D+02 0.305926225076662D+02
 0.304594347002008D+03 0.285865691903135D+03 -.425130864843431D+02 -.305926225076662D+02
 0.000000000000000D+00 -.000000000000000D+00 -.000000000000000D+00 -.000000000000000D+00
 0.579888437374715D+03 0.000000000000000D+00 0.000000000000000D+00 0.579888437374715D+03
 0.800249934375684D+03 0.000000000000000D+00 0.000000000000000D+00 -.800249934375684D+03
 0.206028919054541D+03 -.110262976726203D+03 0.117171169228454D+03 0.305926225076662D+02
 0.606141284817808D+03 0.592008869728004D+03 0.876447113524675D+02 -.305926225076662D+02
 0.567968167878051D+03 -.481745893001801D+03 -.204815880580922D+03 -.220361497000969D+03
0.632150288281D-02 0.000000000000D+00 0.000000000000D+00 0.991924089000D-03 0.000000000000D+00  5 2 -2 25 23 21 0 0.21363493D-01 0.10679940D+00 0.95461699D+05 0.95461699D+05 0.95461699D+05 0.11654292D+01  1  2  2  2  5  2       -2 0.119849603834D+00 0.100000000000D+01
-.351184436237D-03 0.000000000000D+00 -.242762355599D-04 0.991924089000D-03 0.000000000000D+00  5 2 -2 25 23 21 2 0.21363493D-01 0.10679940D+00 0.95461699D+05 0.95461699D+05 0.95461699D+05 0.11654292D+01  1  2  3  2  5  2       -2 -.904322378674D-02 0.100000000000D+01
0.436230765565D-03 0.000000000000D+00 0.000000000000D+00 0.991924089000D-03 0.000000000000D+00  5 2 -2 25 23 21 2 0.21363493D-01 0.10679940D+00 0.95461699D+05 0.95461699D+05 0.95461699D+05 0.11654292D+01  1  2 15  2  5  2       -2 0.112332211471D-01 0.100000000000D+01
0.838976785018D-03 0.000000000000D+00 -.172916306672D-02 0.991924089000D-03 0.000000000000D+00  5 2 -2 25 23 21 2 0.21363493D-01 0.38268425D+00 0.95461699D+05 0.95461699D+05 0.95461699D+05 0.11654292D+01  1  2  5  2  5  2       -2 0.336332240360D-03 0.100000000000D+01
0.175295674085D-03 0.000000000000D+00 -.259179628062D-03 0.991924089000D-03 0.000000000000D+00  5 2 21 25 23 2 2 0.21363493D-01 0.38268425D+00 0.95461699D+05 0.95461699D+05 0.95461699D+05 0.11654292D+01  1  2  5  4  5  2       -2 0.733607569088D-03 0.100000000000D+01
  </mgrwgt>
  </event>
  <event>
  4     66 0.45228882E-03 0.13776659E+03 0.75467711E-02 0.10892669E+00
        2 -1    0    0  501    0 0.00000000E+00 0.00000000E+00 0.43787302E+03 0.43787313E+03 0.32000000E+00 0.0000E+00 0.9000E+01
       -2 -1    0    0    0  501 0.00000000E+00 0.00000000E+00 -.43647593E+02 0.43648766E+02 0.32000000E+00 0.0000E+00 0.9000E+01
       25  1    1    2    0    0 0.83619244E+02 0.13902638E+02 0.19598470E+03 0.24742770E+03 0.12500000E+03 0.0000E+00 0.9000E+01
       23  1    1    2    0    0 -.83619244E+02 -.13902638E+02 0.19824072E+03 0.23409420E+03 0.91188000E+02 0.0000E+00 0.9000E+01
#aMCatNLO 1  0  0  1  1 0.22710129D+03 0.00000000D+00  -5  5  0 0.00000000D+00 0.00000000D+00 0.00000000D+00 0.00000000D+00 0.00000000D+00
  <mgrwgt>
 0.1727160177D+00    3    2    0
 0.138247654299832D+03 0.000000000000000D+00 0.000000000000000D+00 0.138247654299832D+03
 0.138247654299832D+03 0.000000000000000D+00 0.000000000000000D+00 -.138247654299832D+03
 0.151466230580603D+03 0.836192443263787D+02 0.139026381845244D+02 -.114698577189043D+02
 0.125029078019061D+03 -.836192443263787D+02 -.139026381845244D+02 0.114698577189043D+02
 0.000000000000000D+00 0.000000000000000D+00 -.000000000000000D+00 -.000000000000000D+00
 0.250309807706842D+03 0.000000000000000D+00 0.000000000000000D+00 0.250309807706842D+03
 0.359469307895020D+03 0.000000000000000D+00 0.000000000000000D+00 -.359469307895020D+03
 0.194482032063556D+03 0.606308837646030D+02 0.135611943033795D+03 -.114698577189043D+02
 0.163323292729981D+03 -.102780341471243D+03 0.875436483996744D+02 0.114698577189043D+02
 0.251973790808326D+03 0.421494577066401D+02 -.223155591433469D+03 -.109159500188178D+03
0.197505969204D-03 0.000000000000D+00 0.000000000000D+00 0.143382114447D-02 0.000000000000D+00  5 2 -2 25 23 21 0 0.67365179D-01 0.67151136D-02 0.18979634D+05 0.18979634D+05 0.18979634D+05 0.12363376D+01  1  2  2  1  5  1        2 0.169207865229D+00 0.100000000000D+01
-.109723917422D-04 0.000000000000D+00 -.758474926260D-06 0.143382114447D-02 0.000000000000D+00  5 2 -2 25 23 21 2 0.67365179D-01 0.67151136D-02 0.18979634D+05 0.18979634D+05 0.18979634D+05 0.12363376D+01  1  2  3  1  5  1        2 -.143686448253D-01 0.100000000000D+01
0.136513377193D-04 0.000000000000D+00 0.000000000000D+00 0.143382114447D-02 0.000000000000D+00  5 2 -2 25 23 21 2 0.67365179D-01 0.67151136D-02 0.18979634D+05 0.18979634D+05 0.18979634D+05 0.12363376D+01  1  2 15  1  5  1        2 0.178767973007D-01 0.100000000000D+01
  </mgrwgt>
  </event>
  <event>
  5     66 0.45228882E-03 0.12603496E+03 0.75467711E-02 0.10841605E+00
        2 -1    0    0  501    0 0.00000000E+00 0.00000000E+00 0.14307585E+04 0.14307586E+04 0.32000000E+00 0.0000E+00 0.9000E+01
       21 -1    0    0  502  501 0.00000000E+00 0.00000000E+00 -.11505750E+03 0.11505994E+03 0.75000000E+00 0.0000E+00 0.9000E+01
       25  1    1    2    0    0 -.87802217E+02 0.55345535E+02 0.37238851E+03 0.40628876E+03 0.12500000E+03 0.0000E+00 0.9000E+01
       23  1    1    2    0    0 -.24415438E+02 0.16755314E+03 0.85256902E+03 0.87399048E+03 0.91188000E+02 0.0000E+00 0.9000E+01
        2  1    1    2  502    0 0.11221766E+03 -.22289868E+03 0.90743516E+02 0.26553928E+03 0.32000000E+00 0.0000E+00 0.9000E+01
#aMCatNLO 2  0  0  2  2 0.24955284D+03 0.00000000D+00  -5  5  0 0.00000000D+00 0.00000000D+00 0.00000000D+00 0.00000000D+00 0.00000000D+00
  <mgrwgt>
 0.6622417732D-01    1    2    0
 0.138127987180526D+03 0.000000000000000D+00 0.000000000000000D+00 0.138127987180526D+03
 0.138127987180526D+03 0.000000000000000D+00 0.000000000000000D+00 -.138127987180526D+03
 0.151358015368888D+03 -.318647693574114D+02 -.557633900024326D+02 -.562079142616409D+02
 0.124897958992164D+03 0.318647693574114D+02 0.557633900024326D+02 0.562079142616409D+02
 0.000000000000000D+00 0.000000000000000D+00 -.000000000000000D+00 -.000000000000000D+00
 0.212613120787359D+03 0.000000000000000D+00 0.000000000000000D+00 0.212613120787359D+03
 0.774276569040576D+03 0.000000000000000D+00 0.000000000000000D+00 -.774276569040576D+03
 0.171920584010778D+03 -.878022171081730D+02 0.553455350669984D+02 -.562079142616409D+02
 0.200361547279534D+03 -.244154380934503D+02 0.167553140947312D+03 0.562079142616409D+02
 0.614607558537622D+03 0.112217655201623D+03 -.222898676014310D+03 -.561663448253217D+03
0.913954159296D-04 0.000000000000D+00 0.000000000000D+00 0.125225942780D-02 0.149172630472D-06  5 2 21 25 23 2 2 0.22011685D+00 0.17701341D-01 0.91307137D+05 0.91307137D+05 0.91307137D+05 0.11672173D+01  1  2  1  4  5  2       -2 0.662241773175D-01 0.100000000000D+01
  </mgrwgt>
  </event>
  <event>
  5     66 0.45228882E-03 0.14121661E+03 0.75467711E-02 0.12051003E+00
        2 -1    0    0  502    0 0.00000000E+00 0.00000000E+00 0.20991938E+04 0.20991938E+04 0.32000000E+00 0.0000E+00 0.9000E+01
       -2 -1    0    0    0  501 0.00000000E+00 0.00000000E+00 -.10389296E+02 0.10394223E+02 0.32000000E+00 0.0000E+00 0.9000E+01
       25  1    1    2    0    0 -.62866093E+02 -.65482510E+02 0.12309420E+04 0.12405980E+04 0.12500000E+03 0.0000E+00 0.9000E+01
       23  1    1    2    0    0 0.54817127E+02 0.71386398E+02 0.81213862E+03 0.82218326E+03 0.91188000E+02 0.0000E+00 0.9000E+01
       21  1    1    2  502  501 0.80489655E+01 -.59038885E+01 0.45723864E+02 0.46806795E+02 0.75000000E+00 0.0000E+00 0.9000E+01
#aMCatNLO 2  0  0  1  1 0.99820711D+01 0.00000000D+00  -5  5  0 0.00000000D+00 0.00000000D+00 0.00000000D+00 0.00000000D+00 0.00000000D+00
  <mgrwgt>
 0.1889880636D+00    2    2    0
 0.142116459389081D+03 0.000000000000000D+00 0.000000000000000D+00 0.142116459389081D+03
 0.142116459389081D+03 0.000000000000000D+00 0.000000000000000D+00 -.142116459389081D+03
 0.154975189277622D+03 -.584742349947876D+02 -.687039220268039D+02 0.159010764272143D+02
 0.129257729500541D+03 0.584742349947876D+02 0.687039220268039D+02 -.159010764272143D+02
 0.000000000000000D+00 0.000000000000000D+00 -.000000000000000D+00 -.000000000000000D+00
 0.145396160142301D+03 0.000000000000000D+00 0.000000000000000D+00 0.145396160142301D+03
 0.150007882335210D+03 0.000000000000000D+00 0.000000000000000D+00 -.150007882335210D+03
 0.155299545701812D+03 -.628660926735776D+02 -.654825095395892D+02 0.159010764272143D+02
 0.129108600913880D+03 0.548171271988642D+02 0.713863980045144D+02 -.159010764272143D+02
 0.109958958618191D+02 0.804896547471339D+01 -.590388846492515D+01 -.461172219290871D+01
-.223738137865D-04 0.000000000000D+00 0.000000000000D+00 0.139285289351D-02 0.000000000000D+00  5 2 -2 25 23 21 2 0.31564094D+00 0.15144981D-02 0.19942130D+05 0.19942130D+05 0.19942130D+05 0.12339646D+01  1  2  8  1  5  1        2 -.273224786818D-01 0.100000000000D+01
0.203533618030D-03 0.000000000000D+00 0.000000000000D+00 0.139285289351D-02 0.113094970092D-03  5 2 -2 25 23 21 2 0.32292516D+00 0.15985949D-02 0.21402386D+05 0.21402386D+05 0.21402386D+05 0.12305989D+01  1  2  1  1  5  1        2 0.216310542329D+00 0.100000000000D+01
  </mgrwgt>
  </event>
  <event>
  4     66 0.45228882E-03 0.26558341E+03 0.75467711E-02 0.10682298E+00
        2 -1    0    0  501    0 0.00000000E+00 0.00000000E+00 0.18738912E+04 0.18738912E+04 0.32000000E+00 0.0000E+00 0.9000E+01
       -2 -1    0    0    0  501 0.00000000E+00 0.00000000E+00 -.63980501E+02 0.63981301E+02 0.32000000E+00 0.0000E+00 0.9000E+01
       25  1    1    2    0    0 -.19536076E+03 0.14298931E+03 0.15403246E+04 0.15642367E+04 0.12500000E+03 0.0000E+00 0.9000E+01
       23  1    1    2    0    0 0.19536076E+03 -.14298931E+03 0.26958609E+03 0.37363576E+03 0.91188000E+02 0.0000E+00 0.9000E+01
#aMCatNLO 1  0  0  2  1 0.13149200D+03 0.00000000D+00  -5  5  0 0.00000000D+00 0.00000000D+00 0.00000000D+00 0.00000000D+00 0.00000000D+00
  <mgrwgt>
 0.1307358685D+00    4    2    0
 0.346256114859217D+03 0.000000000000000D+00 0.000000000000000D+00 0.346256114859217D+03
 0.346256114859217D+03 0.000000000000000D+00 0.000000000000000D+00 -.346256114859217D+03
 0.351533818517224D+03 -.195360755548595D+03 0.142989313424626D+03 0.222124417836349D+03
 0.340978411201209D+03 0.195360755548595D+03 -.142989313424626D+03 -.222124417836349D+03
 0.000000000000000D+00 0.000000000000000D+00 -.000000000000000D+00 0.000000000000000D+00
 0.452665798658973D+03 0.000000000000000D+00 0.000000000000000D+00 0.452665798658973D+03
 0.395571800638586D+03 0.000000000000000D+00 0.000000000000000D+00 -.395571800638586D+03
 0.398751888813183D+03 -.265064053354820D+03 0.154207196498921D+03 0.222124417836349D+03
 0.306133446116566D+03 0.135242549825270D+03 -.133314032287778D+03 -.222124417836349D+03
 0.143352264367811D+03 0.129821503529550D+03 -.208931642111436D+02 0.570939980203875D+02
0.281872343261D-02 0.000000000000D+00 0.000000000000D+00 0.594002377582D-03 0.000000000000D+00  5 2 -2 25 23 21 0 0.28829101D+00 0.98432177D-02 0.70534548D+05 0.70534548D+05 0.70534548D+05 0.11777602D+01  1  2  2  2  5  2       -2 0.166479313551D+00 0.100000000000D+01
-.143199859706D-03 0.000000000000D+00 -.108246401681D-04 0.594002377582D-03 0.000000000000D+00  5 2 -2 25 23 21 2 0.28829101D+00 0.98432177D-02 0.70534548D+05 0.70534548D+05 0.70534548D+05 0.11777602D+01  1  2  3  2  5  2       -2 -.117317859543D-01 0.100000000000D+01
0.193802518290D-03 0.000000000000D+00 0.000000000000D+00 0.594002377582D-03 0.000000000000D+00  5 2 -2 25 23 21 2 0.28829101D+00 0.98432177D-02 0.70534548D+05 0.70534548D+05 0.70534548D+05 0.11777602D+01  1  2 15  2  5  2       -2 0.158774573289D-01 0.100000000000D+01
-.486892267869D-03 0.000000000000D+00 0.000000000000D+00 0.594002377582D-03 0.000000000000D+00  5 2 -2 25 23 21 2 0.28829101D+00 0.98432177D-02 0.70534548D+05 0.70534548D+05 0.70534548D+05 0.11777602D+01  1  2  4  2  5  2       -2 -.398891163804D-01 0.100000000000D+01
  </mgrwgt>
  </event>
  <event>
  4     66 0.45228882E-03 0.27237956E+03 0.75467711E-02 0.96867334E-01
        2 -1    0    0  501    0 0.00000000E+00 0.00000000E+00 0.10675261E+03 0.10675308E+03 0.32000000E+00 0.0000E+00 0.9000E+01
       -2 -1    0    0    0  501 0.00000000E+00 0.00000000E+00 -.71213965E+03 0.71213972E+03 0.32000000E+00 0.0000E+00 0.9000E+01
       25  1    1    2    0    0 0.67655418E+02 -.24018380E+03 -.24642165E+03 0.37230920E+03 0.12500000E+03 0.0000E+00 0.9000E+01
       23  1    1    2    0    0 -.67655418E+02 0.24018380E+03 -.35896540E+03 0.44658361E+03 0.91188000E+02 0.0000E+00 0.9000E+01
#aMCatNLO 1  0  0  2  1 0.61484317D+03 0.00000000D+00  -5  5  0 0.00000000D+00 0.00000000D+00 0.00000000D+00 0.00000000D+00 0.00000000D+00
  <mgrwgt>
 0.1614108326D+00    3    2    0
 0.275722666749145D+03 0.000000000000000D+00 0.000000000000000D+00 0.275722666749145D+03
 0.275722666749145D+03 0.000000000000000D+00 0.000000000000000D+00 -.275722666749145D+03
 0.282350475719463D+03 0.676554184787888D+02 -.240183795402406D+03 0.427934564572946D+02
 0.269094857778827D+03 -.676554184787888D+02 0.240183795402406D+03 -.427934564572946D+02
 0.000000000000000D+00 -.000000000000000D+00 -.000000000000000D+00 0.000000000000000D+00
 0.106658167280413D+04 0.000000000000000D+00 0.000000000000000D+00 0.106658167280413D+04
 0.557544024923139D+03 0.000000000000000D+00 0.000000000000000D+00 -.557544024923139D+03
 0.365292691275556D+03 0.323679461328586D+03 -.105896537704559D+03 0.427934564572946D+02
 0.460615338702988D+03 0.220811076858188D+03 0.391487454876440D+03 -.427934564572946D+02
 0.798217667748721D+03 -.544490538186774D+03 -.285590917171882D+03 0.509037647880988D+03
0.653858245970D-02 0.000000000000D+00 0.000000000000D+00 0.100258374768D-02 0.000000000000D+00  5 2 -2 25 23 21 0 0.16423520D-01 0.10955999D+00 0.74190624D+05 0.74190624D+05 0.74190624D+05 0.11756730D+01  1  2  2  2  5  2       -2 0.158550988865D+00 0.100000000000D+01
-.363188854519D-03 0.000000000000D+00 -.251098782936D-04 0.100258374768D-02 0.000000000000D+00  5 2 -2 25 23 21 2 0.16423520D-01 0.10955999D+00 0.74190624D+05 0.74190624D+05 0.74190624D+05 0.11756730D+01  1  2  3  2  5  2       -2 -.121728129707D-01 0.100000000000D+01
0.448515342304D-03 0.000000000000D+00 0.000000000000D+00 0.100258374768D-02 0.000000000000D+00  5 2 -2 25 23 21 2 0.16423520D-01 0.10955999D+00 0.74190624D+05 0.74190624D+05 0.74190624D+05 0.11756730D+01  1  2 15  2  5  2       -2 0.150326567251D-01 0.100000000000D+01
  </mgrwgt>
  </event>
  <event>
  4     66 0.45228882E-03 0.16035712E+03 0.75467711E-02 0.98378217E-01
        2 -1    0    0  501    0 0.00000000E+00 0.00000000E+00 0.32258920E+03 0.32258936E+03 0.32000000E+00 0.0000E+00 0.9000E+01
       -2 -1    0    0    0  501 0.00000000E+00 0.00000000E+00 -.10261757E+03 0.10261807E+03 0.32000000E+00 0.0000E+00 0.9000E+01
       25  1    1    2    0    0 0.29716739E+02 0.11397835E+03 0.15809616E+02 0.17247925E+03 0.12500000E+03 0.0000E+00 0.9000E+01
       23  1    1    2    0    0 -.29716739E+02 -.11397835E+03 0.20416202E+03 0.25272817E+03 0.91188000E+02 0.0000E+00 0.9000E+01
#aMCatNLO 1  0  0  1  1 0.60091382D+03 0.00000000D+00  -5  5  0 0.00000000D+00 0.00000000D+00 0.00000000D+00 0.00000000D+00 0.00000000D+00
  <mgrwgt>
 0.2120374988D+00    3    2    0
 0.181943560263167D+03 0.000000000000000D+00 0.000000000000000D+00 0.181943560263167D+03
 0.181943560263167D+03 0.000000000000000D+00 0.000000000000000D+00 -.181943560263167D+03
 0.191987538524100D+03 0.297167389105600D+02 0.113978349979635D+03 -.857908276739655D+02
 0.171899582002234D+03 -.297167389105600D+02 -.113978349979635D+03 0.857908276739655D+02
 0.000000000000000D+00 -.000000000000000D+00 -.000000000000000D+00 -.000000000000000D+00
 0.509725218180048D+03 0.000000000000000D+00 0.000000000000000D+00 0.509725218180048D+03
 0.920901539533145D+03 0.000000000000000D+00 0.000000000000000D+00 -.920901539533145D+03
 0.562647918266130D+03 0.697610649795523D+02 0.537327653884614D+03 -.857908276739655D+02
 0.139855644697219D+03 -.131736148904336D+02 0.609158416785760D+02 0.857908276739655D+02
 0.728123194749843D+03 -.565874500891187D+02 -.598243495563190D+03 -.411176321353097D+03
0.670177214746D-03 0.000000000000D+00 0.000000000000D+00 0.958855631301D-03 0.000000000000D+00  5 2 -2 25 23 21 0 0.49629159D-01 0.15787369D-01 0.25714405D+05 0.25714405D+05 0.25714405D+05 0.12219879D+01  1  2  2  1  5  1        2 0.207652661252D+00 0.100000000000D+01
-.365100316039D-04 0.000000000000D+00 -.257365696634D-05 0.958855631301D-03 0.000000000000D+00  5 2 -2 25 23 21 2 0.49629159D-01 0.15787369D-01 0.25714405D+05 0.25714405D+05 0.25714405D+05 0.12219879D+01  1  2  3  1  5  1        2 -.168924978508D-01 0.100000000000D+01
0.459870527011D-04 0.000000000000D+00 0.000000000000D+00 0.958855631301D-03 0.000000000000D+00  5 2 -2 25 23 21 2 0.49629159D-01 0.15787369D-01 0.25714405D+05 0.25714405D+05 0.25714405D+05 0.12219879D+01  1  2 15  1  5  1        2 0.212773354279D-01 0.100000000000D+01
  </mgrwgt>
  </event>
  <event>
  4     66 0.45228882E-03 0.17200558E+03 0.75467711E-02 0.10964442E+00
        2 -1    0    0  501    0 0.00000000E+00 0.00000000E+00 0.42961056E+03 0.42961068E+03 0.32000000E+00 0.0000E+00 0.9000E+01
       -2 -1    0    0    0  501 0.00000000E+00 0.00000000E+00 -.75926967E+02 0.75927642E+02 0.32000000E+00 0.0000E+00 0.9000E+01
       25  1    1    2    0    0 -.79686221E+02 -.10667134E+03 0.26369627E+03 0.32076376E+03 0.12500000E+03 0.0000E+00 0.9000E+01
       23  1    1    2    0    0 0.79686221E+02 0.10667134E+03 0.89987325E+02 0.18477456E+03 0.91188000E+02 0.0000E+00 0.9000E+01
#aMCatNLO 1  0  0  2  1 0.17281940D+03 0.00000000D+00  -5  5  0 0.00000000D+00 0.00000000D+00 0.00000000D+00 0.00000000D+00 0.00000000D+00
  <mgrwgt>
 0.1429397388D+00    5    2    0
 0.180607939234877D+03 0.000000000000000D+00 0.000000000000000D+00 0.180607939234877D+03
 0.180607939234877D+03 0.000000000000000D+00 0.000000000000000D+00 -.180607939234877D+03
 0.190726194123016D+03 -.796862213983080D+02 -.106671338566616D+03 0.549801125164056D+02
 0.170489684346738D+03 0.796862213983080D+02 0.106671338566616D+03 -.549801125164056D+02
 0.000000000000000D+00 0.000000000000000D+00 -.000000000000000D+00 -.000000000000000D+00
 0.247063145770939D+03 0.000000000000000D+00 0.000000000000000D+00 0.247063145770939D+03
 0.359592543723791D+03 0.000000000000000D+00 0.000000000000000D+00 -.359592543723791D+03
 0.163012103675338D+03 -.849623370616691D+02 -.265807158173363D+02 0.549801125164056D+02
 0.237416986057604D+03 0.736021677736234D+02 0.199026335069969D+03 -.549801125164056D+02
 0.206226599761787D+03 0.113601692880456D+02 -.172445619252632D+03 -.112529397952853D+03
0.387840397264D-03 0.000000000000D+00 0.000000000000D+00 0.109823150335D-02 0.000000000000D+00  5 2 -2 25 23 21 0 0.66093994D-01 0.11681133D-01 0.29585918D+05 0.29585918D+05 0.29585918D+05 0.12155324D+01  1  2  2  2  5  2       -2 0.144571163070D+00 0.100000000000D+01
-.214842963005D-04 0.000000000000D+00 -.148940924622D-05 0.109823150335D-02 0.000000000000D+00  5 2 -2 25 23 21 2 0.66093994D-01 0.11681133D-01 0.29585918D+05 0.29585918D+05 0.29585918D+05 0.12155324D+01  1  2  3  2  5  2       -2 -.118326730772D-01 0.100000000000D+01
0.267198064546D-04 0.000000000000D+00 0.000000000000D+00 0.109823150335D-02 0.000000000000D+00  5 2 -2 25 23 21 2 0.66093994D-01 0.11681133D-01 0.29585918D+05 0.29585918D+05 0.29585918D+05 0.12155324D+01  1  2 15  2  5  2       -2 0.147161782746D-01 0.100000000000D+01
-.515361525137D-04 0.000000000000D+00 -.106705287071D-03 0.109823150335D-02 0.000000000000D+00  5 2 -2 25 23 21 2 0.66093994D-01 0.31285115D-01 0.29585918D+05 0.29585918D+05 0.29585918D+05 0.12155324D+01  1  2  5  2  5  2       -2 -.533059697809D-02 0.100000000000D+01
0.607357891120D-06 0.000000000000D+00 -.117087333793D-04 0.109823150335D-02 0.000000000000D+00  5 2 21 25 23 2 2 0.66093994D-01 0.31285115D-01 0.29585918D+05 0.29585918D+05 0.29585918D+05 0.12155324D+01  1  2  5  4  5  2       -2 0.815667504685D-03 0.100000000000D+01
  </mgrwgt>
  </event>
  <event>
  4     66 0.45228882E-03 0.17914330E+03 0.75467711E-02 0.10397614E+00
        2 -1    0    0  501    0 0.00000000E+00 0.00000000E+00 0.42585084E+03 0.42585097E+03 0.32000000E+00 0.0000E+00 0.9000E+01
       -2 -1    0    0    0  501 0.00000000E+00 0.00000000E+00 -.80271762E+02 0.80272400E+02 0.32000000E+00 0.0000E+00 0.9000E+01
       25  1    1    2    0    0 -.13291139E+03 -.50604533E+02 0.11952391E+03 0.22391342E+03 0.12500000E+03 0.0000E+00 0.9000E+01
       23  1    1    2    0    0 0.13291139E+03 0.50604533E+02 0.22605518E+03 0.28220994E+03 0.91188000E+02 0.0000E+00 0.9000E+01
#aMCatNLO 1  0  0  1  2 0.33430955D+03 0.00000000D+00  -5  5  0 0.00000000D+00 0.00000000D+00 0.00000000D+00 0.00000000D+00 0.00000000D+00
  <mgrwgt>
 0.2373358651D+00    3    2    0
 0.184889127306445D+03 0.000000000000000D+00 0.000000000000000D+00 0.184889127306445D+03
 0.184889127306445D+03 0.000000000000000D+00 0.000000000000000D+00 -.184889127306445D+03
 0.194773089606570D+03 -.132911392137279D+03 -.506045328275716D+02 -.456650800100330D+02
 0.175005165006319D+03 0.132911392137279D+03 0.506045328275716D+02 0.456650800100330D+02
 0.000000000000000D+00 0.000000000000000D+00 -.000000000000000D+00 -.000000000000000D+00
 0.328870163470043D+03 0.000000000000000D+00 0.000000000000000D+00 0.328870163470043D+03
 0.600165887150325D+03 0.000000000000000D+00 0.000000000000000D+00 -.600165887150325D+03
 0.317781285126591D+03 -.275520262179336D+03 0.858092697382709D+02 -.456650800100330D+02
 0.180715285932807D+03 0.339386898055713D+02 0.145277765083769D+03 0.456650800100330D+02
 0.430539479560970D+03 0.241581572373764D+03 -.231087034822039D+03 -.271295723680283D+03
0.675220493519D-03 0.000000000000D+00 0.000000000000D+00 0.111716499034D-02 0.000000000000D+00  5 2 -2 25 23 21 0 0.65515573D-01 0.12349560D-01 0.32092323D+05 0.32092323D+05 0.32092323D+05 0.12118373D+01  1  2  2  1  5  1        2 0.232760524992D+00 0.100000000000D+01
-.374667915217D-04 0.000000000000D+00 -.259302448475D-05 0.111716499034D-02 0.000000000000D+00  5 2 -2 25 23 21 2 0.65515573D-01 0.12349560D-01 0.32092323D+05 0.32092323D+05 0.32092323D+05 0.12118373D+01  1  2  3  1  5  1        2 -.189670097359D-01 0.100000000000D+01
0.465047641664D-04 0.000000000000D+00 0.000000000000D+00 0.111716499034D-02 0.000000000000D+00  5 2 -2 25 23 21 2 0.65515573D-01 0.12349560D-01 0.32092323D+05 0.32092323D+05 0.32092323D+05 0.12118373D+01  1  2 15  1  5  1        2 0.235423498753D-01 0.100000000000D+01
  </mgrwgt>
  </event>
  <event>
  4     66 0.45228882E-03 0.11626729E+03 0.75467711E-02 0.12098827E+00
        2 -1    0    0  501    0 0.00000000E+00 0.00000000E+00 0.12516600E+04 0.12516601E+04 0.32000000E+00 0.0000E+00 0.9000E+01
       -2 -1    0    0    0  501 0.00000000E+00 0.00000000E+00 -.10816832E+02 0.10821564E+02 0.32000000E+00 0.0000E+00 0.9000E+01
       25  1    1    2    0    0 0.11093141E+02 -.40889366E+02 0.67785440E+03 0.69058424E+03 0.12500000E+03 0.0000E+00 0.9000E+01
       23  1    1    2    0    0 -.11093141E+02 0.40889366E+02 0.56298881E+03 0.57189741E+03 0.91188000E+02 0.0000E+00 0.9000E+01
#aMCatNLO 1  0  0  2  2 0.47794140D+02 0.00000000D+00  -5  5  0 0.00000000D+00 0.00000000D+00 0.00000000D+00 0.00000000D+00 0.00000000D+00
  <mgrwgt>
 0.1697686072D+00    4    2    0
 0.116370138628596D+03 0.000000000000000D+00 0.000000000000000D+00 0.116370138628596D+03
 0.116370138628596D+03 0.000000000000000D+00 0.000000000000000D+00 -.116370138628596D+03
 0.132073799254389D+03 0.110931408660425D+02 -.408893663547350D+02 -.484668900622581D+01
 0.100666478002802D+03 -.110931408660425D+02 0.408893663547350D+02 0.484668900622581D+01
 0.000000000000000D+00 -.000000000000000D+00 0.000000000000000D+00 0.000000000000000D+00
 0.203933653323564D+03 0.000000000000000D+00 0.000000000000000D+00 0.203933653323564D+03
 0.125506284157129D+03 0.000000000000000D+00 0.000000000000000D+00 -.125506284157129D+03
 0.143047978429661D+03 0.268650990627438D+02 -.639726518978130D+02 -.484668900622581D+01
 0.945489838995393D+02 0.980128492018135D-01 0.245103857903881D+02 0.484668900622581D+01
 0.918429751514920D+02 -.269631119119456D+02 0.394622661074249D+02 0.784273691664349D+02
0.993421845719D-04 0.000000000000D+00 0.000000000000D+00 0.173543981419D-02 0.000000000000D+00  5 2 -2 25 23 21 0 0.19256345D+00 0.16644951D-02 0.13518082D+05 0.13518082D+05 0.13518082D+05 0.12530058D+01  1  2  2  2  5  2       -2 0.178736995975D+00 0.100000000000D+01
-.551900500765D-05 0.000000000000D+00 -.381500146154D-06 0.173543981419D-02 0.000000000000D+00  5 2 -2 25 23 21 2 0.19256345D+00 0.16644951D-02 0.13518082D+05 0.13518082D+05 0.13518082D+05 0.12530058D+01  1  2  3  2  5  2       -2 -.155900566364D-01 0.100000000000D+01
0.685600967977D-05 0.000000000000D+00 0.000000000000D+00 0.173543981419D-02 0.000000000000D+00  5 2 -2 25 23 21 2 0.19256345D+00 0.16644951D-02 0.13518082D+05 0.13518082D+05 0.13518082D+05 0.12530058D+01  1  2 15  2  5  2       -2 0.193668204792D-01 0.100000000000D+01
-.451188617398D-05 0.000000000000D+00 0.000000000000D+00 0.173543981419D-02 0.000000000000D+00  5 2 -2 25 23 21 2 0.19256345D+00 0.16644951D-02 0.13518082D+05 0.13518082D+05 0.13518082D+05 0.12530058D+01  1  2  4  2  5  2       -2 -.127451525939D-01 0.100000000000D+01
  </mgrwgt>
  </event>
  <event>
  4     66 0.45228882E-03 0.61532567E+02 0.75467711E-02 0.11928324E+00
        4 -1    0    0  501    0 0.00000000E+00 0.00000000E+00 0.24770197E+03 0.24770682E+03 0.15500000E+01 0.0000E+00 0.9000E+01
       -4 -1    0    0    0  501 0.00000000E+00 0.00000000E+00 -.65802963E+02 0.65821215E+02 0.15500000E+01 0.0000E+00 0.9000E+01
       25  1    1    2    0    0 -.63994661E+02 0.20024336E+02 0.93228394E+02 0.16974341E+03 0.12500000E+03 0.0000E+00 0.9000E+01
       23  1    1    2    0    0 0.63994661E+02 -.20024336E+02 0.88670618E+02 0.14378463E+03 0.91188000E+02 0.0000E+00 0.9000E+01
#aMCatNLO 1  0  0  1  2 0.52421111D+02 0.00000000D+00  -5  5  0 0.00000000D+00 0.00000000D+00 0.00000000D+00 0.00000000D+00 0.00000000D+00
  <mgrwgt>
 0.8352913426D-02    7    2    0
 0.127683770200289D+03 0.000000000000000D+00 0.000000000000000D+00 0.127683770200289D+03
 0.127683770200289D+03 0.000000000000000D+00 0.000000000000000D+00 -.127683770200289D+03
 0.141995982011809D+03 -.639946608881906D+02 0.200243361702346D+02 -.644734412335974D+01
 0.113371558388769D+03 0.639946608881906D+02 -.200243361702346D+02 0.644734412335974D+01
 0.000000000000000D+00 0.000000000000000D+00 -.000000000000000D+00 0.000000000000000D+00
 0.294029743213591D+03 0.000000000000000D+00 0.000000000000000D+00 0.294029743213591D+03
 0.134543307414835D+03 0.000000000000000D+00 0.000000000000000D+00 -.134543307414835D+03
 0.155250201745673D+03 -.795572160661516D+02 0.458988700038559D+02 -.644734412335974D+01
 0.105442248332270D+03 0.525384938223952D+02 -.977143793540332D+00 0.644734412335974D+01
 0.167880600550482D+03 0.270187222437564D+02 -.449217262103156D+02 0.159486435798756D+03
0.131791498458D-03 0.000000000000D+00 0.000000000000D+00 0.155583451893D-02 0.000000000000D+00  5 4 -4 25 23 21 0 0.38109773D-01 0.10125310D-01 0.16261047D+05 0.16261047D+05 0.16261047D+05 0.12438457D+01  1  2  2  1  5  1        4 0.106953056334D-01 0.100000000000D+01
-.732173503613D-05 0.000000000000D+00 -.506114055578D-06 0.155583451893D-02 0.000000000000D+00  5 4 -4 25 23 21 2 0.38109773D-01 0.10125310D-01 0.16261047D+05 0.16261047D+05 0.16261047D+05 0.12438457D+01  1  2  3  1  5  1        4 -.919290580858D-03 0.100000000000D+01
0.912341903360D-05 0.000000000000D+00 0.000000000000D+00 0.155583451893D-02 0.000000000000D+00  5 4 -4 25 23 21 2 0.38109773D-01 0.10125310D-01 0.16261047D+05 0.16261047D+05 0.16261047D+05 0.12438457D+01  1  2 15  1  5  1        4 0.114550350995D-02 0.100000000000D+01
0.368236257999D-03 0.000000000000D+00 0.000000000000D+00 0.155583451893D-02 0.000000000000D+00  5 4 -4 25 23 21 2 0.87385424D-01 0.10125310D-01 0.24458196D+05 0.24458196D+05 0.24458196D+05 0.12243191D+01  1  2 12  1  5  1        4 0.819091616500D-02 0.100000000000D+01
-.439080428999D-03 0.000000000000D+00 -.505457571927D-04 0.155583451893D-02 0.000000000000D+00  5 4 -4 25 23 21 2 0.90010893D-01 0.10125310D-01 0.16261047D+05 0.16261047D+05 0.16261047D+05 0.12438457D+01  1  2  5  1  5  1        4 -.911844891168D-02 0.100000000000D+01
0.332458359385D-04 0.000000000000D+00 0.000000000000D+00 0.155583451893D-02 0.000000000000D+00  5 21 -4 25 23 -4 2 0.87385424D-01 0.10125310D-01 0.24458196D+05 0.24458196D+05 0.24458196D+05 0.12243191D+01  1  2 12  3  5  1        4 0.174201340207D-01 0.100000000000D+01
-.380117541005D-04 0.000000000000D+00 -.474281118898D-05 0.155583451893D-02 0.000000000000D+00  5 21 -4 25 23 -4 2 0.90010893D-01 0.10125310D-01 0.16261047D+05 0.16261047D+05 0.16261047D+05 0.12438457D+01  1  2  5  3  5  1        4 -.190612064103D-01 0.100000000000D+01
  </mgrwgt>
  </event>
  <event>
  4     66 0.45228882E-03 0.13853457E+03 0.75467711E-02 0.12113750E+00
        2 -1    0    0  501    0 0.00000000E+00 0.00000000E+00 0.24530703E+03 0.24530724E+03 0.32000000E+00 0.0000E+00 0.9000E+01
       -2 -1    0    0    0  501 0.00000000E+00 0.00000000E+00 -.91814793E+02 0.91815351E+02 0.32000000E+00 0.0000E+00 0.9000E+01
       25  1    1    2    0    0 -.17019981E+02 0.84297265E+02 0.18399286E+02 0.15283731E+03 0.12500000E+03 0.0000E+00 0.9000E+01
       23  1    1    2    0    0 0.17019981E+02 -.84297265E+02 0.13509295E+03 0.18428528E+03 0.91188000E+02 0.0000E+00 0.9000E+01
#aMCatNLO 1  0  0  1  2 0.58191468D+01 0.00000000D+00  -5  5  0 0.00000000D+00 0.00000000D+00 0.00000000D+00 0.00000000D+00 0.00000000D+00
  <mgrwgt>
 0.9376520475D-01    6    2    0
 0.150076457804814D+03 0.000000000000000D+00 0.000000000000000D+00 0.150076457804814D+03
 0.150076457804814D+03 0.000000000000000D+00 0.000000000000000D+00 -.150076457804814D+03
 0.162253165535861D+03 -.170199805588948D+02 0.842972645833961D+02 -.574924444769858D+02
 0.137899750073768D+03 0.170199805588948D+02 -.842972645833961D+02 0.574924444769858D+02
 0.000000000000000D+00 0.000000000000000D+00 -.000000000000000D+00 -.000000000000000D+00
 0.150942232524179D+03 0.000000000000000D+00 0.000000000000000D+00 0.150942232524179D+03
 0.160211978210452D+03 0.000000000000000D+00 0.000000000000000D+00 -.160211978210452D+03
 0.163072872681762D+03 -.200380921653390D+02 0.852106536479813D+02 -.574924444769858D+02
 0.137136446325488D+03 0.144684173913946D+02 -.835250698475167D+02 0.574924444769858D+02
 0.109448917273807D+02 0.556967477394444D+01 -.168558380046460D+01 -.926974568627338D+01
0.289831424051D-03 0.000000000000D+00 0.000000000000D+00 0.118331067920D-02 0.000000000000D+00  5 2 -2 25 23 21 0 0.37739602D-01 0.14125412D-01 0.19191826D+05 0.19191826D+05 0.19191826D+05 0.12358031D+01  1  2  2  1  5  1        2 0.143132730512D+00 0.100000000000D+01
-.159763722523D-04 0.000000000000D+00 -.111302898272D-05 0.118331067920D-02 0.000000000000D+00  5 2 -2 25 23 21 2 0.37739602D-01 0.14125412D-01 0.19191826D+05 0.19191826D+05 0.19191826D+05 0.12358031D+01  1  2  3  1  5  1        2 -.120495325309D-01 0.100000000000D+01
0.200286788714D-04 0.000000000000D+00 0.000000000000D+00 0.118331067920D-02 0.000000000000D+00  5 2 -2 25 23 21 2 0.37739602D-01 0.14125412D-01 0.19191826D+05 0.19191826D+05 0.19191826D+05 0.12358031D+01  1  2 15  1  5  1        2 0.151058208835D-01 0.100000000000D+01
-.104108853566D-03 0.000000000000D+00 0.000000000000D+00 0.118331067920D-02 0.000000000000D+00  5 2 -2 25 23 21 2 0.37739602D-01 0.14125412D-01 0.19191826D+05 0.19191826D+05 0.19191826D+05 0.12358031D+01  1  2  4  1  5  1        2 -.785198916243D-01 0.100000000000D+01
0.329473389875D-04 0.000000000000D+00 0.000000000000D+00 0.118331067920D-02 0.284387325898D-03  5 2 -2 25 23 21 2 0.37957317D-01 0.15079381D-01 0.20011538D+05 0.20011538D+05 0.20011538D+05 0.12337985D+01  1  2 11  1  5  1        2 0.221551705134D-01 0.100000000000D+01
0.144126483013D-05 0.000000000000D+00 0.000000000000D+00 0.118331067920D-02 0.316268797759D-06  5 21 -2 25 23 -2 2 0.37957317D-01 0.15079381D-01 0.20011538D+05 0.20011538D+05 0.20011538D+05 0.12337985D+01  1  2 11  3  5  1        2 0.394090699184D-02 0.100000000000D+01
  </mgrwgt>
  </event>
  <event>
  5     66 0.45228882E-03 0.11369751E+03 0.75467711E-02 0.11069428E+00
        2 -1    0    0  501    0 0.00000000E+00 0.00000000E+00 0.11414424E+04 0.11414424E+04 0.32000000E+00 0.0000E+00 0.9000E+01
       21 -1    0    0  502  501 0.00000000E+00 0.00000000E+00 -.61817918E+02 0.61822467E+02 0.75000000E+00 0.0000E+00 0.9000E+01
       25  1    1    2    0    0 -.12954480E+03 -.10429093E+03 0.31894094E+03 0.38079755E+03 0.12500000E+03 0.0000E+00 0.9000E+01
       23  1    1    2    0    0 -.38539135E+02 -.23171637E+02 0.23640779E+03 0.25734429E+03 0.91188000E+02 0.0000E+00 0.9000E+01
        2  1    1    2  502    0 0.16808393E+03 0.12746257E+03 0.52427573E+03 0.56512305E+03 0.32000000E+00 0.0000E+00 0.9000E+01
#aMCatNLO 2  0  0  2  2 0.21094766D+03 0.00000000D+00  -5  5  0 0.00000000D+00 0.00000000D+00 0.00000000D+00 0.00000000D+00 0.00000000D+00
  <mgrwgt>
 0.3881994253D-01    1    2    0
 0.116526699185864D+03 0.000000000000000D+00 0.000000000000000D+00 0.116526699185864D+03
 0.116526699185864D+03 0.000000000000000D+00 0.000000000000000D+00 -.116526699185864D+03
 0.132209261008757D+03 -.245961336920106D+02 -.247055344828559D+02 -.252775685104974D+02
 0.100844137362971D+03 0.245961336920106D+02 0.247055344828559D+02 0.252775685104974D+02
 0.000000000000000D+00 0.000000000000000D+00 0.000000000000000D+00 0.000000000000000D+00
 0.300636898171564D+03 0.000000000000000D+00 0.000000000000000D+00 0.300636898171564D+03
 0.234716005979603D+03 0.000000000000000D+00 0.000000000000000D+00 -.234716005979603D+03
 0.209576735575274D+03 -.129544798784216D+03 -.104290928332922D+03 -.252775685104974D+02
 0.104768299109807D+03 -.385391350136764D+02 -.231716369071503D+02 0.252775685104974D+02
 0.221007869466085D+03 0.168083933797892D+03 0.127462565240072D+03 0.659208921919610D+02
0.115792846930D-04 0.000000000000D+00 0.000000000000D+00 0.167469820876D-02 0.938456242336D-07  5 2 21 25 23 2 2 0.17560679D+00 0.95107981D-02 0.67773693D+05 0.67773693D+05 0.67773693D+05 0.11794174D+01  1  2  1  4  5  2       -2 0.388199425313D-01 0.100000000000D+01
  </mgrwgt>
  </event>
  <event>
  4     66 0.45228882E-03 0.13723242E+03 0.75467711E-02 0.11214794E+00
        2 -1    0    0  501    0 0.00000000E+00 0.00000000E+00 0.64835997E+02 0.64836786E+02 0.32000000E+00 0.0000E+00 0.9000E+01
       -2 -1    0    0    0  501 0.00000000E+00 0.00000000E+00 -.29046544E+03 0.29046562E+03 0.32000000E+00 0.0000E+00 0.9000E+01
       25  1    1    2    0    0 0.33729920E+02 -.76825962E+02 -.12405607E+03 0.19507651E+03 0.12500000E+03 0.0000E+00 0.9000E+01
       23  1    1    2    0    0 -.33729920E+02 0.76825962E+02 -.10157338E+03 0.16022590E+03 0.91188000E+02 0.0000E+00 0.9000E+01
#aMCatNLO 1  0  0  2  1 0.15818480D+03 0.00000000D+00  -5  5  0 0.00000000D+00 0.00000000D+00 0.00000000D+00 0.00000000D+00 0.00000000D+00
  <mgrwgt>
 0.1449467230D+00    3    2    0
 0.137232606305047D+03 0.000000000000000D+00 0.000000000000000D+00 0.137232606305047D+03
 0.137232606305047D+03 0.000000000000000D+00 0.000000000000000D+00 -.137232606305047D+03
 0.150548954461679D+03 0.337299198917025D+02 -.768259622784073D+02 -.227406246205852D+00
 0.123916258148416D+03 -.337299198917025D+02 0.768259622784073D+02 0.227406246205852D+00
 0.000000000000000D+00 0.000000000000000D+00 0.000000000000000D+00 0.000000000000000D+00
 0.271223399188249D+03 0.000000000000000D+00 0.000000000000000D+00 0.271223399188249D+03
 0.213835830612196D+03 0.000000000000000D+00 0.000000000000000D+00 -.213835830612196D+03
 0.190898061170931D+03 -.314746858033285D+02 -.140806115629973D+03 -.227406246205852D+00
 0.125888278970527D+03 -.814339723447377D+02 0.300177259751102D+02 0.227406246205852D+00
 0.168272889658988D+03 0.112908658148066D+03 0.110788389654863D+03 0.573875685760527D+02
0.478985079458D-03 0.000000000000D+00 0.000000000000D+00 0.145147393993D-02 0.000000000000D+00  5 2 -2 25 23 21 0 0.99748430D-02 0.44687066D-01 0.18832736D+05 0.18832736D+05 0.18832736D+05 0.12367117D+01  1  2  2  2  5  2       -2 0.142028214574D+00 0.100000000000D+01
-.266102821921D-04 0.000000000000D+00 -.183942882479D-05 0.145147393993D-02 0.000000000000D+00  5 2 -2 25 23 21 2 0.99748430D-02 0.44687066D-01 0.18832736D+05 0.18832736D+05 0.18832736D+05 0.12367117D+01  1  2  3  2  5  2       -2 -.120681035876D-01 0.100000000000D+01
0.330456207441D-04 0.000000000000D+00 0.000000000000D+00 0.145147393993D-02 0.000000000000D+00  5 2 -2 25 23 21 2 0.99748430D-02 0.44687066D-01 0.18832736D+05 0.18832736D+05 0.18832736D+05 0.12367117D+01  1  2 15  2  5  2       -2 0.149866119938D-01 0.100000000000D+01
  </mgrwgt>
  </event>
  <event>
  4     66 0.45228882E-03 0.52807463E+02 0.75467711E-02 0.12099993E+00
        4 -1    0    0  501    0 0.00000000E+00 0.00000000E+00 0.10589941E+03 0.10591075E+03 0.15500000E+01 0.0000E+00 0.9000E+01
       -4 -1    0    0    0  501 0.00000000E+00 0.00000000E+00 -.12446717E+03 0.12447682E+03 0.15500000E+01 0.0000E+00 0.9000E+01
       25  1    1    2    0    0 -.15440374E+02 -.34839761E+02 -.67648755E+01 0.13085480E+03 0.12500000E+03 0.0000E+00 0.9000E+01
       23  1    1    2    0    0 0.15440374E+02 0.34839761E+02 -.11802888E+02 0.99532777E+02 0.91188000E+02 0.0000E+00 0.9000E+01
#aMCatNLO 1  0  0  2  1 0.50092633D+02 0.00000000D+00  -5  5  0 0.00000000D+00 0.00000000D+00 0.00000000D+00 0.00000000D+00 0.00000000D+00
  <mgrwgt>
 0.1124182804D-01    7    2    0
 0.114819066132857D+03 0.000000000000000D+00 0.000000000000000D+00 0.114819066132857D+03
 0.114819066132857D+03 0.000000000000000D+00 0.000000000000000D+00 -.114819066132857D+03
 0.130734865011464D+03 -.154403736047263D+02 -.348397613796107D+02 0.379352336540471D+01
 0.989032672542501D+02 0.154403736047263D+02 0.348397613796107D+02 -.379352336540471D+01
 0.000000000000000D+00 0.000000000000000D+00 -.000000000000000D+00 -.000000000000000D+00
 0.120373202739211D+03 0.000000000000000D+00 0.000000000000000D+00 0.120373202739211D+03
 0.337313282604691D+03 0.000000000000000D+00 0.000000000000000D+00 -.337313282604691D+03
 0.128193006975666D+03 -.266137386153994D+02 -.926094675777815D+01 0.379352336540471D+01
 0.106845167947981D+03 0.656183013527840D+01 0.551651170177693D+02 -.379352336540471D+01
 0.222648310420255D+03 0.200519084801210D+02 -.459041702599911D+02 -.216940079865480D+03
0.153015474847D-03 0.000000000000D+00 0.000000000000D+00 0.176686515468D-02 0.000000000000D+00  5 4 -4 25 23 21 0 0.16293831D-01 0.19150410D-01 0.13168745D+05 0.13168745D+05 0.13168745D+05 0.12543209D+01  1  2  2  2  5  2       -4 0.193053203989D-01 0.100000000000D+01
-.850085650927D-05 0.000000000000D+00 -.587619713312D-06 0.176686515468D-02 0.000000000000D+00  5 4 -4 25 23 21 2 0.16293831D-01 0.19150410D-01 0.13168745D+05 0.13168745D+05 0.13168745D+05 0.12543209D+01  1  2  3  2  5  2       -4 -.168741414653D-02 0.100000000000D+01
0.105774882853D-04 0.000000000000D+00 0.000000000000D+00 0.176686515468D-02 0.000000000000D+00  5 4 -4 25 23 21 2 0.16293831D-01 0.19150410D-01 0.13168745D+05 0.13168745D+05 0.13168745D+05 0.12543209D+01  1  2 15  2  5  2       -4 0.209962411998D-02 0.100000000000D+01
0.440178602739D-03 0.000000000000D+00 0.000000000000D+00 0.176686515468D-02 0.000000000000D+00  5 4 -4 25 23 21 2 0.16293831D-01 0.55657700D-01 0.20307290D+05 0.20307290D+05 0.20307290D+05 0.12330977D+01  1  2 12  2  5  2       -4 0.114160420389D-01 0.100000000000D+01
-.551811422964D-03 0.000000000000D+00 -.429430249985D-04 0.176686515468D-02 0.000000000000D+00  5 4 -4 25 23 21 2 0.16293831D-01 0.57659840D-01 0.13168745D+05 0.13168745D+05 0.13168745D+05 0.12543209D+01  1  2  5  2  5  2       -4 -.132477736618D-01 0.100000000000D+01
0.531126677227D-04 0.000000000000D+00 0.000000000000D+00 0.176686515468D-02 0.000000000000D+00  5 4 21 25 23 4 2 0.16293831D-01 0.55657700D-01 0.20307290D+05 0.20307290D+05 0.20307290D+05 0.12330977D+01  1  2 12  4  5  2       -4 0.332353262043D-01 0.100000000000D+01
-.671193071855D-04 0.000000000000D+00 -.538929136288D-05 0.176686515468D-02 0.000000000000D+00  5 4 21 25 23 4 2 0.16293831D-01 0.57659840D-01 0.13168745D+05 0.13168745D+05 0.13168745D+05 0.12543209D+01  1  2  5  4  5  2       -4 -.398792969089D-01 0.100000000000D+01
  </mgrwgt>
  </event>
  <event>
  4     66 0.45228882E-03 0.14354499E+03 0.75467711E-02 0.10706077E+00
        2 -1    0    0  501    0 0.00000000E+00 0.00000000E+00 0.16188651E+04 0.16188652E+04 0.32000000E+00 0.0000E+00 0.9000E+01
       -2 -1    0    0    0  501 0.00000000E+00 0.00000000E+00 -.14409758E+02 0.14413311E+02 0.32000000E+00 0.0000E+00 0.9000E+01
       25  1    1    2    0    0 -.91251242E+02 -.21686898E+02 0.58692974E+03 0.60737849E+03 0.12500000E+03 0.0000E+00 0.9000E+01
       23  1    1    2    0    0 0.91251242E+02 0.21686898E+02 0.10175256E+04 0.10259000E+04 0.91188000E+02 0.0000E+00 0.9000E+01
#aMCatNLO 1  0  0  2  2 0.26966660D+03 0.00000000D+00  -5  5  0 0.00000000D+00 0.00000000D+00 0.00000000D+00 0.00000000D+00 0.00000000D+00
  <mgrwgt>
 0.2271292858D+00    5    2    0
 0.152742862593417D+03 0.000000000000000D+00 0.000000000000000D+00 0.152742862593417D+03
 0.152742862593417D+03 0.000000000000000D+00 0.000000000000000D+00 -.152742862593417D+03
 0.164707003719044D+03 -.912512418554779D+02 -.216868983274354D+02 -.520219797285134D+02
 0.140778721467789D+03 0.912512418554779D+02 0.216868983274354D+02 0.520219797285134D+02
 0.000000000000000D+00 -.000000000000000D+00 0.000000000000000D+00 -.000000000000000D+00
 0.268198060375968D+03 0.000000000000000D+00 0.000000000000000D+00 0.268198060375968D+03
 0.485789583267773D+03 0.000000000000000D+00 0.000000000000000D+00 -.485789583267773D+03
 0.147189919446016D+03 0.224303546237783D+02 -.532021165284078D+02 -.520219797285134D+02
 0.260292105893599D+03 0.237435344901501D+03 -.188387808298723D+02 0.520219797285134D+02
 0.346505618304125D+03 -.259865699525280D+03 0.720408973582801D+02 -.217591522891805D+03
0.245011767549D-03 0.000000000000D+00 0.000000000000D+00 0.120052529822D-02 0.000000000000D+00  5 2 -2 25 23 21 0 0.24905645D+00 0.22171616D-02 0.20605164D+05 0.20605164D+05 0.20605164D+05 0.12324033D+01  1  2  2  2  5  2       -2 0.188524708948D+00 0.100000000000D+01
-.135479264352D-04 0.000000000000D+00 -.940909700468D-06 0.120052529822D-02 0.000000000000D+00  5 2 -2 25 23 21 2 0.24905645D+00 0.22171616D-02 0.20605164D+05 0.20605164D+05 0.20605164D+05 0.12324033D+01  1  2  3  2  5  2       -2 -.158328791275D-01 0.100000000000D+01
0.169302731886D-04 0.000000000000D+00 0.000000000000D+00 0.120052529822D-02 0.000000000000D+00  5 2 -2 25 23 21 2 0.24905645D+00 0.22171616D-02 0.20605164D+05 0.20605164D+05 0.20605164D+05 0.12324033D+01  1  2 15  2  5  2       -2 0.197856823532D-01 0.100000000000D+01
0.140012126875D-03 0.000000000000D+00 -.107605129890D-03 0.120052529822D-02 0.000000000000D+00  5 2 -2 25 23 21 2 0.24905645D+00 0.14022562D-01 0.20605164D+05 0.20605164D+05 0.20605164D+05 0.12324033D+01  1  2  5  2  5  2       -2 0.988531688890D-02 0.100000000000D+01
0.236507700130D-04 0.000000000000D+00 -.243195206849D-04 0.120052529822D-02 0.000000000000D+00  5 2 21 25 23 2 2 0.24905645D+00 0.14022562D-01 0.20605164D+05 0.20605164D+05 0.20605164D+05 0.12324033D+01  1  2  5  4  5  2       -2 0.247664567494D-01 0.100000000000D+01
  </mgrwgt>
  </event>
  <event>
  4     66 0.45228882E-03 0.91462601E+02 0.75467711E-02 0.10921468E+00
        2 -1    0    0  501    0 0.00000000E+00 0.00000000E+00 0.41551685E+02 0.41552917E+02 0.32000000E+00 0.0000E+00 0.9000E+01
       -2 -1    0    0    0  501 0.00000000E+00 0.00000000E+00 -.10623990E+04 0.10623990E+04 0.32000000E+00 0.0000E+00 0.9000E+01
       25  1    1    2    0    0 -.32357241E+02 0.14362167E+03 -.80173117E+03 0.82466481E+03 0.12500000E+03 0.0000E+00 0.9000E+01
       23  1    1    2    0    0 0.32357241E+02 -.14362167E+03 -.21911610E+03 0.27928711E+03 0.91188000E+02 0.0000E+00 0.9000E+01
#aMCatNLO 1  0  0  2  1 0.16944936D+03 0.00000000D+00  -5  5  0 0.00000000D+00 0.00000000D+00 0.00000000D+00 0.00000000D+00 0.00000000D+00
  <mgrwgt>
 0.1094361841D+00    7    2    0
 0.210107528824215D+03 0.000000000000000D+00 0.000000000000000D+00 0.210107528824215D+03
 0.210107528824215D+03 0.000000000000000D+00 0.000000000000000D+00 -.210107528824215D+03
 0.218805157006444D+03 -.323572412340763D+02 0.143621670079504D+03 -.102842216797912D+03
 0.201409900641986D+03 0.323572412340763D+02 -.143621670079504D+03 0.102842216797912D+03
 0.000000000000000D+00 0.000000000000000D+00 0.000000000000000D+00 -.000000000000000D+00
 0.244003188386123D+03 0.000000000000000D+00 0.000000000000000D+00 0.244003188386123D+03
 0.637758100096682D+03 0.000000000000000D+00 0.000000000000000D+00 -.637758100096682D+03
 0.225824042246280D+03 -.112066414394374D+03 0.110616885082384D+03 -.102842216797912D+03
 0.227269524278966D+03 -.444925980673210D+02 -.175442504779483D+03 0.102842216797912D+03
 0.428667721957560D+03 0.156559012461694D+03 0.648256196970986D+02 -.393754911710559D+03
0.381239557105D-02 0.000000000000D+00 0.000000000000D+00 0.873359907193D-03 0.000000000000D+00  5 2 -2 25 23 21 0 0.63926654D-02 0.16344609D+00 0.33544746D+05 0.33544746D+05 0.33544746D+05 0.12098405D+01  1  2  2  2  5  2       -2 0.109100346586D+00 0.100000000000D+01
-.206945096444D-03 0.000000000000D+00 -.146406028196D-04 0.873359907193D-03 0.000000000000D+00  5 2 -2 25 23 21 2 0.63926654D-02 0.16344609D+00 0.33544746D+05 0.33544746D+05 0.33544746D+05 0.12098405D+01  1  2  3  2  5  2       -2 -.866841249347D-02 0.100000000000D+01
0.262867040290D-03 0.000000000000D+00 0.000000000000D+00 0.873359907193D-03 0.000000000000D+00  5 2 -2 25 23 21 2 0.63926654D-02 0.16344609D+00 0.33544746D+05 0.33544746D+05 0.33544746D+05 0.12098405D+01  1  2 15  2  5  2       -2 0.110108428531D-01 0.100000000000D+01
0.358967949453D-04 0.000000000000D+00 0.000000000000D+00 0.873359907193D-03 0.000000000000D+00  5 2 -2 25 23 21 2 0.63926654D-02 0.47988264D+00 0.82129825D+05 0.82129825D+05 0.82129825D+05 0.11715085D+01  1  2 12  2  5  2       -2 0.150907972900D-04 0.100000000000D+01
-.300441312706D-02 0.000000000000D+00 -.923116225173D-03 0.873359907193D-03 0.000000000000D+00  5 2 -2 25 23 21 2 0.63926654D-02 0.50999681D+00 0.33544746D+05 0.33544746D+05 0.33544746D+05 0.12098405D+01  1  2  5  2  5  2       -2 -.899250473615D-03 0.100000000000D+01
0.438108119871D-05 0.000000000000D+00 0.000000000000D+00 0.873359907193D-03 0.000000000000D+00  5 2 21 25 23 2 2 0.63926654D-02 0.47988264D+00 0.82129825D+05 0.82129825D+05 0.82129825D+05 0.11715085D+01  1  2 12  4  5  2       -2 0.191810546919D-04 0.100000000000D+01
-.349390744752D-03 0.000000000000D+00 -.120407144942D-03 0.873359907193D-03 0.000000000000D+00  5 2 21 25 23 2 2 0.63926654D-02 0.50999681D+00 0.33544746D+05 0.33544746D+05 0.33544746D+05 0.12098405D+01  1  2  5  4  5  2       -2 -.114161418286D-02 0.100000000000D+01
  </mgrwgt>
  </event>
  <event>
  4     66 0.45228882E-03 0.63829925E+02 0.75467711E-02 0.11987434E+00
        2 -1    0    0  501    0 0.00000000E+00 0.00000000E+00 0.11272821E+03 0.11272867E+03 0.32000000E+00 0.0000E+00 0.9000E+01
       -2 -1    0    0    0  501 0.00000000E+00 0.00000000E+00 -.19747576E+03 0.19747602E+03 0.32000000E+00 0.0000E+00 0.9000E+01
       25  1    1    2    0    0 0.86062805E+02 -.39764999E+02 -.62261913E+01 0.15700900E+03 0.12500000E+03 0.0000E+00 0.9000E+01
       23  1    1    2    0    0 -.86062805E+02 0.39764999E+02 -.78521353E+02 0.15319568E+03 0.91188000E+02 0.0000E+00 0.9000E+01
#aMCatNLO 1  0  0  1  2 0.14074313D+02 0.00000000D+00  -5  5  0 0.00000000D+00 0.00000000D+00 0.00000000D+00 0.00000000D+00 0.00000000D+00
  <mgrwgt>
 0.1703469668D+00    9    2    0
 0.149201874733344D+03 0.000000000000000D+00 0.000000000000000D+00 0.149201874733344D+03
 0.149201874733344D+03 0.000000000000000D+00 0.000000000000000D+00 -.149201874733344D+03
 0.161449959197872D+03 0.860628048044732D+02 -.397649989364357D+02 0.381186019387782D+02
 0.136953790268815D+03 -.860628048044732D+02 0.397649989364357D+02 -.381186019387782D+02
 0.000000000000000D+00 0.000000000000000D+00 0.000000000000000D+00 0.000000000000000D+00
 0.160767286382795D+03 0.000000000000000D+00 0.000000000000000D+00 0.160767286382795D+03
 0.153711907154596D+03 0.000000000000000D+00 0.000000000000000D+00 -.153711907154596D+03
 0.162635062360607D+03 0.845004376910088D+02 -.472420546261409D+02 0.381186019387782D+02
 0.136100412591112D+03 -.873791597063136D+02 0.334652894612067D+02 -.381186019387782D+02
 0.157437185856726D+02 0.287872201530476D+01 0.137767651649342D+02 0.705537922819942D+01
0.364635312728D-03 0.000000000000D+00 0.000000000000D+00 0.127962835475D-02 0.000000000000D+00  5 2 -2 25 23 21 0 0.17342857D-01 0.30380940D-01 0.20797615D+05 0.20797615D+05 0.20797615D+05 0.12319607D+01  1  2  2  1  5  1        2 0.115333311367D+00 0.100000000000D+01
-.202290390739D-04 0.000000000000D+00 -.140029561156D-05 0.127962835475D-02 0.000000000000D+00  5 2 -2 25 23 21 2 0.17342857D-01 0.30380940D-01 0.20797615D+05 0.20797615D+05 0.20797615D+05 0.12319607D+01  1  2  3  1  5  1        2 -.971102297851D-02 0.100000000000D+01
0.251726365797D-04 0.000000000000D+00 0.000000000000D+00 0.127962835475D-02 0.000000000000D+00  5 2 -2 25 23 21 2 0.17342857D-01 0.30380940D-01 0.20797615D+05 0.20797615D+05 0.20797615D+05 0.12319607D+01  1  2 15  1  5  1        2 0.120842147451D-01 0.100000000000D+01
0.122491258488D-02 0.000000000000D+00 0.000000000000D+00 0.127962835475D-02 0.000000000000D+00  5 2 -2 25 23 21 2 0.18934636D-01 0.30380940D-01 0.22926877D+05 0.22926877D+05 0.22926877D+05 0.12273489D+01  1  2 12  1  5  1        2 0.529044993398D+00 0.100000000000D+01
-.118903927612D-02 0.000000000000D+00 0.000000000000D+00 0.127962835475D-02 0.000000000000D+00  5 2 -2 25 23 21 2 0.17342857D-01 0.30380940D-01 0.20797615D+05 0.20797615D+05 0.20797615D+05 0.12319607D+01  1  2  4  1  5  1        2 -.570802581901D+00 0.100000000000D+01
-.337852120943D-02 0.000000000000D+00 -.609752424952D-03 0.127962835475D-02 0.000000000000D+00  5 2 -2 25 23 21 2 0.19216941D-01 0.30380940D-01 0.20797615D+05 0.20797615D+05 0.20797615D+05 0.12319607D+01  1  2  5  1  5  1        2 -.144203473281D+01 0.100000000000D+01
0.342623145266D-02 0.000000000000D+00 0.606556367757D-03 0.127962835475D-02 0.000000000000D+00  5 2 -2 25 23 21 2 0.17342857D-01 0.30380940D-01 0.20797615D+05 0.20797615D+05 0.20797615D+05 0.12319607D+01  1  2  6  1  5  1        2 0.164477473423D+01 0.100000000000D+01
0.177663157497D-04 0.000000000000D+00 0.000000000000D+00 0.127962835475D-02 0.000000000000D+00  5 21 -2 25 23 -2 2 0.18934636D-01 0.30380940D-01 0.22926877D+05 0.22926877D+05 0.22926877D+05 0.12273489D+01  1  2 12  3  5  1        2 0.547843613020D-01 0.100000000000D+01
-.539983124788D-04 0.000000000000D+00 -.101264129520D-04 0.127962835475D-02 0.000000000000D+00  5 21 -2 25 23 -2 2 0.19216941D-01 0.30380940D-01 0.20797615D+05 0.20797615D+05 0.20797615D+05 0.12319607D+01  1  2  5  3  5  1        2 -.163126310589D+00 0.100000000000D+01
  </mgrwgt>
  </event>
  <event>
  4     66 0.45228882E-03 0.61822322E+02 0.75467711E-02 0.12206092E+00
        2 -1    0    0  501    0 0.00000000E+00 0.00000000E+00 0.12357406E+04 0.12357406E+04 0.32000000E+00 0.0000E+00 0.9000E+01
       -2 -1    0    0    0  501 0.00000000E+00 0.00000000E+00 -.14651765E+02 0.14655259E+02 0.32000000E+00 0.0000E+00 0.9000E+01
       25  1    1    2    0    0 0.42256754E+02 0.12357264E+02 0.36453928E+03 0.38788171E+03 0.12500000E+03 0.0000E+00 0.9000E+01
       23  1    1    2    0    0 -.42256754E+02 -.12357264E+02 0.85654954E+03 0.86251417E+03 0.91188000E+02 0.0000E+00 0.9000E+01
#aMCatNLO 1  0  0  1  2 0.33235030D+02 0.00000000D+00  -5  5  0 0.00000000D+00 0.00000000D+00 0.00000000D+00 0.00000000D+00 0.00000000D+00
  <mgrwgt>
 0.3019896931D+00    9    2    0
 0.134565935807387D+03 0.000000000000000D+00 0.000000000000000D+00 0.134565935807387D+03
 0.134565935807387D+03 0.000000000000000D+00 0.000000000000000D+00 -.134565935807387D+03
 0.148146171793824D+03 0.422567535865171D+02 0.123572641369557D+02 -.662114266312322D+02
 0.120985699820951D+03 -.422567535865171D+02 -.123572641369557D+02 0.662114266312322D+02
 0.000000000000000D+00 -.000000000000000D+00 0.000000000000000D+00 0.000000000000000D+00
 0.153658904849695D+03 0.000000000000000D+00 0.000000000000000D+00 0.153658904849695D+03
 0.150869202148861D+03 0.000000000000000D+00 0.000000000000000D+00 -.150869202148861D+03
 0.148245497880971D+03 0.439797782622567D+02 -.579255810817557D+01 -.662114266312322D+02
 0.122930702335286D+03 -.408387853278480D+02 -.272937140940853D+02 0.662114266312322D+02
 0.333519067822988D+02 -.314099293440873D+01 0.330862722022609D+02 0.278970270083432D+01
0.125118464411D-03 0.000000000000D+00 0.000000000000D+00 0.119606862167D-02 0.000000000000D+00  5 2 -2 25 23 21 0 0.19011421D+00 0.22543897D-02 0.13664059D+05 0.13664059D+05 0.13664059D+05 0.12524675D+01  1  2  2  1  5  1        2 0.148189545453D+00 0.100000000000D+01
-.678349771727D-05 0.000000000000D+00 -.480487847788D-06 0.119606862167D-02 0.000000000000D+00  5 2 -2 25 23 21 2 0.19011421D+00 0.22543897D-02 0.13664059D+05 0.13664059D+05 0.13664059D+05 0.12524675D+01  1  2  3  1  5  1        2 -.126032566734D-01 0.100000000000D+01
0.857488336054D-05 0.000000000000D+00 0.000000000000D+00 0.119606862167D-02 0.000000000000D+00  5 2 -2 25 23 21 2 0.19011421D+00 0.22543897D-02 0.13664059D+05 0.13664059D+05 0.13664059D+05 0.12524675D+01  1  2 15  1  5  1        2 0.159315238895D-01 0.100000000000D+01
0.112782051160D-03 0.000000000000D+00 0.000000000000D+00 0.119606862167D-02 0.000000000000D+00  5 2 -2 25 23 21 2 0.22714377D+00 0.22543897D-02 0.18150673D+05 0.18150673D+05 0.18150673D+05 0.12384921D+01  1  2 12  1  5  1        2 0.153661972912D+00 0.100000000000D+01
-.101103563126D-03 0.000000000000D+00 0.000000000000D+00 0.119606862167D-02 0.000000000000D+00  5 2 -2 25 23 21 2 0.19011421D+00 0.22543897D-02 0.13664059D+05 0.13664059D+05 0.13664059D+05 0.12524675D+01  1  2  4  1  5  1        2 -.187843235124D+00 0.100000000000D+01
-.300704044540D-03 0.000000000000D+00 -.923496209278D-04 0.119606862167D-02 0.000000000000D+00  5 2 -2 25 23 21 2 0.23325339D+00 0.22543897D-02 0.13664059D+05 0.13664059D+05 0.13664059D+05 0.12524675D+01  1  2  5  1  5  1        2 -.397272463807D+00 0.100000000000D+01
0.314880350788D-03 0.000000000000D+00 0.904516574937D-04 0.119606862167D-02 0.000000000000D+00  5 2 -2 25 23 21 2 0.19011421D+00 0.22543897D-02 0.13664059D+05 0.13664059D+05 0.13664059D+05 0.12524675D+01  1  2  6  1  5  1        2 0.585025314046D+00 0.100000000000D+01
0.294803803499D-05 0.000000000000D+00 0.000000000000D+00 0.119606862167D-02 0.000000000000D+00  5 21 -2 25 23 -2 2 0.22714377D+00 0.22543897D-02 0.18150673D+05 0.18150673D+05 0.18150673D+05 0.12384921D+01  1  2 12  3  5  1        2 0.210936853190D-02 0.100000000000D+01
-.764804577394D-05 0.000000000000D+00 -.268814759981D-05 0.119606862167D-02 0.000000000000D+00  5 21 -2 25 23 -2 2 0.23325339D+00 0.22543897D-02 0.13664059D+05 0.13664059D+05 0.13664059D+05 0.12524675D+01  1  2  5  3  5  1        2 -.520907613581D-02 0.100000000000D+01
  </mgrwgt>
  </event>
  <event>
  4     66 0.45228882E-03 0.73927872E+02 0.75467711E-02 0.11889186E+00
        2 -1    0    0  501    0 0.00000000E+00 0.00000000E+00 0.17584224E+04 0.17584225E+04 0.32000000E+00 0.0000E+00 0.9000E+01
       -2 -1    0    0    0  501 0.00000000E+00 0.00000000E+00 -.11674462E+02 0.11678847E+02 0.32000000E+00 0.0000E+00 0.9000E+01
       25  1    1    2    0    0 0.59364192E+02 -.18136780E+01 0.13964042E+04 0.14032452E+04 0.12500000E+03 0.0000E+00 0.9000E+01
       23  1    1    2    0    0 -.59364192E+02 0.18136780E+01 0.35034379E+03 0.36685612E+03 0.91188000E+02 0.0000E+00 0.9000E+01
#aMCatNLO 1  0  0  1  2 0.65275770D+02 0.00000000D+00  -5  5  0 0.00000000D+00 0.00000000D+00 0.00000000D+00 0.00000000D+00 0.00000000D+00
  <mgrwgt>
 0.2115182281D+00    9    2    0
 0.143291806557894D+03 0.000000000000000D+00 0.000000000000000D+00 0.143291806557894D+03
 0.143291806557894D+03 0.000000000000000D+00 0.000000000000000D+00 -.143291806557894D+03
 0.156045063062212D+03 0.593641917300642D+02 -.181367795154735D+01 0.720948335084702D+02
 0.130538550053575D+03 -.593641917300642D+02 0.181367795154735D+01 -.720948335084702D+02
 0.000000000000000D+00 -.000000000000000D+00 0.000000000000000D+00 0.000000000000000D+00
 0.193522486512234D+03 0.000000000000000D+00 0.000000000000000D+00 0.193522486512234D+03
 0.169840160837776D+03 0.000000000000000D+00 0.000000000000000D+00 -.169840160837776D+03
 0.173083434614265D+03 0.947266947504132D+02 -.127304210817516D+02 0.720948335084702D+02
 0.120840183848096D+03 -.323553447307767D+02 -.652421161369474D+01 -.720948335084702D+02
 0.694390288876482D+02 -.623713500196365D+02 0.192546326954463D+02 0.236823256744577D+02
0.172742920367D-03 0.000000000000D+00 0.000000000000D+00 0.111082236439D-02 0.000000000000D+00  5 2 -2 25 23 21 0 0.27052687D+00 0.17964106D-02 0.15278952D+05 0.15278952D+05 0.15278952D+05 0.12469113D+01  1  2  2  1  5  1        2 0.152239730407D+00 0.100000000000D+01
-.934204814403D-05 0.000000000000D+00 -.663378298465D-06 0.111082236439D-02 0.000000000000D+00  5 2 -2 25 23 21 2 0.27052687D+00 0.17964106D-02 0.15278952D+05 0.15278952D+05 0.15278952D+05 0.12469113D+01  1  2  3  1  5  1        2 -.128009136124D-01 0.100000000000D+01
0.118110224602D-04 0.000000000000D+00 0.000000000000D+00 0.111082236439D-02 0.000000000000D+00  5 2 -2 25 23 21 2 0.27052687D+00 0.17964106D-02 0.15278952D+05 0.15278952D+05 0.15278952D+05 0.12469113D+01  1  2 15  1  5  1        2 0.161840183070D-01 0.100000000000D+01
0.603457475565D-04 0.000000000000D+00 0.000000000000D+00 0.111082236439D-02 0.000000000000D+00  5 2 -2 25 23 21 2 0.38334045D+00 0.17964106D-02 0.25537207D+05 0.25537207D+05 0.25537207D+05 0.12223089D+01  1  2 12  1  5  1        2 0.332440687657D-01 0.100000000000D+01
-.102940743466D-03 0.000000000000D+00 0.000000000000D+00 0.111082236439D-02 0.000000000000D+00  5 2 -2 25 23 21 2 0.27052687D+00 0.17964106D-02 0.15278952D+05 0.15278952D+05 0.15278952D+05 0.12469113D+01  1  2  4  1  5  1        2 -.141054246777D+00 0.100000000000D+01
-.166398467728D-03 0.000000000000D+00 -.718808036357D-04 0.111082236439D-02 0.000000000000D+00  5 2 -2 25 23 21 2 0.39177269D+00 0.17964106D-02 0.15278952D+05 0.15278952D+05 0.15278952D+05 0.12469113D+01  1  2  5  1  5  1        2 -.892937251363D-01 0.100000000000D+01
0.184858165628D-03 0.000000000000D+00 0.672190293771D-04 0.111082236439D-02 0.000000000000D+00  5 2 -2 25 23 21 2 0.27052687D+00 0.17964106D-02 0.15278952D+05 0.15278952D+05 0.15278952D+05 0.12469113D+01  1  2  6  1  5  1        2 0.253301350227D+00 0.100000000000D+01
0.259907290311D-05 0.000000000000D+00 0.000000000000D+00 0.111082236439D-02 0.000000000000D+00  5 21 -2 25 23 -2 2 0.38334045D+00 0.17964106D-02 0.25537207D+05 0.25537207D+05 0.25537207D+05 0.12223089D+01  1  2 12  3  5  1        2 0.308651594253D-03 0.100000000000D+01
-.528293811341D-05 0.000000000000D+00 -.323443169473D-05 0.111082236439D-02 0.000000000000D+00  5 21 -2 25 23 -2 2 0.39177269D+00 0.17964106D-02 0.15278952D+05 0.15278952D+05 0.15278952D+05 0.12469113D+01  1  2  5  3  5  1        2 -.610705630388D-03 0.100000000000D+01
  </mgrwgt>
  </event>
  <event>
  4     66 0.45228882E-03 0.10317827E+03 0.75467711E-02 0.11931446E+00
        2 -1    0    0  501    0 0.00000000E+00 0.00000000E+00 0.96326629E+01 0.96379767E+01 0.32000000E+00 0.0000E+00 0.9000E+01
       -2 -1    0    0    0  501 0.00000000E+00 0.00000000E+00 -.19607383E+04 0.19607384E+04 0.32000000E+00 0.0000E+00 0.9000E+01
       25  1    1    2    0    0 -.81136251E+02 0.77448113E+01 -.91686497E+03 0.92892919E+03 0.12500000E+03 0.0000E+00 0.9000E+01
       23  1    1    2    0    0 0.81136251E+02 -.77448113E+01 -.10342407E+04 0.10414472E+04 0.91188000E+02 0.0000E+00 0.9000E+01
#aMCatNLO 1  0  0  1  2 0.38130305D+02 0.00000000D+00  -5  5  0 0.00000000D+00 0.00000000D+00 0.00000000D+00 0.00000000D+00 0.00000000D+00
  <mgrwgt>
 0.6663126112D-01    9    2    0
 0.137449599166546D+03 0.000000000000000D+00 0.000000000000000D+00 0.137449599166546D+03
 0.137449599166546D+03 0.000000000000000D+00 0.000000000000000D+00 -.137449599166546D+03
 0.150744924690091D+03 -.811362508334780D+02 0.774481131014236D+01 0.213531969100262D+02
 0.124154273643001D+03 0.811362508334780D+02 -.774481131014236D+01 -.213531969100262D+02
 0.000000000000000D+00 0.000000000000000D+00 -.000000000000000D+00 0.000000000000000D+00
 0.185653242342325D+03 0.000000000000000D+00 0.000000000000000D+00 0.185653242342325D+03
 0.146517668426642D+03 0.000000000000000D+00 0.000000000000000D+00 -.146517668426642D+03
 0.163263056456096D+03 -.101858616984172D+03 0.140956990312571D+02 0.213531969100262D+02
 0.114268003733262D+03 0.654020210465829D+02 -.292266281473778D+01 -.213531969100262D+02
 0.546398505796100D+02 0.364565959375886D+02 -.111730362165193D+02 0.391355739156825D+02
0.184483610151D-02 0.000000000000D+00 0.000000000000D+00 0.142152271937D-02 0.000000000000D+00  5 2 -2 25 23 21 0 0.14823589D-02 0.30165246D+00 0.18432018D+05 0.18432018D+05 0.18432018D+05 0.12377488D+01  1  2  2  1  5  1        2 0.545019811784D-01 0.100000000000D+01
-.102471934166D-03 0.000000000000D+00 -.708465638629D-05 0.142152271937D-02 0.000000000000D+00  5 2 -2 25 23 21 2 0.14823589D-02 0.30165246D+00 0.18432018D+05 0.18432018D+05 0.18432018D+05 0.12377488D+01  1  2  3  1  5  1        2 -.463793264503D-02 0.100000000000D+01
0.127608656517D-03 0.000000000000D+00 0.000000000000D+00 0.142152271937D-02 0.000000000000D+00  5 2 -2 25 23 21 2 0.14823589D-02 0.30165246D+00 0.18432018D+05 0.18432018D+05 0.18432018D+05 0.12377488D+01  1  2 15  1  5  1        2 0.577563367633D-02 0.100000000000D+01
0.295681242387D-02 0.000000000000D+00 0.000000000000D+00 0.142152271937D-02 0.000000000000D+00  5 2 -2 25 23 21 2 0.20381761D-02 0.30165246D+00 0.24374405D+05 0.24374405D+05 0.24374405D+05 0.12244794D+01  1  2 12  1  5  1        2 0.847066872823D-01 0.100000000000D+01
-.311021128967D-02 0.000000000000D+00 0.000000000000D+00 0.142152271937D-02 0.000000000000D+00  5 2 -2 25 23 21 2 0.14823589D-02 0.30165246D+00 0.18432018D+05 0.18432018D+05 0.18432018D+05 0.12377488D+01  1  2  4  1  5  1        2 -.140769768725D+00 0.100000000000D+01
-.424532620077D-02 0.000000000000D+00 -.104502895963D-02 0.142152271937D-02 0.000000000000D+00  5 2 -2 25 23 21 2 0.21530682D-02 0.30165246D+00 0.18432018D+05 0.18432018D+05 0.18432018D+05 0.12377488D+01  1  2  5  1  5  1        2 -.115275132419D+00 0.100000000000D+01
0.439449490737D-02 0.000000000000D+00 0.976230329766D-03 0.142152271937D-02 0.000000000000D+00  5 2 -2 25 23 21 2 0.14823589D-02 0.30165246D+00 0.18432018D+05 0.18432018D+05 0.18432018D+05 0.12377488D+01  1  2  6  1  5  1        2 0.198897108318D+00 0.100000000000D+01
0.119316984522D-03 0.000000000000D+00 0.000000000000D+00 0.142152271937D-02 0.000000000000D+00  5 21 -2 25 23 -2 2 0.20381761D-02 0.30165246D+00 0.24374405D+05 0.24374405D+05 0.24374405D+05 0.12244794D+01  1  2 12  3  5  1        2 0.648309431559D-01 0.100000000000D+01
-.159718237800D-03 0.000000000000D+00 -.472946573077D-04 0.142152271937D-02 0.000000000000D+00  5 21 -2 25 23 -2 2 0.21530682D-02 0.30165246D+00 0.18432018D+05 0.18432018D+05 0.18432018D+05 0.12377488D+01  1  2  5  3  5  1        2 -.813982587065D-01 0.100000000000D+01
  </mgrwgt>
  </event>
  <event>
  4     66 0.45228882E-03 0.22815431E+02 0.75467711E-02 0.12286325E+00
        2 -1    0    0  501    0 0.00000000E+00 0.00000000E+00 0.25831464E+03 0.25831484E+03 0.32000000E+00 0.0000E+00 0.9000E+01
       -2 -1    0    0    0  501 0.00000000E+00 0.00000000E+00 -.61044107E+02 0.61044946E+02 0.32000000E+00 0.0000E+00 0.9000E+01
       25  1    1    2    0    0 -.45727923E+02 -.21643693E+01 0.16570770E+03 0.21255534E+03 0.12500000E+03 0.0000E+00 0.9000E+01
       23  1    1    2    0    0 0.45727923E+02 0.21643693E+01 0.31562833E+02 0.10680445E+03 0.91188000E+02 0.0000E+00 0.9000E+01
#aMCatNLO 1  0  0  2  1 0.22249910D+02 0.00000000D+00  -5  5  0 0.00000000D+00 0.00000000D+00 0.00000000D+00 0.00000000D+00 0.00000000D+00
  <mgrwgt>
 0.1355218529D+00    9    2    0
 0.125573693131851D+03 0.000000000000000D+00 0.000000000000000D+00 0.125573693131851D+03
 0.125573693131851D+03 0.000000000000000D+00 0.000000000000000D+00 -.125573693131851D+03
 0.140126400139370D+03 -.457279225775425D+02 -.216436934042091D+01 0.437570636368516D+02
 0.111020986124331D+03 0.457279225775425D+02 0.216436934042091D+01 -.437570636368516D+02
 0.000000000000000D+00 0.000000000000000D+00 -.000000000000000D+00 -.000000000000000D+00
 0.130924548139799D+03 0.000000000000000D+00 0.000000000000000D+00 0.130924548139799D+03
 0.151536626315899D+03 0.000000000000000D+00 0.000000000000000D+00 -.151536626315899D+03
 0.141602092962097D+03 -.491444345596334D+02 0.981308641257702D+01 0.437570636368516D+02
 0.110528960464475D+03 0.430411938096445D+02 0.115833835591594D+02 -.437570636368516D+02
 0.303301210291257D+02 0.610324074998893D+01 -.213964699717364D+02 -.206120781761002D+02
0.131977486873D-03 0.000000000000D+00 0.000000000000D+00 0.144001263209D-02 0.000000000000D+00  5 2 -2 25 23 21 0 0.39740794D-01 0.93914808D-02 0.13824283D+05 0.13824283D+05 0.13824283D+05 0.12518841D+01  1  2  2  2  5  2       -2 0.116713746775D+00 0.100000000000D+01
-.729348288103D-05 0.000000000000D+00 -.506828300064D-06 0.144001263209D-02 0.000000000000D+00  5 2 -2 25 23 21 2 0.39740794D-01 0.93914808D-02 0.13824283D+05 0.13824283D+05 0.13824283D+05 0.12518841D+01  1  2  3  2  5  2       -2 -.101084683759D-01 0.100000000000D+01
0.914094309515D-05 0.000000000000D+00 0.000000000000D+00 0.144001263209D-02 0.000000000000D+00  5 2 -2 25 23 21 2 0.39740794D-01 0.93914808D-02 0.13824283D+05 0.13824283D+05 0.13824283D+05 0.12518841D+01  1  2 15  2  5  2       -2 0.126689725212D-01 0.100000000000D+01
0.220549484721D-03 0.000000000000D+00 0.000000000000D+00 0.144001263209D-02 0.000000000000D+00  5 2 -2 25 23 21 2 0.39740794D-01 0.11504163D-01 0.16695257D+05 0.16695257D+05 0.16695257D+05 0.12425559D+01  1  2 12  2  5  2       -2 0.220350102464D+00 0.100000000000D+01
-.224740394702D-03 0.000000000000D+00 0.000000000000D+00 0.144001263209D-02 0.000000000000D+00  5 2 -2 25 23 21 2 0.39740794D-01 0.93914808D-02 0.13824283D+05 0.13824283D+05 0.13824283D+05 0.12518841D+01  1  2  4  2  5  2       -2 -.311480976880D+00 0.100000000000D+01
-.367445226252D-03 0.000000000000D+00 -.754083813831D-04 0.144001263209D-02 0.000000000000D+00  5 2 -2 25 23 21 2 0.39740794D-01 0.11788754D-01 0.13824283D+05 0.13824283D+05 0.13824283D+05 0.12518841D+01  1  2  5  2  5  2       -2 -.356185702591D+00 0.100000000000D+01
0.376719090511D-03 0.000000000000D+00 0.735007483337D-04 0.144001263209D-02 0.000000000000D+00  5 2 -2 25 23 21 2 0.39740794D-01 0.93914808D-02 0.13824283D+05 0.13824283D+05 0.13824283D+05 0.12518841D+01  1  2  6  2  5  2       -2 0.522117220971D+00 0.100000000000D+01
0.638154445682D-05 0.000000000000D+00 0.000000000000D+00 0.144001263209D-02 0.000000000000D+00  5 2 21 25 23 2 2 0.39740794D-01 0.11504163D-01 0.16695257D+05 0.16695257D+05 0.16695257D+05 0.12425559D+01  1  2 12  4  5  2       -2 0.982726466770D-01 0.100000000000D+01
-.105080368261D-04 0.000000000000D+00 -.237805999536D-05 0.144001263209D-02 0.000000000000D+00  5 2 21 25 23 2 2 0.39740794D-01 0.11788754D-01 0.13824283D+05 0.13824283D+05 0.13824283D+05 0.12518841D+01  1  2  5  4  5  2       -2 -.156825688662D+00 0.100000000000D+01
  </mgrwgt>
  </event>
  <event>
  4     66 0.45228882E-03 0.15624460E+03 0.75467711E-02 0.11917909E+00
        2 -1    0    0  501    0 0.00000000E+00 0.00000000E+00 0.67079544E+02 0.67080308E+02 0.32000000E+00 0.0000E+00 0.9000E+01
       -2 -1    0    0    0  501 0.00000000E+00 0.00000000E+00 -.43358909E+03 0.43358921E+03 0.32000000E+00 0.0000E+00 0.9000E+01
       25  1    1    2    0    0 0.11168853E+03 -.10233151E+02 -.94665010E+02 0.19278358E+03 0.12500000E+03 0.0000E+00 0.9000E+01
       23  1    1    2    0    0 -.11168853E+03 0.10233151E+02 -.27184454E+03 0.30788593E+03 0.91188000E+02 0.0000E+00 0.9000E+01
#aMCatNLO 1  0  0  2  1 0.20670272D+01 0.00000000D+00  -5  5  0 0.00000000D+00 0.00000000D+00 0.00000000D+00 0.00000000D+00 0.00000000D+00
  <mgrwgt>
 0.1535597727D+00    6    2    0
 0.170543775088273D+03 0.000000000000000D+00 0.000000000000000D+00 0.170543775088273D+03
 0.170543775088273D+03 0.000000000000000D+00 0.000000000000000D+00 -.170543775088273D+03
 0.181259130503938D+03 0.111688530729623D+03 -.102331508536659D+02 0.681969729394761D+02
 0.159828419672609D+03 -.111688530729623D+03 0.102331508536659D+02 -.681969729394761D+02
 0.000000000000000D+00 0.000000000000000D+00 -.000000000000000D+00 0.000000000000000D+00
 0.192002369266752D+03 0.000000000000000D+00 0.000000000000000D+00 0.192002369266752D+03
 0.170596691200054D+03 0.000000000000000D+00 0.000000000000000D+00 -.170596691200054D+03
 0.180615747351110D+03 0.110680357647316D+03 -.980201531087593D+01 0.681969729394761D+02
 0.160478065971108D+03 -.112580895457533D+03 0.106147620651589D+02 -.681969729394761D+02
 0.215052471445876D+02 0.190053781021624D+01 -.812746754282979D+00 0.214056780666984D+02
0.999286116868D-03 0.000000000000D+00 0.000000000000D+00 0.106461180614D-02 0.000000000000D+00  5 2 -2 25 23 21 0 0.10319998D-01 0.66706082D-01 0.24412374D+05 0.24412374D+05 0.24412374D+05 0.12244067D+01  1  2  2  2  5  2       -2 0.127458243755D+00 0.100000000000D+01
-.549982855336D-04 0.000000000000D+00 -.383752180685D-05 0.106461180614D-02 0.000000000000D+00  5 2 -2 25 23 21 2 0.10319998D-01 0.66706082D-01 0.24412374D+05 0.24412374D+05 0.24412374D+05 0.12244067D+01  1  2  3  2  5  2       -2 -.105166790600D-01 0.100000000000D+01
0.688331313846D-04 0.000000000000D+00 0.000000000000D+00 0.106461180614D-02 0.000000000000D+00  5 2 -2 25 23 21 2 0.10319998D-01 0.66706082D-01 0.24412374D+05 0.24412374D+05 0.24412374D+05 0.12244067D+01  1  2 15  2  5  2       -2 0.131621548644D-01 0.100000000000D+01
-.259489842214D-04 0.000000000000D+00 0.000000000000D+00 0.106461180614D-02 0.000000000000D+00  5 2 -2 25 23 21 2 0.10319998D-01 0.66706082D-01 0.24412374D+05 0.24412374D+05 0.24412374D+05 0.12244067D+01  1  2  4  2  5  2       -2 -.496192083704D-02 0.100000000000D+01
0.260822252725D-04 0.000000000000D+00 0.000000000000D+00 0.106461180614D-02 0.200351492735D-02  5 2 -2 25 23 21 2 0.11618507D-01 0.66726779D-01 0.24740082D+05 0.24740082D+05 0.24740082D+05 0.12237846D+01  1  2 11  2  5  2       -2 0.431009591397D-02 0.100000000000D+01
0.120639385382D-04 0.000000000000D+00 0.000000000000D+00 0.106461180614D-02 0.123656795475D-06  5 2 21 25 23 2 2 0.11618507D-01 0.66726779D-01 0.24740082D+05 0.24740082D+05 0.24740082D+05 0.12237846D+01  1  2 11  4  5  2       -2 0.241078780725D-01 0.100000000000D+01
  </mgrwgt>
  </event>
  <event>
  4     66 0.45228882E-03 0.84272296E+02 0.75467711E-02 0.12394883E+00
        2 -1    0    0  501    0 0.00000000E+00 0.00000000E+00 0.18305824E+04 0.18305824E+04 0.32000000E+00 0.0000E+00 0.9000E+01
       -2 -1    0    0    0  501 0.00000000E+00 0.00000000E+00 -.93424249E+01 0.93479036E+01 0.32000000E+00 0.0000E+00 0.9000E+01
       25  1    1    2    0    0 0.18460617E+02 -.46757182E+02 0.63536219E+03 0.64948991E+03 0.12500000E+03 0.0000E+00 0.9000E+01
       23  1    1    2    0    0 -.18460617E+02 0.46757182E+02 0.11858777E+04 0.11904404E+04 0.91188000E+02 0.0000E+00 0.9000E+01
#aMCatNLO 1  0  0  1  2 0.54683981D+01 0.00000000D+00  -5  5  0 0.00000000D+00 0.00000000D+00 0.00000000D+00 0.00000000D+00 0.00000000D+00
  <mgrwgt>
 0.3278225498D+00   11    2    0
 0.130794281855102D+03 0.000000000000000D+00 0.000000000000000D+00 0.130794281855102D+03
 0.130794281855102D+03 0.000000000000000D+00 0.000000000000000D+00 -.130794281855102D+03
 0.144766124798699D+03 0.184606174517311D+02 -.467571822036688D+02 -.529641615142378D+02
 0.116822438911506D+03 -.184606174517311D+02 0.467571822036688D+02 0.529641615142378D+02
 0.000000000000000D+00 -.000000000000000D+00 -.000000000000000D+00 0.000000000000000D+00
 0.139996578380254D+03 0.000000000000000D+00 0.000000000000000D+00 0.139996578380254D+03
 0.131637776904848D+03 0.000000000000000D+00 0.000000000000000D+00 -.131637776904848D+03
 0.143885255842905D+03 0.188903580053910D+02 -.437712099273041D+02 -.529641615142378D+02
 0.117760458897089D+03 -.181113733768913D+02 0.491838396747289D+02 0.529641615142378D+02
 0.998864054510920D+01 -.778984628499694D+00 -.541262974742483D+01 0.835880147540617D+01
0.107730595598D-03 0.000000000000D+00 0.000000000000D+00 0.132622872372D-02 0.000000000000D+00  5 2 -2 25 23 21 0 0.28162848D+00 0.14377197D-02 0.14263015D+05 0.14263015D+05 0.14263015D+05 0.12503246D+01  1  2  2  1  5  1        2 0.120093425699D+00 0.100000000000D+01
-.592488780577D-05 0.000000000000D+00 -.413713853214D-06 0.132622872372D-02 0.000000000000D+00  5 2 -2 25 23 21 2 0.28162848D+00 0.14377197D-02 0.14263015D+05 0.14263015D+05 0.14263015D+05 0.12503246D+01  1  2  3  1  5  1        2 -.103253756320D-01 0.100000000000D+01
0.744547242566D-05 0.000000000000D+00 0.000000000000D+00 0.132622872372D-02 0.000000000000D+00  5 2 -2 25 23 21 2 0.28162848D+00 0.14377197D-02 0.14263015D+05 0.14263015D+05 0.14263015D+05 0.12503246D+01  1  2 15  1  5  1        2 0.129753173516D-01 0.100000000000D+01
0.581985438523D-03 0.000000000000D+00 0.000000000000D+00 0.132622872372D-02 0.000000000000D+00  5 2 -2 25 23 21 2 0.30231335D+00 0.14377197D-02 0.14936323D+05 0.14936323D+05 0.14936323D+05 0.12480332D+01  1  2 12  1  5  1        2 0.864168966421D+00 0.100000000000D+01
-.106669728038D-02 0.000000000000D+00 0.000000000000D+00 0.132622872372D-02 0.000000000000D+00  5 2 -2 25 23 21 2 0.28162848D+00 0.14377197D-02 0.14263015D+05 0.14263015D+05 0.14263015D+05 0.12503246D+01  1  2  4  1  5  1        2 -.185894661073D+01 0.100000000000D+01
-.192781212163D-02 0.000000000000D+00 -.188566127871D-03 0.132622872372D-02 0.000000000000D+00  5 2 -2 25 23 21 2 0.30215133D+00 0.14377197D-02 0.14263015D+05 0.14263015D+05 0.14263015D+05 0.12503246D+01  1  2  5  1  5  1        2 -.287439729813D+01 0.100000000000D+01
0.193674812449D-02 0.000000000000D+00 0.188100611799D-03 0.132622872372D-02 0.000000000000D+00  5 2 -2 25 23 21 2 0.28162848D+00 0.14377197D-02 0.14263015D+05 0.14263015D+05 0.14263015D+05 0.12503246D+01  1  2  6  1  5  1        2 0.337519503245D+01 0.100000000000D+01
0.475242405017D-03 0.000000000000D+00 0.000000000000D+00 0.132622872372D-02 0.369406891302D-03  5 2 -2 25 23 21 2 0.30144302D+00 0.14469916D-02 0.14936323D+05 0.14936323D+05 0.14936323D+05 0.12480332D+01  1  2 11  1  5  1        2 0.703832689504D+00 0.100000000000D+01
0.806017592759D-05 0.000000000000D+00 0.000000000000D+00 0.132622872372D-02 0.000000000000D+00  5 21 -2 25 23 -2 2 0.30231335D+00 0.14377197D-02 0.14936323D+05 0.14936323D+05 0.14936323D+05 0.12480332D+01  1  2 12  3  5  1        2 0.422569077010D-02 0.100000000000D+01
-.226288123083D-04 0.000000000000D+00 -.224469295847D-05 0.132622872372D-02 0.000000000000D+00  5 21 -2 25 23 -2 2 0.30215133D+00 0.14377197D-02 0.14263015D+05 0.14263015D+05 0.14263015D+05 0.12503246D+01  1  2  5  3  5  1        2 -.119653935951D-01 0.100000000000D+01
0.564642976053D-05 0.000000000000D+00 0.000000000000D+00 0.132622872372D-02 0.426513261617D-05  5 21 -2 25 23 -2 2 0.30144302D+00 0.14469916D-02 0.14936323D+05 0.14936323D+05 0.14936323D+05 0.12480332D+01  1  2 11  3  5  1        2 0.296610571394D-02 0.100000000000D+01
  </mgrwgt>
  </event>
  <event>
  4     66 0.45228882E-03 0.94807707E+02 0.75467711E-02 0.11645172E+00
        2 -1    0    0  501    0 0.00000000E+00 0.00000000E+00 0.77550415E+02 0.77551075E+02 0.32000000E+00 0.0000E+00 0.9000E+01
       -2 -1    0    0    0  501 0.00000000E+00 0.00000000E+00 -.26024911E+03 0.26024930E+03 0.32000000E+00 0.0000E+00 0.9000E+01
       25  1    1    2    0    0 0.49380305E+02 0.73614018E+02 -.12674381E+03 0.19886284E+03 0.12500000E+03 0.0000E+00 0.9000E+01
       23  1    1    2    0    0 -.49380305E+02 -.73614018E+02 -.55954884E+02 0.13893753E+03 0.91188000E+02 0.0000E+00 0.9000E+01
#aMCatNLO 1  0  0  2  1 0.76250714D+02 0.00000000D+00  -5  5  0 0.00000000D+00 0.00000000D+00 0.00000000D+00 0.00000000D+00 0.00000000D+00
  <mgrwgt>
 0.1461737829D+00    9    2    0
 0.142065375816285D+03 0.000000000000000D+00 0.000000000000000D+00 0.142065375816285D+03
 0.142065375816285D+03 0.000000000000000D+00 0.000000000000000D+00 -.142065375816285D+03
 0.154928729420215D+03 0.493803046669479D+02 0.736140175955692D+02 -.228138800777244D+02
 0.129202022212356D+03 -.493803046669479D+02 -.736140175955692D+02 0.228138800777244D+02
 0.000000000000000D+00 0.000000000000000D+00 0.000000000000000D+00 -.000000000000000D+00
 0.169965293259905D+03 0.000000000000000D+00 0.000000000000000D+00 0.169965293259905D+03
 0.210640335346371D+03 0.000000000000000D+00 0.000000000000000D+00 -.210640335346371D+03
 0.145324008078152D+03 0.997478225240803D+01 0.698147399817191D+02 -.228138800777244D+02
 0.148860382101988D+03 -.858735416550347D+02 -.771325076408784D+02 0.228138800777244D+02
 0.864212384261355D+02 0.758987594026267D+02 0.731776765915936D+01 -.406750420864652D+02
0.421153477118D-03 0.000000000000D+00 0.000000000000D+00 0.137821199039D-02 0.000000000000D+00  5 2 -2 25 23 21 0 0.11930899D-01 0.40038390D-01 0.19657680D+05 0.19657680D+05 0.19657680D+05 0.12346523D+01  1  2  2  2  5  2       -2 0.124097567224D+00 0.100000000000D+01
-.233924769039D-04 0.000000000000D+00 -.161734024439D-05 0.137821199039D-02 0.000000000000D+00  5 2 -2 25 23 21 2 0.11930899D-01 0.40038390D-01 0.19657680D+05 0.19657680D+05 0.19657680D+05 0.12346523D+01  1  2  3  2  5  2       -2 -.105072351381D-01 0.100000000000D+01
0.289909849133D-04 0.000000000000D+00 0.000000000000D+00 0.137821199039D-02 0.000000000000D+00  5 2 -2 25 23 21 2 0.11930899D-01 0.40038390D-01 0.19657680D+05 0.19657680D+05 0.19657680D+05 0.12346523D+01  1  2 15  2  5  2       -2 0.130219256652D-01 0.100000000000D+01
0.107709331249D-03 0.000000000000D+00 0.000000000000D+00 0.137821199039D-02 0.000000000000D+00  5 2 -2 25 23 21 2 0.11930899D-01 0.61771967D-01 0.33649247D+05 0.33649247D+05 0.33649247D+05 0.12097006D+01  1  2 12  2  5  2       -2 0.199003822015D-01 0.100000000000D+01
-.198596586280D-03 0.000000000000D+00 0.000000000000D+00 0.137821199039D-02 0.000000000000D+00  5 2 -2 25 23 21 2 0.11930899D-01 0.40038390D-01 0.19657680D+05 0.19657680D+05 0.19657680D+05 0.12346523D+01  1  2  4  2  5  2       -2 -.892039367286D-01 0.100000000000D+01
-.248068108263D-03 0.000000000000D+00 -.126725840192D-03 0.137821199039D-02 0.000000000000D+00  5 2 -2 25 23 21 2 0.11930899D-01 0.69067297D-01 0.19657680D+05 0.19657680D+05 0.19657680D+05 0.12346523D+01  1  2  5  2  5  2       -2 -.374124595084D-01 0.100000000000D+01
0.289769515037D-03 0.000000000000D+00 0.109970324444D-03 0.137821199039D-02 0.000000000000D+00  5 2 -2 25 23 21 2 0.11930899D-01 0.40038390D-01 0.19657680D+05 0.19657680D+05 0.19657680D+05 0.12346523D+01  1  2  6  2  5  2       -2 0.130156222568D+00 0.100000000000D+01
0.544281495602D-05 0.000000000000D+00 0.000000000000D+00 0.137821199039D-02 0.000000000000D+00  5 2 21 25 23 2 2 0.11930899D-01 0.61771967D-01 0.33649247D+05 0.33649247D+05 0.33649247D+05 0.12097006D+01  1  2 12  4  5  2       -2 0.121161839090D-01 0.100000000000D+01
-.873241555263D-05 0.000000000000D+00 -.766475032991D-05 0.137821199039D-02 0.000000000000D+00  5 2 21 25 23 2 2 0.11930899D-01 0.69067297D-01 0.19657680D+05 0.19657680D+05 0.19657680D+05 0.12346523D+01  1  2  5  4  5  2       -2 -.159948673237D-01 0.100000000000D+01
  </mgrwgt>
  </event>
  <event>
  4     66 0.45228882E-03 0.11486316E+03 0.75467711E-02 0.11485971E+00
        2 -1    0    0  501    0 0.00000000E+00 0.00000000E+00 0.37856988E+03 0.37857001E+03 0.32000000E+00 0.0000E+00 0.9000E+01
       -2 -1    0    0    0  501 0.00000000E+00 0.00000000E+00 -.37702635E+02 0.37703993E+02 0.32000000E+00 0.0000E+00 0.9000E+01
       25  1    1    2    0    0 -.11027259E+01 -.38409920E+02 0.13551543E+03 0.18832411E+03 0.12500000E+03 0.0000E+00 0.9000E+01
       23  1    1    2    0    0 0.11027259E+01 0.38409920E+02 0.20535181E+03 0.22794990E+03 0.91188000E+02 0.0000E+00 0.9000E+01
#aMCatNLO 1  0  0  1  1 0.13592755D+03 0.00000000D+00  -5  5  0 0.00000000D+00 0.00000000D+00 0.00000000D+00 0.00000000D+00 0.00000000D+00
  <mgrwgt>
 0.1639638457D+00    3    2    0
 0.119471305071082D+03 0.000000000000000D+00 0.000000000000000D+00 0.119471305071082D+03
 0.119471305071082D+03 0.000000000000000D+00 0.000000000000000D+00 -.119471305071082D+03
 0.134767339235208D+03 -.110272587505973D+01 -.384099197447271D+02 -.325683555830756D+02
 0.104175270906955D+03 0.110272587505973D+01 0.384099197447271D+02 0.325683555830756D+02
 0.000000000000000D+00 -.000000000000000D+00 0.000000000000000D+00 -.000000000000000D+00
 0.181907989762976D+03 0.000000000000000D+00 0.000000000000000D+00 0.181907989762976D+03
 0.241347088973186D+03 0.000000000000000D+00 0.000000000000000D+00 -.241347088973186D+03
 0.162060523409088D+03 0.725136376053990D+02 -.657243320504264D+02 -.325683555830756D+02
 0.112839221205248D+03 0.549245524028604D+02 0.184400177919308D+02 0.325683555830756D+02
 0.148355334121826D+03 -.127438190008259D+03 0.472843142584956D+02 -.594390992102094D+02
0.130221374189D-03 0.000000000000D+00 0.000000000000D+00 0.158840341069D-02 0.000000000000D+00  5 2 -2 25 23 21 0 0.58241635D-01 0.58005203D-02 0.13193545D+05 0.13193545D+05 0.13193545D+05 0.12542263D+01  1  2  2  1  5  1        2 0.160545021672D+00 0.100000000000D+01
-.722091125300D-05 0.000000000000D+00 -.500084364961D-06 0.158840341069D-02 0.000000000000D+00  5 2 -2 25 23 21 2 0.58241635D-01 0.58005203D-02 0.13193545D+05 0.13193545D+05 0.13193545D+05 0.12542263D+01  1  2  3  1  5  1        2 -.140042021152D-01 0.100000000000D+01
0.898374107256D-05 0.000000000000D+00 0.000000000000D+00 0.158840341069D-02 0.000000000000D+00  5 2 -2 25 23 21 2 0.58241635D-01 0.58005203D-02 0.13193545D+05 0.13193545D+05 0.13193545D+05 0.12542263D+01  1  2 15  1  5  1        2 0.174230261698D-01 0.100000000000D+01
  </mgrwgt>
  </event>
  <event>
  4     66 0.45228882E-03 0.11056566E+03 0.75467711E-02 0.11453582E+00
        2 -1    0    0  501    0 0.00000000E+00 0.00000000E+00 0.75347183E+02 0.75347862E+02 0.32000000E+00 0.0000E+00 0.9000E+01
       -2 -1    0    0    0  501 0.00000000E+00 0.00000000E+00 -.17209801E+03 0.17209831E+03 0.32000000E+00 0.0000E+00 0.9000E+01
       25  1    1    2    0    0 -.21333528E+02 -.85263168E+01 -.25901514E+02 0.12970623E+03 0.12500000E+03 0.0000E+00 0.9000E+01
       23  1    1    2    0    0 0.21333528E+02 0.85263168E+01 -.70849317E+02 0.11773994E+03 0.91188000E+02 0.0000E+00 0.9000E+01
#aMCatNLO 1  0  0  2  1 0.14574358D+03 0.00000000D+00  -5  5  0 0.00000000D+00 0.00000000D+00 0.00000000D+00 0.00000000D+00 0.00000000D+00
  <mgrwgt>
 0.1499738942D+00    5    2    0
 0.113873708214802D+03 0.000000000000000D+00 0.000000000000000D+00 0.113873708214802D+03
 0.113873708214802D+03 0.000000000000000D+00 0.000000000000000D+00 -.113873708214802D+03
 0.129921637035675D+03 -.213335281452773D+02 -.852631682415538D+01 0.269594931020325D+02
 0.978257793939295D+02 0.213335281452773D+02 0.852631682415538D+01 -.269594931020325D+02
 0.000000000000000D+00 0.000000000000000D+00 -.000000000000000D+00 -.000000000000000D+00
 0.188707492319994D+03 0.000000000000000D+00 0.000000000000000D+00 0.188707492319994D+03
 0.234427954190467D+03 0.000000000000000D+00 0.000000000000000D+00 -.234427954190467D+03
 0.156027513811269D+03 -.615627420210277D+02 0.648290027122095D+02 0.269594931020325D+02
 0.114361238817921D+03 -.851834206318246D+01 0.629592342722298D+02 -.269594931020325D+02
 0.152746693881271D+03 0.700810840842102D+02 -.127788236984439D+03 -.457204618704729D+02
0.216216663878D-03 0.000000000000D+00 0.000000000000D+00 0.171518267667D-02 0.000000000000D+00  5 2 -2 25 23 21 0 0.11591949D-01 0.26476693D-01 0.12224766D+05 0.12224766D+05 0.12224766D+05 0.12580807D+01  1  2  2  2  5  2       -2 0.137837053722D+00 0.100000000000D+01
-.119993438436D-04 0.000000000000D+00 -.830328920448D-06 0.171518267667D-02 0.000000000000D+00  5 2 -2 25 23 21 2 0.11591949D-01 0.26476693D-01 0.12224766D+05 0.12224766D+05 0.12224766D+05 0.12580807D+01  1  2  3  2  5  2       -2 -.121074111461D-01 0.100000000000D+01
0.148262081205D-04 0.000000000000D+00 0.000000000000D+00 0.171518267667D-02 0.000000000000D+00  5 2 -2 25 23 21 2 0.11591949D-01 0.26476693D-01 0.12224766D+05 0.12224766D+05 0.12224766D+05 0.12580807D+01  1  2 15  2  5  2       -2 0.149597344481D-01 0.100000000000D+01
0.222063307835D-04 0.000000000000D+00 -.615744421130D-04 0.171518267667D-02 0.000000000000D+00  5 2 -2 25 23 21 2 0.11591949D-01 0.85101899D-01 0.12224766D+05 0.12224766D+05 0.12224766D+05 0.12580807D+01  1  2  5  2  5  2       -2 0.227257493598D-02 0.100000000000D+01
0.561966920879D-05 0.000000000000D+00 -.828621918554D-05 0.171518267667D-02 0.000000000000D+00  5 2 21 25 23 2 2 0.11591949D-01 0.85101899D-01 0.12224766D+05 0.12224766D+05 0.12224766D+05 0.12580807D+01  1  2  5  4  5  2       -2 0.701194223524D-02 0.100000000000D+01
  </mgrwgt>
  </event>
  <event>
  4     66 0.45228882E-03 0.62506463E+02 0.75467711E-02 0.12156167E+00
        2 -1    0    0  501    0 0.00000000E+00 0.00000000E+00 0.72876067E+03 0.72876074E+03 0.32000000E+00 0.0000E+00 0.9000E+01
       -2 -1    0    0    0  501 0.00000000E+00 0.00000000E+00 -.22511469E+02 0.22513743E+02 0.32000000E+00 0.0000E+00 0.9000E+01
       25  1    1    2    0    0 -.19274482E+02 -.65100609E+02 0.37634566E+03 0.40233152E+03 0.12500000E+03 0.0000E+00 0.9000E+01
       23  1    1    2    0    0 0.19274482E+02 0.65100609E+02 0.32990354E+03 0.34894296E+03 0.91188000E+02 0.0000E+00 0.9000E+01
#aMCatNLO 1  0  0  1  2 0.19918305D+02 0.00000000D+00  -5  5  0 0.00000000D+00 0.00000000D+00 0.00000000D+00 0.00000000D+00 0.00000000D+00
  <mgrwgt>
 0.2219353523D+00    9    2    0
 0.128087289657030D+03 0.000000000000000D+00 0.000000000000000D+00 0.128087289657030D+03
 0.128087289657030D+03 0.000000000000000D+00 0.000000000000000D+00 -.128087289657030D+03
 0.142354413029639D+03 -.192744821055780D+02 -.651006087536689D+02 -.549399567497318D+01
 0.113820166284421D+03 0.192744821055780D+02 0.651006087536689D+02 0.549399567497318D+01
 0.000000000000000D+00 -.000000000000000D+00 0.000000000000000D+00 0.000000000000000D+00
 0.144572239110849D+03 0.000000000000000D+00 0.000000000000000D+00 0.144572239110849D+03
 0.134635052794151D+03 0.000000000000000D+00 0.000000000000000D+00 -.134635052794151D+03
 0.145870513927031D+03 -.124282676863325D+02 -.739497194529926D+02 -.549399567497318D+01
 0.111077251098724D+03 0.246164764916881D+02 0.581957856232440D+02 0.549399567497318D+01
 0.222595268792450D+02 -.121882088053556D+02 0.157539338297486D+02 0.993718631669875D+01
0.862078017363D-04 0.000000000000D+00 0.000000000000D+00 0.155148493776D-02 0.000000000000D+00  5 2 -2 25 23 21 0 0.11211721D+00 0.34634832D-02 0.16375790D+05 0.16375790D+05 0.16375790D+05 0.12435011D+01  1  2  2  1  5  1        2 0.111616186537D+00 0.100000000000D+01
-.478931725696D-05 0.000000000000D+00 -.331060657703D-06 0.155148493776D-02 0.000000000000D+00  5 2 -2 25 23 21 2 0.11211721D+00 0.34634832D-02 0.16375790D+05 0.16375790D+05 0.16375790D+05 0.12435011D+01  1  2  3  1  5  1        2 -.958840942732D-02 0.100000000000D+01
0.594866773596D-05 0.000000000000D+00 0.000000000000D+00 0.155148493776D-02 0.000000000000D+00  5 2 -2 25 23 21 2 0.11211721D+00 0.34634832D-02 0.16375790D+05 0.16375790D+05 0.16375790D+05 0.12435011D+01  1  2 15  1  5  1        2 0.119094765995D-01 0.100000000000D+01
0.172853512791D-03 0.000000000000D+00 0.000000000000D+00 0.155148493776D-02 0.000000000000D+00  5 2 -2 25 23 21 2 0.12913946D+00 0.34634832D-02 0.19130572D+05 0.19130572D+05 0.19130572D+05 0.12359567D+01  1  2 12  1  5  1        2 0.288679029487D+00 0.100000000000D+01
-.168631953752D-03 0.000000000000D+00 0.000000000000D+00 0.155148493776D-02 0.000000000000D+00  5 2 -2 25 23 21 2 0.11211721D+00 0.34634832D-02 0.16375790D+05 0.16375790D+05 0.16375790D+05 0.12435011D+01  1  2  4  1  5  1        2 -.337608082394D+00 0.100000000000D+01
-.421559948270D-03 0.000000000000D+00 -.890238283698D-04 0.155148493776D-02 0.000000000000D+00  5 2 -2 25 23 21 2 0.13092487D+00 0.34634832D-02 0.16375790D+05 0.16375790D+05 0.16375790D+05 0.12435011D+01  1  2  5  1  5  1        2 -.696986318398D+00 0.100000000000D+01
0.431229705931D-03 0.000000000000D+00 0.879639644232D-04 0.155148493776D-02 0.000000000000D+00  5 2 -2 25 23 21 2 0.11211721D+00 0.34634832D-02 0.16375790D+05 0.16375790D+05 0.16375790D+05 0.12435011D+01  1  2  6  1  5  1        2 0.863339544208D+00 0.100000000000D+01
0.375685107898D-05 0.000000000000D+00 0.000000000000D+00 0.155148493776D-02 0.000000000000D+00  5 21 -2 25 23 -2 2 0.12913946D+00 0.34634832D-02 0.19130572D+05 0.19130572D+05 0.19130572D+05 0.12359567D+01  1  2 12  3  5  1        2 0.671133376432D-02 0.100000000000D+01
-.922224515614D-05 0.000000000000D+00 -.208603303984D-05 0.155148493776D-02 0.000000000000D+00  5 21 -2 25 23 -2 2 0.13092487D+00 0.34634832D-02 0.16375790D+05 0.16375790D+05 0.16375790D+05 0.12435011D+01  1  2  5  3  5  1        2 -.161374081231D-01 0.100000000000D+01
  </mgrwgt>
  </event>
  <event>
  4     66 0.45228882E-03 0.13630238E+03 0.75467711E-02 0.10537953E+00
        2 -1    0    0  501    0 0.00000000E+00 0.00000000E+00 0.23024106E+02 0.23026330E+02 0.32000000E+00 0.0000E+00 0.9000E+01
       -2 -1    0    0    0  501 0.00000000E+00 0.00000000E+00 -.23927583E+04 0.23927583E+04 0.32000000E+00 0.0000E+00 0.9000E+01
       25  1    1    2    0    0 0.73617144E+02 -.36993031E+02 -.22059293E+04 0.22110037E+04 0.12500000E+03 0.0000E+00 0.9000E+01
       23  1    1    2    0    0 -.73617144E+02 0.36993031E+02 -.16380484E+03 0.20478097E+03 0.91188000E+02 0.0000E+00 0.9000E+01
#aMCatNLO 1  0  0  2  2 0.32569687D+03 0.00000000D+00  -5  5  0 0.00000000D+00 0.00000000D+00 0.00000000D+00 0.00000000D+00 0.00000000D+00
  <mgrwgt>
 0.2419502754D-01    5    2    0
 0.234720755013550D+03 0.000000000000000D+00 0.000000000000000D+00 0.234720755013550D+03
 0.234720755013550D+03 0.000000000000000D+00 0.000000000000000D+00 -.234720755013550D+03
 0.242506334792784D+03 0.736171436226921D+02 -.369930313227313D+02 -.190778285486114D+03
 0.226935175234316D+03 -.736171436226921D+02 0.369930313227313D+02 0.190778285486114D+03
 0.000000000000000D+00 0.000000000000000D+00 -.000000000000000D+00 -.000000000000000D+00
 0.401596271160765D+03 0.000000000000000D+00 0.000000000000000D+00 0.401596271160765D+03
 0.514464487254532D+03 0.000000000000000D+00 0.000000000000000D+00 -.514464487254532D+03
 0.246440410738064D+03 -.696070822018942D+01 0.930756164244846D+02 -.190778285486114D+03
 0.324920932177454D+03 -.164562384731388D+03 0.183796703293512D+03 0.190778285486114D+03
 0.344699415499779D+03 0.171523092951577D+03 -.276872319717997D+03 -.112868216093767D+03
0.625450685876D-02 0.000000000000D+00 0.000000000000D+00 0.419558028889D-03 0.000000000000D+00  5 2 -2 25 23 21 0 0.35423429D-02 0.36811683D+00 0.18578340D+05 0.18578340D+05 0.18578340D+05 0.12373672D+01  1  2  2  2  5  2       -2 0.230356835926D-01 0.100000000000D+01
-.222666955298D-03 0.000000000000D+00 -.240189531871D-04 0.419558028889D-03 0.000000000000D+00  5 2 -2 25 23 21 2 0.35423429D-02 0.36811683D+00 0.18578340D+05 0.18578340D+05 0.18578340D+05 0.12373672D+01  1  2  3  2  5  2       -2 -.125562794942D-02 0.100000000000D+01
0.426061645976D-03 0.000000000000D+00 0.000000000000D+00 0.419558028889D-03 0.000000000000D+00  5 2 -2 25 23 21 2 0.35423429D-02 0.36811683D+00 0.18578340D+05 0.18578340D+05 0.18578340D+05 0.12373672D+01  1  2 15  2  5  2       -2 0.240257882068D-02 0.100000000000D+01
0.525165380755D-03 0.000000000000D+00 -.109275636759D-02 0.419558028889D-03 0.000000000000D+00  5 2 -2 25 23 21 2 0.35423429D-02 0.84953473D+00 0.18578340D+05 0.18578340D+05 0.18578340D+05 0.12373672D+01  1  2  5  2  5  2       -2 0.118654787896D-04 0.100000000000D+01
0.116931168732D-03 0.000000000000D+00 -.994931136668D-04 0.419558028889D-03 0.000000000000D+00  5 2 21 25 23 2 2 0.35423429D-02 0.84953473D+00 0.18578340D+05 0.18578340D+05 0.18578340D+05 0.12373672D+01  1  2  5  4  5  2       -2 0.527593809089D-06 0.100000000000D+01
  </mgrwgt>
  </event>
  <event>
  4     66 0.45228882E-03 0.65988018E+02 0.75467711E-02 0.11743689E+00
        2 -1    0    0  501    0 0.00000000E+00 0.00000000E+00 0.41358693E+02 0.41359931E+02 0.32000000E+00 0.0000E+00 0.9000E+01
       -2 -1    0    0    0  501 0.00000000E+00 0.00000000E+00 -.58282979E+03 0.58282988E+03 0.32000000E+00 0.0000E+00 0.9000E+01
       25  1    1    2    0    0 -.37391861E+02 0.10228484E+03 -.33213901E+03 0.37121646E+03 0.12500000E+03 0.0000E+00 0.9000E+01
       23  1    1    2    0    0 0.37391861E+02 -.10228484E+03 -.20933209E+03 0.25297335E+03 0.91188000E+02 0.0000E+00 0.9000E+01
#aMCatNLO 1  0  0  2  1 0.36738062D+02 0.00000000D+00  -5  5  0 0.00000000D+00 0.00000000D+00 0.00000000D+00 0.00000000D+00 0.00000000D+00
  <mgrwgt>
 0.1433433680D+00    9    2    0
 0.155259435943737D+03 0.000000000000000D+00 0.000000000000000D+00 0.155259435943737D+03
 0.155259435943737D+03 0.000000000000000D+00 0.000000000000000D+00 -.155259435943737D+03
 0.167029652374654D+03 -.373918609623197D+02 0.102284842812084D+03 -.203362837578470D+02
 0.143489219512819D+03 0.373918609623197D+02 -.102284842812084D+03 0.203362837578470D+02
 0.000000000000000D+00 0.000000000000000D+00 0.000000000000000D+00 -.000000000000000D+00
 0.161375438649045D+03 0.000000000000000D+00 0.000000000000000D+00 0.161375438649045D+03
 0.223382189239669D+03 0.000000000000000D+00 0.000000000000000D+00 -.223382189239669D+03
 0.164595125836821D+03 -.531467367645759D+02 0.907106134001767D+02 -.203362837578470D+02
 0.148089467602358D+03 0.235395003912557D+02 -.112461400289167D+03 0.203362837578470D+02
 0.720730344495346D+02 0.296072363733202D+02 0.217507868889899D+02 -.620067505906244D+02
0.883707893864D-03 0.000000000000D+00 0.000000000000D+00 0.129374688846D-02 0.000000000000D+00  5 2 -2 25 23 21 0 0.63629779D-02 0.89666224D-01 0.23689495D+05 0.23689495D+05 0.23689495D+05 0.12258127D+01  1  2  2  2  5  2       -2 0.108709293689D+00 0.100000000000D+01
-.490903607295D-04 0.000000000000D+00 -.339367099807D-05 0.129374688846D-02 0.000000000000D+00  5 2 -2 25 23 21 2 0.63629779D-02 0.89666224D-01 0.23689495D+05 0.23689495D+05 0.23689495D+05 0.12258127D+01  1  2  3  2  5  2       -2 -.907407549512D-02 0.100000000000D+01
0.608778341521D-04 0.000000000000D+00 0.000000000000D+00 0.129374688846D-02 0.000000000000D+00  5 2 -2 25 23 21 2 0.63629779D-02 0.89666224D-01 0.23689495D+05 0.23689495D+05 0.23689495D+05 0.12258127D+01  1  2 15  2  5  2       -2 0.112529232800D-01 0.100000000000D+01
0.164089979057D-02 0.000000000000D+00 0.000000000000D+00 0.129374688846D-02 0.000000000000D+00  5 2 -2 25 23 21 2 0.63629779D-02 0.13017330D+00 0.30060371D+05 0.30060371D+05 0.30060371D+05 0.12148068D+01  1  2 12  2  5  2       -2 0.124449869370D+00 0.100000000000D+01
-.164023855689D-02 0.000000000000D+00 0.000000000000D+00 0.129374688846D-02 0.000000000000D+00  5 2 -2 25 23 21 2 0.63629779D-02 0.89666224D-01 0.23689495D+05 0.23689495D+05 0.23689495D+05 0.12258127D+01  1  2  4  2  5  2       -2 -.303188819028D+00 0.100000000000D+01
-.199995924190D-02 0.000000000000D+00 -.310577417802D-03 0.129374688846D-02 0.000000000000D+00  5 2 -2 25 23 21 2 0.63629779D-02 0.13149444D+00 0.23689495D+05 0.23689495D+05 0.23689495D+05 0.12258127D+01  1  2  5  2  5  2       -2 -.150133115156D+00 0.100000000000D+01
0.199248970771D-02 0.000000000000D+00 0.289125835206D-03 0.129374688846D-02 0.000000000000D+00  5 2 -2 25 23 21 2 0.63629779D-02 0.89666224D-01 0.23689495D+05 0.23689495D+05 0.23689495D+05 0.12258127D+01  1  2  6  2  5  2       -2 0.368300451705D+00 0.100000000000D+01
0.741915761151D-04 0.000000000000D+00 0.000000000000D+00 0.129374688846D-02 0.000000000000D+00  5 2 21 25 23 2 2 0.63629779D-02 0.13017330D+00 0.30060371D+05 0.30060371D+05 0.30060371D+05 0.12148068D+01  1  2 12  4  5  2       -2 0.652312630484D-01 0.100000000000D+01
-.822181604598D-04 0.000000000000D+00 -.143179288935D-04 0.129374688846D-02 0.000000000000D+00  5 2 21 25 23 2 2 0.63629779D-02 0.13149444D+00 0.23689495D+05 0.23689495D+05 0.23689495D+05 0.12258127D+01  1  2  5  4  5  2       -2 -.722044234617D-01 0.100000000000D+01
  </mgrwgt>
  </event>
  <event>
  4     66 0.45228882E-03 0.39794471E+02 0.75467711E-02 0.11955812E+00
        2 -1    0    0  501    0 0.00000000E+00 0.00000000E+00 0.29003647E+03 0.29003664E+03 0.32000000E+00 0.0000E+00 0.9000E+01
       -2 -1    0    0    0  501 0.00000000E+00 0.00000000E+00 -.48334630E+02 0.48335690E+02 0.32000000E+00 0.0000E+00 0.9000E+01
       25  1    1    2    0    0 0.32035003E+02 0.18653144E+02 0.93430284E+02 0.16040075E+03 0.12500000E+03 0.0000E+00 0.9000E+01
       23  1    1    2    0    0 -.32035003E+02 -.18653144E+02 0.14827155E+03 0.17797159E+03 0.91188000E+02 0.0000E+00 0.9000E+01
#aMCatNLO 1  0  0  2  1 0.68988324D+02 0.00000000D+00  -5  5  0 0.00000000D+00 0.00000000D+00 0.00000000D+00 0.00000000D+00 0.00000000D+00
  <mgrwgt>
 0.1502201908D+00    9    2    0
 0.118401919131757D+03 0.000000000000000D+00 0.000000000000000D+00 0.118401919131757D+03
 0.118401919131757D+03 0.000000000000000D+00 0.000000000000000D+00 -.118401919131757D+03
 0.133836104467608D+03 0.320350033207350D+02 0.186531437643106D+02 -.302145933120569D+02
 0.102967733795906D+03 -.320350033207350D+02 -.186531437643106D+02 0.302145933120569D+02
 0.000000000000000D+00 0.000000000000000D+00 0.000000000000000D+00 -.000000000000000D+00
 0.147698155206654D+03 0.000000000000000D+00 0.000000000000000D+00 0.147698155206654D+03
 0.172140577264708D+03 0.000000000000000D+00 0.000000000000000D+00 -.172140577264708D+03
 0.128912909949557D+03 -.393468881577049D+01 0.807062120116608D+01 -.302145933120569D+02
 0.117735517196900D+03 -.622487341289999D+02 -.275422242374442D+02 0.302145933120569D+02
 0.731903053249047D+02 0.661834229447704D+02 0.194716030362781D+02 -.244424220580534D+02
0.118118689207D-03 0.000000000000D+00 0.000000000000D+00 0.161807661340D-02 0.000000000000D+00  5 2 -2 25 23 21 0 0.44621090D-01 0.74361920D-02 0.13089170D+05 0.13089170D+05 0.13089170D+05 0.12546260D+01  1  2  2  2  5  2       -2 0.132247573498D+00 0.100000000000D+01
-.655275459195D-05 0.000000000000D+00 -.453606867920D-06 0.161807661340D-02 0.000000000000D+00  5 2 -2 25 23 21 2 0.44621090D-01 0.74361920D-02 0.13089170D+05 0.13089170D+05 0.13089170D+05 0.12546260D+01  1  2  3  2  5  2       -2 -.115483931018D-01 0.100000000000D+01
0.816380096736D-05 0.000000000000D+00 0.000000000000D+00 0.161807661340D-02 0.000000000000D+00  5 2 -2 25 23 21 2 0.44621090D-01 0.74361920D-02 0.13089170D+05 0.13089170D+05 0.13089170D+05 0.12546260D+01  1  2 15  2  5  2       -2 0.143876565883D-01 0.100000000000D+01
0.185154440118D-04 0.000000000000D+00 0.000000000000D+00 0.161807661340D-02 0.000000000000D+00  5 2 -2 25 23 21 2 0.44621090D-01 0.11393490D-01 0.23731844D+05 0.23731844D+05 0.23731844D+05 0.12257290D+01  1  2 12  2  5  2       -2 0.163427336218D-01 0.100000000000D+01
-.447730989120D-04 0.000000000000D+00 0.000000000000D+00 0.161807661340D-02 0.000000000000D+00  5 2 -2 25 23 21 2 0.44621090D-01 0.74361920D-02 0.13089170D+05 0.13089170D+05 0.13089170D+05 0.12546260D+01  1  2  4  2  5  2       -2 -.789068687631D-01 0.100000000000D+01
-.521578440129D-04 0.000000000000D+00 -.354573561128D-04 0.161807661340D-02 0.000000000000D+00  5 2 -2 25 23 21 2 0.44621090D-01 0.13417665D-01 0.13089170D+05 0.13089170D+05 0.13089170D+05 0.12546260D+01  1  2  5  2  5  2       -2 -.364809594870D-01 0.100000000000D+01
0.665450036522D-04 0.000000000000D+00 0.300666696464D-04 0.161807661340D-02 0.000000000000D+00  5 2 -2 25 23 21 2 0.44621090D-01 0.74361920D-02 0.13089170D+05 0.13089170D+05 0.13089170D+05 0.12546260D+01  1  2  6  2  5  2       -2 0.117277070331D+00 0.100000000000D+01
0.924436478626D-06 0.000000000000D+00 0.000000000000D+00 0.161807661340D-02 0.000000000000D+00  5 2 21 25 23 2 2 0.44621090D-01 0.11393490D-01 0.23731844D+05 0.23731844D+05 0.23731844D+05 0.12257290D+01  1  2 12  4  5  2       -2 0.125233723529D-01 0.100000000000D+01
-.148253138526D-05 0.000000000000D+00 -.229397824299D-05 0.161807661340D-02 0.000000000000D+00  5 2 21 25 23 2 2 0.44621090D-01 0.13417665D-01 0.13089170D+05 0.13089170D+05 0.13089170D+05 0.12546260D+01  1  2  5  4  5  2       -2 -.156219942565D-01 0.100000000000D+01
  </mgrwgt>
  </event>
</LesHouchesEvents>
