<event>
 5    0  0.1911311E+001  0.2948169E+03  0.7546771E-02  0.1087861E+00
         21   -1    0    0  502  501  0.00000000000E+00  0.00000000000E+00  0.11129774626E+04  0.11129774626E+04  0.00000000000E+00 0. -1.
         21   -1    0    0  504  502 -0.00000000000E+00 -0.00000000000E+00 -0.82464509589E+03  0.82464509589E+03  0.00000000000E+00 0. -1.
         25    1    1    2    0    0  0.33883020287E+03 -0.16114094438E+03  0.10870645516E+02  0.39562037519E+03  0.12500000000E+03 0.  0.
         21    1    1    2  503  501 -0.91341397517E+02  0.10311266121E+03  0.87859665348E+03  0.88932983269E+03  0.00000000000E+00 0. -1.
         21    1    1    2  504  503 -0.24748880536E+03  0.58028283173E+02 -0.60113493229E+03  0.65267235061E+03  0.00000000000E+00 0. -1.
<mgrwt>
<rscale>  4 0.29481690E+03</rscale>
<asrwt>0</asrwt>
<pdfrwt beam="1">  1       21 0.17122730E+00 0.29481690E+03</pdfrwt>
<pdfrwt beam="2">  1       21 0.12686848E+00 0.29481690E+03</pdfrwt>
<totfact> 0.85502193E+01</totfact>
</mgrwt>
</event>
<event>
 5    0  0.1911311E+001  0.5621314E+03  0.7546771E-02  0.9987244E-01
         21   -1    0    0  504  501  0.00000000000E+00  0.00000000000E+00  0.12681454768E+04  0.12681454768E+04  0.00000000000E+00 0. -1.
         21   -1    0    0  503  502 -0.00000000000E+00 -0.00000000000E+00 -0.86397129588E+03  0.86397129588E+03  0.00000000000E+00 0.  1.
         25    1    1    2    0    0 -0.29382353524E+03 -0.43922104690E+03 -0.68385133613E+03  0.87322680205E+03  0.12500000000E+03 0.  0.
         21    1    1    2  503  501  0.92760249538E+01 -0.31147976881E+02 -0.73347704814E+01  0.33317262204E+02  0.00000000000E+00 0.  1.
         21    1    1    2  504  502  0.28454751028E+03  0.47036902378E+03  0.10953602876E+04  0.12255727085E+04  0.00000000000E+00 0. -1.
<mgrwt>
<rscale>  4 0.56213136E+03</rscale>
<asrwt>0</asrwt>
<pdfrwt beam="1">  1       21 0.19509930E+00 0.56213136E+03</pdfrwt>
<pdfrwt beam="2">  1       21 0.13291866E+00 0.56213136E+03</pdfrwt>
<totfact> 0.43355290E+01</totfact>
</mgrwt>
</event>
<event>
 5    0  0.1911311E+001  0.1918080E+03  0.7546771E-02  0.1156841E+00
         21   -1    0    0  504  501  0.00000000000E+00  0.00000000000E+00  0.23587752188E+03  0.23587752188E+03  0.00000000000E+00 0.  1.
         21   -1    0    0  503  502 -0.00000000000E+00 -0.00000000000E+00 -0.52916931349E+03  0.52916931349E+03  0.00000000000E+00 0.  1.
         25    1    1    2    0    0 -0.11577089843E+03 -0.20450655768E+03  0.14200307347E+02  0.26655671401E+03  0.12500000000E+03 0.  0.
         21    1    1    2  503  501  0.26699777540E+02  0.13550072051E+03 -0.35139848435E+03  0.37756352867E+03  0.00000000000E+00 0.  1.
         21    1    1    2  504  502  0.89071120892E+02  0.69005837167E+02  0.43906385393E+02  0.12092659268E+03  0.00000000000E+00 0.  1.
<mgrwt>
<rscale>  4 0.19180797E+03</rscale>
<asrwt>0</asrwt>
<pdfrwt beam="1">  1       21 0.36288850E-01 0.19180797E+03</pdfrwt>
<pdfrwt beam="2">  1       21 0.81410663E-01 0.19180797E+03</pdfrwt>
<totfact> 0.96873048E+03</totfact>
</mgrwt>
</event>
