<event>
 5    0  0.1158255E+000  0.2927610E+03  0.7546771E-02  0.1088916E+00
         -2   -1    0    0    0  501 -0.00000000000E+00  0.00000000000E+00  0.93883105171E+03  0.93883105171E+03  0.00000000000E+00 0.  1.
         21   -1    0    0  503  502  0.00000000000E+00 -0.00000000000E+00 -0.13310811890E+03  0.13310811890E+03  0.00000000000E+00 0.  1.
         25    1    1    2    0    0 -0.24306680220E+03 -0.25430134716E+01  0.30589103258E+03  0.41022220937E+03  0.12500000000E+03 0.  0.
         21    1    1    2  503  501 -0.35943490192E+02  0.29500091373E+02  0.33150446344E+03  0.33474975602E+03  0.00000000000E+00 0.  1.
         -2    1    1    2    0  502  0.27901029240E+03 -0.26957077902E+02  0.16832743679E+03  0.32696720522E+03  0.00000000000E+00 0.  1.
<mgrwt>
<rscale>  4 0.29276104E+03</rscale>
<asrwt>0</asrwt>
<pdfrwt beam="1">  1       21 0.20478173E-01 0.29276104E+03</pdfrwt>
<pdfrwt beam="2">  1       -2 0.14443554E+00 0.29276104E+03</pdfrwt>
<totfact> 0.61984420E+02</totfact>
</mgrwt>
</event>
<event>
 5    0  0.9662576E-001  0.3811251E+03  0.7546771E-02  0.1050519E+00
         21   -1    0    0  501  502  0.00000000000E+00  0.00000000000E+00  0.78442944655E+03  0.78442944655E+03  0.00000000000E+00 0.  1.
          2   -1    0    0  503    0 -0.00000000000E+00 -0.00000000000E+00 -0.48478553887E+03  0.48478553887E+03  0.00000000000E+00 0. -1.
         25    1    1    2    0    0 -0.19699005438E+03 -0.29844375197E+03  0.63498858872E+03  0.73939790534E+03  0.12500000000E+03 0.  0.
         21    1    1    2  503  502 -0.29618432819E+02 -0.52826611263E+01 -0.35891395346E+02  0.46833218244E+02  0.00000000000E+00 0. -1.
          2    1    1    2  501    0  0.22660848720E+03  0.30372641309E+03 -0.29945328570E+03  0.48298386184E+03  0.00000000000E+00 0. -1.
<mgrwt>
<rscale>  4 0.38112509E+03</rscale>
<asrwt>0</asrwt>
<pdfrwt beam="1">  1       21 0.12068145E+00 0.38112509E+03</pdfrwt>
<pdfrwt beam="2">  1        2 0.74582391E-01 0.38112509E+03</pdfrwt>
<totfact> 0.38375746E+02</totfact>
</mgrwt>
</event>
<event>
 5    0  0.9662576E-001  0.3898929E+03  0.7546771E-02  0.1047337E+00
         -4   -1    0    0    0  501 -0.00000000000E+00  0.00000000000E+00  0.19213807985E+03  0.19213807985E+03  0.00000000000E+00 0.  1.
         21   -1    0    0  503  502  0.00000000000E+00 -0.00000000000E+00 -0.20707650127E+04  0.20707650127E+04  0.00000000000E+00 0.  1.
         25    1    1    2    0    0  0.22123903029E+03  0.29498467698E+03 -0.17787215125E+04  0.18208343931E+04  0.12500000000E+03 0.  0.
         21    1    1    2  503  501  0.32270484803E+02 -0.19167500533E+02  0.27328985435E+02  0.46428985677E+02  0.00000000000E+00 0.  1.
         -4    1    1    2    0  502 -0.25350951509E+03 -0.27581717644E+03 -0.12723440576E+03  0.39563971372E+03  0.00000000000E+00 0.  1.
<mgrwt>
<rscale>  4 0.38989290E+03</rscale>
<asrwt>0</asrwt>
<pdfrwt beam="1">  1       21 0.31857922E+00 0.38989290E+03</pdfrwt>
<pdfrwt beam="2">  1       -4 0.29559706E-01 0.38989290E+03</pdfrwt>
<totfact> 0.10738520E+01</totfact>
</mgrwt>
</event>
<event>
 5    0  0.9662576E-001  0.3993835E+03  0.7546771E-02  0.1043993E+00
          1   -1    0    0  503    0 -0.00000000000E+00  0.00000000000E+00  0.31647154185E+04  0.31647154185E+04  0.00000000000E+00 0.  1.
         21   -1    0    0  501  502  0.00000000000E+00 -0.00000000000E+00 -0.18939177419E+03  0.18939177419E+03  0.00000000000E+00 0.  1.
         25    1    1    2    0    0 -0.23322526754E+03 -0.30006439998E+03  0.51851658347E+02  0.40341822471E+03  0.12500000000E+03 0.  0.
         21    1    1    2  503  502 -0.14878436912E+02  0.23431217776E+02  0.24386140952E+03  0.24543589164E+03  0.00000000000E+00 0.  1.
          1    1    1    2  501    0  0.24810370445E+03  0.27663318221E+03  0.26796105765E+04  0.27052530764E+04  0.00000000000E+00 0.  1.
<mgrwt>
<rscale>  4 0.39938350E+03</rscale>
<asrwt>0</asrwt>
<pdfrwt beam="1">  1       21 0.29137198E-01 0.39938350E+03</pdfrwt>
<pdfrwt beam="2">  1        1 0.48687926E+00 0.39938350E+03</pdfrwt>
<totfact> 0.62965151E+01</totfact>
</mgrwt>
</event>
<event>
 5    0  0.9662576E-001  0.2638330E+03  0.7546771E-02  0.1104862E+00
         21   -1    0    0  501  502  0.00000000000E+00  0.00000000000E+00  0.69654464932E+02  0.69654464932E+02  0.00000000000E+00 0.  1.
          1   -1    0    0  503    0 -0.00000000000E+00 -0.00000000000E+00 -0.94184529670E+03  0.94184529670E+03  0.00000000000E+00 0.  1.
         25    1    1    2    0    0 -0.23014952238E+03  0.31844523995E+02 -0.48497494939E+03  0.55209471823E+03  0.12500000000E+03 0.  0.
         21    1    1    2  503  502  0.48832795548E+02 -0.37246525874E+02 -0.13906300052E+03  0.15202126077E+03  0.00000000000E+00 0.  1.
          1    1    1    2  501    0  0.18131672684E+03  0.54020018789E+01 -0.24815288186E+03  0.30738378264E+03  0.00000000000E+00 0.  1.
<mgrwt>
<rscale>  4 0.26383305E+03</rscale>
<asrwt>0</asrwt>
<pdfrwt beam="1">  1       21 0.10716072E-01 0.26383305E+03</pdfrwt>
<pdfrwt beam="2">  1        1 0.14489927E+00 0.26383305E+03</pdfrwt>
<totfact> 0.14043288E+04</totfact>
</mgrwt>
</event>
<event>
 5    0  0.9662576E-001  0.2743570E+03  0.7546771E-02  0.1098812E+00
          2   -1    0    0  503    0 -0.00000000000E+00  0.00000000000E+00  0.12607326830E+04  0.12607326830E+04  0.00000000000E+00 0. -1.
         21   -1    0    0  501  502  0.00000000000E+00 -0.00000000000E+00 -0.78451830633E+03  0.78451830633E+03  0.00000000000E+00 0.  1.
         25    1    1    2    0    0 -0.18032196027E+03  0.16396887856E+03 -0.73858643978E+03  0.78774153852E+03  0.12500000000E+03 0.  0.
         21    1    1    2  503  502 -0.43574231042E+02 -0.19931959719E+02  0.33197725379E+03  0.33541749158E+03  0.00000000000E+00 0.  1.
          2    1    1    2  501    0  0.22389619131E+03 -0.14403691884E+03  0.88282356269E+03  0.92209195925E+03  0.00000000000E+00 0. -1.
<mgrwt>
<rscale>  4 0.27435698E+03</rscale>
<asrwt>0</asrwt>
<pdfrwt beam="1">  1       21 0.12069512E+00 0.27435698E+03</pdfrwt>
<pdfrwt beam="2">  1        2 0.19395887E+00 0.27435698E+03</pdfrwt>
<totfact> 0.11532414E+02</totfact>
</mgrwt>
</event>
<event>
 5    0  0.9662576E-001  0.3850152E+03  0.7546771E-02  0.1049096E+00
         21   -1    0    0  501  502  0.00000000000E+00  0.00000000000E+00  0.98166115048E+02  0.98166115048E+02  0.00000000000E+00 0. -1.
          1   -1    0    0  503    0 -0.00000000000E+00 -0.00000000000E+00 -0.20542443462E+04  0.20542443462E+04  0.00000000000E+00 0. -1.
         25    1    1    2    0    0 -0.15326402341E+03  0.33033595126E+03 -0.40923638016E+03  0.56188176373E+03  0.12500000000E+03 0.  0.
         21    1    1    2  503  502  0.27055848430E+02 -0.34618542268E+02 -0.11687672373E+03  0.12486244813E+03  0.00000000000E+00 0.  1.
          1    1    1    2  501    0  0.12620817498E+03 -0.29571740899E+03 -0.14299651273E+04  0.14656662494E+04  0.00000000000E+00 0. -1.
<mgrwt>
<rscale>  4 0.38501520E+03</rscale>
<asrwt>0</asrwt>
<pdfrwt beam="1">  1       21 0.15102479E-01 0.38501520E+03</pdfrwt>
<pdfrwt beam="2">  1        1 0.31603759E+00 0.38501520E+03</pdfrwt>
<totfact> 0.12687000E+03</totfact>
</mgrwt>
</event>
<event>
 5    0  0.9662576E-001  0.2389738E+03  0.7546771E-02  0.1120478E+00
         -3   -1    0    0    0  501 -0.00000000000E+00  0.00000000000E+00  0.14715900036E+04  0.14715900036E+04  0.00000000000E+00 0.  1.
         21   -1    0    0  503  502  0.00000000000E+00 -0.00000000000E+00 -0.10629497537E+03  0.10629497537E+03  0.00000000000E+00 0. -1.
         25    1    1    2    0    0  0.15134872779E+03 -0.13241680988E+03  0.57844008494E+02  0.24374490407E+03  0.12500000000E+03 0.  0.
         21    1    1    2  503  501 -0.66375844889E+01 -0.39925316826E+02  0.20298855320E+03  0.20698415684E+03  0.00000000000E+00 0. -1.
         -3    1    1    2    0  502 -0.14471114330E+03  0.17234212670E+03  0.11044624665E+04  0.11271559180E+04  0.00000000000E+00 0.  1.
<mgrwt>
<rscale>  4 0.23897383E+03</rscale>
<asrwt>0</asrwt>
<pdfrwt beam="1">  1       21 0.16353074E-01 0.23897383E+03</pdfrwt>
<pdfrwt beam="2">  1       -3 0.22639845E+00 0.23897383E+03</pdfrwt>
<totfact> 0.18329984E+02</totfact>
</mgrwt>
</event>
<event>
 5    0  0.9662576E-001  0.2994138E+03  0.7546771E-02  0.1085534E+00
          2   -1    0    0  503    0 -0.00000000000E+00  0.00000000000E+00  0.85095802642E+03  0.85095802642E+03  0.00000000000E+00 0.  1.
         21   -1    0    0  501  502  0.00000000000E+00 -0.00000000000E+00 -0.25989506550E+03  0.25989506550E+03  0.00000000000E+00 0. -1.
         25    1    1    2    0    0  0.24841073316E+03  0.10069931582E+03 -0.12358944859E+03  0.32054265919E+03  0.12500000000E+03 0.  0.
         21    1    1    2  503  502  0.24848307292E+02  0.15353313213E+02  0.14526846363E+03  0.14817587228E+03  0.00000000000E+00 0. -1.
          2    1    1    2  501    0 -0.27325904046E+03 -0.11605262903E+03  0.56938394588E+03  0.64213456045E+03  0.00000000000E+00 0.  1.
<mgrwt>
<rscale>  4 0.29941376E+03</rscale>
<asrwt>0</asrwt>
<pdfrwt beam="1">  1       21 0.39983857E-01 0.29941376E+03</pdfrwt>
<pdfrwt beam="2">  1        2 0.13091662E+00 0.29941376E+03</pdfrwt>
<totfact> 0.24001291E+03</totfact>
</mgrwt>
</event>
<event>
 5    0  0.9662576E-001  0.2429407E+03  0.7546771E-02  0.1117849E+00
         21   -1    0    0  501  502  0.00000000000E+00  0.00000000000E+00  0.31620812874E+03  0.31620812874E+03  0.00000000000E+00 0. -1.
          2   -1    0    0  503    0 -0.00000000000E+00 -0.00000000000E+00 -0.42829081634E+03  0.42829081634E+03  0.00000000000E+00 0. -1.
         25    1    1    2    0    0 -0.59008953421E+02 -0.20025877696E+03  0.22055133581E+03  0.32841060589E+03  0.12500000000E+03 0.  0.
         21    1    1    2  503  502 -0.31904015468E+02  0.12832630828E+02 -0.89733774220E+02  0.96097309290E+02  0.00000000000E+00 0. -1.
          2    1    1    2  501    0  0.90912968890E+02  0.18742614613E+03 -0.24290024919E+03  0.31999102991E+03  0.00000000000E+00 0. -1.
<mgrwt>
<rscale>  4 0.24294072E+03</rscale>
<asrwt>0</asrwt>
<pdfrwt beam="1">  1       21 0.48647404E-01 0.24294072E+03</pdfrwt>
<pdfrwt beam="2">  1        2 0.65890895E-01 0.24294072E+03</pdfrwt>
<totfact> 0.36661705E+03</totfact>
</mgrwt>
</event>
<event>
 5    0  0.9662576E-001  0.2450413E+03  0.7546771E-02  0.1116479E+00
         -1   -1    0    0    0  501 -0.00000000000E+00  0.00000000000E+00  0.63603596153E+03  0.63603596153E+03  0.00000000000E+00 0. -1.
         21   -1    0    0  503  502  0.00000000000E+00 -0.00000000000E+00 -0.94542167418E+02  0.94542167418E+02  0.00000000000E+00 0.  1.
         25    1    1    2    0    0 -0.19852956001E+03 -0.70315803072E+02  0.30272444104E+03  0.38939104454E+03  0.12500000000E+03 0.  0.
         21    1    1    2  503  501  0.88499095980E+01 -0.23103262481E+02  0.57824970181E+02  0.62895220913E+02  0.00000000000E+00 0. -1.
         -1    1    1    2    0  502  0.18967965042E+03  0.93419065553E+02  0.18094438289E+03  0.27829186350E+03  0.00000000000E+00 0. -1.
<mgrwt>
<rscale>  4 0.24504132E+03</rscale>
<asrwt>0</asrwt>
<pdfrwt beam="1">  1       21 0.14544949E-01 0.24504132E+03</pdfrwt>
<pdfrwt beam="2">  1       -1 0.97851684E-01 0.24504132E+03</pdfrwt>
<totfact> 0.40710927E+03</totfact>
</mgrwt>
</event>
<event>
 5    0  0.9662576E-001  0.3405164E+03  0.7546771E-02  0.1066576E+00
          3   -1    0    0  503    0 -0.00000000000E+00  0.00000000000E+00  0.87065263900E+03  0.87065263900E+03  0.00000000000E+00 0. -1.
         21   -1    0    0  501  502  0.00000000000E+00 -0.00000000000E+00 -0.11677783381E+04  0.11677783381E+04  0.00000000000E+00 0. -1.
         25    1    1    2    0    0 -0.24822135348E+03  0.19565547462E+03 -0.10870722010E+04  0.11389670212E+04  0.12500000000E+03 0.  0.
         21    1    1    2  503  502  0.23394031653E+02  0.63432307929E+02  0.50708609345E+02  0.84512137991E+02  0.00000000000E+00 0. -1.
          3    1    1    2  501    0  0.22482732183E+03 -0.25908778255E+03  0.73923789259E+03  0.81495181793E+03  0.00000000000E+00 0. -1.
<mgrwt>
<rscale>  4 0.34051644E+03</rscale>
<asrwt>0</asrwt>
<pdfrwt beam="1">  1       21 0.17965821E+00 0.34051644E+03</pdfrwt>
<pdfrwt beam="2">  1        3 0.13394656E+00 0.34051644E+03</pdfrwt>
<totfact> 0.37327752E+00</totfact>
</mgrwt>
</event>
<event>
 5    0  0.3615748E+000  0.3275040E+03  0.7546771E-02  0.1072247E+00
         21   -1    0    0  501  502  0.00000000000E+00  0.00000000000E+00  0.86250792434E+02  0.86250792434E+02  0.00000000000E+00 0. -1.
          2   -1    0    0  503    0 -0.00000000000E+00 -0.00000000000E+00 -0.13735651537E+04  0.13735651537E+04  0.00000000000E+00 0. -1.
         25    1    1    2    0    0 -0.26479535706E+03  0.14263377413E+03 -0.56730476166E+03  0.65415645472E+03  0.12500000000E+03 0.  0.
         21    1    1    2  503  502 -0.20346531317E+02 -0.32477823164E+02 -0.18992082237E+03  0.19374908801E+03  0.00000000000E+00 0.  1.
          2    1    1    2  501    0  0.28514188838E+03 -0.11015595097E+03 -0.53008877719E+03  0.61191040336E+03  0.00000000000E+00 0. -1.
<mgrwt>
<rscale>  4 0.32750405E+03</rscale>
<asrwt>0</asrwt>
<pdfrwt beam="1">  1       21 0.13269354E-01 0.32750405E+03</pdfrwt>
<pdfrwt beam="2">  1        2 0.21131770E+00 0.32750405E+03</pdfrwt>
<totfact> 0.96642124E+03</totfact>
</mgrwt>
</event>
<event>
 5    0  0.1742127E+000  0.2400156E+03  0.7546771E-02  0.1119782E+00
          2   -1    0    0  503    0 -0.00000000000E+00  0.00000000000E+00  0.93670477557E+03  0.93670477557E+03  0.00000000000E+00 0. -1.
         21   -1    0    0  501  502  0.00000000000E+00 -0.00000000000E+00 -0.54640443521E+02  0.54640443521E+02  0.00000000000E+00 0. -1.
         25    1    1    2    0    0  0.79125902115E+02  0.18900152671E+03  0.52006059766E+03  0.57277439775E+03  0.12500000000E+03 0.  0.
         21    1    1    2  503  502 -0.38774539703E+02 -0.50160705866E+02  0.13929427843E+03  0.15304397193E+03  0.00000000000E+00 0.  1.
          2    1    1    2  501    0 -0.40351362412E+02 -0.13884082084E+03  0.22270945596E+03  0.26552684941E+03  0.00000000000E+00 0. -1.
<mgrwt>
<rscale>  4 0.24001559E+03</rscale>
<asrwt>0</asrwt>
<pdfrwt beam="1">  1       21 0.84062227E-02 0.24001559E+03</pdfrwt>
<pdfrwt beam="2">  1        2 0.14410842E+00 0.24001559E+03</pdfrwt>
<totfact> 0.39950184E+04</totfact>
</mgrwt>
</event>
<event>
 5    0  0.9662576E-001  0.3055769E+03  0.7546771E-02  0.1082486E+00
         21   -1    0    0  501  502  0.00000000000E+00  0.00000000000E+00  0.12741754952E+03  0.12741754952E+03  0.00000000000E+00 0.  1.
          2   -1    0    0  503    0 -0.00000000000E+00 -0.00000000000E+00 -0.28522924293E+04  0.28522924293E+04  0.00000000000E+00 0. -1.
         25    1    1    2    0    0 -0.27248912831E+03  0.53509818888E+02 -0.98704754416E+02  0.32012693468E+03  0.12500000000E+03 0.  0.
         21    1    1    2  503  502  0.12660766474E+02  0.10953313018E+03 -0.84966372179E+03  0.85678832960E+03  0.00000000000E+00 0. -1.
          2    1    1    2  501    0  0.25982836183E+03 -0.16304294907E+03 -0.17765064036E+04  0.18027947146E+04  0.00000000000E+00 0. -1.
<mgrwt>
<rscale>  4 0.30557686E+03</rscale>
<asrwt>0</asrwt>
<pdfrwt beam="1">  1       21 0.19602700E-01 0.30557686E+03</pdfrwt>
<pdfrwt beam="2">  1        2 0.43881422E+00 0.30557686E+03</pdfrwt>
<totfact> 0.74472151E+02</totfact>
</mgrwt>
</event>
<event>
 5    0  0.9662576E-001  0.2654156E+03  0.7546771E-02  0.1103932E+00
         21   -1    0    0  501  502  0.00000000000E+00  0.00000000000E+00  0.13113641859E+04  0.13113641859E+04  0.00000000000E+00 0.  1.
          2   -1    0    0  503    0 -0.00000000000E+00 -0.00000000000E+00 -0.12893425593E+04  0.12893425593E+04  0.00000000000E+00 0.  1.
         25    1    1    2    0    0  0.23313812464E+03 -0.27735355902E+02  0.12690590794E+04  0.12966335574E+04  0.12500000000E+03 0.  0.
         21    1    1    2  503  502 -0.18195674561E+02  0.14350037118E+02 -0.86659793458E+03  0.86690771502E+03  0.00000000000E+00 0.  1.
          2    1    1    2  501    0 -0.21494245008E+03  0.13385318783E+02 -0.38043951821E+03  0.43716547281E+03  0.00000000000E+00 0.  1.
<mgrwt>
<rscale>  4 0.26541559E+03</rscale>
<asrwt>0</asrwt>
<pdfrwt beam="1">  1       21 0.20174834E+00 0.26541559E+03</pdfrwt>
<pdfrwt beam="2">  1        2 0.19836039E+00 0.26541559E+03</pdfrwt>
<totfact> 0.27614499E+01</totfact>
</mgrwt>
</event>
<event>
 5    0  0.9662576E-001  0.3445315E+03  0.7546771E-02  0.1064882E+00
          2   -1    0    0  503    0 -0.00000000000E+00  0.00000000000E+00  0.28679770838E+03  0.28679770838E+03  0.00000000000E+00 0. -1.
         21   -1    0    0  501  502  0.00000000000E+00 -0.00000000000E+00 -0.73726517120E+03  0.73726517120E+03  0.00000000000E+00 0. -1.
         25    1    1    2    0    0 -0.56616127965E+02  0.27530514758E+03 -0.17408033032E+03  0.35345052218E+03  0.12500000000E+03 0.  0.
         21    1    1    2  503  502  0.91871972747E+02  0.83001621086E+02  0.92953285575E+02  0.15482261391E+03  0.00000000000E+00 0. -1.
          2    1    1    2  501    0 -0.35255844782E+02 -0.35830676866E+03 -0.36934041807E+03  0.51578974348E+03  0.00000000000E+00 0. -1.
<mgrwt>
<rscale>  4 0.34453151E+03</rscale>
<asrwt>0</asrwt>
<pdfrwt beam="1">  1       21 0.11342541E+00 0.34453151E+03</pdfrwt>
<pdfrwt beam="2">  1        2 0.44122725E-01 0.34453151E+03</pdfrwt>
<totfact> 0.80916808E+02</totfact>
</mgrwt>
</event>
<event>
 5    0  0.9751815E-001  0.2355563E+03  0.7546771E-02  0.1122789E+00
         -1   -1    0    0    0  501 -0.00000000000E+00  0.00000000000E+00  0.97878241913E+02  0.97878241913E+02  0.00000000000E+00 0.  1.
         21   -1    0    0  503  502  0.00000000000E+00 -0.00000000000E+00 -0.12474179699E+04  0.12474179699E+04  0.00000000000E+00 0. -1.
         25    1    1    2    0    0 -0.11797844713E+03 -0.16183909720E+03 -0.10886164527E+04  0.11139217156E+04  0.12500000000E+03 0.  0.
         21    1    1    2  503  501  0.23116246487E+02 -0.11130085961E+02 -0.10767497973E+02  0.27824066521E+02  0.00000000000E+00 0.  1.
         -1    1    1    2    0  502  0.94862200641E+02  0.17296918316E+03 -0.50155777307E+02  0.20355042970E+03  0.00000000000E+00 0.  1.
<mgrwt>
<rscale>  4 0.23555629E+03</rscale>
<asrwt>0</asrwt>
<pdfrwt beam="1">  1       21 0.19191045E+00 0.23555629E+03</pdfrwt>
<pdfrwt beam="2">  1       -1 0.15058191E-01 0.23555629E+03</pdfrwt>
<totfact> 0.42459695E+02</totfact>
</mgrwt>
</event>
