<event>
 5    0  0.1856407E+000  0.2412243E+03  0.7546771E-02  0.1118980E+00
         21   -1    0    0  502  501  0.00000000000E+00  0.00000000000E+00  0.10926388579E+03  0.10926388579E+03  0.00000000000E+00 0. -1.
         21   -1    0    0  503  502 -0.00000000000E+00 -0.00000000000E+00 -0.11145070344E+04  0.11145070344E+04  0.00000000000E+00 0. -1.
         25    1    1    2    0    0  0.10251942949E+03 -0.17903611442E+03 -0.51147823601E+02  0.24658723314E+03  0.12500000000E+03 0.  0.
         21    1    1    2  503  504 -0.63101092391E+02  0.84625852834E+02 -0.39834163475E+03  0.41209142287E+03  0.00000000000E+00 0. -1.
         21    1    1    2  504  501 -0.39418337097E+02  0.94410261590E+02 -0.55575369025E+03  0.56509226417E+03  0.00000000000E+00 0. -1.
<mgrwt>
<rscale>  4 0.24122430E+03</rscale>
<asrwt>0</asrwt>
<pdfrwt beam="1">  1       21 0.16809829E-01 0.24122430E+03</pdfrwt>
<pdfrwt beam="2">  1       21 0.17146261E+00 0.24122430E+03</pdfrwt>
<totfact> 0.63923155E+03</totfact>
</mgrwt>
</event>
<event>
 5    0  0.1856407E+000  0.2955611E+03  0.7546771E-02  0.1087481E+00
         21   -1    0    0  502  501  0.00000000000E+00  0.00000000000E+00  0.29909199396E+03  0.29909199396E+03  0.00000000000E+00 0. -1.
         21   -1    0    0  503  502 -0.00000000000E+00 -0.00000000000E+00 -0.10134271427E+04  0.10134271427E+04  0.00000000000E+00 0. -1.
         25    1    1    2    0    0 -0.17925477299E+03  0.21990995151E+03  0.18012135432E+03  0.35855454633E+03  0.12500000000E+03 0.  0.
         21    1    1    2  503  504  0.14597615914E+03 -0.22327833011E+03 -0.87609366272E+03  0.91580694341E+03  0.00000000000E+00 0. -1.
         21    1    1    2  504  501  0.33278613851E+02  0.33683785969E+01 -0.18362840357E+02  0.38157646942E+02  0.00000000000E+00 0.  1.
<mgrwt>
<rscale>  4 0.29556108E+03</rscale>
<asrwt>0</asrwt>
<pdfrwt beam="1">  1       21 0.46014152E-01 0.29556108E+03</pdfrwt>
<pdfrwt beam="2">  1       21 0.15591187E+00 0.29556108E+03</pdfrwt>
<totfact> 0.11199277E+03</totfact>
</mgrwt>
</event>
<event>
 5    0  0.1856407E+000  0.2376590E+03  0.7546771E-02  0.1121362E+00
         21   -1    0    0  502  501  0.00000000000E+00  0.00000000000E+00  0.10333108287E+03  0.10333108287E+03  0.00000000000E+00 0. -1.
         21   -1    0    0  503  502 -0.00000000000E+00 -0.00000000000E+00 -0.16230314773E+04  0.16230314773E+04  0.00000000000E+00 0.  1.
         25    1    1    2    0    0  0.81374174299E+02  0.18502708793E+03 -0.53460160261E+02  0.24359755386E+03  0.12500000000E+03 0.  0.
         21    1    1    2  503  504  0.73842656818E+01 -0.71567842017E+02 -0.64343009412E+03  0.64744016666E+03  0.00000000000E+00 0.  1.
         21    1    1    2  504  501 -0.88758439981E+02 -0.11345924592E+03 -0.82281014006E+03  0.83532483965E+03  0.00000000000E+00 0.  1.
<mgrwt>
<rscale>  4 0.23765896E+03</rscale>
<asrwt>0</asrwt>
<pdfrwt beam="1">  1       21 0.15897089E-01 0.23765896E+03</pdfrwt>
<pdfrwt beam="2">  1       21 0.24969715E+00 0.23765896E+03</pdfrwt>
<totfact> 0.22483795E+03</totfact>
</mgrwt>
</event>
<event>
 5    0  0.5343803E+000  0.3184544E+03  0.7546771E-02  0.1076363E+00
         21   -1    0    0  502  501  0.00000000000E+00  0.00000000000E+00  0.18066501174E+03  0.18066501174E+03  0.00000000000E+00 0.  1.
         21   -1    0    0  503  502 -0.00000000000E+00 -0.00000000000E+00 -0.56254210244E+03  0.56254210244E+03  0.00000000000E+00 0. -1.
         25    1    1    2    0    0  0.28297829429E+03  0.75574445143E+02 -0.95497053098E+02  0.33246488378E+03  0.12500000000E+03 0.  0.
         21    1    1    2  503  504 -0.26282982869E+03 -0.77962262503E+02 -0.26618423128E+03  0.38211474481E+03  0.00000000000E+00 0. -1.
         21    1    1    2  504  501 -0.20148465606E+02  0.23878173592E+01 -0.20195806319E+02  0.28627485585E+02  0.00000000000E+00 0. -1.
<mgrwt>
<rscale>  4 0.31845441E+03</rscale>
<asrwt>0</asrwt>
<pdfrwt beam="1">  1       21 0.27794618E-01 0.31845441E+03</pdfrwt>
<pdfrwt beam="2">  1       21 0.86544936E-01 0.31845441E+03</pdfrwt>
<totfact> 0.13303855E+04</totfact>
</mgrwt>
</event>
<event>
 5    0  0.1856407E+000  0.2386835E+03  0.7546771E-02  0.1120673E+00
         21   -1    0    0  502  501  0.00000000000E+00  0.00000000000E+00  0.12558565894E+03  0.12558565894E+03  0.00000000000E+00 0.  1.
         21   -1    0    0  503  502 -0.00000000000E+00 -0.00000000000E+00 -0.40593800212E+03  0.40593800212E+03  0.00000000000E+00 0. -1.
         25    1    1    2    0    0 -0.12030796948E+03 -0.16392319416E+03 -0.19801479977E+03  0.31012849278E+03  0.12500000000E+03 0.  0.
         21    1    1    2  503  504  0.98178224869E+02  0.15025524262E+03 -0.72869577350E+02  0.19371519578E+03  0.00000000000E+00 0. -1.
         21    1    1    2  504  501  0.22129744611E+02  0.13667951541E+02 -0.94679660635E+01  0.27679972493E+02  0.00000000000E+00 0. -1.
<mgrwt>
<rscale>  4 0.23868352E+03</rscale>
<asrwt>0</asrwt>
<pdfrwt beam="1">  1       21 0.19320870E-01 0.23868352E+03</pdfrwt>
<pdfrwt beam="2">  1       21 0.62452001E-01 0.23868352E+03</pdfrwt>
<totfact> 0.57334882E+04</totfact>
</mgrwt>
</event>
<event>
 5    0  0.1856407E+000  0.3771758E+03  0.7546771E-02  0.1051983E+00
         21   -1    0    0  502  501  0.00000000000E+00  0.00000000000E+00  0.61767210656E+03  0.61767210656E+03  0.00000000000E+00 0. -1.
         21   -1    0    0  503  502 -0.00000000000E+00 -0.00000000000E+00 -0.43321913265E+03  0.43321913265E+03  0.00000000000E+00 0. -1.
         25    1    1    2    0    0  0.27268028017E+03  0.27650422082E+03  0.36269869812E+03  0.54587953336E+03  0.12500000000E+03 0.  0.
         21    1    1    2  503  504 -0.25800811911E+03 -0.16214884050E+03 -0.14923526181E+02  0.30509530910E+03  0.00000000000E+00 0. -1.
         21    1    1    2  504  501 -0.14672161058E+02 -0.11435538032E+03 -0.16332219803E+03  0.19991639675E+03  0.00000000000E+00 0. -1.
<mgrwt>
<rscale>  4 0.37717578E+03</rscale>
<asrwt>0</asrwt>
<pdfrwt beam="1">  1       21 0.95026477E-01 0.37717578E+03</pdfrwt>
<pdfrwt beam="2">  1       21 0.66649098E-01 0.37717578E+03</pdfrwt>
<totfact> 0.16931682E+03</totfact>
</mgrwt>
</event>
<event>
 5    0  0.1856407E+000  0.2860462E+03  0.7546771E-02  0.1092432E+00
         21   -1    0    0  502  501  0.00000000000E+00  0.00000000000E+00  0.78796187281E+03  0.78796187281E+03  0.00000000000E+00 0.  1.
         21   -1    0    0  503  502 -0.00000000000E+00 -0.00000000000E+00 -0.21023490667E+03  0.21023490667E+03  0.00000000000E+00 0. -1.
         25    1    1    2    0    0 -0.24483728430E+03 -0.79070439070E+02  0.64836716871E+03  0.70866241299E+03  0.12500000000E+03 0.  0.
         21    1    1    2  503  504  0.15293202770E+03  0.42259935014E+02 -0.98417286455E+02  0.18670851474E+03  0.00000000000E+00 0. -1.
         21    1    1    2  504  501  0.91905256597E+02  0.36810504055E+02  0.27777083885E+02  0.10282585175E+03  0.00000000000E+00 0. -1.
<mgrwt>
<rscale>  4 0.28604620E+03</rscale>
<asrwt>0</asrwt>
<pdfrwt beam="1">  1       21 0.12122490E+00 0.28604620E+03</pdfrwt>
<pdfrwt beam="2">  1       21 0.32343832E-01 0.28604620E+03</pdfrwt>
<totfact> 0.44415766E+03</totfact>
</mgrwt>
</event>
<event>
 5    0  0.1856407E+000  0.3019552E+03  0.7546771E-02  0.1084267E+00
         21   -1    0    0  502  501  0.00000000000E+00  0.00000000000E+00  0.33848994516E+03  0.33848994516E+03  0.00000000000E+00 0. -1.
         21   -1    0    0  503  502 -0.00000000000E+00 -0.00000000000E+00 -0.25387689751E+03  0.25387689751E+03  0.00000000000E+00 0.  1.
         25    1    1    2    0    0 -0.20906261687E+03  0.17845100339E+03  0.14340555167E+02  0.30229553405E+03  0.12500000000E+03 0.  0.
         21    1    1    2  503  504  0.11561606326E+03 -0.72653774631E+02  0.11054167518E+02  0.13699576516E+03  0.00000000000E+00 0.  1.
         21    1    1    2  504  501  0.93446553611E+02 -0.10579722876E+03  0.59218324961E+02  0.15307554346E+03  0.00000000000E+00 0.  1.
<mgrwt>
<rscale>  4 0.30195519E+03</rscale>
<asrwt>0</asrwt>
<pdfrwt beam="1">  1       21 0.52075376E-01 0.30195519E+03</pdfrwt>
<pdfrwt beam="2">  1       21 0.39057984E-01 0.30195519E+03</pdfrwt>
<totfact> 0.20973747E+04</totfact>
</mgrwt>
</event>
<event>
 5    0  0.1856407E+000  0.2934068E+03  0.7546771E-02  0.1088584E+00
         21   -1    0    0  502  501  0.00000000000E+00  0.00000000000E+00  0.46436155628E+03  0.46436155628E+03  0.00000000000E+00 0. -1.
         21   -1    0    0  503  502 -0.00000000000E+00 -0.00000000000E+00 -0.82283058402E+03  0.82283058402E+03  0.00000000000E+00 0.  1.
         25    1    1    2    0    0  0.85121557175E+01 -0.26531135368E+03  0.39108796677E+03  0.48891448019E+03  0.12500000000E+03 0.  0.
         21    1    1    2  503  504 -0.38761577598E+00  0.83204109124E+02 -0.14891481066E+03  0.17058339560E+03  0.00000000000E+00 0. -1.
         21    1    1    2  504  501 -0.81245399415E+01  0.18210724456E+03 -0.60064218386E+03  0.62769426451E+03  0.00000000000E+00 0.  1.
<mgrwt>
<rscale>  4 0.29340684E+03</rscale>
<asrwt>0</asrwt>
<pdfrwt beam="1">  1       21 0.71440240E-01 0.29340684E+03</pdfrwt>
<pdfrwt beam="2">  1       21 0.12658932E+00 0.29340684E+03</pdfrwt>
<totfact> 0.75057116E+02</totfact>
</mgrwt>
</event>
<event>
 5    0  0.1966271E+000  0.2663415E+03  0.7546771E-02  0.1103392E+00
         21   -1    0    0  502  501  0.00000000000E+00  0.00000000000E+00  0.17710064486E+03  0.17710064486E+03  0.00000000000E+00 0.  1.
         21   -1    0    0  503  502 -0.00000000000E+00 -0.00000000000E+00 -0.68408013474E+03  0.68408013474E+03  0.00000000000E+00 0.  1.
         25    1    1    2    0    0  0.16588144507E+03  0.16672180896E+03  0.34440326925E+02  0.26855902800E+03  0.12500000000E+03 0.  0.
         21    1    1    2  503  504 -0.37166480007E+02 -0.16165951030E+02 -0.64149463013E+02  0.75880424443E+02  0.00000000000E+00 0.  1.
         21    1    1    2  504  501 -0.12871496506E+03 -0.15055585793E+03 -0.47727035379E+03  0.51674132716E+03  0.00000000000E+00 0.  1.
<mgrwt>
<rscale>  4 0.26634154E+03</rscale>
<asrwt>0</asrwt>
<pdfrwt beam="1">  1       21 0.27246254E-01 0.26634154E+03</pdfrwt>
<pdfrwt beam="2">  1       21 0.10524310E+00 0.26634154E+03</pdfrwt>
<totfact> 0.89068134E+03</totfact>
</mgrwt>
</event>
<event>
 5    0  0.2184228E+000  0.2847434E+03  0.7546771E-02  0.1093126E+00
         21   -1    0    0  502  501  0.00000000000E+00  0.00000000000E+00  0.29858078219E+03  0.29858078219E+03  0.00000000000E+00 0. -1.
         21   -1    0    0  503  502 -0.00000000000E+00 -0.00000000000E+00 -0.32805268637E+03  0.32805268637E+03  0.00000000000E+00 0.  1.
         25    1    1    2    0    0  0.18439314919E+03 -0.17734978291E+03  0.13983394520E+03  0.31722596236E+03  0.12500000000E+03 0.  0.
         21    1    1    2  503  504 -0.16514305220E+03  0.15970000002E+03 -0.16521932914E+03  0.28297304539E+03  0.00000000000E+00 0.  1.
         21    1    1    2  504  501 -0.19250096988E+02  0.17649782892E+02 -0.40865202370E+01  0.26434460801E+02  0.00000000000E+00 0.  1.
<mgrwt>
<rscale>  4 0.28474336E+03</rscale>
<asrwt>0</asrwt>
<pdfrwt beam="1">  1       21 0.45935505E-01 0.28474336E+03</pdfrwt>
<pdfrwt beam="2">  1       21 0.50469644E-01 0.28474336E+03</pdfrwt>
<totfact> 0.16166029E+04</totfact>
</mgrwt>
</event>
<event>
 5    0  0.1856407E+000  0.3165876E+03  0.7546771E-02  0.1077231E+00
         21   -1    0    0  502  501  0.00000000000E+00  0.00000000000E+00  0.30311981645E+03  0.30311981645E+03  0.00000000000E+00 0. -1.
         21   -1    0    0  503  502 -0.00000000000E+00 -0.00000000000E+00 -0.32544316498E+03  0.32544316498E+03  0.00000000000E+00 0.  1.
         25    1    1    2    0    0 -0.61171596526E+02 -0.28436029200E+03  0.24053920969E+02  0.31750012757E+03  0.12500000000E+03 0.  0.
         21    1    1    2  503  504  0.33003347502E+02  0.57703927499E+02  0.26135409143E+02  0.71428452357E+02  0.00000000000E+00 0.  1.
         21    1    1    2  504  501  0.28168249024E+02  0.22665636451E+03 -0.72512678639E+02  0.23963440151E+03  0.00000000000E+00 0.  1.
<mgrwt>
<rscale>  4 0.31658765E+03</rscale>
<asrwt>0</asrwt>
<pdfrwt beam="1">  1       21 0.46633818E-01 0.31658765E+03</pdfrwt>
<pdfrwt beam="2">  1       21 0.50068179E-01 0.31658765E+03</pdfrwt>
<totfact> 0.15723493E+04</totfact>
</mgrwt>
</event>
