<event>
 5    0  0.1856407E+000  0.2780300E+03  0.7546771E-02  0.1096770E+00
         21   -1    0    0  502  501  0.00000000000E+00  0.00000000000E+00  0.81941629116E+03  0.81941629116E+03  0.00000000000E+00 0. -1.
         21   -1    0    0  503  502 -0.00000000000E+00 -0.00000000000E+00 -0.36373883415E+03  0.36373883415E+03  0.00000000000E+00 0. -1.
         25    1    1    2    0    0 -0.62919432506E+02  0.24202519698E+03  0.74093273913E+03  0.79192258136E+03  0.12500000000E+03 0.  0.
         21    1    1    2  503  504 -0.71840234775E+01 -0.26336062242E+02 -0.63909080267E+00  0.27305801669E+02  0.00000000000E+00 0.  1.
         21    1    1    2  504  501  0.70103455983E+02 -0.21568913474E+03 -0.28461619131E+03  0.36392674227E+03  0.00000000000E+00 0. -1.
<mgrwt>
<rscale>  4 0.27803002E+03</rscale>
<asrwt>0</asrwt>
<pdfrwt beam="1">  1       21 0.12606404E+00 0.27803002E+03</pdfrwt>
<pdfrwt beam="2">  1       21 0.55959821E-01 0.27803002E+03</pdfrwt>
<totfact> 0.13082247E+03</totfact>
</mgrwt>
</event>
<event>
 5    0  0.1856407E+000  0.2571372E+03  0.7546771E-02  0.1108876E+00
         21   -1    0    0  502  501  0.00000000000E+00  0.00000000000E+00  0.11722037748E+03  0.11722037748E+03  0.00000000000E+00 0.  1.
         21   -1    0    0  503  502 -0.00000000000E+00 -0.00000000000E+00 -0.66026371446E+03  0.66026371446E+03  0.00000000000E+00 0.  1.
         25    1    1    2    0    0  0.20662249525E+03  0.88327071819E+02 -0.95047291884E+02  0.27414141397E+03  0.12500000000E+03 0.  0.
         21    1    1    2  503  504 -0.14637370771E+03 -0.52600779473E+02 -0.26327478738E+03  0.30578704678E+03  0.00000000000E+00 0.  1.
         21    1    1    2  504  501 -0.60248787537E+02 -0.35726292346E+02 -0.18472125771E+03  0.19755563119E+03  0.00000000000E+00 0.  1.
<mgrwt>
<rscale>  4 0.25713718E+03</rscale>
<asrwt>0</asrwt>
<pdfrwt beam="1">  1       21 0.18033904E-01 0.25713718E+03</pdfrwt>
<pdfrwt beam="2">  1       21 0.10157904E+00 0.25713718E+03</pdfrwt>
<totfact> 0.21357536E+04</totfact>
</mgrwt>
</event>
<event>
 5    0  0.1856407E+000  0.2319959E+03  0.7546771E-02  0.1125243E+00
         21   -1    0    0  502  501  0.00000000000E+00  0.00000000000E+00  0.11286560922E+03  0.11286560922E+03  0.00000000000E+00 0. -1.
         21   -1    0    0  503  502 -0.00000000000E+00 -0.00000000000E+00 -0.82491475382E+03  0.82491475382E+03  0.00000000000E+00 0. -1.
         25    1    1    2    0    0 -0.22885292603E+03 -0.65645202017E+02 -0.25244469158E+03  0.36883095939E+03  0.12500000000E+03 0.  0.
         21    1    1    2  503  504  0.10409112631E+03  0.15001913195E+03 -0.21953774863E+03  0.28554776413E+03  0.00000000000E+00 0. -1.
         21    1    1    2  504  501  0.12476179972E+03 -0.84373929932E+02 -0.24006670439E+03  0.28340163951E+03  0.00000000000E+00 0. -1.
<mgrwt>
<rscale>  4 0.23199595E+03</rscale>
<asrwt>0</asrwt>
<pdfrwt beam="1">  1       21 0.17363940E-01 0.23199595E+03</pdfrwt>
<pdfrwt beam="2">  1       21 0.12690996E+00 0.23199595E+03</pdfrwt>
<totfact> 0.13428279E+04</totfact>
</mgrwt>
</event>
<event>
 5    0  0.1856407E+000  0.2695758E+03  0.7546771E-02  0.1101523E+00
         21   -1    0    0  502  501  0.00000000000E+00  0.00000000000E+00  0.86620425303E+03  0.86620425303E+03  0.00000000000E+00 0.  1.
         21   -1    0    0  503  502 -0.00000000000E+00 -0.00000000000E+00 -0.19513662699E+03  0.19513662699E+03  0.00000000000E+00 0. -1.
         25    1    1    2    0    0  0.22920951386E+03 -0.80492361875E+02  0.73999403673E+03  0.78881695973E+03  0.12500000000E+03 0.  0.
         21    1    1    2  503  504 -0.23917667879E+02  0.25822865898E+02  0.21923691521E+02  0.41467137469E+02  0.00000000000E+00 0. -1.
         21    1    1    2  504  501 -0.20529184598E+03  0.54669495977E+02 -0.90850102209E+02  0.23105678282E+03  0.00000000000E+00 0. -1.
<mgrwt>
<rscale>  4 0.26957579E+03</rscale>
<asrwt>0</asrwt>
<pdfrwt beam="1">  1       21 0.13326219E+00 0.26957579E+03</pdfrwt>
<pdfrwt beam="2">  1       21 0.30021020E-01 0.26957579E+03</pdfrwt>
<totfact> 0.40845463E+03</totfact>
</mgrwt>
</event>
<event>
 5    0  0.1856407E+000  0.2498413E+03  0.7546771E-02  0.1113405E+00
         21   -1    0    0  502  501  0.00000000000E+00  0.00000000000E+00  0.35319089065E+03  0.35319089065E+03  0.00000000000E+00 0. -1.
         21   -1    0    0  503  502 -0.00000000000E+00 -0.00000000000E+00 -0.53946620713E+03  0.53946620713E+03  0.00000000000E+00 0. -1.
         25    1    1    2    0    0 -0.86234482949E+02 -0.19839171188E+03  0.28134075185E+03  0.37626224371E+03  0.12500000000E+03 0.  0.
         21    1    1    2  503  504  0.11180052781E+02  0.19798601032E+02 -0.28600225280E+02  0.36536982210E+02  0.00000000000E+00 0. -1.
         21    1    1    2  504  501  0.75054430168E+02  0.17859311085E+03 -0.43901584305E+03  0.47985787185E+03  0.00000000000E+00 0. -1.
<mgrwt>
<rscale>  4 0.24984126E+03</rscale>
<asrwt>0</asrwt>
<pdfrwt beam="1">  1       21 0.54337060E-01 0.24984126E+03</pdfrwt>
<pdfrwt beam="2">  1       21 0.82994801E-01 0.24984126E+03</pdfrwt>
<totfact> 0.38828731E+03</totfact>
</mgrwt>
</event>
<event>
 5    0  0.1856407E+000  0.2410166E+03  0.7546771E-02  0.1119117E+00
         21   -1    0    0  502  501  0.00000000000E+00  0.00000000000E+00  0.84887478958E+03  0.84887478958E+03  0.00000000000E+00 0.  1.
         21   -1    0    0  503  502 -0.00000000000E+00 -0.00000000000E+00 -0.16421350915E+03  0.16421350915E+03  0.00000000000E+00 0.  1.
         25    1    1    2    0    0  0.48064982313E+02 -0.21811717342E+03  0.71113922002E+03  0.75579715144E+03  0.12500000000E+03 0.  0.
         21    1    1    2  503  504 -0.70406694707E+02  0.63078429525E+02 -0.34029748730E+02  0.10046897396E+03  0.00000000000E+00 0.  1.
         21    1    1    2  504  501  0.22341712395E+02  0.15503874390E+03  0.75518091366E+01  0.15682217332E+03  0.00000000000E+00 0.  1.
<mgrwt>
<rscale>  4 0.24101660E+03</rscale>
<asrwt>0</asrwt>
<pdfrwt beam="1">  1       21 0.13059612E+00 0.24101660E+03</pdfrwt>
<pdfrwt beam="2">  1       21 0.25263617E-01 0.24101660E+03</pdfrwt>
<totfact> 0.61236908E+03</totfact>
</mgrwt>
</event>
<event>
 5    0  0.1856407E+000  0.2669840E+03  0.7546771E-02  0.1103018E+00
         21   -1    0    0  502  501  0.00000000000E+00  0.00000000000E+00  0.13550419371E+03  0.13550419371E+03  0.00000000000E+00 0.  1.
         21   -1    0    0  503  502 -0.00000000000E+00 -0.00000000000E+00 -0.23784919875E+04  0.23784919875E+04  0.00000000000E+00 0.  1.
         25    1    1    2    0    0  0.23504506962E+03  0.20230175785E+02 -0.10143197153E+02  0.26717658807E+03  0.12500000000E+03 0.  0.
         21    1    1    2  503  504 -0.32183576707E+02 -0.34056776781E+02 -0.40817335121E+03  0.41085414844E+03  0.00000000000E+00 0. -1.
         21    1    1    2  504  501 -0.20286149291E+03  0.13826600996E+02 -0.18246712454E+04  0.18359654447E+04  0.00000000000E+00 0.  1.
<mgrwt>
<rscale>  4 0.26698398E+03</rscale>
<asrwt>0</asrwt>
<pdfrwt beam="1">  1       21 0.20846802E-01 0.26698398E+03</pdfrwt>
<pdfrwt beam="2">  1       21 0.36592180E+00 0.26698398E+03</pdfrwt>
<totfact> 0.27092956E+02</totfact>
</mgrwt>
</event>
<event>
 5    0  0.1856407E+000  0.2516621E+03  0.7546771E-02  0.1112259E+00
         21   -1    0    0  502  501  0.00000000000E+00  0.00000000000E+00  0.20837471792E+03  0.20837471792E+03  0.00000000000E+00 0.  1.
         21   -1    0    0  503  502 -0.00000000000E+00 -0.00000000000E+00 -0.66859603147E+03  0.66859603147E+03  0.00000000000E+00 0.  1.
         25    1    1    2    0    0  0.57319821189E+02 -0.21076822606E+03  0.10240348109E+03  0.27169887735E+03  0.12500000000E+03 0.  0.
         21    1    1    2  503  504 -0.46623205690E+02  0.16026529278E+03 -0.47618981651E+03  0.50459432095E+03  0.00000000000E+00 0.  1.
         21    1    1    2  504  501 -0.10696615499E+02  0.50502933273E+02 -0.86434978124E+02  0.10067755110E+03  0.00000000000E+00 0.  1.
<mgrwt>
<rscale>  4 0.25166209E+03</rscale>
<asrwt>0</asrwt>
<pdfrwt beam="1">  1       21 0.32057649E-01 0.25166209E+03</pdfrwt>
<pdfrwt beam="2">  1       21 0.10286093E+00 0.25166209E+03</pdfrwt>
<totfact> 0.69021489E+03</totfact>
</mgrwt>
</event>
<event>
 5    0  0.1856407E+000  0.3607334E+03  0.7546771E-02  0.1058294E+00
         21   -1    0    0  502  501  0.00000000000E+00  0.00000000000E+00  0.25682314268E+03  0.25682314268E+03  0.00000000000E+00 0.  1.
         21   -1    0    0  503  502 -0.00000000000E+00 -0.00000000000E+00 -0.50361944639E+03  0.50361944639E+03  0.00000000000E+00 0.  1.
         25    1    1    2    0    0 -0.23930771256E+03  0.23923926763E+03 -0.11181515284E+03  0.37766550924E+03  0.12500000000E+03 0.  0.
         21    1    1    2  503  504  0.16639469194E+03 -0.92350503481E+02 -0.10046116124E+03  0.21519352666E+03  0.00000000000E+00 0.  1.
         21    1    1    2  504  501  0.72913020621E+02 -0.14688876415E+03 -0.34519989633E+02  0.16758355317E+03  0.00000000000E+00 0.  1.
<mgrwt>
<rscale>  4 0.36073343E+03</rscale>
<asrwt>0</asrwt>
<pdfrwt beam="1">  1       21 0.39511253E-01 0.36073343E+03</pdfrwt>
<pdfrwt beam="2">  1       21 0.77479914E-01 0.36073343E+03</pdfrwt>
<totfact> 0.83585551E+03</totfact>
</mgrwt>
</event>
<event>
 5    0  0.1856407E+000  0.2420197E+03  0.7546771E-02  0.1118455E+00
         21   -1    0    0  502  501  0.00000000000E+00  0.00000000000E+00  0.48157206744E+03  0.48157206744E+03  0.00000000000E+00 0. -1.
         21   -1    0    0  503  502 -0.00000000000E+00 -0.00000000000E+00 -0.24550778964E+04  0.24550778964E+04  0.00000000000E+00 0. -1.
         25    1    1    2    0    0  0.17875418945E+03  0.10485924832E+03  0.44620582905E+03  0.50761517322E+03  0.12500000000E+03 0.  0.
         21    1    1    2  503  504 -0.11501498194E+03 -0.58431405709E+02 -0.12406733031E+04  0.12473623853E+04  0.00000000000E+00 0. -1.
         21    1    1    2  504  501 -0.63739207505E+02 -0.46427842610E+02 -0.11790383549E+04  0.11816724053E+04  0.00000000000E+00 0. -1.
<mgrwt>
<rscale>  4 0.24201967E+03</rscale>
<asrwt>0</asrwt>
<pdfrwt beam="1">  1       21 0.74088011E-01 0.24201967E+03</pdfrwt>
<pdfrwt beam="2">  1       21 0.37770429E+00 0.24201967E+03</pdfrwt>
<totfact> 0.17854648E+01</totfact>
</mgrwt>
</event>
<event>
 5    0  0.6978638E+000  0.2589332E+03  0.7546771E-02  0.1107786E+00
         21   -1    0    0  502  501  0.00000000000E+00  0.00000000000E+00  0.71778208920E+03  0.71778208920E+03  0.00000000000E+00 0.  1.
         21   -1    0    0  503  502 -0.00000000000E+00 -0.00000000000E+00 -0.11261023942E+03  0.11261023942E+03  0.00000000000E+00 0.  1.
         25    1    1    2    0    0 -0.13621590582E+03  0.18653922001E+03  0.48296822549E+03  0.54975900214E+03  0.12500000000E+03 0.  0.
         21    1    1    2  503  504  0.10594307023E+03 -0.19245067707E+03  0.11838849913E+03  0.24955366950E+03  0.00000000000E+00 0.  1.
         21    1    1    2  504  501  0.30272835584E+02  0.59114570599E+01  0.38151251640E+01  0.31079656995E+02  0.00000000000E+00 0. -1.
<mgrwt>
<rscale>  4 0.25893325E+03</rscale>
<asrwt>0</asrwt>
<pdfrwt beam="1">  1       21 0.11042801E+00 0.25893325E+03</pdfrwt>
<pdfrwt beam="2">  1       21 0.17324653E-01 0.25893325E+03</pdfrwt>
<totfact> 0.18774074E+04</totfact>
</mgrwt>
</event>
<event>
 5    0  0.2931720E+000  0.2443579E+03  0.7546771E-02  0.1116923E+00
         21   -1    0    0  502  501  0.00000000000E+00  0.00000000000E+00  0.30172916101E+03  0.30172916101E+03  0.00000000000E+00 0.  1.
         21   -1    0    0  503  502 -0.00000000000E+00 -0.00000000000E+00 -0.35506789305E+03  0.35506789305E+03  0.00000000000E+00 0.  1.
         25    1    1    2    0    0 -0.20433239738E+03 -0.48311912645E+02  0.20553354290E+03  0.31930362788E+03  0.12500000000E+03 0.  0.
         21    1    1    2  503  504  0.18699067067E+03  0.31142004582E+02 -0.21025124754E+03  0.28309172093E+03  0.00000000000E+00 0.  1.
         21    1    1    2  504  501  0.17341726706E+02  0.17169908063E+02 -0.48621027401E+02  0.54401705245E+02  0.00000000000E+00 0.  1.
<mgrwt>
<rscale>  4 0.24435787E+03</rscale>
<asrwt>0</asrwt>
<pdfrwt beam="1">  1       21 0.46419871E-01 0.24435787E+03</pdfrwt>
<pdfrwt beam="2">  1       21 0.54625830E-01 0.24435787E+03</pdfrwt>
<totfact> 0.13640553E+04</totfact>
</mgrwt>
</event>
<event>
 5    0  0.2688633E+000  0.2785017E+03  0.7546771E-02  0.1096510E+00
         21   -1    0    0  502  501  0.00000000000E+00  0.00000000000E+00  0.23038332405E+03  0.23038332405E+03  0.00000000000E+00 0.  1.
         21   -1    0    0  503  502 -0.00000000000E+00 -0.00000000000E+00 -0.45182597052E+03  0.45182597052E+03  0.00000000000E+00 0.  1.
         25    1    1    2    0    0  0.15263998571E+00 -0.26017322136E+03  0.38040850473E+02  0.29113954509E+03  0.12500000000E+03 0.  0.
         21    1    1    2  503  504  0.46790872190E+02  0.34000217014E+02 -0.79092016062E+02  0.97984424691E+02  0.00000000000E+00 0.  1.
         21    1    1    2  504  501 -0.46943512175E+02  0.22617300434E+03 -0.18039148089E+03  0.29308532479E+03  0.00000000000E+00 0.  1.
<mgrwt>
<rscale>  4 0.27850166E+03</rscale>
<asrwt>0</asrwt>
<pdfrwt beam="1">  1       21 0.35443589E-01 0.27850166E+03</pdfrwt>
<pdfrwt beam="2">  1       21 0.69511687E-01 0.27850166E+03</pdfrwt>
<totfact> 0.13769282E+04</totfact>
</mgrwt>
</event>
