<event>
 5    0  0.1911311E+001  0.2250175E+03  0.7546771E-02  0.1130197E+00
         21   -1    0    0  504  501  0.00000000000E+00  0.00000000000E+00  0.31772729926E+03  0.31772729926E+03  0.00000000000E+00 0. -1.
         21   -1    0    0  503  502 -0.00000000000E+00 -0.00000000000E+00 -0.11953155964E+04  0.11953155964E+04  0.00000000000E+00 0. -1.
         25    1    1    2    0    0  0.21800896009E+02 -0.21682445013E+03  0.12000499423E+03  0.27841393622E+03  0.12500000000E+03 0.  0.
         21    1    1    2  503  501 -0.13407717290E+02  0.18542290705E+03 -0.11059683960E+04  0.11214845136E+04  0.00000000000E+00 0. -1.
         21    1    1    2  504  502 -0.83931787191E+01  0.31401543080E+02  0.10837510454E+03  0.11314444591E+03  0.00000000000E+00 0. -1.
<mgrwt>
<rscale>  4 0.22501745E+03</rscale>
<asrwt>0</asrwt>
<pdfrwt beam="1">  1       21 0.48881121E-01 0.22501745E+03</pdfrwt>
<pdfrwt beam="2">  1       21 0.18389471E+00 0.22501745E+03</pdfrwt>
<totfact> 0.66042324E+02</totfact>
</mgrwt>
</event>
<event>
 5    0  0.1911311E+001  0.2498913E+03  0.7546771E-02  0.1113374E+00
         21   -1    0    0  502  501  0.00000000000E+00  0.00000000000E+00  0.10393962138E+03  0.10393962138E+03  0.00000000000E+00 0. -1.
         21   -1    0    0  504  502 -0.00000000000E+00 -0.00000000000E+00 -0.78103835665E+03  0.78103835665E+03  0.00000000000E+00 0. -1.
         25    1    1    2    0    0  0.23082431518E+03  0.67962990362E+02 -0.33119662879E+03  0.42803625951E+03  0.12500000000E+03 0.  0.
         21    1    1    2  503  501 -0.20522017684E+03 -0.79571965692E+01 -0.16128086150E+03  0.26113244579E+03  0.00000000000E+00 0. -1.
         21    1    1    2  504  503 -0.25604138336E+02 -0.60005793793E+02 -0.18462124497E+03  0.19580927272E+03  0.00000000000E+00 0. -1.
<mgrwt>
<rscale>  4 0.24989130E+03</rscale>
<asrwt>0</asrwt>
<pdfrwt beam="1">  1       21 0.15990712E-01 0.24989130E+03</pdfrwt>
<pdfrwt beam="2">  1       21 0.12015974E+00 0.24989130E+03</pdfrwt>
<totfact> 0.17760723E+04</totfact>
</mgrwt>
</event>
<event>
 5    0  0.1911311E+001  0.3132628E+03  0.7546771E-02  0.1078792E+00
         21   -1    0    0  504  501  0.00000000000E+00  0.00000000000E+00  0.75090062249E+03  0.75090062249E+03  0.00000000000E+00 0.  1.
         21   -1    0    0  503  502 -0.00000000000E+00 -0.00000000000E+00 -0.11453441323E+04  0.11453441323E+04  0.00000000000E+00 0.  1.
         25    1    1    2    0    0  0.42596734851E+03  0.19006677357E+03 -0.38165856341E+03  0.61551752163E+03  0.12500000000E+03 0.  0.
         21    1    1    2  503  501 -0.20206173650E+03 -0.27556584883E+02 -0.59886077338E+03  0.63263143821E+03  0.00000000000E+00 0.  1.
         21    1    1    2  504  502 -0.22390561201E+03 -0.16251018868E+03  0.58607582695E+03  0.64809579497E+03  0.00000000000E+00 0.  1.
<mgrwt>
<rscale>  4 0.31326279E+03</rscale>
<asrwt>0</asrwt>
<pdfrwt beam="1">  1       21 0.11552317E+00 0.31326279E+03</pdfrwt>
<pdfrwt beam="2">  1       21 0.17620679E+00 0.31326279E+03</pdfrwt>
<totfact> 0.98188150E+01</totfact>
</mgrwt>
</event>
<event>
 5    0  0.1911311E+001  0.2333013E+03  0.7546771E-02  0.1124338E+00
         21   -1    0    0  504  501  0.00000000000E+00  0.00000000000E+00  0.11460142590E+04  0.11460142590E+04  0.00000000000E+00 0. -1.
         21   -1    0    0  503  502 -0.00000000000E+00 -0.00000000000E+00 -0.12474310950E+04  0.12474310950E+04  0.00000000000E+00 0. -1.
         25    1    1    2    0    0  0.99760965017E+02 -0.20215399239E+03  0.10933538628E+04  0.11233281605E+04  0.12500000000E+03 0.  0.
         21    1    1    2  503  501 -0.10640940517E+03  0.16554574788E+03 -0.12128767471E+04  0.12287385238E+04  0.00000000000E+00 0. -1.
         21    1    1    2  504  502  0.66484401546E+01  0.36608244507E+02  0.18106048240E+02  0.41378669689E+02  0.00000000000E+00 0. -1.
<mgrwt>
<rscale>  4 0.23330128E+03</rscale>
<asrwt>0</asrwt>
<pdfrwt beam="1">  1       21 0.17630989E+00 0.23330128E+03</pdfrwt>
<pdfrwt beam="2">  1       21 0.19191248E+00 0.23330128E+03</pdfrwt>
<totfact> 0.27447217E+01</totfact>
</mgrwt>
</event>
