<event>
 5    0  0.5993533E-001  0.3214978E+03  0.7546771E-02  0.1074962E+00
         21   -1    0    0  503  502  0.00000000000E+00  0.00000000000E+00  0.96320535931E+02  0.96320535931E+02  0.00000000000E+00 0.  1.
          2   -1    0    0  502    0 -0.00000000000E+00 -0.00000000000E+00 -0.22697659668E+04  0.22697659668E+04  0.00000000000E+00 0.  1.
         25    1    1    2    0    0 -0.28659361292E+03 -0.70384092289E+02 -0.24699339620E+03  0.40462397010E+03  0.12500000000E+03 0.  0.
         21    1    1    2  503  501  0.27843305845E+03  0.12851364826E+03 -0.17052534171E+04  0.17326078443E+04  0.00000000000E+00 0.  1.
          2    1    1    2  501    0  0.81605544680E+01 -0.58129555971E+02 -0.22119861762E+03  0.22885468831E+03  0.00000000000E+00 0.  1.
<mgrwt>
<rscale>  4 0.32149779E+03</rscale>
<asrwt>0</asrwt>
<pdfrwt beam="1">  1       21 0.14818546E-01 0.32149779E+03</pdfrwt>
<pdfrwt beam="2">  1        2 0.34919472E+00 0.32149779E+03</pdfrwt>
<totfact> 0.26258948E+03</totfact>
</mgrwt>
</event>
<event>
 5    0  0.5993533E-001  0.3612230E+03  0.7546771E-02  0.1058101E+00
         21   -1    0    0  501  502  0.00000000000E+00  0.00000000000E+00  0.11524725464E+04  0.11524725464E+04  0.00000000000E+00 0. -1.
         -4   -1    0    0    0  501 -0.00000000000E+00 -0.00000000000E+00 -0.78642565353E+03  0.78642565353E+03  0.00000000000E+00 0. -1.
         25    1    1    2    0    0  0.30427064694E+03 -0.14982594404E+03  0.10737793272E+04  0.11329852089E+04  0.12500000000E+03 0.  0.
         21    1    1    2  501  501  0.88951217698E+01  0.32889376887E+02 -0.15998154340E+02  0.37640074995E+02  0.00000000000E+00 0. -1.
         -4    1    1    2    0  502 -0.31316576871E+03  0.11693656716E+03 -0.69173427997E+03  0.76827291604E+03  0.00000000000E+00 0. -1.
<mgrwt>
<rscale>  4 0.36122303E+03</rscale>
<asrwt>0</asrwt>
<pdfrwt beam="1">  1       21 0.17730347E+00 0.36122303E+03</pdfrwt>
<pdfrwt beam="2">  1       -4 0.12098856E+00 0.36122303E+03</pdfrwt>
<totfact> 0.39519107E+00</totfact>
</mgrwt>
</event>
<event>
 5    0  0.5993533E-001  0.2537899E+03  0.7546771E-02  0.1110933E+00
         21   -1    0    0  503  502  0.00000000000E+00  0.00000000000E+00  0.14019841998E+03  0.14019841998E+03  0.00000000000E+00 0.  1.
          2   -1    0    0  502    0 -0.00000000000E+00 -0.00000000000E+00 -0.44135945603E+03  0.44135945603E+03  0.00000000000E+00 0.  1.
         25    1    1    2    0    0  0.22075246394E+03 -0.72585769579E+01 -0.82993534202E+02  0.26701547520E+03  0.12500000000E+03 0.  0.
         21    1    1    2  503  501 -0.34464750157E+02 -0.17401988608E+02 -0.34474302066E+02  0.51760271578E+02  0.00000000000E+00 0.  1.
          2    1    1    2  501    0 -0.18628771378E+03  0.24660565566E+02 -0.18369319978E+03  0.26278212924E+03  0.00000000000E+00 0.  1.
<mgrwt>
<rscale>  4 0.25378995E+03</rscale>
<asrwt>0</asrwt>
<pdfrwt beam="1">  1       21 0.21568988E-01 0.25378995E+03</pdfrwt>
<pdfrwt beam="2">  1        2 0.67901455E-01 0.25378995E+03</pdfrwt>
<totfact> 0.17747209E+04</totfact>
</mgrwt>
</event>
<event>
 5    0  0.5993533E-001  0.2513696E+03  0.7546771E-02  0.1112442E+00
         21   -1    0    0  503  502  0.00000000000E+00  0.00000000000E+00  0.76446592298E+03  0.76446592298E+03  0.00000000000E+00 0. -1.
          2   -1    0    0  502    0 -0.00000000000E+00 -0.00000000000E+00 -0.13277912920E+03  0.13277912920E+03  0.00000000000E+00 0. -1.
         25    1    1    2    0    0 -0.21262243412E+03 -0.48511503828E+02  0.61780842319E+03  0.66698869050E+03  0.12500000000E+03 0.  0.
         21    1    1    2  503  501  0.41448369507E+02  0.24099574860E+02  0.30068598842E+02  0.56593970346E+02  0.00000000000E+00 0.  1.
          2    1    1    2  501    0  0.17117406461E+03  0.24411928968E+02 -0.16190228246E+02  0.17366239133E+03  0.00000000000E+00 0. -1.
<mgrwt>
<rscale>  4 0.25136958E+03</rscale>
<asrwt>0</asrwt>
<pdfrwt beam="1">  1       21 0.11761014E+00 0.25136958E+03</pdfrwt>
<pdfrwt beam="2">  1        2 0.20427559E-01 0.25136958E+03</pdfrwt>
<totfact> 0.17965560E+03</totfact>
</mgrwt>
</event>
<event>
 5    0  0.5993533E-001  0.3326712E+03  0.7546771E-02  0.1069961E+00
          2   -1    0    0  502    0 -0.00000000000E+00  0.00000000000E+00  0.21754298588E+04  0.21754298588E+04  0.00000000000E+00 0. -1.
         21   -1    0    0  503  502  0.00000000000E+00 -0.00000000000E+00 -0.23644063012E+03  0.23644063012E+03  0.00000000000E+00 0. -1.
         25    1    1    2    0    0  0.19533995336E+03  0.25018056227E+03 -0.76197783071E+02  0.34954128978E+03  0.12500000000E+03 0.  0.
         21    1    1    2  503  501 -0.10836391946E+03 -0.79011415336E+02  0.22544835157E+03  0.26232137164E+03  0.00000000000E+00 0. -1.
          2    1    1    2  501    0 -0.86976033902E+02 -0.17116914693E+03  0.17897386602E+04  0.18000078275E+04  0.00000000000E+00 0. -1.
<mgrwt>
<rscale>  4 0.33267121E+03</rscale>
<asrwt>0</asrwt>
<pdfrwt beam="1">  1       21 0.36375483E-01 0.33267121E+03</pdfrwt>
<pdfrwt beam="2">  1        2 0.33468150E+00 0.33267121E+03</pdfrwt>
<totfact> 0.52262893E+02</totfact>
</mgrwt>
</event>
<event>
 5    0  0.5993533E-001  0.3203578E+03  0.7546771E-02  0.1075972E+00
          2   -1    0    0  502    0 -0.00000000000E+00  0.00000000000E+00  0.17826804166E+04  0.17826804166E+04  0.00000000000E+00 0.  1.
         21   -1    0    0  503  502  0.00000000000E+00 -0.00000000000E+00 -0.28579217120E+03  0.28579217120E+03  0.00000000000E+00 0. -1.
         25    1    1    2    0    0 -0.18341972773E+03 -0.22512179349E+03 -0.17827915632E+03  0.36294775933E+03  0.12500000000E+03 0.  0.
         21    1    1    2  503  501  0.14382845329E+03  0.83397726851E+02  0.71011655841E+03  0.72931977304E+03  0.00000000000E+00 0.  1.
          2    1    1    2  501    0  0.39591274442E+02  0.14172406664E+03  0.96505084333E+03  0.97620505545E+03  0.00000000000E+00 0.  1.
<mgrwt>
<rscale>  4 0.31929935E+03</rscale>
<asrwt>0</asrwt>
<pdfrwt beam="1">  1       21 0.43968027E-01 0.32035779E+03</pdfrwt>
<pdfrwt beam="2">  1        2 0.27425852E+00 0.32035779E+03</pdfrwt>
<totfact> 0.57631082E+02</totfact>
</mgrwt>
</event>
<event>
 5    0  0.5993533E-001  0.2453337E+03  0.7546771E-02  0.1116290E+00
         -2   -1    0    0    0  501 -0.00000000000E+00  0.00000000000E+00  0.39811573029E+03  0.39811573029E+03  0.00000000000E+00 0.  1.
         21   -1    0    0  501  502  0.00000000000E+00 -0.00000000000E+00 -0.31680768075E+03  0.31680768075E+03  0.00000000000E+00 0.  1.
         25    1    1    2    0    0 -0.24043111258E+03 -0.10261492789E+03 -0.13052782922E+03  0.31780411816E+03  0.12500000000E+03 0.  0.
         21    1    1    2  501  501  0.16601216358E+03 -0.28702949411E+02  0.49817278110E+02  0.17568625148E+03  0.00000000000E+00 0.  1.
         -2    1    1    2    0  502  0.74418949001E+02  0.13131787730E+03  0.16201860065E+03  0.22143304140E+03  0.00000000000E+00 0.  1.
<mgrwt>
<rscale>  4 0.24533373E+03</rscale>
<asrwt>0</asrwt>
<pdfrwt beam="1">  1       21 0.48739643E-01 0.24533373E+03</pdfrwt>
<pdfrwt beam="2">  1       -2 0.61248574E-01 0.24533373E+03</pdfrwt>
<totfact> 0.81385939E+02</totfact>
</mgrwt>
</event>
<event>
 5    0  0.5993533E-001  0.4527614E+03  0.7546771E-02  0.1048742E+00
          2   -1    0    0  502    0 -0.00000000000E+00  0.00000000000E+00  0.13809284688E+04  0.13809284688E+04  0.00000000000E+00 0. -1.
         21   -1    0    0  503  502  0.00000000000E+00 -0.00000000000E+00 -0.13465965705E+03  0.13465965705E+03  0.00000000000E+00 0. -1.
         25    1    1    2    0    0  0.35232224479E+01  0.20386498957E+03  0.61045046717E+02  0.24682958655E+03  0.12500000000E+03 0.  0.
         21    1    1    2  503  501  0.70044020017E+02 -0.28997690696E+03  0.10540688638E+04  0.10954697353E+04  0.00000000000E+00 0. -1.
          2    1    1    2  501    0 -0.73567242464E+02  0.86111917399E+02  0.13115490126E+03  0.17328880404E+03  0.00000000000E+00 0. -1.
<mgrwt>
<rscale>  4 0.38598903E+03</rscale>
<asrwt>0</asrwt>
<pdfrwt beam="1">  1       21 0.20716871E-01 0.45276137E+03</pdfrwt>
<pdfrwt beam="2">  1        2 0.21245052E+00 0.45276137E+03</pdfrwt>
<totfact> 0.40603503E+03</totfact>
</mgrwt>
</event>
<event>
 5    0  0.5993533E-001  0.3825559E+03  0.7546771E-02  0.1049993E+00
         21   -1    0    0  503  502  0.00000000000E+00  0.00000000000E+00  0.22101205920E+03  0.22101205920E+03  0.00000000000E+00 0. -1.
          2   -1    0    0  502    0 -0.00000000000E+00 -0.00000000000E+00 -0.17780523172E+04  0.17780523172E+04  0.00000000000E+00 0. -1.
         25    1    1    2    0    0 -0.35977546366E+03  0.35856165454E+02  0.17424917738E+02  0.38295257749E+03  0.12500000000E+03 0.  0.
         21    1    1    2  503  501  0.29628700676E+02  0.29313276707E+01 -0.86951494879E+02  0.91907644118E+02  0.00000000000E+00 0. -1.
          2    1    1    2  501    0  0.33014676298E+03 -0.38787493125E+02 -0.14875136809E+04  0.15242041548E+04  0.00000000000E+00 0. -1.
<mgrwt>
<rscale>  4 0.38255594E+03</rscale>
<asrwt>0</asrwt>
<pdfrwt beam="1">  1       21 0.34001856E-01 0.38255594E+03</pdfrwt>
<pdfrwt beam="2">  1        2 0.27354650E+00 0.38255594E+03</pdfrwt>
<totfact> 0.95552553E+02</totfact>
</mgrwt>
</event>
<event>
 5    0  0.5993533E-001  0.3292100E+03  0.7546771E-02  0.1071487E+00
          2   -1    0    0  502    0 -0.00000000000E+00  0.00000000000E+00  0.62756486690E+03  0.62756486690E+03  0.00000000000E+00 0. -1.
         21   -1    0    0  503  502  0.00000000000E+00 -0.00000000000E+00 -0.25129682114E+03  0.25129682114E+03  0.00000000000E+00 0. -1.
         25    1    1    2    0    0  0.30239552276E+03  0.36209662512E+02 -0.70944738758E+02  0.33676749814E+03  0.12500000000E+03 0.  0.
         21    1    1    2  503  501 -0.27979375240E+03 -0.29133724527E+02  0.39683565480E+03  0.48642764591E+03  0.00000000000E+00 0. -1.
          2    1    1    2  501    0 -0.22601770362E+02 -0.70759379854E+01  0.50377129715E+02  0.55666543994E+02  0.00000000000E+00 0. -1.
<mgrwt>
<rscale>  4 0.32920995E+03</rscale>
<asrwt>0</asrwt>
<pdfrwt beam="1">  1       21 0.38661050E-01 0.32920995E+03</pdfrwt>
<pdfrwt beam="2">  1        2 0.96548440E-01 0.32920995E+03</pdfrwt>
<totfact> 0.37278042E+03</totfact>
</mgrwt>
</event>
<event>
 5    0  0.5993533E-001  0.2375405E+03  0.7546771E-02  0.1121442E+00
          1   -1    0    0  502    0 -0.00000000000E+00  0.00000000000E+00  0.11391203572E+04  0.11391203572E+04  0.00000000000E+00 0. -1.
         21   -1    0    0  503  502  0.00000000000E+00 -0.00000000000E+00 -0.78012218628E+02  0.78012218628E+02  0.00000000000E+00 0. -1.
         25    1    1    2    0    0 -0.10873046865E+03  0.17022980662E+03  0.14870301053E+03  0.28024647583E+03  0.12500000000E+03 0.  0.
         21    1    1    2  503  501  0.25909818971E+02 -0.45514938420E+02  0.12761442217E+03  0.13794335462E+03  0.00000000000E+00 0. -1.
          1    1    1    2  501    0  0.82820649680E+02 -0.12471486820E+03  0.78479070586E+03  0.79894274537E+03  0.00000000000E+00 0. -1.
<mgrwt>
<rscale>  4 0.23754053E+03</rscale>
<asrwt>0</asrwt>
<pdfrwt beam="1">  1       21 0.12001881E-01 0.23754053E+03</pdfrwt>
<pdfrwt beam="2">  1        1 0.17524927E+00 0.23754053E+03</pdfrwt>
<totfact> 0.82500535E+03</totfact>
</mgrwt>
</event>
<event>
 5    0  0.5993533E-001  0.2521783E+03  0.7546771E-02  0.1111936E+00
         21   -1    0    0  503  502  0.00000000000E+00  0.00000000000E+00  0.20760807954E+04  0.20760807954E+04  0.00000000000E+00 0.  1.
          1   -1    0    0  502    0 -0.00000000000E+00 -0.00000000000E+00 -0.58942288940E+02  0.58942288940E+02  0.00000000000E+00 0.  1.
         25    1    1    2    0    0 -0.20783180661E+03  0.95879781300E+02  0.11361915555E+04  0.11657372102E+04  0.12500000000E+03 0.  0.
         21    1    1    2  503  501  0.10963666748E+03  0.12263117185E+03  0.37482528033E+03  0.40933188728E+03  0.00000000000E+00 0.  1.
          1    1    1    2  501    0  0.98195139123E+02 -0.21851095315E+03  0.50612167055E+03  0.55995398685E+03  0.00000000000E+00 0.  1.
<mgrwt>
<rscale>  4 0.25217834E+03</rscale>
<asrwt>0</asrwt>
<pdfrwt beam="1">  1       21 0.31939699E+00 0.25217834E+03</pdfrwt>
<pdfrwt beam="2">  1        1 0.90680461E-02 0.25217834E+03</pdfrwt>
<totfact> 0.19396391E+02</totfact>
</mgrwt>
</event>
<event>
 5    0  0.5993533E-001  0.2174490E+03  0.7546771E-02  0.1135799E+00
         21   -1    0    0  503  502  0.00000000000E+00  0.00000000000E+00  0.56968376102E+02  0.56968376102E+02  0.00000000000E+00 0. -1.
          2   -1    0    0  502    0 -0.00000000000E+00 -0.00000000000E+00 -0.11793185759E+04  0.11793185759E+04  0.00000000000E+00 0. -1.
         25    1    1    2    0    0 -0.12495686077E+03 -0.16552173991E+03 -0.32018645500E+03  0.40144243598E+03  0.12500000000E+03 0.  0.
         21    1    1    2  503  501  0.51213235393E+02  0.11031887764E+02 -0.11018205186E+03  0.12200238760E+03  0.00000000000E+00 0.  1.
          2    1    1    2  501    0  0.73743625382E+02  0.15448985215E+03 -0.69198169297E+03  0.71284212846E+03  0.00000000000E+00 0. -1.
<mgrwt>
<rscale>  4 0.21744903E+03</rscale>
<asrwt>0</asrwt>
<pdfrwt beam="1">  1       21 0.87643661E-02 0.21744903E+03</pdfrwt>
<pdfrwt beam="2">  1        2 0.18143362E+00 0.21744903E+03</pdfrwt>
<totfact> 0.26700789E+04</totfact>
</mgrwt>
</event>
<event>
 5    0  0.5993533E-001  0.3106418E+03  0.7546771E-02  0.1080039E+00
         -1   -1    0    0    0  501 -0.00000000000E+00  0.00000000000E+00  0.25782647779E+03  0.25782647779E+03  0.00000000000E+00 0. -1.
         21   -1    0    0  501  502  0.00000000000E+00 -0.00000000000E+00 -0.10996927928E+04  0.10996927928E+04  0.00000000000E+00 0. -1.
         25    1    1    2    0    0 -0.14059131230E+02 -0.46495832207E+03 -0.27060635464E+03  0.55248230705E+03  0.12500000000E+03 0.  0.
         21    1    1    2  501  501 -0.40046154102E+02  0.24582842769E+03 -0.51553623080E+03  0.57254948745E+03  0.00000000000E+00 0. -1.
         -1    1    1    2    0  502  0.54105285332E+02  0.21912989438E+03 -0.55723729622E+02  0.23248747613E+03  0.00000000000E+00 0. -1.
<mgrwt>
<rscale>  4 0.31064184E+03</rscale>
<asrwt>0</asrwt>
<pdfrwt beam="1">  1       21 0.16918351E+00 0.31064184E+03</pdfrwt>
<pdfrwt beam="2">  1       -1 0.39665612E-01 0.31064184E+03</pdfrwt>
<totfact> 0.11594640E+02</totfact>
</mgrwt>
</event>
<event>
 5    0  0.5993533E-001  0.2482383E+03  0.7546771E-02  0.1114423E+00
          2   -1    0    0  502    0 -0.00000000000E+00  0.00000000000E+00  0.80020715949E+03  0.80020715949E+03  0.00000000000E+00 0.  1.
         21   -1    0    0  503  502  0.00000000000E+00 -0.00000000000E+00 -0.91841288545E+02  0.91841288545E+02  0.00000000000E+00 0.  1.
         25    1    1    2    0    0  0.86754087580E+01 -0.21429418470E+03  0.14425171407E+03  0.28710767549E+03  0.12500000000E+03 0.  0.
         21    1    1    2  503  501  0.49068906464E+01  0.21851177642E+02  0.33073394593E+02  0.39942470755E+02  0.00000000000E+00 0.  1.
          2    1    1    2  501    0 -0.13582299404E+02  0.19244300706E+03  0.53104076229E+03  0.56499830179E+03  0.00000000000E+00 0.  1.
<mgrwt>
<rscale>  4 0.24823831E+03</rscale>
<asrwt>0</asrwt>
<pdfrwt beam="1">  1       21 0.14129429E-01 0.24823831E+03</pdfrwt>
<pdfrwt beam="2">  1        2 0.12310879E+00 0.24823831E+03</pdfrwt>
<totfact> 0.19407526E+04</totfact>
</mgrwt>
</event>
<event>
 5    0  0.5993533E-001  0.3364611E+03  0.7546771E-02  0.1068313E+00
          2   -1    0    0  502    0 -0.00000000000E+00  0.00000000000E+00  0.18441048305E+04  0.18441048305E+04  0.00000000000E+00 0. -1.
         21   -1    0    0  503  502  0.00000000000E+00 -0.00000000000E+00 -0.89020275885E+02  0.89020275885E+02  0.00000000000E+00 0.  1.
         25    1    1    2    0    0 -0.27571309902E+03  0.14684461458E+03  0.32118198009E+03  0.46514935036E+03  0.12500000000E+03 0.  0.
         21    1    1    2  503  501  0.25562071339E+02 -0.60249254336E+01  0.89859773355E+02  0.93618898119E+02  0.00000000000E+00 0.  1.
          2    1    1    2  501    0  0.25015102768E+03 -0.14081968915E+03  0.13440428012E+04  0.13743568579E+04  0.00000000000E+00 0. -1.
<mgrwt>
<rscale>  4 0.33646107E+03</rscale>
<asrwt>0</asrwt>
<pdfrwt beam="1">  1       21 0.13695428E-01 0.33646107E+03</pdfrwt>
<pdfrwt beam="2">  1        2 0.28370841E+00 0.33646107E+03</pdfrwt>
<totfact> 0.50883540E+03</totfact>
</mgrwt>
</event>
<event>
 5    0  0.5993533E-001  0.2979493E+03  0.7546771E-02  0.1086270E+00
          1   -1    0    0  502    0 -0.00000000000E+00  0.00000000000E+00  0.27363415279E+04  0.27363415279E+04  0.00000000000E+00 0.  1.
         21   -1    0    0  503  502  0.00000000000E+00 -0.00000000000E+00 -0.30844041462E+03  0.30844041462E+03  0.00000000000E+00 0.  1.
         25    1    1    2    0    0  0.63275118062E+01  0.27038631291E+03 -0.22681526398E+03  0.37445822142E+03  0.12500000000E+03 0.  0.
         21    1    1    2  503  501 -0.26358391995E+02 -0.12046406687E+03  0.79977447255E+03  0.80922528580E+03  0.00000000000E+00 0.  1.
          1    1    1    2  501    0  0.20030880189E+02 -0.14992224603E+03  0.18549419047E+04  0.18610984353E+04  0.00000000000E+00 0.  1.
<mgrwt>
<rscale>  4 0.29794932E+03</rscale>
<asrwt>0</asrwt>
<pdfrwt beam="1">  1       21 0.47452373E-01 0.29794932E+03</pdfrwt>
<pdfrwt beam="2">  1        1 0.42097560E+00 0.29794932E+03</pdfrwt>
<totfact> 0.49464210E+01</totfact>
</mgrwt>
</event>
<event>
 5    0  0.5993533E-001  0.3144068E+03  0.7546771E-02  0.1078253E+00
          1   -1    0    0  502    0 -0.00000000000E+00  0.00000000000E+00  0.72164183975E+03  0.72164183975E+03  0.00000000000E+00 0.  1.
         21   -1    0    0  503  502  0.00000000000E+00 -0.00000000000E+00 -0.13977069606E+03  0.13977069606E+03  0.00000000000E+00 0. -1.
         25    1    1    2    0    0  0.56065441689E+02 -0.28963538683E+03  0.26968485685E+03  0.41879220751E+03  0.12500000000E+03 0.  0.
         21    1    1    2  503  501 -0.29951416524E+02  0.81002945094E+01  0.30681305919E+02  0.43635360155E+02  0.00000000000E+00 0.  1.
          1    1    1    2  501    0 -0.26114025166E+02  0.28153509232E+03  0.28150498093E+03  0.39898496815E+03  0.00000000000E+00 0.  1.
<mgrwt>
<rscale>  4 0.31440678E+03</rscale>
<asrwt>0</asrwt>
<pdfrwt beam="1">  1       21 0.21503184E-01 0.31440678E+03</pdfrwt>
<pdfrwt beam="2">  1        1 0.11102182E+00 0.31440678E+03</pdfrwt>
<totfact> 0.58610794E+03</totfact>
</mgrwt>
</event>
<event>
 5    0  0.5993533E-001  0.1837885E+03  0.7546771E-02  0.1164186E+00
          2   -1    0    0  502    0 -0.00000000000E+00  0.00000000000E+00  0.72355628029E+03  0.72355628029E+03  0.00000000000E+00 0. -1.
         21   -1    0    0  503  502  0.00000000000E+00 -0.00000000000E+00 -0.13635369087E+03  0.13635369087E+03  0.00000000000E+00 0.  1.
         25    1    1    2    0    0 -0.19721573234E+03 -0.41762926610E+02  0.12834446069E+02  0.23754559590E+03  0.12500000000E+03 0.  0.
         21    1    1    2  503  501  0.69970348146E+02  0.15723934375E+02  0.65307133175E+02  0.96995429663E+02  0.00000000000E+00 0.  1.
          2    1    1    2  501    0  0.12724538420E+03  0.26038992235E+02  0.50906101018E+03  0.52536894560E+03  0.00000000000E+00 0. -1.
<mgrwt>
<rscale>  4 0.18378852E+03</rscale>
<asrwt>0</asrwt>
<pdfrwt beam="1">  1       21 0.20977491E-01 0.18378852E+03</pdfrwt>
<pdfrwt beam="2">  1        2 0.11131635E+00 0.18378852E+03</pdfrwt>
<totfact> 0.10752533E+04</totfact>
</mgrwt>
</event>
<event>
 5    0  0.5993533E-001  0.2390155E+03  0.7546771E-02  0.1120450E+00
          3   -1    0    0  502    0 -0.00000000000E+00  0.00000000000E+00  0.41477651796E+03  0.41477651796E+03  0.00000000000E+00 0. -1.
         21   -1    0    0  503  502  0.00000000000E+00 -0.00000000000E+00 -0.12501176021E+03  0.12501176021E+03  0.00000000000E+00 0. -1.
         25    1    1    2    0    0 -0.98234074774E+02 -0.17847543948E+03  0.18457685205E+03  0.30198846047E+03  0.12500000000E+03 0.  0.
         21    1    1    2  503  501 -0.17791944379E+01  0.24744437046E+02  0.31628097801E+02  0.40196881323E+02  0.00000000000E+00 0. -1.
          3    1    1    2  501    0  0.10001326921E+03  0.15373100243E+03  0.73559807897E+02  0.19760293638E+03  0.00000000000E+00 0. -1.
<mgrwt>
<rscale>  4 0.23901551E+03</rscale>
<asrwt>0</asrwt>
<pdfrwt beam="1">  1       21 0.19232579E-01 0.23901551E+03</pdfrwt>
<pdfrwt beam="2">  1        3 0.63811771E-01 0.23901551E+03</pdfrwt>
<totfact> 0.29732969E+03</totfact>
</mgrwt>
</event>
<event>
 5    0  0.5993533E-001  0.2414129E+03  0.7546771E-02  0.1118855E+00
          2   -1    0    0  502    0 -0.00000000000E+00  0.00000000000E+00  0.20285661194E+04  0.20285661194E+04  0.00000000000E+00 0.  1.
         21   -1    0    0  503  502  0.00000000000E+00 -0.00000000000E+00 -0.29470915790E+02  0.29470915790E+02  0.00000000000E+00 0.  1.
         25    1    1    2    0    0  0.20597857683E+03  0.15099644178E+02  0.68092357994E+03  0.72245214034E+03  0.12500000000E+03 0.  0.
         21    1    1    2  503  501 -0.39795006773E+02  0.67774349846E+01  0.14555998375E+03  0.15105391441E+03  0.00000000000E+00 0. -1.
          2    1    1    2  501    0 -0.16618357005E+03 -0.21877079162E+02  0.11726116399E+04  0.11845309805E+04  0.00000000000E+00 0.  1.
<mgrwt>
<rscale>  4 0.24141287E+03</rscale>
<asrwt>0</asrwt>
<pdfrwt beam="1">  1       21 0.45339886E-02 0.24141287E+03</pdfrwt>
<pdfrwt beam="2">  1        2 0.31208699E+00 0.24141287E+03</pdfrwt>
<totfact> 0.29143760E+04</totfact>
</mgrwt>
</event>
<event>
 5    0  0.5993533E-001  0.3048900E+03  0.7546771E-02  0.1082821E+00
          2   -1    0    0  502    0 -0.00000000000E+00  0.00000000000E+00  0.20229798162E+04  0.20229798162E+04  0.00000000000E+00 0. -1.
         21   -1    0    0  503  502  0.00000000000E+00 -0.00000000000E+00 -0.48006217251E+02  0.48006217251E+02  0.00000000000E+00 0. -1.
         25    1    1    2    0    0 -0.19367146083E+02  0.27741269571E+03  0.66759664388E+03  0.73392313563E+03  0.12500000000E+03 0.  0.
         21    1    1    2  503  501  0.51551108287E+01 -0.28371543298E+02  0.19040602286E+03  0.19257718758E+03  0.00000000000E+00 0.  1.
          2    1    1    2  501    0  0.14212035254E+02 -0.24904115241E+03  0.11169709322E+04  0.11444857103E+04  0.00000000000E+00 0. -1.
<mgrwt>
<rscale>  4 0.30488996E+03</rscale>
<asrwt>0</asrwt>
<pdfrwt beam="1">  1       21 0.73855735E-02 0.30488996E+03</pdfrwt>
<pdfrwt beam="2">  1        2 0.31122760E+00 0.30488996E+03</pdfrwt>
<totfact> 0.12453512E+04</totfact>
</mgrwt>
</event>
<event>
 5    0  0.5993533E-001  0.2797882E+03  0.7546771E-02  0.1095805E+00
         21   -1    0    0  503  502  0.00000000000E+00  0.00000000000E+00  0.30559784177E+03  0.30559784177E+03  0.00000000000E+00 0. -1.
          2   -1    0    0  502    0 -0.00000000000E+00 -0.00000000000E+00 -0.13613979976E+04  0.13613979976E+04  0.00000000000E+00 0. -1.
         25    1    1    2    0    0  0.21169771608E+03  0.13230682242E+03  0.20743916772E+03  0.34781751905E+03  0.12500000000E+03 0.  0.
         21    1    1    2  503  501  0.55855688299E+02 -0.69888310213E+02 -0.17189655935E+03  0.19378508956E+03  0.00000000000E+00 0. -1.
          2    1    1    2  501    0 -0.26755340438E+03 -0.62418512210E+02 -0.10913427642E+04  0.11253932308E+04  0.00000000000E+00 0. -1.
<mgrwt>
<rscale>  4 0.27978823E+03</rscale>
<asrwt>0</asrwt>
<pdfrwt beam="1">  1       21 0.47015053E-01 0.27978823E+03</pdfrwt>
<pdfrwt beam="2">  1        2 0.20944585E+00 0.27978823E+03</pdfrwt>
<totfact> 0.85882424E+02</totfact>
</mgrwt>
</event>
<event>
 5    0  0.5993533E-001  0.2411022E+03  0.7546771E-02  0.1119061E+00
         21   -1    0    0  503  502  0.00000000000E+00  0.00000000000E+00  0.54098899476E+02  0.54098899476E+02  0.00000000000E+00 0. -1.
          3   -1    0    0  502    0 -0.00000000000E+00 -0.00000000000E+00 -0.25972650042E+04  0.25972650042E+04  0.00000000000E+00 0. -1.
         25    1    1    2    0    0 -0.17000146284E+03 -0.11663949481E+03 -0.24560591496E+03  0.34416933998E+03  0.12500000000E+03 0.  0.
         21    1    1    2  503  501  0.82802118973E+02  0.31148256758E+02 -0.98852344924E+03  0.99247418833E+03  0.00000000000E+00 0. -1.
          3    1    1    2  501    0  0.87199343870E+02  0.85491238057E+02 -0.13090367406E+04  0.13147203754E+04  0.00000000000E+00 0. -1.
<mgrwt>
<rscale>  4 0.24110220E+03</rscale>
<asrwt>0</asrwt>
<pdfrwt beam="1">  1       21 0.83229094E-02 0.24110220E+03</pdfrwt>
<pdfrwt beam="2">  1        3 0.39957914E+00 0.24110220E+03</pdfrwt>
<totfact> 0.75075619E+01</totfact>
</mgrwt>
</event>
<event>
 5    0  0.5993533E-001  0.3091642E+03  0.7546771E-02  0.1080747E+00
          1   -1    0    0  502    0 -0.00000000000E+00  0.00000000000E+00  0.54113439501E+03  0.54113439501E+03  0.00000000000E+00 0.  1.
         21   -1    0    0  503  502  0.00000000000E+00 -0.00000000000E+00 -0.25062928668E+03  0.25062928668E+03  0.00000000000E+00 0.  1.
         25    1    1    2    0    0  0.12983399594E+03  0.25923137874E+03 -0.39476069025E+02  0.31818412005E+03  0.12500000000E+03 0.  0.
         21    1    1    2  503  501 -0.94310990773E+02 -0.25332388106E+03  0.19350677994E+03  0.33243409208E+03  0.00000000000E+00 0.  1.
          1    1    1    2  501    0 -0.35523005170E+02 -0.59074976880E+01  0.13647439741E+03  0.14114546955E+03  0.00000000000E+00 0.  1.
<mgrwt>
<rscale>  4 0.30916416E+03</rscale>
<asrwt>0</asrwt>
<pdfrwt beam="1">  1       21 0.38558352E-01 0.30916416E+03</pdfrwt>
<pdfrwt beam="2">  1        1 0.83251445E-01 0.30916416E+03</pdfrwt>
<totfact> 0.28068163E+03</totfact>
</mgrwt>
</event>
<event>
 5    0  0.5993533E-001  0.3718953E+03  0.7546771E-02  0.1054001E+00
         21   -1    0    0  503  502  0.00000000000E+00  0.00000000000E+00  0.70461973275E+03  0.70461973275E+03  0.00000000000E+00 0.  1.
          1   -1    0    0  502    0 -0.00000000000E+00 -0.00000000000E+00 -0.10052843196E+04  0.10052843196E+04  0.00000000000E+00 0. -1.
         25    1    1    2    0    0 -0.34991177266E+03  0.11220659447E+01  0.61671952673E+03  0.72000519605E+03  0.12500000000E+03 0.  0.
         21    1    1    2  503  501  0.90627284723E+02 -0.41416052255E+02 -0.16149353426E+03  0.18975973158E+03  0.00000000000E+00 0. -1.
          1    1    1    2  501    0  0.25928448794E+03  0.40293986310E+02 -0.75589057928E+03  0.80013912470E+03  0.00000000000E+00 0. -1.
<mgrwt>
<rscale>  4 0.37181405E+03</rscale>
<asrwt>0</asrwt>
<pdfrwt beam="1">  1       21 0.10840304E+00 0.37189533E+03</pdfrwt>
<pdfrwt beam="2">  1        1 0.15465913E+00 0.37189533E+03</pdfrwt>
<totfact> 0.10784112E+02</totfact>
</mgrwt>
</event>
<event>
 5    0  0.5993533E-001  0.3068180E+03  0.7546771E-02  0.1081881E+00
         21   -1    0    0  503  502  0.00000000000E+00  0.00000000000E+00  0.70989133431E+02  0.70989133431E+02  0.00000000000E+00 0.  1.
          1   -1    0    0  502    0 -0.00000000000E+00 -0.00000000000E+00 -0.32780004234E+04  0.32780004234E+04  0.00000000000E+00 0. -1.
         25    1    1    2    0    0 -0.13419109537E+03 -0.24597768602E+03 -0.30266105430E+03  0.43097678115E+03  0.12500000000E+03 0.  0.
         21    1    1    2  503  501  0.18668443926E+02  0.15929640947E+02 -0.27267216421E+03  0.27377431106E+03  0.00000000000E+00 0.  1.
          1    1    1    2  501    0  0.11552265145E+03  0.23004804507E+03 -0.26316780715E+04  0.26442384647E+04  0.00000000000E+00 0. -1.
<mgrwt>
<rscale>  4 0.30681798E+03</rscale>
<asrwt>0</asrwt>
<pdfrwt beam="1">  1       21 0.10921405E-01 0.30681798E+03</pdfrwt>
<pdfrwt beam="2">  1        1 0.50430774E+00 0.30681798E+03</pdfrwt>
<totfact> 0.34425142E+02</totfact>
</mgrwt>
</event>
<event>
 5    0  0.5993533E-001  0.2630933E+03  0.7546771E-02  0.1105299E+00
         21   -1    0    0  503  502  0.00000000000E+00  0.00000000000E+00  0.19894118809E+03  0.19894118809E+03  0.00000000000E+00 0.  1.
          2   -1    0    0  502    0 -0.00000000000E+00 -0.00000000000E+00 -0.53379219083E+03  0.53379219083E+03  0.00000000000E+00 0. -1.
         25    1    1    2    0    0  0.49215846185E+02 -0.22620980332E+03  0.61530093447E+02  0.27019257398E+03  0.12500000000E+03 0.  0.
         21    1    1    2  503  501 -0.41373735981E+02  0.65521680203E+02 -0.12672902259E+03  0.14854333298E+03  0.00000000000E+00 0. -1.
          2    1    1    2  501    0 -0.78421102037E+01  0.16068812311E+03 -0.26965207360E+03  0.31399747196E+03  0.00000000000E+00 0. -1.
<mgrwt>
<rscale>  4 0.26309328E+03</rscale>
<asrwt>0</asrwt>
<pdfrwt beam="1">  1       21 0.30606337E-01 0.26309328E+03</pdfrwt>
<pdfrwt beam="2">  1        2 0.82121873E-01 0.26309328E+03</pdfrwt>
<totfact> 0.72910266E+03</totfact>
</mgrwt>
</event>
<event>
 5    0  0.5993533E-001  0.3054735E+03  0.7546771E-02  0.1082536E+00
          2   -1    0    0  502    0 -0.00000000000E+00  0.00000000000E+00  0.22376341326E+03  0.22376341326E+03  0.00000000000E+00 0. -1.
         21   -1    0    0  503  502  0.00000000000E+00 -0.00000000000E+00 -0.44967730593E+03  0.44967730593E+03  0.00000000000E+00 0.  1.
         25    1    1    2    0    0  0.27700304949E+03 -0.30957095789E+02 -0.23557614044E+03  0.38575918544E+03  0.12500000000E+03 0.  0.
         21    1    1    2  503  501 -0.14890688671E+02 -0.13506702739E+02 -0.70390299791E+01  0.21300506356E+02  0.00000000000E+00 0.  1.
          2    1    1    2  501    0 -0.26211236082E+03  0.44463798528E+02  0.16701277745E+02  0.26638102739E+03  0.00000000000E+00 0. -1.
<mgrwt>
<rscale>  4 0.30547345E+03</rscale>
<asrwt>0</asrwt>
<pdfrwt beam="1">  1       21 0.69181123E-01 0.30547345E+03</pdfrwt>
<pdfrwt beam="2">  1        2 0.34425141E-01 0.30547345E+03</pdfrwt>
<totfact> 0.34216857E+03</totfact>
</mgrwt>
</event>
<event>
 5    0  0.5993533E-001  0.2455408E+03  0.7546771E-02  0.1116156E+00
         21   -1    0    0  501  502  0.00000000000E+00  0.00000000000E+00  0.51630459633E+03  0.51630459633E+03  0.00000000000E+00 0. -1.
         -2   -1    0    0    0  501 -0.00000000000E+00 -0.00000000000E+00 -0.15603346873E+03  0.15603346873E+03  0.00000000000E+00 0.  1.
         25    1    1    2    0    0  0.29645701579E+02 -0.21370862277E+03  0.36197254727E+03  0.43954450064E+03  0.12500000000E+03 0.  0.
         21    1    1    2  501  501  0.23905088206E+02  0.20208142363E+02  0.60005883650E+01  0.31872077445E+02  0.00000000000E+00 0.  1.
         -2    1    1    2    0  502 -0.53550789785E+02  0.19350048040E+03 -0.77020080341E+01  0.20092148698E+03  0.00000000000E+00 0.  1.
<mgrwt>
<rscale>  4 0.24554082E+03</rscale>
<asrwt>0</asrwt>
<pdfrwt beam="1">  1       21 0.79431475E-01 0.24554082E+03</pdfrwt>
<pdfrwt beam="2">  1       -2 0.24005149E-01 0.24554082E+03</pdfrwt>
<totfact> 0.16772808E+03</totfact>
</mgrwt>
</event>
<event>
 5    0  0.5993533E-001  0.2388045E+03  0.7546771E-02  0.1120592E+00
         21   -1    0    0  503  502  0.00000000000E+00  0.00000000000E+00  0.67722160284E+02  0.67722160284E+02  0.00000000000E+00 0. -1.
          1   -1    0    0  502    0 -0.00000000000E+00 -0.00000000000E+00 -0.12145903430E+04  0.12145903430E+04  0.00000000000E+00 0.  1.
         25    1    1    2    0    0  0.19869027278E+03  0.37781142337E+02 -0.24619021128E+03  0.34225700774E+03  0.12500000000E+03 0.  0.
         21    1    1    2  503  501  0.12564884273E+02 -0.52241341368E+02 -0.12642945134E+03  0.13737336070E+03  0.00000000000E+00 0.  1.
          1    1    1    2  501    0 -0.21125515705E+03  0.14460199031E+02 -0.77424852015E+03  0.80268213490E+03  0.00000000000E+00 0.  1.
<mgrwt>
<rscale>  4 0.23880448E+03</rscale>
<asrwt>0</asrwt>
<pdfrwt beam="1">  1       21 0.10418794E-01 0.23880448E+03</pdfrwt>
<pdfrwt beam="2">  1        1 0.18686005E+00 0.23880448E+03</pdfrwt>
<totfact> 0.94007104E+03</totfact>
</mgrwt>
</event>
<event>
 5    0  0.5993533E-001  0.2359281E+03  0.7546771E-02  0.1122536E+00
         21   -1    0    0  503  502  0.00000000000E+00  0.00000000000E+00  0.11113008908E+04  0.11113008908E+04  0.00000000000E+00 0. -1.
          3   -1    0    0  502    0 -0.00000000000E+00 -0.00000000000E+00 -0.46492247913E+02  0.46492247913E+02  0.00000000000E+00 0. -1.
         25    1    1    2    0    0  0.19095515512E+03  0.59776208328E+02  0.47678169849E+03  0.53196132789E+03  0.12500000000E+03 0.  0.
         21    1    1    2  503  501 -0.17445336968E+03 -0.26228700137E+02  0.49932813303E+03  0.52957578055E+03  0.00000000000E+00 0. -1.
          3    1    1    2  501    0 -0.16501785439E+02 -0.33547508191E+02  0.88698811378E+02  0.96256030297E+02  0.00000000000E+00 0. -1.
<mgrwt>
<rscale>  4 0.23592810E+03</rscale>
<asrwt>0</asrwt>
<pdfrwt beam="1">  1       21 0.17096935E+00 0.23592810E+03</pdfrwt>
<pdfrwt beam="2">  1        3 0.71526544E-02 0.23592810E+03</pdfrwt>
<totfact> 0.13108678E+03</totfact>
</mgrwt>
</event>
<event>
 5    0  0.5993533E-001  0.2867370E+03  0.7546771E-02  0.1092065E+00
          3   -1    0    0  502    0 -0.00000000000E+00  0.00000000000E+00  0.54553456856E+03  0.54553456856E+03  0.00000000000E+00 0.  1.
         21   -1    0    0  503  502  0.00000000000E+00 -0.00000000000E+00 -0.42486730999E+03  0.42486730999E+03  0.00000000000E+00 0.  1.
         25    1    1    2    0    0  0.21071471298E+03  0.14897120000E+03 -0.33188317813E+03  0.43859383560E+03  0.12500000000E+03 0.  0.
         21    1    1    2  503  501 -0.44554612142E+02 -0.93367730990E+02  0.15080080575E+03  0.18287572192E+03  0.00000000000E+00 0.  1.
          3    1    1    2  501    0 -0.16616010084E+03 -0.55603469005E+02  0.30174963095E+03  0.34893232102E+03  0.00000000000E+00 0.  1.
<mgrwt>
<rscale>  4 0.28673700E+03</rscale>
<asrwt>0</asrwt>
<pdfrwt beam="1">  1       21 0.65364202E-01 0.28673700E+03</pdfrwt>
<pdfrwt beam="2">  1        3 0.83928395E-01 0.28673700E+03</pdfrwt>
<totfact> 0.13911421E+02</totfact>
</mgrwt>
</event>
<event>
 5    0  0.5993533E-001  0.2539537E+03  0.7546771E-02  0.1110831E+00
          2   -1    0    0  502    0 -0.00000000000E+00  0.00000000000E+00  0.25662203031E+03  0.25662203031E+03  0.00000000000E+00 0. -1.
         21   -1    0    0  503  502  0.00000000000E+00 -0.00000000000E+00 -0.22495064851E+03  0.22495064851E+03  0.00000000000E+00 0. -1.
         25    1    1    2    0    0 -0.22018137522E+03 -0.19689286033E+02  0.11117142120E+02  0.25419696463E+03  0.12500000000E+03 0.  0.
         21    1    1    2  503  501  0.31905220747E+02  0.14080309090E+02  0.17436743011E+02  0.38990232390E+02  0.00000000000E+00 0.  1.
          2    1    1    2  501    0  0.18827615448E+03  0.56089769424E+01  0.31174966638E+01  0.18838548180E+03  0.00000000000E+00 0. -1.
<mgrwt>
<rscale>  4 0.25395375E+03</rscale>
<asrwt>0</asrwt>
<pdfrwt beam="1">  1       21 0.34607792E-01 0.25395375E+03</pdfrwt>
<pdfrwt beam="2">  1        2 0.39480312E-01 0.25395375E+03</pdfrwt>
<totfact> 0.12765293E+04</totfact>
</mgrwt>
</event>
<event>
 5    0  0.5993533E-001  0.2370810E+03  0.7546771E-02  0.1121753E+00
         21   -1    0    0  503  502  0.00000000000E+00  0.00000000000E+00  0.18018107560E+03  0.18018107560E+03  0.00000000000E+00 0. -1.
          2   -1    0    0  502    0 -0.00000000000E+00 -0.00000000000E+00 -0.46375021694E+03  0.46375021694E+03  0.00000000000E+00 0. -1.
         25    1    1    2    0    0 -0.36530949123E+02 -0.19811076269E+03  0.57977489108E+02  0.24406715015E+03  0.12500000000E+03 0.  0.
         21    1    1    2  503  501 -0.45670480198E+01  0.54943870129E+02 -0.60961861321E+02  0.82195105257E+02  0.00000000000E+00 0. -1.
          2    1    1    2  501    0  0.41097997143E+02  0.14316689256E+03 -0.28058476912E+03  0.31766903714E+03  0.00000000000E+00 0. -1.
<mgrwt>
<rscale>  4 0.23708097E+03</rscale>
<asrwt>0</asrwt>
<pdfrwt beam="1">  1       21 0.27720166E-01 0.23708097E+03</pdfrwt>
<pdfrwt beam="2">  1        2 0.71346187E-01 0.23708097E+03</pdfrwt>
<totfact> 0.10419546E+04</totfact>
</mgrwt>
</event>
<event>
 5    0  0.5993533E-001  0.2578746E+03  0.7546771E-02  0.1108427E+00
          1   -1    0    0  502    0 -0.00000000000E+00  0.00000000000E+00  0.48345640400E+02  0.48345640400E+02  0.00000000000E+00 0.  1.
         21   -1    0    0  503  502  0.00000000000E+00 -0.00000000000E+00 -0.13311279668E+04  0.13311279668E+04  0.00000000000E+00 0.  1.
         25    1    1    2    0    0 -0.41288471112E+02 -0.22174209653E+03 -0.78446413404E+03  0.82576223746E+03  0.12500000000E+03 0.  0.
         21    1    1    2  503  501  0.24310996817E+01  0.11344598908E+03 -0.15840754238E+03  0.19485597801E+03  0.00000000000E+00 0.  1.
          1    1    1    2  501    0  0.38857371430E+02  0.10829610745E+03 -0.33991064995E+03  0.35885539170E+03  0.00000000000E+00 0.  1.
<mgrwt>
<rscale>  4 0.25787457E+03</rscale>
<asrwt>0</asrwt>
<pdfrwt beam="1">  1       21 0.20478889E+00 0.25787457E+03</pdfrwt>
<pdfrwt beam="2">  1        1 0.74377917E-02 0.25787457E+03</pdfrwt>
<totfact> 0.12296513E+03</totfact>
</mgrwt>
</event>
<event>
 5    0  0.5993533E-001  0.2518058E+03  0.7546771E-02  0.1112169E+00
         21   -1    0    0  501  502  0.00000000000E+00  0.00000000000E+00  0.36419636276E+03  0.36419636276E+03  0.00000000000E+00 0. -1.
         -2   -1    0    0    0  501 -0.00000000000E+00 -0.00000000000E+00 -0.25402850684E+03  0.25402850684E+03  0.00000000000E+00 0. -1.
         25    1    1    2    0    0  0.21725463131E+03  0.55521591542E+02  0.23427502428E+03  0.34755144793E+03  0.12500000000E+03 0.  0.
         21    1    1    2  501  501 -0.19994197276E+03 -0.26488781730E+02 -0.12421410109E+03  0.23687040958E+03  0.00000000000E+00 0. -1.
         -2    1    1    2    0  502 -0.17312658557E+02 -0.29032809812E+02  0.10693273171E+00  0.33803012092E+02  0.00000000000E+00 0. -1.
<mgrwt>
<rscale>  4 0.25180580E+03</rscale>
<asrwt>0</asrwt>
<pdfrwt beam="1">  1       21 0.56030210E-01 0.25180580E+03</pdfrwt>
<pdfrwt beam="2">  1       -2 0.39081308E-01 0.25180580E+03</pdfrwt>
<totfact> 0.14812499E+03</totfact>
</mgrwt>
</event>
<event>
 5    0  0.5993533E-001  0.2434333E+03  0.7546771E-02  0.1117527E+00
         21   -1    0    0  503  502  0.00000000000E+00  0.00000000000E+00  0.11712880345E+03  0.11712880345E+03  0.00000000000E+00 0. -1.
          1   -1    0    0  502    0 -0.00000000000E+00 -0.00000000000E+00 -0.40262518227E+04  0.40262518227E+04  0.00000000000E+00 0. -1.
         25    1    1    2    0    0 -0.17222203317E+03 -0.11821315888E+03 -0.15982176653E+02  0.24395739303E+03  0.12500000000E+03 0.  0.
         21    1    1    2  503  501  0.40256559898E+02  0.44049875207E+02 -0.64426894598E+03  0.64702662764E+03  0.00000000000E+00 0.  1.
          1    1    1    2  501    0  0.13196547327E+03  0.74163283674E+02 -0.32488718966E+04  0.32523966055E+04  0.00000000000E+00 0. -1.
<mgrwt>
<rscale>  4 0.24343332E+03</rscale>
<asrwt>0</asrwt>
<pdfrwt beam="1">  1       21 0.18019818E-01 0.24343332E+03</pdfrwt>
<pdfrwt beam="2">  1        1 0.61942329E+00 0.24343332E+03</pdfrwt>
<totfact> 0.37450495E+01</totfact>
</mgrwt>
</event>
<event>
 5    0  0.5993533E-001  0.2885922E+03  0.7546771E-02  0.1091086E+00
         21   -1    0    0  503  502  0.00000000000E+00  0.00000000000E+00  0.10165542398E+04  0.10165542398E+04  0.00000000000E+00 0. -1.
          2   -1    0    0  502    0 -0.00000000000E+00 -0.00000000000E+00 -0.21915219270E+03  0.21915219270E+03  0.00000000000E+00 0. -1.
         25    1    1    2    0    0  0.95553254346E+02  0.24192980075E+03  0.90022384741E+03  0.94535095513E+03  0.12500000000E+03 0.  0.
         21    1    1    2  503  501  0.90550976668E+01 -0.64752075195E+02 -0.18101154622E+02  0.67841564210E+02  0.00000000000E+00 0.  1.
          2    1    1    2  501    0 -0.10460835201E+03 -0.17717772556E+03 -0.84720645687E+02  0.22251391316E+03  0.00000000000E+00 0. -1.
<mgrwt>
<rscale>  4 0.28859219E+03</rscale>
<asrwt>0</asrwt>
<pdfrwt beam="1">  1       21 0.15639296E+00 0.28859219E+03</pdfrwt>
<pdfrwt beam="2">  1        2 0.33715722E-01 0.28859219E+03</pdfrwt>
<totfact> 0.48256235E+02</totfact>
</mgrwt>
</event>
<event>
 5    0  0.5993533E-001  0.3070156E+03  0.7546771E-02  0.1081785E+00
          4   -1    0    0  502    0 -0.00000000000E+00  0.00000000000E+00  0.83460390167E+02  0.83460390167E+02  0.00000000000E+00 0. -1.
         21   -1    0    0  503  502  0.00000000000E+00 -0.00000000000E+00 -0.16180565201E+04  0.16180565201E+04  0.00000000000E+00 0. -1.
         25    1    1    2    0    0  0.13422425192E+03 -0.24620608254E+03 -0.12915336946E+04  0.13275232085E+04  0.12500000000E+03 0.  0.
         21    1    1    2  503  501 -0.19813062143E+01  0.30741244170E+02 -0.34546945852E+02  0.46286511374E+02  0.00000000000E+00 0. -1.
          4    1    1    2  501    0 -0.13224294570E+03  0.21546483837E+03 -0.20851548947E+03  0.32770719036E+03  0.00000000000E+00 0. -1.
<mgrwt>
<rscale>  4 0.30701561E+03</rscale>
<asrwt>0</asrwt>
<pdfrwt beam="1">  1       21 0.24893176E+00 0.30701561E+03</pdfrwt>
<pdfrwt beam="2">  1        4 0.12840061E-01 0.30701561E+03</pdfrwt>
<totfact> 0.13328929E+02</totfact>
</mgrwt>
</event>
<event>
 5    0  0.5993533E-001  0.2596609E+03  0.7546771E-02  0.1107347E+00
         -1   -1    0    0    0  501 -0.00000000000E+00  0.00000000000E+00  0.15811806405E+04  0.15811806405E+04  0.00000000000E+00 0. -1.
         21   -1    0    0  501  502  0.00000000000E+00 -0.00000000000E+00 -0.13654422063E+04  0.13654422063E+04  0.00000000000E+00 0.  1.
         25    1    1    2    0    0 -0.19731643050E+03 -0.11342413729E+03 -0.13433667085E+04  0.13682316771E+04  0.12500000000E+03 0.  0.
         21    1    1    2  501  501  0.46886255170E+02 -0.13224798712E+02  0.35693965455E+03  0.36024871022E+03  0.00000000000E+00 0. -1.
         -1    1    1    2    0  502  0.15043017533E+03  0.12664893600E+03  0.12021654882E+04  0.12181424595E+04  0.00000000000E+00 0. -1.
<mgrwt>
<rscale>  4 0.25966095E+03</rscale>
<asrwt>0</asrwt>
<pdfrwt beam="1">  1       21 0.21006803E+00 0.25966095E+03</pdfrwt>
<pdfrwt beam="2">  1       -1 0.24325856E+00 0.25966095E+03</pdfrwt>
<totfact> 0.89467415E-01</totfact>
</mgrwt>
</event>
<event>
 5    0  0.5993533E-001  0.2885418E+03  0.7546771E-02  0.1091113E+00
         21   -1    0    0  501  502  0.00000000000E+00  0.00000000000E+00  0.22603390147E+04  0.22603390147E+04  0.00000000000E+00 0. -1.
         -4   -1    0    0    0  501 -0.00000000000E+00 -0.00000000000E+00 -0.60284205188E+02  0.60284205188E+02  0.00000000000E+00 0. -1.
         25    1    1    2    0    0 -0.70762101355E+02 -0.25075106795E+03  0.16465907776E+04  0.16717564302E+04  0.12500000000E+03 0.  0.
         21    1    1    2  501  501 -0.62216698132E+02  0.21732765099E+02  0.17458145100E+03  0.18660630654E+03  0.00000000000E+00 0. -1.
         -4    1    1    2    0  502  0.13297879949E+03  0.22901830285E+03  0.37888258088E+03  0.46226048312E+03  0.00000000000E+00 0. -1.
<mgrwt>
<rscale>  4 0.28854182E+03</rscale>
<asrwt>0</asrwt>
<pdfrwt beam="1">  1       21 0.34774440E+00 0.28854182E+03</pdfrwt>
<pdfrwt beam="2">  1       -4 0.92744948E-02 0.28854182E+03</pdfrwt>
<totfact> 0.61023729E+01</totfact>
</mgrwt>
</event>
<event>
 5    0  0.5993533E-001  0.2362050E+03  0.7546771E-02  0.1122347E+00
          1   -1    0    0  502    0 -0.00000000000E+00  0.00000000000E+00  0.14779035499E+04  0.14779035499E+04  0.00000000000E+00 0.  1.
         21   -1    0    0  503  502  0.00000000000E+00 -0.00000000000E+00 -0.33605900409E+02  0.33605900409E+02  0.00000000000E+00 0.  1.
         25    1    1    2    0    0 -0.15520877143E+03 -0.12679921707E+03  0.83630285860E+03  0.86901972100E+03  0.12500000000E+03 0.  0.
         21    1    1    2  503  501  0.55966925892E+01  0.19511613656E+02  0.10303153236E+03  0.10501201215E+03  0.00000000000E+00 0.  1.
          1    1    1    2  501    0  0.14961207884E+03  0.10728760342E+03  0.50496325858E+03  0.53747771721E+03  0.00000000000E+00 0.  1.
<mgrwt>
<rscale>  4 0.23620500E+03</rscale>
<asrwt>0</asrwt>
<pdfrwt beam="1">  1       21 0.51701397E-02 0.23620500E+03</pdfrwt>
<pdfrwt beam="2">  1        1 0.22736973E+00 0.23620500E+03</pdfrwt>
<totfact> 0.21133630E+04</totfact>
</mgrwt>
</event>
<event>
 5    0  0.5993533E-001  0.2811067E+03  0.7546771E-02  0.1095086E+00
          1   -1    0    0  502    0 -0.00000000000E+00  0.00000000000E+00  0.17997797283E+04  0.17997797283E+04  0.00000000000E+00 0.  1.
         21   -1    0    0  503  502  0.00000000000E+00 -0.00000000000E+00 -0.18218768900E+03  0.18218768900E+03  0.00000000000E+00 0. -1.
         25    1    1    2    0    0  0.14229768352E+02 -0.25002547265E+03 -0.52506771758E+02  0.28477567375E+03  0.12500000000E+03 0.  0.
         21    1    1    2  503  501 -0.98916024622E+01 -0.17742428616E+02  0.32837496811E+03  0.32900267059E+03  0.00000000000E+00 0.  1.
          1    1    1    2  501    0 -0.43381658898E+01  0.26776790127E+03  0.13417238429E+04  0.13681890729E+04  0.00000000000E+00 0.  1.
<mgrwt>
<rscale>  4 0.28110670E+03</rscale>
<asrwt>0</asrwt>
<pdfrwt beam="1">  1       21 0.28028876E-01 0.28110670E+03</pdfrwt>
<pdfrwt beam="2">  1        1 0.27688918E+00 0.28110670E+03</pdfrwt>
<totfact> 0.59947257E+02</totfact>
</mgrwt>
</event>
<event>
 5    0  0.5993533E-001  0.2377303E+03  0.7546771E-02  0.1121314E+00
          2   -1    0    0  502    0 -0.00000000000E+00  0.00000000000E+00  0.16140157028E+04  0.16140157028E+04  0.00000000000E+00 0.  1.
         21   -1    0    0  503  502  0.00000000000E+00 -0.00000000000E+00 -0.23808131505E+03  0.23808131505E+03  0.00000000000E+00 0.  1.
         25    1    1    2    0    0  0.11234029874E+03 -0.16813783237E+03 -0.16945983985E+03  0.29194573249E+03  0.12500000000E+03 0.  0.
         21    1    1    2  503  501 -0.67841726653E+02  0.66860135759E+02  0.50602231750E+03  0.51490908269E+03  0.00000000000E+00 0.  1.
          2    1    1    2  501    0 -0.44498572090E+02  0.10127769661E+03  0.10393719101E+04  0.10452422026E+04  0.00000000000E+00 0.  1.
<mgrwt>
<rscale>  4 0.23773025E+03</rscale>
<asrwt>0</asrwt>
<pdfrwt beam="1">  1       21 0.36627896E-01 0.23773025E+03</pdfrwt>
<pdfrwt beam="2">  1        2 0.24831010E+00 0.23773025E+03</pdfrwt>
<totfact> 0.10694252E+03</totfact>
</mgrwt>
</event>
<event>
 5    0  0.5993533E-001  0.3082885E+03  0.7546771E-02  0.1081169E+00
         21   -1    0    0  501  502  0.00000000000E+00  0.00000000000E+00  0.10020702203E+04  0.10020702203E+04  0.00000000000E+00 0. -1.
         -1   -1    0    0    0  501 -0.00000000000E+00 -0.00000000000E+00 -0.27852847640E+03  0.27852847640E+03  0.00000000000E+00 0. -1.
         25    1    1    2    0    0 -0.16145300415E+03  0.32177978900E+03  0.72469737246E+03  0.81879215116E+03  0.12500000000E+03 0.  0.
         21    1    1    2  501  501  0.12775446078E+03 -0.15198121307E+03  0.13624511352E+03  0.24079497988E+03  0.00000000000E+00 0. -1.
         -1    1    1    2    0  502  0.33698543370E+02 -0.16979857593E+03 -0.13740074210E+03  0.22101156563E+03  0.00000000000E+00 0. -1.
<mgrwt>
<rscale>  4 0.30828851E+03</rscale>
<asrwt>0</asrwt>
<pdfrwt beam="1">  1       21 0.15416465E+00 0.30828851E+03</pdfrwt>
<pdfrwt beam="2">  1       -1 0.42850535E-01 0.30828851E+03</pdfrwt>
<totfact> 0.13054837E+02</totfact>
</mgrwt>
</event>
<event>
 5    0  0.5993533E-001  0.2746787E+03  0.7546771E-02  0.1098631E+00
         21   -1    0    0  503  502  0.00000000000E+00  0.00000000000E+00  0.10847875407E+03  0.10847875407E+03  0.00000000000E+00 0. -1.
          2   -1    0    0  502    0 -0.00000000000E+00 -0.00000000000E+00 -0.17093915598E+04  0.17093915598E+04  0.00000000000E+00 0.  1.
         25    1    1    2    0    0 -0.55336421810E+02  0.23824619833E+03 -0.94112372205E+02  0.29035411001E+03  0.12500000000E+03 0.  0.
         21    1    1    2  503  501 -0.10001421739E+02 -0.29523055459E+02 -0.23301574986E+03  0.23509142673E+03  0.00000000000E+00 0. -1.
          2    1    1    2  501    0  0.65337843549E+02 -0.20872314287E+03 -0.12737846837E+04  0.12924247771E+04  0.00000000000E+00 0.  1.
<mgrwt>
<rscale>  4 0.27467867E+03</rscale>
<asrwt>0</asrwt>
<pdfrwt beam="1">  1       21 0.16689040E-01 0.27467867E+03</pdfrwt>
<pdfrwt beam="2">  1        2 0.26298331E+00 0.27467867E+03</pdfrwt>
<totfact> 0.42491264E+03</totfact>
</mgrwt>
</event>
<event>
 5    0  0.5993533E-001  0.3419047E+03  0.7546771E-02  0.1065988E+00
          2   -1    0    0  502    0 -0.00000000000E+00  0.00000000000E+00  0.26665530526E+04  0.26665530526E+04  0.00000000000E+00 0. -1.
         21   -1    0    0  503  502  0.00000000000E+00 -0.00000000000E+00 -0.44893418254E+02  0.44893418254E+02  0.00000000000E+00 0. -1.
         25    1    1    2    0    0  0.17289268485E+03 -0.26717400875E+03  0.97207078558E+03  0.10304467204E+04  0.12500000000E+03 0.  0.
         21    1    1    2  503  501 -0.82882540068E+01  0.21870184605E+02  0.64303101295E+02  0.68424330215E+02  0.00000000000E+00 0. -1.
          2    1    1    2  501    0 -0.16460443085E+03  0.24530382414E+03  0.15852857474E+04  0.16125754202E+04  0.00000000000E+00 0. -1.
<mgrwt>
<rscale>  4 0.34190471E+03</rscale>
<asrwt>0</asrwt>
<pdfrwt beam="1">  1       21 0.69066818E-02 0.34190471E+03</pdfrwt>
<pdfrwt beam="2">  1        2 0.41023881E+00 0.34190471E+03</pdfrwt>
<totfact> 0.61862030E+03</totfact>
</mgrwt>
</event>
<event>
 5    0  0.5993533E-001  0.2606370E+03  0.7546771E-02  0.1106761E+00
         21   -1    0    0  503  502  0.00000000000E+00  0.00000000000E+00  0.40853140301E+03  0.40853140301E+03  0.00000000000E+00 0. -1.
          1   -1    0    0  502    0 -0.00000000000E+00 -0.00000000000E+00 -0.18930714495E+04  0.18930714495E+04  0.00000000000E+00 0.  1.
         25    1    1    2    0    0  0.45846088590E+02  0.22406425630E+03  0.35880573943E+03  0.44347853774E+03  0.12500000000E+03 0.  0.
         21    1    1    2  503  501 -0.20932629038E+02 -0.23898802333E+02 -0.21558452276E+03  0.21791285911E+03  0.00000000000E+00 0.  1.
          1    1    1    2  501    0 -0.24913459552E+02 -0.20016545397E+03 -0.16277612631E+04  0.16402114556E+04  0.00000000000E+00 0.  1.
<mgrwt>
<rscale>  4 0.26063702E+03</rscale>
<asrwt>0</asrwt>
<pdfrwt beam="1">  1       21 0.62850985E-01 0.26063702E+03</pdfrwt>
<pdfrwt beam="2">  1        1 0.29124176E+00 0.26063702E+03</pdfrwt>
<totfact> 0.10036394E+02</totfact>
</mgrwt>
</event>
<event>
 5    0  0.5993533E-001  0.2781502E+03  0.7546771E-02  0.1096704E+00
         21   -1    0    0  503  502  0.00000000000E+00  0.00000000000E+00  0.54639374975E+03  0.54639374975E+03  0.00000000000E+00 0. -1.
          1   -1    0    0  502    0 -0.00000000000E+00 -0.00000000000E+00 -0.58196125384E+03  0.58196125384E+03  0.00000000000E+00 0. -1.
         25    1    1    2    0    0  0.25152114248E+03  0.56145554741E+02  0.44538266931E+03  0.52953369161E+03  0.12500000000E+03 0.  0.
         21    1    1    2  503  501 -0.13564477821E+03 -0.14660430177E+03 -0.34470786534E+03  0.39839156565E+03  0.00000000000E+00 0.  1.
          1    1    1    2  501    0 -0.11587636427E+03  0.90458747024E+02 -0.13624230805E+03  0.20042974633E+03  0.00000000000E+00 0. -1.
<mgrwt>
<rscale>  4 0.27815024E+03</rscale>
<asrwt>0</asrwt>
<pdfrwt beam="1">  1       21 0.84060577E-01 0.27815024E+03</pdfrwt>
<pdfrwt beam="2">  1        1 0.89532501E-01 0.27815024E+03</pdfrwt>
<totfact> 0.47795148E+02</totfact>
</mgrwt>
</event>
<event>
 5    0  0.5993533E-001  0.4842424E+03  0.7546771E-02  0.1017976E+00
         21   -1    0    0  501  502  0.00000000000E+00  0.00000000000E+00  0.51248744558E+03  0.51248744558E+03  0.00000000000E+00 0. -1.
         -1   -1    0    0    0  501 -0.00000000000E+00 -0.00000000000E+00 -0.81399243217E+03  0.81399243217E+03  0.00000000000E+00 0. -1.
         25    1    1    2    0    0  0.56779351566E+02  0.52545879531E+03  0.16623581529E+03  0.56797023392E+03  0.12500000000E+03 0.  0.
         21    1    1    2  501  501  0.58105368489E+02 -0.21303450426E+03 -0.53705016003E+02  0.22725352053E+03  0.00000000000E+00 0. -1.
         -1    1    1    2    0  502 -0.11488472006E+03 -0.31242429106E+03 -0.41403578588E+03  0.53125612329E+03  0.00000000000E+00 0. -1.
<mgrwt>
<rscale>  4 0.48424239E+03</rscale>
<asrwt>0</asrwt>
<pdfrwt beam="1">  1       21 0.78844223E-01 0.48424239E+03</pdfrwt>
<pdfrwt beam="2">  1       -1 0.12522960E+00 0.48424239E+03</pdfrwt>
<totfact> 0.70237898E+01</totfact>
</mgrwt>
</event>
<event>
 5    0  0.5993533E-001  0.2942206E+03  0.7546771E-02  0.1088166E+00
         21   -1    0    0  503  502  0.00000000000E+00  0.00000000000E+00  0.30830866044E+02  0.30830866044E+02  0.00000000000E+00 0.  1.
          2   -1    0    0  502    0 -0.00000000000E+00 -0.00000000000E+00 -0.33776449128E+04  0.33776449128E+04  0.00000000000E+00 0.  1.
         25    1    1    2    0    0  0.16858424968E+03 -0.20620400500E+03 -0.90645753492E+03  0.95301154428E+03  0.12500000000E+03 0.  0.
         21    1    1    2  503  501 -0.41547849409E+02  0.65719888346E+02 -0.51851900083E+03  0.52431601323E+03  0.00000000000E+00 0.  1.
          2    1    1    2  501    0 -0.12703640027E+03  0.14048411665E+03 -0.19218375110E+04  0.19311482213E+04  0.00000000000E+00 0.  1.
<mgrwt>
<rscale>  4 0.29422057E+03</rscale>
<asrwt>0</asrwt>
<pdfrwt beam="1">  1       21 0.47432095E-02 0.29422057E+03</pdfrwt>
<pdfrwt beam="2">  1        2 0.51963775E+00 0.29422057E+03</pdfrwt>
<totfact> 0.45061900E+03</totfact>
</mgrwt>
</event>
<event>
 5    0  0.5993533E-001  0.3811782E+03  0.7546771E-02  0.1050499E+00
          2   -1    0    0  502    0 -0.00000000000E+00  0.00000000000E+00  0.29503124484E+04  0.29503124484E+04  0.00000000000E+00 0. -1.
         21   -1    0    0  503  502  0.00000000000E+00 -0.00000000000E+00 -0.16212476135E+03  0.16212476135E+03  0.00000000000E+00 0. -1.
         25    1    1    2    0    0 -0.31307570649E+03 -0.17791980367E+03  0.92564121173E+02  0.39225625688E+03  0.12500000000E+03 0.  0.
         21    1    1    2  503  501  0.33509157666E+02  0.49124630296E+01  0.17927746875E+03  0.18244836733E+03  0.00000000000E+00 0. -1.
          2    1    1    2  501    0  0.27956654883E+03  0.17300734064E+03  0.25163460971E+04  0.25377325855E+04  0.00000000000E+00 0. -1.
<mgrwt>
<rscale>  4 0.38117825E+03</rscale>
<asrwt>0</asrwt>
<pdfrwt beam="1">  1       21 0.24942273E-01 0.38117825E+03</pdfrwt>
<pdfrwt beam="2">  1        2 0.45389418E+00 0.38117825E+03</pdfrwt>
<totfact> 0.39710883E+02</totfact>
</mgrwt>
</event>
<event>
 5    0  0.5993533E-001  0.2558720E+03  0.7546771E-02  0.1109649E+00
          2   -1    0    0  502    0 -0.00000000000E+00  0.00000000000E+00  0.67383152666E+03  0.67383152666E+03  0.00000000000E+00 0.  1.
         21   -1    0    0  503  502  0.00000000000E+00 -0.00000000000E+00 -0.14621886492E+03  0.14621886492E+03  0.00000000000E+00 0.  1.
         25    1    1    2    0    0  0.24061195412E+03 -0.90347778808E+02  0.29237467681E+03  0.40885790348E+03  0.12500000000E+03 0.  0.
         21    1    1    2  503  501 -0.44823527392E+02  0.33103412727E+02 -0.40008957982E+02  0.68598114120E+02  0.00000000000E+00 0.  1.
          2    1    1    2  501    0 -0.19578842673E+03  0.57244366081E+02  0.27524694292E+03  0.34259437397E+03  0.00000000000E+00 0.  1.
<mgrwt>
<rscale>  4 0.25587197E+03</rscale>
<asrwt>0</asrwt>
<pdfrwt beam="1">  1       21 0.22495210E-01 0.25587197E+03</pdfrwt>
<pdfrwt beam="2">  1        2 0.10366639E+00 0.25587197E+03</pdfrwt>
<totfact> 0.10090697E+04</totfact>
</mgrwt>
</event>
<event>
 5    0  0.5993533E-001  0.3020058E+03  0.7546771E-02  0.1084242E+00
          2   -1    0    0  502    0 -0.00000000000E+00  0.00000000000E+00  0.13333164072E+04  0.13333164072E+04  0.00000000000E+00 0.  1.
         21   -1    0    0  503  502  0.00000000000E+00 -0.00000000000E+00 -0.42477869673E+03  0.42477869673E+03  0.00000000000E+00 0. -1.
         25    1    1    2    0    0 -0.18305127598E+03 -0.20512125002E+03 -0.35353833658E+03  0.46496973265E+03  0.12500000000E+03 0.  0.
         21    1    1    2  503  501  0.22843528211E+02  0.30076545449E+02  0.96239262550E+02  0.10338482008E+03  0.00000000000E+00 0.  1.
          2    1    1    2  501    0  0.16020774777E+03  0.17504470457E+03  0.11658367845E+04  0.11897405512E+04  0.00000000000E+00 0.  1.
<mgrwt>
<rscale>  4 0.30200579E+03</rscale>
<asrwt>0</asrwt>
<pdfrwt beam="1">  1       21 0.65350570E-01 0.30200579E+03</pdfrwt>
<pdfrwt beam="2">  1        2 0.20512560E+00 0.30200579E+03</pdfrwt>
<totfact> 0.43512244E+02</totfact>
</mgrwt>
</event>
<event>
 5    0  0.5993533E-001  0.2795988E+03  0.7546771E-02  0.1095908E+00
          1   -1    0    0  502    0 -0.00000000000E+00  0.00000000000E+00  0.17057931218E+04  0.17057931218E+04  0.00000000000E+00 0. -1.
         21   -1    0    0  503  502  0.00000000000E+00 -0.00000000000E+00 -0.85989677522E+02  0.85989677522E+02  0.00000000000E+00 0.  1.
         25    1    1    2    0    0 -0.22352313678E+01  0.28056222985E+03  0.27189349338E+03  0.41020876736E+03  0.12500000000E+03 0.  0.
         21    1    1    2  503  501  0.69852629707E+01 -0.35568834526E+02  0.56543146847E+02  0.67164449999E+02  0.00000000000E+00 0.  1.
          1    1    1    2  501    0 -0.47500316029E+01 -0.24499339532E+03  0.12913668040E+04  0.13144095820E+04  0.00000000000E+00 0. -1.
<mgrwt>
<rscale>  4 0.27959881E+03</rscale>
<asrwt>0</asrwt>
<pdfrwt beam="1">  1       21 0.13229182E-01 0.27959881E+03</pdfrwt>
<pdfrwt beam="2">  1        1 0.26242969E+00 0.27959881E+03</pdfrwt>
<totfact> 0.28329883E+03</totfact>
</mgrwt>
</event>
<event>
 5    0  0.5993533E-001  0.4088220E+03  0.7546771E-02  0.1040767E+00
         -2   -1    0    0    0  501 -0.00000000000E+00  0.00000000000E+00  0.64648805942E+03  0.64648805942E+03  0.00000000000E+00 0.  1.
         21   -1    0    0  501  502  0.00000000000E+00 -0.00000000000E+00 -0.40497310231E+03  0.40497310231E+03  0.00000000000E+00 0.  1.
         25    1    1    2    0    0 -0.35474335581E+03 -0.16021096195E+03 -0.20386082374E+03  0.45683108068E+03  0.12500000000E+03 0.  0.
         21    1    1    2  501  501  0.61759955148E+02  0.97146443683E+01  0.50149571435E+02  0.80147650559E+02  0.00000000000E+00 0. -1.
         -2    1    1    2    0  502  0.29298340066E+03  0.15049631759E+03  0.39522620941E+03  0.51448243048E+03  0.00000000000E+00 0.  1.
<mgrwt>
<rscale>  4 0.40882197E+03</rscale>
<asrwt>0</asrwt>
<pdfrwt beam="1">  1       21 0.62303554E-01 0.40882197E+03</pdfrwt>
<pdfrwt beam="2">  1       -2 0.99459702E-01 0.40882197E+03</pdfrwt>
<totfact> 0.15737127E+02</totfact>
</mgrwt>
</event>
<event>
 5    0  0.5993533E-001  0.2456238E+03  0.7546771E-02  0.1116102E+00
         21   -1    0    0  501  502  0.00000000000E+00  0.00000000000E+00  0.41345194840E+03  0.41345194840E+03  0.00000000000E+00 0. -1.
         -1   -1    0    0    0  501 -0.00000000000E+00 -0.00000000000E+00 -0.11029280744E+04  0.11029280744E+04  0.00000000000E+00 0. -1.
         25    1    1    2    0    0 -0.24176094065E+03  0.31290705166E+01  0.32631280540E+03  0.42492727668E+03  0.12500000000E+03 0.  0.
         21    1    1    2  501  501  0.12658751691E+03  0.47589896010E+02 -0.10290981709E+03  0.16994007206E+03  0.00000000000E+00 0. -1.
         -1    1    1    2    0  502  0.11517342374E+03 -0.50718966527E+02 -0.91287911426E+03  0.92151267401E+03  0.00000000000E+00 0. -1.
<mgrwt>
<rscale>  4 0.24562379E+03</rscale>
<asrwt>0</asrwt>
<pdfrwt beam="1">  1       21 0.63607994E-01 0.24562379E+03</pdfrwt>
<pdfrwt beam="2">  1       -1 0.16968124E+00 0.24562379E+03</pdfrwt>
<totfact> 0.56601077E+01</totfact>
</mgrwt>
</event>
<event>
 5    0  0.5993533E-001  0.2739022E+03  0.7546771E-02  0.1099067E+00
          1   -1    0    0  502    0 -0.00000000000E+00  0.00000000000E+00  0.96620525452E+03  0.96620525452E+03  0.00000000000E+00 0. -1.
         21   -1    0    0  503  502  0.00000000000E+00 -0.00000000000E+00 -0.10162822995E+03  0.10162822995E+03  0.00000000000E+00 0. -1.
         25    1    1    2    0    0 -0.10114251794E+03 -0.22173774960E+03  0.72355367006E+03  0.77366165214E+03  0.12500000000E+03 0.  0.
         21    1    1    2  503  501  0.47392671611E+02  0.23942544485E+02  0.25734940274E+02  0.59005066814E+02  0.00000000000E+00 0. -1.
          1    1    1    2  501    0  0.53749846330E+02  0.19779520511E+03  0.11528841423E+03  0.23516676551E+03  0.00000000000E+00 0. -1.
<mgrwt>
<rscale>  4 0.27390224E+03</rscale>
<asrwt>0</asrwt>
<pdfrwt beam="1">  1       21 0.15635113E-01 0.27390224E+03</pdfrwt>
<pdfrwt beam="2">  1        1 0.14864696E+00 0.27390224E+03</pdfrwt>
<totfact> 0.67645271E+03</totfact>
</mgrwt>
</event>
<event>
 5    0  0.5993533E-001  0.2354626E+03  0.7546771E-02  0.1122853E+00
         21   -1    0    0  503  502  0.00000000000E+00  0.00000000000E+00  0.37178953725E+03  0.37178953725E+03  0.00000000000E+00 0. -1.
          2   -1    0    0  502    0 -0.00000000000E+00 -0.00000000000E+00 -0.15923607902E+03  0.15923607902E+03  0.00000000000E+00 0. -1.
         25    1    1    2    0    0  0.22584766057E+02 -0.21501936683E+03  0.11778534618E+03  0.27611915461E+03  0.12500000000E+03 0.  0.
         21    1    1    2  503  501 -0.12312721082E+02  0.26858924659E+02 -0.18675031321E+02  0.34953708374E+02  0.00000000000E+00 0. -1.
          2    1    1    2  501    0 -0.10272044975E+02  0.18816044217E+03  0.11344314337E+03  0.21995275329E+03  0.00000000000E+00 0. -1.
<mgrwt>
<rscale>  4 0.23546265E+03</rscale>
<asrwt>0</asrwt>
<pdfrwt beam="1">  1       21 0.57198390E-01 0.23546265E+03</pdfrwt>
<pdfrwt beam="2">  1        2 0.24497859E-01 0.23546265E+03</pdfrwt>
<totfact> 0.76770471E+03</totfact>
</mgrwt>
</event>
<event>
 5    0  0.5993533E-001  0.2932353E+03  0.7546771E-02  0.1088672E+00
         21   -1    0    0  503  502  0.00000000000E+00  0.00000000000E+00  0.53316999747E+02  0.53316999747E+02  0.00000000000E+00 0.  1.
          1   -1    0    0  502    0 -0.00000000000E+00 -0.00000000000E+00 -0.23095704329E+04  0.23095704329E+04  0.00000000000E+00 0.  1.
         25    1    1    2    0    0  0.22503807810E+03 -0.14042716949E+03 -0.46888364002E+03  0.55302693823E+03  0.12500000000E+03 0.  0.
         21    1    1    2  503  501 -0.16177099119E+03  0.42138654322E+02 -0.10055939719E+04  0.10193943085E+04  0.00000000000E+00 0.  1.
          1    1    1    2  501    0 -0.63267086916E+02  0.98288515164E+02 -0.78177582121E+03  0.79046618595E+03  0.00000000000E+00 0.  1.
<mgrwt>
<rscale>  4 0.29323528E+03</rscale>
<asrwt>0</asrwt>
<pdfrwt beam="1">  1       21 0.82026144E-02 0.29323528E+03</pdfrwt>
<pdfrwt beam="2">  1        1 0.35531857E+00 0.29323528E+03</pdfrwt>
<totfact> 0.26737019E+03</totfact>
</mgrwt>
</event>
<event>
 5    0  0.5993533E-001  0.2597787E+03  0.7546771E-02  0.1107276E+00
          2   -1    0    0  502    0 -0.00000000000E+00  0.00000000000E+00  0.80808754873E+03  0.80808754873E+03  0.00000000000E+00 0. -1.
         21   -1    0    0  503  502  0.00000000000E+00 -0.00000000000E+00 -0.95418283602E+02  0.95418283602E+02  0.00000000000E+00 0.  1.
         25    1    1    2    0    0 -0.17474287950E+03  0.14603052707E+03  0.16597241589E+03  0.30827233351E+03  0.12500000000E+03 0.  0.
         21    1    1    2  503  501  0.54688457922E+02 -0.12967888392E+02  0.12900193882E+03  0.14071422735E+03  0.00000000000E+00 0. -1.
          2    1    1    2  501    0  0.12005442158E+03 -0.13306263867E+03  0.41769491041E+03  0.45451927147E+03  0.00000000000E+00 0. -1.
<mgrwt>
<rscale>  4 0.25977873E+03</rscale>
<asrwt>0</asrwt>
<pdfrwt beam="1">  1       21 0.14679736E-01 0.25977873E+03</pdfrwt>
<pdfrwt beam="2">  1        2 0.12432116E+00 0.25977873E+03</pdfrwt>
<totfact> 0.17837798E+04</totfact>
</mgrwt>
</event>
<event>
 5    0  0.5993533E-001  0.2582583E+03  0.7546771E-02  0.1108194E+00
         21   -1    0    0  503  502  0.00000000000E+00  0.00000000000E+00  0.38392324251E+03  0.38392324251E+03  0.00000000000E+00 0.  1.
          2   -1    0    0  502    0 -0.00000000000E+00 -0.00000000000E+00 -0.29724081013E+04  0.29724081013E+04  0.00000000000E+00 0.  1.
         25    1    1    2    0    0 -0.18319983340E+03  0.13232603399E+03  0.33478527617E+03  0.42282211315E+03  0.12500000000E+03 0.  0.
         21    1    1    2  503  501  0.11392468681E+02 -0.47393217487E+02 -0.85121893882E+03  0.85261338671E+03  0.00000000000E+00 0. -1.
          2    1    1    2  501    0  0.17180736472E+03 -0.84932816502E+02 -0.20720511962E+04  0.20808958440E+04  0.00000000000E+00 0.  1.
<mgrwt>
<rscale>  4 0.25825832E+03</rscale>
<asrwt>0</asrwt>
<pdfrwt beam="1">  1       21 0.59065115E-01 0.25825832E+03</pdfrwt>
<pdfrwt beam="2">  1        2 0.45729355E+00 0.25825832E+03</pdfrwt>
<totfact> 0.71676788E+01</totfact>
</mgrwt>
</event>
<event>
 5    0  0.5993533E-001  0.2348898E+03  0.7546771E-02  0.1123245E+00
         21   -1    0    0  501  502  0.00000000000E+00  0.00000000000E+00  0.13891535072E+04  0.13891535072E+04  0.00000000000E+00 0. -1.
         -1   -1    0    0    0  501 -0.00000000000E+00 -0.00000000000E+00 -0.77801475962E+02  0.77801475962E+02  0.00000000000E+00 0. -1.
         25    1    1    2    0    0  0.34938791061E+01 -0.20135804307E+03  0.10161717900E+04  0.10434497474E+04  0.12500000000E+03 0.  0.
         21    1    1    2  501  501 -0.94452962363E+02  0.14419315036E+02  0.10094497962E+03  0.13899340867E+03  0.00000000000E+00 0. -1.
         -1    1    1    2    0  502  0.90959083257E+02  0.18693872803E+03  0.19423526167E+03  0.28451182707E+03  0.00000000000E+00 0. -1.
<mgrwt>
<rscale>  4 0.23488980E+03</rscale>
<asrwt>0</asrwt>
<pdfrwt beam="1">  1       21 0.21371591E+00 0.23488980E+03</pdfrwt>
<pdfrwt beam="2">  1       -1 0.11969459E-01 0.23488980E+03</pdfrwt>
<totfact> 0.44134181E+02</totfact>
</mgrwt>
</event>
