<event>
 5    0  0.5993533E-001  0.2975575E+03  0.7546771E-02  0.1086468E+00
          2   -1    0    0  502    0 -0.00000000000E+00  0.00000000000E+00  0.12069897523E+04  0.12069897523E+04  0.00000000000E+00 0.  1.
         21   -1    0    0  503  502  0.00000000000E+00 -0.00000000000E+00 -0.69378139366E+02  0.69378139366E+02  0.00000000000E+00 0.  1.
         25    1    1    2    0    0 -0.24829131635E+03 -0.10614567639E+03  0.62875784232E+03  0.69561261250E+03  0.12500000000E+03 0.  0.
         21    1    1    2  503  501  0.43968039893E+02  0.45449184299E+02  0.15862039883E+03  0.17076079120E+03  0.00000000000E+00 0.  1.
          2    1    1    2  501    0  0.20432327646E+03  0.60696492088E+02  0.35023337180E+03  0.40999448799E+03  0.00000000000E+00 0.  1.
<mgrwt>
<rscale>  4 0.29755753E+03</rscale>
<asrwt>0</asrwt>
<pdfrwt beam="1">  1       21 0.10673561E-01 0.29755753E+03</pdfrwt>
<pdfrwt beam="2">  1        2 0.18569072E+00 0.29755753E+03</pdfrwt>
<totfact> 0.17867573E+04</totfact>
</mgrwt>
</event>
<event>
 5    0  0.5993533E-001  0.2620228E+03  0.7546771E-02  0.1105934E+00
          1   -1    0    0  502    0 -0.00000000000E+00  0.00000000000E+00  0.12335337959E+04  0.12335337959E+04  0.00000000000E+00 0.  1.
         21   -1    0    0  503  502  0.00000000000E+00 -0.00000000000E+00 -0.16120158397E+03  0.16120158397E+03  0.00000000000E+00 0.  1.
         25    1    1    2    0    0  0.91797581907E+02 -0.22839305447E+03  0.13061866957E+02  0.27637980343E+03  0.12500000000E+03 0.  0.
         21    1    1    2  503  501 -0.83019868878E+02 -0.14338242270E+01  0.91186838427E+02  0.12332637181E+03  0.00000000000E+00 0.  1.
          1    1    1    2  501    0 -0.87777130288E+01  0.22982687870E+03  0.96808350651E+03  0.99502920459E+03  0.00000000000E+00 0.  1.
<mgrwt>
<rscale>  4 0.26202285E+03</rscale>
<asrwt>0</asrwt>
<pdfrwt beam="1">  1       21 0.24800244E-01 0.26202285E+03</pdfrwt>
<pdfrwt beam="2">  1        1 0.18977442E+00 0.26202285E+03</pdfrwt>
<totfact> 0.18263852E+03</totfact>
</mgrwt>
</event>
<event>
 5    0  0.5993533E-001  0.2456934E+03  0.7546771E-02  0.1116057E+00
          2   -1    0    0  502    0 -0.00000000000E+00  0.00000000000E+00  0.22866477220E+04  0.22866477220E+04  0.00000000000E+00 0.  1.
         21   -1    0    0  503  502  0.00000000000E+00 -0.00000000000E+00 -0.36727657081E+02  0.36727657081E+02  0.00000000000E+00 0. -1.
         25    1    1    2    0    0 -0.10123737079E+03  0.18010187917E+03  0.50343640950E+03  0.55835375035E+03  0.12500000000E+03 0.  0.
         21    1    1    2  503  501  0.59334437502E+01  0.24145206598E+02  0.30637331316E+03  0.30738055204E+03  0.00000000000E+00 0.  1.
          2    1    1    2  501    0  0.95303927040E+02 -0.20424708577E+03  0.14401103423E+04  0.14576410767E+04  0.00000000000E+00 0.  1.
<mgrwt>
<rscale>  4 0.24569336E+03</rscale>
<asrwt>0</asrwt>
<pdfrwt beam="1">  1       21 0.56504106E-02 0.24569336E+03</pdfrwt>
<pdfrwt beam="2">  1        2 0.35179185E+00 0.24569336E+03</pdfrwt>
<totfact> 0.14605027E+04</totfact>
</mgrwt>
</event>
<event>
 5    0  0.5993533E-001  0.3128734E+03  0.7546771E-02  0.1078977E+00
         21   -1    0    0  503  502  0.00000000000E+00  0.00000000000E+00  0.18469240513E+03  0.18469240513E+03  0.00000000000E+00 0.  1.
          2   -1    0    0  502    0 -0.00000000000E+00 -0.00000000000E+00 -0.27396723094E+04  0.27396723094E+04  0.00000000000E+00 0. -1.
         25    1    1    2    0    0  0.28647466415E+03  0.37749145825E+02  0.30562609143E+02  0.31630966518E+03  0.12500000000E+03 0.  0.
         21    1    1    2  503  501 -0.41835710940E+02  0.15556709199E+02 -0.95049106259E+02  0.10500747836E+03  0.00000000000E+00 0. -1.
          2    1    1    2  501    0 -0.24463895321E+03 -0.53305855024E+02 -0.24904934072E+04  0.25030475710E+04  0.00000000000E+00 0. -1.
<mgrwt>
<rscale>  4 0.31287338E+03</rscale>
<asrwt>0</asrwt>
<pdfrwt beam="1">  1       21 0.28414219E-01 0.31287338E+03</pdfrwt>
<pdfrwt beam="2">  1        2 0.42148801E+00 0.31287338E+03</pdfrwt>
<totfact> 0.42220484E+02</totfact>
</mgrwt>
</event>
<event>
 5    0  0.5993533E-001  0.2414301E+03  0.7546771E-02  0.1118844E+00
         21   -1    0    0  503  502  0.00000000000E+00  0.00000000000E+00  0.22277874644E+03  0.22277874644E+03  0.00000000000E+00 0.  1.
          2   -1    0    0  502    0 -0.00000000000E+00 -0.00000000000E+00 -0.99197803654E+03  0.99197803654E+03  0.00000000000E+00 0.  1.
         25    1    1    2    0    0 -0.14986134602E+03  0.15822681296E+03  0.12956943312E+03  0.28267894398E+03  0.12500000000E+03 0.  0.
         21    1    1    2  503  501  0.12570339665E+03 -0.79306714272E+02 -0.40401127184E+03  0.43048345686E+03  0.00000000000E+00 0.  1.
          2    1    1    2  501    0  0.24157949371E+02 -0.78920098692E+02 -0.49475745138E+03  0.50159438214E+03  0.00000000000E+00 0.  1.
<mgrwt>
<rscale>  4 0.24143012E+03</rscale>
<asrwt>0</asrwt>
<pdfrwt beam="1">  1       21 0.34273654E-01 0.24143012E+03</pdfrwt>
<pdfrwt beam="2">  1        2 0.15261200E+00 0.24143012E+03</pdfrwt>
<totfact> 0.27122950E+03</totfact>
</mgrwt>
</event>
<event>
 5    0  0.6686631E-001  0.4155202E+03  0.7546771E-02  0.1038534E+00
         21   -1    0    0  503  502  0.00000000000E+00  0.00000000000E+00  0.45156960459E+03  0.45156960459E+03  0.00000000000E+00 0.  1.
          3   -1    0    0  502    0 -0.00000000000E+00 -0.00000000000E+00 -0.23467160148E+04  0.23467160148E+04  0.00000000000E+00 0.  1.
         25    1    1    2    0    0 -0.39617130737E+03 -0.12509680122E+01  0.32992194946E+03  0.53049671294E+03  0.12500000000E+03 0.  0.
         21    1    1    2  503  501 -0.23354533214E+01  0.21384849395E+02 -0.30998417570E+02  0.37731525516E+02  0.00000000000E+00 0. -1.
          3    1    1    2  501    0  0.39850676069E+03 -0.20133881383E+02 -0.21940699421E+04  0.22300573810E+04  0.00000000000E+00 0.  1.
<mgrwt>
<rscale>  4 0.41552025E+03</rscale>
<asrwt>0</asrwt>
<pdfrwt beam="1">  1       21 0.69472246E-01 0.41552025E+03</pdfrwt>
<pdfrwt beam="2">  1        3 0.36103324E+00 0.41552025E+03</pdfrwt>
<totfact> 0.17633602E+00</totfact>
</mgrwt>
</event>
<event>
 5    0  0.5993533E-001  0.2779666E+03  0.7546771E-02  0.1096805E+00
          2   -1    0    0  502    0 -0.00000000000E+00  0.00000000000E+00  0.83567225063E+03  0.83567225063E+03  0.00000000000E+00 0. -1.
         21   -1    0    0  503  502  0.00000000000E+00 -0.00000000000E+00 -0.12423103896E+03  0.12423103896E+03  0.00000000000E+00 0. -1.
         25    1    1    2    0    0  0.22393525658E+03  0.10720752623E+03  0.97064170886E+02  0.29442640183E+03  0.12500000000E+03 0.  0.
         21    1    1    2  503  501 -0.14390947014E+02 -0.15295197503E+02  0.10481467760E+03  0.10689789083E+03  0.00000000000E+00 0.  1.
          2    1    1    2  501    0 -0.20954430957E+03 -0.91912328729E+02  0.50956236318E+03  0.55857899694E+03  0.00000000000E+00 0. -1.
<mgrwt>
<rscale>  4 0.27796664E+03</rscale>
<asrwt>0</asrwt>
<pdfrwt beam="1">  1       21 0.19112468E-01 0.27796664E+03</pdfrwt>
<pdfrwt beam="2">  1        2 0.12856496E+00 0.27796664E+03</pdfrwt>
<totfact> 0.10440859E+04</totfact>
</mgrwt>
</event>
<event>
 5    0  0.5993533E-001  0.2358941E+03  0.7546771E-02  0.1122559E+00
         -2   -1    0    0    0  501 -0.00000000000E+00  0.00000000000E+00  0.26503918139E+02  0.26503918139E+02  0.00000000000E+00 0.  1.
         21   -1    0    0  501  502  0.00000000000E+00 -0.00000000000E+00 -0.32588769458E+04  0.32588769458E+04  0.00000000000E+00 0. -1.
         25    1    1    2    0    0 -0.18929645942E+03 -0.64943415202E+02 -0.26516430711E+04  0.26621207285E+04  0.12500000000E+03 0.  0.
         21    1    1    2  501  501  0.75567211806E+01 -0.20178612519E+02 -0.10049314291E+03  0.10277719694E+03  0.00000000000E+00 0.  1.
         -2    1    1    2    0  502  0.18173973824E+03  0.85122027722E+02 -0.48023681362E+03  0.52048293845E+03  0.00000000000E+00 0.  1.
<mgrwt>
<rscale>  4 0.23589412E+03</rscale>
<asrwt>0</asrwt>
<pdfrwt beam="1">  1       21 0.50136561E+00 0.23589412E+03</pdfrwt>
<pdfrwt beam="2">  1       -2 0.40775265E-02 0.23589412E+03</pdfrwt>
<totfact> 0.36217857E+01</totfact>
</mgrwt>
</event>
<event>
 5    0  0.5993533E-001  0.2415235E+03  0.7546771E-02  0.1118782E+00
         21   -1    0    0  503  502  0.00000000000E+00  0.00000000000E+00  0.15863213104E+03  0.15863213104E+03  0.00000000000E+00 0.  1.
          3   -1    0    0  502    0 -0.00000000000E+00 -0.00000000000E+00 -0.33685727524E+03  0.33685727524E+03  0.00000000000E+00 0.  1.
         25    1    1    2    0    0  0.18185197383E+03  0.98175614641E+02 -0.48664638422E+02  0.24637743146E+03  0.12500000000E+03 0.  0.
         21    1    1    2  503  501 -0.71430859454E+02 -0.39720049634E+02 -0.23011728230E+02  0.84909302562E+02  0.00000000000E+00 0.  1.
          3    1    1    2  501    0 -0.11042111438E+03 -0.58455565006E+02 -0.10654877754E+03  0.16420267226E+03  0.00000000000E+00 0.  1.
<mgrwt>
<rscale>  4 0.24152348E+03</rscale>
<asrwt>0</asrwt>
<pdfrwt beam="1">  1       21 0.24404944E-01 0.24152348E+03</pdfrwt>
<pdfrwt beam="2">  1        3 0.51824195E-01 0.24152348E+03</pdfrwt>
<totfact> 0.29125470E+03</totfact>
</mgrwt>
</event>
<event>
 5    0  0.5993533E-001  0.2581356E+03  0.7546771E-02  0.1108269E+00
          2   -1    0    0  502    0 -0.00000000000E+00  0.00000000000E+00  0.10237524315E+04  0.10237524315E+04  0.00000000000E+00 0.  1.
         21   -1    0    0  503  502  0.00000000000E+00 -0.00000000000E+00 -0.16001694194E+03  0.16001694194E+03  0.00000000000E+00 0. -1.
         25    1    1    2    0    0 -0.14331064307E+03 -0.20030550767E+03 -0.26905690214E+01  0.27621092662E+03  0.12500000000E+03 0.  0.
         21    1    1    2  503  501  0.25697309392E+02  0.99505966560E+01  0.26111314670E+02  0.37962703244E+02  0.00000000000E+00 0. -1.
          2    1    1    2  501    0  0.11761333368E+03  0.19035491101E+03  0.84031474389E+03  0.86959574355E+03  0.00000000000E+00 0.  1.
<mgrwt>
<rscale>  4 0.25813561E+03</rscale>
<asrwt>0</asrwt>
<pdfrwt beam="1">  1       21 0.24617992E-01 0.25813561E+03</pdfrwt>
<pdfrwt beam="2">  1        2 0.15750037E+00 0.25813561E+03</pdfrwt>
<totfact> 0.49229895E+03</totfact>
</mgrwt>
</event>
<event>
 5    0  0.5993533E-001  0.2769375E+03  0.7546771E-02  0.1097373E+00
         21   -1    0    0  503  502  0.00000000000E+00  0.00000000000E+00  0.11387280927E+03  0.11387280927E+03  0.00000000000E+00 0.  1.
          2   -1    0    0  502    0 -0.00000000000E+00 -0.00000000000E+00 -0.93151934056E+03  0.93151934056E+03  0.00000000000E+00 0.  1.
         25    1    1    2    0    0 -0.14395617329E+02 -0.24670258489E+03 -0.11589957211E+03  0.30021177526E+03  0.12500000000E+03 0.  0.
         21    1    1    2  503  501 -0.18536542622E+01  0.25129055328E+02 -0.41436807754E+02  0.48496541038E+02  0.00000000000E+00 0.  1.
          2    1    1    2  501    0  0.16249271591E+02  0.22157352956E+03 -0.66031015143E+03  0.69668383354E+03  0.00000000000E+00 0.  1.
<mgrwt>
<rscale>  4 0.27693754E+03</rscale>
<asrwt>0</asrwt>
<pdfrwt beam="1">  1       21 0.17518893E-01 0.27693754E+03</pdfrwt>
<pdfrwt beam="2">  1        2 0.14331067E+00 0.27693754E+03</pdfrwt>
<totfact> 0.10629980E+04</totfact>
</mgrwt>
</event>
<event>
 5    0  0.5993533E-001  0.5746925E+03  0.7546771E-02  0.9959348E-01
          1   -1    0    0  502    0 -0.00000000000E+00  0.00000000000E+00  0.10258301600E+04  0.10258301600E+04  0.00000000000E+00 0.  1.
         21   -1    0    0  503  502  0.00000000000E+00 -0.00000000000E+00 -0.35202315283E+03  0.35202315283E+03  0.00000000000E+00 0.  1.
         25    1    1    2    0    0  0.51498261305E+03 -0.25736303177E+03  0.24552507355E+03  0.63824006738E+03  0.12500000000E+03 0.  0.
         21    1    1    2  503  501 -0.13973972868E+02  0.27792565759E+02 -0.12895005390E+02  0.33674616452E+02  0.00000000000E+00 0.  1.
          1    1    1    2  501    0 -0.50100864018E+03  0.22957046601E+03  0.44117693897E+03  0.70593862898E+03  0.00000000000E+00 0.  1.
<mgrwt>
<rscale>  4 0.57469245E+03</rscale>
<asrwt>0</asrwt>
<pdfrwt beam="1">  1       21 0.54157408E-01 0.57469245E+03</pdfrwt>
<pdfrwt beam="2">  1        1 0.15782002E+00 0.57469245E+03</pdfrwt>
<totfact> 0.48240392E+02</totfact>
</mgrwt>
</event>
<event>
 5    0  0.5993533E-001  0.3010042E+03  0.7546771E-02  0.1084740E+00
          2   -1    0    0  502    0 -0.00000000000E+00  0.00000000000E+00  0.13024129349E+04  0.13024129349E+04  0.00000000000E+00 0.  1.
         21   -1    0    0  503  502  0.00000000000E+00 -0.00000000000E+00 -0.91548963810E+02  0.91548963810E+02  0.00000000000E+00 0.  1.
         25    1    1    2    0    0  0.24521735721E+03 -0.16917703035E+03  0.55930142407E+03  0.64590672921E+03  0.12500000000E+03 0.  0.
         21    1    1    2  503  501 -0.92857211140E+02 -0.45150641960E+02  0.15660979630E+03  0.18758376909E+03  0.00000000000E+00 0.  1.
          2    1    1    2  501    0 -0.15236014607E+03  0.21432767231E+03  0.49495275077E+03  0.56047140045E+03  0.00000000000E+00 0.  1.
<mgrwt>
<rscale>  4 0.30100423E+03</rscale>
<asrwt>0</asrwt>
<pdfrwt beam="1">  1       21 0.14084457E-01 0.30100423E+03</pdfrwt>
<pdfrwt beam="2">  1        2 0.20037121E+00 0.30100423E+03</pdfrwt>
<totfact> 0.95483397E+03</totfact>
</mgrwt>
</event>
<event>
 5    0  0.5993533E-001  0.3007158E+03  0.7546771E-02  0.1084883E+00
          1   -1    0    0  502    0 -0.00000000000E+00  0.00000000000E+00  0.12242163378E+03  0.12242163378E+03  0.00000000000E+00 0. -1.
         21   -1    0    0  503  502  0.00000000000E+00 -0.00000000000E+00 -0.71092391671E+03  0.71092391671E+03  0.00000000000E+00 0. -1.
         25    1    1    2    0    0  0.17483625220E+03 -0.21032660634E+03 -0.36258634252E+03  0.47106141022E+03  0.12500000000E+03 0.  0.
         21    1    1    2  503  501 -0.11111203001E+03  0.18251721757E+03 -0.17179629473E+03  0.27417582826E+03  0.00000000000E+00 0. -1.
          1    1    1    2  501    0 -0.63724222187E+02  0.27809388773E+02 -0.54119645687E+02  0.88108312018E+02  0.00000000000E+00 0. -1.
<mgrwt>
<rscale>  4 0.30071581E+03</rscale>
<asrwt>0</asrwt>
<pdfrwt beam="1">  1       21 0.10937291E+00 0.30071581E+03</pdfrwt>
<pdfrwt beam="2">  1        1 0.18834097E-01 0.30071581E+03</pdfrwt>
<totfact> 0.18928878E+03</totfact>
</mgrwt>
</event>
<event>
 5    0  0.5993533E-001  0.2481906E+03  0.7546771E-02  0.1114454E+00
          2   -1    0    0  502    0 -0.00000000000E+00  0.00000000000E+00  0.33226617619E+04  0.33226617619E+04  0.00000000000E+00 0. -1.
         21   -1    0    0  503  502  0.00000000000E+00 -0.00000000000E+00 -0.12484274064E+03  0.12484274064E+03  0.00000000000E+00 0.  1.
         25    1    1    2    0    0 -0.14236629082E+03 -0.16032907741E+03  0.60983365598E+01  0.24826551016E+03  0.12500000000E+03 0.  0.
         21    1    1    2  503  501  0.47981542647E+02  0.33612703838E+02  0.66120787066E+03  0.66379807963E+03  0.00000000000E+00 0.  1.
          2    1    1    2  501    0  0.94384748173E+02  0.12671637357E+03  0.25305128141E+04  0.25354409128E+04  0.00000000000E+00 0. -1.
<mgrwt>
<rscale>  4 0.24819060E+03</rscale>
<asrwt>0</asrwt>
<pdfrwt beam="1">  1       21 0.19206578E-01 0.24819060E+03</pdfrwt>
<pdfrwt beam="2">  1        2 0.51117867E+00 0.24819060E+03</pdfrwt>
<totfact> 0.41650743E+02</totfact>
</mgrwt>
</event>
<event>
 5    0  0.5993533E-001  0.3876817E+03  0.7546771E-02  0.1048131E+00
         -3   -1    0    0    0  501 -0.00000000000E+00  0.00000000000E+00  0.41109835161E+03  0.41109835161E+03  0.00000000000E+00 0.  1.
         21   -1    0    0  501  502  0.00000000000E+00 -0.00000000000E+00 -0.10765317694E+04  0.10765317694E+04  0.00000000000E+00 0. -1.
         25    1    1    2    0    0  0.35828848789E+03 -0.79381847214E+02 -0.94294752358E+03  0.10195328099E+04  0.12500000000E+03 0.  0.
         21    1    1    2  501  501 -0.17230642716E+02 -0.14198819942E+02  0.90977822139E+01  0.24109566097E+02  0.00000000000E+00 0. -1.
         -3    1    1    2    0  502 -0.34105784518E+03  0.93580667156E+02  0.26841632354E+03  0.44398774506E+03  0.00000000000E+00 0.  1.
<mgrwt>
<rscale>  4 0.38768172E+03</rscale>
<asrwt>0</asrwt>
<pdfrwt beam="1">  1       21 0.16562027E+00 0.38768172E+03</pdfrwt>
<pdfrwt beam="2">  1       -3 0.63245900E-01 0.38768172E+03</pdfrwt>
<totfact> 0.25540335E+01</totfact>
</mgrwt>
</event>
<event>
 5    0  0.5993533E-001  0.4387795E+03  0.7546771E-02  0.1032305E+00
          2   -1    0    0  502    0 -0.00000000000E+00  0.00000000000E+00  0.73848849248E+03  0.73848849248E+03  0.00000000000E+00 0. -1.
         21   -1    0    0  503  502  0.00000000000E+00 -0.00000000000E+00 -0.25602440294E+03  0.25602440294E+03  0.00000000000E+00 0. -1.
         25    1    1    2    0    0 -0.39267745473E+03  0.98454594037E+02  0.30081888559E+03  0.51962091227E+03  0.12500000000E+03 0.  0.
         21    1    1    2  503  501  0.19830101699E+03 -0.12487267307E+03  0.52858034090E+02  0.24022999310E+03  0.00000000000E+00 0. -1.
          2    1    1    2  501    0  0.19437643774E+03  0.26418079029E+02  0.12878716986E+03  0.23466199004E+03  0.00000000000E+00 0. -1.
<mgrwt>
<rscale>  4 0.43495771E+03</rscale>
<asrwt>0</asrwt>
<pdfrwt beam="1">  1       21 0.39388370E-01 0.43877946E+03</pdfrwt>
<pdfrwt beam="2">  1        2 0.11361361E+00 0.43877946E+03</pdfrwt>
<totfact> 0.28726372E+03</totfact>
</mgrwt>
</event>
<event>
 5    0  0.5993533E-001  0.2374975E+03  0.7546771E-02  0.1121471E+00
          2   -1    0    0  502    0 -0.00000000000E+00  0.00000000000E+00  0.12399840923E+04  0.12399840923E+04  0.00000000000E+00 0.  1.
         21   -1    0    0  503  502  0.00000000000E+00 -0.00000000000E+00 -0.16905363994E+03  0.16905363994E+03  0.00000000000E+00 0.  1.
         25    1    1    2    0    0  0.12122425814E+03  0.16150777544E+03 -0.69914869315E+02  0.24757457713E+03  0.12500000000E+03 0.  0.
         21    1    1    2  503  501 -0.63798693271E+02 -0.22834596354E+02  0.36175410407E+03  0.36804581762E+03  0.00000000000E+00 0. -1.
          2    1    1    2  501    0 -0.57425564865E+02 -0.13867317909E+03  0.77909121755E+03  0.79341733745E+03  0.00000000000E+00 0.  1.
<mgrwt>
<rscale>  4 0.23749754E+03</rscale>
<asrwt>0</asrwt>
<pdfrwt beam="1">  1       21 0.26008253E-01 0.23749754E+03</pdfrwt>
<pdfrwt beam="2">  1        2 0.19076678E+00 0.23749754E+03</pdfrwt>
<totfact> 0.33399804E+03</totfact>
</mgrwt>
</event>
<event>
 5    0  0.5993533E-001  0.2664019E+03  0.7546771E-02  0.1103357E+00
          2   -1    0    0  502    0 -0.00000000000E+00  0.00000000000E+00  0.19908998858E+04  0.19908998858E+04  0.00000000000E+00 0. -1.
         21   -1    0    0  503  502  0.00000000000E+00 -0.00000000000E+00 -0.23633598690E+03  0.23633598690E+03  0.00000000000E+00 0. -1.
         25    1    1    2    0    0 -0.16909349300E+03 -0.16356143851E+03 -0.15132943242E+03  0.30638301301E+03  0.12500000000E+03 0.  0.
         21    1    1    2  503  501  0.31219592713E+02  0.56848005169E+02  0.49811349434E+03  0.50231803860E+03  0.00000000000E+00 0. -1.
          2    1    1    2  501    0  0.13787390029E+03  0.10671343334E+03  0.14077798370E+04  0.14185348211E+04  0.00000000000E+00 0. -1.
<mgrwt>
<rscale>  4 0.26640186E+03</rscale>
<asrwt>0</asrwt>
<pdfrwt beam="1">  1       21 0.36359384E-01 0.26640186E+03</pdfrwt>
<pdfrwt beam="2">  1        2 0.30629228E+00 0.26640186E+03</pdfrwt>
<totfact> 0.67748469E+02</totfact>
</mgrwt>
</event>
<event>
 5    0  0.5993533E-001  0.3348785E+03  0.7546771E-02  0.1068998E+00
         21   -1    0    0  503  502  0.00000000000E+00  0.00000000000E+00  0.36239834759E+02  0.36239834759E+02  0.00000000000E+00 0.  1.
          2   -1    0    0  502    0 -0.00000000000E+00 -0.00000000000E+00 -0.34792658929E+04  0.34792658929E+04  0.00000000000E+00 0.  1.
         25    1    1    2    0    0  0.50723097781E+01 -0.31063298125E+03 -0.10600230825E+04  0.11116620497E+04  0.12500000000E+03 0.  0.
         21    1    1    2  503  501  0.15361617403E+02  0.39113751609E+02 -0.40825799670E+03  0.41041498111E+03  0.00000000000E+00 0.  1.
          2    1    1    2  501    0 -0.20433927181E+02  0.27151922964E+03 -0.19747449789E+04  0.19934286968E+04  0.00000000000E+00 0.  1.
<mgrwt>
<rscale>  4 0.33487845E+03</rscale>
<asrwt>0</asrwt>
<pdfrwt beam="1">  1       21 0.55753588E-02 0.33487845E+03</pdfrwt>
<pdfrwt beam="2">  1        2 0.53527171E+00 0.33487845E+03</pdfrwt>
<totfact> 0.28807275E+03</totfact>
</mgrwt>
</event>
<event>
 5    0  0.5993533E-001  0.2522970E+03  0.7546771E-02  0.1111862E+00
          2   -1    0    0  502    0 -0.00000000000E+00  0.00000000000E+00  0.19104546817E+04  0.19104546817E+04  0.00000000000E+00 0.  1.
         21   -1    0    0  503  502  0.00000000000E+00 -0.00000000000E+00 -0.30049325608E+02  0.30049325608E+02  0.00000000000E+00 0. -1.
         25    1    1    2    0    0 -0.10860896962E+03  0.19034927880E+03  0.86726677755E+03  0.90321947480E+03  0.12500000000E+03 0.  0.
         21    1    1    2  503  501  0.17402173677E+02 -0.11474111568E+02  0.71465507574E+02  0.74443331856E+02  0.00000000000E+00 0.  1.
          2    1    1    2  501    0  0.91206795946E+02 -0.17887516723E+03  0.94167307093E+03  0.96284120061E+03  0.00000000000E+00 0.  1.
<mgrwt>
<rscale>  4 0.25229696E+03</rscale>
<asrwt>0</asrwt>
<pdfrwt beam="1">  1       21 0.46229747E-02 0.25229696E+03</pdfrwt>
<pdfrwt beam="2">  1        2 0.29391601E+00 0.25229696E+03</pdfrwt>
<totfact> 0.32432082E+04</totfact>
</mgrwt>
</event>
<event>
 5    0  0.5993533E-001  0.2663362E+03  0.7546771E-02  0.1103395E+00
         21   -1    0    0  503  502  0.00000000000E+00  0.00000000000E+00  0.11058922897E+03  0.11058922897E+03  0.00000000000E+00 0. -1.
          2   -1    0    0  502    0 -0.00000000000E+00 -0.00000000000E+00 -0.72166405329E+03  0.72166405329E+03  0.00000000000E+00 0.  1.
         25    1    1    2    0    0 -0.22781427640E+03 -0.58400720722E+02 -0.13319544592E+03  0.29778518352E+03  0.12500000000E+03 0.  0.
         21    1    1    2  503  501  0.24996403780E+02  0.17623818363E+02 -0.41684108689E+02  0.51700909981E+02  0.00000000000E+00 0. -1.
          2    1    1    2  501    0  0.20281787262E+03  0.40776902359E+02 -0.43619526971E+03  0.48276718876E+03  0.00000000000E+00 0.  1.
<mgrwt>
<rscale>  4 0.26633623E+03</rscale>
<asrwt>0</asrwt>
<pdfrwt beam="1">  1       21 0.17013727E-01 0.26633623E+03</pdfrwt>
<pdfrwt beam="2">  1        2 0.11102524E+00 0.26633623E+03</pdfrwt>
<totfact> 0.15649168E+04</totfact>
</mgrwt>
</event>
<event>
 5    0  0.5993533E-001  0.2544793E+03  0.7546771E-02  0.1110506E+00
         21   -1    0    0  503  502  0.00000000000E+00  0.00000000000E+00  0.18115865547E+04  0.18115865547E+04  0.00000000000E+00 0. -1.
          2   -1    0    0  502    0 -0.00000000000E+00 -0.00000000000E+00 -0.26046459678E+04  0.26046459678E+04  0.00000000000E+00 0.  1.
         25    1    1    2    0    0  0.21772349216E+03  0.42916548219E+02  0.17911954717E+04  0.18092129690E+04  0.12500000000E+03 0.  0.
         21    1    1    2  503  501 -0.34784620048E+02  0.41875404371E+02 -0.16659249121E+04  0.16668141264E+04  0.00000000000E+00 0.  1.
          2    1    1    2  501    0 -0.18293887212E+03 -0.84791952590E+02 -0.91832997276E+03  0.94020542704E+03  0.00000000000E+00 0.  1.
<mgrwt>
<rscale>  4 0.25447928E+03</rscale>
<asrwt>0</asrwt>
<pdfrwt beam="1">  1       21 0.27870563E+00 0.25447928E+03</pdfrwt>
<pdfrwt beam="2">  1        2 0.40071476E+00 0.25447928E+03</pdfrwt>
<totfact> 0.18839715E+00</totfact>
</mgrwt>
</event>
<event>
 5    0  0.5993533E-001  0.3608555E+03  0.7546771E-02  0.1058246E+00
          1   -1    0    0  502    0 -0.00000000000E+00  0.00000000000E+00  0.60039611417E+03  0.60039611417E+03  0.00000000000E+00 0. -1.
         21   -1    0    0  503  502  0.00000000000E+00 -0.00000000000E+00 -0.33746371427E+03  0.33746371427E+03  0.00000000000E+00 0. -1.
         25    1    1    2    0    0  0.32459747988E+03  0.96063256552E+02 -0.15790078869E+03  0.39389000022E+03  0.12500000000E+03 0.  0.
         21    1    1    2  503  501 -0.30495232071E+02 -0.21645365094E+02  0.75870267530E+02  0.84585923795E+02  0.00000000000E+00 0.  1.
          1    1    1    2  501    0 -0.29410224781E+03 -0.74417891458E+02  0.34496292106E+03  0.45938390442E+03  0.00000000000E+00 0. -1.
<mgrwt>
<rscale>  4 0.36085547E+03</rscale>
<asrwt>0</asrwt>
<pdfrwt beam="1">  1       21 0.51917494E-01 0.36085547E+03</pdfrwt>
<pdfrwt beam="2">  1        1 0.92368633E-01 0.36085547E+03</pdfrwt>
<totfact> 0.12914133E+03</totfact>
</mgrwt>
</event>
<event>
 5    0  0.5993533E-001  0.1926025E+03  0.7546771E-02  0.1156135E+00
          2   -1    0    0  502    0 -0.00000000000E+00  0.00000000000E+00  0.82236559953E+03  0.82236559953E+03  0.00000000000E+00 0. -1.
         21   -1    0    0  503  502  0.00000000000E+00 -0.00000000000E+00 -0.77026424905E+02  0.77026424905E+02  0.00000000000E+00 0. -1.
         25    1    1    2    0    0  0.63821644091E+02 -0.19478288045E+03  0.44813890847E+03  0.50839655197E+03  0.12500000000E+03 0.  0.
         21    1    1    2  503  501 -0.34151194872E+01  0.13390543378E+03  0.76584906892E+02  0.15429703886E+03  0.00000000000E+00 0. -1.
          2    1    1    2  501    0 -0.60406524604E+02  0.60877446674E+02  0.22061535926E+03  0.23669843360E+03  0.00000000000E+00 0. -1.
<mgrwt>
<rscale>  4 0.19260247E+03</rscale>
<asrwt>0</asrwt>
<pdfrwt beam="1">  1       21 0.11850220E-01 0.19260247E+03</pdfrwt>
<pdfrwt beam="2">  1        2 0.12651778E+00 0.19260247E+03</pdfrwt>
<totfact> 0.26006239E+04</totfact>
</mgrwt>
</event>
<event>
 5    0  0.5993533E-001  0.2848896E+03  0.7546771E-02  0.1093048E+00
         21   -1    0    0  503  502  0.00000000000E+00  0.00000000000E+00  0.12665462991E+04  0.12665462991E+04  0.00000000000E+00 0. -1.
          1   -1    0    0  502    0 -0.00000000000E+00 -0.00000000000E+00 -0.29064008460E+03  0.29064008460E+03  0.00000000000E+00 0. -1.
         25    1    1    2    0    0  0.25180013803E+03 -0.54041818820E+02  0.11734901232E+04  0.12079022713E+04  0.12500000000E+03 0.  0.
         21    1    1    2  503  501 -0.19713041753E+02  0.26798277626E+02  0.12019854970E+02  0.35372709995E+02  0.00000000000E+00 0.  1.
          1    1    1    2  501    0 -0.23208709628E+03  0.27243541195E+02 -0.20960376371E+03  0.31391140240E+03  0.00000000000E+00 0. -1.
<mgrwt>
<rscale>  4 0.28488958E+03</rscale>
<asrwt>0</asrwt>
<pdfrwt beam="1">  1       21 0.19485327E+00 0.28488958E+03</pdfrwt>
<pdfrwt beam="2">  1        1 0.44713860E-01 0.28488958E+03</pdfrwt>
<totfact> 0.13504718E+02</totfact>
</mgrwt>
</event>
<event>
 5    0  0.5993533E-001  0.3656928E+03  0.7546771E-02  0.1056352E+00
          2   -1    0    0  502    0 -0.00000000000E+00  0.00000000000E+00  0.16543825278E+04  0.16543825278E+04  0.00000000000E+00 0.  1.
         21   -1    0    0  503  502  0.00000000000E+00 -0.00000000000E+00 -0.47720516998E+03  0.47720516998E+03  0.00000000000E+00 0.  1.
         25    1    1    2    0    0 -0.34151679061E+03  0.23651512194E+02 -0.37662947269E+03  0.52408765679E+03  0.12500000000E+03 0.  0.
         21    1    1    2  503  501 -0.28304421597E+02  0.98610660836E+01  0.48057303310E+02  0.56638196543E+02  0.00000000000E+00 0. -1.
          2    1    1    2  501    0  0.36982121221E+03 -0.33512578277E+02  0.15057495272E+04  0.15508618444E+04  0.00000000000E+00 0.  1.
<mgrwt>
<rscale>  4 0.36569280E+03</rscale>
<asrwt>0</asrwt>
<pdfrwt beam="1">  1       21 0.73416181E-01 0.36569280E+03</pdfrwt>
<pdfrwt beam="2">  1        2 0.25452039E+00 0.36569280E+03</pdfrwt>
<totfact> 0.21829136E+02</totfact>
</mgrwt>
</event>
<event>
 5    0  0.5993533E-001  0.2868400E+03  0.7546771E-02  0.1092011E+00
          1   -1    0    0  502    0 -0.00000000000E+00  0.00000000000E+00  0.57869008089E+03  0.57869008089E+03  0.00000000000E+00 0. -1.
         21   -1    0    0  503  502  0.00000000000E+00 -0.00000000000E+00 -0.22141125411E+03  0.22141125411E+03  0.00000000000E+00 0. -1.
         25    1    1    2    0    0  0.23769839585E+03 -0.10075547431E+03 -0.71031502141E+02  0.29550409014E+03  0.12500000000E+03 0.  0.
         21    1    1    2  503  501 -0.41303041497E+02 -0.82600979492E+01  0.70450818801E+02  0.82082204678E+02  0.00000000000E+00 0.  1.
          1    1    1    2  501    0 -0.19639535435E+03  0.10901557226E+03  0.35785951012E+03  0.42251504019E+03  0.00000000000E+00 0. -1.
<mgrwt>
<rscale>  4 0.28684001E+03</rscale>
<asrwt>0</asrwt>
<pdfrwt beam="1">  1       21 0.34063270E-01 0.28684001E+03</pdfrwt>
<pdfrwt beam="2">  1        1 0.89029243E-01 0.28684001E+03</pdfrwt>
<totfact> 0.33048119E+03</totfact>
</mgrwt>
</event>
<event>
 5    0  0.5993533E-001  0.2327885E+03  0.7546771E-02  0.1124692E+00
         21   -1    0    0  503  502  0.00000000000E+00  0.00000000000E+00  0.17011594776E+03  0.17011594776E+03  0.00000000000E+00 0. -1.
          3   -1    0    0  502    0 -0.00000000000E+00 -0.00000000000E+00 -0.78839964212E+03  0.78839964212E+03  0.00000000000E+00 0.  1.
         25    1    1    2    0    0 -0.21149392155E+03  0.76310524608E+02  0.85636639675E+01  0.25739330092E+03  0.12500000000E+03 0.  0.
         21    1    1    2  503  501  0.64071249830E+02  0.50559768617E+02 -0.58504436059E+02  0.10042003932E+03  0.00000000000E+00 0. -1.
          3    1    1    2  501    0  0.14742267172E+03 -0.12687029323E+03 -0.56834292226E+03  0.60070224964E+03  0.00000000000E+00 0.  1.
<mgrwt>
<rscale>  4 0.23278846E+03</rscale>
<asrwt>0</asrwt>
<pdfrwt beam="1">  1       21 0.26171685E-01 0.23278846E+03</pdfrwt>
<pdfrwt beam="2">  1        3 0.12129225E+00 0.23278846E+03</pdfrwt>
<totfact> 0.39361495E+02</totfact>
</mgrwt>
</event>
<event>
 5    0  0.5993533E-001  0.2693363E+03  0.7546771E-02  0.1101660E+00
          2   -1    0    0  502    0 -0.00000000000E+00  0.00000000000E+00  0.15669966523E+04  0.15669966523E+04  0.00000000000E+00 0.  1.
         21   -1    0    0  503  502  0.00000000000E+00 -0.00000000000E+00 -0.18977439820E+03  0.18977439820E+03  0.00000000000E+00 0. -1.
         25    1    1    2    0    0 -0.21758921029E+03 -0.64884362611E+02 -0.69235098243E+02  0.26827885451E+03  0.12500000000E+03 0.  0.
         21    1    1    2  503  501 -0.21268488151E+02  0.46522250189E+02  0.49637158111E+02  0.71277737171E+02  0.00000000000E+00 0. -1.
          2    1    1    2  501    0  0.23885769844E+03  0.18362112422E+02  0.13968201942E+04  0.14172144588E+04  0.00000000000E+00 0.  1.
<mgrwt>
<rscale>  4 0.26933634E+03</rscale>
<asrwt>0</asrwt>
<pdfrwt beam="1">  1       21 0.29196062E-01 0.26933634E+03</pdfrwt>
<pdfrwt beam="2">  1        2 0.24107640E+00 0.26933634E+03</pdfrwt>
<totfact> 0.17483109E+03</totfact>
</mgrwt>
</event>
<event>
 5    0  0.5993533E-001  0.3154799E+03  0.7546771E-02  0.1077749E+00
         21   -1    0    0  501  502  0.00000000000E+00  0.00000000000E+00  0.49888712299E+03  0.49888712299E+03  0.00000000000E+00 0. -1.
         -1   -1    0    0    0  501 -0.00000000000E+00 -0.00000000000E+00 -0.22989730758E+03  0.22989730758E+03  0.00000000000E+00 0. -1.
         25    1    1    2    0    0 -0.27001522960E+03  0.10485393515E+03  0.28885895562E+03  0.42774649990E+03  0.12500000000E+03 0.  0.
         21    1    1    2  501  501  0.16738148457E+03 -0.10529272334E+03 -0.13566611367E+02  0.19820991880E+03  0.00000000000E+00 0. -1.
         -1    1    1    2    0  502  0.10263374503E+03  0.43878819303E+00 -0.63025288448E+01  0.10282801187E+03  0.00000000000E+00 0. -1.
<mgrwt>
<rscale>  4 0.31547991E+03</rscale>
<asrwt>0</asrwt>
<pdfrwt beam="1">  1       21 0.76751864E-01 0.31547991E+03</pdfrwt>
<pdfrwt beam="2">  1       -1 0.35368817E-01 0.31547991E+03</pdfrwt>
<totfact> 0.10207035E+03</totfact>
</mgrwt>
</event>
<event>
 5    0  0.5993533E-001  0.2531890E+03  0.7546771E-02  0.1111306E+00
         21   -1    0    0  503  502  0.00000000000E+00  0.00000000000E+00  0.83113692037E+02  0.83113692037E+02  0.00000000000E+00 0.  1.
          2   -1    0    0  502    0 -0.00000000000E+00 -0.00000000000E+00 -0.24881537019E+04  0.24881537019E+04  0.00000000000E+00 0.  1.
         25    1    1    2    0    0  0.16808290748E+03  0.15049597990E+03 -0.15191983452E+03  0.29934184451E+03  0.12500000000E+03 0.  0.
         21    1    1    2  503  501 -0.15285431149E+03 -0.12177731059E+03 -0.10301992308E+04  0.10485726532E+04  0.00000000000E+00 0.  1.
          2    1    1    2  501    0 -0.15228595987E+02 -0.28718669306E+02 -0.12229209446E+04  0.12233528962E+04  0.00000000000E+00 0.  1.
<mgrwt>
<rscale>  4 0.25318896E+03</rscale>
<asrwt>0</asrwt>
<pdfrwt beam="1">  1       21 0.12786721E-01 0.25318896E+03</pdfrwt>
<pdfrwt beam="2">  1        2 0.38279289E+00 0.25318896E+03</pdfrwt>
<totfact> 0.26942289E+03</totfact>
</mgrwt>
</event>
<event>
 5    0  0.5993533E-001  0.2925498E+03  0.7546771E-02  0.1089025E+00
         -4   -1    0    0    0  501 -0.00000000000E+00  0.00000000000E+00  0.98906442822E+03  0.98906442822E+03  0.00000000000E+00 0.  1.
         21   -1    0    0  501  502  0.00000000000E+00 -0.00000000000E+00 -0.60586426965E+03  0.60586426965E+03  0.00000000000E+00 0.  1.
         25    1    1    2    0    0  0.91478576810E+02  0.24696533300E+03 -0.54065359314E+03  0.61424059902E+03  0.12500000000E+03 0.  0.
         21    1    1    2  501  501 -0.12011793767E+02  0.34132254232E+02  0.83204537307E+02  0.90731962378E+02  0.00000000000E+00 0.  1.
         -4    1    1    2    0  502 -0.79466783043E+02 -0.28109758723E+03  0.84064921440E+03  0.88995613646E+03  0.00000000000E+00 0.  1.
<mgrwt>
<rscale>  4 0.29254977E+03</rscale>
<asrwt>0</asrwt>
<pdfrwt beam="1">  1       21 0.93209888E-01 0.29254977E+03</pdfrwt>
<pdfrwt beam="2">  1       -4 0.15216376E+00 0.29254977E+03</pdfrwt>
<totfact> 0.11922857E+01</totfact>
</mgrwt>
</event>
<event>
 5    0  0.5993533E-001  0.2635607E+03  0.7546771E-02  0.1105023E+00
         21   -1    0    0  503  502  0.00000000000E+00  0.00000000000E+00  0.14467317345E+04  0.14467317345E+04  0.00000000000E+00 0.  1.
          2   -1    0    0  502    0 -0.00000000000E+00 -0.00000000000E+00 -0.82424431027E+03  0.82424431027E+03  0.00000000000E+00 0. -1.
         25    1    1    2    0    0  0.22458073371E+03 -0.58332917281E+02  0.14135657676E+04  0.14379264287E+04  0.12500000000E+03 0.  0.
         21    1    1    2  503  501 -0.55492975133E+02  0.66995327331E+02 -0.19779018026E+03  0.21607591162E+03  0.00000000000E+00 0.  1.
          2    1    1    2  501    0 -0.16908775858E+03 -0.86624100499E+01 -0.59328816309E+03  0.61697370440E+03  0.00000000000E+00 0. -1.
<mgrwt>
<rscale>  4 0.26356069E+03</rscale>
<asrwt>0</asrwt>
<pdfrwt beam="1">  1       21 0.22257411E+00 0.26356069E+03</pdfrwt>
<pdfrwt beam="2">  1        2 0.12680682E+00 0.26356069E+03</pdfrwt>
<totfact> 0.39029698E+01</totfact>
</mgrwt>
</event>
<event>
 5    0  0.5993533E-001  0.2283463E+03  0.7546771E-02  0.1127809E+00
         21   -1    0    0  503  502  0.00000000000E+00  0.00000000000E+00  0.96103206292E+03  0.96103206292E+03  0.00000000000E+00 0. -1.
          2   -1    0    0  502    0 -0.00000000000E+00 -0.00000000000E+00 -0.68170193339E+02  0.68170193339E+02  0.00000000000E+00 0. -1.
         25    1    1    2    0    0  0.22076652890E+03 -0.16408691279E+02  0.34904431445E+03  0.43181482013E+03  0.12500000000E+03 0.  0.
         21    1    1    2  503  501 -0.46176648527E+02 -0.28041569319E+02  0.58108680538E+02  0.79342493236E+02  0.00000000000E+00 0. -1.
          2    1    1    2  501    0 -0.17458988038E+03  0.44450260598E+02  0.48570887460E+03  0.51804494290E+03  0.00000000000E+00 0. -1.
<mgrwt>
<rscale>  4 0.22834634E+03</rscale>
<asrwt>0</asrwt>
<pdfrwt beam="1">  1       21 0.14785108E+00 0.22834634E+03</pdfrwt>
<pdfrwt beam="2">  1        2 0.10487723E-01 0.22834634E+03</pdfrwt>
<totfact> 0.22349017E+03</totfact>
</mgrwt>
</event>
<event>
 5    0  0.5993533E-001  0.2943327E+03  0.7546771E-02  0.1088108E+00
          1   -1    0    0  502    0 -0.00000000000E+00  0.00000000000E+00  0.15249116332E+03  0.15249116332E+03  0.00000000000E+00 0.  1.
         21   -1    0    0  503  502  0.00000000000E+00 -0.00000000000E+00 -0.82447348707E+03  0.82447348707E+03  0.00000000000E+00 0.  1.
         25    1    1    2    0    0 -0.26070324985E+03 -0.96107445985E+02 -0.47348997336E+03  0.56304580677E+03  0.12500000000E+03 0.  0.
         21    1    1    2  503  501  0.40572572376E+02 -0.50570259449E+02 -0.12266192143E+03  0.13874232137E+03  0.00000000000E+00 0.  1.
          1    1    1    2  501    0  0.22013067747E+03  0.14667770543E+03 -0.75830428958E+02  0.27517652224E+03  0.00000000000E+00 0.  1.
<mgrwt>
<rscale>  4 0.29433267E+03</rscale>
<asrwt>0</asrwt>
<pdfrwt beam="1">  1       21 0.12684207E+00 0.29433267E+03</pdfrwt>
<pdfrwt beam="2">  1        1 0.23460179E-01 0.29433267E+03</pdfrwt>
<totfact> 0.98611581E+02</totfact>
</mgrwt>
</event>
<event>
 5    0  0.5993533E-001  0.4451401E+03  0.7546771E-02  0.1029181E+00
         21   -1    0    0  501  502  0.00000000000E+00  0.00000000000E+00  0.15181056230E+03  0.15181056230E+03  0.00000000000E+00 0.  1.
         -1   -1    0    0    0  501 -0.00000000000E+00 -0.00000000000E+00 -0.12876331485E+04  0.12876331485E+04  0.00000000000E+00 0.  1.
         25    1    1    2    0    0 -0.81313071916E+02 -0.41941969878E+03 -0.62458235791E+03  0.76697641503E+03  0.12500000000E+03 0.  0.
         21    1    1    2  501  501  0.13626012227E+02  0.45004567197E+02 -0.19972369795E+02  0.51087912788E+02  0.00000000000E+00 0.  1.
         -1    1    1    2    0  502  0.67687059690E+02  0.37441513158E+03 -0.49126785852E+03  0.62137938300E+03  0.00000000000E+00 0.  1.
<mgrwt>
<rscale>  4 0.44514009E+03</rscale>
<asrwt>0</asrwt>
<pdfrwt beam="1">  1       21 0.23355471E-01 0.44514009E+03</pdfrwt>
<pdfrwt beam="2">  1       -1 0.19809741E+00 0.44514009E+03</pdfrwt>
<totfact> 0.25785369E+02</totfact>
</mgrwt>
</event>
<event>
 5    0  0.5993533E-001  0.2572469E+03  0.7546771E-02  0.1108809E+00
         21   -1    0    0  501  502  0.00000000000E+00  0.00000000000E+00  0.29697339684E+03  0.29697339684E+03  0.00000000000E+00 0. -1.
         -1   -1    0    0    0  501 -0.00000000000E+00 -0.00000000000E+00 -0.28644518887E+03  0.28644518887E+03  0.00000000000E+00 0.  1.
         25    1    1    2    0    0  0.37576855853E+02  0.22167302415E+03  0.16109121547E+03  0.30352319423E+03  0.12500000000E+03 0.  0.
         21    1    1    2  501  501  0.14088885243E+02 -0.25645828775E+02 -0.35445871879E+01  0.29474893033E+02  0.00000000000E+00 0. -1.
         -1    1    1    2    0  502 -0.51665741096E+02 -0.19602719538E+03 -0.14701842031E+03  0.25042049844E+03  0.00000000000E+00 0.  1.
<mgrwt>
<rscale>  4 0.25724687E+03</rscale>
<asrwt>0</asrwt>
<pdfrwt beam="1">  1       21 0.45688215E-01 0.25724687E+03</pdfrwt>
<pdfrwt beam="2">  1       -1 0.44068491E-01 0.25724687E+03</pdfrwt>
<totfact> 0.21550431E+03</totfact>
</mgrwt>
</event>
<event>
 5    0  0.5993533E-001  0.2295439E+03  0.7546771E-02  0.1126961E+00
         21   -1    0    0  501  502  0.00000000000E+00  0.00000000000E+00  0.19347887619E+03  0.19347887619E+03  0.00000000000E+00 0.  1.
         -1   -1    0    0    0  501 -0.00000000000E+00 -0.00000000000E+00 -0.66054852085E+03  0.66054852085E+03  0.00000000000E+00 0.  1.
         25    1    1    2    0    0  0.21506506601E+03  0.69532315800E+01  0.55531107194E+02  0.25497065305E+03  0.12500000000E+03 0.  0.
         21    1    1    2  501  501 -0.28844903395E+02 -0.47797661421E+02 -0.16462529223E+02  0.58203606053E+02  0.00000000000E+00 0. -1.
         -1    1    1    2    0  502 -0.18622016262E+03  0.40844429841E+02 -0.50613822263E+03  0.54085313794E+03  0.00000000000E+00 0.  1.
<mgrwt>
<rscale>  4 0.22954391E+03</rscale>
<asrwt>0</asrwt>
<pdfrwt beam="1">  1       21 0.29765981E-01 0.22954391E+03</pdfrwt>
<pdfrwt beam="2">  1       -1 0.10162285E+00 0.22954391E+03</pdfrwt>
<totfact> 0.97370420E+02</totfact>
</mgrwt>
</event>
<event>
 5    0  0.5993533E-001  0.3220249E+03  0.7546771E-02  0.1074721E+00
          3   -1    0    0  502    0 -0.00000000000E+00  0.00000000000E+00  0.69905310896E+03  0.69905310896E+03  0.00000000000E+00 0.  1.
         21   -1    0    0  503  502  0.00000000000E+00 -0.00000000000E+00 -0.15606858988E+03  0.15606858988E+03  0.00000000000E+00 0.  1.
         25    1    1    2    0    0 -0.25868800948E+03 -0.14544937599E+03  0.14573289674E+03  0.35346581789E+03  0.12500000000E+03 0.  0.
         21    1    1    2  503  501  0.15691304780E+03  0.11696882654E+03  0.21312075514E+03  0.28935076849E+03  0.00000000000E+00 0.  1.
          3    1    1    2  501    0  0.10177496168E+03  0.28480549453E+02  0.18413086719E+03  0.21230511246E+03  0.00000000000E+00 0.  1.
<mgrwt>
<rscale>  4 0.32202485E+03</rscale>
<asrwt>0</asrwt>
<pdfrwt beam="1">  1       21 0.24010553E-01 0.32202485E+03</pdfrwt>
<pdfrwt beam="2">  1        3 0.10754663E+00 0.32202485E+03</pdfrwt>
<totfact> 0.60987821E+02</totfact>
</mgrwt>
</event>
<event>
 5    0  0.5993533E-001  0.2918803E+03  0.7546771E-02  0.1089371E+00
          2   -1    0    0  502    0 -0.00000000000E+00  0.00000000000E+00  0.74810723502E+03  0.74810723502E+03  0.00000000000E+00 0.  1.
         21   -1    0    0  503  502  0.00000000000E+00 -0.00000000000E+00 -0.36288429366E+03  0.36288429366E+03  0.00000000000E+00 0.  1.
         25    1    1    2    0    0 -0.23395317845E+03 -0.11340338315E+03 -0.24870778852E+03  0.38088709756E+03  0.12500000000E+03 0.  0.
         21    1    1    2  503  501 -0.50856267059E+02  0.15615598481E+02  0.49550738767E+02  0.72701324110E+02  0.00000000000E+00 0. -1.
          2    1    1    2  501    0  0.28480944551E+03  0.97787784667E+02  0.58437999112E+03  0.65740310701E+03  0.00000000000E+00 0.  1.
<mgrwt>
<rscale>  4 0.29188034E+03</rscale>
<asrwt>0</asrwt>
<pdfrwt beam="1">  1       21 0.55828353E-01 0.29188034E+03</pdfrwt>
<pdfrwt beam="2">  1        2 0.11509342E+00 0.29188034E+03</pdfrwt>
<totfact> 0.14125031E+03</totfact>
</mgrwt>
</event>
<event>
 5    0  0.5993533E-001  0.2811781E+03  0.7546771E-02  0.1095047E+00
          2   -1    0    0  502    0 -0.00000000000E+00  0.00000000000E+00  0.17723483898E+04  0.17723483898E+04  0.00000000000E+00 0. -1.
         21   -1    0    0  503  502  0.00000000000E+00 -0.00000000000E+00 -0.66432301774E+02  0.66432301774E+02  0.00000000000E+00 0.  1.
         25    1    1    2    0    0  0.23321750617E+03  0.95108851935E+02  0.30485528974E+03  0.41472623088E+03  0.12500000000E+03 0.  0.
         21    1    1    2  503  501 -0.25420028458E+02  0.49912520214E+00  0.11124463514E+03  0.11411308348E+03  0.00000000000E+00 0.  1.
          2    1    1    2  501    0 -0.20779747771E+03 -0.95607977137E+02  0.12898161632E+04  0.13099413772E+04  0.00000000000E+00 0. -1.
<mgrwt>
<rscale>  4 0.28117806E+03</rscale>
<asrwt>0</asrwt>
<pdfrwt beam="1">  1       21 0.10220355E-01 0.28117806E+03</pdfrwt>
<pdfrwt beam="2">  1        2 0.27266895E+00 0.28117806E+03</pdfrwt>
<totfact> 0.95739035E+03</totfact>
</mgrwt>
</event>
<event>
 5    0  0.5993533E-001  0.2073030E+03  0.7546771E-02  0.1143720E+00
         21   -1    0    0  503  502  0.00000000000E+00  0.00000000000E+00  0.69631619675E+02  0.69631619675E+02  0.00000000000E+00 0. -1.
          2   -1    0    0  502    0 -0.00000000000E+00 -0.00000000000E+00 -0.11046257441E+04  0.11046257441E+04  0.00000000000E+00 0.  1.
         25    1    1    2    0    0  0.21838346689E+03  0.97029119420E+01 -0.31994356860E+03  0.40715399077E+03  0.12500000000E+03 0.  0.
         21    1    1    2  503  501 -0.64674592090E+02  0.78743912834E+01 -0.44408431007E+02  0.78847432708E+02  0.00000000000E+00 0.  1.
          2    1    1    2  501    0 -0.15370887480E+03 -0.17577303225E+02 -0.67064212486E+03  0.68825594034E+03  0.00000000000E+00 0.  1.
<mgrwt>
<rscale>  4 0.20730303E+03</rscale>
<asrwt>0</asrwt>
<pdfrwt beam="1">  1       21 0.10712557E-01 0.20730303E+03</pdfrwt>
<pdfrwt beam="2">  1        2 0.16994242E+00 0.20730303E+03</pdfrwt>
<totfact> 0.20721138E+04</totfact>
</mgrwt>
</event>
<event>
 5    0  0.5993533E-001  0.2875991E+03  0.7546771E-02  0.1091609E+00
         21   -1    0    0  503  502  0.00000000000E+00  0.00000000000E+00  0.17248885224E+04  0.17248885224E+04  0.00000000000E+00 0.  1.
          2   -1    0    0  502    0 -0.00000000000E+00 -0.00000000000E+00 -0.12366229049E+04  0.12366229049E+04  0.00000000000E+00 0. -1.
         25    1    1    2    0    0 -0.18656120568E+02  0.25821848578E+03  0.16865698048E+04  0.17108967075E+04  0.12500000000E+03 0.  0.
         21    1    1    2  503  501  0.30376027851E+02  0.14385840765E+02 -0.15983042524E+02  0.37217108039E+02  0.00000000000E+00 0. -1.
          2    1    1    2  501    0 -0.11719907282E+02 -0.27260432655E+03 -0.11823211447E+04  0.12133976118E+04  0.00000000000E+00 0. -1.
<mgrwt>
<rscale>  4 0.28759910E+03</rscale>
<asrwt>0</asrwt>
<pdfrwt beam="1">  1       21 0.26536747E+00 0.28759910E+03</pdfrwt>
<pdfrwt beam="2">  1        2 0.19024968E+00 0.28759910E+03</pdfrwt>
<totfact> 0.11766460E+01</totfact>
</mgrwt>
</event>
<event>
 5    0  0.5993533E-001  0.3108273E+03  0.7546771E-02  0.1079950E+00
         21   -1    0    0  503  502  0.00000000000E+00  0.00000000000E+00  0.83241982472E+03  0.83241982472E+03  0.00000000000E+00 0.  1.
          2   -1    0    0  502    0 -0.00000000000E+00 -0.00000000000E+00 -0.13933398586E+03  0.13933398586E+03  0.00000000000E+00 0. -1.
         25    1    1    2    0    0  0.18005467525E+03  0.22038353938E+03  0.55662358886E+03  0.63752914458E+03  0.12500000000E+03 0.  0.
         21    1    1    2  503  501 -0.79859386285E+02 -0.22182169035E+02  0.41395822828E+02  0.92645476676E+02  0.00000000000E+00 0.  1.
          2    1    1    2  501    0 -0.10019528897E+03 -0.19820137034E+03  0.95066427171E+02  0.24157918932E+03  0.00000000000E+00 0. -1.
<mgrwt>
<rscale>  4 0.31082727E+03</rscale>
<asrwt>0</asrwt>
<pdfrwt beam="1">  1       21 0.12806459E+00 0.31082727E+03</pdfrwt>
<pdfrwt beam="2">  1        2 0.21435998E-01 0.31082727E+03</pdfrwt>
<totfact> 0.13442521E+03</totfact>
</mgrwt>
</event>
<event>
 5    0  0.5993533E-001  0.3042955E+03  0.7546771E-02  0.1083113E+00
          2   -1    0    0  502    0 -0.00000000000E+00  0.00000000000E+00  0.12893145149E+04  0.12893145149E+04  0.00000000000E+00 0. -1.
         21   -1    0    0  503  502  0.00000000000E+00 -0.00000000000E+00 -0.10506096577E+04  0.10506096577E+04  0.00000000000E+00 0.  1.
         25    1    1    2    0    0 -0.23977550132E+03 -0.13956521749E+03 -0.10099204101E+04  0.10547677354E+04  0.12500000000E+03 0.  0.
         21    1    1    2  503  501  0.13973016902E+03  0.90909187642E+02  0.47134450896E+03  0.49995464460E+03  0.00000000000E+00 0. -1.
          2    1    1    2  501    0  0.10004533230E+03  0.48656029850E+02  0.77728075832E+03  0.78520179254E+03  0.00000000000E+00 0. -1.
<mgrwt>
<rscale>  4 0.30429548E+03</rscale>
<asrwt>0</asrwt>
<pdfrwt beam="1">  1       21 0.16163226E+00 0.30429548E+03</pdfrwt>
<pdfrwt beam="2">  1        2 0.19835608E+00 0.30429548E+03</pdfrwt>
<totfact> 0.50689210E+01</totfact>
</mgrwt>
</event>
<event>
 5    0  0.5993533E-001  0.3447612E+03  0.7546771E-02  0.1064786E+00
         21   -1    0    0  503  502  0.00000000000E+00  0.00000000000E+00  0.69116443186E+03  0.69116443186E+03  0.00000000000E+00 0. -1.
          2   -1    0    0  502    0 -0.00000000000E+00 -0.00000000000E+00 -0.11067541254E+04  0.11067541254E+04  0.00000000000E+00 0. -1.
         25    1    1    2    0    0  0.31725670344E+03 -0.56173008440E+02  0.61443357224E+03  0.70495449318E+03  0.12500000000E+03 0.  0.
         21    1    1    2  503  501 -0.25459529737E+02 -0.22337785807E+02 -0.21435759996E+02  0.40083115345E+02  0.00000000000E+00 0. -1.
          2    1    1    2  501    0 -0.29179717371E+03  0.78510794248E+02 -0.10085875058E+04  0.10528809488E+04  0.00000000000E+00 0. -1.
<mgrwt>
<rscale>  4 0.34476122E+03</rscale>
<asrwt>0</asrwt>
<pdfrwt beam="1">  1       21 0.10633299E+00 0.34476122E+03</pdfrwt>
<pdfrwt beam="2">  1        2 0.17026986E+00 0.34476122E+03</pdfrwt>
<totfact> 0.18612749E+02</totfact>
</mgrwt>
</event>
<event>
 5    0  0.5993533E-001  0.2584136E+03  0.7546771E-02  0.1108100E+00
         -1   -1    0    0    0  501 -0.00000000000E+00  0.00000000000E+00  0.67902985991E+03  0.67902985991E+03  0.00000000000E+00 0. -1.
         21   -1    0    0  501  502  0.00000000000E+00 -0.00000000000E+00 -0.85024475828E+03  0.85024475828E+03  0.00000000000E+00 0.  1.
         25    1    1    2    0    0 -0.44804283204E+02  0.22448979868E+03 -0.80239035390E+03  0.84371699848E+03  0.12500000000E+03 0.  0.
         21    1    1    2  501  501  0.60325245284E+02 -0.41820932836E+02  0.27935618653E+03  0.28883906349E+03  0.00000000000E+00 0. -1.
         -1    1    1    2    0  502 -0.15520962080E+02 -0.18266886584E+03  0.35181926899E+03  0.39671855622E+03  0.00000000000E+00 0. -1.
<mgrwt>
<rscale>  4 0.25841361E+03</rscale>
<asrwt>0</asrwt>
<pdfrwt beam="1">  1       21 0.13080689E+00 0.25841361E+03</pdfrwt>
<pdfrwt beam="2">  1       -1 0.10446613E+00 0.25841361E+03</pdfrwt>
<totfact> 0.34735872E+01</totfact>
</mgrwt>
</event>
<event>
 5    0  0.5993533E-001  0.2560641E+03  0.7546771E-02  0.1109531E+00
         21   -1    0    0  501  502  0.00000000000E+00  0.00000000000E+00  0.12491949423E+04  0.12491949423E+04  0.00000000000E+00 0.  1.
         -2   -1    0    0    0  501 -0.00000000000E+00 -0.00000000000E+00 -0.91947113084E+02  0.91947113084E+02  0.00000000000E+00 0.  1.
         25    1    1    2    0    0  0.11995133311E+03 -0.20428938397E+03  0.10018854582E+04  0.10370737419E+04  0.12500000000E+03 0.  0.
         21    1    1    2  501  501 -0.48639217522E+02  0.27198737226E+02 -0.33128660558E+01  0.55825799317E+02  0.00000000000E+00 0.  1.
         -2    1    1    2    0  502 -0.71312115586E+02  0.17709064674E+03  0.15867523705E+03  0.24824251418E+03  0.00000000000E+00 0.  1.
<mgrwt>
<rscale>  4 0.25606413E+03</rscale>
<asrwt>0</asrwt>
<pdfrwt beam="1">  1       21 0.19218382E+00 0.25606413E+03</pdfrwt>
<pdfrwt beam="2">  1       -2 0.14145711E-01 0.25606413E+03</pdfrwt>
<totfact> 0.43379890E+02</totfact>
</mgrwt>
</event>
<event>
 5    0  0.5993533E-001  0.2686802E+03  0.7546771E-02  0.1102037E+00
         21   -1    0    0  503  502  0.00000000000E+00  0.00000000000E+00  0.29740725851E+04  0.29740725851E+04  0.00000000000E+00 0.  1.
          1   -1    0    0  502    0 -0.00000000000E+00 -0.00000000000E+00 -0.57523553475E+03  0.57523553475E+03  0.00000000000E+00 0. -1.
         25    1    1    2    0    0 -0.18169260282E+03 -0.16119499411E+03  0.27892182712E+04  0.28025630399E+04  0.12500000000E+03 0.  0.
         21    1    1    2  503  501 -0.47772114594E+02  0.97979671519E+02  0.13289490975E+03  0.17188149406E+03  0.00000000000E+00 0.  1.
          1    1    1    2  501    0  0.22946471741E+03  0.63215322591E+02 -0.52327613061E+03  0.57486358592E+03  0.00000000000E+00 0. -1.
<mgrwt>
<rscale>  4 0.26868020E+03</rscale>
<asrwt>0</asrwt>
<pdfrwt beam="1">  1       21 0.45754962E+00 0.26868020E+03</pdfrwt>
<pdfrwt beam="2">  1        1 0.88497776E-01 0.26868020E+03</pdfrwt>
<totfact> 0.13541660E+00</totfact>
</mgrwt>
</event>
<event>
 5    0  0.5993533E-001  0.2894863E+03  0.7546771E-02  0.1090618E+00
          2   -1    0    0  502    0 -0.00000000000E+00  0.00000000000E+00  0.13611555015E+03  0.13611555015E+03  0.00000000000E+00 0. -1.
         21   -1    0    0  503  502  0.00000000000E+00 -0.00000000000E+00 -0.87230756130E+03  0.87230756130E+03  0.00000000000E+00 0. -1.
         25    1    1    2    0    0 -0.21407018621E+03 -0.15304630027E+03 -0.64085566418E+03  0.70396746868E+03  0.12500000000E+03 0.  0.
         21    1    1    2  503  501 -0.10456703604E+02  0.28824565026E+02  0.15720065582E+00  0.30663054500E+02  0.00000000000E+00 0.  1.
          2    1    1    2  501    0  0.22452688982E+03  0.12422173524E+03 -0.95493547626E+02  0.27379258827E+03  0.00000000000E+00 0. -1.
<mgrwt>
<rscale>  4 0.28948625E+03</rscale>
<asrwt>0</asrwt>
<pdfrwt beam="1">  1       21 0.13420117E+00 0.28948625E+03</pdfrwt>
<pdfrwt beam="2">  1        2 0.20940853E-01 0.28948625E+03</pdfrwt>
<totfact> 0.12331977E+03</totfact>
</mgrwt>
</event>
<event>
 5    0  0.5993533E-001  0.2402625E+03  0.7546771E-02  0.1119618E+00
         21   -1    0    0  503  502  0.00000000000E+00  0.00000000000E+00  0.11732348993E+03  0.11732348993E+03  0.00000000000E+00 0.  1.
          1   -1    0    0  502    0 -0.00000000000E+00 -0.00000000000E+00 -0.90746278756E+03  0.90746278756E+03  0.00000000000E+00 0. -1.
         25    1    1    2    0    0 -0.22125859084E+02  0.19985340605E+03 -0.57578162886E+02  0.24366202492E+03  0.12500000000E+03 0.  0.
         21    1    1    2  503  501  0.26624070219E+02  0.21234101642E+02 -0.22389612730E+03  0.22647119907E+03  0.00000000000E+00 0.  1.
          1    1    1    2  501    0 -0.44982111353E+01 -0.22108750769E+03 -0.50866500745E+03  0.55465305350E+03  0.00000000000E+00 0. -1.
<mgrwt>
<rscale>  4 0.24026246E+03</rscale>
<asrwt>0</asrwt>
<pdfrwt beam="1">  1       21 0.18049768E-01 0.24026246E+03</pdfrwt>
<pdfrwt beam="2">  1        1 0.13960966E+00 0.24026246E+03</pdfrwt>
<totfact> 0.58095440E+03</totfact>
</mgrwt>
</event>
<event>
 5    0  0.5993533E-001  0.2899495E+03  0.7546771E-02  0.1090376E+00
         -1   -1    0    0    0  501 -0.00000000000E+00  0.00000000000E+00  0.14049734062E+04  0.14049734062E+04  0.00000000000E+00 0.  1.
         21   -1    0    0  501  502  0.00000000000E+00 -0.00000000000E+00 -0.54846931137E+02  0.54846931137E+02  0.00000000000E+00 0.  1.
         25    1    1    2    0    0  0.22851802303E+03 -0.12737827191E+03  0.71763788173E+03  0.77399925084E+03  0.12500000000E+03 0.  0.
         21    1    1    2  501  501 -0.24812944308E+02  0.19696719931E+02  0.47555256093E+02  0.57141450483E+02  0.00000000000E+00 0. -1.
         -1    1    1    2    0  502 -0.20370507872E+03  0.10768155198E+03  0.58493333727E+03  0.62867963605E+03  0.00000000000E+00 0.  1.
<mgrwt>
<rscale>  4 0.28994950E+03</rscale>
<asrwt>0</asrwt>
<pdfrwt beam="1">  1       21 0.84379905E-02 0.28994950E+03</pdfrwt>
<pdfrwt beam="2">  1       -1 0.21614973E+00 0.28994950E+03</pdfrwt>
<totfact> 0.13239381E+03</totfact>
</mgrwt>
</event>
<event>
 5    0  0.5993533E-001  0.6803321E+03  0.7546771E-02  0.9912685E-01
          1   -1    0    0  502    0 -0.00000000000E+00  0.00000000000E+00  0.95871122283E+03  0.95871122283E+03  0.00000000000E+00 0. -1.
         21   -1    0    0  503  502  0.00000000000E+00 -0.00000000000E+00 -0.11002067436E+04  0.11002067436E+04  0.00000000000E+00 0. -1.
         25    1    1    2    0    0  0.11823597267E+03 -0.36338436999E+03 -0.93256091404E+03  0.10155406461E+04  0.12500000000E+03 0.  0.
         21    1    1    2  503  501 -0.77947632593E+02  0.20350924535E+03  0.84284621983E+03  0.87056395322E+03  0.00000000000E+00 0. -1.
          1    1    1    2  501    0 -0.40288340077E+02  0.15987512465E+03 -0.51780826537E+02  0.17281336703E+03  0.00000000000E+00 0. -1.
<mgrwt>
<rscale>  4 0.59650444E+03</rscale>
<asrwt>0</asrwt>
<pdfrwt beam="1">  1       21 0.16926258E+00 0.68033211E+03</pdfrwt>
<pdfrwt beam="2">  1        1 0.14749403E+00 0.68033211E+03</pdfrwt>
<totfact> 0.32325548E+01</totfact>
</mgrwt>
</event>
<event>
 5    0  0.5993533E-001  0.2391724E+03  0.7546771E-02  0.1120345E+00
         21   -1    0    0  503  502  0.00000000000E+00  0.00000000000E+00  0.10922967887E+04  0.10922967887E+04  0.00000000000E+00 0.  1.
          2   -1    0    0  502    0 -0.00000000000E+00 -0.00000000000E+00 -0.69373029865E+03  0.69373029865E+03  0.00000000000E+00 0. -1.
         25    1    1    2    0    0  0.45218270217E+02 -0.19890079290E+03  0.10607177835E+04  0.10873607652E+04  0.12500000000E+03 0.  0.
         21    1    1    2  503  501 -0.20386500360E+02 -0.12261095327E+01 -0.45380350847E+02  0.49764334462E+02  0.00000000000E+00 0. -1.
          2    1    1    2  501    0 -0.24831769857E+02  0.20012690243E+03 -0.61677094267E+03  0.64890198766E+03  0.00000000000E+00 0. -1.
<mgrwt>
<rscale>  4 0.23917241E+03</rscale>
<asrwt>0</asrwt>
<pdfrwt beam="1">  1       21 0.16804566E+00 0.23917241E+03</pdfrwt>
<pdfrwt beam="2">  1        2 0.10672774E+00 0.23917241E+03</pdfrwt>
<totfact> 0.11324495E+02</totfact>
</mgrwt>
</event>
<event>
 5    0  0.5993533E-001  0.3398805E+03  0.7546771E-02  0.1066847E+00
         21   -1    0    0  503  502  0.00000000000E+00  0.00000000000E+00  0.42514978514E+03  0.42514978514E+03  0.00000000000E+00 0.  1.
          3   -1    0    0  502    0 -0.00000000000E+00 -0.00000000000E+00 -0.10708515303E+04  0.10708515303E+04  0.00000000000E+00 0. -1.
         25    1    1    2    0    0 -0.32118398455E+03 -0.33950282025E+02  0.30670333163E+03  0.46260534715E+03  0.12500000000E+03 0.  0.
         21    1    1    2  503  501  0.90980981868E+02 -0.48506530432E+02 -0.89555803356E+02  0.13656743562E+03  0.00000000000E+00 0. -1.
          3    1    1    2  501    0  0.23020300268E+03  0.82456812457E+02 -0.86284927346E+03  0.89682853271E+03  0.00000000000E+00 0. -1.
<mgrwt>
<rscale>  4 0.33988051E+03</rscale>
<asrwt>0</asrwt>
<pdfrwt beam="1">  1       21 0.65407659E-01 0.33988051E+03</pdfrwt>
<pdfrwt beam="2">  1        3 0.16474639E+00 0.33988051E+03</pdfrwt>
<totfact> 0.27127136E+01</totfact>
</mgrwt>
</event>
<event>
 5    0  0.5993533E-001  0.4613061E+03  0.7546771E-02  0.1024403E+00
         21   -1    0    0  503  502  0.00000000000E+00  0.00000000000E+00  0.67378129828E+03  0.67378129828E+03  0.00000000000E+00 0. -1.
          2   -1    0    0  502    0 -0.00000000000E+00 -0.00000000000E+00 -0.74164139135E+03  0.74164139135E+03  0.00000000000E+00 0. -1.
         25    1    1    2    0    0 -0.38263400717E+03  0.23742445860E+03  0.49451316460E+03  0.68040240075E+03  0.12500000000E+03 0.  0.
         21    1    1    2  503  501  0.38435834227E+02 -0.29318243281E+02 -0.63333316565E+01  0.48754321159E+02  0.00000000000E+00 0. -1.
          2    1    1    2  501    0  0.34419817294E+03 -0.20810621532E+03 -0.55603992602E+03  0.68626596771E+03  0.00000000000E+00 0. -1.
<mgrwt>
<rscale>  4 0.46130613E+03</rscale>
<asrwt>0</asrwt>
<pdfrwt beam="1">  1       21 0.10365866E+00 0.46130613E+03</pdfrwt>
<pdfrwt beam="2">  1        2 0.11409867E+00 0.46130613E+03</pdfrwt>
<totfact> 0.32930527E+02</totfact>
</mgrwt>
</event>
<event>
 5    0  0.5993533E-001  0.2611845E+03  0.7546771E-02  0.1106434E+00
         21   -1    0    0  503  502  0.00000000000E+00  0.00000000000E+00  0.30594051957E+03  0.30594051957E+03  0.00000000000E+00 0. -1.
          1   -1    0    0  502    0 -0.00000000000E+00 -0.00000000000E+00 -0.44269401907E+03  0.44269401907E+03  0.00000000000E+00 0. -1.
         25    1    1    2    0    0  0.17785206246E+03 -0.17443249907E+03  0.16996694377E+03  0.32645338844E+03  0.12500000000E+03 0.  0.
         21    1    1    2  503  501 -0.34508423349E+02  0.98008557487E+02 -0.43015484483E+02  0.11245817235E+03  0.00000000000E+00 0. -1.
          1    1    1    2  501    0 -0.14334363911E+03  0.76423941579E+02 -0.26370495878E+03  0.30972297785E+03  0.00000000000E+00 0. -1.
<mgrwt>
<rscale>  4 0.26118447E+03</rscale>
<asrwt>0</asrwt>
<pdfrwt beam="1">  1       21 0.47067772E-01 0.26118447E+03</pdfrwt>
<pdfrwt beam="2">  1        1 0.68106772E-01 0.26118447E+03</pdfrwt>
<totfact> 0.24662720E+03</totfact>
</mgrwt>
</event>
<event>
 5    0  0.5993533E-001  0.2531813E+03  0.7546771E-02  0.1111311E+00
          2   -1    0    0  502    0 -0.00000000000E+00  0.00000000000E+00  0.20584629877E+04  0.20584629877E+04  0.00000000000E+00 0. -1.
         21   -1    0    0  503  502  0.00000000000E+00 -0.00000000000E+00 -0.27714070514E+02  0.27714070514E+02  0.00000000000E+00 0. -1.
         25    1    1    2    0    0  0.30287987344E+02 -0.21807884646E+03  0.11704786450E+04  0.11975479130E+04  0.12500000000E+03 0.  0.
         21    1    1    2  503  501 -0.15792964363E+02  0.34770865705E+02  0.12420941610E+03  0.12994771977E+03  0.00000000000E+00 0.  1.
          2    1    1    2  501    0 -0.14495022981E+02  0.18330798076E+03  0.73606085607E+03  0.75868142546E+03  0.00000000000E+00 0. -1.
<mgrwt>
<rscale>  4 0.25318125E+03</rscale>
<asrwt>0</asrwt>
<pdfrwt beam="1">  1       21 0.42637048E-02 0.25318125E+03</pdfrwt>
<pdfrwt beam="2">  1        2 0.31668649E+00 0.25318125E+03</pdfrwt>
<totfact> 0.31099372E+04</totfact>
</mgrwt>
</event>
<event>
 5    0  0.5993533E-001  0.2225085E+03  0.7546771E-02  0.1132027E+00
         21   -1    0    0  503  502  0.00000000000E+00  0.00000000000E+00  0.10511566331E+03  0.10511566331E+03  0.00000000000E+00 0. -1.
          2   -1    0    0  502    0 -0.00000000000E+00 -0.00000000000E+00 -0.28505881141E+04  0.28505881141E+04  0.00000000000E+00 0.  1.
         25    1    1    2    0    0  0.74191086962E+02  0.18887097738E+03 -0.47819673311E+02  0.24308081915E+03  0.12500000000E+03 0.  0.
         21    1    1    2  503  501 -0.37501413674E+02 -0.11103650057E+03 -0.51058404054E+03  0.52386212207E+03  0.00000000000E+00 0. -1.
          2    1    1    2  501    0 -0.36689673288E+02 -0.77834476813E+02 -0.21870687369E+04  0.21887608361E+04  0.00000000000E+00 0.  1.
<mgrwt>
<rscale>  4 0.22250853E+03</rscale>
<asrwt>0</asrwt>
<pdfrwt beam="1">  1       21 0.16171639E-01 0.22250853E+03</pdfrwt>
<pdfrwt beam="2">  1        2 0.43855205E+00 0.22250853E+03</pdfrwt>
<totfact> 0.11211745E+03</totfact>
</mgrwt>
</event>
<event>
 5    0  0.5993533E-001  0.3092632E+03  0.7546771E-02  0.1080700E+00
         21   -1    0    0  503  502  0.00000000000E+00  0.00000000000E+00  0.61112883455E+03  0.61112883455E+03  0.00000000000E+00 0. -1.
          2   -1    0    0  502    0 -0.00000000000E+00 -0.00000000000E+00 -0.63377874381E+03  0.63377874381E+03  0.00000000000E+00 0. -1.
         25    1    1    2    0    0 -0.24111512877E+03 -0.14792640846E+03  0.53548177556E+03  0.61837242791E+03  0.12500000000E+03 0.  0.
         21    1    1    2  503  501  0.13969675154E+02  0.18491112410E+02 -0.48958952999E+02  0.54166891556E+02  0.00000000000E+00 0.  1.
          2    1    1    2  501    0  0.22714545362E+03  0.12943529605E+03 -0.50917273182E+03  0.57236825890E+03  0.00000000000E+00 0. -1.
<mgrwt>
<rscale>  4 0.30926320E+03</rscale>
<asrwt>0</asrwt>
<pdfrwt beam="1">  1       21 0.94019821E-01 0.30926320E+03</pdfrwt>
<pdfrwt beam="2">  1        2 0.97504422E-01 0.30926320E+03</pdfrwt>
<totfact> 0.53217268E+02</totfact>
</mgrwt>
</event>
<event>
 5    0  0.5993533E-001  0.2274707E+03  0.7546771E-02  0.1128433E+00
          1   -1    0    0  502    0 -0.00000000000E+00  0.00000000000E+00  0.33374824522E+03  0.33374824522E+03  0.00000000000E+00 0.  1.
         21   -1    0    0  503  502  0.00000000000E+00 -0.00000000000E+00 -0.15928564860E+03  0.15928564860E+03  0.00000000000E+00 0.  1.
         25    1    1    2    0    0  0.76582878627E+02 -0.19061770698E+03  0.77574051309E+02  0.25267129032E+03  0.12500000000E+03 0.  0.
         21    1    1    2  503  501 -0.28164841149E+02  0.18129184420E+02  0.40471145097E+02  0.52534171643E+02  0.00000000000E+00 0. -1.
          1    1    1    2  501    0 -0.48418037477E+02  0.17248852256E+03  0.56417400206E+02  0.18782843186E+03  0.00000000000E+00 0.  1.
<mgrwt>
<rscale>  4 0.22747065E+03</rscale>
<asrwt>0</asrwt>
<pdfrwt beam="1">  1       21 0.24505485E-01 0.22747065E+03</pdfrwt>
<pdfrwt beam="2">  1        1 0.51345884E-01 0.22747065E+03</pdfrwt>
<totfact> 0.13104636E+04</totfact>
</mgrwt>
</event>
<event>
 5    0  0.5993533E-001  0.6795196E+03  0.7546771E-02  0.9752912E-01
         21   -1    0    0  503  502  0.00000000000E+00  0.00000000000E+00  0.10985974638E+04  0.10985974638E+04  0.00000000000E+00 0.  1.
          1   -1    0    0  502    0 -0.00000000000E+00 -0.00000000000E+00 -0.20339356598E+04  0.20339356598E+04  0.00000000000E+00 0. -1.
         25    1    1    2    0    0 -0.63776106417E+03 -0.19845094995E+03  0.92746239103E+03  0.11497536437E+04  0.12500000000E+03 0.  0.
         21    1    1    2  503  501  0.96386527561E+02 -0.14427949421E+02 -0.25742362665E+03  0.27525524877E+03  0.00000000000E+00 0. -1.
          1    1    1    2  501    0  0.54137453660E+03  0.21287889938E+03 -0.16053769604E+04  0.17075242311E+04  0.00000000000E+00 0. -1.
<mgrwt>
<rscale>  4 0.67951965E+03</rscale>
<asrwt>0</asrwt>
<pdfrwt beam="1">  1       21 0.16901500E+00 0.67951965E+03</pdfrwt>
<pdfrwt beam="2">  1        1 0.31291317E+00 0.67951965E+03</pdfrwt>
<totfact> 0.57815045E+00</totfact>
</mgrwt>
</event>
<event>
 5    0  0.5993533E-001  0.4619784E+03  0.7546771E-02  0.1024209E+00
          2   -1    0    0  502    0 -0.00000000000E+00  0.00000000000E+00  0.19018526931E+04  0.19018526931E+04  0.00000000000E+00 0.  1.
         21   -1    0    0  503  502  0.00000000000E+00 -0.00000000000E+00 -0.49210856396E+03  0.49210856396E+03  0.00000000000E+00 0.  1.
         25    1    1    2    0    0 -0.40905651244E+03 -0.18842723487E+03 -0.32334447005E+03  0.56833854305E+03  0.12500000000E+03 0.  0.
         21    1    1    2  503  501  0.11127727825E+03 -0.48161630198E+02  0.12890344446E+03  0.17696969591E+03  0.00000000000E+00 0. -1.
          2    1    1    2  501    0  0.29777923419E+03  0.23658886506E+03  0.16041851548E+04  0.16486530181E+04  0.00000000000E+00 0.  1.
<mgrwt>
<rscale>  4 0.46197837E+03</rscale>
<asrwt>0</asrwt>
<pdfrwt beam="1">  1       21 0.75709011E-01 0.46197837E+03</pdfrwt>
<pdfrwt beam="2">  1        2 0.29259272E+00 0.46197837E+03</pdfrwt>
<totfact> 0.14431941E+02</totfact>
</mgrwt>
</event>
<event>
 5    0  0.5993533E-001  0.3127125E+03  0.7546771E-02  0.1079053E+00
          3   -1    0    0  502    0 -0.00000000000E+00  0.00000000000E+00  0.59442176962E+03  0.59442176962E+03  0.00000000000E+00 0.  1.
         21   -1    0    0  503  502  0.00000000000E+00 -0.00000000000E+00 -0.36905309162E+03  0.36905309162E+03  0.00000000000E+00 0.  1.
         25    1    1    2    0    0  0.52506568167E+02  0.28179280593E+03 -0.25453367537E+03  0.40320778399E+03  0.12500000000E+03 0.  0.
         21    1    1    2  503  501 -0.22277701863E+01 -0.21094102817E+02  0.58204285022E+02  0.61948873506E+02  0.00000000000E+00 0.  1.
          3    1    1    2  501    0 -0.50278797981E+02 -0.26069870311E+03  0.42169806835E+03  0.49831820374E+03  0.00000000000E+00 0.  1.
<mgrwt>
<rscale>  4 0.31271253E+03</rscale>
<asrwt>0</asrwt>
<pdfrwt beam="1">  1       21 0.56777399E-01 0.31271253E+03</pdfrwt>
<pdfrwt beam="2">  1        3 0.91449503E-01 0.31271253E+03</pdfrwt>
<totfact> 0.15500295E+02</totfact>
</mgrwt>
</event>
<event>
 5    0  0.5993533E-001  0.3029645E+03  0.7546771E-02  0.1083768E+00
         21   -1    0    0  501  502  0.00000000000E+00  0.00000000000E+00  0.12507452035E+04  0.12507452035E+04  0.00000000000E+00 0. -1.
         -1   -1    0    0    0  501 -0.00000000000E+00 -0.00000000000E+00 -0.65682496794E+03  0.65682496794E+03  0.00000000000E+00 0. -1.
         25    1    1    2    0    0  0.27060631499E+03 -0.49782267435E+02  0.11844790919E+04  0.12224245462E+04  0.12500000000E+03 0.  0.
         21    1    1    2  501  501  0.24866747528E+02 -0.17600224203E+02 -0.13448879354E+02  0.33301582252E+02  0.00000000000E+00 0.  1.
         -1    1    1    2    0  502 -0.29547306252E+03  0.67382491639E+02 -0.57710997701E+03  0.65184404302E+03  0.00000000000E+00 0. -1.
<mgrwt>
<rscale>  4 0.30296446E+03</rscale>
<asrwt>0</asrwt>
<pdfrwt beam="1">  1       21 0.19242234E+00 0.30296446E+03</pdfrwt>
<pdfrwt beam="2">  1       -1 0.10105000E+00 0.30296446E+03</pdfrwt>
<totfact> 0.12642881E+01</totfact>
</mgrwt>
</event>
<event>
 5    0  0.5993533E-001  0.3460481E+03  0.7546771E-02  0.1064249E+00
         21   -1    0    0  503  502  0.00000000000E+00  0.00000000000E+00  0.11551462810E+03  0.11551462810E+03  0.00000000000E+00 0.  1.
          1   -1    0    0  502    0 -0.00000000000E+00 -0.00000000000E+00 -0.11826217059E+04  0.11826217059E+04  0.00000000000E+00 0.  1.
         25    1    1    2    0    0  0.22162181744E+03  0.23453791911E+03 -0.30423546999E+03  0.46076945066E+03  0.12500000000E+03 0.  0.
         21    1    1    2  503  501 -0.67844147485E+02 -0.56698928614E+02 -0.36197499786E+03  0.37261709022E+03  0.00000000000E+00 0.  1.
          1    1    1    2  501    0 -0.15377766996E+03 -0.17783899049E+03 -0.40089660998E+03  0.46474979312E+03  0.00000000000E+00 0.  1.
<mgrwt>
<rscale>  4 0.34604807E+03</rscale>
<asrwt>0</asrwt>
<pdfrwt beam="1">  1       21 0.17771483E-01 0.34604807E+03</pdfrwt>
<pdfrwt beam="2">  1        1 0.18194179E+00 0.34604807E+03</pdfrwt>
<totfact> 0.36332939E+03</totfact>
</mgrwt>
</event>
<event>
 5    0  0.5993533E-001  0.2404234E+03  0.7546771E-02  0.1119511E+00
         21   -1    0    0  503  502  0.00000000000E+00  0.00000000000E+00  0.36939690904E+03  0.36939690904E+03  0.00000000000E+00 0. -1.
          1   -1    0    0  502    0 -0.00000000000E+00 -0.00000000000E+00 -0.14951911439E+04  0.14951911439E+04  0.00000000000E+00 0.  1.
         25    1    1    2    0    0 -0.19551865312E+02  0.20526782059E+03  0.32024738111E+03  0.40087471698E+03  0.12500000000E+03 0.  0.
         21    1    1    2  503  501 -0.10221723855E+01 -0.29369531372E+02 -0.64648807365E+02  0.71014664000E+02  0.00000000000E+00 0. -1.
          1    1    1    2  501    0  0.20574037697E+02 -0.17589828922E+03 -0.13813928087E+04  0.13926986720E+04  0.00000000000E+00 0.  1.
<mgrwt>
<rscale>  4 0.24042344E+03</rscale>
<asrwt>0</asrwt>
<pdfrwt beam="1">  1       21 0.56830293E-01 0.24042344E+03</pdfrwt>
<pdfrwt beam="2">  1        1 0.23002941E+00 0.24042344E+03</pdfrwt>
<totfact> 0.23003871E+02</totfact>
</mgrwt>
</event>
<event>
 5    0  0.5993533E-001  0.2405732E+03  0.7546771E-02  0.1119412E+00
         21   -1    0    0  503  502  0.00000000000E+00  0.00000000000E+00  0.57745682699E+02  0.57745682699E+02  0.00000000000E+00 0. -1.
          2   -1    0    0  502    0 -0.00000000000E+00 -0.00000000000E+00 -0.13202630738E+04  0.13202630738E+04  0.00000000000E+00 0.  1.
         25    1    1    2    0    0 -0.16845738465E+03  0.11778185784E+03 -0.26409433992E+03  0.35724120263E+03  0.12500000000E+03 0.  0.
         21    1    1    2  503  501  0.15465404652E+02 -0.26676150589E+02 -0.92299814633E+02  0.97314189780E+02  0.00000000000E+00 0.  1.
          2    1    1    2  501    0  0.15299198000E+03 -0.91105707251E+02 -0.90612323657E+03  0.92345336411E+03  0.00000000000E+00 0.  1.
<mgrwt>
<rscale>  4 0.24057318E+03</rscale>
<asrwt>0</asrwt>
<pdfrwt beam="1">  1       21 0.88839520E-02 0.24057318E+03</pdfrwt>
<pdfrwt beam="2">  1        2 0.20311738E+00 0.24057318E+03</pdfrwt>
<totfact> 0.21641374E+04</totfact>
</mgrwt>
</event>
<event>
 5    0  0.5993533E-001  0.4635556E+03  0.7546771E-02  0.1025434E+00
          1   -1    0    0  502    0 -0.00000000000E+00  0.00000000000E+00  0.16256602703E+04  0.16256602703E+04  0.00000000000E+00 0. -1.
         21   -1    0    0  503  502  0.00000000000E+00 -0.00000000000E+00 -0.12845868583E+03  0.12845868583E+03  0.00000000000E+00 0. -1.
         25    1    1    2    0    0 -0.25522678980E+03 -0.33694276514E+03  0.60331872854E+03  0.74718781402E+03  0.12500000000E+03 0.  0.
         21    1    1    2  503  501  0.21236942784E+03  0.15653340711E+03  0.64249783401E+03  0.69455521604E+03  0.00000000000E+00 0. -1.
          1    1    1    2  501    0  0.42857361967E+02  0.18040935803E+03  0.25138502194E+03  0.31237592608E+03  0.00000000000E+00 0. -1.
<mgrwt>
<rscale>  4 0.45775635E+03</rscale>
<asrwt>0</asrwt>
<pdfrwt beam="1">  1       21 0.19762876E-01 0.46355557E+03</pdfrwt>
<pdfrwt beam="2">  1        1 0.25010157E+00 0.46355557E+03</pdfrwt>
<totfact> 0.14379905E+03</totfact>
</mgrwt>
</event>
<event>
 5    0  0.5993533E-001  0.2680034E+03  0.7546771E-02  0.1102428E+00
         21   -1    0    0  503  502  0.00000000000E+00  0.00000000000E+00  0.15763361148E+03  0.15763361148E+03  0.00000000000E+00 0. -1.
          1   -1    0    0  502    0 -0.00000000000E+00 -0.00000000000E+00 -0.97705784301E+03  0.97705784301E+03  0.00000000000E+00 0. -1.
         25    1    1    2    0    0  0.23206476254E+03 -0.48443291501E+02  0.12563305126E+02  0.26829767636E+03  0.12500000000E+03 0.  0.
         21    1    1    2  503  501 -0.18332608359E+03  0.54871892487E+02 -0.62446616970E+03  0.65312891117E+03  0.00000000000E+00 0. -1.
          1    1    1    2  501    0 -0.48738678951E+02 -0.64286009865E+01 -0.20752136696E+03  0.21326486696E+03  0.00000000000E+00 0. -1.
<mgrwt>
<rscale>  4 0.26800337E+03</rscale>
<asrwt>0</asrwt>
<pdfrwt beam="1">  1       21 0.24251325E-01 0.26800337E+03</pdfrwt>
<pdfrwt beam="2">  1        1 0.15031659E+00 0.26800337E+03</pdfrwt>
<totfact> 0.29149834E+03</totfact>
</mgrwt>
</event>
<event>
 5    0  0.5993533E-001  0.2452324E+03  0.7546771E-02  0.1116355E+00
         21   -1    0    0  501  502  0.00000000000E+00  0.00000000000E+00  0.70325253226E+02  0.70325253226E+02  0.00000000000E+00 0. -1.
         -1   -1    0    0    0  501 -0.00000000000E+00 -0.00000000000E+00 -0.81390956826E+03  0.81390956826E+03  0.00000000000E+00 0. -1.
         25    1    1    2    0    0  0.21088324917E+03 -0.64941838968E+01 -0.27523346289E+03  0.36863583426E+03  0.12500000000E+03 0.  0.
         21    1    1    2  501  501 -0.11689031228E+03  0.78311984338E+01 -0.20693521639E+03  0.23779582956E+03  0.00000000000E+00 0. -1.
         -1    1    1    2    0  502 -0.93992936886E+02 -0.13370145371E+01 -0.26141563575E+03  0.27780315766E+03  0.00000000000E+00 0. -1.
<mgrwt>
<rscale>  4 0.24523238E+03</rscale>
<asrwt>0</asrwt>
<pdfrwt beam="1">  1       21 0.10819270E-01 0.24523238E+03</pdfrwt>
<pdfrwt beam="2">  1       -1 0.12521686E+00 0.24523238E+03</pdfrwt>
<totfact> 0.39265191E+03</totfact>
</mgrwt>
</event>
<event>
 5    0  0.5993533E-001  0.3107858E+03  0.7546771E-02  0.1079970E+00
          1   -1    0    0  502    0 -0.00000000000E+00  0.00000000000E+00  0.56244685076E+03  0.56244685076E+03  0.00000000000E+00 0. -1.
         21   -1    0    0  503  502  0.00000000000E+00 -0.00000000000E+00 -0.17105638902E+03  0.17105638902E+03  0.00000000000E+00 0.  1.
         25    1    1    2    0    0  0.26532229890E+03 -0.10279547732E+03  0.12193440486E+03  0.33385001354E+03  0.12500000000E+03 0.  0.
         21    1    1    2  503  501 -0.23493903106E+03  0.66129557252E+02  0.24613944174E+03  0.34663250199E+03  0.00000000000E+00 0. -1.
          1    1    1    2  501    0 -0.30383267838E+02  0.36665920067E+02  0.23316615141E+02  0.53020724255E+02  0.00000000000E+00 0. -1.
<mgrwt>
<rscale>  4 0.31078583E+03</rscale>
<asrwt>0</asrwt>
<pdfrwt beam="1">  1       21 0.26316368E-01 0.31078583E+03</pdfrwt>
<pdfrwt beam="2">  1        1 0.86530284E-01 0.31078583E+03</pdfrwt>
<totfact> 0.56808952E+03</totfact>
</mgrwt>
</event>
