<event>
 5    0  0.2159162E+000  0.3023651E+03  0.7546771E-02  0.1084064E+00
         21   -1    0    0  502  501  0.00000000000E+00  0.00000000000E+00  0.44373049288E+03  0.44373049288E+03  0.00000000000E+00 0.  1.
         21   -1    0    0  503  502 -0.00000000000E+00 -0.00000000000E+00 -0.37013298968E+03  0.37013298968E+03  0.00000000000E+00 0.  1.
         25    1    1    2    0    0 -0.84648265867E+02 -0.26198150903E+03  0.31497630879E+03  0.43661735545E+03  0.12500000000E+03 0.  0.
         21    1    1    2  503  504  0.87495462963E+02  0.13519534282E+03 -0.11254896356E+03  0.19647011467E+03  0.00000000000E+00 0.  1.
         21    1    1    2  504  501 -0.28471970962E+01  0.12678616620E+03 -0.12882984203E+03  0.18077601243E+03  0.00000000000E+00 0.  1.
<mgrwt>
<rscale>  4 0.30236508E+03</rscale>
<asrwt>0</asrwt>
<pdfrwt beam="1">  1       21 0.68266229E-01 0.30236508E+03</pdfrwt>
<pdfrwt beam="2">  1       21 0.56943537E-01 0.30236508E+03</pdfrwt>
<totfact> 0.52981753E+03</totfact>
</mgrwt>
</event>
<event>
 5    0  0.2159162E+000  0.2426925E+03  0.7546771E-02  0.1118012E+00
         21   -1    0    0  502  501  0.00000000000E+00  0.00000000000E+00  0.18160541981E+03  0.18160541981E+03  0.00000000000E+00 0.  1.
         21   -1    0    0  503  502 -0.00000000000E+00 -0.00000000000E+00 -0.11979964323E+04  0.11979964323E+04  0.00000000000E+00 0. -1.
         25    1    1    2    0    0 -0.17536231008E+03  0.11190489335E+03  0.85763286938E+02  0.25740043966E+03  0.12500000000E+03 0.  0.
         21    1    1    2  503  504  0.30684910342E+02 -0.17560016713E+02 -0.27051695887E+03  0.27281741687E+03  0.00000000000E+00 0. -1.
         21    1    1    2  504  501  0.14467739974E+03 -0.94344876634E+02 -0.83163734060E+03  0.84938399562E+03  0.00000000000E+00 0. -1.
<mgrwt>
<rscale>  4 0.24269249E+03</rscale>
<asrwt>0</asrwt>
<pdfrwt beam="1">  1       21 0.27939296E-01 0.24269249E+03</pdfrwt>
<pdfrwt beam="2">  1       21 0.18430714E+00 0.24269249E+03</pdfrwt>
<totfact> 0.19885081E+03</totfact>
</mgrwt>
</event>
<event>
 5    0  0.2159162E+000  0.2679017E+03  0.7546771E-02  0.1102487E+00
         21   -1    0    0  502  501  0.00000000000E+00  0.00000000000E+00  0.10153366922E+04  0.10153366922E+04  0.00000000000E+00 0.  1.
         21   -1    0    0  503  502 -0.00000000000E+00 -0.00000000000E+00 -0.35863571228E+03  0.35863571228E+03  0.00000000000E+00 0.  1.
         25    1    1    2    0    0  0.16073372037E+03 -0.17595804997E+03  0.93713770504E+03  0.97501212424E+03  0.12500000000E+03 0.  0.
         21    1    1    2  503  504 -0.37694559642E+02 -0.68777126321E+00  0.84982797878E+01  0.38646780141E+02  0.00000000000E+00 0.  1.
         21    1    1    2  504  501 -0.12303916073E+03  0.17664582124E+03 -0.28893500495E+03  0.36031350005E+03  0.00000000000E+00 0.  1.
<mgrwt>
<rscale>  4 0.26790166E+03</rscale>
<asrwt>0</asrwt>
<pdfrwt beam="1">  1       21 0.15620564E+00 0.26790166E+03</pdfrwt>
<pdfrwt beam="2">  1       21 0.55174725E-01 0.26790166E+03</pdfrwt>
<totfact> 0.77547538E+02</totfact>
</mgrwt>
</event>
<event>
 5    0  0.2159162E+000  0.2142822E+03  0.7546771E-02  0.1138219E+00
         21   -1    0    0  502  501  0.00000000000E+00  0.00000000000E+00  0.22987131223E+04  0.22987131223E+04  0.00000000000E+00 0.  1.
         21   -1    0    0  503  502 -0.00000000000E+00 -0.00000000000E+00 -0.41453715599E+02  0.41453715599E+02  0.00000000000E+00 0.  1.
         25    1    1    2    0    0  0.96281021528E+02 -0.24503358919E+03  0.13853126883E+04  0.14156368670E+04  0.12500000000E+03 0.  0.
         21    1    1    2  503  504  0.35609825104E+01  0.12466449985E+03  0.58080940927E+03  0.59404838862E+03  0.00000000000E+00 0.  1.
         21    1    1    2  504  501 -0.99842004038E+02  0.12036908934E+03  0.29113730914E+03  0.33048158225E+03  0.00000000000E+00 0.  1.
<mgrwt>
<rscale>  4 0.21428222E+03</rscale>
<asrwt>0</asrwt>
<pdfrwt beam="1">  1       21 0.35364807E+00 0.21428222E+03</pdfrwt>
<pdfrwt beam="2">  1       21 0.63774965E-02 0.21428222E+03</pdfrwt>
<totfact> 0.28745158E+03</totfact>
</mgrwt>
</event>
<event>
 5    0  0.2159582E+000  0.3209364E+03  0.7546771E-02  0.1075219E+00
         21   -1    0    0  502  501  0.00000000000E+00  0.00000000000E+00  0.58601396189E+02  0.58601396189E+02  0.00000000000E+00 0. -1.
         21   -1    0    0  503  502 -0.00000000000E+00 -0.00000000000E+00 -0.17598939641E+04  0.17598939641E+04  0.00000000000E+00 0. -1.
         25    1    1    2    0    0 -0.25580659998E+03 -0.14811544389E+03 -0.66850146046E+03  0.74154865244E+03  0.12500000000E+03 0.  0.
         21    1    1    2  503  504  0.19737558787E+03  0.14128841919E+03 -0.75752159115E+03  0.79546118770E+03  0.00000000000E+00 0. -1.
         21    1    1    2  504  501  0.58431012103E+02  0.68270246970E+01 -0.27526951628E+03  0.28148552012E+03  0.00000000000E+00 0. -1.
<mgrwt>
<rscale>  4 0.32093644E+03</rscale>
<asrwt>0</asrwt>
<pdfrwt beam="1">  1       21 0.90155990E-02 0.32093644E+03</pdfrwt>
<pdfrwt beam="2">  1       21 0.27075293E+00 0.32093644E+03</pdfrwt>
<totfact> 0.43978680E+03</totfact>
</mgrwt>
</event>
<event>
 5    0  0.2159162E+000  0.2713286E+03  0.7546771E-02  0.1100522E+00
         21   -1    0    0  502  501  0.00000000000E+00  0.00000000000E+00  0.16141339117E+03  0.16141339117E+03  0.00000000000E+00 0. -1.
         21   -1    0    0  503  502 -0.00000000000E+00 -0.00000000000E+00 -0.10871694439E+04  0.10871694439E+04  0.00000000000E+00 0.  1.
         25    1    1    2    0    0  0.17733004916E+03  0.18419959444E+03 -0.28994989420E+02  0.28607891628E+03  0.12500000000E+03 0.  0.
         21    1    1    2  503  504  0.57953250599E+01 -0.30361585602E+02  0.34146785752E+01  0.31097776489E+02  0.00000000000E+00 0. -1.
         21    1    1    2  504  501 -0.18312537422E+03 -0.15383800884E+03 -0.90017574191E+03  0.93140614233E+03  0.00000000000E+00 0.  1.
<mgrwt>
<rscale>  4 0.27132860E+03</rscale>
<asrwt>0</asrwt>
<pdfrwt beam="1">  1       21 0.24832830E-01 0.27132860E+03</pdfrwt>
<pdfrwt beam="2">  1       21 0.16725683E+00 0.27132860E+03</pdfrwt>
<totfact> 0.32169894E+03</totfact>
</mgrwt>
</event>
<event>
 5    0  0.2159162E+000  0.3237232E+03  0.7546771E-02  0.1073948E+00
         21   -1    0    0  502  501  0.00000000000E+00  0.00000000000E+00  0.15949602437E+03  0.15949602437E+03  0.00000000000E+00 0. -1.
         21   -1    0    0  503  502 -0.00000000000E+00 -0.00000000000E+00 -0.22619173733E+04  0.22619173733E+04  0.00000000000E+00 0. -1.
         25    1    1    2    0    0 -0.18075974796E+03  0.23769225511E+03 -0.20889591793E+04  0.21138938354E+04  0.12500000000E+03 0.  0.
         21    1    1    2  503  504 -0.17954032029E+01 -0.27419977445E+02 -0.93559131405E+01  0.29027775430E+02  0.00000000000E+00 0.  1.
         21    1    1    2  504  501  0.18255515116E+03 -0.21027227767E+03 -0.41062564587E+01  0.27849178680E+03  0.00000000000E+00 0. -1.
<mgrwt>
<rscale>  4 0.32372318E+03</rscale>
<asrwt>0</asrwt>
<pdfrwt beam="1">  1       21 0.24537850E-01 0.32372318E+03</pdfrwt>
<pdfrwt beam="2">  1       21 0.34798728E+00 0.32372318E+03</pdfrwt>
<totfact> 0.24033436E+02</totfact>
</mgrwt>
</event>
<event>
 5    0  0.2313193E+000  0.2464789E+03  0.7546771E-02  0.1115551E+00
         21   -1    0    0  502  501  0.00000000000E+00  0.00000000000E+00  0.16993004317E+03  0.16993004317E+03  0.00000000000E+00 0. -1.
         21   -1    0    0  503  502 -0.00000000000E+00 -0.00000000000E+00 -0.80679151977E+03  0.80679151977E+03  0.00000000000E+00 0.  1.
         25    1    1    2    0    0 -0.89181885253E+02 -0.19280410514E+03  0.53136387502E+02  0.25214144303E+03  0.12500000000E+03 0.  0.
         21    1    1    2  503  504  0.52796928022E+02  0.16359992289E+03 -0.49229892510E+03  0.52145055569E+03  0.00000000000E+00 0.  1.
         21    1    1    2  504  501  0.36384957230E+02  0.29204182251E+02 -0.19769893900E+03  0.20312956421E+03  0.00000000000E+00 0. -1.
<mgrwt>
<rscale>  4 0.24647887E+03</rscale>
<asrwt>0</asrwt>
<pdfrwt beam="1">  1       21 0.26143083E-01 0.24647887E+03</pdfrwt>
<pdfrwt beam="2">  1       21 0.12412177E+00 0.24647887E+03</pdfrwt>
<totfact> 0.64985408E+03</totfact>
</mgrwt>
</event>
<event>
 5    0  0.2159162E+000  0.2578613E+03  0.7546771E-02  0.1108435E+00
         21   -1    0    0  502  501  0.00000000000E+00  0.00000000000E+00  0.62781377958E+03  0.62781377958E+03  0.00000000000E+00 0.  1.
         21   -1    0    0  503  502 -0.00000000000E+00 -0.00000000000E+00 -0.40195455066E+03  0.40195455066E+03  0.00000000000E+00 0.  1.
         25    1    1    2    0    0 -0.16869562285E+03 -0.15850633956E+03  0.51734347480E+03  0.58038930363E+03  0.12500000000E+03 0.  0.
         21    1    1    2  503  504  0.70916702729E+02  0.16255966711E+03 -0.30274598034E+03  0.35087027904E+03  0.00000000000E+00 0.  1.
         21    1    1    2  504  501  0.97778920122E+02 -0.40533275531E+01  0.11261734461E+02  0.98508747568E+02  0.00000000000E+00 0.  1.
<mgrwt>
<rscale>  4 0.25786134E+03</rscale>
<asrwt>0</asrwt>
<pdfrwt beam="1">  1       21 0.96586735E-01 0.25786134E+03</pdfrwt>
<pdfrwt beam="2">  1       21 0.61839162E-01 0.25786134E+03</pdfrwt>
<totfact> 0.20539793E+03</totfact>
</mgrwt>
</event>
