<event>
 5    0  0.2182861E+000  0.2409033E+03  0.7546771E-02  0.1119193E+00
         21   -1    0    0  502  501  0.00000000000E+00  0.00000000000E+00  0.72987993257E+02  0.72987993257E+02  0.00000000000E+00 0. -1.
         21   -1    0    0  503  502 -0.00000000000E+00 -0.00000000000E+00 -0.10790500159E+04  0.10790500159E+04  0.00000000000E+00 0. -1.
         25    1    1    2    0    0  0.13778009018E+03  0.18253114383E+03 -0.28892510799E+03  0.38910627051E+03  0.12500000000E+03 0.  0.
         21    1    1    2  503  504 -0.14438387980E+03 -0.10790802237E+03 -0.43153360282E+03  0.46766665094E+03  0.00000000000E+00 0. -1.
         21    1    1    2  504  501  0.66037896243E+01 -0.74623121459E+02 -0.28560331182E+03  0.29526508770E+03  0.00000000000E+00 0. -1.
<mgrwt>
<rscale>  4 0.24090328E+03</rscale>
<asrwt>0</asrwt>
<pdfrwt beam="1">  1       21 0.11228924E-01 0.24090328E+03</pdfrwt>
<pdfrwt beam="2">  1       21 0.16600767E+00 0.24090328E+03</pdfrwt>
<totfact> 0.14560799E+04</totfact>
</mgrwt>
</event>
<event>
 5    0  0.2159162E+000  0.2808286E+03  0.7546771E-02  0.1095237E+00
         21   -1    0    0  502  501  0.00000000000E+00  0.00000000000E+00  0.16619883152E+04  0.16619883152E+04  0.00000000000E+00 0.  1.
         21   -1    0    0  503  502 -0.00000000000E+00 -0.00000000000E+00 -0.12361508645E+04  0.12361508645E+04  0.00000000000E+00 0. -1.
         25    1    1    2    0    0 -0.97382028880E+02  0.23295959180E+03  0.16315485859E+04  0.16556959924E+04  0.12500000000E+03 0.  0.
         21    1    1    2  503  504  0.12548160864E+03 -0.15966655871E+03 -0.64359712625E+03  0.67487502917E+03  0.00000000000E+00 0. -1.
         21    1    1    2  504  501 -0.28099579758E+02 -0.73293033094E+02 -0.56211400900E+03  0.56756815820E+03  0.00000000000E+00 0.  1.
<mgrwt>
<rscale>  4 0.28082856E+03</rscale>
<asrwt>0</asrwt>
<pdfrwt beam="1">  1       21 0.25569051E+00 0.28082856E+03</pdfrwt>
<pdfrwt beam="2">  1       21 0.19017706E+00 0.28082856E+03</pdfrwt>
<totfact> 0.82972206E+00</totfact>
</mgrwt>
</event>
<event>
 5    0  0.2159162E+000  0.2214895E+03  0.7546771E-02  0.1132777E+00
         21   -1    0    0  502  501  0.00000000000E+00  0.00000000000E+00  0.76241625672E+03  0.76241625672E+03  0.00000000000E+00 0. -1.
         21   -1    0    0  503  502 -0.00000000000E+00 -0.00000000000E+00 -0.14235358308E+03  0.14235358308E+03  0.00000000000E+00 0. -1.
         25    1    1    2    0    0 -0.20361364720E+03  0.19961824866E+03  0.26505953186E+03  0.40888570280E+03  0.12500000000E+03 0.  0.
         21    1    1    2  503  504  0.72459504256E+02 -0.11204215187E+03  0.33175709480E+02  0.13749345895E+03  0.00000000000E+00 0. -1.
         21    1    1    2  504  501  0.13115414295E+03 -0.87576096785E+02  0.32182743230E+03  0.35839067806E+03  0.00000000000E+00 0. -1.
<mgrwt>
<rscale>  4 0.22148950E+03</rscale>
<asrwt>0</asrwt>
<pdfrwt beam="1">  1       21 0.11729481E+00 0.22148950E+03</pdfrwt>
<pdfrwt beam="2">  1       21 0.21900552E-01 0.22148950E+03</pdfrwt>
<totfact> 0.10662920E+04</totfact>
</mgrwt>
</event>
<event>
 5    0  0.2159162E+000  0.2885675E+03  0.7546771E-02  0.1091099E+00
         21   -1    0    0  502  501  0.00000000000E+00  0.00000000000E+00  0.16407267902E+03  0.16407267902E+03  0.00000000000E+00 0.  1.
         21   -1    0    0  503  502 -0.00000000000E+00 -0.00000000000E+00 -0.65831048372E+03  0.65831048372E+03  0.00000000000E+00 0. -1.
         25    1    1    2    0    0  0.22530838094E+03 -0.12993208291E+03 -0.45799611165E+02  0.29217942616E+03  0.12500000000E+03 0.  0.
         21    1    1    2  503  504 -0.93775949012E+02  0.11735633676E+03 -0.22244917636E+03  0.26842144932E+03  0.00000000000E+00 0. -1.
         21    1    1    2  504  501 -0.13153243193E+03  0.12575746151E+02 -0.22598901717E+03  0.26178228726E+03  0.00000000000E+00 0. -1.
<mgrwt>
<rscale>  4 0.28856752E+03</rscale>
<asrwt>0</asrwt>
<pdfrwt beam="1">  1       21 0.25241951E-01 0.28856752E+03</pdfrwt>
<pdfrwt beam="2">  1       21 0.10127854E+00 0.28856752E+03</pdfrwt>
<totfact> 0.11204912E+04</totfact>
</mgrwt>
</event>
<event>
 5    0  0.2159162E+000  0.3838310E+03  0.7546771E-02  0.1049527E+00
         21   -1    0    0  502  501  0.00000000000E+00  0.00000000000E+00  0.48321756651E+03  0.48321756651E+03  0.00000000000E+00 0. -1.
         21   -1    0    0  503  502 -0.00000000000E+00 -0.00000000000E+00 -0.30061756970E+03  0.30061756970E+03  0.00000000000E+00 0. -1.
         25    1    1    2    0    0 -0.33144101945E+03 -0.14781107596E+03  0.13619767392E+03  0.40727886016E+03  0.12500000000E+03 0.  0.
         21    1    1    2  503  504  0.17024227650E+03  0.12193765856E+03  0.12280063990E+02  0.20976659709E+03  0.00000000000E+00 0. -1.
         21    1    1    2  504  501  0.16119874294E+03  0.25873417399E+02  0.34122258895E+02  0.16678967896E+03  0.00000000000E+00 0. -1.
<mgrwt>
<rscale>  4 0.38383104E+03</rscale>
<asrwt>0</asrwt>
<pdfrwt beam="1">  1       21 0.74341164E-01 0.38383104E+03</pdfrwt>
<pdfrwt beam="2">  1       21 0.46248857E-01 0.38383104E+03</pdfrwt>
<totfact> 0.65701346E+03</totfact>
</mgrwt>
</event>
<event>
 5    0  0.2159162E+000  0.2263881E+03  0.7546771E-02  0.1129208E+00
         21   -1    0    0  502  501  0.00000000000E+00  0.00000000000E+00  0.14009699735E+03  0.14009699735E+03  0.00000000000E+00 0. -1.
         21   -1    0    0  503  502 -0.00000000000E+00 -0.00000000000E+00 -0.56962354274E+03  0.56962354274E+03  0.00000000000E+00 0.  1.
         25    1    1    2    0    0  0.15062787732E+03  0.15735764634E+03 -0.37389792596E+03  0.45041630224E+03  0.12500000000E+03 0.  0.
         21    1    1    2  503  504 -0.12307868865E+03 -0.96099593171E+02 -0.93689592294E+02  0.18210226553E+03  0.00000000000E+00 0.  1.
         21    1    1    2  504  501 -0.27549188672E+02 -0.61258053167E+02  0.38060972866E+02  0.77201972318E+02  0.00000000000E+00 0.  1.
<mgrwt>
<rscale>  4 0.22638811E+03</rscale>
<asrwt>0</asrwt>
<pdfrwt beam="1">  1       21 0.21553384E-01 0.22638811E+03</pdfrwt>
<pdfrwt beam="2">  1       21 0.87634391E-01 0.22638811E+03</pdfrwt>
<totfact> 0.21983392E+04</totfact>
</mgrwt>
</event>
<event>
 5    0  0.2159162E+000  0.7684336E+03  0.7546771E-02  0.9607079E-01
         21   -1    0    0  502  501  0.00000000000E+00  0.00000000000E+00  0.10239839108E+04  0.10239839108E+04  0.00000000000E+00 0.  1.
         21   -1    0    0  503  502 -0.00000000000E+00 -0.00000000000E+00 -0.10127732863E+04  0.10127732863E+04  0.00000000000E+00 0.  1.
         25    1    1    2    0    0  0.15530316648E+03  0.74154590545E+03  0.67419584849E+03  0.10218485433E+04  0.12500000000E+03 0.  0.
         21    1    1    2  503  504  0.16334061684E+02 -0.19110890609E+02 -0.14286805563E+02  0.28916094552E+02  0.00000000000E+00 0. -1.
         21    1    1    2  504  501 -0.17163722816E+03 -0.72243501484E+03 -0.64869841838E+03  0.98599255919E+03  0.00000000000E+00 0.  1.
<mgrwt>
<rscale>  4 0.76829429E+03</rscale>
<asrwt>0</asrwt>
<pdfrwt beam="1">  1       21 0.15753599E+00 0.76843358E+03</pdfrwt>
<pdfrwt beam="2">  1       21 0.15581127E+00 0.76843358E+03</pdfrwt>
<totfact> 0.48526243E+01</totfact>
</mgrwt>
</event>
<event>
 5    0  0.2159162E+000  0.2845456E+03  0.7546771E-02  0.1093232E+00
         21   -1    0    0  502  501  0.00000000000E+00  0.00000000000E+00  0.14388786210E+04  0.14388786210E+04  0.00000000000E+00 0.  1.
         21   -1    0    0  503  502 -0.00000000000E+00 -0.00000000000E+00 -0.14320067569E+03  0.14320067569E+03  0.00000000000E+00 0.  1.
         25    1    1    2    0    0 -0.23698945876E+03  0.95797703770E+02  0.12933026734E+04  0.13242348767E+04  0.12500000000E+03 0.  0.
         21    1    1    2  503  504  0.24466620616E+02 -0.14983647097E+02  0.99007700902E+01  0.30350460509E+02  0.00000000000E+00 0. -1.
         21    1    1    2  504  501  0.21252283814E+03 -0.80814056673E+02 -0.75254981691E+01  0.22749395950E+03  0.00000000000E+00 0.  1.
<mgrwt>
<rscale>  4 0.28454561E+03</rscale>
<asrwt>0</asrwt>
<pdfrwt beam="1">  1       21 0.22136593E+00 0.28454561E+03</pdfrwt>
<pdfrwt beam="2">  1       21 0.22030874E-01 0.28454561E+03</pdfrwt>
<totfact> 0.17475523E+03</totfact>
</mgrwt>
</event>
<event>
 5    0  0.2159162E+000  0.2472055E+03  0.7546771E-02  0.1115084E+00
         21   -1    0    0  502  501  0.00000000000E+00  0.00000000000E+00  0.17761492691E+03  0.17761492691E+03  0.00000000000E+00 0. -1.
         21   -1    0    0  503  502 -0.00000000000E+00 -0.00000000000E+00 -0.37227236504E+03  0.37227236504E+03  0.00000000000E+00 0. -1.
         25    1    1    2    0    0 -0.20939750941E+03  0.40475285461E+02  0.14769937411E+02  0.24764635417E+03  0.12500000000E+03 0.  0.
         21    1    1    2  503  504  0.45145828324E+02 -0.14810850846E+02 -0.73404565323E+02  0.87439906954E+02  0.00000000000E+00 0. -1.
         21    1    1    2  504  501  0.16425168109E+03 -0.25664434615E+02 -0.13602281022E+03  0.21480103083E+03  0.00000000000E+00 0. -1.
<mgrwt>
<rscale>  4 0.24720551E+03</rscale>
<asrwt>0</asrwt>
<pdfrwt beam="1">  1       21 0.27325374E-01 0.24720551E+03</pdfrwt>
<pdfrwt beam="2">  1       21 0.57272671E-01 0.24720551E+03</pdfrwt>
<totfact> 0.35598766E+04</totfact>
</mgrwt>
</event>
<event>
 5    0  0.2159162E+000  0.2466130E+03  0.7546771E-02  0.1115464E+00
         21   -1    0    0  502  501  0.00000000000E+00  0.00000000000E+00  0.65359947329E+03  0.65359947329E+03  0.00000000000E+00 0.  1.
         21   -1    0    0  503  502 -0.00000000000E+00 -0.00000000000E+00 -0.37121596613E+03  0.37121596613E+03  0.00000000000E+00 0. -1.
         25    1    1    2    0    0 -0.19821351609E+03  0.82568637290E+02  0.58600791249E+03  0.63650330032E+03  0.12500000000E+03 0.  0.
         21    1    1    2  503  504  0.17591879234E+03 -0.58010587555E+02 -0.30300193544E+03  0.35513775164E+03  0.00000000000E+00 0. -1.
         21    1    1    2  504  501  0.22294723751E+02 -0.24558049735E+02 -0.62246990140E+00  0.33174387450E+02  0.00000000000E+00 0. -1.
<mgrwt>
<rscale>  4 0.24661305E+03</rscale>
<asrwt>0</asrwt>
<pdfrwt beam="1">  1       21 0.10055376E+00 0.24661305E+03</pdfrwt>
<pdfrwt beam="2">  1       21 0.57110149E-01 0.24661305E+03</pdfrwt>
<totfact> 0.22334973E+03</totfact>
</mgrwt>
</event>
<event>
 5    0  0.2159162E+000  0.5829330E+03  0.7546771E-02  0.9941461E-01
         21   -1    0    0  502  501  0.00000000000E+00  0.00000000000E+00  0.10660051033E+04  0.10660051033E+04  0.00000000000E+00 0.  1.
         21   -1    0    0  503  502 -0.00000000000E+00 -0.00000000000E+00 -0.49712955033E+03  0.49712955033E+03  0.00000000000E+00 0.  1.
         25    1    1    2    0    0  0.14741130029E+03 -0.64290711547E+03  0.44154400567E+03  0.80352085195E+03  0.12500000000E+03 0.  0.
         21    1    1    2  503  504 -0.15479295243E+03  0.46903280986E+03  0.24319484389E+03  0.55054188483E+03  0.00000000000E+00 0.  1.
         21    1    1    2  504  501  0.73816521372E+01  0.17387430560E+03 -0.11586329656E+03  0.20907191688E+03  0.00000000000E+00 0.  1.
<mgrwt>
<rscale>  4 0.58293299E+03</rscale>
<asrwt>0</asrwt>
<pdfrwt beam="1">  1       21 0.16400078E+00 0.58293299E+03</pdfrwt>
<pdfrwt beam="2">  1       21 0.76481470E-01 0.58293299E+03</pdfrwt>
<totfact> 0.27787519E+02</totfact>
</mgrwt>
</event>
<event>
 5    0  0.2159162E+000  0.2886483E+03  0.7546771E-02  0.1091057E+00
         21   -1    0    0  502  501  0.00000000000E+00  0.00000000000E+00  0.61742239285E+03  0.61742239285E+03  0.00000000000E+00 0. -1.
         21   -1    0    0  503  502 -0.00000000000E+00 -0.00000000000E+00 -0.12117387599E+04  0.12117387599E+04  0.00000000000E+00 0. -1.
         25    1    1    2    0    0 -0.26322039862E+03  0.62613390415E+02  0.54991574343E+03  0.62548999974E+03  0.12500000000E+03 0.  0.
         21    1    1    2  503  504  0.17670916490E+03 -0.31210160818E+02 -0.26744423516E+03  0.32206617646E+03  0.00000000000E+00 0. -1.
         21    1    1    2  504  501  0.86511233724E+02 -0.31403229597E+02 -0.87678787533E+03  0.88160497657E+03  0.00000000000E+00 0. -1.
<mgrwt>
<rscale>  4 0.28864827E+03</rscale>
<asrwt>0</asrwt>
<pdfrwt beam="1">  1       21 0.94988061E-01 0.28864827E+03</pdfrwt>
<pdfrwt beam="2">  1       21 0.18642135E+00 0.28864827E+03</pdfrwt>
<totfact> 0.13712943E+02</totfact>
</mgrwt>
</event>
<event>
 5    0  0.2159162E+000  0.3663596E+03  0.7546771E-02  0.1056400E+00
         21   -1    0    0  502  501  0.00000000000E+00  0.00000000000E+00  0.47405496071E+03  0.47405496071E+03  0.00000000000E+00 0.  1.
         21   -1    0    0  503  502 -0.00000000000E+00 -0.00000000000E+00 -0.10345104487E+04  0.10345104487E+04  0.00000000000E+00 0.  1.
         25    1    1    2    0    0 -0.22322665405E+03  0.25781676461E+03  0.36396577630E+03  0.51419423325E+03  0.12500000000E+03 0.  0.
         21    1    1    2  503  504  0.83319218045E+02 -0.12888211073E+03 -0.58983463943E+03  0.60947320895E+03  0.00000000000E+00 0.  1.
         21    1    1    2  504  501  0.13990743600E+03 -0.12893465388E+03 -0.33458662482E+03  0.38489796717E+03  0.00000000000E+00 0.  1.
<mgrwt>
<rscale>  4 0.36557073E+03</rscale>
<asrwt>0</asrwt>
<pdfrwt beam="1">  1       21 0.72931533E-01 0.36635961E+03</pdfrwt>
<pdfrwt beam="2">  1       21 0.15915545E+00 0.36635961E+03</pdfrwt>
<totfact> 0.37323387E+02</totfact>
</mgrwt>
</event>
