<event>
 5    0  0.1943430E+001  0.2580208E+03  0.7546771E-02  0.1108338E+00
         21   -1    0    0  502  501  0.00000000000E+00  0.00000000000E+00  0.27750192740E+03  0.27750192740E+03  0.00000000000E+00 0. -1.
         21   -1    0    0  503  502 -0.00000000000E+00 -0.00000000000E+00 -0.25350955908E+03  0.25350955908E+03  0.00000000000E+00 0. -1.
         25    1    1    2    0    0  0.34474186319E+02  0.23445940045E+03 -0.11589272326E+01  0.26792913819E+03  0.12500000000E+03 0.  0.
         21    1    1    2  503  504  0.39020834307E+00 -0.21905803127E+03  0.39051708658E+02  0.22251204299E+03  0.00000000000E+00 0. -1.
         21    1    1    2  504  501 -0.34864394662E+02 -0.15401369178E+02 -0.13900413100E+02  0.40570305299E+02  0.00000000000E+00 0. -1.
<mgrwt>
<rscale>  4 0.25802078E+03</rscale>
<asrwt>0</asrwt>
<pdfrwt beam="1">  1       21 0.42692604E-01 0.25802078E+03</pdfrwt>
<pdfrwt beam="2">  1       21 0.39001471E-01 0.25802078E+03</pdfrwt>
<totfact> 0.32412231E+04</totfact>
</mgrwt>
</event>
<event>
 5    0  0.1943430E+001  0.2669013E+03  0.7546771E-02  0.1103066E+00
         21   -1    0    0  504  501  0.00000000000E+00  0.00000000000E+00  0.16407958103E+04  0.16407958103E+04  0.00000000000E+00 0. -1.
         21   -1    0    0  501  502 -0.00000000000E+00 -0.00000000000E+00 -0.59460256932E+02  0.59460256932E+02  0.00000000000E+00 0. -1.
         25    1    1    2    0    0  0.13981979758E+03  0.18767931730E+03  0.10094698524E+04  0.10437564299E+04  0.12500000000E+03 0.  0.
         21    1    1    2  503  502  0.44567888269E+02 -0.30744892022E+02  0.27530012738E+02  0.60740815368E+02  0.00000000000E+00 0. -1.
         21    1    1    2  504  503 -0.18438768585E+03 -0.15693442528E+03  0.54433568821E+03  0.59575882200E+03  0.00000000000E+00 0. -1.
<mgrwt>
<rscale>  4 0.26690127E+03</rscale>
<asrwt>0</asrwt>
<pdfrwt beam="1">  1       21 0.25243009E+00 0.26690127E+03</pdfrwt>
<pdfrwt beam="2">  1       21 0.91477331E-02 0.26690127E+03</pdfrwt>
<totfact> 0.57218509E+03</totfact>
</mgrwt>
</event>
<event>
 5    0  0.1943430E+001  0.3132412E+03  0.7546771E-02  0.1078803E+00
         21   -1    0    0  503  501  0.00000000000E+00  0.00000000000E+00  0.11371915928E+03  0.11371915928E+03  0.00000000000E+00 0.  1.
         21   -1    0    0  504  502 -0.00000000000E+00 -0.00000000000E+00 -0.94958805672E+03  0.94958805672E+03  0.00000000000E+00 0.  1.
         25    1    1    2    0    0 -0.28686376646E+03 -0.61674850160E+02 -0.29583096677E+03  0.43501214759E+03  0.12500000000E+03 0.  0.
         21    1    1    2  503  502  0.23538444677E+02 -0.33213079578E+02 -0.57451994369E+02  0.70412347566E+02  0.00000000000E+00 0.  1.
         21    1    1    2  504  501  0.26332532178E+03  0.94887929738E+02 -0.48258593630E+03  0.55788272084E+03  0.00000000000E+00 0.  1.
<mgrwt>
<rscale>  4 0.31324120E+03</rscale>
<asrwt>0</asrwt>
<pdfrwt beam="1">  1       21 0.17495254E-01 0.31324120E+03</pdfrwt>
<pdfrwt beam="2">  1       21 0.14609048E+00 0.31324120E+03</pdfrwt>
<totfact> 0.88069835E+03</totfact>
</mgrwt>
</event>
<event>
 5    0  0.1943430E+001  0.2490346E+03  0.7546771E-02  0.1113916E+00
         21   -1    0    0  504  501  0.00000000000E+00  0.00000000000E+00  0.30890356224E+03  0.30890356224E+03  0.00000000000E+00 0. -1.
         21   -1    0    0  501  502 -0.00000000000E+00 -0.00000000000E+00 -0.31307663225E+03  0.31307663225E+03  0.00000000000E+00 0.  1.
         25    1    1    2    0    0 -0.11352115471E+03 -0.18505926133E+03 -0.84159382477E+02  0.26427596264E+03  0.12500000000E+03 0.  0.
         21    1    1    2  503  502  0.22573818051E+02 -0.99734919191E+01 -0.83742954329E+02  0.87303666602E+02  0.00000000000E+00 0.  1.
         21    1    1    2  504  503  0.90947336661E+02  0.19503275325E+03  0.16372926679E+03  0.27040056525E+03  0.00000000000E+00 0. -1.
<mgrwt>
<rscale>  4 0.24903458E+03</rscale>
<asrwt>0</asrwt>
<pdfrwt beam="1">  1       21 0.47523625E-01 0.24903458E+03</pdfrwt>
<pdfrwt beam="2">  1       21 0.48165636E-01 0.24903458E+03</pdfrwt>
<totfact> 0.16892669E+04</totfact>
</mgrwt>
</event>
<event>
 5    0  0.1943430E+001  0.3845704E+03  0.7546771E-02  0.1049257E+00
         21   -1    0    0  503  501  0.00000000000E+00  0.00000000000E+00  0.32501746218E+04  0.32501746218E+04  0.00000000000E+00 0. -1.
         21   -1    0    0  504  502 -0.00000000000E+00 -0.00000000000E+00 -0.49598040967E+02  0.49598040967E+02  0.00000000000E+00 0. -1.
         25    1    1    2    0    0 -0.15940876405E+01 -0.35640997411E+03  0.13867189829E+04  0.14372352446E+04  0.12500000000E+03 0.  0.
         21    1    1    2  503  502 -0.48910264886E+02 -0.11188315896E+02  0.16576595961E+03  0.17319279947E+03  0.00000000000E+00 0. -1.
         21    1    1    2  504  501  0.50504352527E+02  0.36759829000E+03  0.16480916384E+04  0.16893446187E+04  0.00000000000E+00 0. -1.
<mgrwt>
<rscale>  4 0.38457042E+03</rscale>
<asrwt>0</asrwt>
<pdfrwt beam="1">  1       21 0.50002670E+00 0.38457042E+03</pdfrwt>
<pdfrwt beam="2">  1       21 0.76304704E-02 0.38457042E+03</pdfrwt>
<totfact> 0.19640528E+02</totfact>
</mgrwt>
</event>
<event>
 5    0  0.1943430E+001  0.3123765E+03  0.7546771E-02  0.1079212E+00
         21   -1    0    0  503  501  0.00000000000E+00  0.00000000000E+00  0.11447057603E+03  0.11447057603E+03  0.00000000000E+00 0. -1.
         21   -1    0    0  504  502 -0.00000000000E+00 -0.00000000000E+00 -0.10338800544E+04  0.10338800544E+04  0.00000000000E+00 0. -1.
         25    1    1    2    0    0 -0.28591848534E+03  0.19922738467E+02 -0.34878465282E+03  0.46842505250E+03  0.12500000000E+03 0.  0.
         21    1    1    2  503  502  0.28630795318E+03  0.27104869846E+00 -0.32359647300E+03  0.43207290456E+03  0.00000000000E+00 0. -1.
         21    1    1    2  504  501 -0.38946783460E+00 -0.20193787166E+02 -0.24702835256E+03  0.24785267336E+03  0.00000000000E+00 0. -1.
<mgrwt>
<rscale>  4 0.31237649E+03</rscale>
<asrwt>0</asrwt>
<pdfrwt beam="1">  1       21 0.17610857E-01 0.31237649E+03</pdfrwt>
<pdfrwt beam="2">  1       21 0.15905848E+00 0.31237649E+03</pdfrwt>
<totfact> 0.69186806E+03</totfact>
</mgrwt>
</event>
<event>
 5    0  0.1943430E+001  0.4671641E+03  0.7546771E-02  0.1022724E+00
         21   -1    0    0  504  501  0.00000000000E+00  0.00000000000E+00  0.53897875026E+03  0.53897875026E+03  0.00000000000E+00 0. -1.
         21   -1    0    0  501  502 -0.00000000000E+00 -0.00000000000E+00 -0.14208122274E+04  0.14208122274E+04  0.00000000000E+00 0. -1.
         25    1    1    2    0    0  0.36118465738E+03 -0.26362249700E+03  0.35332115625E+03  0.58344838427E+03  0.12500000000E+03 0.  0.
         21    1    1    2  503  502 -0.32771300108E+03  0.36356464281E+03 -0.11072240044E+04  0.12105866580E+04  0.00000000000E+00 0. -1.
         21    1    1    2  504  503 -0.33471656300E+02 -0.99942145809E+02 -0.12793062891E+03  0.16575593533E+03  0.00000000000E+00 0. -1.
<mgrwt>
<rscale>  4 0.46716405E+03</rscale>
<asrwt>0</asrwt>
<pdfrwt beam="1">  1       21 0.82919810E-01 0.46716405E+03</pdfrwt>
<pdfrwt beam="2">  1       21 0.21858649E+00 0.46716405E+03</pdfrwt>
<totfact> 0.10217894E+02</totfact>
</mgrwt>
</event>
<event>
 5    0  0.1943430E+001  0.2068798E+03  0.7546771E-02  0.1144061E+00
         21   -1    0    0  503  501  0.00000000000E+00  0.00000000000E+00  0.21624299275E+03  0.21624299275E+03  0.00000000000E+00 0.  1.
         21   -1    0    0  504  502 -0.00000000000E+00 -0.00000000000E+00 -0.99342271224E+03  0.99342271224E+03  0.00000000000E+00 0.  1.
         25    1    1    2    0    0  0.24623121826E+02  0.20603251542E+03  0.41136979974E+02  0.24570906914E+03  0.12500000000E+03 0.  0.
         21    1    1    2  503  502  0.79443382203E+02 -0.10082582813E+03 -0.80523144396E+03  0.81539853872E+03  0.00000000000E+00 0.  1.
         21    1    1    2  504  501 -0.10406650403E+03 -0.10520668729E+03 -0.13085255498E+02  0.14855809713E+03  0.00000000000E+00 0.  1.
<mgrwt>
<rscale>  4 0.20687981E+03</rscale>
<asrwt>0</asrwt>
<pdfrwt beam="1">  1       21 0.33268154E-01 0.20687981E+03</pdfrwt>
<pdfrwt beam="2">  1       21 0.15283426E+00 0.20687981E+03</pdfrwt>
<totfact> 0.24430332E+03</totfact>
</mgrwt>
</event>
<event>
 5    0  0.1943430E+001  0.4196591E+03  0.7546771E-02  0.1037177E+00
         21   -1    0    0  504  501  0.00000000000E+00  0.00000000000E+00  0.36761881285E+03  0.36761881285E+03  0.00000000000E+00 0. -1.
         21   -1    0    0  503  502 -0.00000000000E+00 -0.00000000000E+00 -0.94300770092E+03  0.94300770092E+03  0.00000000000E+00 0. -1.
         25    1    1    2    0    0 -0.29235506713E+03  0.26223314588E+03  0.12859829385E+03  0.43174092840E+03  0.12500000000E+03 0.  0.
         21    1    1    2  503  501  0.35242664386E+03 -0.24961518612E+03 -0.47573210371E+03  0.64252106187E+03  0.00000000000E+00 0. -1.
         21    1    1    2  504  502 -0.60071576735E+02 -0.12617959769E+02 -0.22825507822E+03  0.23636452350E+03  0.00000000000E+00 0. -1.
<mgrwt>
<rscale>  4 0.41965909E+03</rscale>
<asrwt>0</asrwt>
<pdfrwt beam="1">  1       21 0.56556741E-01 0.41965909E+03</pdfrwt>
<pdfrwt beam="2">  1       21 0.14507811E+00 0.41965909E+03</pdfrwt>
<totfact> 0.81851190E+02</totfact>
</mgrwt>
</event>
