<event>
 5    0  0.1911311E+001  0.3197226E+03  0.7546771E-02  0.1075777E+00
         21   -1    0    0  503  501  0.00000000000E+00  0.00000000000E+00  0.19242465558E+03  0.19242465558E+03  0.00000000000E+00 0. -1.
         21   -1    0    0  504  502 -0.00000000000E+00 -0.00000000000E+00 -0.75777785468E+03  0.75777785468E+03  0.00000000000E+00 0.  1.
         25    1    1    2    0    0 -0.27999243030E+03 -0.13432562734E+03 -0.53556717845E+02  0.33901689812E+03  0.12500000000E+03 0.  0.
         21    1    1    2  503  502  0.26602635681E+03  0.11535441297E+03 -0.51109470123E+03  0.58761761098E+03  0.00000000000E+00 0.  1.
         21    1    1    2  504  501  0.13966073492E+02  0.18971214376E+02 -0.70178003216E+00  0.23568001165E+02  0.00000000000E+00 0.  1.
<mgrwt>
<rscale>  4 0.31972263E+03</rscale>
<asrwt>0</asrwt>
<pdfrwt beam="1">  1       21 0.29603793E-01 0.31972263E+03</pdfrwt>
<pdfrwt beam="2">  1       21 0.11658121E+00 0.31972263E+03</pdfrwt>
<totfact> 0.57335137E+03</totfact>
</mgrwt>
</event>
<event>
 5    0  0.3393663E+001  0.2849316E+03  0.7546771E-02  0.1093025E+00
         21   -1    0    0  503  501  0.00000000000E+00  0.00000000000E+00  0.43230181189E+03  0.43230181189E+03  0.00000000000E+00 0. -1.
         21   -1    0    0  504  502 -0.00000000000E+00 -0.00000000000E+00 -0.32990867944E+03  0.32990867944E+03  0.00000000000E+00 0. -1.
         25    1    1    2    0    0 -0.10697313939E+03 -0.25476166112E+03  0.26475464601E+03  0.40257518442E+03  0.12500000000E+03 0.  0.
         21    1    1    2  503  502  0.10185943765E+03  0.23081879588E+03 -0.19497551938E+03  0.31885437856E+03  0.00000000000E+00 0. -1.
         21    1    1    2  504  501  0.51137017468E+01  0.23942865236E+02  0.32614005817E+02  0.40780928346E+02  0.00000000000E+00 0.  1.
<mgrwt>
<rscale>  4 0.28493159E+03</rscale>
<asrwt>0</asrwt>
<pdfrwt beam="1">  1       21 0.66507971E-01 0.28493159E+03</pdfrwt>
<pdfrwt beam="2">  1       21 0.50755181E-01 0.28493159E+03</pdfrwt>
<totfact> 0.72347093E+03</totfact>
</mgrwt>
</event>
<event>
 5    0  0.1911311E+001  0.2586649E+03  0.7546771E-02  0.1107948E+00
         21   -1    0    0  502  501  0.00000000000E+00  0.00000000000E+00  0.22992803937E+04  0.22992803937E+04  0.00000000000E+00 0. -1.
         21   -1    0    0  504  502 -0.00000000000E+00 -0.00000000000E+00 -0.28334059886E+03  0.28334059886E+03  0.00000000000E+00 0. -1.
         25    1    1    2    0    0  0.41999625805E+02 -0.21828320863E+03  0.21281271274E+04  0.21433528870E+04  0.12500000000E+03 0.  0.
         21    1    1    2  503  501  0.35179460830E+02  0.52236661476E+01  0.11380414030E+03  0.11923197349E+03  0.00000000000E+00 0. -1.
         21    1    1    2  504  503 -0.77179086636E+02  0.21305954248E+03 -0.22599147285E+03  0.32003613211E+03  0.00000000000E+00 0. -1.
<mgrwt>
<rscale>  4 0.25866491E+03</rscale>
<asrwt>0</asrwt>
<pdfrwt beam="1">  1       21 0.35373543E+00 0.25866491E+03</pdfrwt>
<pdfrwt beam="2">  1       21 0.43590863E-01 0.25866491E+03</pdfrwt>
<totfact> 0.75988346E+01</totfact>
</mgrwt>
</event>
<event>
 5    0  0.1911311E+001  0.2519273E+03  0.7546771E-02  0.1112093E+00
         21   -1    0    0  504  501  0.00000000000E+00  0.00000000000E+00  0.10297636422E+04  0.10297636422E+04  0.00000000000E+00 0. -1.
         21   -1    0    0  503  502 -0.00000000000E+00 -0.00000000000E+00 -0.20085055675E+03  0.20085055675E+03  0.00000000000E+00 0.  1.
         25    1    1    2    0    0  0.28012821523E+03  0.22725903561E+02  0.16130753275E+03  0.34732319787E+03  0.12500000000E+03 0.  0.
         21    1    1    2  503  501 -0.70998231912E+02 -0.18751858648E+02 -0.79047581936E+02  0.10789300880E+03  0.00000000000E+00 0.  1.
         21    1    1    2  504  502 -0.20912998332E+03 -0.39740449124E+01  0.74665313460E+03  0.77539799223E+03  0.00000000000E+00 0. -1.
<mgrwt>
<rscale>  4 0.25192727E+03</rscale>
<asrwt>0</asrwt>
<pdfrwt beam="1">  1       21 0.15842517E+00 0.25192727E+03</pdfrwt>
<pdfrwt beam="2">  1       21 0.30900086E-01 0.25192727E+03</pdfrwt>
<totfact> 0.24738677E+03</totfact>
</mgrwt>
</event>
<event>
 5    0  0.1911311E+001  0.2268446E+03  0.7546771E-02  0.1128881E+00
         21   -1    0    0  503  501  0.00000000000E+00  0.00000000000E+00  0.19267865904E+03  0.19267865904E+03  0.00000000000E+00 0. -1.
         21   -1    0    0  504  502 -0.00000000000E+00 -0.00000000000E+00 -0.71814409940E+03  0.71814409940E+03  0.00000000000E+00 0. -1.
         25    1    1    2    0    0  0.44264534473E+02 -0.21067400144E+03 -0.51994077933E+03  0.57646014424E+03  0.12500000000E+03 0.  0.
         21    1    1    2  503  502  0.44639971743E+01  0.30359253110E+02 -0.11420962397E+03  0.11826009355E+03  0.00000000000E+00 0. -1.
         21    1    1    2  504  501 -0.48728531647E+02  0.18031474833E+03  0.10868496294E+03  0.21610252065E+03  0.00000000000E+00 0. -1.
<mgrwt>
<rscale>  4 0.22684464E+03</rscale>
<asrwt>0</asrwt>
<pdfrwt beam="1">  1       21 0.29642871E-01 0.22684464E+03</pdfrwt>
<pdfrwt beam="2">  1       21 0.11048371E+00 0.22684464E+03</pdfrwt>
<totfact> 0.68763905E+03</totfact>
</mgrwt>
</event>
<event>
 5    0  0.3219833E+001  0.2813425E+03  0.7546771E-02  0.1094958E+00
         21   -1    0    0  504  501  0.00000000000E+00  0.00000000000E+00  0.20346198390E+04  0.20346198390E+04  0.00000000000E+00 0. -1.
         21   -1    0    0  503  502 -0.00000000000E+00 -0.00000000000E+00 -0.40437611608E+02  0.40437611608E+02  0.00000000000E+00 0. -1.
         25    1    1    2    0    0 -0.18419924722E+03  0.17400572615E+03  0.82874666687E+03  0.87558745609E+03  0.12500000000E+03 0.  0.
         21    1    1    2  503  501  0.16070050633E+03 -0.19340256599E+03  0.99169557442E+03  0.10230783536E+04  0.00000000000E+00 0. -1.
         21    1    1    2  504  502  0.23498740890E+02  0.19396839839E+02  0.17373998612E+03  0.17639164095E+03  0.00000000000E+00 0.  1.
<mgrwt>
<rscale>  4 0.28134252E+03</rscale>
<asrwt>0</asrwt>
<pdfrwt beam="1">  1       21 0.31301836E+00 0.28134252E+03</pdfrwt>
<pdfrwt beam="2">  1       21 0.62211726E-02 0.28134252E+03</pdfrwt>
<totfact> 0.48772121E+03</totfact>
</mgrwt>
</event>
