<event>
 5    0  0.1943430E+001  0.2391394E+03  0.7546771E-02  0.1120367E+00
         21   -1    0    0  502  501  0.00000000000E+00  0.00000000000E+00  0.24047916252E+03  0.24047916252E+03  0.00000000000E+00 0.  1.
         21   -1    0    0  503  502 -0.00000000000E+00 -0.00000000000E+00 -0.27016538769E+03  0.27016538769E+03  0.00000000000E+00 0.  1.
         25    1    1    2    0    0  0.53635565241E+02 -0.19540974060E+03  0.58689563268E+02  0.24521664996E+03  0.12500000000E+03 0.  0.
         21    1    1    2  503  504 -0.94349200623E+02  0.18576654660E+03 -0.70916615787E+02  0.22009122629E+03  0.00000000000E+00 0.  1.
         21    1    1    2  504  501  0.40713635383E+02  0.96431939985E+01 -0.17459172654E+02  0.45336673966E+02  0.00000000000E+00 0.  1.
<mgrwt>
<rscale>  4 0.23913943E+03</rscale>
<asrwt>0</asrwt>
<pdfrwt beam="1">  1       21 0.36996794E-01 0.23913943E+03</pdfrwt>
<pdfrwt beam="2">  1       21 0.41563906E-01 0.23913943E+03</pdfrwt>
<totfact> 0.38396049E+04</totfact>
</mgrwt>
</event>
<event>
 5    0  0.1943430E+001  0.3346844E+03  0.7546771E-02  0.1069083E+00
         21   -1    0    0  504  501  0.00000000000E+00  0.00000000000E+00  0.12556854488E+03  0.12556854488E+03  0.00000000000E+00 0.  1.
         21   -1    0    0  501  502 -0.00000000000E+00 -0.00000000000E+00 -0.16361348303E+04  0.16361348303E+04  0.00000000000E+00 0.  1.
         25    1    1    2    0    0 -0.31366064837E+03  0.90122517686E+02 -0.20457214819E+03  0.40494423609E+03  0.12500000000E+03 0.  0.
         21    1    1    2  503  502  0.26768858233E+03 -0.42507078479E+02 -0.76231786661E+03  0.80906894551E+03  0.00000000000E+00 0.  1.
         21    1    1    2  504  503  0.45972066036E+02 -0.47615439207E+02 -0.54367627064E+03  0.54769019360E+03  0.00000000000E+00 0.  1.
<mgrwt>
<rscale>  4 0.33468442E+03</rscale>
<asrwt>0</asrwt>
<pdfrwt beam="1">  1       21 0.19318238E-01 0.33468442E+03</pdfrwt>
<pdfrwt beam="2">  1       21 0.25171305E+00 0.33468442E+03</pdfrwt>
<totfact> 0.14095686E+03</totfact>
</mgrwt>
</event>
<event>
 5    0  0.1943430E+001  0.2862804E+03  0.7546771E-02  0.1092307E+00
         21   -1    0    0  504  501  0.00000000000E+00  0.00000000000E+00  0.31849871238E+03  0.31849871238E+03  0.00000000000E+00 0. -1.
         21   -1    0    0  503  502 -0.00000000000E+00 -0.00000000000E+00 -0.31895462730E+03  0.31895462730E+03  0.00000000000E+00 0. -1.
         25    1    1    2    0    0  0.53500187397E+02 -0.23511924817E+03  0.77243923893E+02  0.28237378542E+03  0.12500000000E+03 0.  0.
         21    1    1    2  503  501 -0.74920449788E+02  0.27167201209E+03 -0.18685269828E+02  0.28243210734E+03  0.00000000000E+00 0. -1.
         21    1    1    2  504  502  0.21420262390E+02 -0.36552763915E+02 -0.59014568987E+02  0.72647446916E+02  0.00000000000E+00 0.  1.
<mgrwt>
<rscale>  4 0.28628040E+03</rscale>
<asrwt>0</asrwt>
<pdfrwt beam="1">  1       21 0.48999802E-01 0.28628040E+03</pdfrwt>
<pdfrwt beam="2">  1       21 0.49069943E-01 0.28628040E+03</pdfrwt>
<totfact> 0.14976738E+04</totfact>
</mgrwt>
</event>
<event>
 5    0  0.1943430E+001  0.2824403E+03  0.7546771E-02  0.1094364E+00
         21   -1    0    0  502  501  0.00000000000E+00  0.00000000000E+00  0.30531730805E+03  0.30531730805E+03  0.00000000000E+00 0.  1.
         21   -1    0    0  503  502 -0.00000000000E+00 -0.00000000000E+00 -0.58872616234E+03  0.58872616234E+03  0.00000000000E+00 0.  1.
         25    1    1    2    0    0 -0.19547150482E+03 -0.16105399615E+03  0.19824140657E+03  0.34506833258E+03  0.12500000000E+03 0.  0.
         21    1    1    2  503  504  0.14848255477E+03  0.92933908576E+02 -0.37576302360E+03  0.41458609520E+03  0.00000000000E+00 0.  1.
         21    1    1    2  504  501  0.46988950043E+02  0.68120087571E+02 -0.10588723726E+03  0.13438904260E+03  0.00000000000E+00 0.  1.
<mgrwt>
<rscale>  4 0.28244026E+03</rscale>
<asrwt>0</asrwt>
<pdfrwt beam="1">  1       21 0.46971894E-01 0.28244026E+03</pdfrwt>
<pdfrwt beam="2">  1       21 0.90573255E-01 0.28244026E+03</pdfrwt>
<totfact> 0.42250515E+03</totfact>
</mgrwt>
</event>
<event>
 5    0  0.1943430E+001  0.4009942E+03  0.7546771E-02  0.1043436E+00
         21   -1    0    0  504  501  0.00000000000E+00  0.00000000000E+00  0.27708269169E+04  0.27708269169E+04  0.00000000000E+00 0.  1.
         21   -1    0    0  503  502 -0.00000000000E+00 -0.00000000000E+00 -0.68331272165E+02  0.68331272165E+02  0.00000000000E+00 0.  1.
         25    1    1    2    0    0  0.92777811553E+02  0.34927337458E+03  0.12571543231E+04  0.13140249635E+04  0.12500000000E+03 0.  0.
         21    1    1    2  503  501 -0.13764111122E+03 -0.37693538475E+03  0.13974360413E+04  0.14539095052E+04  0.00000000000E+00 0.  1.
         21    1    1    2  504  502  0.44863299669E+02  0.27662010169E+02  0.47905280320E+02  0.71223720391E+02  0.00000000000E+00 0.  1.
<mgrwt>
<rscale>  4 0.40099417E+03</rscale>
<asrwt>0</asrwt>
<pdfrwt beam="1">  1       21 0.42628098E+00 0.40099417E+03</pdfrwt>
<pdfrwt beam="2">  1       21 0.10512506E-01 0.40099417E+03</pdfrwt>
<totfact> 0.35048641E+02</totfact>
</mgrwt>
</event>
<event>
 5    0  0.1943430E+001  0.2153869E+03  0.7546771E-02  0.1137370E+00
         21   -1    0    0  504  501  0.00000000000E+00  0.00000000000E+00  0.44947878160E+03  0.44947878160E+03  0.00000000000E+00 0. -1.
         21   -1    0    0  501  502 -0.00000000000E+00 -0.00000000000E+00 -0.14165441880E+03  0.14165441880E+03  0.00000000000E+00 0. -1.
         25    1    1    2    0    0  0.11970174198E+03  0.16514039927E+03  0.26800773189E+03  0.35923947843E+03  0.12500000000E+03 0.  0.
         21    1    1    2  503  502 -0.29251974708E+02 -0.49051360894E+02 -0.34814039436E+02  0.66885957956E+02  0.00000000000E+00 0.  1.
         21    1    1    2  504  503 -0.90449767277E+02 -0.11608903838E+03  0.74630670336E+02  0.16500776402E+03  0.00000000000E+00 0. -1.
<mgrwt>
<rscale>  4 0.21538688E+03</rscale>
<asrwt>0</asrwt>
<pdfrwt beam="1">  1       21 0.69150581E-01 0.21538688E+03</pdfrwt>
<pdfrwt beam="2">  1       21 0.21792988E-01 0.21538688E+03</pdfrwt>
<totfact> 0.36962623E+04</totfact>
</mgrwt>
</event>
<event>
 5    0  0.1943430E+001  0.2745662E+03  0.7546771E-02  0.1098694E+00
         21   -1    0    0  504  501  0.00000000000E+00  0.00000000000E+00  0.41195036929E+03  0.41195036929E+03  0.00000000000E+00 0.  1.
         21   -1    0    0  501  502 -0.00000000000E+00 -0.00000000000E+00 -0.65674839177E+03  0.65674839177E+03  0.00000000000E+00 0.  1.
         25    1    1    2    0    0  0.17975908387E+03  0.17139921529E+03  0.27800496783E+03  0.39319560192E+03  0.12500000000E+03 0.  0.
         21    1    1    2  503  502  0.18199952219E+01 -0.25455015224E+02 -0.42015683910E+03  0.42093115782E+03  0.00000000000E+00 0.  1.
         21    1    1    2  504  503 -0.18157907909E+03 -0.14594420006E+03 -0.10264615121E+03  0.25457200132E+03  0.00000000000E+00 0.  1.
<mgrwt>
<rscale>  4 0.27456617E+03</rscale>
<asrwt>0</asrwt>
<pdfrwt beam="1">  1       21 0.63376980E-01 0.27456617E+03</pdfrwt>
<pdfrwt beam="2">  1       21 0.10103821E+00 0.27456617E+03</pdfrwt>
<totfact> 0.17287174E+03</totfact>
</mgrwt>
</event>
<event>
 5    0  0.1943430E+001  0.2893664E+03  0.7546771E-02  0.1090680E+00
         21   -1    0    0  504  501  0.00000000000E+00  0.00000000000E+00  0.24599073028E+04  0.24599073028E+04  0.00000000000E+00 0.  1.
         21   -1    0    0  501  502 -0.00000000000E+00 -0.00000000000E+00 -0.99080779674E+02  0.99080779674E+02  0.00000000000E+00 0.  1.
         25    1    1    2    0    0  0.23057103686E+03  0.12807447315E+03  0.22177097876E+04  0.22368343202E+04  0.12500000000E+03 0.  0.
         21    1    1    2  503  502 -0.14864516314E+02 -0.30202051902E+02  0.64185846294E+02  0.72477173295E+02  0.00000000000E+00 0. -1.
         21    1    1    2  504  503 -0.21570652055E+03 -0.97872421248E+02  0.78930889251E+02  0.24967658906E+03  0.00000000000E+00 0.  1.
<mgrwt>
<rscale>  4 0.28936640E+03</rscale>
<asrwt>0</asrwt>
<pdfrwt beam="1">  1       21 0.37844723E+00 0.28936640E+03</pdfrwt>
<pdfrwt beam="2">  1       21 0.15243199E-01 0.28936640E+03</pdfrwt>
<totfact> 0.39692418E+02</totfact>
</mgrwt>
</event>
<event>
 5    0  0.1943430E+001  0.2782332E+03  0.7546771E-02  0.1096658E+00
         21   -1    0    0  504  501  0.00000000000E+00  0.00000000000E+00  0.72161915398E+03  0.72161915398E+03  0.00000000000E+00 0.  1.
         21   -1    0    0  503  502 -0.00000000000E+00 -0.00000000000E+00 -0.10790150682E+04  0.10790150682E+04  0.00000000000E+00 0.  1.
         25    1    1    2    0    0  0.19789988106E+03 -0.26095751695E+03  0.59232534979E+03  0.68828592066E+03  0.12500000000E+03 0.  0.
         21    1    1    2  503  501  0.12144309762E+02  0.13071851551E+03 -0.29470415267E+00  0.13128176342E+03  0.00000000000E+00 0.  1.
         21    1    1    2  504  502 -0.21004419082E+03  0.13023900144E+03 -0.94942655984E+03  0.98106653807E+03  0.00000000000E+00 0.  1.
<mgrwt>
<rscale>  4 0.27823325E+03</rscale>
<asrwt>0</asrwt>
<pdfrwt beam="1">  1       21 0.11101833E+00 0.27823325E+03</pdfrwt>
<pdfrwt beam="2">  1       21 0.16600232E+00 0.27823325E+03</pdfrwt>
<totfact> 0.13208377E+02</totfact>
</mgrwt>
</event>
<event>
 5    0  0.1943430E+001  0.2366705E+03  0.7546771E-02  0.1122031E+00
         21   -1    0    0  503  501  0.00000000000E+00  0.00000000000E+00  0.52442118837E+03  0.52442118837E+03  0.00000000000E+00 0.  1.
         21   -1    0    0  504  502 -0.00000000000E+00 -0.00000000000E+00 -0.19068069059E+03  0.19068069059E+03  0.00000000000E+00 0.  1.
         25    1    1    2    0    0  0.11816621663E+03  0.17579227555E+03  0.37186241224E+03  0.44583946946E+03  0.12500000000E+03 0.  0.
         21    1    1    2  503  502 -0.33300621532E+02 -0.16813469303E+02 -0.76407911554E+02  0.85028189987E+02  0.00000000000E+00 0.  1.
         21    1    1    2  504  501 -0.84865595095E+02 -0.15897880624E+03  0.38285997088E+02  0.18423421951E+03  0.00000000000E+00 0.  1.
<mgrwt>
<rscale>  4 0.23667055E+03</rscale>
<asrwt>0</asrwt>
<pdfrwt beam="1">  1       21 0.80680182E-01 0.23667055E+03</pdfrwt>
<pdfrwt beam="2">  1       21 0.29335491E-01 0.23667055E+03</pdfrwt>
<totfact> 0.14624210E+04</totfact>
</mgrwt>
</event>
<event>
 5    0  0.1943430E+001  0.2386767E+03  0.7546771E-02  0.1120678E+00
         21   -1    0    0  504  501  0.00000000000E+00  0.00000000000E+00  0.36598225599E+03  0.36598225599E+03  0.00000000000E+00 0.  1.
         21   -1    0    0  501  502 -0.00000000000E+00 -0.00000000000E+00 -0.32461585412E+03  0.32461585412E+03  0.00000000000E+00 0. -1.
         25    1    1    2    0    0  0.65265267339E+02  0.23091873398E+03  0.74755001388E+01  0.27067304987E+03  0.12500000000E+03 0.  0.
         21    1    1    2  503  502 -0.17798936147E+03 -0.10545367729E+03  0.11064916070E+03  0.23461442329E+03  0.00000000000E+00 0.  1.
         21    1    1    2  504  503  0.11272409413E+03 -0.12546505669E+03 -0.76758258965E+02  0.18531063695E+03  0.00000000000E+00 0. -1.
<mgrwt>
<rscale>  4 0.23867670E+03</rscale>
<asrwt>0</asrwt>
<pdfrwt beam="1">  1       21 0.56304963E-01 0.23867670E+03</pdfrwt>
<pdfrwt beam="2">  1       21 0.49940900E-01 0.23867670E+03</pdfrwt>
<totfact> 0.11014124E+04</totfact>
</mgrwt>
</event>
<event>
 5    0  0.1943430E+001  0.2899687E+03  0.7546771E-02  0.1090365E+00
         21   -1    0    0  503  501  0.00000000000E+00  0.00000000000E+00  0.21673461694E+03  0.21673461694E+03  0.00000000000E+00 0.  1.
         21   -1    0    0  504  502 -0.00000000000E+00 -0.00000000000E+00 -0.85028581735E+03  0.85028581735E+03  0.00000000000E+00 0.  1.
         25    1    1    2    0    0  0.22642778129E+03  0.43288055421E+02 -0.90810333355E+02  0.27751560772E+03  0.12500000000E+03 0.  0.
         21    1    1    2  503  502 -0.28674696757E+03 -0.50252156190E+02 -0.52862332998E+02  0.29587755721E+03  0.00000000000E+00 0.  1.
         21    1    1    2  504  501  0.60319186280E+02  0.69641007692E+01 -0.48987853406E+03  0.49362726937E+03  0.00000000000E+00 0.  1.
<mgrwt>
<rscale>  4 0.28996871E+03</rscale>
<asrwt>0</asrwt>
<pdfrwt beam="1">  1       21 0.33343787E-01 0.28996871E+03</pdfrwt>
<pdfrwt beam="2">  1       21 0.13081320E+00 0.28996871E+03</pdfrwt>
<totfact> 0.34378854E+03</totfact>
</mgrwt>
</event>
