<event>
 5    0  0.2349231E+000  0.3640277E+03  0.7546771E-02  0.1057000E+00
         21   -1    0    0  502  501  0.00000000000E+00  0.00000000000E+00  0.85524620234E+03  0.85524620234E+03  0.00000000000E+00 0.  1.
         21   -1    0    0  504  502 -0.00000000000E+00 -0.00000000000E+00 -0.11992869525E+03  0.11992869525E+03  0.00000000000E+00 0.  1.
         25    1    1    2    0    0  0.19806483728E+03 -0.56451617202E+02  0.12612246393E+03  0.27193444202E+03  0.12500000000E+03 0.  0.
         21    1    1    2  503  501 -0.76390631743E+02  0.69658404397E+02  0.56301678324E+03  0.57242966392E+03  0.00000000000E+00 0.  1.
         21    1    1    2  504  503 -0.12167420554E+03 -0.13206787196E+02  0.46178259919E+02  0.13081079164E+03  0.00000000000E+00 0. -1.
<mgrwt>
<rscale>  4 0.36402772E+03</rscale>
<asrwt>0</asrwt>
<pdfrwt beam="1">  1       21 0.13157633E+00 0.36402772E+03</pdfrwt>
<pdfrwt beam="2">  1       21 0.18450569E-01 0.36402772E+03</pdfrwt>
<totfact> 0.10263620E+04</totfact>
</mgrwt>
</event>
<event>
 5    0  0.2349231E+000  0.8517701E+03  0.7546771E-02  0.9487964E-01
         21   -1    0    0  503  501  0.00000000000E+00  0.00000000000E+00  0.74153338733E+03  0.74153338733E+03  0.00000000000E+00 0.  1.
         21   -1    0    0  504  502 -0.00000000000E+00 -0.00000000000E+00 -0.41175129507E+03  0.41175129507E+03  0.00000000000E+00 0. -1.
         25    1    1    2    0    0 -0.27655787346E+03  0.16541918681E+03  0.24756382157E+03  0.42515951182E+03  0.12500000000E+03 0.  0.
         21    1    1    2  503  502  0.30934179212E+03 -0.20194514187E+03 -0.21462965431E+03  0.42724708681E+03  0.00000000000E+00 0. -1.
         21    1    1    2  504  501 -0.32783918651E+02  0.36525955060E+02  0.29684792501E+03  0.30087808378E+03  0.00000000000E+00 0.  1.
<mgrwt>
<rscale>  4 0.85177013E+03</rscale>
<asrwt>0</asrwt>
<pdfrwt beam="1">  1       21 0.11408206E+00 0.85177013E+03</pdfrwt>
<pdfrwt beam="2">  1       21 0.63346353E-01 0.85177013E+03</pdfrwt>
<totfact> 0.10468374E+03</totfact>
</mgrwt>
</event>
<event>
 5    0  0.2349231E+000  0.1120483E+04  0.7546771E-02  0.9185454E-01
         21   -1    0    0  503  501  0.00000000000E+00  0.00000000000E+00  0.31806436293E+03  0.31806436293E+03  0.00000000000E+00 0.  1.
         21   -1    0    0  504  502 -0.00000000000E+00 -0.00000000000E+00 -0.19160659155E+04  0.19160659155E+04  0.00000000000E+00 0.  1.
         25    1    1    2    0    0  0.21602736170E+03 -0.14285668680E+03  0.25419457026E+02  0.28869880977E+03  0.12500000000E+03 0.  0.
         21    1    1    2  503  502 -0.17254093885E+03  0.14214865949E+03 -0.17743414891E+04  0.17883691836E+04  0.00000000000E+00 0.  1.
         21    1    1    2  504  501 -0.43486422858E+02  0.70802730989E+00  0.15092047946E+03  0.15706228509E+03  0.00000000000E+00 0.  1.
<mgrwt>
<rscale>  4 0.11204835E+04</rscale>
<asrwt>0</asrwt>
<pdfrwt beam="1">  1       21 0.48932980E-01 0.11204835E+04</pdfrwt>
<pdfrwt beam="2">  1       21 0.29477936E+00 0.11204835E+04</pdfrwt>
<totfact> 0.88163447E+01</totfact>
</mgrwt>
</event>
<event>
 5    0  0.2349231E+000  0.3709004E+03  0.7546771E-02  0.1054349E+00
         21   -1    0    0  502  501  0.00000000000E+00  0.00000000000E+00  0.10259602396E+04  0.10259602396E+04  0.00000000000E+00 0. -1.
         21   -1    0    0  504  502 -0.00000000000E+00 -0.00000000000E+00 -0.16045339771E+03  0.16045339771E+03  0.00000000000E+00 0.  1.
         25    1    1    2    0    0 -0.28158638172E+01  0.22464606114E+03  0.22227408692E+02  0.25805588459E+03  0.12500000000E+03 0.  0.
         21    1    1    2  503  501 -0.15801562471E+02 -0.11549333301E+03  0.80161996124E+03  0.81005120925E+03  0.00000000000E+00 0. -1.
         21    1    1    2  504  503  0.18617426288E+02 -0.10915272813E+03  0.41659471935E+02  0.11830654345E+03  0.00000000000E+00 0. -1.
<mgrwt>
<rscale>  4 0.37090045E+03</rscale>
<asrwt>0</asrwt>
<pdfrwt beam="1">  1       21 0.15784003E+00 0.37090045E+03</pdfrwt>
<pdfrwt beam="2">  1       21 0.24685139E-01 0.37090045E+03</pdfrwt>
<totfact> 0.36163624E+03</totfact>
</mgrwt>
</event>
<event>
 5    0  0.2349231E+000  0.9529532E+03  0.7546771E-02  0.9361705E-01
         21   -1    0    0  503  501  0.00000000000E+00  0.00000000000E+00  0.27348144622E+03  0.27348144622E+03  0.00000000000E+00 0.  1.
         21   -1    0    0  504  502 -0.00000000000E+00 -0.00000000000E+00 -0.10318052229E+04  0.10318052229E+04  0.00000000000E+00 0. -1.
         25    1    1    2    0    0  0.36083345013E+03 -0.27644608578E+03 -0.68637964039E+03  0.83268555159E+03  0.12500000000E+03 0.  0.
         21    1    1    2  503  502 -0.65350662696E+02  0.85333728121E+02 -0.53894434449E+02  0.12023794881E+03  0.00000000000E+00 0.  1.
         21    1    1    2  504  501 -0.29548278744E+03  0.19111235766E+03 -0.18049701815E+02  0.35236316870E+03  0.00000000000E+00 0.  1.
<mgrwt>
<rscale>  4 0.95295318E+03</rscale>
<asrwt>0</asrwt>
<pdfrwt beam="1">  1       21 0.42074069E-01 0.95295318E+03</pdfrwt>
<pdfrwt beam="2">  1       21 0.15873926E+00 0.95295318E+03</pdfrwt>
<totfact> 0.10278618E+03</totfact>
</mgrwt>
</event>
