<event>
 5    0  0.1972558E-002  0.2869027E+03  0.7546771E-02  0.1091977E+00
         21   -1    0    0  501  502  0.00000000000E+00  0.00000000000E+00  0.50006510038E+03  0.50006510038E+03  0.00000000000E+00 0.  1.
         21   -1    0    0  502  503 -0.00000000000E+00 -0.00000000000E+00 -0.10895549978E+04  0.10895549978E+04  0.00000000000E+00 0.  1.
         25    1    1    2    0    0  0.65437709393E+02  0.24936124060E+03 -0.10144705296E+04  0.10541530143E+04  0.12500000000E+03 0.  0.
          2    1    1    2  501    0  0.53452261003E+02 -0.46576952380E+01  0.66778639144E+02  0.85663440143E+02  0.00000000000E+00 0. -1.
         -2    1    1    2    0  503 -0.11888997040E+03 -0.24470354536E+03  0.35820199300E+03  0.44980364378E+03  0.00000000000E+00 0.  1.
<mgrwt>
<rscale>  4 0.28690272E+03</rscale>
<asrwt>0</asrwt>
<pdfrwt beam="1">  1       21 0.76933092E-01 0.28690272E+03</pdfrwt>
<pdfrwt beam="2">  1       21 0.16762385E+00 0.28690272E+03</pdfrwt>
<totfact> 0.30289547E+02</totfact>
</mgrwt>
</event>
<event>
 5    0  0.1972558E-002  0.2418168E+03  0.7546771E-02  0.1118588E+00
         21   -1    0    0  501  502  0.00000000000E+00  0.00000000000E+00  0.90756056627E+03  0.90756056627E+03  0.00000000000E+00 0. -1.
         21   -1    0    0  502  503 -0.00000000000E+00 -0.00000000000E+00 -0.82024975826E+03  0.82024975826E+03  0.00000000000E+00 0. -1.
         25    1    1    2    0    0 -0.13863309794E+03 -0.15372458223E+03 -0.78833676721E+03  0.82459095408E+03  0.12500000000E+03 0.  0.
          1    1    1    2  501    0  0.86434573809E+02  0.38252412193E+02  0.35424423386E+03  0.36663764102E+03  0.00000000000E+00 0.  1.
         -1    1    1    2    0  503  0.52198524130E+02  0.11547217004E+03  0.52140334136E+03  0.53658172942E+03  0.00000000000E+00 0. -1.
<mgrwt>
<rscale>  4 0.24181684E+03</rscale>
<asrwt>0</asrwt>
<pdfrwt beam="1">  1       21 0.13962470E+00 0.24181684E+03</pdfrwt>
<pdfrwt beam="2">  1       21 0.12619227E+00 0.24181684E+03</pdfrwt>
<totfact> 0.15836319E+02</totfact>
</mgrwt>
</event>
<event>
 5    0  0.1972558E-002  0.2627666E+03  0.7546771E-02  0.1105492E+00
         21   -1    0    0  501  502  0.00000000000E+00  0.00000000000E+00  0.80860829793E+03  0.80860829793E+03  0.00000000000E+00 0.  1.
         21   -1    0    0  502  503 -0.00000000000E+00 -0.00000000000E+00 -0.24409234109E+03  0.24409234109E+03  0.00000000000E+00 0. -1.
         25    1    1    2    0    0 -0.88612713617E+02  0.21376442269E+03 -0.13399969521E+03  0.29517513401E+03  0.12500000000E+03 0.  0.
          3    1    1    2  501    0  0.34127679619E+02  0.11667086916E+02  0.25007186480E+03  0.25265936950E+03  0.00000000000E+00 0.  1.
         -3    1    1    2    0  503  0.54485033998E+02 -0.22543150960E+03  0.44844378725E+03  0.50486613550E+03  0.00000000000E+00 0. -1.
<mgrwt>
<rscale>  4 0.26276665E+03</rscale>
<asrwt>0</asrwt>
<pdfrwt beam="1">  1       21 0.12440128E+00 0.26276665E+03</pdfrwt>
<pdfrwt beam="2">  1       21 0.37552668E-01 0.26276665E+03</pdfrwt>
<totfact> 0.31304048E+03</totfact>
</mgrwt>
</event>
<event>
 5    0  0.1972558E-002  0.3106601E+03  0.7546771E-02  0.1080030E+00
         21   -1    0    0  501  502  0.00000000000E+00  0.00000000000E+00  0.36715742432E+03  0.36715742432E+03  0.00000000000E+00 0. -1.
         21   -1    0    0  502  503 -0.00000000000E+00 -0.00000000000E+00 -0.58907996370E+03  0.58907996370E+03  0.00000000000E+00 0.  1.
         25    1    1    2    0    0  0.21958821483E+03  0.18997246948E+03 -0.39898005732E+03  0.50903694305E+03  0.12500000000E+03 0.  0.
          1    1    1    2  501    0 -0.28432398784E+02  0.92945986664E+00  0.17473421420E+03  0.17703477287E+03  0.00000000000E+00 0.  1.
         -1    1    1    2    0  503 -0.19115581604E+03 -0.19090192935E+03  0.23233037505E+01  0.27016567209E+03  0.00000000000E+00 0. -1.
<mgrwt>
<rscale>  4 0.31066009E+03</rscale>
<asrwt>0</asrwt>
<pdfrwt beam="1">  1       21 0.56485758E-01 0.31066009E+03</pdfrwt>
<pdfrwt beam="2">  1       21 0.90627687E-01 0.31066009E+03</pdfrwt>
<totfact> 0.28117347E+03</totfact>
</mgrwt>
</event>
<event>
 5    0  0.1972558E-002  0.2524676E+03  0.7546771E-02  0.1111755E+00
         21   -1    0    0  501  502  0.00000000000E+00  0.00000000000E+00  0.33263192306E+03  0.33263192306E+03  0.00000000000E+00 0. -1.
         21   -1    0    0  502  503 -0.00000000000E+00 -0.00000000000E+00 -0.34487539935E+03  0.34487539935E+03  0.00000000000E+00 0.  1.
         25    1    1    2    0    0 -0.12116140532E+03 -0.18333473047E+03 -0.22100193396E+03  0.33579542039E+03  0.12500000000E+03 0.  0.
          3    1    1    2  501    0 -0.29139140652E+02  0.22209516684E+02  0.76243528200E+02  0.84589761447E+02  0.00000000000E+00 0.  1.
         -3    1    1    2    0  503  0.15030054597E+03  0.16112521379E+03  0.13251492948E+03  0.25712214058E+03  0.00000000000E+00 0. -1.
<mgrwt>
<rscale>  4 0.25246760E+03</rscale>
<asrwt>0</asrwt>
<pdfrwt beam="1">  1       21 0.51174142E-01 0.25246760E+03</pdfrwt>
<pdfrwt beam="2">  1       21 0.53057753E-01 0.25246760E+03</pdfrwt>
<totfact> 0.11784029E+04</totfact>
</mgrwt>
</event>
<event>
 5    0  0.1972558E-002  0.2664698E+03  0.7546771E-02  0.1103317E+00
         21   -1    0    0  501  502  0.00000000000E+00  0.00000000000E+00  0.54242950819E+03  0.54242950819E+03  0.00000000000E+00 0.  1.
         21   -1    0    0  502  503 -0.00000000000E+00 -0.00000000000E+00 -0.66601432811E+03  0.66601432811E+03  0.00000000000E+00 0. -1.
         25    1    1    2    0    0  0.64424146093E+02  0.23460468571E+03 -0.54740292017E+03  0.61193527939E+03  0.12500000000E+03 0.  0.
          2    1    1    2  501    0 -0.52757638627E+02 -0.19809126662E+03  0.37628493451E+02  0.20842126058E+03  0.00000000000E+00 0. -1.
         -2    1    1    2    0  503 -0.11666507467E+02 -0.36513419092E+02  0.38618960680E+03  0.38808729633E+03  0.00000000000E+00 0.  1.
<mgrwt>
<rscale>  4 0.26646983E+03</rscale>
<asrwt>0</asrwt>
<pdfrwt beam="1">  1       21 0.83450694E-01 0.26646983E+03</pdfrwt>
<pdfrwt beam="2">  1       21 0.10246374E+00 0.26646983E+03</pdfrwt>
<totfact> 0.90730160E+02</totfact>
</mgrwt>
</event>
<event>
 5    0  0.1972558E-002  0.3053547E+03  0.7546771E-02  0.1082594E+00
         21   -1    0    0  501  502  0.00000000000E+00  0.00000000000E+00  0.37610010411E+03  0.37610010411E+03  0.00000000000E+00 0.  1.
         21   -1    0    0  502  503 -0.00000000000E+00 -0.00000000000E+00 -0.11494280344E+04  0.11494280344E+04  0.00000000000E+00 0.  1.
         25    1    1    2    0    0 -0.12567661641E+01  0.32311901065E+03 -0.39283567267E+03  0.52378654071E+03  0.12500000000E+03 0.  0.
          2    1    1    2  501    0 -0.89643712724E+02 -0.25053800909E+03 -0.65316863886E+03  0.70529040828E+03  0.00000000000E+00 0.  1.
         -2    1    1    2    0  503  0.90900478888E+02 -0.72581001559E+02  0.27267638126E+03  0.29645118949E+03  0.00000000000E+00 0. -1.
<mgrwt>
<rscale>  4 0.30535466E+03</rscale>
<asrwt>0</asrwt>
<pdfrwt beam="1">  1       21 0.57861555E-01 0.30535466E+03</pdfrwt>
<pdfrwt beam="2">  1       21 0.17683508E+00 0.30535466E+03</pdfrwt>
<totfact> 0.48221719E+02</totfact>
</mgrwt>
</event>
<event>
 5    0  0.1972558E-002  0.2441419E+03  0.7546771E-02  0.1117064E+00
         21   -1    0    0  503  502  0.00000000000E+00  0.00000000000E+00  0.16702738836E+04  0.16702738836E+04  0.00000000000E+00 0.  1.
         21   -1    0    0  501  503 -0.00000000000E+00 -0.00000000000E+00 -0.17432856921E+03  0.17432856921E+03  0.00000000000E+00 0. -1.
         25    1    1    2    0    0 -0.17406646624E+03  0.12661573485E+03 -0.59339969498E+02  0.25588456570E+03  0.12500000000E+03 0.  0.
          2    1    1    2  501    0  0.11762800555E+03  0.58002456864E+02  0.63417926785E+03  0.64759862297E+03  0.00000000000E+00 0. -1.
         -2    1    1    2    0  502  0.56438460683E+02 -0.18461819172E+03  0.92110601607E+03  0.94111926417E+03  0.00000000000E+00 0.  1.
<mgrwt>
<rscale>  4 0.24414192E+03</rscale>
<asrwt>0</asrwt>
<pdfrwt beam="1">  1       21 0.25696520E+00 0.24414192E+03</pdfrwt>
<pdfrwt beam="2">  1       21 0.26819781E-01 0.24414192E+03</pdfrwt>
<totfact> 0.75520813E+02</totfact>
</mgrwt>
</event>
<event>
 5    0  0.1972558E-002  0.2834272E+03  0.7546771E-02  0.1093832E+00
         21   -1    0    0  501  502  0.00000000000E+00  0.00000000000E+00  0.10834321151E+03  0.10834321151E+03  0.00000000000E+00 0.  1.
         21   -1    0    0  502  503 -0.00000000000E+00 -0.00000000000E+00 -0.72071741449E+03  0.72071741449E+03  0.00000000000E+00 0. -1.
         25    1    1    2    0    0  0.61524916161E+02 -0.24682116081E+03 -0.36481509455E+03  0.46197516594E+03  0.12500000000E+03 0.  0.
          2    1    1    2  501    0 -0.10092219364E+00  0.17879960116E+03 -0.17501222102E+03  0.25019709244E+03  0.00000000000E+00 0.  1.
         -2    1    1    2    0  503 -0.61423993967E+02  0.68021559655E+02 -0.72546887402E+02  0.11688836762E+03  0.00000000000E+00 0. -1.
<mgrwt>
<rscale>  4 0.28342724E+03</rscale>
<asrwt>0</asrwt>
<pdfrwt beam="1">  1       21 0.16668187E-01 0.28342724E+03</pdfrwt>
<pdfrwt beam="2">  1       21 0.11087960E+00 0.28342724E+03</pdfrwt>
<totfact> 0.19739470E+04</totfact>
</mgrwt>
</event>
<event>
 5    0  0.1972558E-002  0.2864096E+03  0.7546771E-02  0.1092239E+00
         21   -1    0    0  503  502  0.00000000000E+00  0.00000000000E+00  0.13920882269E+04  0.13920882269E+04  0.00000000000E+00 0. -1.
         21   -1    0    0  501  503 -0.00000000000E+00 -0.00000000000E+00 -0.72193374029E+02  0.72193374029E+02  0.00000000000E+00 0.  1.
         25    1    1    2    0    0  0.21193807938E+03 -0.56274064045E+02  0.35934000248E+03  0.43912954485E+03  0.12500000000E+03 0.  0.
          4    1    1    2  501    0  0.52353566249E+02 -0.31157459834E+02  0.73635104667E+02  0.95570978030E+02  0.00000000000E+00 0.  1.
         -4    1    1    2    0  502 -0.26429164563E+03  0.87431523879E+02  0.88691974576E+03  0.92958107808E+03  0.00000000000E+00 0. -1.
<mgrwt>
<rscale>  4 0.28640964E+03</rscale>
<asrwt>0</asrwt>
<pdfrwt beam="1">  1       21 0.21416740E+00 0.28640964E+03</pdfrwt>
<pdfrwt beam="2">  1       21 0.11106674E-01 0.28640964E+03</pdfrwt>
<totfact> 0.68559314E+03</totfact>
</mgrwt>
</event>
<event>
 5    0  0.1972558E-002  0.3649865E+03  0.7546771E-02  0.1056627E+00
         21   -1    0    0  503  502  0.00000000000E+00  0.00000000000E+00  0.35629407115E+03  0.35629407115E+03  0.00000000000E+00 0. -1.
         21   -1    0    0  501  503 -0.00000000000E+00 -0.00000000000E+00 -0.80647908171E+03  0.80647908171E+03  0.00000000000E+00 0. -1.
         25    1    1    2    0    0  0.40220793835E+03  0.19081364074E+03 -0.37441128737E+03  0.59497048941E+03  0.12500000000E+03 0.  0.
          1    1    1    2  501    0 -0.25705596772E+03 -0.10876282294E+03 -0.21360323127E+03  0.35147327438E+03  0.00000000000E+00 0.  1.
         -1    1    1    2    0  502 -0.14515197062E+03 -0.82050817802E+02  0.13782950808E+03  0.21632938907E+03  0.00000000000E+00 0. -1.
<mgrwt>
<rscale>  4 0.36498648E+03</rscale>
<asrwt>0</asrwt>
<pdfrwt beam="1">  1       21 0.54814473E-01 0.36498648E+03</pdfrwt>
<pdfrwt beam="2">  1       21 0.12407370E+00 0.36498648E+03</pdfrwt>
<totfact> 0.13531225E+03</totfact>
</mgrwt>
</event>
<event>
 5    0  0.1972558E-002  0.2176485E+03  0.7546771E-02  0.1135648E+00
         21   -1    0    0  503  502  0.00000000000E+00  0.00000000000E+00  0.12644199288E+03  0.12644199288E+03  0.00000000000E+00 0. -1.
         21   -1    0    0  501  503 -0.00000000000E+00 -0.00000000000E+00 -0.14285237242E+04  0.14285237242E+04  0.00000000000E+00 0. -1.
         25    1    1    2    0    0 -0.18190606227E+03 -0.87302302543E+02 -0.12775709761E+04  0.12994322246E+04  0.12500000000E+03 0.  0.
          2    1    1    2  501    0  0.76544613644E+02  0.88569885357E+02 -0.74654301467E+02  0.13884151828E+03  0.00000000000E+00 0. -1.
         -2    1    1    2    0  502  0.10536144863E+03 -0.12675828142E+01  0.50143546165E+02  0.11669197421E+03  0.00000000000E+00 0.  1.
<mgrwt>
<rscale>  4 0.21764854E+03</rscale>
<asrwt>0</asrwt>
<pdfrwt beam="1">  1       21 0.19452614E-01 0.21764854E+03</pdfrwt>
<pdfrwt beam="2">  1       21 0.21977289E+00 0.21764854E+03</pdfrwt>
<totfact> 0.23919947E+03</totfact>
</mgrwt>
</event>
<event>
 5    0  0.1972558E-002  0.2902525E+03  0.7546771E-02  0.1090217E+00
         21   -1    0    0  501  502  0.00000000000E+00  0.00000000000E+00  0.40988366878E+03  0.40988366878E+03  0.00000000000E+00 0. -1.
         21   -1    0    0  502  503 -0.00000000000E+00 -0.00000000000E+00 -0.55241599777E+03  0.55241599777E+03  0.00000000000E+00 0.  1.
         25    1    1    2    0    0 -0.24072667077E+03 -0.13717915913E+03 -0.30701258506E+03  0.43202914150E+03  0.12500000000E+03 0.  0.
          3    1    1    2  501    0  0.51717886241E+01  0.67915401313E+02  0.25852613305E+03  0.26734810754E+03  0.00000000000E+00 0. -1.
         -3    1    1    2    0  503  0.23555488214E+03  0.69263757822E+02 -0.94045876990E+02  0.26292241751E+03  0.00000000000E+00 0.  1.
<mgrwt>
<rscale>  4 0.29025255E+03</rscale>
<asrwt>0</asrwt>
<pdfrwt beam="1">  1       21 0.63059026E-01 0.29025255E+03</pdfrwt>
<pdfrwt beam="2">  1       21 0.84987076E-01 0.29025255E+03</pdfrwt>
<totfact> 0.26016908E+03</totfact>
</mgrwt>
</event>
<event>
 5    0  0.1972558E-002  0.3799216E+03  0.7546771E-02  0.1050963E+00
         21   -1    0    0  501  502  0.00000000000E+00  0.00000000000E+00  0.74159407454E+03  0.74159407454E+03  0.00000000000E+00 0. -1.
         21   -1    0    0  502  503 -0.00000000000E+00 -0.00000000000E+00 -0.46497455268E+03  0.46497455268E+03  0.00000000000E+00 0. -1.
         25    1    1    2    0    0 -0.19298683757E+03 -0.29458918989E+03  0.28392740315E+03  0.46932555922E+03  0.12500000000E+03 0.  0.
          3    1    1    2  501    0  0.18542506837E+02 -0.20878700632E+02  0.27683233325E+03  0.27823710291E+03  0.00000000000E+00 0.  1.
         -3    1    1    2    0  503  0.17444433073E+03  0.31546789052E+03 -0.28414021454E+03  0.45900596510E+03  0.00000000000E+00 0. -1.
<mgrwt>
<rscale>  4 0.37992161E+03</rscale>
<asrwt>0</asrwt>
<pdfrwt beam="1">  1       21 0.11409140E+00 0.37992161E+03</pdfrwt>
<pdfrwt beam="2">  1       21 0.71534547E-01 0.37992161E+03</pdfrwt>
<totfact> 0.92380621E+02</totfact>
</mgrwt>
</event>
<event>
 5    0  0.1972558E-002  0.2431805E+03  0.7546771E-02  0.1117692E+00
         21   -1    0    0  503  502  0.00000000000E+00  0.00000000000E+00  0.10832097553E+04  0.10832097553E+04  0.00000000000E+00 0.  1.
         21   -1    0    0  501  503 -0.00000000000E+00 -0.00000000000E+00 -0.49543887763E+03  0.49543887763E+03  0.00000000000E+00 0. -1.
         25    1    1    2    0    0  0.12225442073E+03  0.17386859338E+03 -0.43398440839E+03  0.49914316371E+03  0.12500000000E+03 0.  0.
          1    1    1    2  501    0  0.33563751416E+02 -0.14588720017E+03  0.24765608827E+03  0.28938406770E+03  0.00000000000E+00 0. -1.
         -1    1    1    2    0  502 -0.15581817214E+03 -0.27981393209E+02  0.77409919781E+03  0.79012140155E+03  0.00000000000E+00 0.  1.
<mgrwt>
<rscale>  4 0.24318048E+03</rscale>
<asrwt>0</asrwt>
<pdfrwt beam="1">  1       21 0.16664765E+00 0.24318048E+03</pdfrwt>
<pdfrwt beam="2">  1       21 0.76221366E-01 0.24318048E+03</pdfrwt>
<totfact> 0.32691714E+02</totfact>
</mgrwt>
</event>
<event>
 5    0  0.1972558E-002  0.2459683E+03  0.7546771E-02  0.1115880E+00
         21   -1    0    0  503  502  0.00000000000E+00  0.00000000000E+00  0.46959911484E+03  0.46959911484E+03  0.00000000000E+00 0. -1.
         21   -1    0    0  501  503 -0.00000000000E+00 -0.00000000000E+00 -0.14479763964E+03  0.14479763964E+03  0.00000000000E+00 0. -1.
         25    1    1    2    0    0 -0.12982684849E+03 -0.16739294222E+03  0.41218191937E+02  0.24939796920E+03  0.12500000000E+03 0.  0.
          4    1    1    2  501    0  0.30764500021E+02  0.60481614973E+02  0.16040870978E+03  0.17417070473E+03  0.00000000000E+00 0.  1.
         -4    1    1    2    0  502  0.99062348466E+02  0.10691132725E+03  0.12317457348E+03  0.19082808056E+03  0.00000000000E+00 0. -1.
<mgrwt>
<rscale>  4 0.24596831E+03</rscale>
<asrwt>0</asrwt>
<pdfrwt beam="1">  1       21 0.72246017E-01 0.24596831E+03</pdfrwt>
<pdfrwt beam="2">  1       21 0.22276560E-01 0.24596831E+03</pdfrwt>
<totfact> 0.31713201E+04</totfact>
</mgrwt>
</event>
<event>
 5    0  0.1972558E-002  0.2557632E+03  0.7546771E-02  0.1109716E+00
         21   -1    0    0  501  502  0.00000000000E+00  0.00000000000E+00  0.15745066132E+03  0.15745066132E+03  0.00000000000E+00 0.  1.
         21   -1    0    0  502  503 -0.00000000000E+00 -0.00000000000E+00 -0.63780871772E+03  0.63780871772E+03  0.00000000000E+00 0.  1.
         25    1    1    2    0    0 -0.16400934865E+03 -0.18691421333E+03 -0.44992972908E+03  0.52905363689E+03  0.12500000000E+03 0.  0.
          2    1    1    2  501    0  0.12879037117E+03  0.17545701264E+03  0.96711289196E+00  0.21765352811E+03  0.00000000000E+00 0.  1.
         -2    1    1    2    0  503  0.35218977478E+02  0.11457200691E+02 -0.31395440209E+02  0.48552214041E+02  0.00000000000E+00 0. -1.
<mgrwt>
<rscale>  4 0.25576322E+03</rscale>
<asrwt>0</asrwt>
<pdfrwt beam="1">  1       21 0.24223179E-01 0.25576322E+03</pdfrwt>
<pdfrwt beam="2">  1       21 0.98124416E-01 0.25576322E+03</pdfrwt>
<totfact> 0.13298430E+04</totfact>
</mgrwt>
</event>
<event>
 5    0  0.1972558E-002  0.2494688E+03  0.7546771E-02  0.1113641E+00
         21   -1    0    0  501  502  0.00000000000E+00  0.00000000000E+00  0.10141603400E+04  0.10141603400E+04  0.00000000000E+00 0.  1.
         21   -1    0    0  502  503 -0.00000000000E+00 -0.00000000000E+00 -0.26184998398E+03  0.26184998398E+03  0.00000000000E+00 0. -1.
         25    1    1    2    0    0  0.76679814016E+02 -0.21827810298E+03 -0.89919370517E+02  0.27791296716E+03  0.12500000000E+03 0.  0.
          3    1    1    2  501    0  0.19922522444E+02  0.20397307615E+03  0.65359649719E+02  0.21511347356E+03  0.00000000000E+00 0. -1.
         -3    1    1    2    0  503 -0.96602336460E+02  0.14305026833E+02  0.77687007682E+03  0.78298388327E+03  0.00000000000E+00 0.  1.
<mgrwt>
<rscale>  4 0.24946877E+03</rscale>
<asrwt>0</asrwt>
<pdfrwt beam="1">  1       21 0.15602467E+00 0.24946877E+03</pdfrwt>
<pdfrwt beam="2">  1       21 0.40284613E-01 0.24946877E+03</pdfrwt>
<totfact> 0.15198013E+03</totfact>
</mgrwt>
</event>
<event>
 5    0  0.1972558E-002  0.2618495E+03  0.7546771E-02  0.1106037E+00
         21   -1    0    0  501  502  0.00000000000E+00  0.00000000000E+00  0.10017365960E+04  0.10017365960E+04  0.00000000000E+00 0. -1.
         21   -1    0    0  502  503 -0.00000000000E+00 -0.00000000000E+00 -0.23828631439E+03  0.23828631439E+03  0.00000000000E+00 0.  1.
         25    1    1    2    0    0  0.26632536006E+02 -0.21046406285E+03  0.34512950515E+02  0.24863740161E+03  0.12500000000E+03 0.  0.
          2    1    1    2  501    0 -0.36518567744E+02  0.24186301123E+03 -0.16557567807E+02  0.24516417978E+03  0.00000000000E+00 0.  1.
         -2    1    1    2    0  503  0.98860317380E+01 -0.31398948388E+02  0.74549489887E+03  0.74622132898E+03  0.00000000000E+00 0. -1.
<mgrwt>
<rscale>  4 0.26184953E+03</rscale>
<asrwt>0</asrwt>
<pdfrwt beam="1">  1       21 0.15411332E+00 0.26184953E+03</pdfrwt>
<pdfrwt beam="2">  1       21 0.36659434E-01 0.26184953E+03</pdfrwt>
<totfact> 0.18835967E+03</totfact>
</mgrwt>
</event>
<event>
 5    0  0.1972558E-002  0.2618666E+03  0.7546771E-02  0.1106027E+00
         21   -1    0    0  501  502  0.00000000000E+00  0.00000000000E+00  0.43237820256E+03  0.43237820256E+03  0.00000000000E+00 0.  1.
         21   -1    0    0  502  503 -0.00000000000E+00 -0.00000000000E+00 -0.49144947492E+03  0.49144947492E+03  0.00000000000E+00 0.  1.
         25    1    1    2    0    0  0.22760054870E+03 -0.38297909337E+02 -0.24695488445E+03  0.36038930975E+03  0.12500000000E+03 0.  0.
          4    1    1    2  501    0 -0.54965037173E+01 -0.20650318896E+02  0.30484384222E+03  0.30559190984E+03  0.00000000000E+00 0.  1.
         -4    1    1    2    0  503 -0.22210404499E+03  0.58948228233E+02 -0.11696023014E+03  0.25784645789E+03  0.00000000000E+00 0. -1.
<mgrwt>
<rscale>  4 0.26186659E+03</rscale>
<asrwt>0</asrwt>
<pdfrwt beam="1">  1       21 0.66519724E-01 0.26186659E+03</pdfrwt>
<pdfrwt beam="2">  1       21 0.75607611E-01 0.26186659E+03</pdfrwt>
<totfact> 0.30745650E+03</totfact>
</mgrwt>
</event>
<event>
 5    0  0.1972558E-002  0.3230790E+03  0.7546771E-02  0.1074241E+00
         21   -1    0    0  501  502  0.00000000000E+00  0.00000000000E+00  0.21130471806E+03  0.21130471806E+03  0.00000000000E+00 0. -1.
         21   -1    0    0  502  503 -0.00000000000E+00 -0.00000000000E+00 -0.64203937051E+03  0.64203937051E+03  0.00000000000E+00 0. -1.
         25    1    1    2    0    0  0.17783001672E+03  0.24850350904E+03 -0.28693306915E+03  0.43741638632E+03  0.12500000000E+03 0.  0.
          4    1    1    2  501    0 -0.15799398059E+03 -0.24361198807E+03 -0.20235270840E+03  0.35391456205E+03  0.00000000000E+00 0. -1.
         -4    1    1    2    0  503 -0.19836036128E+02 -0.48915209789E+01  0.58551125100E+02  0.62013140198E+02  0.00000000000E+00 0.  1.
<mgrwt>
<rscale>  4 0.32307901E+03</rscale>
<asrwt>0</asrwt>
<pdfrwt beam="1">  1       21 0.32508419E-01 0.32307901E+03</pdfrwt>
<pdfrwt beam="2">  1       21 0.98775286E-01 0.32307901E+03</pdfrwt>
<totfact> 0.71335095E+03</totfact>
</mgrwt>
</event>
<event>
 5    0  0.1972558E-002  0.2369141E+03  0.7546771E-02  0.1121866E+00
         21   -1    0    0  501  502  0.00000000000E+00  0.00000000000E+00  0.13476067492E+03  0.13476067492E+03  0.00000000000E+00 0.  1.
         21   -1    0    0  502  503 -0.00000000000E+00 -0.00000000000E+00 -0.46282299449E+03  0.46282299449E+03  0.00000000000E+00 0. -1.
         25    1    1    2    0    0  0.16698042694E+03  0.12739499721E+03 -0.26899861183E+03  0.36345178698E+03  0.12500000000E+03 0.  0.
          3    1    1    2  501    0 -0.25556134069E+02 -0.10752497606E+01  0.16022062607E+02  0.30182422712E+02  0.00000000000E+00 0. -1.
         -3    1    1    2    0  503 -0.14142429287E+03 -0.12631974745E+03 -0.75085770347E+02  0.20394945972E+03  0.00000000000E+00 0.  1.
<mgrwt>
<rscale>  4 0.23691411E+03</rscale>
<asrwt>0</asrwt>
<pdfrwt beam="1">  1       21 0.20732412E-01 0.23691411E+03</pdfrwt>
<pdfrwt beam="2">  1       21 0.71203537E-01 0.23691411E+03</pdfrwt>
<totfact> 0.37674780E+04</totfact>
</mgrwt>
</event>
<event>
 5    0  0.1972558E-002  0.2408296E+03  0.7546771E-02  0.1119241E+00
         21   -1    0    0  503  502  0.00000000000E+00  0.00000000000E+00  0.82931425013E+02  0.82931425013E+02  0.00000000000E+00 0.  1.
         21   -1    0    0  501  503 -0.00000000000E+00 -0.00000000000E+00 -0.28467617684E+04  0.28467617684E+04  0.00000000000E+00 0.  1.
         25    1    1    2    0    0  0.18780427122E+03  0.10833972646E+03 -0.14458118353E+04  0.14673121017E+04  0.12500000000E+03 0.  0.
          4    1    1    2  501    0 -0.28500209252E+02  0.20673558497E+02 -0.12439027060E+04  0.12444009000E+04  0.00000000000E+00 0. -1.
         -4    1    1    2    0  502 -0.15930406197E+03 -0.12901328496E+03 -0.74115802046E+02  0.21798019169E+03  0.00000000000E+00 0.  1.
<mgrwt>
<rscale>  4 0.24082959E+03</rscale>
<asrwt>0</asrwt>
<pdfrwt beam="1">  1       21 0.12758682E-01 0.24082959E+03</pdfrwt>
<pdfrwt beam="2">  1       21 0.43796331E+00 0.24082959E+03</pdfrwt>
<totfact> 0.24340605E+02</totfact>
</mgrwt>
</event>
<event>
 5    0  0.1972558E-002  0.2749777E+03  0.7546771E-02  0.1098464E+00
         21   -1    0    0  501  502  0.00000000000E+00  0.00000000000E+00  0.75888265339E+03  0.75888265339E+03  0.00000000000E+00 0. -1.
         21   -1    0    0  502  503 -0.00000000000E+00 -0.00000000000E+00 -0.56782083654E+03  0.56782083654E+03  0.00000000000E+00 0.  1.
         25    1    1    2    0    0  0.17264419487E+03 -0.21975887725E+03 -0.40717624357E+03  0.50942857741E+03  0.12500000000E+03 0.  0.
          4    1    1    2  501    0 -0.19856450959E+03  0.49642681672E+02  0.10589591766E+02  0.20494974937E+03  0.00000000000E+00 0.  1.
         -4    1    1    2    0  503  0.25920314723E+02  0.17011619557E+03  0.58764846866E+03  0.61232516315E+03  0.00000000000E+00 0. -1.
<mgrwt>
<rscale>  4 0.27497768E+03</rscale>
<asrwt>0</asrwt>
<pdfrwt beam="1">  1       21 0.11675118E+00 0.27497768E+03</pdfrwt>
<pdfrwt beam="2">  1       21 0.87357052E-01 0.27497768E+03</pdfrwt>
<totfact> 0.58954128E+02</totfact>
</mgrwt>
</event>
<event>
 5    0  0.1972558E-002  0.2329576E+03  0.7546771E-02  0.1124575E+00
         21   -1    0    0  501  502  0.00000000000E+00  0.00000000000E+00  0.12416647910E+04  0.12416647910E+04  0.00000000000E+00 0. -1.
         21   -1    0    0  502  503 -0.00000000000E+00 -0.00000000000E+00 -0.14031025974E+03  0.14031025974E+03  0.00000000000E+00 0. -1.
         25    1    1    2    0    0  0.73952277447E+02 -0.18693771864E+03  0.47170814552E+02  0.24138089347E+03  0.12500000000E+03 0.  0.
          2    1    1    2  501    0 -0.50423827275E+02  0.18396447552E+03  0.16826832898E+03  0.25436139870E+03  0.00000000000E+00 0.  1.
         -2    1    1    2    0  503 -0.23528450172E+02  0.29732431183E+01  0.88591538776E+03  0.88623275860E+03  0.00000000000E+00 0. -1.
<mgrwt>
<rscale>  4 0.23295765E+03</rscale>
<asrwt>0</asrwt>
<pdfrwt beam="1">  1       21 0.19102535E+00 0.23295765E+03</pdfrwt>
<pdfrwt beam="2">  1       21 0.21586195E-01 0.23295765E+03</pdfrwt>
<totfact> 0.29618623E+03</totfact>
</mgrwt>
</event>
<event>
 5    0  0.1972558E-002  0.2654479E+03  0.7546771E-02  0.1103914E+00
         21   -1    0    0  501  502  0.00000000000E+00  0.00000000000E+00  0.18173027810E+03  0.18173027810E+03  0.00000000000E+00 0. -1.
         21   -1    0    0  502  503 -0.00000000000E+00 -0.00000000000E+00 -0.71531179256E+03  0.71531179256E+03  0.00000000000E+00 0. -1.
         25    1    1    2    0    0  0.56228525730E+02 -0.19488890959E+03 -0.46773216162E+03  0.52492066943E+03  0.12500000000E+03 0.  0.
          3    1    1    2  501    0 -0.13662685163E+03  0.20060963073E+03  0.32589160126E+02  0.24489420958E+03  0.00000000000E+00 0. -1.
         -3    1    1    2    0  503  0.80398325903E+02 -0.57207211368E+01 -0.98438512965E+02  0.12722719164E+03  0.00000000000E+00 0.  1.
<mgrwt>
<rscale>  4 0.26544790E+03</rscale>
<asrwt>0</asrwt>
<pdfrwt beam="1">  1       21 0.27958505E-01 0.26544790E+03</pdfrwt>
<pdfrwt beam="2">  1       21 0.11004797E+00 0.26544790E+03</pdfrwt>
<totfact> 0.76018243E+03</totfact>
</mgrwt>
</event>
<event>
 5    0  0.1972558E-002  0.2193746E+03  0.7546771E-02  0.1134350E+00
         21   -1    0    0  501  502  0.00000000000E+00  0.00000000000E+00  0.27745251055E+03  0.27745251055E+03  0.00000000000E+00 0.  1.
         21   -1    0    0  502  503 -0.00000000000E+00 -0.00000000000E+00 -0.33566629223E+03  0.33566629223E+03  0.00000000000E+00 0.  1.
         25    1    1    2    0    0 -0.42645649337E+02 -0.21507333396E+03 -0.17514689746E+03  0.30720778975E+03  0.12500000000E+03 0.  0.
          1    1    1    2  501    0  0.26100777198E+02  0.14183768518E+03 -0.24022323221E+02  0.14620619522E+03  0.00000000000E+00 0. -1.
         -1    1    1    2    0  503  0.16544872139E+02  0.73235648783E+02  0.14095543900E+03  0.15970481781E+03  0.00000000000E+00 0.  1.
<mgrwt>
<rscale>  4 0.21937456E+03</rscale>
<asrwt>0</asrwt>
<pdfrwt beam="1">  1       21 0.42685002E-01 0.21937456E+03</pdfrwt>
<pdfrwt beam="2">  1       21 0.51640968E-01 0.21937456E+03</pdfrwt>
<totfact> 0.18508441E+04</totfact>
</mgrwt>
</event>
<event>
 5    0  0.1972558E-002  0.3049784E+03  0.7546771E-02  0.1082778E+00
         21   -1    0    0  501  502  0.00000000000E+00  0.00000000000E+00  0.14506187584E+03  0.14506187584E+03  0.00000000000E+00 0.  1.
         21   -1    0    0  502  503 -0.00000000000E+00 -0.00000000000E+00 -0.89414992498E+03  0.89414992498E+03  0.00000000000E+00 0. -1.
         25    1    1    2    0    0 -0.14158165915E+03  0.23088484165E+03 -0.54303505548E+03  0.61956859813E+03  0.12500000000E+03 0.  0.
          3    1    1    2  501    0 -0.27569971326E+02  0.70219315817E+01  0.32111401001E+02  0.42901665659E+02  0.00000000000E+00 0. -1.
         -3    1    1    2    0  503  0.16915163048E+03 -0.23790677323E+03 -0.23816439466E+03  0.37674153703E+03  0.00000000000E+00 0.  1.
<mgrwt>
<rscale>  4 0.30497842E+03</rscale>
<asrwt>0</asrwt>
<pdfrwt beam="1">  1       21 0.22317212E-01 0.30497842E+03</pdfrwt>
<pdfrwt beam="2">  1       21 0.13756152E+00 0.30497842E+03</pdfrwt>
<totfact> 0.65481176E+03</totfact>
</mgrwt>
</event>
<event>
 5    0  0.1972558E-002  0.3157707E+03  0.7546771E-02  0.1077612E+00
         21   -1    0    0  501  502  0.00000000000E+00  0.00000000000E+00  0.10403163344E+04  0.10403163344E+04  0.00000000000E+00 0.  1.
         21   -1    0    0  502  503 -0.00000000000E+00 -0.00000000000E+00 -0.63286563090E+03  0.63286563090E+03  0.00000000000E+00 0. -1.
         25    1    1    2    0    0  0.20018802166E+03  0.24629941570E+03 -0.35885301593E+03  0.49511527267E+03  0.12500000000E+03 0.  0.
          4    1    1    2  501    0 -0.51657081001E+02 -0.35704409351E+02  0.89000014202E+03  0.89221270539E+03  0.00000000000E+00 0.  1.
         -4    1    1    2    0  503 -0.14853094066E+03 -0.21059500635E+03 -0.12369642263E+03  0.28585398721E+03  0.00000000000E+00 0. -1.
<mgrwt>
<rscale>  4 0.31577070E+03</rscale>
<asrwt>0</asrwt>
<pdfrwt beam="1">  1       21 0.16004867E+00 0.31577070E+03</pdfrwt>
<pdfrwt beam="2">  1       21 0.97363943E-01 0.31577070E+03</pdfrwt>
<totfact> 0.19459566E+02</totfact>
</mgrwt>
</event>
<event>
 5    0  0.1972558E-002  0.5441662E+03  0.7546771E-02  0.1002853E+00
         21   -1    0    0  501  502  0.00000000000E+00  0.00000000000E+00  0.96415571149E+03  0.96415571149E+03  0.00000000000E+00 0. -1.
         21   -1    0    0  502  503 -0.00000000000E+00 -0.00000000000E+00 -0.92514640786E+03  0.92514640786E+03  0.00000000000E+00 0.  1.
         25    1    1    2    0    0 -0.51308937612E+03 -0.20233942891E+03 -0.12275036277E+03  0.57870078965E+03  0.12500000000E+03 0.  0.
          2    1    1    2  501    0  0.47765433077E+03  0.20146787933E+03 -0.45684752034E+03  0.69097946637E+03  0.00000000000E+00 0.  1.
         -2    1    1    2    0  503  0.35435045351E+02  0.87154957915E+00  0.61860718674E+03  0.61962186334E+03  0.00000000000E+00 0. -1.
<mgrwt>
<rscale>  4 0.54416623E+03</rscale>
<asrwt>0</asrwt>
<pdfrwt beam="1">  1       21 0.14833165E+00 0.54416623E+03</pdfrwt>
<pdfrwt beam="2">  1       21 0.14233022E+00 0.54416623E+03</pdfrwt>
<totfact> 0.80245519E+01</totfact>
</mgrwt>
</event>
<event>
 5    0  0.1972558E-002  0.2542880E+03  0.7546771E-02  0.1110624E+00
         21   -1    0    0  501  502  0.00000000000E+00  0.00000000000E+00  0.22493699884E+03  0.22493699884E+03  0.00000000000E+00 0.  1.
         21   -1    0    0  502  503 -0.00000000000E+00 -0.00000000000E+00 -0.79010963617E+03  0.79010963617E+03  0.00000000000E+00 0.  1.
         25    1    1    2    0    0 -0.17416909204E+02  0.22513940502E+03 -0.62694251437E+03  0.67799190021E+03  0.12500000000E+03 0.  0.
          3    1    1    2  501    0  0.27203038548E+02 -0.20633571497E+03 -0.57498026243E+02  0.21591770562E+03  0.00000000000E+00 0.  1.
         -3    1    1    2    0  503 -0.97861293443E+01 -0.18803690050E+02  0.11926790328E+03  0.12113702919E+03  0.00000000000E+00 0. -1.
<mgrwt>
<rscale>  4 0.25428805E+03</rscale>
<asrwt>0</asrwt>
<pdfrwt beam="1">  1       21 0.34605692E-01 0.25428805E+03</pdfrwt>
<pdfrwt beam="2">  1       21 0.12155533E+00 0.25428805E+03</pdfrwt>
<totfact> 0.39311684E+03</totfact>
</mgrwt>
</event>
<event>
 5    0  0.1972558E-002  0.2770862E+03  0.7546771E-02  0.1097291E+00
         21   -1    0    0  501  502  0.00000000000E+00  0.00000000000E+00  0.84675736347E+02  0.84675736347E+02  0.00000000000E+00 0. -1.
         21   -1    0    0  502  503 -0.00000000000E+00 -0.00000000000E+00 -0.15704120279E+04  0.15704120279E+04  0.00000000000E+00 0.  1.
         25    1    1    2    0    0  0.16270352318E+03  0.18359881970E+03 -0.11315229337E+04  0.11645385836E+04  0.12500000000E+03 0.  0.
          1    1    1    2  501    0 -0.14680004572E+03 -0.20587510041E+03 -0.37767225027E+03  0.45450097802E+03  0.00000000000E+00 0. -1.
         -1    1    1    2    0  503 -0.15903477461E+02  0.22276280711E+02  0.23458892472E+02  0.36048202641E+02  0.00000000000E+00 0.  1.
<mgrwt>
<rscale>  4 0.27708619E+03</rscale>
<asrwt>0</asrwt>
<pdfrwt beam="1">  1       21 0.13027037E-01 0.27708619E+03</pdfrwt>
<pdfrwt beam="2">  1       21 0.24160184E+00 0.27708619E+03</pdfrwt>
<totfact> 0.35014005E+03</totfact>
</mgrwt>
</event>
<event>
 5    0  0.1972558E-002  0.2379562E+03  0.7546771E-02  0.1121162E+00
         21   -1    0    0  501  502  0.00000000000E+00  0.00000000000E+00  0.68793378723E+03  0.68793378723E+03  0.00000000000E+00 0. -1.
         21   -1    0    0  502  503 -0.00000000000E+00 -0.00000000000E+00 -0.15810664231E+03  0.15810664231E+03  0.00000000000E+00 0.  1.
         25    1    1    2    0    0 -0.43887757436E+02  0.27654580665E+03  0.18404567247E+03  0.35763323109E+03  0.12500000000E+03 0.  0.
          1    1    1    2  501    0  0.10912675235E+03 -0.10466568376E+03  0.99235936166E+02  0.18086272270E+03  0.00000000000E+00 0.  1.
         -1    1    1    2    0  503 -0.65238994916E+02 -0.17188012289E+03  0.24654553629E+03  0.30754447575E+03  0.00000000000E+00 0. -1.
<mgrwt>
<rscale>  4 0.23795616E+03</rscale>
<asrwt>0</asrwt>
<pdfrwt beam="1">  1       21 0.10583597E+00 0.23795616E+03</pdfrwt>
<pdfrwt beam="2">  1       21 0.24324099E-01 0.23795616E+03</pdfrwt>
<totfact> 0.11108759E+04</totfact>
</mgrwt>
</event>
<event>
 5    0  0.1972558E-002  0.3370333E+03  0.7546771E-02  0.1068067E+00
         21   -1    0    0  501  502  0.00000000000E+00  0.00000000000E+00  0.37921023764E+03  0.37921023764E+03  0.00000000000E+00 0.  1.
         21   -1    0    0  502  503 -0.00000000000E+00 -0.00000000000E+00 -0.12582702423E+04  0.12582702423E+04  0.00000000000E+00 0. -1.
         25    1    1    2    0    0  0.23142287090E+03  0.18216230706E+03 -0.16195699846E+03  0.35860106057E+03  0.12500000000E+03 0.  0.
          2    1    1    2  501    0  0.42448670878E+01  0.31200998481E+02  0.25457692545E+03  0.25651692376E+03  0.00000000000E+00 0.  1.
         -2    1    1    2    0  503 -0.23566773799E+03 -0.21336330554E+03 -0.97167993164E+03  0.10223624956E+04  0.00000000000E+00 0. -1.
<mgrwt>
<rscale>  4 0.33703328E+03</rscale>
<asrwt>0</asrwt>
<pdfrwt beam="1">  1       21 0.58340037E-01 0.33703328E+03</pdfrwt>
<pdfrwt beam="2">  1       21 0.19358004E+00 0.33703328E+03</pdfrwt>
<totfact> 0.35559905E+02</totfact>
</mgrwt>
</event>
<event>
 5    0  0.1972558E-002  0.2464517E+03  0.7546771E-02  0.1115568E+00
         21   -1    0    0  501  502  0.00000000000E+00  0.00000000000E+00  0.32278589276E+03  0.32278589276E+03  0.00000000000E+00 0. -1.
         21   -1    0    0  502  503 -0.00000000000E+00 -0.00000000000E+00 -0.80531626724E+03  0.80531626724E+03  0.00000000000E+00 0. -1.
         25    1    1    2    0    0  0.91473411217E+01  0.21469871932E+03 -0.73430486452E+03  0.77524695936E+03  0.12500000000E+03 0.  0.
          4    1    1    2  501    0 -0.82957381814E+01 -0.18987449834E+03  0.13413680068E+03  0.23262378573E+03  0.00000000000E+00 0. -1.
         -4    1    1    2    0  503 -0.85160294031E+00 -0.24824220980E+02  0.11763768936E+03  0.12023141492E+03  0.00000000000E+00 0.  1.
<mgrwt>
<rscale>  4 0.24645168E+03</rscale>
<asrwt>0</asrwt>
<pdfrwt beam="1">  1       21 0.49659369E-01 0.24645168E+03</pdfrwt>
<pdfrwt beam="2">  1       21 0.12389481E+00 0.24645168E+03</pdfrwt>
<totfact> 0.18009126E+03</totfact>
</mgrwt>
</event>
<event>
 5    0  0.1972558E-002  0.5868602E+03  0.7546771E-02  0.9933048E-01
         21   -1    0    0  501  502  0.00000000000E+00  0.00000000000E+00  0.45617523558E+03  0.45617523558E+03  0.00000000000E+00 0. -1.
         21   -1    0    0  502  503 -0.00000000000E+00 -0.00000000000E+00 -0.95108594302E+03  0.95108594302E+03  0.00000000000E+00 0. -1.
         25    1    1    2    0    0 -0.46946706867E+03  0.31852515998E+03 -0.27867307743E+03  0.64431458946E+03  0.12500000000E+03 0.  0.
          3    1    1    2  501    0  0.57622515693E+01  0.28891121909E+02  0.99027089217E+02  0.10331633398E+03  0.00000000000E+00 0.  1.
         -3    1    1    2    0  503  0.46370481710E+03 -0.34741628189E+03 -0.31526471923E+03  0.65963025515E+03  0.00000000000E+00 0. -1.
<mgrwt>
<rscale>  4 0.58686015E+03</rscale>
<asrwt>0</asrwt>
<pdfrwt beam="1">  1       21 0.70180807E-01 0.58686015E+03</pdfrwt>
<pdfrwt beam="2">  1       21 0.14632091E+00 0.58686015E+03</pdfrwt>
<totfact> 0.46346987E+02</totfact>
</mgrwt>
</event>
<event>
 5    0  0.1972558E-002  0.2150299E+03  0.7546771E-02  0.1137644E+00
         21   -1    0    0  501  502  0.00000000000E+00  0.00000000000E+00  0.11260105803E+03  0.11260105803E+03  0.00000000000E+00 0.  1.
         21   -1    0    0  502  503 -0.00000000000E+00 -0.00000000000E+00 -0.91551229140E+03  0.91551229140E+03  0.00000000000E+00 0. -1.
         25    1    1    2    0    0 -0.59824716286E+02 -0.19498705036E+03 -0.54758841806E+03  0.59755922057E+03  0.12500000000E+03 0.  0.
          2    1    1    2  501    0  0.65320799256E+02  0.38013108520E+02  0.47609674542E+02  0.89322361952E+02  0.00000000000E+00 0.  1.
         -2    1    1    2    0  503 -0.54960829705E+01  0.15697394184E+03 -0.30293248984E+03  0.34123176691E+03  0.00000000000E+00 0. -1.
<mgrwt>
<rscale>  4 0.21502989E+03</rscale>
<asrwt>0</asrwt>
<pdfrwt beam="1">  1       21 0.17323240E-01 0.21502989E+03</pdfrwt>
<pdfrwt beam="2">  1       21 0.14084805E+00 0.21502989E+03</pdfrwt>
<totfact> 0.10445469E+04</totfact>
</mgrwt>
</event>
<event>
 5    0  0.1972558E-002  0.2336728E+03  0.7546771E-02  0.1124081E+00
         21   -1    0    0  501  502  0.00000000000E+00  0.00000000000E+00  0.32438088473E+03  0.32438088473E+03  0.00000000000E+00 0.  1.
         21   -1    0    0  502  503 -0.00000000000E+00 -0.00000000000E+00 -0.18640661511E+03  0.18640661511E+03  0.00000000000E+00 0. -1.
         25    1    1    2    0    0 -0.36755035054E+02 -0.21124009731E+03  0.21200885499E+02  0.24909393581E+03  0.12500000000E+03 0.  0.
          4    1    1    2  501    0  0.46915960643E+02  0.17616184800E+03  0.55854966706E+02  0.19066693829E+03  0.00000000000E+00 0.  1.
         -4    1    1    2    0  503 -0.10160925589E+02  0.35078249310E+02  0.60918417413E+02  0.71026625737E+02  0.00000000000E+00 0. -1.
<mgrwt>
<rscale>  4 0.23367282E+03</rscale>
<asrwt>0</asrwt>
<pdfrwt beam="1">  1       21 0.49904752E-01 0.23367282E+03</pdfrwt>
<pdfrwt beam="2">  1       21 0.28677941E-01 0.23367282E+03</pdfrwt>
<totfact> 0.43638130E+04</totfact>
</mgrwt>
</event>
<event>
 5    0  0.1972558E-002  0.3603172E+03  0.7546771E-02  0.1065212E+00
         21   -1    0    0  501  502  0.00000000000E+00  0.00000000000E+00  0.54278040106E+03  0.54278040106E+03  0.00000000000E+00 0. -1.
         21   -1    0    0  502  503 -0.00000000000E+00 -0.00000000000E+00 -0.15425958489E+04  0.15425958489E+04  0.00000000000E+00 0. -1.
         25    1    1    2    0    0 -0.17353446102E+03 -0.20818329059E+03 -0.11958777876E+04  0.12325596029E+04  0.12500000000E+03 0.  0.
          4    1    1    2  501    0  0.36547895315E+03 -0.11553675447E+03  0.27054769860E+03  0.46916912094E+03  0.00000000000E+00 0. -1.
         -4    1    1    2    0  503 -0.19194449213E+03  0.32372004506E+03 -0.74485358769E+02  0.38364752613E+03  0.00000000000E+00 0.  1.
<mgrwt>
<rscale>  4 0.34374470E+03</rscale>
<asrwt>0</asrwt>
<pdfrwt beam="1">  1       21 0.83504679E-01 0.36031725E+03</pdfrwt>
<pdfrwt beam="2">  1       21 0.23732243E+00 0.36031725E+03</pdfrwt>
<totfact> 0.82251014E+01</totfact>
</mgrwt>
</event>
<event>
 5    0  0.1972558E-002  0.3044578E+03  0.7546771E-02  0.1083033E+00
         21   -1    0    0  501  502  0.00000000000E+00  0.00000000000E+00  0.27341041765E+03  0.27341041765E+03  0.00000000000E+00 0. -1.
         21   -1    0    0  502  503 -0.00000000000E+00 -0.00000000000E+00 -0.50826044448E+03  0.50826044448E+03  0.00000000000E+00 0. -1.
         25    1    1    2    0    0  0.32793268702E+02  0.28166872994E+03 -0.11703355384E+03  0.33126201808E+03  0.12500000000E+03 0.  0.
          2    1    1    2  501    0 -0.13747874009E+03 -0.13098876820E+02  0.23288131048E+01  0.13812099016E+03  0.00000000000E+00 0.  1.
         -2    1    1    2    0  503  0.10468547139E+03 -0.26856985312E+03 -0.12014528609E+03  0.31228785390E+03  0.00000000000E+00 0. -1.
<mgrwt>
<rscale>  4 0.30445780E+03</rscale>
<asrwt>0</asrwt>
<pdfrwt beam="1">  1       21 0.42063141E-01 0.30445780E+03</pdfrwt>
<pdfrwt beam="2">  1       21 0.78193915E-01 0.30445780E+03</pdfrwt>
<totfact> 0.73732123E+03</totfact>
</mgrwt>
</event>
<event>
 5    0  0.1972558E-002  0.2876298E+03  0.7546771E-02  0.1091593E+00
         21   -1    0    0  501  502  0.00000000000E+00  0.00000000000E+00  0.79055206719E+02  0.79055206719E+02  0.00000000000E+00 0.  1.
         21   -1    0    0  502  503 -0.00000000000E+00 -0.00000000000E+00 -0.10663335948E+04  0.10663335948E+04  0.00000000000E+00 0.  1.
         25    1    1    2    0    0 -0.38325123057E+02 -0.25808413816E+03 -0.59088524389E+03  0.65791079097E+03  0.12500000000E+03 0.  0.
          2    1    1    2  501    0  0.14061820742E+02  0.25792836924E+03 -0.34855120527E+03  0.43383490081E+03  0.00000000000E+00 0.  1.
         -2    1    1    2    0  503  0.24263302315E+02  0.15576891359E+00 -0.47841938914E+02  0.53643109736E+02  0.00000000000E+00 0. -1.
<mgrwt>
<rscale>  4 0.28762983E+03</rscale>
<asrwt>0</asrwt>
<pdfrwt beam="1">  1       21 0.12162340E-01 0.28762983E+03</pdfrwt>
<pdfrwt beam="2">  1       21 0.16405132E+00 0.28762983E+03</pdfrwt>
<totfact> 0.12696209E+04</totfact>
</mgrwt>
</event>
<event>
 5    0  0.1972558E-002  0.2574475E+03  0.7546771E-02  0.1108687E+00
         21   -1    0    0  501  502  0.00000000000E+00  0.00000000000E+00  0.25163476678E+03  0.25163476678E+03  0.00000000000E+00 0.  1.
         21   -1    0    0  502  503 -0.00000000000E+00 -0.00000000000E+00 -0.58816154524E+03  0.58816154524E+03  0.00000000000E+00 0.  1.
         25    1    1    2    0    0 -0.19398247419E+03 -0.16598785724E+03 -0.39281870624E+03  0.48488421816E+03  0.12500000000E+03 0.  0.
          3    1    1    2  501    0  0.20865835549E+03  0.77094470926E+02  0.11193218786E+03  0.24901943989E+03  0.00000000000E+00 0.  1.
         -3    1    1    2    0  503 -0.14675881299E+02  0.88893386318E+02 -0.55640260076E+02  0.10589265397E+03  0.00000000000E+00 0. -1.
<mgrwt>
<rscale>  4 0.25744754E+03</rscale>
<asrwt>0</asrwt>
<pdfrwt beam="1">  1       21 0.38713042E-01 0.25744754E+03</pdfrwt>
<pdfrwt beam="2">  1       21 0.90486390E-01 0.25744754E+03</pdfrwt>
<totfact> 0.63918370E+03</totfact>
</mgrwt>
</event>
<event>
 5    0  0.1972558E-002  0.3189253E+03  0.7546771E-02  0.1076145E+00
         21   -1    0    0  501  502  0.00000000000E+00  0.00000000000E+00  0.47396252687E+03  0.47396252687E+03  0.00000000000E+00 0. -1.
         21   -1    0    0  502  503 -0.00000000000E+00 -0.00000000000E+00 -0.57527999394E+03  0.57527999394E+03  0.00000000000E+00 0.  1.
         25    1    1    2    0    0 -0.13102273896E+03 -0.26829919210E+03 -0.42824258641E+03  0.53681293522E+03  0.12500000000E+03 0.  0.
          4    1    1    2  501    0  0.28939807448E+02  0.13592890494E+02  0.21288746473E+03  0.21527506072E+03  0.00000000000E+00 0. -1.
         -4    1    1    2    0  503  0.10208293151E+03  0.25470630160E+03  0.11403765460E+03  0.29715452487E+03  0.00000000000E+00 0.  1.
<mgrwt>
<rscale>  4 0.31892530E+03</rscale>
<asrwt>0</asrwt>
<pdfrwt beam="1">  1       21 0.72917312E-01 0.31892530E+03</pdfrwt>
<pdfrwt beam="2">  1       21 0.88504614E-01 0.31892530E+03</pdfrwt>
<totfact> 0.16875002E+03</totfact>
</mgrwt>
</event>
<event>
 5    0  0.1972558E-002  0.2515371E+03  0.7546771E-02  0.1112337E+00
         21   -1    0    0  501  502  0.00000000000E+00  0.00000000000E+00  0.12429076671E+03  0.12429076671E+03  0.00000000000E+00 0.  1.
         21   -1    0    0  502  503 -0.00000000000E+00 -0.00000000000E+00 -0.94017426927E+03  0.94017426927E+03  0.00000000000E+00 0.  1.
         25    1    1    2    0    0 -0.67866050083E+01  0.22901228261E+03 -0.75744153539E+03  0.80114628073E+03  0.12500000000E+03 0.  0.
          2    1    1    2  501    0 -0.33516972802E+02 -0.17599911490E+03 -0.72261132017E+01  0.17930781528E+03  0.00000000000E+00 0.  1.
         -2    1    1    2    0  503  0.40303577810E+02 -0.53013167717E+02 -0.51215853974E+02  0.84010939966E+02  0.00000000000E+00 0. -1.
<mgrwt>
<rscale>  4 0.25153715E+03</rscale>
<asrwt>0</asrwt>
<pdfrwt beam="1">  1       21 0.19121657E-01 0.25153715E+03</pdfrwt>
<pdfrwt beam="2">  1       21 0.14464219E+00 0.25153715E+03</pdfrwt>
<totfact> 0.79189943E+03</totfact>
</mgrwt>
</event>
<event>
 5    0  0.1972558E-002  0.2245405E+03  0.7546771E-02  0.1130542E+00
         21   -1    0    0  501  502  0.00000000000E+00  0.00000000000E+00  0.55412109099E+02  0.55412109099E+02  0.00000000000E+00 0. -1.
         21   -1    0    0  502  503 -0.00000000000E+00 -0.00000000000E+00 -0.11150844810E+04  0.11150844810E+04  0.00000000000E+00 0. -1.
         25    1    1    2    0    0 -0.50600286390E+02  0.19460721837E+03 -0.78661735459E+03  0.82147685358E+03  0.12500000000E+03 0.  0.
          3    1    1    2  501    0  0.50008773848E+02 -0.15888284763E+03 -0.26401011501E+03  0.31216338280E+03  0.00000000000E+00 0. -1.
         -3    1    1    2    0  503  0.59151254207E+00 -0.35724370738E+02 -0.90449022960E+01  0.36856353716E+02  0.00000000000E+00 0.  1.
<mgrwt>
<rscale>  4 0.22454053E+03</rscale>
<asrwt>0</asrwt>
<pdfrwt beam="1">  1       21 0.85249397E-02 0.22454053E+03</pdfrwt>
<pdfrwt beam="2">  1       21 0.17155146E+00 0.22454053E+03</pdfrwt>
<totfact> 0.21881163E+04</totfact>
</mgrwt>
</event>
<event>
 5    0  0.1972558E-002  0.3620149E+03  0.7546771E-02  0.1057789E+00
         21   -1    0    0  501  502  0.00000000000E+00  0.00000000000E+00  0.12183010214E+04  0.12183010214E+04  0.00000000000E+00 0. -1.
         21   -1    0    0  502  503 -0.00000000000E+00 -0.00000000000E+00 -0.53425540970E+03  0.53425540970E+03  0.00000000000E+00 0.  1.
         25    1    1    2    0    0 -0.32587596008E+03  0.10021015529E+03 -0.43211544987E+03  0.56443421104E+03  0.12500000000E+03 0.  0.
          3    1    1    2  501    0  0.97839731774E+01 -0.17848898200E+02  0.40523046240E+03  0.40574134243E+03  0.00000000000E+00 0.  1.
         -3    1    1    2    0  503  0.31609198690E+03 -0.82361257093E+02  0.71093059916E+03  0.78238087762E+03  0.00000000000E+00 0. -1.
<mgrwt>
<rscale>  4 0.36201485E+03</rscale>
<asrwt>0</asrwt>
<pdfrwt beam="1">  1       21 0.18743093E+00 0.36201485E+03</pdfrwt>
<pdfrwt beam="2">  1       21 0.82193141E-01 0.36201485E+03</pdfrwt>
<totfact> 0.17877802E+02</totfact>
</mgrwt>
</event>
<event>
 5    0  0.1972558E-002  0.2440380E+03  0.7546771E-02  0.1117132E+00
         21   -1    0    0  501  502  0.00000000000E+00  0.00000000000E+00  0.20912746409E+03  0.20912746409E+03  0.00000000000E+00 0.  1.
         21   -1    0    0  502  503 -0.00000000000E+00 -0.00000000000E+00 -0.82097557740E+03  0.82097557740E+03  0.00000000000E+00 0.  1.
         25    1    1    2    0    0 -0.18615086077E+03 -0.99660276392E+02 -0.71492573733E+03  0.75586250308E+03  0.12500000000E+03 0.  0.
          2    1    1    2  501    0  0.19090726534E+03  0.66486314248E+02  0.44867915485E+02  0.20707279826E+03  0.00000000000E+00 0. -1.
         -2    1    1    2    0  503 -0.47564045624E+01  0.33173962144E+02  0.58209708534E+02  0.67167740146E+02  0.00000000000E+00 0.  1.
<mgrwt>
<rscale>  4 0.24403800E+03</rscale>
<asrwt>0</asrwt>
<pdfrwt beam="1">  1       21 0.32173456E-01 0.24403800E+03</pdfrwt>
<pdfrwt beam="2">  1       21 0.12630393E+00 0.24403800E+03</pdfrwt>
<totfact> 0.41531732E+03</totfact>
</mgrwt>
</event>
<event>
 5    0  0.1972558E-002  0.2864610E+03  0.7546771E-02  0.1092211E+00
         21   -1    0    0  503  502  0.00000000000E+00  0.00000000000E+00  0.11331009221E+04  0.11331009221E+04  0.00000000000E+00 0.  1.
         21   -1    0    0  501  503 -0.00000000000E+00 -0.00000000000E+00 -0.20608481546E+03  0.20608481546E+03  0.00000000000E+00 0.  1.
         25    1    1    2    0    0  0.30401869465E+03  0.59897431038E+02  0.21548890798E+03  0.39758714567E+03  0.12500000000E+03 0.  0.
          3    1    1    2  501    0 -0.14753628956E+03  0.14188044826E+03  0.64646375603E+03  0.67809468822E+03  0.00000000000E+00 0.  1.
         -3    1    1    2    0  502 -0.15648240509E+03 -0.20177787930E+03  0.65063442621E+02  0.26350390366E+03  0.00000000000E+00 0. -1.
<mgrwt>
<rscale>  4 0.28646101E+03</rscale>
<asrwt>0</asrwt>
<pdfrwt beam="1">  1       21 0.17432321E+00 0.28646101E+03</pdfrwt>
<pdfrwt beam="2">  1       21 0.31705357E-01 0.28646101E+03</pdfrwt>
<totfact> 0.17605914E+03</totfact>
</mgrwt>
</event>
<event>
 5    0  0.1972558E-002  0.3738132E+03  0.7546771E-02  0.1053244E+00
         21   -1    0    0  501  502  0.00000000000E+00  0.00000000000E+00  0.27926486409E+03  0.27926486409E+03  0.00000000000E+00 0. -1.
         21   -1    0    0  502  503 -0.00000000000E+00 -0.00000000000E+00 -0.61371871335E+03  0.61371871335E+03  0.00000000000E+00 0. -1.
         25    1    1    2    0    0  0.30509499271E+03  0.17614858551E+03 -0.37969770263E+03  0.53282888823E+03  0.12500000000E+03 0.  0.
          3    1    1    2  501    0 -0.31902627120E+02  0.34299306279E+00  0.70716460093E+01  0.32678791879E+02  0.00000000000E+00 0.  1.
         -3    1    1    2    0  503 -0.27319236558E+03 -0.17649157857E+03  0.38172207357E+02  0.32747589733E+03  0.00000000000E+00 0. -1.
<mgrwt>
<rscale>  4 0.37381316E+03</rscale>
<asrwt>0</asrwt>
<pdfrwt beam="1">  1       21 0.42963825E-01 0.37381316E+03</pdfrwt>
<pdfrwt beam="2">  1       21 0.94418263E-01 0.37381316E+03</pdfrwt>
<totfact> 0.44130377E+03</totfact>
</mgrwt>
</event>
<event>
 5    0  0.1972558E-002  0.2075128E+03  0.7546771E-02  0.1143551E+00
         21   -1    0    0  501  502  0.00000000000E+00  0.00000000000E+00  0.52819456064E+02  0.52819456064E+02  0.00000000000E+00 0.  1.
         21   -1    0    0  502  503 -0.00000000000E+00 -0.00000000000E+00 -0.20605778425E+04  0.20605778425E+04  0.00000000000E+00 0.  1.
         25    1    1    2    0    0  0.13687019805E+03 -0.19794364748E+03 -0.42842356916E+03  0.50703736874E+03  0.12500000000E+03 0.  0.
          4    1    1    2  501    0 -0.83000243437E+02  0.13354480331E+03 -0.13946595164E+04  0.14034950736E+04  0.00000000000E+00 0.  1.
         -4    1    1    2    0  503 -0.53869954614E+02  0.64398844167E+02 -0.18467530091E+03  0.20286485626E+03  0.00000000000E+00 0. -1.
<mgrwt>
<rscale>  4 0.20751283E+03</rscale>
<asrwt>0</asrwt>
<pdfrwt beam="1">  1       21 0.81260698E-02 0.20751283E+03</pdfrwt>
<pdfrwt beam="2">  1       21 0.31701199E+00 0.20751283E+03</pdfrwt>
<totfact> 0.31236854E+03</totfact>
</mgrwt>
</event>
<event>
 5    0  0.1972558E-002  0.2238267E+03  0.7546771E-02  0.1131062E+00
         21   -1    0    0  501  502  0.00000000000E+00  0.00000000000E+00  0.90705926769E+03  0.90705926769E+03  0.00000000000E+00 0. -1.
         21   -1    0    0  502  503 -0.00000000000E+00 -0.00000000000E+00 -0.81131274602E+02  0.81131274602E+02  0.00000000000E+00 0. -1.
         25    1    1    2    0    0  0.22320399701E+03 -0.10740396875E+02  0.55105805531E+03  0.60763916984E+03  0.12500000000E+03 0.  0.
          1    1    1    2  501    0 -0.17444609405E+03  0.19732742311E+02  0.10719050462E+03  0.20569546696E+03  0.00000000000E+00 0. -1.
         -1    1    1    2    0  503 -0.48757902962E+02 -0.89923454362E+01  0.16767943316E+03  0.17485590549E+03  0.00000000000E+00 0.  1.
<mgrwt>
<rscale>  4 0.22382672E+03</rscale>
<asrwt>0</asrwt>
<pdfrwt beam="1">  1       21 0.13954757E+00 0.22382672E+03</pdfrwt>
<pdfrwt beam="2">  1       21 0.12481735E-01 0.22382672E+03</pdfrwt>
<totfact> 0.19343903E+04</totfact>
</mgrwt>
</event>
<event>
 5    0  0.1972558E-002  0.2439137E+03  0.7546771E-02  0.1117213E+00
         21   -1    0    0  501  502  0.00000000000E+00  0.00000000000E+00  0.87440347775E+02  0.87440347775E+02  0.00000000000E+00 0.  1.
         21   -1    0    0  502  503 -0.00000000000E+00 -0.00000000000E+00 -0.10079952125E+04  0.10079952125E+04  0.00000000000E+00 0.  1.
         25    1    1    2    0    0  0.79284945908E+02 -0.19503675644E+03 -0.67670411799E+03  0.71963803562E+03  0.12500000000E+03 0.  0.
          2    1    1    2  501    0  0.53707734564E+02  0.28497922804E+02 -0.14094282298E+02  0.62412347734E+02  0.00000000000E+00 0.  1.
         -2    1    1    2    0  503 -0.13299268047E+03  0.16653883364E+03 -0.22975646448E+03  0.31338517696E+03  0.00000000000E+00 0. -1.
<mgrwt>
<rscale>  4 0.24391369E+03</rscale>
<asrwt>0</asrwt>
<pdfrwt beam="1">  1       21 0.13452361E-01 0.24391369E+03</pdfrwt>
<pdfrwt beam="2">  1       21 0.15507619E+00 0.24391369E+03</pdfrwt>
<totfact> 0.12636673E+04</totfact>
</mgrwt>
</event>
<event>
 5    0  0.1972558E-002  0.2892670E+03  0.7546771E-02  0.1090732E+00
         21   -1    0    0  501  502  0.00000000000E+00  0.00000000000E+00  0.68386475885E+03  0.68386475885E+03  0.00000000000E+00 0.  1.
         21   -1    0    0  502  503 -0.00000000000E+00 -0.00000000000E+00 -0.14314321464E+03  0.14314321464E+03  0.00000000000E+00 0. -1.
         25    1    1    2    0    0 -0.47274997501E+02  0.26110966390E+03  0.39149947056E+03  0.48919323117E+03  0.12500000000E+03 0.  0.
          4    1    1    2  501    0  0.80652922961E+02 -0.24681350047E+03  0.10373406652E+03  0.27961143495E+03  0.00000000000E+00 0.  1.
         -4    1    1    2    0  503 -0.33377925460E+02 -0.14296163426E+02  0.45488007132E+02  0.58203307376E+02  0.00000000000E+00 0. -1.
<mgrwt>
<rscale>  4 0.28926702E+03</rscale>
<asrwt>0</asrwt>
<pdfrwt beam="1">  1       21 0.10520996E+00 0.28926702E+03</pdfrwt>
<pdfrwt beam="2">  1       21 0.22022033E-01 0.28926702E+03</pdfrwt>
<totfact> 0.13266163E+04</totfact>
</mgrwt>
</event>
<event>
 5    0  0.1972558E-002  0.2411228E+03  0.7546771E-02  0.1119047E+00
         21   -1    0    0  501  502  0.00000000000E+00  0.00000000000E+00  0.53313113554E+03  0.53313113554E+03  0.00000000000E+00 0. -1.
         21   -1    0    0  502  503 -0.00000000000E+00 -0.00000000000E+00 -0.21536638930E+03  0.21536638930E+03  0.00000000000E+00 0. -1.
         25    1    1    2    0    0  0.10955930746E+02  0.21987562796E+03 -0.59525240741E+02  0.26006456597E+03  0.12500000000E+03 0.  0.
          1    1    1    2  501    0 -0.23800363932E+02 -0.18313498698E+03  0.10312181838E+03  0.21151593369E+03  0.00000000000E+00 0.  1.
         -1    1    1    2    0  503  0.12844433185E+02 -0.36740640979E+02  0.27416816860E+03  0.27691702518E+03  0.00000000000E+00 0. -1.
<mgrwt>
<rscale>  4 0.24112279E+03</rscale>
<asrwt>0</asrwt>
<pdfrwt beam="1">  1       21 0.82020174E-01 0.24112279E+03</pdfrwt>
<pdfrwt beam="2">  1       21 0.33133291E-01 0.24112279E+03</pdfrwt>
<totfact> 0.11057120E+04</totfact>
</mgrwt>
</event>
<event>
 5    0  0.1972558E-002  0.2718421E+03  0.7546771E-02  0.1100230E+00
         21   -1    0    0  501  502  0.00000000000E+00  0.00000000000E+00  0.33259233986E+03  0.33259233986E+03  0.00000000000E+00 0.  1.
         21   -1    0    0  502  503 -0.00000000000E+00 -0.00000000000E+00 -0.54225949061E+03  0.54225949061E+03  0.00000000000E+00 0. -1.
         25    1    1    2    0    0 -0.22261551094E+03 -0.10690465431E+03 -0.40527532042E+03  0.49077424155E+03  0.12500000000E+03 0.  0.
          2    1    1    2  501    0  0.38981405655E+02 -0.24459938007E+02  0.14576635160E+03  0.15285832595E+03  0.00000000000E+00 0. -1.
         -2    1    1    2    0  503  0.18363410529E+03  0.13136459232E+03  0.49841818070E+02  0.23121926297E+03  0.00000000000E+00 0.  1.
<mgrwt>
<rscale>  4 0.27184214E+03</rscale>
<asrwt>0</asrwt>
<pdfrwt beam="1">  1       21 0.51168052E-01 0.27184214E+03</pdfrwt>
<pdfrwt beam="2">  1       21 0.83424537E-01 0.27184214E+03</pdfrwt>
<totfact> 0.42994615E+03</totfact>
</mgrwt>
</event>
<event>
 5    0  0.1972558E-002  0.3052920E+03  0.7546771E-02  0.1082625E+00
         21   -1    0    0  501  502  0.00000000000E+00  0.00000000000E+00  0.23027942850E+04  0.23027942850E+04  0.00000000000E+00 0.  1.
         21   -1    0    0  502  503 -0.00000000000E+00 -0.00000000000E+00 -0.10053114027E+03  0.10053114027E+03  0.00000000000E+00 0.  1.
         25    1    1    2    0    0 -0.21909847303E+03  0.18503487675E+03  0.19644974071E+03  0.36940431389E+03  0.12500000000E+03 0.  0.
          4    1    1    2  501    0  0.22528296136E+03 -0.16235319726E+03  0.19784614059E+04  0.19978539756E+04  0.00000000000E+00 0.  1.
         -4    1    1    2    0  503 -0.61844883249E+01 -0.22681679489E+02  0.27351998151E+02  0.36067135777E+02  0.00000000000E+00 0. -1.
<mgrwt>
<rscale>  4 0.30529197E+03</rscale>
<asrwt>0</asrwt>
<pdfrwt beam="1">  1       21 0.35427600E+00 0.30529197E+03</pdfrwt>
<pdfrwt beam="2">  1       21 0.15466331E-01 0.30529197E+03</pdfrwt>
<totfact> 0.53469787E+02</totfact>
</mgrwt>
</event>
<event>
 5    0  0.1972558E-002  0.3376628E+03  0.7546771E-02  0.1067796E+00
         21   -1    0    0  501  502  0.00000000000E+00  0.00000000000E+00  0.59208798277E+03  0.59208798277E+03  0.00000000000E+00 0. -1.
         21   -1    0    0  502  503 -0.00000000000E+00 -0.00000000000E+00 -0.24206599883E+03  0.24206599883E+03  0.00000000000E+00 0. -1.
         25    1    1    2    0    0  0.33427243608E+03 -0.20285529766E+02  0.75821397858E+02  0.36540860501E+03  0.12500000000E+03 0.  0.
          2    1    1    2  501    0 -0.42553636279E+02  0.94031120307E+01  0.14153450624E+03  0.14809202184E+03  0.00000000000E+00 0.  1.
         -2    1    1    2    0  503 -0.29171879980E+03  0.10882417735E+02  0.13266607984E+03  0.32065335475E+03  0.00000000000E+00 0. -1.
<mgrwt>
<rscale>  4 0.33766283E+03</rscale>
<asrwt>0</asrwt>
<pdfrwt beam="1">  1       21 0.91090458E-01 0.33766283E+03</pdfrwt>
<pdfrwt beam="2">  1       21 0.37240923E-01 0.33766283E+03</pdfrwt>
<totfact> 0.65389513E+03</totfact>
</mgrwt>
</event>
<event>
 5    0  0.1972558E-002  0.2616407E+03  0.7546771E-02  0.1106161E+00
         21   -1    0    0  501  502  0.00000000000E+00  0.00000000000E+00  0.37105328917E+02  0.37105328917E+02  0.00000000000E+00 0. -1.
         21   -1    0    0  502  503 -0.00000000000E+00 -0.00000000000E+00 -0.24969679557E+04  0.24969679557E+04  0.00000000000E+00 0.  1.
         25    1    1    2    0    0 -0.74219148265E+02  0.23571815248E+03 -0.18085118942E+04  0.18295933431E+04  0.12500000000E+03 0.  0.
          2    1    1    2  501    0 -0.12770210414E+02 -0.52269755558E+02 -0.67413880887E+02  0.86254489486E+02  0.00000000000E+00 0.  1.
         -2    1    1    2    0  503  0.86989358679E+02 -0.18344839693E+03 -0.58393685161E+03  0.61822545202E+03  0.00000000000E+00 0. -1.
<mgrwt>
<rscale>  4 0.26164072E+03</rscale>
<asrwt>0</asrwt>
<pdfrwt beam="1">  1       21 0.57085104E-02 0.26164072E+03</pdfrwt>
<pdfrwt beam="2">  1       21 0.38414904E+00 0.26164072E+03</pdfrwt>
<totfact> 0.21532612E+03</totfact>
</mgrwt>
</event>
<event>
 5    0  0.1972558E-002  0.2675287E+03  0.7546771E-02  0.1102702E+00
         21   -1    0    0  501  502  0.00000000000E+00  0.00000000000E+00  0.81288961000E+02  0.81288961000E+02  0.00000000000E+00 0.  1.
         21   -1    0    0  502  503 -0.00000000000E+00 -0.00000000000E+00 -0.13459821143E+04  0.13459821143E+04  0.00000000000E+00 0.  1.
         25    1    1    2    0    0  0.12838143260E+03  0.22732449092E+03 -0.45131228372E+03  0.53615855290E+03  0.12500000000E+03 0.  0.
          2    1    1    2  501    0 -0.92190728462E+02 -0.20836853914E+03 -0.81878935700E+03  0.84990151763E+03  0.00000000000E+00 0.  1.
         -2    1    1    2    0  503 -0.36190704138E+02 -0.18955951784E+02  0.54084874720E+01  0.41211004729E+02  0.00000000000E+00 0. -1.
<mgrwt>
<rscale>  4 0.26752871E+03</rscale>
<asrwt>0</asrwt>
<pdfrwt beam="1">  1       21 0.12505995E-01 0.26752871E+03</pdfrwt>
<pdfrwt beam="2">  1       21 0.20707415E+00 0.26752871E+03</pdfrwt>
<totfact> 0.62192562E+03</totfact>
</mgrwt>
</event>
<event>
 5    0  0.1972558E-002  0.5371899E+03  0.7546771E-02  0.1004503E+00
         21   -1    0    0  501  502  0.00000000000E+00  0.00000000000E+00  0.19094343438E+04  0.19094343438E+04  0.00000000000E+00 0. -1.
         21   -1    0    0  502  503 -0.00000000000E+00 -0.00000000000E+00 -0.36002386702E+03  0.36002386702E+03  0.00000000000E+00 0. -1.
         25    1    1    2    0    0  0.39940660436E+03 -0.34733835281E+03  0.92259205751E+01  0.54394823701E+03  0.12500000000E+03 0.  0.
          4    1    1    2  501    0 -0.21171124205E+03  0.49211842739E+03  0.11556004021E+04  0.12737403526E+04  0.00000000000E+00 0. -1.
         -4    1    1    2    0  503 -0.18769536231E+03 -0.14478007458E+03  0.38458415416E+03  0.45176962122E+03  0.00000000000E+00 0.  1.
<mgrwt>
<rscale>  4 0.53718986E+03</rscale>
<asrwt>0</asrwt>
<pdfrwt beam="1">  1       21 0.29375912E+00 0.53718986E+03</pdfrwt>
<pdfrwt beam="2">  1       21 0.55388288E-01 0.53718986E+03</pdfrwt>
<totfact> 0.83625888E+01</totfact>
</mgrwt>
</event>
<event>
 5    0  0.1972558E-002  0.3058573E+03  0.7546771E-02  0.1082349E+00
         21   -1    0    0  503  502  0.00000000000E+00  0.00000000000E+00  0.26350767473E+03  0.26350767473E+03  0.00000000000E+00 0. -1.
         21   -1    0    0  501  503 -0.00000000000E+00 -0.00000000000E+00 -0.73839967962E+03  0.73839967962E+03  0.00000000000E+00 0.  1.
         25    1    1    2    0    0 -0.10136442654E+03 -0.26009414820E+03 -0.61419466750E+03  0.68613686862E+03  0.12500000000E+03 0.  0.
          1    1    1    2  501    0  0.34018310191E+02  0.37471466741E+02  0.20561703739E+02  0.54627281725E+02  0.00000000000E+00 0.  1.
         -1    1    1    2    0  502  0.67346116348E+02  0.22262268146E+03  0.11874095887E+03  0.26114320401E+03  0.00000000000E+00 0. -1.
<mgrwt>
<rscale>  4 0.30585734E+03</rscale>
<asrwt>0</asrwt>
<pdfrwt beam="1">  1       21 0.40539643E-01 0.30585734E+03</pdfrwt>
<pdfrwt beam="2">  1       21 0.11359995E+00 0.30585734E+03</pdfrwt>
<totfact> 0.32768921E+03</totfact>
</mgrwt>
</event>
<event>
 5    0  0.1972558E-002  0.2469108E+03  0.7546771E-02  0.1115273E+00
         21   -1    0    0  501  502  0.00000000000E+00  0.00000000000E+00  0.16610634114E+04  0.16610634114E+04  0.00000000000E+00 0. -1.
         21   -1    0    0  502  503 -0.00000000000E+00 -0.00000000000E+00 -0.43256805138E+02  0.43256805138E+02  0.00000000000E+00 0. -1.
         25    1    1    2    0    0 -0.20203990616E+03  0.73225786140E+02  0.53869897405E+03  0.59329901743E+03  0.12500000000E+03 0.  0.
          1    1    1    2  501    0 -0.29421214397E+01 -0.22701616595E+02  0.38106154740E+03  0.38174850672E+03  0.00000000000E+00 0.  1.
         -1    1    1    2    0  503  0.20498202760E+03 -0.50524169545E+02  0.69804608481E+03  0.72927269239E+03  0.00000000000E+00 0. -1.
<mgrwt>
<rscale>  4 0.24691084E+03</rscale>
<asrwt>0</asrwt>
<pdfrwt beam="1">  1       21 0.25554817E+00 0.24691084E+03</pdfrwt>
<pdfrwt beam="2">  1       21 0.66548944E-02 0.24691084E+03</pdfrwt>
<totfact> 0.97119378E+03</totfact>
</mgrwt>
</event>
<event>
 5    0  0.1972558E-002  0.2553562E+03  0.7546771E-02  0.1109966E+00
         21   -1    0    0  501  502  0.00000000000E+00  0.00000000000E+00  0.38824993007E+03  0.38824993007E+03  0.00000000000E+00 0.  1.
         21   -1    0    0  502  503 -0.00000000000E+00 -0.00000000000E+00 -0.30800132101E+03  0.30800132101E+03  0.00000000000E+00 0. -1.
         25    1    1    2    0    0  0.10771005740E+02 -0.26674107824E+03 -0.62968297847E+02  0.30142465712E+03  0.12500000000E+03 0.  0.
          2    1    1    2  501    0  0.13395470879E+02  0.19321634734E+03 -0.38361042271E+02  0.19744256148E+03  0.00000000000E+00 0. -1.
         -2    1    1    2    0  503 -0.24166476619E+02  0.73524730903E+02  0.18157794918E+03  0.19738403247E+03  0.00000000000E+00 0.  1.
<mgrwt>
<rscale>  4 0.25535619E+03</rscale>
<asrwt>0</asrwt>
<pdfrwt beam="1">  1       21 0.59730758E-01 0.25535619E+03</pdfrwt>
<pdfrwt beam="2">  1       21 0.47384819E-01 0.25535619E+03</pdfrwt>
<totfact> 0.10729352E+04</totfact>
</mgrwt>
</event>
<event>
 5    0  0.1972558E-002  0.2412721E+03  0.7546771E-02  0.1118948E+00
         21   -1    0    0  503  502  0.00000000000E+00  0.00000000000E+00  0.10157708893E+04  0.10157708893E+04  0.00000000000E+00 0.  1.
         21   -1    0    0  501  503 -0.00000000000E+00 -0.00000000000E+00 -0.10637206922E+04  0.10637206922E+04  0.00000000000E+00 0. -1.
         25    1    1    2    0    0  0.35494879571E+02 -0.20250750274E+03 -0.10246987679E+04  0.10525691142E+04  0.12500000000E+03 0.  0.
          3    1    1    2  501    0 -0.38424662162E+02 -0.49086276666E+02  0.25733996294E+03  0.26478250272E+03  0.00000000000E+00 0. -1.
         -3    1    1    2    0  502  0.29297825910E+01  0.25159377941E+03  0.71940900201E+03  0.76213996460E+03  0.00000000000E+00 0.  1.
<mgrwt>
<rscale>  4 0.24127208E+03</rscale>
<asrwt>0</asrwt>
<pdfrwt beam="1">  1       21 0.15627244E+00 0.24127208E+03</pdfrwt>
<pdfrwt beam="2">  1       21 0.16364934E+00 0.24127208E+03</pdfrwt>
<totfact> 0.59449839E+01</totfact>
</mgrwt>
</event>
<event>
 5    0  0.1972558E-002  0.2575225E+03  0.7546771E-02  0.1108641E+00
         21   -1    0    0  501  502  0.00000000000E+00  0.00000000000E+00  0.24388765389E+03  0.24388765389E+03  0.00000000000E+00 0. -1.
         21   -1    0    0  502  503 -0.00000000000E+00 -0.00000000000E+00 -0.82718336039E+03  0.82718336039E+03  0.00000000000E+00 0.  1.
         25    1    1    2    0    0 -0.22336262105E+03 -0.55807519994E+02 -0.63711568330E+03  0.68887352517E+03  0.12500000000E+03 0.  0.
          3    1    1    2  501    0  0.20330237826E+03  0.59434742324E+02 -0.94890693854E+02  0.23209607791E+03  0.00000000000E+00 0. -1.
         -3    1    1    2    0  503  0.20060242794E+02 -0.36272223298E+01  0.14871067065E+03  0.15010141121E+03  0.00000000000E+00 0.  1.
<mgrwt>
<rscale>  4 0.25752250E+03</rscale>
<asrwt>0</asrwt>
<pdfrwt beam="1">  1       21 0.37521177E-01 0.25752250E+03</pdfrwt>
<pdfrwt beam="2">  1       21 0.12725898E+00 0.25752250E+03</pdfrwt>
<totfact> 0.29708053E+03</totfact>
</mgrwt>
</event>
<event>
 5    0  0.1972558E-002  0.2253835E+03  0.7546771E-02  0.1129932E+00
         21   -1    0    0  501  502  0.00000000000E+00  0.00000000000E+00  0.20066201209E+03  0.20066201209E+03  0.00000000000E+00 0.  1.
         21   -1    0    0  502  503 -0.00000000000E+00 -0.00000000000E+00 -0.29995937618E+03  0.29995937618E+03  0.00000000000E+00 0. -1.
         25    1    1    2    0    0 -0.18872762419E+03  0.68606075358E+02 -0.13672064310E+03  0.27320769381E+03  0.12500000000E+03 0.  0.
          1    1    1    2  501    0  0.15666523539E+03 -0.70635443648E+02 -0.76964868886E+01  0.17202499175E+03  0.00000000000E+00 0.  1.
         -1    1    1    2    0  503  0.32062388810E+02  0.20293682907E+01  0.45119765899E+02  0.55388702698E+02  0.00000000000E+00 0. -1.
<mgrwt>
<rscale>  4 0.22538348E+03</rscale>
<asrwt>0</asrwt>
<pdfrwt beam="1">  1       21 0.30871079E-01 0.22538348E+03</pdfrwt>
<pdfrwt beam="2">  1       21 0.46147596E-01 0.22538348E+03</pdfrwt>
<totfact> 0.44631815E+04</totfact>
</mgrwt>
</event>
<event>
 5    0  0.1972558E-002  0.3474010E+03  0.7546771E-02  0.1063687E+00
         21   -1    0    0  501  502  0.00000000000E+00  0.00000000000E+00  0.94653200376E+03  0.94653200376E+03  0.00000000000E+00 0.  1.
         21   -1    0    0  502  503 -0.00000000000E+00 -0.00000000000E+00 -0.13951399128E+03  0.13951399128E+03  0.00000000000E+00 0.  1.
         25    1    1    2    0    0 -0.26376744799E+03  0.20970875531E+03  0.43763661437E+03  0.56630542546E+03  0.12500000000E+03 0.  0.
          2    1    1    2  501    0  0.24702362032E+03 -0.19633417976E+03  0.26169187077E+03  0.40993952525E+03  0.00000000000E+00 0.  1.
         -2    1    1    2    0  503  0.16743827676E+02 -0.13374575544E+02  0.10768952734E+03  0.10980104432E+03  0.00000000000E+00 0. -1.
<mgrwt>
<rscale>  4 0.34740105E+03</rscale>
<asrwt>0</asrwt>
<pdfrwt beam="1">  1       21 0.14562030E+00 0.34740105E+03</pdfrwt>
<pdfrwt beam="2">  1       21 0.21463692E-01 0.34740105E+03</pdfrwt>
<totfact> 0.59461215E+03</totfact>
</mgrwt>
</event>
<event>
 5    0  0.1972558E-002  0.3904620E+03  0.7546771E-02  0.1047133E+00
         21   -1    0    0  501  502  0.00000000000E+00  0.00000000000E+00  0.10060237898E+04  0.10060237898E+04  0.00000000000E+00 0. -1.
         21   -1    0    0  502  503 -0.00000000000E+00 -0.00000000000E+00 -0.42792752485E+03  0.42792752485E+03  0.00000000000E+00 0.  1.
         25    1    1    2    0    0 -0.24734944739E+03 -0.27505245750E+03 -0.29181778757E+03  0.48746099807E+03  0.12500000000E+03 0.  0.
          4    1    1    2  501    0  0.23646837521E+03  0.24983670743E+03  0.82498912862E+03  0.89383596660E+03  0.00000000000E+00 0. -1.
         -4    1    1    2    0  503  0.10881072176E+02  0.25215750071E+02  0.44924923853E+02  0.52654349930E+02  0.00000000000E+00 0.  1.
<mgrwt>
<rscale>  4 0.39046204E+03</rscale>
<asrwt>0</asrwt>
<pdfrwt beam="1">  1       21 0.15477289E+00 0.39046204E+03</pdfrwt>
<pdfrwt beam="2">  1       21 0.65835004E-01 0.39046204E+03</pdfrwt>
<totfact> 0.49983428E+02</totfact>
</mgrwt>
</event>
<event>
 5    0  0.1972558E-002  0.3699053E+03  0.7546771E-02  0.1054729E+00
         21   -1    0    0  501  502  0.00000000000E+00  0.00000000000E+00  0.30280191450E+03  0.30280191450E+03  0.00000000000E+00 0.  1.
         21   -1    0    0  502  503 -0.00000000000E+00 -0.00000000000E+00 -0.44947128354E+03  0.44947128354E+03  0.00000000000E+00 0. -1.
         25    1    1    2    0    0  0.23068898446E+03 -0.26074419053E+03 -0.56707257083E+02  0.37422674070E+03  0.12500000000E+03 0.  0.
          4    1    1    2  501    0 -0.16414735900E+03  0.24495862545E+03 -0.94130047079E+02  0.30953117680E+03  0.00000000000E+00 0.  1.
         -4    1    1    2    0  503 -0.66541625457E+02  0.15785565088E+02  0.41679351281E+01  0.68515280535E+02  0.00000000000E+00 0. -1.
<mgrwt>
<rscale>  4 0.36990531E+03</rscale>
<asrwt>0</asrwt>
<pdfrwt beam="1">  1       21 0.46584910E-01 0.36990531E+03</pdfrwt>
<pdfrwt beam="2">  1       21 0.69149428E-01 0.36990531E+03</pdfrwt>
<totfact> 0.76574133E+03</totfact>
</mgrwt>
</event>
<event>
 5    0  0.1972558E-002  0.2379202E+03  0.7546771E-02  0.1121186E+00
         21   -1    0    0  501  502  0.00000000000E+00  0.00000000000E+00  0.31439247315E+03  0.31439247315E+03  0.00000000000E+00 0. -1.
         21   -1    0    0  502  503 -0.00000000000E+00 -0.00000000000E+00 -0.30071496196E+03  0.30071496196E+03  0.00000000000E+00 0. -1.
         25    1    1    2    0    0 -0.20760510040E+03 -0.29425576009E+02 -0.16094471940E+03  0.29239347623E+03  0.12500000000E+03 0.  0.
          4    1    1    2  501    0  0.18585619864E+03  0.34766062152E+02  0.49293036293E+02  0.19539961381E+03  0.00000000000E+00 0. -1.
         -4    1    1    2    0  503  0.21748901763E+02 -0.53404861426E+01  0.12532919429E+03  0.12731434508E+03  0.00000000000E+00 0.  1.
<mgrwt>
<rscale>  4 0.23792020E+03</rscale>
<asrwt>0</asrwt>
<pdfrwt beam="1">  1       21 0.48368073E-01 0.23792020E+03</pdfrwt>
<pdfrwt beam="2">  1       21 0.46263840E-01 0.23792020E+03</pdfrwt>
<totfact> 0.17806661E+04</totfact>
</mgrwt>
</event>
<event>
 5    0  0.1972558E-002  0.2577963E+03  0.7546771E-02  0.1108475E+00
         21   -1    0    0  501  502  0.00000000000E+00  0.00000000000E+00  0.65509598581E+03  0.65509598581E+03  0.00000000000E+00 0.  1.
         21   -1    0    0  502  503 -0.00000000000E+00 -0.00000000000E+00 -0.11409078611E+03  0.11409078611E+03  0.00000000000E+00 0.  1.
         25    1    1    2    0    0  0.11471126133E+03  0.18475972976E+03  0.27550575477E+03  0.37258992489E+03  0.12500000000E+03 0.  0.
          2    1    1    2  501    0 -0.14918290159E+03 -0.17720491974E+03  0.15033803238E+03  0.27614967986E+03  0.00000000000E+00 0.  1.
         -2    1    1    2    0  503  0.34471640262E+02 -0.75548100230E+01  0.11516141255E+03  0.12044716716E+03  0.00000000000E+00 0. -1.
<mgrwt>
<rscale>  4 0.25779626E+03</rscale>
<asrwt>0</asrwt>
<pdfrwt beam="1">  1       21 0.10078400E+00 0.25779626E+03</pdfrwt>
<pdfrwt beam="2">  1       21 0.17552429E-01 0.25779626E+03</pdfrwt>
<totfact> 0.22881031E+04</totfact>
</mgrwt>
</event>
<event>
 5    0  0.1972558E-002  0.2499976E+03  0.7546771E-02  0.1113306E+00
         21   -1    0    0  501  502  0.00000000000E+00  0.00000000000E+00  0.11147971987E+04  0.11147971987E+04  0.00000000000E+00 0. -1.
         21   -1    0    0  502  503 -0.00000000000E+00 -0.00000000000E+00 -0.59489209335E+03  0.59489209335E+03  0.00000000000E+00 0. -1.
         25    1    1    2    0    0 -0.20730656616E+03  0.58817861523E+02 -0.54665256480E+03  0.60074085912E+03  0.12500000000E+03 0.  0.
          2    1    1    2  501    0  0.23760051549E+03 -0.91041213341E+02  0.96870911039E+03  0.10015686936E+04  0.00000000000E+00 0. -1.
         -2    1    1    2    0  503 -0.30293949330E+02  0.32223351818E+02  0.97848559802E+02  0.10737973935E+03  0.00000000000E+00 0.  1.
<mgrwt>
<rscale>  4 0.24999765E+03</rscale>
<asrwt>0</asrwt>
<pdfrwt beam="1">  1       21 0.17150726E+00 0.24999765E+03</pdfrwt>
<pdfrwt beam="2">  1       21 0.91521861E-01 0.24999765E+03</pdfrwt>
<totfact> 0.19701777E+02</totfact>
</mgrwt>
</event>
<event>
 5    0  0.1972558E-002  0.2650276E+03  0.7546771E-02  0.1104160E+00
         21   -1    0    0  503  502  0.00000000000E+00  0.00000000000E+00  0.11414593226E+04  0.11414593226E+04  0.00000000000E+00 0.  1.
         21   -1    0    0  501  503 -0.00000000000E+00 -0.00000000000E+00 -0.18147158390E+03  0.18147158390E+03  0.00000000000E+00 0. -1.
         25    1    1    2    0    0 -0.17187934561E+03 -0.15834186284E+03 -0.62079912791E+02  0.27220134193E+03  0.12500000000E+03 0.  0.
          4    1    1    2  501    0  0.10306855548E+02  0.43415593638E+02  0.22388774852E+03  0.22829119339E+03  0.00000000000E+00 0. -1.
         -4    1    1    2    0  502  0.16157249006E+03  0.11492626920E+03  0.79817990296E+03  0.82243837118E+03  0.00000000000E+00 0.  1.
<mgrwt>
<rscale>  4 0.26502765E+03</rscale>
<asrwt>0</asrwt>
<pdfrwt beam="1">  1       21 0.17560912E+00 0.26502765E+03</pdfrwt>
<pdfrwt beam="2">  1       21 0.27918706E-01 0.26502765E+03</pdfrwt>
<totfact> 0.22472536E+03</totfact>
</mgrwt>
</event>
<event>
 5    0  0.1972558E-002  0.2444692E+03  0.7546771E-02  0.1116851E+00
         21   -1    0    0  501  502  0.00000000000E+00  0.00000000000E+00  0.27940089011E+03  0.27940089011E+03  0.00000000000E+00 0. -1.
         21   -1    0    0  502  503 -0.00000000000E+00 -0.00000000000E+00 -0.23537765862E+03  0.23537765862E+03  0.00000000000E+00 0.  1.
         25    1    1    2    0    0 -0.39796968182E+02 -0.20629203346E+03 -0.93434727334E+02  0.26171597203E+03  0.12500000000E+03 0.  0.
          1    1    1    2  501    0  0.24772101578E+02  0.18320067681E+03  0.11760276494E+03  0.21910398290E+03  0.00000000000E+00 0. -1.
         -1    1    1    2    0  503  0.15024866604E+02  0.23091356652E+02  0.19855193882E+02  0.33958593796E+02  0.00000000000E+00 0.  1.
<mgrwt>
<rscale>  4 0.24446922E+03</rscale>
<asrwt>0</asrwt>
<pdfrwt beam="1">  1       21 0.42984752E-01 0.24446922E+03</pdfrwt>
<pdfrwt beam="2">  1       21 0.36211948E-01 0.24446922E+03</pdfrwt>
<totfact> 0.37332613E+04</totfact>
</mgrwt>
</event>
<event>
 5    0  0.1972558E-002  0.2897352E+03  0.7546771E-02  0.1090488E+00
         21   -1    0    0  501  502  0.00000000000E+00  0.00000000000E+00  0.45394418664E+03  0.45394418664E+03  0.00000000000E+00 0.  1.
         21   -1    0    0  502  503 -0.00000000000E+00 -0.00000000000E+00 -0.28340667669E+03  0.28340667669E+03  0.00000000000E+00 0.  1.
         25    1    1    2    0    0 -0.19308669453E+03 -0.18202005208E+03 -0.11216348664E+03  0.31403728870E+03  0.12500000000E+03 0.  0.
          2    1    1    2  501    0  0.19613933893E+03  0.15946521647E+03  0.16144620510E+03  0.29994111536E+03  0.00000000000E+00 0.  1.
         -2    1    1    2    0  503 -0.30526444038E+01  0.22554835600E+02  0.12125479149E+03  0.12337245927E+03  0.00000000000E+00 0. -1.
<mgrwt>
<rscale>  4 0.28973515E+03</rscale>
<asrwt>0</asrwt>
<pdfrwt beam="1">  1       21 0.69837567E-01 0.28973515E+03</pdfrwt>
<pdfrwt beam="2">  1       21 0.43601027E-01 0.28973515E+03</pdfrwt>
<totfact> 0.88936539E+03</totfact>
</mgrwt>
</event>
<event>
 5    0  0.1972558E-002  0.4072453E+03  0.7546771E-02  0.1041299E+00
         21   -1    0    0  501  502  0.00000000000E+00  0.00000000000E+00  0.12062189899E+04  0.12062189899E+04  0.00000000000E+00 0.  1.
         21   -1    0    0  502  503 -0.00000000000E+00 -0.00000000000E+00 -0.27458944013E+03  0.27458944013E+03  0.00000000000E+00 0.  1.
         25    1    1    2    0    0 -0.22660428641E+03 -0.36258100138E+03  0.57165301943E+02  0.44911842195E+03  0.12500000000E+03 0.  0.
          3    1    1    2  501    0  0.10066628020E+03  0.56241905206E+02  0.57082720673E+03  0.58235775243E+03  0.00000000000E+00 0. -1.
         -3    1    1    2    0  503  0.12593800621E+03  0.30633909618E+03  0.30363704114E+03  0.44933225569E+03  0.00000000000E+00 0.  1.
<mgrwt>
<rscale>  4 0.40724528E+03</rscale>
<asrwt>0</asrwt>
<pdfrwt beam="1">  1       21 0.18557215E+00 0.40724528E+03</pdfrwt>
<pdfrwt beam="2">  1       21 0.42244530E-01 0.40724528E+03</pdfrwt>
<totfact> 0.76540631E+02</totfact>
</mgrwt>
</event>
<event>
 5    0  0.1972558E-002  0.2379684E+03  0.7546771E-02  0.1121154E+00
         21   -1    0    0  501  502  0.00000000000E+00  0.00000000000E+00  0.15192680171E+04  0.15192680171E+04  0.00000000000E+00 0. -1.
         21   -1    0    0  502  503 -0.00000000000E+00 -0.00000000000E+00 -0.12971869533E+03  0.12971869533E+03  0.00000000000E+00 0.  1.
         25    1    1    2    0    0 -0.15575070282E+03 -0.14575587594E+03  0.44538932359E+02  0.25122056702E+03  0.12500000000E+03 0.  0.
          2    1    1    2  501    0 -0.33090944859E+02  0.10358966915E+03  0.96716084944E+03  0.97325533077E+03  0.00000000000E+00 0. -1.
         -2    1    1    2    0  503  0.18884164768E+03  0.42166206787E+02  0.37784953997E+03  0.42451081464E+03  0.00000000000E+00 0.  1.
<mgrwt>
<rscale>  4 0.23796838E+03</rscale>
<asrwt>0</asrwt>
<pdfrwt beam="1">  1       21 0.23373353E+00 0.23796838E+03</pdfrwt>
<pdfrwt beam="2">  1       21 0.19956723E-01 0.23796838E+03</pdfrwt>
<totfact> 0.18373337E+03</totfact>
</mgrwt>
</event>
<event>
 5    0  0.1972558E-002  0.2117282E+03  0.7546771E-02  0.1140205E+00
         21   -1    0    0  501  502  0.00000000000E+00  0.00000000000E+00  0.46111683727E+03  0.46111683727E+03  0.00000000000E+00 0.  1.
         21   -1    0    0  502  503 -0.00000000000E+00 -0.00000000000E+00 -0.23654212919E+03  0.23654212919E+03  0.00000000000E+00 0. -1.
         25    1    1    2    0    0 -0.16148345345E+03 -0.12926552999E+03  0.14136656190E+03  0.27999283528E+03  0.12500000000E+03 0.  0.
          3    1    1    2  501    0  0.11213357723E+03 -0.32638578175E+02  0.18601054656E+03  0.21963410336E+03  0.00000000000E+00 0.  1.
         -3    1    1    2    0  503  0.49349876222E+02  0.16190410817E+03 -0.10280240037E+03  0.19803202783E+03  0.00000000000E+00 0. -1.
<mgrwt>
<rscale>  4 0.21172816E+03</rscale>
<asrwt>0</asrwt>
<pdfrwt beam="1">  1       21 0.70941052E-01 0.21172816E+03</pdfrwt>
<pdfrwt beam="2">  1       21 0.36391097E-01 0.21172816E+03</pdfrwt>
<totfact> 0.12940085E+04</totfact>
</mgrwt>
</event>
<event>
 5    0  0.1972558E-002  0.3407861E+03  0.7546771E-02  0.1066462E+00
         21   -1    0    0  503  502  0.00000000000E+00  0.00000000000E+00  0.58082558580E+03  0.58082558580E+03  0.00000000000E+00 0. -1.
         21   -1    0    0  501  503 -0.00000000000E+00 -0.00000000000E+00 -0.47255536602E+03  0.47255536602E+03  0.00000000000E+00 0.  1.
         25    1    1    2    0    0  0.38463092494E+02 -0.27892166811E+03 -0.56998257380E+02  0.31328981434E+03  0.12500000000E+03 0.  0.
          2    1    1    2  501    0 -0.28230903658E+03  0.29040665533E+03 -0.58156785285E+02  0.40916577236E+03  0.00000000000E+00 0. -1.
         -2    1    1    2    0  502  0.24384594409E+03 -0.11484987217E+02  0.22342526245E+03  0.33092536512E+03  0.00000000000E+00 0.  1.
<mgrwt>
<rscale>  4 0.34078610E+03</rscale>
<asrwt>0</asrwt>
<pdfrwt beam="1">  1       21 0.89357783E-01 0.34078610E+03</pdfrwt>
<pdfrwt beam="2">  1       21 0.72700825E-01 0.34078610E+03</pdfrwt>
<totfact> 0.16413950E+03</totfact>
</mgrwt>
</event>
<event>
 5    0  0.1972558E-002  0.2666976E+03  0.7546771E-02  0.1103185E+00
         21   -1    0    0  503  502  0.00000000000E+00  0.00000000000E+00  0.21504061450E+03  0.21504061450E+03  0.00000000000E+00 0.  1.
         21   -1    0    0  501  503 -0.00000000000E+00 -0.00000000000E+00 -0.15372675560E+04  0.15372675560E+04  0.00000000000E+00 0. -1.
         25    1    1    2    0    0  0.29754251946E+02  0.32366281555E+03 -0.11267579090E+04  0.11793435968E+04  0.12500000000E+03 0.  0.
          3    1    1    2  501    0 -0.28256557504E+02 -0.16487758753E+03 -0.32665187752E+03  0.36699387052E+03  0.00000000000E+00 0. -1.
         -3    1    1    2    0  502 -0.14976944425E+01 -0.15878522802E+03  0.13118284508E+03  0.20597070318E+03  0.00000000000E+00 0.  1.
<mgrwt>
<rscale>  4 0.26669764E+03</rscale>
<asrwt>0</asrwt>
<pdfrwt beam="1">  1       21 0.33083172E-01 0.26669764E+03</pdfrwt>
<pdfrwt beam="2">  1       21 0.23650269E+00 0.26669764E+03</pdfrwt>
<totfact> 0.64953870E+02</totfact>
</mgrwt>
</event>
<event>
 5    0  0.1972558E-002  0.2442219E+03  0.7546771E-02  0.1117012E+00
         21   -1    0    0  503  502  0.00000000000E+00  0.00000000000E+00  0.18009345801E+03  0.18009345801E+03  0.00000000000E+00 0. -1.
         21   -1    0    0  501  503 -0.00000000000E+00 -0.00000000000E+00 -0.74693551927E+03  0.74693551927E+03  0.00000000000E+00 0. -1.
         25    1    1    2    0    0 -0.26282639147E+03 -0.32950231705E+02 -0.51827932506E+03  0.59531662887E+03  0.12500000000E+03 0.  0.
          2    1    1    2  501    0  0.11003090360E+03  0.68062536092E+02  0.58371078055E+02  0.14193833633E+03  0.00000000000E+00 0.  1.
         -2    1    1    2    0  502  0.15279548787E+03 -0.35112304387E+02 -0.10693381425E+03  0.18977401209E+03  0.00000000000E+00 0. -1.
<mgrwt>
<rscale>  4 0.24422188E+03</rscale>
<asrwt>0</asrwt>
<pdfrwt beam="1">  1       21 0.27706686E-01 0.24422188E+03</pdfrwt>
<pdfrwt beam="2">  1       21 0.11491316E+00 0.24422188E+03</pdfrwt>
<totfact> 0.70458655E+03</totfact>
</mgrwt>
</event>
<event>
 5    0  0.1972558E-002  0.2420789E+03  0.7546771E-02  0.1118416E+00
         21   -1    0    0  501  502  0.00000000000E+00  0.00000000000E+00  0.11249238648E+03  0.11249238648E+03  0.00000000000E+00 0. -1.
         21   -1    0    0  502  503 -0.00000000000E+00 -0.00000000000E+00 -0.13097560660E+04  0.13097560660E+04  0.00000000000E+00 0.  1.
         25    1    1    2    0    0 -0.21369517658E+03  0.19032573830E+02 -0.10293987356E+04  0.10589214438E+04  0.12500000000E+03 0.  0.
          2    1    1    2  501    0  0.23714465990E+02 -0.55834654770E+01  0.60938555456E+02  0.65628183923E+02  0.00000000000E+00 0. -1.
         -2    1    1    2    0  503  0.18998071059E+03 -0.13449108353E+02 -0.22880349937E+03  0.29769882472E+03  0.00000000000E+00 0.  1.
<mgrwt>
<rscale>  4 0.24207891E+03</rscale>
<asrwt>0</asrwt>
<pdfrwt beam="1">  1       21 0.17306521E-01 0.24207891E+03</pdfrwt>
<pdfrwt beam="2">  1       21 0.20150093E+00 0.24207891E+03</pdfrwt>
<totfact> 0.37963794E+03</totfact>
</mgrwt>
</event>
<event>
 5    0  0.1972558E-002  0.3647687E+03  0.7546771E-02  0.1056711E+00
         21   -1    0    0  501  502  0.00000000000E+00  0.00000000000E+00  0.38277977486E+03  0.38277977486E+03  0.00000000000E+00 0.  1.
         21   -1    0    0  502  503 -0.00000000000E+00 -0.00000000000E+00 -0.54098363305E+03  0.54098363305E+03  0.00000000000E+00 0.  1.
         25    1    1    2    0    0 -0.35441464312E+03  0.41021828926E+02 -0.21197371706E+03  0.43341710445E+03  0.12500000000E+03 0.  0.
          2    1    1    2  501    0  0.32545338188E+03 -0.31819229698E+02 -0.93391721621E+02  0.34007996240E+03  0.00000000000E+00 0.  1.
         -2    1    1    2    0  503  0.28961261243E+02 -0.92025992274E+01  0.14716158049E+03  0.15026634107E+03  0.00000000000E+00 0. -1.
<mgrwt>
<rscale>  4 0.36476875E+03</rscale>
<asrwt>0</asrwt>
<pdfrwt beam="1">  1       21 0.58889196E-01 0.36476875E+03</pdfrwt>
<pdfrwt beam="2">  1       21 0.83228251E-01 0.36476875E+03</pdfrwt>
<totfact> 0.30527659E+03</totfact>
</mgrwt>
</event>
<event>
 5    0  0.1972558E-002  0.2684471E+03  0.7546771E-02  0.1102172E+00
         21   -1    0    0  503  502  0.00000000000E+00  0.00000000000E+00  0.69703697103E+03  0.69703697103E+03  0.00000000000E+00 0. -1.
         21   -1    0    0  501  503 -0.00000000000E+00 -0.00000000000E+00 -0.29226770006E+03  0.29226770006E+03  0.00000000000E+00 0. -1.
         25    1    1    2    0    0  0.71888885634E+02  0.24739253309E+03 -0.14672006579E+03  0.32174967756E+03  0.12500000000E+03 0.  0.
          3    1    1    2  501    0 -0.14860549640E+03 -0.52832018535E+02  0.31202513575E+03  0.34962051010E+03  0.00000000000E+00 0.  1.
         -3    1    1    2    0  502  0.76716610763E+02 -0.19456051455E+03  0.23946420101E+03  0.31793448343E+03  0.00000000000E+00 0. -1.
<mgrwt>
<rscale>  4 0.26844714E+03</rscale>
<asrwt>0</asrwt>
<pdfrwt beam="1">  1       21 0.10723646E+00 0.26844714E+03</pdfrwt>
<pdfrwt beam="2">  1       21 0.44964262E-01 0.26844714E+03</pdfrwt>
<totfact> 0.31165379E+03</totfact>
</mgrwt>
</event>
<event>
 5    0  0.1972558E-002  0.1956860E+03  0.7546771E-02  0.1153431E+00
         21   -1    0    0  501  502  0.00000000000E+00  0.00000000000E+00  0.11202165366E+04  0.11202165366E+04  0.00000000000E+00 0.  1.
         21   -1    0    0  502  503 -0.00000000000E+00 -0.00000000000E+00 -0.11795221328E+03  0.11795221328E+03  0.00000000000E+00 0. -1.
         25    1    1    2    0    0 -0.10992598957E+03 -0.17426832308E+03  0.10640279844E+03  0.26343827954E+03  0.12500000000E+03 0.  0.
          1    1    1    2  501    0  0.10189711200E+03  0.70182153003E+02  0.69720051784E+02  0.14201915946E+03  0.00000000000E+00 0. -1.
         -1    1    1    2    0  503  0.80288775706E+01  0.10408617008E+03  0.82614147307E+03  0.83271131084E+03  0.00000000000E+00 0.  1.
<mgrwt>
<rscale>  4 0.19568598E+03</rscale>
<asrwt>0</asrwt>
<pdfrwt beam="1">  1       21 0.17234100E+00 0.19568598E+03</pdfrwt>
<pdfrwt beam="2">  1       21 0.18146495E-01 0.19568598E+03</pdfrwt>
<totfact> 0.56684348E+03</totfact>
</mgrwt>
</event>
<event>
 5    0  0.1972558E-002  0.3212581E+03  0.7546771E-02  0.1075072E+00
         21   -1    0    0  501  502  0.00000000000E+00  0.00000000000E+00  0.56018897846E+03  0.56018897846E+03  0.00000000000E+00 0. -1.
         21   -1    0    0  502  503 -0.00000000000E+00 -0.00000000000E+00 -0.61798667036E+03  0.61798667036E+03  0.00000000000E+00 0.  1.
         25    1    1    2    0    0 -0.96533455084E+02 -0.28305113480E+03 -0.49672069973E+03  0.59312149380E+03  0.12500000000E+03 0.  0.
          3    1    1    2  501    0  0.12894941055E+03  0.24922390020E+03  0.20764973188E+03  0.34908296157E+03  0.00000000000E+00 0. -1.
         -3    1    1    2    0  503 -0.32415955468E+02  0.33827234600E+02  0.23127327595E+03  0.23597119345E+03  0.00000000000E+00 0.  1.
<mgrwt>
<rscale>  4 0.32125809E+03</rscale>
<asrwt>0</asrwt>
<pdfrwt beam="1">  1       21 0.86182920E-01 0.32125809E+03</pdfrwt>
<pdfrwt beam="2">  1       21 0.95074872E-01 0.32125809E+03</pdfrwt>
<totfact> 0.97119962E+02</totfact>
</mgrwt>
</event>
<event>
 5    0  0.1972558E-002  0.2482757E+03  0.7546771E-02  0.1114399E+00
         21   -1    0    0  501  502  0.00000000000E+00  0.00000000000E+00  0.83598094372E+03  0.83598094372E+03  0.00000000000E+00 0. -1.
         21   -1    0    0  502  503 -0.00000000000E+00 -0.00000000000E+00 -0.14485819985E+03  0.14485819985E+03  0.00000000000E+00 0. -1.
         25    1    1    2    0    0 -0.68403916809E+02  0.21163824723E+03  0.12771183817E+02  0.25545634982E+03  0.12500000000E+03 0.  0.
          4    1    1    2  501    0  0.72786123492E+02 -0.17661950251E+03  0.38368065968E+03  0.42860601612E+03  0.00000000000E+00 0.  1.
         -4    1    1    2    0  503 -0.43822066830E+01 -0.35018744719E+02  0.29467090038E+03  0.29677677764E+03  0.00000000000E+00 0. -1.
<mgrwt>
<rscale>  4 0.24827575E+03</rscale>
<asrwt>0</asrwt>
<pdfrwt beam="1">  1       21 0.12861245E+00 0.24827575E+03</pdfrwt>
<pdfrwt beam="2">  1       21 0.22285877E-01 0.24827575E+03</pdfrwt>
<totfact> 0.80531197E+03</totfact>
</mgrwt>
</event>
<event>
 5    0  0.1972558E-002  0.2591429E+03  0.7546771E-02  0.1107659E+00
         21   -1    0    0  501  502  0.00000000000E+00  0.00000000000E+00  0.69450318830E+02  0.69450318830E+02  0.00000000000E+00 0.  1.
         21   -1    0    0  502  503 -0.00000000000E+00 -0.00000000000E+00 -0.10070451023E+04  0.10070451023E+04  0.00000000000E+00 0. -1.
         25    1    1    2    0    0  0.97024086968E+02  0.20279501433E+03 -0.43981251774E+03  0.50950911871E+03  0.12500000000E+03 0.  0.
          4    1    1    2  501    0 -0.61661651792E+02 -0.22194761525E+03 -0.43895981431E+03  0.49573039224E+03  0.00000000000E+00 0.  1.
         -4    1    1    2    0  503 -0.35362435176E+02  0.19152600918E+02 -0.58822451410E+02  0.71255910165E+02  0.00000000000E+00 0. -1.
<mgrwt>
<rscale>  4 0.25914291E+03</rscale>
<asrwt>0</asrwt>
<pdfrwt beam="1">  1       21 0.10684665E-01 0.25914291E+03</pdfrwt>
<pdfrwt beam="2">  1       21 0.15493001E+00 0.25914291E+03</pdfrwt>
<totfact> 0.19015134E+04</totfact>
</mgrwt>
</event>
<event>
 5    0  0.1972558E-002  0.2680424E+03  0.7546771E-02  0.1102405E+00
         21   -1    0    0  503  502  0.00000000000E+00  0.00000000000E+00  0.29642825488E+03  0.29642825488E+03  0.00000000000E+00 0. -1.
         21   -1    0    0  501  503 -0.00000000000E+00 -0.00000000000E+00 -0.71502354169E+03  0.71502354169E+03  0.00000000000E+00 0. -1.
         25    1    1    2    0    0 -0.20572438469E+03  0.11850383040E+03 -0.62352590955E+03  0.67880427235E+03  0.12500000000E+03 0.  0.
          4    1    1    2  501    0  0.12901419044E+02  0.16615465453E+02  0.39940483065E+02  0.45141582749E+02  0.00000000000E+00 0.  1.
         -4    1    1    2    0  502  0.19282296565E+03 -0.13511929585E+03  0.16499013968E+03  0.28750594148E+03  0.00000000000E+00 0. -1.
<mgrwt>
<rscale>  4 0.26804244E+03</rscale>
<asrwt>0</asrwt>
<pdfrwt beam="1">  1       21 0.45604347E-01 0.26804244E+03</pdfrwt>
<pdfrwt beam="2">  1       21 0.11000362E+00 0.26804244E+03</pdfrwt>
<totfact> 0.28449224E+03</totfact>
</mgrwt>
</event>
<event>
 5    0  0.1972558E-002  0.2156037E+03  0.7546771E-02  0.1137204E+00
         21   -1    0    0  501  502  0.00000000000E+00  0.00000000000E+00  0.17795138767E+03  0.17795138767E+03  0.00000000000E+00 0. -1.
         21   -1    0    0  502  503 -0.00000000000E+00 -0.00000000000E+00 -0.53274049666E+03  0.53274049666E+03  0.00000000000E+00 0.  1.
         25    1    1    2    0    0 -0.15732499959E+02 -0.20296589934E+03 -0.32862469343E+03  0.40627805378E+03  0.12500000000E+03 0.  0.
          4    1    1    2  501    0  0.29904301388E+02  0.14744856498E+03 -0.12136549649E+03  0.19330010422E+03  0.00000000000E+00 0.  1.
         -4    1    1    2    0  503 -0.14171801429E+02  0.55517334360E+02  0.95201080921E+02  0.11111372633E+03  0.00000000000E+00 0. -1.
<mgrwt>
<rscale>  4 0.21560369E+03</rscale>
<asrwt>0</asrwt>
<pdfrwt beam="1">  1       21 0.27377137E-01 0.21560369E+03</pdfrwt>
<pdfrwt beam="2">  1       21 0.81960076E-01 0.21560369E+03</pdfrwt>
<totfact> 0.16332715E+04</totfact>
</mgrwt>
</event>
<event>
 5    0  0.1972558E-002  0.2932551E+03  0.7546771E-02  0.1088662E+00
         21   -1    0    0  501  502  0.00000000000E+00  0.00000000000E+00  0.59590966975E+03  0.59590966975E+03  0.00000000000E+00 0. -1.
         21   -1    0    0  502  503 -0.00000000000E+00 -0.00000000000E+00 -0.23378996216E+03  0.23378996216E+03  0.00000000000E+00 0. -1.
         25    1    1    2    0    0 -0.18797767473E+03 -0.18718430269E+03 -0.87488307437E+02  0.30602740614E+03  0.12500000000E+03 0.  0.
          1    1    1    2  501    0  0.14691609403E+03  0.16491918498E+03  0.35374603323E+03  0.41703588849E+03  0.00000000000E+00 0. -1.
         -1    1    1    2    0  503  0.41061580706E+02  0.22265117710E+02  0.95861981788E+02  0.10663633728E+03  0.00000000000E+00 0.  1.
<mgrwt>
<rscale>  4 0.29325513E+03</rscale>
<asrwt>0</asrwt>
<pdfrwt beam="1">  1       21 0.91678411E-01 0.29325513E+03</pdfrwt>
<pdfrwt beam="2">  1       21 0.35967687E-01 0.29325513E+03</pdfrwt>
<totfact> 0.70534888E+03</totfact>
</mgrwt>
</event>
<event>
 5    0  0.1972558E-002  0.2177664E+03  0.7546771E-02  0.1135559E+00
         21   -1    0    0  501  502  0.00000000000E+00  0.00000000000E+00  0.55275882763E+02  0.55275882763E+02  0.00000000000E+00 0. -1.
         21   -1    0    0  502  503 -0.00000000000E+00 -0.00000000000E+00 -0.25104642176E+04  0.25104642176E+04  0.00000000000E+00 0.  1.
         25    1    1    2    0    0  0.57915824464E+02  0.20082074664E+03 -0.21709682889E+04  0.21845849781E+04  0.12500000000E+03 0.  0.
          4    1    1    2  501    0  0.23812284872E+02 -0.11677439716E+03 -0.21274744729E+03  0.24385397490E+03  0.00000000000E+00 0.  1.
         -4    1    1    2    0  503 -0.81728109336E+02 -0.84046349480E+02 -0.71472598627E+02  0.13730114738E+03  0.00000000000E+00 0. -1.
<mgrwt>
<rscale>  4 0.21776644E+03</rscale>
<asrwt>0</asrwt>
<pdfrwt beam="1">  1       21 0.85039841E-02 0.21776644E+03</pdfrwt>
<pdfrwt beam="2">  1       21 0.38622517E+00 0.21776644E+03</pdfrwt>
<totfact> 0.11027585E+03</totfact>
</mgrwt>
</event>
<event>
 5    0  0.1972558E-002  0.2335524E+03  0.7546771E-02  0.1124164E+00
         21   -1    0    0  501  502  0.00000000000E+00  0.00000000000E+00  0.24562439727E+04  0.24562439727E+04  0.00000000000E+00 0.  1.
         21   -1    0    0  502  503 -0.00000000000E+00 -0.00000000000E+00 -0.12737995405E+03  0.12737995405E+03  0.00000000000E+00 0. -1.
         25    1    1    2    0    0  0.13309809743E+03  0.15922045138E+03  0.68798840381E+01  0.24236045156E+03  0.12500000000E+03 0.  0.
          1    1    1    2  501    0 -0.96643705235E+01 -0.15460399823E+03  0.84176545189E+03  0.85590003641E+03  0.00000000000E+00 0. -1.
         -1    1    1    2    0  503 -0.12343372690E+03 -0.46164531518E+01  0.14802186827E+04  0.14853634388E+04  0.00000000000E+00 0.  1.
<mgrwt>
<rscale>  4 0.23355239E+03</rscale>
<asrwt>0</asrwt>
<pdfrwt beam="1">  1       21 0.37788365E+00 0.23355239E+03</pdfrwt>
<pdfrwt beam="2">  1       21 0.19596918E-01 0.23355239E+03</pdfrwt>
<totfact> 0.26828084E+02</totfact>
</mgrwt>
</event>
<event>
 5    0  0.1972558E-002  0.3521983E+03  0.7546771E-02  0.1061716E+00
         21   -1    0    0  501  502  0.00000000000E+00  0.00000000000E+00  0.14281934828E+03  0.14281934828E+03  0.00000000000E+00 0. -1.
         21   -1    0    0  502  503 -0.00000000000E+00 -0.00000000000E+00 -0.29888476350E+04  0.29888476350E+04  0.00000000000E+00 0. -1.
         25    1    1    2    0    0 -0.25124852113E+03 -0.21646612059E+03 -0.23744847583E+04  0.24007886762E+04  0.12500000000E+03 0.  0.
          1    1    1    2  501    0 -0.44802134277E+02  0.72130744642E+02  0.61113340803E+02  0.10461795249E+03  0.00000000000E+00 0. -1.
         -1    1    1    2    0  503  0.29605065541E+03  0.14433537595E+03 -0.53265686929E+03  0.62626035458E+03  0.00000000000E+00 0.  1.
<mgrwt>
<rscale>  4 0.35219827E+03</rscale>
<asrwt>0</asrwt>
<pdfrwt beam="1">  1       21 0.21972208E-01 0.35219827E+03</pdfrwt>
<pdfrwt beam="2">  1       21 0.45982270E+00 0.35219827E+03</pdfrwt>
<totfact> 0.55662630E+01</totfact>
</mgrwt>
</event>
<event>
 5    0  0.1972558E-002  0.3077684E+03  0.7546771E-02  0.1081420E+00
         21   -1    0    0  501  502  0.00000000000E+00  0.00000000000E+00  0.45916722498E+03  0.45916722498E+03  0.00000000000E+00 0. -1.
         21   -1    0    0  502  503 -0.00000000000E+00 -0.00000000000E+00 -0.30996265057E+03  0.30996265057E+03  0.00000000000E+00 0. -1.
         25    1    1    2    0    0 -0.50207362970E+02  0.27606907511E+03  0.13442173239E+03  0.33530451185E+03  0.12500000000E+03 0.  0.
          4    1    1    2  501    0  0.20838818222E+02 -0.28118778138E+03 -0.11214589156E+03  0.30344278824E+03  0.00000000000E+00 0. -1.
         -4    1    1    2    0  503  0.29368544748E+02  0.51187062746E+01  0.12692873358E+03  0.13038257545E+03  0.00000000000E+00 0.  1.
<mgrwt>
<rscale>  4 0.30776844E+03</rscale>
<asrwt>0</asrwt>
<pdfrwt beam="1">  1       21 0.70641112E-01 0.30776844E+03</pdfrwt>
<pdfrwt beam="2">  1       21 0.47686562E-01 0.30776844E+03</pdfrwt>
<totfact> 0.71353240E+03</totfact>
</mgrwt>
</event>
<event>
 5    0  0.1972558E-002  0.3131628E+03  0.7546771E-02  0.1078840E+00
         21   -1    0    0  501  502  0.00000000000E+00  0.00000000000E+00  0.60850692520E+03  0.60850692520E+03  0.00000000000E+00 0.  1.
         21   -1    0    0  502  503 -0.00000000000E+00 -0.00000000000E+00 -0.52873754737E+03  0.52873754737E+03  0.00000000000E+00 0. -1.
         25    1    1    2    0    0 -0.15866479147E+03  0.25381751264E+03 -0.27104416657E+03  0.42271478092E+03  0.12500000000E+03 0.  0.
          4    1    1    2  501    0  0.14088854646E+03 -0.23135955538E+03 -0.80247518110E+02  0.28251812429E+03  0.00000000000E+00 0. -1.
         -4    1    1    2    0  503  0.17776245012E+02 -0.22457957259E+02  0.43106106251E+03  0.43201156737E+03  0.00000000000E+00 0.  1.
<mgrwt>
<rscale>  4 0.31316279E+03</rscale>
<asrwt>0</asrwt>
<pdfrwt beam="1">  1       21 0.93616450E-01 0.31316279E+03</pdfrwt>
<pdfrwt beam="2">  1       21 0.81344238E-01 0.31316279E+03</pdfrwt>
<totfact> 0.11570716E+03</totfact>
</mgrwt>
</event>
<event>
 5    0  0.1972558E-002  0.2387289E+03  0.7546771E-02  0.1120643E+00
         21   -1    0    0  501  502  0.00000000000E+00  0.00000000000E+00  0.35160496604E+03  0.35160496604E+03  0.00000000000E+00 0.  1.
         21   -1    0    0  502  503 -0.00000000000E+00 -0.00000000000E+00 -0.21333014964E+03  0.21333014964E+03  0.00000000000E+00 0.  1.
         25    1    1    2    0    0 -0.74786828782E+02  0.19689540820E+03 -0.46200677373E+02  0.24923959179E+03  0.12500000000E+03 0.  0.
          2    1    1    2  501    0  0.28003676409E+02 -0.19292752710E+03  0.10012412984E+03  0.21915765554E+03  0.00000000000E+00 0.  1.
         -2    1    1    2    0  503  0.46783152373E+02 -0.39678810956E+01  0.84351363941E+02  0.96537868347E+02  0.00000000000E+00 0. -1.
<mgrwt>
<rscale>  4 0.23872887E+03</rscale>
<asrwt>0</asrwt>
<pdfrwt beam="1">  1       21 0.54093072E-01 0.23872887E+03</pdfrwt>
<pdfrwt beam="2">  1       21 0.32820023E-01 0.23872887E+03</pdfrwt>
<totfact> 0.28186460E+04</totfact>
</mgrwt>
</event>
<event>
 5    0  0.1972558E-002  0.3481272E+03  0.7546771E-02  0.1063386E+00
         21   -1    0    0  501  502  0.00000000000E+00  0.00000000000E+00  0.10517628843E+03  0.10517628843E+03  0.00000000000E+00 0. -1.
         21   -1    0    0  502  503 -0.00000000000E+00 -0.00000000000E+00 -0.28374371981E+04  0.28374371981E+04  0.00000000000E+00 0. -1.
         25    1    1    2    0    0  0.31095580238E+03  0.10358373792E+03 -0.21356341753E+04  0.21642507785E+04  0.12500000000E+03 0.  0.
          3    1    1    2  501    0 -0.25366382530E+02  0.40502949279E+02  0.42308509324E+02  0.63827519333E+02  0.00000000000E+00 0.  1.
         -3    1    1    2    0  503 -0.28558941985E+03 -0.14408668720E+03 -0.63893524370E+03  0.71453518864E+03  0.00000000000E+00 0. -1.
<mgrwt>
<rscale>  4 0.34812719E+03</rscale>
<asrwt>0</asrwt>
<pdfrwt beam="1">  1       21 0.16180966E-01 0.34812719E+03</pdfrwt>
<pdfrwt beam="2">  1       21 0.43652883E+00 0.34812719E+03</pdfrwt>
<totfact> 0.14252837E+02</totfact>
</mgrwt>
</event>
<event>
 5    0  0.1972558E-002  0.2361884E+03  0.7546771E-02  0.1122358E+00
         21   -1    0    0  501  502  0.00000000000E+00  0.00000000000E+00  0.24800189676E+03  0.24800189676E+03  0.00000000000E+00 0.  1.
         21   -1    0    0  502  503 -0.00000000000E+00 -0.00000000000E+00 -0.62722210583E+03  0.62722210583E+03  0.00000000000E+00 0. -1.
         25    1    1    2    0    0  0.18839746097E+03  0.68310832311E+02 -0.55106497318E+03  0.59954781109E+03  0.12500000000E+03 0.  0.
          1    1    1    2  501    0 -0.12845566053E+03 -0.44519969891E+02  0.64564559233E+02  0.15050404230E+03  0.00000000000E+00 0. -1.
         -1    1    1    2    0  503 -0.59941800445E+02 -0.23790862420E+02  0.10728020488E+03  0.12517214919E+03  0.00000000000E+00 0.  1.
<mgrwt>
<rscale>  4 0.23618843E+03</rscale>
<asrwt>0</asrwt>
<pdfrwt beam="1">  1       21 0.38154139E-01 0.23618843E+03</pdfrwt>
<pdfrwt beam="2">  1       21 0.96495706E-01 0.23618843E+03</pdfrwt>
<totfact> 0.57334652E+03</totfact>
</mgrwt>
</event>
<event>
 5    0  0.1972558E-002  0.2904286E+03  0.7546771E-02  0.1090126E+00
         21   -1    0    0  501  502  0.00000000000E+00  0.00000000000E+00  0.24745429404E+03  0.24745429404E+03  0.00000000000E+00 0. -1.
         21   -1    0    0  502  503 -0.00000000000E+00 -0.00000000000E+00 -0.18574863222E+04  0.18574863222E+04  0.00000000000E+00 0.  1.
         25    1    1    2    0    0 -0.21337960379E+02 -0.26299298360E+03 -0.16590390782E+04  0.16845344404E+04  0.12500000000E+03 0.  0.
          2    1    1    2  501    0 -0.18427946971E+02  0.14774635145E+02  0.14826626177E+03  0.15013581669E+03  0.00000000000E+00 0. -1.
         -2    1    1    2    0  503  0.39765907351E+02  0.24821834846E+03 -0.99259211698E+02  0.27027035909E+03  0.00000000000E+00 0.  1.
<mgrwt>
<rscale>  4 0.29042861E+03</rscale>
<asrwt>0</asrwt>
<pdfrwt beam="1">  1       21 0.38069890E-01 0.29042861E+03</pdfrwt>
<pdfrwt beam="2">  1       21 0.28576714E+00 0.29042861E+03</pdfrwt>
<totfact> 0.24386419E+02</totfact>
</mgrwt>
</event>
<event>
 5    0  0.1972558E-002  0.3198191E+03  0.7546771E-02  0.1075733E+00
         21   -1    0    0  501  502  0.00000000000E+00  0.00000000000E+00  0.51921745502E+03  0.51921745502E+03  0.00000000000E+00 0. -1.
         21   -1    0    0  502  503 -0.00000000000E+00 -0.00000000000E+00 -0.27975155894E+03  0.27975155894E+03  0.00000000000E+00 0.  1.
         25    1    1    2    0    0  0.28604782367E+03  0.81597333615E+02  0.28127181454E+02  0.32387902157E+03  0.12500000000E+03 0.  0.
          1    1    1    2  501    0 -0.29103235768E+03 -0.35657787652E+02  0.37955971028E+02  0.29565514840E+03  0.00000000000E+00 0.  1.
         -1    1    1    2    0  503  0.49845340129E+01 -0.45939545962E+02  0.17338274359E+03  0.17943484399E+03  0.00000000000E+00 0. -1.
<mgrwt>
<rscale>  4 0.31981914E+03</rscale>
<asrwt>0</asrwt>
<pdfrwt beam="1">  1       21 0.79879608E-01 0.31981914E+03</pdfrwt>
<pdfrwt beam="2">  1       21 0.43038701E-01 0.31981914E+03</pdfrwt>
<totfact> 0.66509871E+03</totfact>
</mgrwt>
</event>
<event>
 5    0  0.1972558E-002  0.2458557E+03  0.7546771E-02  0.1115952E+00
         21   -1    0    0  503  502  0.00000000000E+00  0.00000000000E+00  0.17386624845E+03  0.17386624845E+03  0.00000000000E+00 0. -1.
         21   -1    0    0  501  503 -0.00000000000E+00 -0.00000000000E+00 -0.87214347698E+03  0.87214347698E+03  0.00000000000E+00 0. -1.
         25    1    1    2    0    0  0.19952081421E+03 -0.70791621138E+02 -0.77913250514E+03  0.81700212331E+03  0.12500000000E+03 0.  0.
          3    1    1    2  501    0 -0.24794862041E+02  0.87034738569E+00  0.17774190705E+02  0.30519904053E+02  0.00000000000E+00 0.  1.
         -3    1    1    2    0  502 -0.17472595217E+03  0.69921273752E+02  0.63081085903E+02  0.19848769807E+03  0.00000000000E+00 0. -1.
<mgrwt>
<rscale>  4 0.24585567E+03</rscale>
<asrwt>0</asrwt>
<pdfrwt beam="1">  1       21 0.26748653E-01 0.24585567E+03</pdfrwt>
<pdfrwt beam="2">  1       21 0.13417592E+00 0.24585567E+03</pdfrwt>
<totfact> 0.51031073E+03</totfact>
</mgrwt>
</event>
<event>
 5    0  0.1972558E-002  0.2758305E+03  0.7546771E-02  0.1097988E+00
         21   -1    0    0  503  502  0.00000000000E+00  0.00000000000E+00  0.59465802746E+03  0.59465802746E+03  0.00000000000E+00 0. -1.
         21   -1    0    0  501  503 -0.00000000000E+00 -0.00000000000E+00 -0.12587115522E+03  0.12587115522E+03  0.00000000000E+00 0.  1.
         25    1    1    2    0    0  0.15173448263E+03  0.19347903674E+03  0.17375606513E+03  0.32599641263E+03  0.12500000000E+03 0.  0.
          4    1    1    2  501    0 -0.78779858687E+02 -0.35908331403E+02  0.12011191346E+03  0.14806264267E+03  0.00000000000E+00 0.  1.
         -4    1    1    2    0  502 -0.72954623947E+02 -0.15757070534E+03  0.17491889365E+03  0.24647012738E+03  0.00000000000E+00 0. -1.
<mgrwt>
<rscale>  4 0.27583055E+03</rscale>
<asrwt>0</asrwt>
<pdfrwt beam="1">  1       21 0.91485848E-01 0.27583055E+03</pdfrwt>
<pdfrwt beam="2">  1       21 0.19364794E-01 0.27583055E+03</pdfrwt>
<totfact> 0.23761308E+04</totfact>
</mgrwt>
</event>
<event>
 5    0  0.1972558E-002  0.2946408E+03  0.7546771E-02  0.1087951E+00
         21   -1    0    0  501  502  0.00000000000E+00  0.00000000000E+00  0.45932630938E+03  0.45932630938E+03  0.00000000000E+00 0.  1.
         21   -1    0    0  502  503 -0.00000000000E+00 -0.00000000000E+00 -0.75763591452E+03  0.75763591452E+03  0.00000000000E+00 0.  1.
         25    1    1    2    0    0  0.27209452859E+03 -0.47850963073E+02 -0.64609992432E+03  0.71371931413E+03  0.12500000000E+03 0.  0.
          1    1    1    2  501    0 -0.20986185420E+03  0.73007180220E+02  0.94934510090E+02  0.24162906989E+03  0.00000000000E+00 0.  1.
         -1    1    1    2    0  503 -0.62232674392E+02 -0.25156217147E+02  0.25285580910E+03  0.26161383988E+03  0.00000000000E+00 0. -1.
<mgrwt>
<rscale>  4 0.29464084E+03</rscale>
<asrwt>0</asrwt>
<pdfrwt beam="1">  1       21 0.70665587E-01 0.29464084E+03</pdfrwt>
<pdfrwt beam="2">  1       21 0.11655937E+00 0.29464084E+03</pdfrwt>
<totfact> 0.94594869E+02</totfact>
</mgrwt>
</event>
<event>
 5    0  0.1972558E-002  0.2877063E+03  0.7546771E-02  0.1091553E+00
         21   -1    0    0  503  502  0.00000000000E+00  0.00000000000E+00  0.55755874610E+03  0.55755874610E+03  0.00000000000E+00 0. -1.
         21   -1    0    0  501  503 -0.00000000000E+00 -0.00000000000E+00 -0.27465824233E+03  0.27465824233E+03  0.00000000000E+00 0. -1.
         25    1    1    2    0    0 -0.89978566596E+02 -0.23934115079E+03 -0.10958813942E+03  0.30498342448E+03  0.12500000000E+03 0.  0.
          4    1    1    2  501    0 -0.71174484194E+02  0.11075437047E+02  0.68571999125E+02  0.99451453333E+02  0.00000000000E+00 0.  1.
         -4    1    1    2    0  502  0.16115305079E+03  0.22826571374E+03  0.32391664407E+03  0.42778211061E+03  0.00000000000E+00 0. -1.
<mgrwt>
<rscale>  4 0.28770625E+03</rscale>
<asrwt>0</asrwt>
<pdfrwt beam="1">  1       21 0.85778268E-01 0.28770625E+03</pdfrwt>
<pdfrwt beam="2">  1       21 0.42255114E-01 0.28770625E+03</pdfrwt>
<totfact> 0.59540118E+03</totfact>
</mgrwt>
</event>
<event>
 5    0  0.1972558E-002  0.2596316E+03  0.7546771E-02  0.1107365E+00
         21   -1    0    0  501  502  0.00000000000E+00  0.00000000000E+00  0.22959996286E+03  0.22959996286E+03  0.00000000000E+00 0.  1.
         21   -1    0    0  502  503 -0.00000000000E+00 -0.00000000000E+00 -0.32995621402E+03  0.32995621402E+03  0.00000000000E+00 0. -1.
         25    1    1    2    0    0 -0.23774348171E+03  0.54640013990E+02 -0.38230649936E+02  0.27675634919E+03  0.12500000000E+03 0.  0.
          3    1    1    2  501    0  0.20722649796E+02 -0.32207761991E+02  0.27273558846E+02  0.47017179405E+02  0.00000000000E+00 0. -1.
         -3    1    1    2    0  503  0.21702083191E+03 -0.22432251998E+02 -0.89399160070E+02  0.23578264829E+03  0.00000000000E+00 0.  1.
<mgrwt>
<rscale>  4 0.25963165E+03</rscale>
<asrwt>0</asrwt>
<pdfrwt beam="1">  1       21 0.35323071E-01 0.25963165E+03</pdfrwt>
<pdfrwt beam="2">  1       21 0.50762494E-01 0.25963165E+03</pdfrwt>
<totfact> 0.27589455E+04</totfact>
</mgrwt>
</event>
<event>
 5    0  0.1972558E-002  0.2598047E+03  0.7546771E-02  0.1107261E+00
         21   -1    0    0  501  502  0.00000000000E+00  0.00000000000E+00  0.27045152661E+03  0.27045152661E+03  0.00000000000E+00 0.  1.
         21   -1    0    0  502  503 -0.00000000000E+00 -0.00000000000E+00 -0.43233173077E+03  0.43233173077E+03  0.00000000000E+00 0.  1.
         25    1    1    2    0    0 -0.18365590567E+03 -0.14073179779E+03 -0.31598447918E+03  0.41110354131E+03  0.12500000000E+03 0.  0.
          3    1    1    2  501    0  0.17961496842E+03  0.11798712896E+03  0.10890834803E+03  0.24092224420E+03  0.00000000000E+00 0.  1.
         -3    1    1    2    0  503  0.40409372529E+01  0.22744668830E+02  0.45195926989E+02  0.50757471868E+02  0.00000000000E+00 0. -1.
<mgrwt>
<rscale>  4 0.25980468E+03</rscale>
<asrwt>0</asrwt>
<pdfrwt beam="1">  1       21 0.41607928E-01 0.25980468E+03</pdfrwt>
<pdfrwt beam="2">  1       21 0.66512573E-01 0.25980468E+03</pdfrwt>
<totfact> 0.11072711E+04</totfact>
</mgrwt>
</event>
<event>
 5    0  0.1972558E-002  0.2481950E+03  0.7546771E-02  0.1114451E+00
         21   -1    0    0  503  502  0.00000000000E+00  0.00000000000E+00  0.83088080589E+02  0.83088080589E+02  0.00000000000E+00 0.  1.
         21   -1    0    0  501  503 -0.00000000000E+00 -0.00000000000E+00 -0.12544594731E+04  0.12544594731E+04  0.00000000000E+00 0. -1.
         25    1    1    2    0    0 -0.19234372691E+03  0.10338944344E+03 -0.75515792469E+03  0.79597360353E+03  0.12500000000E+03 0.  0.
          1    1    1    2  501    0 -0.33823048088E+02 -0.10938954330E+03 -0.18866606435E+03  0.22069199035E+03  0.00000000000E+00 0. -1.
         -1    1    1    2    0  502  0.22616677500E+03  0.60000998613E+01 -0.22754740349E+03  0.32088195983E+03  0.00000000000E+00 0.  1.
<mgrwt>
<rscale>  4 0.24819504E+03</rscale>
<asrwt>0</asrwt>
<pdfrwt beam="1">  1       21 0.12782782E-01 0.24819504E+03</pdfrwt>
<pdfrwt beam="2">  1       21 0.19299376E+00 0.24819504E+03</pdfrwt>
<totfact> 0.74801897E+03</totfact>
</mgrwt>
</event>
<event>
 5    0  0.1972558E-002  0.2489008E+03  0.7546771E-02  0.1114001E+00
         21   -1    0    0  501  502  0.00000000000E+00  0.00000000000E+00  0.75907669365E+03  0.75907669365E+03  0.00000000000E+00 0. -1.
         21   -1    0    0  502  503 -0.00000000000E+00 -0.00000000000E+00 -0.35451468060E+03  0.35451468060E+03  0.00000000000E+00 0.  1.
         25    1    1    2    0    0 -0.17545201683E+03 -0.16609046452E+03 -0.26412997501E+03  0.37915576788E+03  0.12500000000E+03 0.  0.
          3    1    1    2  501    0  0.17499089052E+03  0.12312719394E+03  0.65542758993E+03  0.68946895746E+03  0.00000000000E+00 0. -1.
         -3    1    1    2    0  503  0.46112631634E+00  0.42963270585E+02  0.13264398132E+02  0.44966648915E+02  0.00000000000E+00 0.  1.
<mgrwt>
<rscale>  4 0.24890082E+03</rscale>
<asrwt>0</asrwt>
<pdfrwt beam="1">  1       21 0.11678103E+00 0.24890082E+03</pdfrwt>
<pdfrwt beam="2">  1       21 0.54540720E-01 0.24890082E+03</pdfrwt>
<totfact> 0.17095522E+03</totfact>
</mgrwt>
</event>
<event>
 5    0  0.1972558E-002  0.2495250E+03  0.7546771E-02  0.1113605E+00
         21   -1    0    0  501  502  0.00000000000E+00  0.00000000000E+00  0.25209451889E+03  0.25209451889E+03  0.00000000000E+00 0.  1.
         21   -1    0    0  502  503 -0.00000000000E+00 -0.00000000000E+00 -0.91641592619E+03  0.91641592619E+03  0.00000000000E+00 0.  1.
         25    1    1    2    0    0  0.19774893936E+03 -0.14748029273E+03 -0.75250804696E+03  0.80171593504E+03  0.12500000000E+03 0.  0.
          1    1    1    2  501    0 -0.65495357103E+02  0.63918169516E+02  0.16789592744E+03  0.19121772053E+03  0.00000000000E+00 0.  1.
         -1    1    1    2    0  503 -0.13225358226E+03  0.83562123210E+02 -0.79709287781E+02  0.17557678951E+03  0.00000000000E+00 0. -1.
<mgrwt>
<rscale>  4 0.24952497E+03</rscale>
<asrwt>0</asrwt>
<pdfrwt beam="1">  1       21 0.38783772E-01 0.24952497E+03</pdfrwt>
<pdfrwt beam="2">  1       21 0.14098707E+00 0.24952497E+03</pdfrwt>
<totfact> 0.21474907E+03</totfact>
</mgrwt>
</event>
<event>
 5    0  0.1972558E-002  0.2365588E+03  0.7546771E-02  0.1122107E+00
         21   -1    0    0  501  502  0.00000000000E+00  0.00000000000E+00  0.30830373803E+03  0.30830373803E+03  0.00000000000E+00 0. -1.
         21   -1    0    0  502  503 -0.00000000000E+00 -0.00000000000E+00 -0.91213735521E+03  0.91213735521E+03  0.00000000000E+00 0. -1.
         25    1    1    2    0    0 -0.18168172602E+03  0.95353233977E+02 -0.84139441838E+03  0.87502574596E+03  0.12500000000E+03 0.  0.
          3    1    1    2  501    0  0.13446247368E+03 -0.36432469478E+02  0.23082755074E+03  0.26960867909E+03  0.00000000000E+00 0. -1.
         -3    1    1    2    0  503  0.47219252346E+02 -0.58920764499E+02  0.67332504693E+01  0.75806668197E+02  0.00000000000E+00 0.  1.
<mgrwt>
<rscale>  4 0.23655876E+03</rscale>
<asrwt>0</asrwt>
<pdfrwt beam="1">  1       21 0.47431346E-01 0.23655876E+03</pdfrwt>
<pdfrwt beam="2">  1       21 0.14032882E+00 0.23655876E+03</pdfrwt>
<totfact> 0.14528556E+03</totfact>
</mgrwt>
</event>
<event>
 5    0  0.1972558E-002  0.2517927E+03  0.7546771E-02  0.1112177E+00
         21   -1    0    0  501  502  0.00000000000E+00  0.00000000000E+00  0.38657420004E+02  0.38657420004E+02  0.00000000000E+00 0. -1.
         21   -1    0    0  502  503 -0.00000000000E+00 -0.00000000000E+00 -0.29960207482E+04  0.29960207482E+04  0.00000000000E+00 0. -1.
         25    1    1    2    0    0  0.21464596613E+03  0.11910707790E+02 -0.20550481792E+04  0.20700393172E+04  0.12500000000E+03 0.  0.
          1    1    1    2  501    0 -0.22564160785E+03  0.83795838127E+01 -0.91205497987E+03  0.93958961197E+03  0.00000000000E+00 0. -1.
         -1    1    1    2    0  503  0.10995641720E+02 -0.20290291603E+02  0.97398309140E+01  0.25049239038E+02  0.00000000000E+00 0.  1.
<mgrwt>
<rscale>  4 0.25179270E+03</rscale>
<asrwt>0</asrwt>
<pdfrwt beam="1">  1       21 0.59472953E-02 0.25179270E+03</pdfrwt>
<pdfrwt beam="2">  1       21 0.46092628E+00 0.25179270E+03</pdfrwt>
<totfact> 0.64707391E+02</totfact>
</mgrwt>
</event>
<event>
 5    0  0.1972558E-002  0.5484696E+03  0.7546771E-02  0.1001849E+00
         21   -1    0    0  501  502  0.00000000000E+00  0.00000000000E+00  0.64036923222E+03  0.64036923222E+03  0.00000000000E+00 0. -1.
         21   -1    0    0  502  503 -0.00000000000E+00 -0.00000000000E+00 -0.88534093229E+03  0.88534093229E+03  0.00000000000E+00 0. -1.
         25    1    1    2    0    0  0.42862757971E+03 -0.31854714235E+03 -0.65161693555E+03  0.85171797838E+03  0.12500000000E+03 0.  0.
          3    1    1    2  501    0 -0.39920689722E+03  0.29481854941E+03  0.35580013173E+03  0.61063725534E+03  0.00000000000E+00 0. -1.
         -3    1    1    2    0  503 -0.29420682497E+02  0.23728592940E+02  0.50845103741E+02  0.63354930794E+02  0.00000000000E+00 0.  1.
<mgrwt>
<rscale>  4 0.54846958E+03</rscale>
<asrwt>0</asrwt>
<pdfrwt beam="1">  1       21 0.98518343E-01 0.54846958E+03</pdfrwt>
<pdfrwt beam="2">  1       21 0.13620630E+00 0.54846958E+03</pdfrwt>
<totfact> 0.25740958E+02</totfact>
</mgrwt>
</event>
<event>
 5    0  0.1972558E-002  0.2535674E+03  0.7546771E-02  0.1111071E+00
         21   -1    0    0  501  502  0.00000000000E+00  0.00000000000E+00  0.89983823610E+03  0.89983823610E+03  0.00000000000E+00 0.  1.
         21   -1    0    0  502  503 -0.00000000000E+00 -0.00000000000E+00 -0.37968298107E+03  0.37968298107E+03  0.00000000000E+00 0. -1.
         25    1    1    2    0    0 -0.19340617735E+03 -0.10811881048E+03 -0.31396292135E+03  0.40409570970E+03  0.12500000000E+03 0.  0.
          4    1    1    2  501    0  0.17425997361E+03  0.11667640599E+03  0.52125204399E+03  0.56185729103E+03  0.00000000000E+00 0.  1.
         -4    1    1    2    0  503  0.19146203743E+02 -0.85575955058E+01  0.31286613239E+03  0.31356821643E+03  0.00000000000E+00 0. -1.
<mgrwt>
<rscale>  4 0.25356740E+03</rscale>
<asrwt>0</asrwt>
<pdfrwt beam="1">  1       21 0.13843665E+00 0.25356740E+03</pdfrwt>
<pdfrwt beam="2">  1       21 0.58412767E-01 0.25356740E+03</pdfrwt>
<totfact> 0.95587109E+02</totfact>
</mgrwt>
</event>
<event>
 5    0  0.1972558E-002  0.2599951E+03  0.7546771E-02  0.1107146E+00
         21   -1    0    0  501  502  0.00000000000E+00  0.00000000000E+00  0.89354276025E+03  0.89354276025E+03  0.00000000000E+00 0.  1.
         21   -1    0    0  502  503 -0.00000000000E+00 -0.00000000000E+00 -0.14382668366E+03  0.14382668366E+03  0.00000000000E+00 0.  1.
         25    1    1    2    0    0 -0.13422439332E+03  0.19780735843E+03  0.89973513442E+02  0.28436626371E+03  0.12500000000E+03 0.  0.
          2    1    1    2  501    0  0.88861935451E+01 -0.25014508021E+02  0.45966761736E+03  0.46043350062E+03  0.00000000000E+00 0. -1.
         -2    1    1    2    0  503  0.12533819978E+03 -0.17279285041E+03  0.20007494579E+03  0.29256967958E+03  0.00000000000E+00 0.  1.
<mgrwt>
<rscale>  4 0.25999512E+03</rscale>
<asrwt>0</asrwt>
<pdfrwt beam="1">  1       21 0.13746811E+00 0.25999512E+03</pdfrwt>
<pdfrwt beam="2">  1       21 0.22127183E-01 0.25999512E+03</pdfrwt>
<totfact> 0.68346369E+03</totfact>
</mgrwt>
</event>
<event>
 5    0  0.1972558E-002  0.2889289E+03  0.7546771E-02  0.1090910E+00
         21   -1    0    0  501  502  0.00000000000E+00  0.00000000000E+00  0.19921238936E+04  0.19921238936E+04  0.00000000000E+00 0.  1.
         21   -1    0    0  502  503 -0.00000000000E+00 -0.00000000000E+00 -0.53595963711E+02  0.53595963711E+02  0.00000000000E+00 0.  1.
         25    1    1    2    0    0  0.18031611286E+02  0.24930524930E+03  0.54148691425E+03  0.60935320187E+03  0.12500000000E+03 0.  0.
          3    1    1    2  501    0 -0.61918483497E+02 -0.25819719373E+03  0.13265052917E+04  0.13528177920E+04  0.00000000000E+00 0.  1.
         -3    1    1    2    0  503  0.43886872211E+02  0.88919444323E+01  0.70535723897E+02  0.83548863391E+02  0.00000000000E+00 0. -1.
<mgrwt>
<rscale>  4 0.28892888E+03</rscale>
<asrwt>0</asrwt>
<pdfrwt beam="1">  1       21 0.30648054E+00 0.28892888E+03</pdfrwt>
<pdfrwt beam="2">  1       21 0.82455344E-02 0.28892888E+03</pdfrwt>
<totfact> 0.32408619E+03</totfact>
</mgrwt>
</event>
<event>
 5    0  0.1972558E-002  0.5513794E+03  0.7546771E-02  0.1001175E+00
         21   -1    0    0  501  502  0.00000000000E+00  0.00000000000E+00  0.30404620821E+03  0.30404620821E+03  0.00000000000E+00 0. -1.
         21   -1    0    0  502  503 -0.00000000000E+00 -0.00000000000E+00 -0.15382743723E+04  0.15382743723E+04  0.00000000000E+00 0.  1.
         25    1    1    2    0    0  0.25687483608E+03  0.45091577159E+03 -0.74798450384E+03  0.91892085212E+03  0.12500000000E+03 0.  0.
          2    1    1    2  501    0 -0.28910703711E+03 -0.48059976202E+03 -0.58801187372E+03  0.81259890093E+03  0.00000000000E+00 0.  1.
         -2    1    1    2    0  503  0.32232201036E+02  0.29683990428E+02  0.10176821352E+03  0.11080082741E+03  0.00000000000E+00 0. -1.
<mgrwt>
<rscale>  4 0.55137942E+03</rscale>
<asrwt>0</asrwt>
<pdfrwt beam="1">  1       21 0.46776338E-01 0.55137942E+03</pdfrwt>
<pdfrwt beam="2">  1       21 0.23665760E+00 0.55137942E+03</pdfrwt>
<totfact> 0.26740284E+02</totfact>
</mgrwt>
</event>
<event>
 5    0  0.1972558E-002  0.2421958E+03  0.7546771E-02  0.1118339E+00
         21   -1    0    0  503  502  0.00000000000E+00  0.00000000000E+00  0.58576040837E+02  0.58576040837E+02  0.00000000000E+00 0. -1.
         21   -1    0    0  501  503 -0.00000000000E+00 -0.00000000000E+00 -0.24005372250E+04  0.24005372250E+04  0.00000000000E+00 0. -1.
         25    1    1    2    0    0 -0.43368308511E+02  0.20357275506E+03 -0.20844092135E+04  0.20985017146E+04  0.12500000000E+03 0.  0.
          3    1    1    2  501    0 -0.37336988419E+02 -0.13114195443E+02 -0.16238841281E+02  0.42775376006E+02  0.00000000000E+00 0.  1.
         -3    1    1    2    0  502  0.80705296930E+02 -0.19045855962E+03 -0.24131312939E+03  0.31783617526E+03  0.00000000000E+00 0. -1.
<mgrwt>
<rscale>  4 0.24219583E+03</rscale>
<asrwt>0</asrwt>
<pdfrwt beam="1">  1       21 0.90116972E-02 0.24219583E+03</pdfrwt>
<pdfrwt beam="2">  1       21 0.36931348E+00 0.24219583E+03</pdfrwt>
<totfact> 0.12252585E+03</totfact>
</mgrwt>
</event>
<event>
 5    0  0.1972558E-002  0.2081935E+03  0.7546771E-02  0.1143005E+00
         21   -1    0    0  501  502  0.00000000000E+00  0.00000000000E+00  0.32017466855E+03  0.32017466855E+03  0.00000000000E+00 0. -1.
         21   -1    0    0  502  503 -0.00000000000E+00 -0.00000000000E+00 -0.18672508262E+04  0.18672508262E+04  0.00000000000E+00 0. -1.
         25    1    1    2    0    0 -0.13604259006E+03  0.17922432815E+03 -0.16527449205E+04  0.16726684424E+04  0.12500000000E+03 0.  0.
          2    1    1    2  501    0  0.10213195057E+03 -0.13048342851E+03  0.28289357225E+03  0.32785001703E+03  0.00000000000E+00 0. -1.
         -2    1    1    2    0  503  0.33910639491E+02 -0.48740899643E+02 -0.17722480946E+03  0.18690703534E+03  0.00000000000E+00 0.  1.
<mgrwt>
<rscale>  4 0.20819353E+03</rscale>
<asrwt>0</asrwt>
<pdfrwt beam="1">  1       21 0.49257641E-01 0.20819353E+03</pdfrwt>
<pdfrwt beam="2">  1       21 0.28726936E+00 0.20819353E+03</pdfrwt>
<totfact> 0.15518308E+02</totfact>
</mgrwt>
</event>
<event>
 5    0  0.1972558E-002  0.2645145E+03  0.7546771E-02  0.1104461E+00
         21   -1    0    0  501  502  0.00000000000E+00  0.00000000000E+00  0.18222482704E+04  0.18222482704E+04  0.00000000000E+00 0.  1.
         21   -1    0    0  502  503 -0.00000000000E+00 -0.00000000000E+00 -0.19930624737E+03  0.19930624737E+03  0.00000000000E+00 0. -1.
         25    1    1    2    0    0 -0.60583379221E+02  0.23536953075E+03 -0.43866473074E+02  0.27680034195E+03  0.12500000000E+03 0.  0.
          4    1    1    2  501    0  0.58463192536E+02 -0.20081077124E+03  0.24336026589E+03  0.32088491666E+03  0.00000000000E+00 0. -1.
         -4    1    1    2    0  503  0.21201866850E+01 -0.34558759508E+02  0.14234482302E+04  0.14238692592E+04  0.00000000000E+00 0.  1.
<mgrwt>
<rscale>  4 0.26451452E+03</rscale>
<asrwt>0</asrwt>
<pdfrwt beam="1">  1       21 0.28034588E+00 0.26451452E+03</pdfrwt>
<pdfrwt beam="2">  1       21 0.30662501E-01 0.26451452E+03</pdfrwt>
<totfact> 0.41484364E+02</totfact>
</mgrwt>
</event>
<event>
 5    0  0.1972558E-002  0.2633196E+03  0.7546771E-02  0.1105165E+00
         21   -1    0    0  503  502  0.00000000000E+00  0.00000000000E+00  0.78178333745E+03  0.78178333745E+03  0.00000000000E+00 0.  1.
         21   -1    0    0  501  503 -0.00000000000E+00 -0.00000000000E+00 -0.34508914073E+03  0.34508914073E+03  0.00000000000E+00 0. -1.
         25    1    1    2    0    0  0.22183823534E+03  0.73453668883E+02 -0.24053181656E+03  0.35789411690E+03  0.12500000000E+03 0.  0.
          1    1    1    2  501    0  0.11055921934E+02 -0.10817440603E+03  0.10931505073E+03  0.15418727524E+03  0.00000000000E+00 0. -1.
         -1    1    1    2    0  502 -0.23289415728E+03  0.34720737145E+02  0.56791096255E+03  0.61479108604E+03  0.00000000000E+00 0.  1.
<mgrwt>
<rscale>  4 0.26331961E+03</rscale>
<asrwt>0</asrwt>
<pdfrwt beam="1">  1       21 0.12027436E+00 0.26331961E+03</pdfrwt>
<pdfrwt beam="2">  1       21 0.53090637E-01 0.26331961E+03</pdfrwt>
<totfact> 0.16648592E+03</totfact>
</mgrwt>
</event>
<event>
 5    0  0.1972558E-002  0.1847084E+03  0.7546771E-02  0.1163322E+00
         21   -1    0    0  501  502  0.00000000000E+00  0.00000000000E+00  0.74969637478E+03  0.74969637478E+03  0.00000000000E+00 0.  1.
         21   -1    0    0  502  503 -0.00000000000E+00 -0.00000000000E+00 -0.25960299645E+03  0.25960299645E+03  0.00000000000E+00 0.  1.
         25    1    1    2    0    0 -0.13564089236E+03 -0.16696412160E+03  0.53635282056E+03  0.59124852448E+03  0.12500000000E+03 0.  0.
          3    1    1    2  501    0  0.12826894247E+03  0.39649097673E+02 -0.18566002564E+03  0.22911703924E+03  0.00000000000E+00 0.  1.
         -3    1    1    2    0  503  0.73719498931E+01  0.12731502393E+03  0.13940058341E+03  0.18893380750E+03  0.00000000000E+00 0. -1.
<mgrwt>
<rscale>  4 0.18470841E+03</rscale>
<asrwt>0</asrwt>
<pdfrwt beam="1">  1       21 0.11533790E+00 0.18470841E+03</pdfrwt>
<pdfrwt beam="2">  1       21 0.39938923E-01 0.18470841E+03</pdfrwt>
<totfact> 0.35410714E+03</totfact>
</mgrwt>
</event>
<event>
 5    0  0.1972558E-002  0.2770187E+03  0.7546771E-02  0.1097328E+00
         21   -1    0    0  503  502  0.00000000000E+00  0.00000000000E+00  0.85164029622E+03  0.85164029622E+03  0.00000000000E+00 0. -1.
         21   -1    0    0  501  503 -0.00000000000E+00 -0.00000000000E+00 -0.16110813962E+03  0.16110813962E+03  0.00000000000E+00 0.  1.
         25    1    1    2    0    0 -0.17957310646E+03 -0.20933406861E+03  0.16333961683E+03  0.34405244262E+03  0.12500000000E+03 0.  0.
          1    1    1    2  501    0  0.90690889881E+02 -0.15908402380E+02  0.39736197452E+01  0.92161295713E+02  0.00000000000E+00 0.  1.
         -1    1    1    2    0  502  0.88882216583E+02  0.22524247099E+03  0.52321892002E+03  0.57653469751E+03  0.00000000000E+00 0. -1.
<mgrwt>
<rscale>  4 0.27701870E+03</rscale>
<asrwt>0</asrwt>
<pdfrwt beam="1">  1       21 0.13102158E+00 0.27701870E+03</pdfrwt>
<pdfrwt beam="2">  1       21 0.24785868E-01 0.27701870E+03</pdfrwt>
<totfact> 0.61640139E+03</totfact>
</mgrwt>
</event>
<event>
 5    0  0.1972558E-002  0.3120206E+03  0.7546771E-02  0.1079381E+00
         21   -1    0    0  501  502  0.00000000000E+00  0.00000000000E+00  0.68770100153E+03  0.68770100153E+03  0.00000000000E+00 0.  1.
         21   -1    0    0  502  503 -0.00000000000E+00 -0.00000000000E+00 -0.32607024451E+03  0.32607024451E+03  0.00000000000E+00 0. -1.
         25    1    1    2    0    0  0.47019017343E+02 -0.26016039123E+03  0.27201736834E+03  0.39939036773E+03  0.12500000000E+03 0.  0.
          3    1    1    2  501    0  0.48989218841E+01 -0.26245873941E+02  0.27041162282E+03  0.27172650053E+03  0.00000000000E+00 0.  1.
         -3    1    1    2    0  503 -0.51917939227E+02  0.28640626517E+03 -0.18079823414E+03  0.34265437778E+03  0.00000000000E+00 0. -1.
<mgrwt>
<rscale>  4 0.31202060E+03</rscale>
<asrwt>0</asrwt>
<pdfrwt beam="1">  1       21 0.10580015E+00 0.31202060E+03</pdfrwt>
<pdfrwt beam="2">  1       21 0.50164653E-01 0.31202060E+03</pdfrwt>
<totfact> 0.24976602E+03</totfact>
</mgrwt>
</event>
<event>
 5    0  0.1972558E-002  0.2185570E+03  0.7546771E-02  0.1134963E+00
         21   -1    0    0  501  502  0.00000000000E+00  0.00000000000E+00  0.92119371363E+02  0.92119371363E+02  0.00000000000E+00 0.  1.
         21   -1    0    0  502  503 -0.00000000000E+00 -0.00000000000E+00 -0.93059425789E+03  0.93059425789E+03  0.00000000000E+00 0.  1.
         25    1    1    2    0    0  0.15111790213E+03  0.14685397110E+03 -0.43747544307E+03  0.50141048300E+03  0.12500000000E+03 0.  0.
          1    1    1    2  501    0  0.23622520861E+02 -0.11587438124E+03 -0.28691613068E+03  0.31033169636E+03  0.00000000000E+00 0. -1.
         -1    1    1    2    0  503 -0.17474042299E+03 -0.30979589864E+02 -0.11408331277E+03  0.21097144989E+03  0.00000000000E+00 0.  1.
<mgrwt>
<rscale>  4 0.21855696E+03</rscale>
<asrwt>0</asrwt>
<pdfrwt beam="1">  1       21 0.14172211E-01 0.21855696E+03</pdfrwt>
<pdfrwt beam="2">  1       21 0.14316835E+00 0.21855696E+03</pdfrwt>
<totfact> 0.14427498E+04</totfact>
</mgrwt>
</event>
<event>
 5    0  0.1972558E-002  0.2514340E+03  0.7546771E-02  0.1112402E+00
         21   -1    0    0  501  502  0.00000000000E+00  0.00000000000E+00  0.63846057265E+03  0.63846057265E+03  0.00000000000E+00 0. -1.
         21   -1    0    0  502  503 -0.00000000000E+00 -0.00000000000E+00 -0.12740592361E+03  0.12740592361E+03  0.00000000000E+00 0. -1.
         25    1    1    2    0    0 -0.23035008640E+03  0.12918328311E+02  0.90206951999E+02  0.27747133131E+03  0.12500000000E+03 0.  0.
          1    1    1    2  501    0  0.33035746326E+02 -0.17235466316E+02  0.14175309677E+03  0.14656862652E+03  0.00000000000E+00 0.  1.
         -1    1    1    2    0  503  0.19731434008E+03  0.43171380056E+01  0.27909460027E+03  0.34182653843E+03  0.00000000000E+00 0. -1.
<mgrwt>
<rscale>  4 0.25143397E+03</rscale>
<asrwt>0</asrwt>
<pdfrwt beam="1">  1       21 0.98224702E-01 0.25143397E+03</pdfrwt>
<pdfrwt beam="2">  1       21 0.19600912E-01 0.25143397E+03</pdfrwt>
<totfact> 0.19861133E+04</totfact>
</mgrwt>
</event>
<event>
 5    0  0.1972558E-002  0.2766183E+03  0.7546771E-02  0.1097550E+00
         21   -1    0    0  501  502  0.00000000000E+00  0.00000000000E+00  0.60092602902E+03  0.60092602902E+03  0.00000000000E+00 0. -1.
         21   -1    0    0  502  503 -0.00000000000E+00 -0.00000000000E+00 -0.12593828337E+04  0.12593828337E+04  0.00000000000E+00 0.  1.
         25    1    1    2    0    0 -0.21628652618E+03 -0.11488715612E+03 -0.10863526013E+04  0.11206096084E+04  0.12500000000E+03 0.  0.
          2    1    1    2  501    0 -0.21116107531E+02  0.11070872530E+02  0.47563182578E+03  0.47622902884E+03  0.00000000000E+00 0. -1.
         -2    1    1    2    0  503  0.23740263371E+03  0.10381628359E+03 -0.47736029128E+02  0.26347022547E+03  0.00000000000E+00 0.  1.
<mgrwt>
<rscale>  4 0.27661834E+03</rscale>
<asrwt>0</asrwt>
<pdfrwt beam="1">  1       21 0.92450158E-01 0.27661834E+03</pdfrwt>
<pdfrwt beam="2">  1       21 0.19375120E+00 0.27661834E+03</pdfrwt>
<totfact> 0.13199803E+02</totfact>
</mgrwt>
</event>
<event>
 5    0  0.1972558E-002  0.2277304E+03  0.7546771E-02  0.1128247E+00
         21   -1    0    0  501  502  0.00000000000E+00  0.00000000000E+00  0.84031892585E+03  0.84031892585E+03  0.00000000000E+00 0.  1.
         21   -1    0    0  502  503 -0.00000000000E+00 -0.00000000000E+00 -0.15119143918E+03  0.15119143918E+03  0.00000000000E+00 0.  1.
         25    1    1    2    0    0  0.14822252782E+03 -0.20405111176E+03  0.65752914842E+02  0.28905919770E+03  0.12500000000E+03 0.  0.
          2    1    1    2  501    0 -0.92895237079E+02  0.10425517204E+03  0.11344952830E+03  0.17991515067E+03  0.00000000000E+00 0. -1.
         -2    1    1    2    0  503 -0.55327290739E+02  0.99795939720E+02  0.50992504353E+03  0.52253601666E+03  0.00000000000E+00 0.  1.
<mgrwt>
<rscale>  4 0.22773044E+03</rscale>
<asrwt>0</asrwt>
<pdfrwt beam="1">  1       21 0.12927983E+00 0.22773044E+03</pdfrwt>
<pdfrwt beam="2">  1       21 0.23260222E-01 0.22773044E+03</pdfrwt>
<totfact> 0.74235740E+03</totfact>
</mgrwt>
</event>
<event>
 5    0  0.1972558E-002  0.2647954E+03  0.7546771E-02  0.1104296E+00
         21   -1    0    0  501  502  0.00000000000E+00  0.00000000000E+00  0.19979066072E+03  0.19979066072E+03  0.00000000000E+00 0.  1.
         21   -1    0    0  502  503 -0.00000000000E+00 -0.00000000000E+00 -0.39720787410E+03  0.39720787410E+03  0.00000000000E+00 0.  1.
         25    1    1    2    0    0 -0.23255038466E+03 -0.98625156233E+01 -0.53778384152E+02  0.26961836960E+03  0.12500000000E+03 0.  0.
          4    1    1    2  501    0  0.23396303868E+03 -0.27415041626E+02 -0.71515223829E+02  0.24618024944E+03  0.00000000000E+00 0.  1.
         -4    1    1    2    0  503 -0.14126540183E+01  0.37277557250E+02 -0.72123605408E+02  0.81199915781E+02  0.00000000000E+00 0. -1.
<mgrwt>
<rscale>  4 0.26479536E+03</rscale>
<asrwt>0</asrwt>
<pdfrwt beam="1">  1       21 0.30737025E-01 0.26479536E+03</pdfrwt>
<pdfrwt beam="2">  1       21 0.61108903E-01 0.26479536E+03</pdfrwt>
<totfact> 0.24405425E+04</totfact>
</mgrwt>
</event>
<event>
 5    0  0.1972558E-002  0.2527769E+03  0.7546771E-02  0.1111562E+00
         21   -1    0    0  503  502  0.00000000000E+00  0.00000000000E+00  0.11965105102E+04  0.11965105102E+04  0.00000000000E+00 0.  1.
         21   -1    0    0  501  503 -0.00000000000E+00 -0.00000000000E+00 -0.15970459184E+03  0.15970459184E+03  0.00000000000E+00 0. -1.
         25    1    1    2    0    0 -0.36189714596E+02 -0.25550959737E+03  0.24083943285E+02  0.28774969351E+03  0.12500000000E+03 0.  0.
          1    1    1    2  501    0 -0.52006664161E+02  0.57325354741E+02  0.81844902148E+02  0.11264758063E+03  0.00000000000E+00 0. -1.
         -1    1    1    2    0  502  0.88196378756E+02  0.19818424262E+03  0.93087707297E+03  0.95581782795E+03  0.00000000000E+00 0.  1.
<mgrwt>
<rscale>  4 0.25277689E+03</rscale>
<asrwt>0</asrwt>
<pdfrwt beam="1">  1       21 0.18407853E+00 0.25277689E+03</pdfrwt>
<pdfrwt beam="2">  1       21 0.24569938E-01 0.25277689E+03</pdfrwt>
<totfact> 0.25374274E+03</totfact>
</mgrwt>
</event>
<event>
 5    0  0.1972558E-002  0.2252211E+03  0.7546771E-02  0.1130049E+00
         21   -1    0    0  501  502  0.00000000000E+00  0.00000000000E+00  0.56929085067E+03  0.56929085067E+03  0.00000000000E+00 0.  1.
         21   -1    0    0  502  503 -0.00000000000E+00 -0.00000000000E+00 -0.22048819407E+03  0.22048819407E+03  0.00000000000E+00 0.  1.
         25    1    1    2    0    0  0.21909716920E+03 -0.10169044631E+02 -0.30681253753E+01  0.25247057732E+03  0.12500000000E+03 0.  0.
          2    1    1    2  501    0 -0.18012010060E+03 -0.33700314635E+02  0.41345404883E+03  0.45224242651E+03  0.00000000000E+00 0. -1.
         -2    1    1    2    0  503 -0.38977068596E+02  0.43869359265E+02 -0.61583266854E+02  0.85066040904E+02  0.00000000000E+00 0.  1.
<mgrwt>
<rscale>  4 0.22522107E+03</rscale>
<asrwt>0</asrwt>
<pdfrwt beam="1">  1       21 0.87583207E-01 0.22522107E+03</pdfrwt>
<pdfrwt beam="2">  1       21 0.33921261E-01 0.22522107E+03</pdfrwt>
<totfact> 0.91622675E+03</totfact>
</mgrwt>
</event>
<event>
 5    0  0.1972558E-002  0.2354562E+03  0.7546771E-02  0.1122857E+00
         21   -1    0    0  501  502  0.00000000000E+00  0.00000000000E+00  0.25659171932E+03  0.25659171932E+03  0.00000000000E+00 0.  1.
         21   -1    0    0  502  503 -0.00000000000E+00 -0.00000000000E+00 -0.44586481294E+03  0.44586481294E+03  0.00000000000E+00 0.  1.
         25    1    1    2    0    0 -0.76725872648E+02 -0.18938094631E+03 -0.23513798975E+03  0.33565886937E+03  0.12500000000E+03 0.  0.
          4    1    1    2  501    0  0.47173481795E+02  0.18910582162E+03 -0.99241228048E+02  0.21871252936E+03  0.00000000000E+00 0.  1.
         -4    1    1    2    0  503  0.29552390853E+02  0.27512469335E+00  0.14510612418E+03  0.14808513353E+03  0.00000000000E+00 0. -1.
<mgrwt>
<rscale>  4 0.23545622E+03</rscale>
<asrwt>0</asrwt>
<pdfrwt beam="1">  1       21 0.39475649E-01 0.23545622E+03</pdfrwt>
<pdfrwt beam="2">  1       21 0.68594587E-01 0.23545622E+03</pdfrwt>
<totfact> 0.11667683E+04</totfact>
</mgrwt>
</event>
<event>
 5    0  0.1972558E-002  0.2412993E+03  0.7546771E-02  0.1118930E+00
         21   -1    0    0  501  502  0.00000000000E+00  0.00000000000E+00  0.19128096030E+03  0.19128096030E+03  0.00000000000E+00 0. -1.
         21   -1    0    0  502  503 -0.00000000000E+00 -0.00000000000E+00 -0.40992612295E+03  0.40992612295E+03  0.00000000000E+00 0. -1.
         25    1    1    2    0    0 -0.10590095325E+03  0.16966796287E+03 -0.73331969214E+02  0.24699151247E+03  0.12500000000E+03 0.  0.
          3    1    1    2  501    0 -0.21263416769E+02 -0.25883946687E+01  0.58070409913E+02  0.61895114404E+02  0.00000000000E+00 0.  1.
         -3    1    1    2    0  503  0.12716437002E+03 -0.16707956820E+03 -0.20338360334E+03  0.29232045638E+03  0.00000000000E+00 0. -1.
<mgrwt>
<rscale>  4 0.24129933E+03</rscale>
<asrwt>0</asrwt>
<pdfrwt beam="1">  1       21 0.29427840E-01 0.24129933E+03</pdfrwt>
<pdfrwt beam="2">  1       21 0.63065557E-01 0.24129933E+03</pdfrwt>
<totfact> 0.25088386E+04</totfact>
</mgrwt>
</event>
<event>
 5    0  0.1972558E-002  0.2911483E+03  0.7546771E-02  0.1089751E+00
         21   -1    0    0  501  502  0.00000000000E+00  0.00000000000E+00  0.12790666930E+04  0.12790666930E+04  0.00000000000E+00 0.  1.
         21   -1    0    0  502  503 -0.00000000000E+00 -0.00000000000E+00 -0.10540142638E+03  0.10540142638E+03  0.00000000000E+00 0.  1.
         25    1    1    2    0    0  0.64280002685E+02 -0.32481506367E+03  0.53528980925E+03  0.64171405176E+03  0.12500000000E+03 0.  0.
          3    1    1    2  501    0 -0.41192021610E+02  0.23058018019E+03  0.58905401370E+03  0.63391532021E+03  0.00000000000E+00 0.  1.
         -3    1    1    2    0  503 -0.23087981075E+02  0.94234883485E+02  0.49321443686E+02  0.10883874743E+03  0.00000000000E+00 0. -1.
<mgrwt>
<rscale>  4 0.29114835E+03</rscale>
<asrwt>0</asrwt>
<pdfrwt beam="1">  1       21 0.19677948E+00 0.29114835E+03</pdfrwt>
<pdfrwt beam="2">  1       21 0.16215605E-01 0.29114835E+03</pdfrwt>
<totfact> 0.44433891E+03</totfact>
</mgrwt>
</event>
<event>
 5    0  0.1972558E-002  0.2412536E+03  0.7546771E-02  0.1118961E+00
         21   -1    0    0  501  502  0.00000000000E+00  0.00000000000E+00  0.24826420586E+04  0.24826420586E+04  0.00000000000E+00 0. -1.
         21   -1    0    0  502  503 -0.00000000000E+00 -0.00000000000E+00 -0.55806410825E+02  0.55806410825E+02  0.00000000000E+00 0.  1.
         25    1    1    2    0    0 -0.17272060391E+03  0.12985637183E+03  0.31742424084E+03  0.40382946028E+03  0.12500000000E+03 0.  0.
          2    1    1    2  501    0  0.47000575406E+02  0.11432442732E+02  0.13875815211E+04  0.13884243705E+04  0.00000000000E+00 0. -1.
         -2    1    1    2    0  503  0.12572002851E+03 -0.14128881456E+03  0.72182988586E+03  0.74619463869E+03  0.00000000000E+00 0.  1.
<mgrwt>
<rscale>  4 0.24125363E+03</rscale>
<asrwt>0</asrwt>
<pdfrwt beam="1">  1       21 0.38194485E+00 0.24125363E+03</pdfrwt>
<pdfrwt beam="2">  1       21 0.85856036E-02 0.24125363E+03</pdfrwt>
<totfact> 0.11181592E+03</totfact>
</mgrwt>
</event>
<event>
 5    0  0.1972558E-002  0.2993160E+03  0.7546771E-02  0.1085583E+00
         21   -1    0    0  501  502  0.00000000000E+00  0.00000000000E+00  0.81737691656E+03  0.81737691656E+03  0.00000000000E+00 0. -1.
         21   -1    0    0  502  503 -0.00000000000E+00 -0.00000000000E+00 -0.18094758116E+04  0.18094758116E+04  0.00000000000E+00 0. -1.
         25    1    1    2    0    0 -0.88368621432E+01  0.26855804270E+03 -0.15871103092E+04  0.16145419307E+04  0.12500000000E+03 0.  0.
          1    1    1    2  501    0  0.10351539618E+03 -0.29546783439E+03 -0.85641084834E+02  0.32457830152E+03  0.00000000000E+00 0.  1.
         -1    1    1    2    0  503 -0.94678534040E+02  0.26909791697E+02  0.68065249895E+03  0.68773249597E+03  0.00000000000E+00 0. -1.
<mgrwt>
<rscale>  4 0.29931602E+03</rscale>
<asrwt>0</asrwt>
<pdfrwt beam="1">  1       21 0.12575030E+00 0.29931602E+03</pdfrwt>
<pdfrwt beam="2">  1       21 0.27838089E+00 0.29931602E+03</pdfrwt>
<totfact> 0.18298194E+01</totfact>
</mgrwt>
</event>
<event>
 5    0  0.1972558E-002  0.2716003E+03  0.7546771E-02  0.1100367E+00
         21   -1    0    0  501  502  0.00000000000E+00  0.00000000000E+00  0.40263380352E+03  0.40263380352E+03  0.00000000000E+00 0. -1.
         21   -1    0    0  502  503 -0.00000000000E+00 -0.00000000000E+00 -0.66294649289E+03  0.66294649289E+03  0.00000000000E+00 0. -1.
         25    1    1    2    0    0 -0.12155085690E+03  0.20709635765E+03 -0.56226439185E+03  0.62404307424E+03  0.12500000000E+03 0.  0.
          3    1    1    2  501    0  0.81299831202E+02 -0.24055076291E+03  0.18736421336E+03  0.31556248278E+03  0.00000000000E+00 0. -1.
         -3    1    1    2    0  503  0.40251025701E+02  0.33454405258E+02  0.11458748911E+03  0.12597473938E+03  0.00000000000E+00 0.  1.
<mgrwt>
<rscale>  4 0.27160029E+03</rscale>
<asrwt>0</asrwt>
<pdfrwt beam="1">  1       21 0.61943663E-01 0.27160029E+03</pdfrwt>
<pdfrwt beam="2">  1       21 0.10199177E+00 0.27160029E+03</pdfrwt>
<totfact> 0.17800432E+03</totfact>
</mgrwt>
</event>
<event>
 5    0  0.1972558E-002  0.3344834E+03  0.7546771E-02  0.1069170E+00
         21   -1    0    0  503  502  0.00000000000E+00  0.00000000000E+00  0.54321192058E+03  0.54321192058E+03  0.00000000000E+00 0.  1.
         21   -1    0    0  501  503 -0.00000000000E+00 -0.00000000000E+00 -0.26337136179E+03  0.26337136179E+03  0.00000000000E+00 0.  1.
         25    1    1    2    0    0  0.24027203041E+03 -0.20097207988E+03  0.20520232180E+03  0.39478274831E+03  0.12500000000E+03 0.  0.
          4    1    1    2  501    0 -0.22856887839E+02 -0.18974443913E+02  0.97271859656E+02  0.10170684109E+03  0.00000000000E+00 0. -1.
         -4    1    1    2    0  502 -0.21741514257E+03  0.21994652379E+03 -0.22633622674E+02  0.31009369297E+03  0.00000000000E+00 0.  1.
<mgrwt>
<rscale>  4 0.33448338E+03</rscale>
<asrwt>0</asrwt>
<pdfrwt beam="1">  1       21 0.83571065E-01 0.33448338E+03</pdfrwt>
<pdfrwt beam="2">  1       21 0.40518671E-01 0.33448338E+03</pdfrwt>
<totfact> 0.67424533E+03</totfact>
</mgrwt>
</event>
<event>
 5    0  0.1972558E-002  0.2500079E+03  0.7546771E-02  0.1113300E+00
         21   -1    0    0  501  502  0.00000000000E+00  0.00000000000E+00  0.17775686011E+04  0.17775686011E+04  0.00000000000E+00 0.  1.
         21   -1    0    0  502  503 -0.00000000000E+00 -0.00000000000E+00 -0.58678456617E+02  0.58678456617E+02  0.00000000000E+00 0.  1.
         25    1    1    2    0    0 -0.20901563284E+03  0.67460906908E+02  0.27694027976E+03  0.37491255952E+03  0.12500000000E+03 0.  0.
          4    1    1    2  501    0  0.18812331312E+03 -0.84528291356E+02  0.11689014897E+04  0.11869566570E+04  0.00000000000E+00 0.  1.
         -4    1    1    2    0  503  0.20892319723E+02  0.17067384448E+02  0.27304837502E+03  0.27437784119E+03  0.00000000000E+00 0. -1.
<mgrwt>
<rscale>  4 0.25000789E+03</rscale>
<asrwt>0</asrwt>
<pdfrwt beam="1">  1       21 0.27347205E+00 0.25000789E+03</pdfrwt>
<pdfrwt beam="2">  1       21 0.90274562E-02 0.25000789E+03</pdfrwt>
<totfact> 0.44579938E+03</totfact>
</mgrwt>
</event>
<event>
 5    0  0.1972558E-002  0.2436946E+03  0.7546771E-02  0.1117356E+00
         21   -1    0    0  501  502  0.00000000000E+00  0.00000000000E+00  0.26953940313E+03  0.26953940313E+03  0.00000000000E+00 0. -1.
         21   -1    0    0  502  503 -0.00000000000E+00 -0.00000000000E+00 -0.44231792388E+03  0.44231792388E+03  0.00000000000E+00 0. -1.
         25    1    1    2    0    0  0.25245336711E+03  0.27791056872E+02 -0.24716996758E+03  0.37579653841E+03  0.12500000000E+03 0.  0.
          4    1    1    2  501    0 -0.13156240463E+03  0.88272438212E+02  0.53271941622E+02  0.16714840539E+03  0.00000000000E+00 0.  1.
         -4    1    1    2    0  503 -0.12089096248E+03 -0.11606349508E+03  0.21119505201E+02  0.16891238320E+03  0.00000000000E+00 0. -1.
<mgrwt>
<rscale>  4 0.24369463E+03</rscale>
<asrwt>0</asrwt>
<pdfrwt beam="1">  1       21 0.41467601E-01 0.24369463E+03</pdfrwt>
<pdfrwt beam="2">  1       21 0.68048911E-01 0.24369463E+03</pdfrwt>
<totfact> 0.10694012E+04</totfact>
</mgrwt>
</event>
<event>
 5    0  0.1972558E-002  0.3096330E+03  0.7546771E-02  0.1080522E+00
         21   -1    0    0  501  502  0.00000000000E+00  0.00000000000E+00  0.28734066362E+03  0.28734066362E+03  0.00000000000E+00 0. -1.
         21   -1    0    0  502  503 -0.00000000000E+00 -0.00000000000E+00 -0.43382423618E+03  0.43382423618E+03  0.00000000000E+00 0.  1.
         25    1    1    2    0    0  0.29185222931E+03 -0.27711784203E+02 -0.11826479265E+03  0.33993709406E+03  0.12500000000E+03 0.  0.
          4    1    1    2  501    0 -0.17331291109E+02  0.10536000987E+02  0.82325805168E+02  0.84787494154E+02  0.00000000000E+00 0. -1.
         -4    1    1    2    0  503 -0.27452093820E+03  0.17175783216E+02 -0.11054458508E+03  0.29644031158E+03  0.00000000000E+00 0.  1.
<mgrwt>
<rscale>  4 0.30963297E+03</rscale>
<asrwt>0</asrwt>
<pdfrwt beam="1">  1       21 0.44206256E-01 0.30963297E+03</pdfrwt>
<pdfrwt beam="2">  1       21 0.66742190E-01 0.30963297E+03</pdfrwt>
<totfact> 0.94720657E+03</totfact>
</mgrwt>
</event>
<event>
 5    0  0.1972558E-002  0.2633882E+03  0.7546771E-02  0.1105124E+00
         21   -1    0    0  503  502  0.00000000000E+00  0.00000000000E+00  0.36706894432E+03  0.36706894432E+03  0.00000000000E+00 0.  1.
         21   -1    0    0  501  503 -0.00000000000E+00 -0.00000000000E+00 -0.32934887357E+03  0.32934887357E+03  0.00000000000E+00 0. -1.
         25    1    1    2    0    0  0.87336924546E+02 -0.18954235602E+03 -0.18478638104E+03  0.30549148881E+03  0.12500000000E+03 0.  0.
          2    1    1    2  501    0  0.60758473262E+02  0.36569873024E+01 -0.60818634428E+01  0.61171518636E+02  0.00000000000E+00 0. -1.
         -2    1    1    2    0  502 -0.14809539781E+03  0.18588536872E+03  0.22858831524E+03  0.32975481045E+03  0.00000000000E+00 0.  1.
<mgrwt>
<rscale>  4 0.26338819E+03</rscale>
<asrwt>0</asrwt>
<pdfrwt beam="1">  1       21 0.56472145E-01 0.26338819E+03</pdfrwt>
<pdfrwt beam="2">  1       21 0.50669058E-01 0.26338819E+03</pdfrwt>
<totfact> 0.10476582E+04</totfact>
</mgrwt>
</event>
<event>
 5    0  0.1972558E-002  0.2689273E+03  0.7546771E-02  0.1101895E+00
         21   -1    0    0  501  502  0.00000000000E+00  0.00000000000E+00  0.30398828161E+03  0.30398828161E+03  0.00000000000E+00 0.  1.
         21   -1    0    0  502  503 -0.00000000000E+00 -0.00000000000E+00 -0.10728392169E+04  0.10728392169E+04  0.00000000000E+00 0. -1.
         25    1    1    2    0    0 -0.21432304383E+03  0.10997203887E+03 -0.95774635732E+03  0.99545532367E+03  0.12500000000E+03 0.  0.
          4    1    1    2  501    0  0.18824447946E+03 -0.11356434184E+03  0.31858025332E+02  0.22214359672E+03  0.00000000000E+00 0.  1.
         -4    1    1    2    0  503  0.26078564368E+02  0.35923029722E+01  0.15703739665E+03  0.15922857817E+03  0.00000000000E+00 0. -1.
<mgrwt>
<rscale>  4 0.26892733E+03</rscale>
<asrwt>0</asrwt>
<pdfrwt beam="1">  1       21 0.46767427E-01 0.26892733E+03</pdfrwt>
<pdfrwt beam="2">  1       21 0.16505219E+00 0.26892733E+03</pdfrwt>
<totfact> 0.94417216E+02</totfact>
</mgrwt>
</event>
<event>
 5    0  0.1972558E-002  0.2801812E+03  0.7546771E-02  0.1095590E+00
         21   -1    0    0  501  502  0.00000000000E+00  0.00000000000E+00  0.33313877329E+03  0.33313877329E+03  0.00000000000E+00 0. -1.
         21   -1    0    0  502  503 -0.00000000000E+00 -0.00000000000E+00 -0.34251757366E+03  0.34251757366E+03  0.00000000000E+00 0. -1.
         25    1    1    2    0    0 -0.50204864559E+02 -0.24567451917E+03 -0.20655456255E+03  0.34808947859E+03  0.12500000000E+03 0.  0.
          4    1    1    2  501    0  0.34272618097E+02  0.21848851110E+03  0.13845172269E+03  0.26092282643E+03  0.00000000000E+00 0. -1.
         -4    1    1    2    0  503  0.15932246462E+02  0.27186008062E+02  0.58724039494E+02  0.66644041940E+02  0.00000000000E+00 0.  1.
<mgrwt>
<rscale>  4 0.28018119E+03</rscale>
<asrwt>0</asrwt>
<pdfrwt beam="1">  1       21 0.51252119E-01 0.28018119E+03</pdfrwt>
<pdfrwt beam="2">  1       21 0.52695012E-01 0.28018119E+03</pdfrwt>
<totfact> 0.11754333E+04</totfact>
</mgrwt>
</event>
<event>
 5    0  0.1972558E-002  0.3560531E+03  0.7546771E-02  0.1060158E+00
         21   -1    0    0  501  502  0.00000000000E+00  0.00000000000E+00  0.90936593125E+03  0.90936593125E+03  0.00000000000E+00 0.  1.
         21   -1    0    0  502  503 -0.00000000000E+00 -0.00000000000E+00 -0.43850320617E+03  0.43850320617E+03  0.00000000000E+00 0.  1.
         25    1    1    2    0    0  0.17118714311E+03  0.28887257627E+03 -0.25120353515E+03  0.43758498530E+03  0.12500000000E+03 0.  0.
          4    1    1    2  501    0 -0.14009826406E+03 -0.29558115522E+03  0.19204851802E+03  0.37931303192E+03  0.00000000000E+00 0. -1.
         -4    1    1    2    0  503 -0.31088879049E+02  0.67085789487E+01  0.53001774221E+03  0.53097112021E+03  0.00000000000E+00 0.  1.
<mgrwt>
<rscale>  4 0.35605314E+03</rscale>
<asrwt>0</asrwt>
<pdfrwt beam="1">  1       21 0.13990245E+00 0.35605314E+03</pdfrwt>
<pdfrwt beam="2">  1       21 0.67462032E-01 0.35605314E+03</pdfrwt>
<totfact> 0.63295301E+02</totfact>
</mgrwt>
</event>
<event>
 5    0  0.1972558E-002  0.2946965E+03  0.7546771E-02  0.1087922E+00
         21   -1    0    0  501  502  0.00000000000E+00  0.00000000000E+00  0.73503558426E+02  0.73503558426E+02  0.00000000000E+00 0.  1.
         21   -1    0    0  502  503 -0.00000000000E+00 -0.00000000000E+00 -0.18470054394E+04  0.18470054394E+04  0.00000000000E+00 0.  1.
         25    1    1    2    0    0  0.26138960771E+03  0.75990694082E+02 -0.14206774708E+04  0.14519120458E+04  0.12500000000E+03 0.  0.
          3    1    1    2  501    0 -0.79844140333E+01 -0.50713585121E+02 -0.39157836257E+02  0.64567443217E+02  0.00000000000E+00 0. -1.
         -3    1    1    2    0  503 -0.25340519368E+03 -0.25277108962E+02 -0.31366657390E+03  0.40402950883E+03  0.00000000000E+00 0.  1.
<mgrwt>
<rscale>  4 0.29469646E+03</rscale>
<asrwt>0</asrwt>
<pdfrwt beam="1">  1       21 0.11308241E-01 0.29469646E+03</pdfrwt>
<pdfrwt beam="2">  1       21 0.28415465E+00 0.29469646E+03</pdfrwt>
<totfact> 0.24898994E+03</totfact>
</mgrwt>
</event>
<event>
 5    0  0.1972558E-002  0.2403332E+03  0.7546771E-02  0.1119571E+00
         21   -1    0    0  501  502  0.00000000000E+00  0.00000000000E+00  0.73046815928E+02  0.73046815928E+02  0.00000000000E+00 0.  1.
         21   -1    0    0  502  503 -0.00000000000E+00 -0.00000000000E+00 -0.10122977320E+04  0.10122977320E+04  0.00000000000E+00 0. -1.
         25    1    1    2    0    0  0.19839751421E+03  0.57190866887E+02 -0.56879116361E+03  0.61788409649E+03  0.12500000000E+03 0.  0.
          2    1    1    2  501    0 -0.20196155638E+03 -0.33519409128E+02 -0.38737739281E+03  0.43814753851E+03  0.00000000000E+00 0.  1.
         -2    1    1    2    0  503  0.35640421656E+01 -0.23671457758E+02  0.16917640347E+02  0.29312912920E+02  0.00000000000E+00 0. -1.
<mgrwt>
<rscale>  4 0.24033315E+03</rscale>
<asrwt>0</asrwt>
<pdfrwt beam="1">  1       21 0.11237973E-01 0.24033315E+03</pdfrwt>
<pdfrwt beam="2">  1       21 0.15573810E+00 0.24033315E+03</pdfrwt>
<totfact> 0.17310590E+04</totfact>
</mgrwt>
</event>
<event>
 5    0  0.1972558E-002  0.2620226E+03  0.7546771E-02  0.1105934E+00
         21   -1    0    0  501  502  0.00000000000E+00  0.00000000000E+00  0.24346251827E+03  0.24346251827E+03  0.00000000000E+00 0.  1.
         21   -1    0    0  502  503 -0.00000000000E+00 -0.00000000000E+00 -0.46976689840E+03  0.46976689840E+03  0.00000000000E+00 0. -1.
         25    1    1    2    0    0 -0.21016179294E+03 -0.94142727976E+02 -0.35739740266E+03  0.44315768736E+03  0.12500000000E+03 0.  0.
          1    1    1    2  501    0  0.15926940371E+03  0.72767290642E+02  0.72349450544E+02  0.18946309545E+03  0.00000000000E+00 0. -1.
         -1    1    1    2    0  503  0.50892389234E+02  0.21375437334E+02  0.58743571986E+02  0.80608633860E+02  0.00000000000E+00 0.  1.
<mgrwt>
<rscale>  4 0.26202258E+03</rscale>
<asrwt>0</asrwt>
<pdfrwt beam="1">  1       21 0.37455772E-01 0.26202258E+03</pdfrwt>
<pdfrwt beam="2">  1       21 0.72271830E-01 0.26202258E+03</pdfrwt>
<totfact> 0.11389039E+04</totfact>
</mgrwt>
</event>
<event>
 5    0  0.1972558E-002  0.2818223E+03  0.7546771E-02  0.1094698E+00
         21   -1    0    0  501  502  0.00000000000E+00  0.00000000000E+00  0.72825813698E+02  0.72825813698E+02  0.00000000000E+00 0.  1.
         21   -1    0    0  502  503 -0.00000000000E+00 -0.00000000000E+00 -0.18856039234E+04  0.18856039234E+04  0.00000000000E+00 0. -1.
         25    1    1    2    0    0  0.22310418968E+03  0.92432759883E+02 -0.95906419117E+03  0.99686930805E+03  0.12500000000E+03 0.  0.
          3    1    1    2  501    0  0.63345669506E+02 -0.11798206932E+03 -0.14850135360E+03  0.19996273290E+03  0.00000000000E+00 0. -1.
         -3    1    1    2    0  503 -0.28644985919E+03  0.25549309439E+02 -0.70521256493E+03  0.76159769615E+03  0.00000000000E+00 0.  1.
<mgrwt>
<rscale>  4 0.28182234E+03</rscale>
<asrwt>0</asrwt>
<pdfrwt beam="1">  1       21 0.11203973E-01 0.28182234E+03</pdfrwt>
<pdfrwt beam="2">  1       21 0.29009286E+00 0.28182234E+03</pdfrwt>
<totfact> 0.23594699E+03</totfact>
</mgrwt>
</event>
<event>
 5    0  0.1972558E-002  0.3839938E+03  0.7546771E-02  0.1050410E+00
         21   -1    0    0  503  502  0.00000000000E+00  0.00000000000E+00  0.14948284187E+04  0.14948284187E+04  0.00000000000E+00 0. -1.
         21   -1    0    0  501  503 -0.00000000000E+00 -0.00000000000E+00 -0.16150599926E+03  0.16150599926E+03  0.00000000000E+00 0.  1.
         25    1    1    2    0    0 -0.11620232234E+03  0.33257090587E+03  0.13409748231E+03  0.39713161786E+03  0.12500000000E+03 0.  0.
          3    1    1    2  501    0 -0.24113321579E+02 -0.14453168521E+03  0.38864185147E+03  0.41534726317E+03  0.00000000000E+00 0.  1.
         -3    1    1    2    0  502  0.14031564392E+03 -0.18803922065E+03  0.81058308567E+03  0.84385553692E+03  0.00000000000E+00 0. -1.
<mgrwt>
<rscale>  4 0.38142127E+03</rscale>
<asrwt>0</asrwt>
<pdfrwt beam="1">  1       21 0.22997359E+00 0.38399380E+03</pdfrwt>
<pdfrwt beam="2">  1       21 0.24847078E-01 0.38399380E+03</pdfrwt>
<totfact> 0.11495456E+03</totfact>
</mgrwt>
</event>
<event>
 5    0  0.1972558E-002  0.2399811E+03  0.7546771E-02  0.1119805E+00
         21   -1    0    0  501  502  0.00000000000E+00  0.00000000000E+00  0.42974801690E+03  0.42974801690E+03  0.00000000000E+00 0. -1.
         21   -1    0    0  502  503 -0.00000000000E+00 -0.00000000000E+00 -0.34561869850E+03  0.34561869850E+03  0.00000000000E+00 0. -1.
         25    1    1    2    0    0  0.23323208797E+03 -0.85127202235E+01 -0.38012514891E+02  0.26746892259E+03  0.12500000000E+03 0.  0.
          3    1    1    2  501    0 -0.40477830137E+02  0.17545405756E+02  0.26446761732E+03  0.26812201813E+03  0.00000000000E+00 0. -1.
         -3    1    1    2    0  503 -0.19275425783E+03 -0.90326855328E+01 -0.14232578404E+03  0.23977577468E+03  0.00000000000E+00 0.  1.
<mgrwt>
<rscale>  4 0.23998112E+03</rscale>
<asrwt>0</asrwt>
<pdfrwt beam="1">  1       21 0.66115079E-01 0.23998112E+03</pdfrwt>
<pdfrwt beam="2">  1       21 0.53172108E-01 0.23998112E+03</pdfrwt>
<totfact> 0.68114636E+03</totfact>
</mgrwt>
</event>
<event>
 5    0  0.1972558E-002  0.2450278E+03  0.7546771E-02  0.1116488E+00
         21   -1    0    0  501  502  0.00000000000E+00  0.00000000000E+00  0.15561837321E+04  0.15561837321E+04  0.00000000000E+00 0. -1.
         21   -1    0    0  502  503 -0.00000000000E+00 -0.00000000000E+00 -0.10707598145E+03  0.10707598145E+03  0.00000000000E+00 0.  1.
         25    1    1    2    0    0  0.20775559273E+03  0.64389998405E+02  0.26549254801E+03  0.36526668512E+03  0.12500000000E+03 0.  0.
          2    1    1    2  501    0 -0.19076840197E+03 -0.80636337164E+02  0.13088705538E+03  0.24500249658E+03  0.00000000000E+00 0.  1.
         -2    1    1    2    0  503 -0.16987190762E+02  0.16246338759E+02  0.10527281473E+04  0.10529905319E+04  0.00000000000E+00 0. -1.
<mgrwt>
<rscale>  4 0.24502779E+03</rscale>
<asrwt>0</asrwt>
<pdfrwt beam="1">  1       21 0.23941287E+00 0.24502779E+03</pdfrwt>
<pdfrwt beam="2">  1       21 0.16473229E-01 0.24502779E+03</pdfrwt>
<totfact> 0.24105953E+03</totfact>
</mgrwt>
</event>
<event>
 5    0  0.1972558E-002  0.4515643E+03  0.7546771E-02  0.1027257E+00
         21   -1    0    0  501  502  0.00000000000E+00  0.00000000000E+00  0.19116539516E+03  0.19116539516E+03  0.00000000000E+00 0.  1.
         21   -1    0    0  502  503 -0.00000000000E+00 -0.00000000000E+00 -0.15080695885E+04  0.15080695885E+04  0.00000000000E+00 0. -1.
         25    1    1    2    0    0  0.31323169275E+03 -0.15009587483E+03 -0.57776514449E+03  0.68562411508E+03  0.12500000000E+03 0.  0.
          4    1    1    2  501    0 -0.46281868563E+03  0.23357147018E+03 -0.50714296466E+03  0.72522462317E+03  0.00000000000E+00 0.  1.
         -4    1    1    2    0  503  0.14958699288E+03 -0.83475595350E+02 -0.23199608415E+03  0.28838624537E+03  0.00000000000E+00 0. -1.
<mgrwt>
<rscale>  4 0.45156434E+03</rscale>
<asrwt>0</asrwt>
<pdfrwt beam="1">  1       21 0.29410060E-01 0.45156434E+03</pdfrwt>
<pdfrwt beam="2">  1       21 0.23201071E+00 0.45156434E+03</pdfrwt>
<totfact> 0.77403863E+02</totfact>
</mgrwt>
</event>
<event>
 5    0  0.1972558E-002  0.3958990E+03  0.7546771E-02  0.1045209E+00
         21   -1    0    0  501  502  0.00000000000E+00  0.00000000000E+00  0.57472240227E+03  0.57472240227E+03  0.00000000000E+00 0. -1.
         21   -1    0    0  502  503 -0.00000000000E+00 -0.00000000000E+00 -0.33678289354E+03  0.33678289354E+03  0.00000000000E+00 0. -1.
         25    1    1    2    0    0 -0.20903263996E+03  0.32265625332E+03 -0.67650346727E+02  0.40988202179E+03  0.12500000000E+03 0.  0.
          2    1    1    2  501    0  0.17942271146E+02 -0.19501621097E+02  0.64461760894E+02  0.69696175912E+02  0.00000000000E+00 0.  1.
         -2    1    1    2    0  503  0.19109036881E+03 -0.30315463222E+03  0.24112809457E+03  0.43192709811E+03  0.00000000000E+00 0. -1.
<mgrwt>
<rscale>  4 0.39589902E+03</rscale>
<asrwt>0</asrwt>
<pdfrwt beam="1">  1       21 0.88418831E-01 0.39589902E+03</pdfrwt>
<pdfrwt beam="2">  1       21 0.51812753E-01 0.39589902E+03</pdfrwt>
<totfact> 0.34461122E+03</totfact>
</mgrwt>
</event>
<event>
 5    0  0.1972558E-002  0.2083707E+03  0.7546771E-02  0.1142863E+00
         21   -1    0    0  503  502  0.00000000000E+00  0.00000000000E+00  0.10441328020E+03  0.10441328020E+03  0.00000000000E+00 0. -1.
         21   -1    0    0  501  503 -0.00000000000E+00 -0.00000000000E+00 -0.87443097747E+03  0.87443097747E+03  0.00000000000E+00 0.  1.
         25    1    1    2    0    0  0.20252405570E+03 -0.87654778333E+02 -0.55843359921E+03  0.61332898026E+03  0.12500000000E+03 0.  0.
          1    1    1    2  501    0 -0.13088956401E+03  0.25769959821E+02 -0.23297467642E+03  0.26846483690E+03  0.00000000000E+00 0.  1.
         -1    1    1    2    0  502 -0.71634491685E+02  0.61884818512E+02  0.21390578366E+02  0.97050440515E+02  0.00000000000E+00 0. -1.
<mgrwt>
<rscale>  4 0.20837071E+03</rscale>
<asrwt>0</asrwt>
<pdfrwt beam="1">  1       21 0.16063582E-01 0.20837071E+03</pdfrwt>
<pdfrwt beam="2">  1       21 0.13452784E+00 0.20837071E+03</pdfrwt>
<totfact> 0.13571388E+04</totfact>
</mgrwt>
</event>
<event>
 5    0  0.1972558E-002  0.2489212E+03  0.7546771E-02  0.1113988E+00
         21   -1    0    0  503  502  0.00000000000E+00  0.00000000000E+00  0.43050537741E+03  0.43050537741E+03  0.00000000000E+00 0.  1.
         21   -1    0    0  501  503 -0.00000000000E+00 -0.00000000000E+00 -0.36836557550E+03  0.36836557550E+03  0.00000000000E+00 0.  1.
         25    1    1    2    0    0 -0.11825039236E+03 -0.19814229557E+03 -0.27056791923E+03  0.37692906959E+03  0.12500000000E+03 0.  0.
          4    1    1    2  501    0  0.51223553575E+02  0.15639538267E+03  0.14907583321E+03  0.22205173319E+03  0.00000000000E+00 0. -1.
         -4    1    1    2    0  502  0.67026838781E+02  0.41746912895E+02  0.18363188794E+03  0.19989015013E+03  0.00000000000E+00 0.  1.
<mgrwt>
<rscale>  4 0.24892120E+03</rscale>
<asrwt>0</asrwt>
<pdfrwt beam="1">  1       21 0.66231597E-01 0.24892120E+03</pdfrwt>
<pdfrwt beam="2">  1       21 0.56671627E-01 0.24892120E+03</pdfrwt>
<totfact> 0.58927432E+03</totfact>
</mgrwt>
</event>
<event>
 5    0  0.1972558E-002  0.2133196E+03  0.7546771E-02  0.1138964E+00
         21   -1    0    0  501  502  0.00000000000E+00  0.00000000000E+00  0.47860853184E+02  0.47860853184E+02  0.00000000000E+00 0. -1.
         21   -1    0    0  502  503 -0.00000000000E+00 -0.00000000000E+00 -0.14609851906E+04  0.14609851906E+04  0.00000000000E+00 0. -1.
         25    1    1    2    0    0 -0.20323912970E+03  0.22578846509E+02 -0.83306725004E+03  0.86685753803E+03  0.12500000000E+03 0.  0.
          3    1    1    2  501    0  0.78702797501E+02  0.75231882155E+02 -0.16435029754E+03  0.19714204709E+03  0.00000000000E+00 0.  1.
         -3    1    1    2    0  503  0.12453633220E+03 -0.97810728664E+02 -0.41570678988E+03  0.44484645871E+03  0.00000000000E+00 0. -1.
<mgrwt>
<rscale>  4 0.21331957E+03</rscale>
<asrwt>0</asrwt>
<pdfrwt beam="1">  1       21 0.73632095E-02 0.21331957E+03</pdfrwt>
<pdfrwt beam="2">  1       21 0.22476691E+00 0.21331957E+03</pdfrwt>
<totfact> 0.12813338E+04</totfact>
</mgrwt>
</event>
<event>
 5    0  0.1972558E-002  0.2334855E+03  0.7546771E-02  0.1124210E+00
         21   -1    0    0  503  502  0.00000000000E+00  0.00000000000E+00  0.11418690507E+03  0.11418690507E+03  0.00000000000E+00 0.  1.
         21   -1    0    0  501  503 -0.00000000000E+00 -0.00000000000E+00 -0.77563166345E+03  0.77563166345E+03  0.00000000000E+00 0.  1.
         25    1    1    2    0    0 -0.20447978194E+03  0.80424213045E+02 -0.39681214336E+03  0.47049432769E+03  0.12500000000E+03 0.  0.
          3    1    1    2  501    0  0.62348175326E+02  0.51145400036E+02 -0.19917660627E+03  0.21488245018E+03  0.00000000000E+00 0. -1.
         -3    1    1    2    0  502  0.14213160661E+03 -0.13156961308E+03 -0.65456008748E+02  0.20444179065E+03  0.00000000000E+00 0.  1.
<mgrwt>
<rscale>  4 0.23348550E+03</rscale>
<asrwt>0</asrwt>
<pdfrwt beam="1">  1       21 0.17567217E-01 0.23348550E+03</pdfrwt>
<pdfrwt beam="2">  1       21 0.11932795E+00 0.23348550E+03</pdfrwt>
<totfact> 0.15326122E+04</totfact>
</mgrwt>
</event>
<event>
 5    0  0.1972558E-002  0.2905743E+03  0.7546771E-02  0.1090050E+00
         21   -1    0    0  501  502  0.00000000000E+00  0.00000000000E+00  0.14338124392E+04  0.14338124392E+04  0.00000000000E+00 0.  1.
         21   -1    0    0  502  503 -0.00000000000E+00 -0.00000000000E+00 -0.10634224196E+03  0.10634224196E+03  0.00000000000E+00 0. -1.
         25    1    1    2    0    0 -0.16309851155E+03 -0.22697205125E+03  0.42574162347E+03  0.52440286658E+03  0.12500000000E+03 0.  0.
          3    1    1    2  501    0 -0.18391339200E+01  0.27193029686E+03  0.70211601583E+03  0.75293848915E+03  0.00000000000E+00 0.  1.
         -3    1    1    2    0  503  0.16493764547E+03 -0.44958245603E+02  0.19961255799E+03  0.26281332547E+03  0.00000000000E+00 0. -1.
<mgrwt>
<rscale>  4 0.29057427E+03</rscale>
<asrwt>0</asrwt>
<pdfrwt beam="1">  1       21 0.22058652E+00 0.29057427E+03</pdfrwt>
<pdfrwt beam="2">  1       21 0.16360346E-01 0.29057427E+03</pdfrwt>
<totfact> 0.30756385E+03</totfact>
</mgrwt>
</event>
<event>
 5    0  0.1972558E-002  0.2706987E+03  0.7546771E-02  0.1100880E+00
         21   -1    0    0  501  502  0.00000000000E+00  0.00000000000E+00  0.70006063400E+03  0.70006063400E+03  0.00000000000E+00 0. -1.
         21   -1    0    0  502  503 -0.00000000000E+00 -0.00000000000E+00 -0.32326310524E+03  0.32326310524E+03  0.00000000000E+00 0.  1.
         25    1    1    2    0    0 -0.17835401702E+03 -0.13419883757E+03 -0.12750438893E+03  0.28583535923E+03  0.12500000000E+03 0.  0.
          2    1    1    2  501    0  0.20557178529E+03  0.18454877189E+03  0.51417261998E+02  0.28100132197E+03  0.00000000000E+00 0.  1.
         -2    1    1    2    0  503 -0.27217768277E+02 -0.50349934319E+02  0.45288465569E+03  0.45648705804E+03  0.00000000000E+00 0. -1.
<mgrwt>
<rscale>  4 0.27069874E+03</rscale>
<asrwt>0</asrwt>
<pdfrwt beam="1">  1       21 0.10770164E+00 0.27069874E+03</pdfrwt>
<pdfrwt beam="2">  1       21 0.49732786E-01 0.27069874E+03</pdfrwt>
<totfact> 0.24956352E+03</totfact>
</mgrwt>
</event>
<event>
 5    0  0.1972558E-002  0.2134432E+03  0.7546771E-02  0.1138868E+00
         21   -1    0    0  503  502  0.00000000000E+00  0.00000000000E+00  0.11144594796E+03  0.11144594796E+03  0.00000000000E+00 0. -1.
         21   -1    0    0  501  503 -0.00000000000E+00 -0.00000000000E+00 -0.55507190382E+03  0.55507190382E+03  0.00000000000E+00 0. -1.
         25    1    1    2    0    0  0.17118742979E+03  0.13314089942E+03 -0.25795789385E+03  0.35944249918E+03  0.12500000000E+03 0.  0.
          4    1    1    2  501    0 -0.81431507485E+02 -0.12779052391E+02 -0.22722030863E+02  0.85502545447E+02  0.00000000000E+00 0.  1.
         -4    1    1    2    0  502 -0.89755922303E+02 -0.12036184703E+03 -0.16294603114E+03  0.22157280716E+03  0.00000000000E+00 0. -1.
<mgrwt>
<rscale>  4 0.21344317E+03</rscale>
<asrwt>0</asrwt>
<pdfrwt beam="1">  1       21 0.17145531E-01 0.21344317E+03</pdfrwt>
<pdfrwt beam="2">  1       21 0.85395676E-01 0.21344317E+03</pdfrwt>
<totfact> 0.36010044E+04</totfact>
</mgrwt>
</event>
<event>
 5    0  0.1972558E-002  0.2622482E+03  0.7546771E-02  0.1105800E+00
         21   -1    0    0  501  502  0.00000000000E+00  0.00000000000E+00  0.18322272267E+03  0.18322272267E+03  0.00000000000E+00 0. -1.
         21   -1    0    0  502  503 -0.00000000000E+00 -0.00000000000E+00 -0.14461062134E+04  0.14461062134E+04  0.00000000000E+00 0.  1.
         25    1    1    2    0    0 -0.15467812803E+03  0.15040588123E+03 -0.91201697380E+03  0.94548781743E+03  0.12500000000E+03 0.  0.
          4    1    1    2  501    0  0.18636531021E+03 -0.18058659264E+03 -0.48100454028E+03  0.54654269189E+03  0.00000000000E+00 0.  1.
         -4    1    1    2    0  503 -0.31687182177E+02  0.30180711403E+02  0.13013802338E+03  0.13729842673E+03  0.00000000000E+00 0. -1.
<mgrwt>
<rscale>  4 0.26224817E+03</rscale>
<asrwt>0</asrwt>
<pdfrwt beam="1">  1       21 0.28188111E-01 0.26224817E+03</pdfrwt>
<pdfrwt beam="2">  1       21 0.22247788E+00 0.26224817E+03</pdfrwt>
<totfact> 0.10896351E+03</totfact>
</mgrwt>
</event>
<event>
 5    0  0.1972558E-002  0.2511909E+03  0.7546771E-02  0.1112555E+00
         21   -1    0    0  503  502  0.00000000000E+00  0.00000000000E+00  0.45836844593E+02  0.45836844593E+02  0.00000000000E+00 0. -1.
         21   -1    0    0  501  503 -0.00000000000E+00 -0.00000000000E+00 -0.13801892783E+04  0.13801892783E+04  0.00000000000E+00 0.  1.
         25    1    1    2    0    0  0.16715013275E+03  0.13975941037E+03 -0.94425949902E+03  0.97709920743E+03  0.12500000000E+03 0.  0.
          3    1    1    2  501    0 -0.25093222552E+02 -0.86494643646E+01 -0.71558309058E+02  0.76322176641E+02  0.00000000000E+00 0.  1.
         -3    1    1    2    0  502 -0.14205691020E+03 -0.13110994600E+03 -0.31853462567E+03  0.37260473887E+03  0.00000000000E+00 0. -1.
<mgrwt>
<rscale>  4 0.25119088E+03</rscale>
<asrwt>0</asrwt>
<pdfrwt beam="1">  1       21 0.70518227E-02 0.25119088E+03</pdfrwt>
<pdfrwt beam="2">  1       21 0.21233680E+00 0.25119088E+03</pdfrwt>
<totfact> 0.16058119E+04</totfact>
</mgrwt>
</event>
<event>
 5    0  0.1972558E-002  0.2711700E+03  0.7546771E-02  0.1100612E+00
         21   -1    0    0  501  502  0.00000000000E+00  0.00000000000E+00  0.12947289843E+03  0.12947289843E+03  0.00000000000E+00 0.  1.
         21   -1    0    0  502  503 -0.00000000000E+00 -0.00000000000E+00 -0.78703295251E+03  0.78703295251E+03  0.00000000000E+00 0. -1.
         25    1    1    2    0    0 -0.21706167826E+02 -0.26221816682E+03 -0.45729636411E+03  0.54219414361E+03  0.12500000000E+03 0.  0.
          3    1    1    2  501    0  0.30476941951E+02  0.44142053422E+02  0.26285136863E+02  0.59735025662E+02  0.00000000000E+00 0. -1.
         -3    1    1    2    0  503 -0.87707741244E+01  0.21807611340E+03 -0.22654882683E+03  0.31457668167E+03  0.00000000000E+00 0.  1.
<mgrwt>
<rscale>  4 0.27116999E+03</rscale>
<asrwt>0</asrwt>
<pdfrwt beam="1">  1       21 0.19918908E-01 0.27116999E+03</pdfrwt>
<pdfrwt beam="2">  1       21 0.12108199E+00 0.27116999E+03</pdfrwt>
<totfact> 0.11449347E+04</totfact>
</mgrwt>
</event>
<event>
 5    0  0.1972558E-002  0.2704353E+03  0.7546771E-02  0.1101031E+00
         21   -1    0    0  501  502  0.00000000000E+00  0.00000000000E+00  0.15932480973E+03  0.15932480973E+03  0.00000000000E+00 0. -1.
         21   -1    0    0  502  503 -0.00000000000E+00 -0.00000000000E+00 -0.11369213923E+04  0.11369213923E+04  0.00000000000E+00 0. -1.
         25    1    1    2    0    0 -0.22547423605E+03 -0.70972647034E+02 -0.85720673943E+03  0.89794439799E+03  0.12500000000E+03 0.  0.
          2    1    1    2  501    0  0.23231976456E+03  0.94204839177E+02 -0.19643899122E+03  0.31848909244E+03  0.00000000000E+00 0. -1.
         -2    1    1    2    0  503 -0.68455285080E+01 -0.23232192143E+02  0.76049148073E+02  0.79812711613E+02  0.00000000000E+00 0.  1.
<mgrwt>
<rscale>  4 0.27043530E+03</rscale>
<asrwt>0</asrwt>
<pdfrwt beam="1">  1       21 0.24511508E-01 0.27043530E+03</pdfrwt>
<pdfrwt beam="2">  1       21 0.17491099E+00 0.27043530E+03</pdfrwt>
<totfact> 0.29119444E+03</totfact>
</mgrwt>
</event>
<event>
 5    0  0.1972558E-002  0.2208301E+03  0.7546771E-02  0.1133266E+00
         21   -1    0    0  501  502  0.00000000000E+00  0.00000000000E+00  0.44529641247E+03  0.44529641247E+03  0.00000000000E+00 0. -1.
         21   -1    0    0  502  503 -0.00000000000E+00 -0.00000000000E+00 -0.15799906665E+03  0.15799906665E+03  0.00000000000E+00 0. -1.
         25    1    1    2    0    0 -0.32646634364E+02 -0.19859260880E+03  0.69527784714E+02  0.24690876828E+03  0.12500000000E+03 0.  0.
          2    1    1    2  501    0 -0.44084286094E-02  0.16991057374E+03  0.41590872109E+02  0.17492685252E+03  0.00000000000E+00 0. -1.
         -2    1    1    2    0  503  0.32651042793E+02  0.28682035055E+02  0.17617868900E+03  0.18145985834E+03  0.00000000000E+00 0.  1.
<mgrwt>
<rscale>  4 0.22083010E+03</rscale>
<asrwt>0</asrwt>
<pdfrwt beam="1">  1       21 0.68507140E-01 0.22083010E+03</pdfrwt>
<pdfrwt beam="2">  1       21 0.24307549E-01 0.22083010E+03</pdfrwt>
<totfact> 0.30582756E+04</totfact>
</mgrwt>
</event>
<event>
 5    0  0.1972558E-002  0.2683215E+03  0.7546771E-02  0.1102244E+00
         21   -1    0    0  501  502  0.00000000000E+00  0.00000000000E+00  0.75700126642E+03  0.75700126642E+03  0.00000000000E+00 0. -1.
         21   -1    0    0  502  503 -0.00000000000E+00 -0.00000000000E+00 -0.27025350007E+03  0.27025350007E+03  0.00000000000E+00 0. -1.
         25    1    1    2    0    0 -0.18534909556E+03 -0.97993999658E+02 -0.73167445166E+02  0.25482461857E+03  0.12500000000E+03 0.  0.
          1    1    1    2  501    0  0.25843469771E+03  0.18465717931E+03  0.15784935855E+03  0.35468744952E+03  0.00000000000E+00 0. -1.
         -1    1    1    2    0  503 -0.73085602146E+02 -0.86663179656E+02  0.40206585297E+03  0.41774269841E+03  0.00000000000E+00 0.  1.
<mgrwt>
<rscale>  4 0.26832153E+03</rscale>
<asrwt>0</asrwt>
<pdfrwt beam="1">  1       21 0.11646173E+00 0.26832153E+03</pdfrwt>
<pdfrwt beam="2">  1       21 0.41577462E-01 0.26832153E+03</pdfrwt>
<totfact> 0.29913294E+03</totfact>
</mgrwt>
</event>
<event>
 5    0  0.1972558E-002  0.2408384E+03  0.7546771E-02  0.1119236E+00
         21   -1    0    0  501  502  0.00000000000E+00  0.00000000000E+00  0.11294632842E+03  0.11294632842E+03  0.00000000000E+00 0. -1.
         21   -1    0    0  502  503 -0.00000000000E+00 -0.00000000000E+00 -0.56807387003E+03  0.56807387003E+03  0.00000000000E+00 0. -1.
         25    1    1    2    0    0  0.12581699387E+03 -0.16817889636E+03 -0.30127470351E+03  0.38795038871E+03  0.12500000000E+03 0.  0.
          4    1    1    2  501    0 -0.10440486907E+03  0.17278997451E+03 -0.17153752896E+03  0.26491862112E+03  0.00000000000E+00 0. -1.
         -4    1    1    2    0  503 -0.21412124809E+02 -0.46110781457E+01  0.17684690845E+02  0.28151188621E+02  0.00000000000E+00 0.  1.
<mgrwt>
<rscale>  4 0.24083843E+03</rscale>
<asrwt>0</asrwt>
<pdfrwt beam="1">  1       21 0.17376358E-01 0.24083843E+03</pdfrwt>
<pdfrwt beam="2">  1       21 0.87395980E-01 0.24083843E+03</pdfrwt>
<totfact> 0.32862820E+04</totfact>
</mgrwt>
</event>
<event>
 5    0  0.1972558E-002  0.2470828E+03  0.7546771E-02  0.1115162E+00
         21   -1    0    0  501  502  0.00000000000E+00  0.00000000000E+00  0.27780232786E+03  0.27780232786E+03  0.00000000000E+00 0.  1.
         21   -1    0    0  502  503 -0.00000000000E+00 -0.00000000000E+00 -0.31151077173E+03  0.31151077173E+03  0.00000000000E+00 0.  1.
         25    1    1    2    0    0  0.92130343630E+02  0.20295632505E+03 -0.74648012798E+02  0.26622658753E+03  0.12500000000E+03 0.  0.
          2    1    1    2  501    0  0.47007199807E+02 -0.46804528747E+02  0.86526729968E+02  0.10902850886E+03  0.00000000000E+00 0. -1.
         -2    1    1    2    0  503 -0.13913754344E+03 -0.15615179630E+03 -0.45587161038E+02  0.21405800320E+03  0.00000000000E+00 0.  1.
<mgrwt>
<rscale>  4 0.24708277E+03</rscale>
<asrwt>0</asrwt>
<pdfrwt beam="1">  1       21 0.42738820E-01 0.24708277E+03</pdfrwt>
<pdfrwt beam="2">  1       21 0.47924734E-01 0.24708277E+03</pdfrwt>
<totfact> 0.21277213E+04</totfact>
</mgrwt>
</event>
<event>
 5    0  0.1972558E-002  0.2933205E+03  0.7546771E-02  0.1088628E+00
         21   -1    0    0  501  502  0.00000000000E+00  0.00000000000E+00  0.75538260103E+03  0.75538260103E+03  0.00000000000E+00 0. -1.
         21   -1    0    0  502  503 -0.00000000000E+00 -0.00000000000E+00 -0.11826015422E+03  0.11826015422E+03  0.00000000000E+00 0. -1.
         25    1    1    2    0    0  0.18025613601E+03 -0.19472972841E+03  0.19913243239E+03  0.35452879618E+03  0.12500000000E+03 0.  0.
          4    1    1    2  501    0 -0.13991323402E+03  0.15133919523E+03  0.39622733980E+03  0.44662665602E+03  0.00000000000E+00 0. -1.
         -4    1    1    2    0  503 -0.40342901989E+02  0.43390533180E+02  0.41762674618E+02  0.72487303039E+02  0.00000000000E+00 0.  1.
<mgrwt>
<rscale>  4 0.29332054E+03</rscale>
<asrwt>0</asrwt>
<pdfrwt beam="1">  1       21 0.11621270E+00 0.29332054E+03</pdfrwt>
<pdfrwt beam="2">  1       21 0.18193870E-01 0.29332054E+03</pdfrwt>
<totfact> 0.14872765E+04</totfact>
</mgrwt>
</event>
<event>
 5    0  0.1972558E-002  0.2972158E+03  0.7546771E-02  0.1086641E+00
         21   -1    0    0  501  502  0.00000000000E+00  0.00000000000E+00  0.95813726807E+02  0.95813726807E+02  0.00000000000E+00 0.  1.
         21   -1    0    0  502  503 -0.00000000000E+00 -0.00000000000E+00 -0.33681792115E+04  0.33681792115E+04  0.00000000000E+00 0. -1.
         25    1    1    2    0    0 -0.25707318247E+03 -0.98689865202E+02 -0.30671311195E+04  0.30820033444E+04  0.12500000000E+03 0.  0.
          4    1    1    2  501    0  0.22437659929E+03  0.63190750067E+02 -0.23023425320E+03  0.32763659830E+03  0.00000000000E+00 0.  1.
         -4    1    1    2    0  503  0.32696583184E+02  0.35499115135E+02  0.24999888035E+02  0.54352995585E+02  0.00000000000E+00 0. -1.
<mgrwt>
<rscale>  4 0.29721579E+03</rscale>
<asrwt>0</asrwt>
<pdfrwt beam="1">  1       21 0.14740575E-01 0.29721579E+03</pdfrwt>
<pdfrwt beam="2">  1       21 0.51818135E+00 0.29721579E+03</pdfrwt>
<totfact> 0.48555285E+01</totfact>
</mgrwt>
</event>
<event>
 5    0  0.1972558E-002  0.2716981E+03  0.7546771E-02  0.1100312E+00
         21   -1    0    0  501  502  0.00000000000E+00  0.00000000000E+00  0.44481772531E+03  0.44481772531E+03  0.00000000000E+00 0. -1.
         21   -1    0    0  502  503 -0.00000000000E+00 -0.00000000000E+00 -0.63066827039E+03  0.63066827039E+03  0.00000000000E+00 0.  1.
         25    1    1    2    0    0  0.72161864498E+01  0.24154352917E+03 -0.54507648286E+03  0.60920335028E+03  0.12500000000E+03 0.  0.
          4    1    1    2  501    0  0.20726858645E+02 -0.46251574961E+01  0.14219256840E+03  0.14376968130E+03  0.00000000000E+00 0.  1.
         -4    1    1    2    0  503 -0.27943045095E+02 -0.23691837167E+03  0.21703336937E+03  0.32251296412E+03  0.00000000000E+00 0. -1.
<mgrwt>
<rscale>  4 0.27169811E+03</rscale>
<asrwt>0</asrwt>
<pdfrwt beam="1">  1       21 0.68433496E-01 0.27169811E+03</pdfrwt>
<pdfrwt beam="2">  1       21 0.97025888E-01 0.27169811E+03</pdfrwt>
<totfact> 0.16115250E+03</totfact>
</mgrwt>
</event>
<event>
 5    0  0.1972558E-002  0.2098816E+03  0.7546771E-02  0.1141660E+00
         21   -1    0    0  503  502  0.00000000000E+00  0.00000000000E+00  0.89572003289E+03  0.89572003289E+03  0.00000000000E+00 0.  1.
         21   -1    0    0  501  503 -0.00000000000E+00 -0.00000000000E+00 -0.97673128449E+02  0.97673128449E+02  0.00000000000E+00 0.  1.
         25    1    1    2    0    0 -0.13733917464E+03 -0.16095661346E+03  0.12316660844E+03  0.27488923904E+03  0.12500000000E+03 0.  0.
          4    1    1    2  501    0  0.35381510102E+02  0.34059110451E+02  0.40756562573E+02  0.63819837469E+02  0.00000000000E+00 0. -1.
         -4    1    1    2    0  502  0.10195766454E+03  0.12689750301E+03  0.63412373343E+03  0.65468408483E+03  0.00000000000E+00 0.  1.
<mgrwt>
<rscale>  4 0.20988163E+03</rscale>
<asrwt>0</asrwt>
<pdfrwt beam="1">  1       21 0.13780308E+00 0.20988163E+03</pdfrwt>
<pdfrwt beam="2">  1       21 0.15026636E-01 0.20988163E+03</pdfrwt>
<totfact> 0.14402548E+04</totfact>
</mgrwt>
</event>
<event>
 5    0  0.1972558E-002  0.3220478E+03  0.7546771E-02  0.1074859E+00
         21   -1    0    0  501  502  0.00000000000E+00  0.00000000000E+00  0.25737355330E+03  0.25737355330E+03  0.00000000000E+00 0.  1.
         21   -1    0    0  502  503 -0.00000000000E+00 -0.00000000000E+00 -0.42647222873E+03  0.42647222873E+03  0.00000000000E+00 0. -1.
         25    1    1    2    0    0 -0.27150674618E+03 -0.11637205757E+03 -0.16736501695E+03  0.36179333590E+03  0.12500000000E+03 0.  0.
          4    1    1    2  501    0  0.15439182838E+03 -0.10943974143E+01  0.16049536299E+02  0.15522764570E+03  0.00000000000E+00 0.  1.
         -4    1    1    2    0  503  0.11711491780E+03  0.11746645498E+03 -0.17783194774E+02  0.16682480042E+03  0.00000000000E+00 0. -1.
<mgrwt>
<rscale>  4 0.32172394E+03</rscale>
<asrwt>0</asrwt>
<pdfrwt beam="1">  1       21 0.39595931E-01 0.32204778E+03</pdfrwt>
<pdfrwt beam="2">  1       21 0.65611112E-01 0.32204778E+03</pdfrwt>
<totfact> 0.12273753E+04</totfact>
</mgrwt>
</event>
<event>
 5    0  0.1972558E-002  0.2897691E+03  0.7546771E-02  0.1090470E+00
         21   -1    0    0  503  502  0.00000000000E+00  0.00000000000E+00  0.99548864382E+03  0.99548864382E+03  0.00000000000E+00 0.  1.
         21   -1    0    0  501  503 -0.00000000000E+00 -0.00000000000E+00 -0.13794565742E+03  0.13794565742E+03  0.00000000000E+00 0. -1.
         25    1    1    2    0    0 -0.26799570372E+03 -0.26583855138E+01  0.91366746412E+02  0.30951841072E+03  0.12500000000E+03 0.  0.
          2    1    1    2  501    0  0.25492499112E+02 -0.31060023407E+02  0.24280973544E+03  0.24611208867E+03  0.00000000000E+00 0. -1.
         -2    1    1    2    0  502  0.24250320460E+03  0.33718408920E+02  0.52336650455E+03  0.57780380184E+03  0.00000000000E+00 0.  1.
<mgrwt>
<rscale>  4 0.28976907E+03</rscale>
<asrwt>0</asrwt>
<pdfrwt beam="1">  1       21 0.15315209E+00 0.28976907E+03</pdfrwt>
<pdfrwt beam="2">  1       21 0.21222409E-01 0.28976907E+03</pdfrwt>
<totfact> 0.54644095E+03</totfact>
</mgrwt>
</event>
<event>
 5    0  0.1972558E-002  0.2843026E+03  0.7546771E-02  0.1093362E+00
         21   -1    0    0  501  502  0.00000000000E+00  0.00000000000E+00  0.97839194762E+02  0.97839194762E+02  0.00000000000E+00 0.  1.
         21   -1    0    0  502  503 -0.00000000000E+00 -0.00000000000E+00 -0.12296331014E+04  0.12296331014E+04  0.00000000000E+00 0.  1.
         25    1    1    2    0    0 -0.62974849656E+02 -0.26822242450E+03 -0.59643249474E+03  0.66877935187E+03  0.12500000000E+03 0.  0.
          1    1    1    2  501    0  0.70137193186E+02  0.23130334448E+03 -0.56255655105E+03  0.61228288900E+03  0.00000000000E+00 0.  1.
         -1    1    1    2    0  503 -0.71623435293E+01  0.36919080027E+02  0.27195139182E+02  0.46410055268E+02  0.00000000000E+00 0. -1.
<mgrwt>
<rscale>  4 0.28430265E+03</rscale>
<asrwt>0</asrwt>
<pdfrwt beam="1">  1       21 0.15052184E-01 0.28430265E+03</pdfrwt>
<pdfrwt beam="2">  1       21 0.18917433E+00 0.28430265E+03</pdfrwt>
<totfact> 0.57518914E+03</totfact>
</mgrwt>
</event>
<event>
 5    0  0.1972558E-002  0.3235259E+03  0.7546771E-02  0.1074038E+00
         21   -1    0    0  501  502  0.00000000000E+00  0.00000000000E+00  0.19686919046E+03  0.19686919046E+03  0.00000000000E+00 0.  1.
         21   -1    0    0  502  503 -0.00000000000E+00 -0.00000000000E+00 -0.19009703483E+04  0.19009703483E+04  0.00000000000E+00 0. -1.
         25    1    1    2    0    0  0.32528120122E+03  0.47113224754E+02 -0.14281633504E+04  0.14708171441E+04  0.12500000000E+03 0.  0.
          2    1    1    2  501    0 -0.24814441114E+03 -0.18332063375E+02 -0.40417823117E+03  0.47462801843E+03  0.00000000000E+00 0.  1.
         -2    1    1    2    0  503 -0.77136790081E+02 -0.28781161380E+02  0.12824042375E+03  0.15239437626E+03  0.00000000000E+00 0. -1.
<mgrwt>
<rscale>  4 0.32352588E+03</rscale>
<asrwt>0</asrwt>
<pdfrwt beam="1">  1       21 0.30287567E-01 0.32352588E+03</pdfrwt>
<pdfrwt beam="2">  1       21 0.29245699E+00 0.32352588E+03</pdfrwt>
<totfact> 0.34143006E+02</totfact>
</mgrwt>
</event>
<event>
 5    0  0.1972558E-002  0.3566163E+03  0.7546771E-02  0.1060263E+00
         21   -1    0    0  501  502  0.00000000000E+00  0.00000000000E+00  0.23035458144E+03  0.23035458144E+03  0.00000000000E+00 0. -1.
         21   -1    0    0  502  503 -0.00000000000E+00 -0.00000000000E+00 -0.79248508012E+03  0.79248508012E+03  0.00000000000E+00 0. -1.
         25    1    1    2    0    0 -0.33019388020E+03 -0.13551954738E+02 -0.56480395111E+03  0.66621329707E+03  0.12500000000E+03 0.  0.
          4    1    1    2  501    0  0.23832349318E+03 -0.25412300103E+02 -0.48417794666E+02  0.24451616560E+03  0.00000000000E+00 0.  1.
         -4    1    1    2    0  503  0.91870387020E+02  0.38964254841E+02  0.51091247090E+02  0.11211019889E+03  0.00000000000E+00 0. -1.
<mgrwt>
<rscale>  4 0.35578997E+03</rscale>
<asrwt>0</asrwt>
<pdfrwt beam="1">  1       21 0.35439166E-01 0.35661634E+03</pdfrwt>
<pdfrwt beam="2">  1       21 0.12192078E+00 0.35661634E+03</pdfrwt>
<totfact> 0.35180867E+03</totfact>
</mgrwt>
</event>
<event>
 5    0  0.1972558E-002  0.4468451E+03  0.7546771E-02  0.1028667E+00
         21   -1    0    0  503  502  0.00000000000E+00  0.00000000000E+00  0.76110738869E+03  0.76110738869E+03  0.00000000000E+00 0. -1.
         21   -1    0    0  501  503 -0.00000000000E+00 -0.00000000000E+00 -0.35941401073E+03  0.35941401073E+03  0.00000000000E+00 0. -1.
         25    1    1    2    0    0 -0.37121179311E+03  0.19200687958E+03  0.30208394370E+03  0.53060771403E+03  0.12500000000E+03 0.  0.
          2    1    1    2  501    0  0.35501060963E+02  0.11857933476E+03  0.13266247128E+02  0.12448846242E+03  0.00000000000E+00 0.  1.
         -2    1    1    2    0  502  0.33571073215E+03 -0.31058621434E+03  0.86343187138E+02  0.46542522298E+03  0.00000000000E+00 0. -1.
<mgrwt>
<rscale>  4 0.44684511E+03</rscale>
<asrwt>0</asrwt>
<pdfrwt beam="1">  1       21 0.11709344E+00 0.44684511E+03</pdfrwt>
<pdfrwt beam="2">  1       21 0.55294463E-01 0.44684511E+03</pdfrwt>
<totfact> 0.14825175E+03</totfact>
</mgrwt>
</event>
<event>
 5    0  0.1972558E-002  0.2554371E+03  0.7546771E-02  0.1109916E+00
         21   -1    0    0  501  502  0.00000000000E+00  0.00000000000E+00  0.67078969765E+03  0.67078969765E+03  0.00000000000E+00 0.  1.
         21   -1    0    0  502  503 -0.00000000000E+00 -0.00000000000E+00 -0.44923662509E+03  0.44923662509E+03  0.00000000000E+00 0. -1.
         25    1    1    2    0    0 -0.73889344296E+02  0.22171197804E+03 -0.60170401503E+02  0.27177438000E+03  0.12500000000E+03 0.  0.
          3    1    1    2  501    0  0.36321182889E+02 -0.58522062589E+01  0.52187377502E+03  0.52316891507E+03  0.00000000000E+00 0. -1.
         -3    1    1    2    0  503  0.37568161408E+02 -0.21585977178E+03 -0.24015030096E+03  0.32508302767E+03  0.00000000000E+00 0.  1.
<mgrwt>
<rscale>  4 0.25543710E+03</rscale>
<asrwt>0</asrwt>
<pdfrwt beam="1">  1       21 0.10319842E+00 0.25543710E+03</pdfrwt>
<pdfrwt beam="2">  1       21 0.69113327E-01 0.25543710E+03</pdfrwt>
<totfact> 0.13758182E+03</totfact>
</mgrwt>
</event>
<event>
 5    0  0.1972558E-002  0.3688766E+03  0.7546771E-02  0.1055123E+00
         21   -1    0    0  501  502  0.00000000000E+00  0.00000000000E+00  0.20128612612E+03  0.20128612612E+03  0.00000000000E+00 0. -1.
         21   -1    0    0  502  503 -0.00000000000E+00 -0.00000000000E+00 -0.76243947087E+03  0.76243947087E+03  0.00000000000E+00 0. -1.
         25    1    1    2    0    0  0.33702849462E+03 -0.12339809737E+03 -0.34615338587E+03  0.51406464883E+03  0.12500000000E+03 0.  0.
          1    1    1    2  501    0 -0.32009248274E+03  0.99124325813E+02 -0.23897176347E+03  0.41157299864E+03  0.00000000000E+00 0. -1.
         -1    1    1    2    0  503 -0.16936011885E+02  0.24273771556E+02  0.23971804590E+02  0.38087949530E+02  0.00000000000E+00 0.  1.
<mgrwt>
<rscale>  4 0.36887658E+03</rscale>
<asrwt>0</asrwt>
<pdfrwt beam="1">  1       21 0.30967096E-01 0.36887658E+03</pdfrwt>
<pdfrwt beam="2">  1       21 0.11729838E+00 0.36887658E+03</pdfrwt>
<totfact> 0.50532102E+03</totfact>
</mgrwt>
</event>
<event>
 5    0  0.1972558E-002  0.2628076E+03  0.7546771E-02  0.1105468E+00
         21   -1    0    0  501  502  0.00000000000E+00  0.00000000000E+00  0.56432307003E+03  0.56432307003E+03  0.00000000000E+00 0.  1.
         21   -1    0    0  502  503 -0.00000000000E+00 -0.00000000000E+00 -0.20595841778E+03  0.20595841778E+03  0.00000000000E+00 0. -1.
         25    1    1    2    0    0  0.20124353685E+03  0.13309257657E+03  0.30968572607E+02  0.27348975768E+03  0.12500000000E+03 0.  0.
          1    1    1    2  501    0 -0.17284706933E+03 -0.13921997472E+03  0.62869551854E+02  0.23067486054E+03  0.00000000000E+00 0.  1.
         -1    1    1    2    0  503 -0.28396467528E+02  0.61273981474E+01  0.26452652779E+03  0.26611686959E+03  0.00000000000E+00 0. -1.
<mgrwt>
<rscale>  4 0.26280760E+03</rscale>
<asrwt>0</asrwt>
<pdfrwt beam="1">  1       21 0.86818933E-01 0.26280760E+03</pdfrwt>
<pdfrwt beam="2">  1       21 0.31685911E-01 0.26280760E+03</pdfrwt>
<totfact> 0.10473760E+04</totfact>
</mgrwt>
</event>
<event>
 5    0  0.1972558E-002  0.2443911E+03  0.7546771E-02  0.1116902E+00
         21   -1    0    0  503  502  0.00000000000E+00  0.00000000000E+00  0.11650123135E+03  0.11650123135E+03  0.00000000000E+00 0. -1.
         21   -1    0    0  501  503 -0.00000000000E+00 -0.00000000000E+00 -0.10092346445E+04  0.10092346445E+04  0.00000000000E+00 0.  1.
         25    1    1    2    0    0  0.21168328400E+03 -0.43132659198E+02 -0.80106801442E+03  0.83905017892E+03  0.12500000000E+03 0.  0.
          4    1    1    2  501    0 -0.18271152517E+02  0.71705274625E+02 -0.41507155700E+02  0.84842945480E+02  0.00000000000E+00 0.  1.
         -4    1    1    2    0  502 -0.19341213148E+03 -0.28572615427E+02 -0.50158242979E+02  0.20184275141E+03  0.00000000000E+00 0. -1.
<mgrwt>
<rscale>  4 0.24439113E+03</rscale>
<asrwt>0</asrwt>
<pdfrwt beam="1">  1       21 0.17923266E-01 0.24439113E+03</pdfrwt>
<pdfrwt beam="2">  1       21 0.15526687E+00 0.24439113E+03</pdfrwt>
<totfact> 0.74340528E+03</totfact>
</mgrwt>
</event>
<event>
 5    0  0.1972558E-002  0.3860761E+03  0.7546771E-02  0.1048711E+00
         21   -1    0    0  501  502  0.00000000000E+00  0.00000000000E+00  0.14909724653E+04  0.14909724653E+04  0.00000000000E+00 0. -1.
         21   -1    0    0  502  503 -0.00000000000E+00 -0.00000000000E+00 -0.28808508573E+03  0.28808508573E+03  0.00000000000E+00 0.  1.
         25    1    1    2    0    0 -0.11450531856E+02 -0.42434440831E+03  0.39008187799E+02  0.44423634505E+03  0.12500000000E+03 0.  0.
          2    1    1    2  501    0 -0.54304761917E+02  0.35416002817E+03  0.11836014696E+04  0.12366449659E+04  0.00000000000E+00 0. -1.
         -2    1    1    2    0  503  0.65755293773E+02  0.70184380143E+02 -0.19722277869E+02  0.98176240097E+02  0.00000000000E+00 0.  1.
<mgrwt>
<rscale>  4 0.38607610E+03</rscale>
<asrwt>0</asrwt>
<pdfrwt beam="1">  1       21 0.22938037E+00 0.38607610E+03</pdfrwt>
<pdfrwt beam="2">  1       21 0.44320783E-01 0.38607610E+03</pdfrwt>
<totfact> 0.36263182E+02</totfact>
</mgrwt>
</event>
<event>
 5    0  0.1972558E-002  0.2780909E+03  0.7546771E-02  0.1096736E+00
         21   -1    0    0  501  502  0.00000000000E+00  0.00000000000E+00  0.52154143257E+03  0.52154143257E+03  0.00000000000E+00 0. -1.
         21   -1    0    0  502  503 -0.00000000000E+00 -0.00000000000E+00 -0.21404273304E+03  0.21404273304E+03  0.00000000000E+00 0. -1.
         25    1    1    2    0    0  0.22225700501E+03 -0.97973666162E+02  0.15704710333E+02  0.27362136880E+03  0.12500000000E+03 0.  0.
          2    1    1    2  501    0 -0.24205846292E+03  0.84282408055E+02  0.11056579690E+03  0.27914265031E+03  0.00000000000E+00 0. -1.
         -2    1    1    2    0  503  0.19801457916E+02  0.13691258107E+02  0.18122819229E+03  0.18282014650E+03  0.00000000000E+00 0.  1.
<mgrwt>
<rscale>  4 0.27809091E+03</rscale>
<asrwt>0</asrwt>
<pdfrwt beam="1">  1       21 0.80237143E-01 0.27809091E+03</pdfrwt>
<pdfrwt beam="2">  1       21 0.32929651E-01 0.27809091E+03</pdfrwt>
<totfact> 0.11544799E+04</totfact>
</mgrwt>
</event>
<event>
 5    0  0.1972558E-002  0.2352587E+03  0.7546771E-02  0.1122992E+00
         21   -1    0    0  501  502  0.00000000000E+00  0.00000000000E+00  0.51293082475E+03  0.51293082475E+03  0.00000000000E+00 0. -1.
         21   -1    0    0  502  503 -0.00000000000E+00 -0.00000000000E+00 -0.44337646805E+03  0.44337646805E+03  0.00000000000E+00 0.  1.
         25    1    1    2    0    0 -0.20655685805E+03  0.22470596593E+02 -0.34454417710E+03  0.42131502856E+03  0.12500000000E+03 0.  0.
          3    1    1    2  501    0  0.10229025764E+03  0.93588160377E+02  0.66045185087E+02  0.15357085350E+03  0.00000000000E+00 0.  1.
         -3    1    1    2    0  503  0.10426660040E+03 -0.11605875697E+03  0.34805334870E+03  0.38142141074E+03  0.00000000000E+00 0. -1.
<mgrwt>
<rscale>  4 0.23525873E+03</rscale>
<asrwt>0</asrwt>
<pdfrwt beam="1">  1       21 0.78912434E-01 0.23525873E+03</pdfrwt>
<pdfrwt beam="2">  1       21 0.68211765E-01 0.23525873E+03</pdfrwt>
<totfact> 0.26886887E+03</totfact>
</mgrwt>
</event>
<event>
 5    0  0.1972558E-002  0.2541908E+03  0.7546771E-02  0.1110685E+00
         21   -1    0    0  501  502  0.00000000000E+00  0.00000000000E+00  0.75466738198E+03  0.75466738198E+03  0.00000000000E+00 0.  1.
         21   -1    0    0  502  503 -0.00000000000E+00 -0.00000000000E+00 -0.53808062537E+03  0.53808062537E+03  0.00000000000E+00 0. -1.
         25    1    1    2    0    0  0.21077535794E+03 -0.91043034036E+02 -0.44377237760E+03  0.51504757905E+03  0.12500000000E+03 0.  0.
          3    1    1    2  501    0 -0.17532193578E+03  0.64018128443E+02  0.92887838689E+02  0.20848082048E+03  0.00000000000E+00 0. -1.
         -3    1    1    2    0  503 -0.35453422163E+02  0.27024905593E+02  0.56747129553E+03  0.56921960781E+03  0.00000000000E+00 0.  1.
<mgrwt>
<rscale>  4 0.25419085E+03</rscale>
<asrwt>0</asrwt>
<pdfrwt beam="1">  1       21 0.11610267E+00 0.25419085E+03</pdfrwt>
<pdfrwt beam="2">  1       21 0.82781635E-01 0.25419085E+03</pdfrwt>
<totfact> 0.68799271E+02</totfact>
</mgrwt>
</event>
<event>
 5    0  0.1972558E-002  0.2495782E+03  0.7546771E-02  0.1113572E+00
         21   -1    0    0  501  502  0.00000000000E+00  0.00000000000E+00  0.11315336313E+03  0.11315336313E+03  0.00000000000E+00 0.  1.
         21   -1    0    0  502  503 -0.00000000000E+00 -0.00000000000E+00 -0.12845655044E+04  0.12845655044E+04  0.00000000000E+00 0. -1.
         25    1    1    2    0    0 -0.19584021326E+03 -0.99650403454E+02 -0.81801674373E+03  0.85618922269E+03  0.12500000000E+03 0.  0.
          3    1    1    2  501    0 -0.52433897648E+01  0.31428567114E+02  0.64969557153E+02  0.72362223043E+02  0.00000000000E+00 0.  1.
         -3    1    1    2    0  503  0.20108360303E+03  0.68221836341E+02 -0.41836495473E+03  0.46916742183E+03  0.00000000000E+00 0. -1.
<mgrwt>
<rscale>  4 0.24957817E+03</rscale>
<asrwt>0</asrwt>
<pdfrwt beam="1">  1       21 0.17408210E-01 0.24957817E+03</pdfrwt>
<pdfrwt beam="2">  1       21 0.19762546E+00 0.24957817E+03</pdfrwt>
<totfact> 0.39571956E+03</totfact>
</mgrwt>
</event>
<event>
 5    0  0.1972558E-002  0.2395007E+03  0.7546771E-02  0.1120126E+00
         21   -1    0    0  501  502  0.00000000000E+00  0.00000000000E+00  0.26593326914E+03  0.26593326914E+03  0.00000000000E+00 0. -1.
         21   -1    0    0  502  503 -0.00000000000E+00 -0.00000000000E+00 -0.49222051679E+03  0.49222051679E+03  0.00000000000E+00 0. -1.
         25    1    1    2    0    0  0.16908885634E+01  0.20428588561E+03 -0.40699337990E+03  0.47223319816E+03  0.12500000000E+03 0.  0.
          3    1    1    2  501    0  0.39262471982E+02 -0.97566155279E+02  0.67051335531E+02  0.12472601156E+03  0.00000000000E+00 0.  1.
         -3    1    1    2    0  503 -0.40953360546E+02 -0.10671973033E+03  0.11365479672E+03  0.16119457621E+03  0.00000000000E+00 0. -1.
<mgrwt>
<rscale>  4 0.23950069E+03</rscale>
<asrwt>0</asrwt>
<pdfrwt beam="1">  1       21 0.40912811E-01 0.23950069E+03</pdfrwt>
<pdfrwt beam="2">  1       21 0.75726232E-01 0.23950069E+03</pdfrwt>
<totfact> 0.86829213E+03</totfact>
</mgrwt>
</event>
<event>
 5    0  0.1972558E-002  0.2522996E+03  0.7546771E-02  0.1111860E+00
         21   -1    0    0  501  502  0.00000000000E+00  0.00000000000E+00  0.10336622157E+04  0.10336622157E+04  0.00000000000E+00 0.  1.
         21   -1    0    0  502  503 -0.00000000000E+00 -0.00000000000E+00 -0.37123931467E+03  0.37123931467E+03  0.00000000000E+00 0.  1.
         25    1    1    2    0    0 -0.58748975442E+02  0.21113653427E+03 -0.31151985498E+03  0.40087366871E+03  0.12500000000E+03 0.  0.
          4    1    1    2  501    0  0.72843879659E+02 -0.73591473864E+02  0.48378062486E+03  0.49473793954E+03  0.00000000000E+00 0. -1.
         -4    1    1    2    0  503 -0.14094904217E+02 -0.13754506041E+03  0.49016213115E+03  0.50928992213E+03  0.00000000000E+00 0.  1.
<mgrwt>
<rscale>  4 0.25229958E+03</rscale>
<asrwt>0</asrwt>
<pdfrwt beam="1">  1       21 0.15902496E+00 0.25229958E+03</pdfrwt>
<pdfrwt beam="2">  1       21 0.57113741E-01 0.25229958E+03</pdfrwt>
<totfact> 0.69495082E+02</totfact>
</mgrwt>
</event>
<event>
 5    0  0.1972558E-002  0.2556617E+03  0.7546771E-02  0.1109778E+00
         21   -1    0    0  501  502  0.00000000000E+00  0.00000000000E+00  0.19420482245E+04  0.19420482245E+04  0.00000000000E+00 0.  1.
         21   -1    0    0  502  503 -0.00000000000E+00 -0.00000000000E+00 -0.16307899717E+03  0.16307899717E+03  0.00000000000E+00 0.  1.
         25    1    1    2    0    0 -0.12789457595E+03  0.18489923117E+03 -0.40490898890E+02  0.26040211431E+03  0.12500000000E+03 0.  0.
          3    1    1    2  501    0  0.14578578963E+03 -0.15197675922E+03  0.89256394023E+03  0.91707187243E+03  0.00000000000E+00 0.  1.
         -3    1    1    2    0  503 -0.17891213677E+02 -0.32922471948E+02  0.92689618601E+03  0.92765323496E+03  0.00000000000E+00 0. -1.
<mgrwt>
<rscale>  4 0.25566173E+03</rscale>
<asrwt>0</asrwt>
<pdfrwt beam="1">  1       21 0.29877663E+00 0.25566173E+03</pdfrwt>
<pdfrwt beam="2">  1       21 0.25089078E-01 0.25566173E+03</pdfrwt>
<totfact> 0.48251200E+02</totfact>
</mgrwt>
</event>
<event>
 5    0  0.1972558E-002  0.2153753E+03  0.7546771E-02  0.1137379E+00
         21   -1    0    0  503  502  0.00000000000E+00  0.00000000000E+00  0.24670729710E+03  0.24670729710E+03  0.00000000000E+00 0.  1.
         21   -1    0    0  501  503 -0.00000000000E+00 -0.00000000000E+00 -0.44152733317E+03  0.44152733317E+03  0.00000000000E+00 0. -1.
         25    1    1    2    0    0  0.16846840440E+03  0.13596235910E+03 -0.24784662318E+03  0.35202317394E+03  0.12500000000E+03 0.  0.
          1    1    1    2  501    0 -0.99154072803E+02 -0.10559470351E+03 -0.92723536969E+02  0.17198670260E+03  0.00000000000E+00 0. -1.
         -1    1    1    2    0  502 -0.69314331594E+02 -0.30367655586E+02  0.14575012408E+03  0.16422475373E+03  0.00000000000E+00 0.  1.
<mgrwt>
<rscale>  4 0.21537529E+03</rscale>
<asrwt>0</asrwt>
<pdfrwt beam="1">  1       21 0.37954969E-01 0.21537529E+03</pdfrwt>
<pdfrwt beam="2">  1       21 0.67927281E-01 0.21537529E+03</pdfrwt>
<totfact> 0.13059910E+04</totfact>
</mgrwt>
</event>
<event>
 5    0  0.1972558E-002  0.3286540E+03  0.7546771E-02  0.1071734E+00
         21   -1    0    0  503  502  0.00000000000E+00  0.00000000000E+00  0.60906269406E+03  0.60906269406E+03  0.00000000000E+00 0. -1.
         21   -1    0    0  501  503 -0.00000000000E+00 -0.00000000000E+00 -0.28358447633E+03  0.28358447633E+03  0.00000000000E+00 0.  1.
         25    1    1    2    0    0  0.26428122484E+03  0.88329976499E+02 -0.11277683111E+03  0.32556161350E+03  0.12500000000E+03 0.  0.
          2    1    1    2  501    0  0.32341512112E+02  0.66120641509E+00  0.24318350235E+01  0.32439550262E+02  0.00000000000E+00 0.  1.
         -2    1    1    2    0  502 -0.29662273695E+03 -0.88991182914E+02  0.43582321382E+03  0.53464600664E+03  0.00000000000E+00 0. -1.
<mgrwt>
<rscale>  4 0.32865403E+03</rscale>
<asrwt>0</asrwt>
<pdfrwt beam="1">  1       21 0.93701952E-01 0.32865403E+03</pdfrwt>
<pdfrwt beam="2">  1       21 0.43628381E-01 0.32865403E+03</pdfrwt>
<totfact> 0.44404580E+03</totfact>
</mgrwt>
</event>
<event>
 5    0  0.1972558E-002  0.2596091E+03  0.7546771E-02  0.1107378E+00
         21   -1    0    0  503  502  0.00000000000E+00  0.00000000000E+00  0.10334110251E+04  0.10334110251E+04  0.00000000000E+00 0.  1.
         21   -1    0    0  501  503 -0.00000000000E+00 -0.00000000000E+00 -0.76570143378E+02  0.76570143378E+02  0.00000000000E+00 0.  1.
         25    1    1    2    0    0 -0.50124429499E+01  0.24939255555E+03  0.44751949218E+03  0.52737128025E+03  0.12500000000E+03 0.  0.
          4    1    1    2  501    0 -0.30022856734E+02 -0.36488203330E+02  0.27474608173E+02  0.54659079785E+02  0.00000000000E+00 0. -1.
         -4    1    1    2    0  502  0.35035299684E+02 -0.21290435222E+03  0.48184678136E+03  0.52795080844E+03  0.00000000000E+00 0.  1.
<mgrwt>
<rscale>  4 0.25960914E+03</rscale>
<asrwt>0</asrwt>
<pdfrwt beam="1">  1       21 0.15898630E+00 0.25960914E+03</pdfrwt>
<pdfrwt beam="2">  1       21 0.11780023E-01 0.25960914E+03</pdfrwt>
<totfact> 0.14878923E+04</totfact>
</mgrwt>
</event>
<event>
 5    0  0.1972558E-002  0.2653357E+03  0.7546771E-02  0.1103979E+00
         21   -1    0    0  503  502  0.00000000000E+00  0.00000000000E+00  0.45625575547E+03  0.45625575547E+03  0.00000000000E+00 0. -1.
         21   -1    0    0  501  503 -0.00000000000E+00 -0.00000000000E+00 -0.16892034394E+03  0.16892034394E+03  0.00000000000E+00 0. -1.
         25    1    1    2    0    0  0.84362234471E+02 -0.21831404671E+03  0.26785295603E+02  0.26668419836E+03  0.12500000000E+03 0.  0.
          2    1    1    2  501    0 -0.90898023682E+02  0.18956085116E+03  0.19554852524E+03  0.28711494688E+03  0.00000000000E+00 0. -1.
         -2    1    1    2    0  502  0.65357892110E+01  0.28753195551E+02  0.65001590689E+02  0.71376954173E+02  0.00000000000E+00 0.  1.
<mgrwt>
<rscale>  4 0.26533565E+03</rscale>
<asrwt>0</asrwt>
<pdfrwt beam="1">  1       21 0.70193193E-01 0.26533565E+03</pdfrwt>
<pdfrwt beam="2">  1       21 0.25987745E-01 0.26533565E+03</pdfrwt>
<totfact> 0.24962696E+04</totfact>
</mgrwt>
</event>
<event>
 5    0  0.1972558E-002  0.3561834E+03  0.7546771E-02  0.1060105E+00
         21   -1    0    0  501  502  0.00000000000E+00  0.00000000000E+00  0.49537462527E+03  0.49537462527E+03  0.00000000000E+00 0.  1.
         21   -1    0    0  502  503 -0.00000000000E+00 -0.00000000000E+00 -0.36437386855E+03  0.36437386855E+03  0.00000000000E+00 0.  1.
         25    1    1    2    0    0 -0.13883061889E+03 -0.30521037092E+03 -0.15374260444E+03  0.38947284845E+03  0.12500000000E+03 0.  0.
          4    1    1    2  501    0  0.17185516836E+03  0.28179940052E+03  0.27239478091E+03  0.42795328915E+03  0.00000000000E+00 0.  1.
         -4    1    1    2    0  503 -0.33024549466E+02  0.23410970400E+02  0.12348580248E+02  0.42322356228E+02  0.00000000000E+00 0. -1.
<mgrwt>
<rscale>  4 0.35618345E+03</rscale>
<asrwt>0</asrwt>
<pdfrwt beam="1">  1       21 0.76211481E-01 0.35618345E+03</pdfrwt>
<pdfrwt beam="2">  1       21 0.56057518E-01 0.35618345E+03</pdfrwt>
<totfact> 0.41730748E+03</totfact>
</mgrwt>
</event>
<event>
 5    0  0.1972558E-002  0.2389369E+03  0.7546771E-02  0.1120503E+00
         21   -1    0    0  501  502  0.00000000000E+00  0.00000000000E+00  0.11539665863E+03  0.11539665863E+03  0.00000000000E+00 0. -1.
         21   -1    0    0  502  503 -0.00000000000E+00 -0.00000000000E+00 -0.11446947222E+04  0.11446947222E+04  0.00000000000E+00 0.  1.
         25    1    1    2    0    0 -0.11612478589E+03 -0.17942529452E+03 -0.90181252489E+03  0.93518406331E+03  0.12500000000E+03 0.  0.
          4    1    1    2  501    0  0.32682900654E+02  0.18099387617E+02  0.55618268697E+02  0.67001131633E+02  0.00000000000E+00 0.  1.
         -4    1    1    2    0  503  0.83441885238E+02  0.16132590690E+03 -0.18310380738E+03  0.25790618590E+03  0.00000000000E+00 0. -1.
<mgrwt>
<rscale>  4 0.23893693E+03</rscale>
<asrwt>0</asrwt>
<pdfrwt beam="1">  1       21 0.17753331E-01 0.23893693E+03</pdfrwt>
<pdfrwt beam="2">  1       21 0.17610689E+00 0.23893693E+03</pdfrwt>
<totfact> 0.53687488E+03</totfact>
</mgrwt>
</event>
<event>
 5    0  0.1972558E-002  0.2669177E+03  0.7546771E-02  0.1103057E+00
         21   -1    0    0  501  502  0.00000000000E+00  0.00000000000E+00  0.18955483975E+03  0.18955483975E+03  0.00000000000E+00 0.  1.
         21   -1    0    0  502  503 -0.00000000000E+00 -0.00000000000E+00 -0.31275699378E+04  0.31275699378E+04  0.00000000000E+00 0.  1.
         25    1    1    2    0    0  0.26255192924E+02  0.23942691000E+03 -0.29809708289E+04  0.29932969554E+04  0.12500000000E+03 0.  0.
          4    1    1    2  501    0 -0.17943213560E+01 -0.56874497282E+02  0.11320512756E+03  0.12670173217E+03  0.00000000000E+00 0.  1.
         -4    1    1    2    0  503 -0.24460871568E+02 -0.18255241272E+03 -0.70249396753E+02  0.19712609004E+03  0.00000000000E+00 0. -1.
<mgrwt>
<rscale>  4 0.26691770E+03</rscale>
<asrwt>0</asrwt>
<pdfrwt beam="1">  1       21 0.29162285E-01 0.26691770E+03</pdfrwt>
<pdfrwt beam="2">  1       21 0.48116457E+00 0.26691770E+03</pdfrwt>
<totfact> 0.25412472E+01</totfact>
</mgrwt>
</event>
<event>
 5    0  0.4196007E-002  0.2805320E+03  0.7546771E-02  0.1095399E+00
         21   -1    0    0  503  502  0.00000000000E+00  0.00000000000E+00  0.84710136659E+03  0.84710136659E+03  0.00000000000E+00 0. -1.
         21   -1    0    0  501  503 -0.00000000000E+00 -0.00000000000E+00 -0.12284040623E+04  0.12284040623E+04  0.00000000000E+00 0. -1.
         25    1    1    2    0    0 -0.18821506383E+03  0.96925355409E+02 -0.63226345175E+03  0.67838153512E+03  0.12500000000E+03 0.  0.
          3    1    1    2  501    0  0.23922872266E+03 -0.31643520307E+03 -0.48549984098E+03  0.62695431658E+03  0.00000000000E+00 0.  1.
         -3    1    1    2    0  502 -0.51013658829E+02  0.21950984766E+03  0.73646059704E+03  0.77016957717E+03  0.00000000000E+00 0. -1.
<mgrwt>
<rscale>  4 0.28053198E+03</rscale>
<asrwt>0</asrwt>
<pdfrwt beam="1">  1       21 0.13032329E+00 0.28053198E+03</pdfrwt>
<pdfrwt beam="2">  1       21 0.18898524E+00 0.28053198E+03</pdfrwt>
<totfact> 0.60979780E+01</totfact>
</mgrwt>
</event>
<event>
 5    0  0.1972558E-002  0.4121185E+03  0.7546771E-02  0.1039662E+00
         21   -1    0    0  501  502  0.00000000000E+00  0.00000000000E+00  0.14945947736E+04  0.14945947736E+04  0.00000000000E+00 0.  1.
         21   -1    0    0  502  503 -0.00000000000E+00 -0.00000000000E+00 -0.49885082979E+03  0.49885082979E+03  0.00000000000E+00 0. -1.
         25    1    1    2    0    0  0.36895148256E+03  0.10122103222E+03 -0.22045206761E+03  0.45890631719E+03  0.12500000000E+03 0.  0.
          4    1    1    2  501    0 -0.40828075766E+03 -0.82608576135E+02  0.11452695545E+03  0.43201131634E+03  0.00000000000E+00 0. -1.
         -4    1    1    2    0  503  0.39329275098E+02 -0.18612456089E+02  0.11016690559E+04  0.11025279698E+04  0.00000000000E+00 0.  1.
<mgrwt>
<rscale>  4 0.41211852E+03</rscale>
<asrwt>0</asrwt>
<pdfrwt beam="1">  1       21 0.22993766E+00 0.41211852E+03</pdfrwt>
<pdfrwt beam="2">  1       21 0.76746282E-01 0.41211852E+03</pdfrwt>
<totfact> 0.10697676E+02</totfact>
</mgrwt>
</event>
<event>
 5    0  0.1972558E-002  0.2350401E+03  0.7546771E-02  0.1123142E+00
         21   -1    0    0  501  502  0.00000000000E+00  0.00000000000E+00  0.14969243502E+03  0.14969243502E+03  0.00000000000E+00 0. -1.
         21   -1    0    0  502  503 -0.00000000000E+00 -0.00000000000E+00 -0.48602116631E+03  0.48602116631E+03  0.00000000000E+00 0. -1.
         25    1    1    2    0    0  0.32681371692E+02  0.20680693596E+03 -0.26402956488E+03  0.35940755688E+03  0.12500000000E+03 0.  0.
          4    1    1    2  501    0 -0.44760013327E+02 -0.17583689292E+02  0.34035862539E+02  0.58915913478E+02  0.00000000000E+00 0.  1.
         -4    1    1    2    0  503  0.12078641634E+02 -0.18922324667E+03 -0.10633502894E+03  0.21739013097E+03  0.00000000000E+00 0. -1.
<mgrwt>
<rscale>  4 0.23504014E+03</rscale>
<asrwt>0</asrwt>
<pdfrwt beam="1">  1       21 0.23029605E-01 0.23504014E+03</pdfrwt>
<pdfrwt beam="2">  1       21 0.74772487E-01 0.23504014E+03</pdfrwt>
<totfact> 0.27708232E+04</totfact>
</mgrwt>
</event>
<event>
 5    0  0.1972558E-002  0.3437153E+03  0.7546771E-02  0.1065224E+00
         21   -1    0    0  501  502  0.00000000000E+00  0.00000000000E+00  0.44529284233E+03  0.44529284233E+03  0.00000000000E+00 0. -1.
         21   -1    0    0  502  503 -0.00000000000E+00 -0.00000000000E+00 -0.36966911623E+03  0.36966911623E+03  0.00000000000E+00 0.  1.
         25    1    1    2    0    0  0.88808439449E+02 -0.30726982192E+03 -0.80314995183E+02  0.35267149138E+03  0.12500000000E+03 0.  0.
          4    1    1    2  501    0 -0.13867171774E+03  0.29171973688E+03  0.28134396303E+02  0.32422491336E+03  0.00000000000E+00 0.  1.
         -4    1    1    2    0  503  0.49863278295E+02  0.15550085043E+02  0.12780432499E+03  0.13806555382E+03  0.00000000000E+00 0. -1.
<mgrwt>
<rscale>  4 0.34371532E+03</rscale>
<asrwt>0</asrwt>
<pdfrwt beam="1">  1       21 0.68506591E-01 0.34371532E+03</pdfrwt>
<pdfrwt beam="2">  1       21 0.56872172E-01 0.34371532E+03</pdfrwt>
<totfact> 0.51703201E+03</totfact>
</mgrwt>
</event>
<event>
 5    0  0.1972558E-002  0.3284287E+03  0.7546771E-02  0.1071834E+00
         21   -1    0    0  501  502  0.00000000000E+00  0.00000000000E+00  0.73492380446E+03  0.73492380446E+03  0.00000000000E+00 0. -1.
         21   -1    0    0  502  503 -0.00000000000E+00 -0.00000000000E+00 -0.39265643990E+03  0.39265643990E+03  0.00000000000E+00 0. -1.
         25    1    1    2    0    0 -0.20164008019E+03  0.22532728793E+03 -0.25000783718E+03  0.41177667161E+03  0.12500000000E+03 0.  0.
          1    1    1    2  501    0  0.22388010538E+03 -0.21576877005E+03  0.33373738913E+03  0.45613496754E+03  0.00000000000E+00 0. -1.
         -1    1    1    2    0  503 -0.22240025186E+02 -0.95585178808E+01  0.25853781261E+03  0.25966860521E+03  0.00000000000E+00 0.  1.
<mgrwt>
<rscale>  4 0.32842872E+03</rscale>
<asrwt>0</asrwt>
<pdfrwt beam="1">  1       21 0.11306520E+00 0.32842872E+03</pdfrwt>
<pdfrwt beam="2">  1       21 0.60408683E-01 0.32842872E+03</pdfrwt>
<totfact> 0.14117901E+03</totfact>
</mgrwt>
</event>
<event>
 5    0  0.1972558E-002  0.2455074E+03  0.7546771E-02  0.1116177E+00
         21   -1    0    0  501  502  0.00000000000E+00  0.00000000000E+00  0.23398127905E+03  0.23398127905E+03  0.00000000000E+00 0. -1.
         21   -1    0    0  502  503 -0.00000000000E+00 -0.00000000000E+00 -0.30292158021E+03  0.30292158021E+03  0.00000000000E+00 0. -1.
         25    1    1    2    0    0  0.11481009334E+03 -0.17863649722E+03 -0.11994569365E+03  0.27405168326E+03  0.12500000000E+03 0.  0.
          1    1    1    2  501    0 -0.13677270527E+03  0.16058233505E+03  0.77352300533E+01  0.21107650987E+03  0.00000000000E+00 0. -1.
         -1    1    1    2    0  503  0.21962611937E+02  0.18054162176E+02  0.43270162434E+02  0.51774666122E+02  0.00000000000E+00 0.  1.
<mgrwt>
<rscale>  4 0.24550738E+03</rscale>
<asrwt>0</asrwt>
<pdfrwt beam="1">  1       21 0.35997120E-01 0.24550738E+03</pdfrwt>
<pdfrwt beam="2">  1       21 0.46603320E-01 0.24550738E+03</pdfrwt>
<totfact> 0.31960146E+04</totfact>
</mgrwt>
</event>
<event>
 5    0  0.1972558E-002  0.2930617E+03  0.7546771E-02  0.1088761E+00
         21   -1    0    0  503  502  0.00000000000E+00  0.00000000000E+00  0.38563612053E+03  0.38563612053E+03  0.00000000000E+00 0.  1.
         21   -1    0    0  501  503 -0.00000000000E+00 -0.00000000000E+00 -0.28918875892E+03  0.28918875892E+03  0.00000000000E+00 0.  1.
         25    1    1    2    0    0  0.17276486206E+03  0.20367504994E+03 -0.10731370109E+03  0.31380320899E+03  0.12500000000E+03 0.  0.
          3    1    1    2  501    0  0.21814469541E+02 -0.28478114569E+02  0.19263494471E+02  0.40718009652E+02  0.00000000000E+00 0. -1.
         -3    1    1    2    0  502 -0.19457933160E+03 -0.17519693537E+03  0.18449756823E+03  0.32030366081E+03  0.00000000000E+00 0.  1.
<mgrwt>
<rscale>  4 0.29306172E+03</rscale>
<asrwt>0</asrwt>
<pdfrwt beam="1">  1       21 0.59328634E-01 0.29306172E+03</pdfrwt>
<pdfrwt beam="2">  1       21 0.44490578E-01 0.29306172E+03</pdfrwt>
<totfact> 0.12184553E+04</totfact>
</mgrwt>
</event>
<event>
 5    0  0.1972558E-002  0.2570241E+03  0.7546771E-02  0.1108945E+00
         21   -1    0    0  501  502  0.00000000000E+00  0.00000000000E+00  0.78581923708E+03  0.78581923708E+03  0.00000000000E+00 0. -1.
         21   -1    0    0  502  503 -0.00000000000E+00 -0.00000000000E+00 -0.79283626480E+03  0.79283626480E+03  0.00000000000E+00 0.  1.
         25    1    1    2    0    0  0.21013398135E+03  0.68203929924E+02 -0.65510942292E+03  0.70256773494E+03  0.12500000000E+03 0.  0.
          4    1    1    2  501    0  0.46007241710E+01  0.64782718041E+02  0.61836339967E+03  0.62176463495E+03  0.00000000000E+00 0. -1.
         -4    1    1    2    0  503 -0.21473470552E+03 -0.13298664797E+03  0.29728995525E+02  0.25432313199E+03  0.00000000000E+00 0.  1.
<mgrwt>
<rscale>  4 0.25702408E+03</rscale>
<asrwt>0</asrwt>
<pdfrwt beam="1">  1       21 0.12089527E+00 0.25702408E+03</pdfrwt>
<pdfrwt beam="2">  1       21 0.12197481E+00 0.25702408E+03</pdfrwt>
<totfact> 0.24536055E+02</totfact>
</mgrwt>
</event>
<event>
 5    0  0.1972558E-002  0.2800386E+03  0.7546771E-02  0.1095668E+00
         21   -1    0    0  501  502  0.00000000000E+00  0.00000000000E+00  0.38470947926E+03  0.38470947926E+03  0.00000000000E+00 0.  1.
         21   -1    0    0  502  503 -0.00000000000E+00 -0.00000000000E+00 -0.26673169096E+03  0.26673169096E+03  0.00000000000E+00 0. -1.
         25    1    1    2    0    0 -0.32757934387E+02 -0.24844218963E+03 -0.11431218677E+03  0.30247128773E+03  0.12500000000E+03 0.  0.
          1    1    1    2  501    0  0.68407975984E+01  0.30245248298E+02  0.67594696769E+02  0.74368101950E+02  0.00000000000E+00 0. -1.
         -1    1    1    2    0  503  0.25917136788E+02  0.21819694133E+03  0.16469527830E+03  0.27460178055E+03  0.00000000000E+00 0.  1.
<mgrwt>
<rscale>  4 0.28003858E+03</rscale>
<asrwt>0</asrwt>
<pdfrwt beam="1">  1       21 0.59186073E-01 0.28003858E+03</pdfrwt>
<pdfrwt beam="2">  1       21 0.41035645E-01 0.28003858E+03</pdfrwt>
<totfact> 0.14550490E+04</totfact>
</mgrwt>
</event>
<event>
 5    0  0.1972558E-002  0.3283488E+03  0.7546771E-02  0.1071870E+00
         21   -1    0    0  501  502  0.00000000000E+00  0.00000000000E+00  0.37820913071E+03  0.37820913071E+03  0.00000000000E+00 0.  1.
         21   -1    0    0  502  503 -0.00000000000E+00 -0.00000000000E+00 -0.39394781523E+03  0.39394781523E+03  0.00000000000E+00 0.  1.
         25    1    1    2    0    0 -0.29924244418E+03 -0.66660817525E+02  0.73671724928E+02  0.33917875530E+03  0.12500000000E+03 0.  0.
          1    1    1    2  501    0  0.11588283106E+02 -0.27908365316E+02  0.80344862780E+02  0.85839746826E+02  0.00000000000E+00 0. -1.
         -1    1    1    2    0  503  0.28765416107E+03  0.94569182840E+02 -0.16975527223E+03  0.34713844381E+03  0.00000000000E+00 0.  1.
<mgrwt>
<rscale>  4 0.32834882E+03</rscale>
<asrwt>0</asrwt>
<pdfrwt beam="1">  1       21 0.58186020E-01 0.32834882E+03</pdfrwt>
<pdfrwt beam="2">  1       21 0.60607356E-01 0.32834882E+03</pdfrwt>
<totfact> 0.64905222E+03</totfact>
</mgrwt>
</event>
<event>
 5    0  0.1972558E-002  0.2743347E+03  0.7546771E-02  0.1098824E+00
         21   -1    0    0  501  502  0.00000000000E+00  0.00000000000E+00  0.65346504456E+03  0.65346504456E+03  0.00000000000E+00 0.  1.
         21   -1    0    0  502  503 -0.00000000000E+00 -0.00000000000E+00 -0.44600872011E+03  0.44600872011E+03  0.00000000000E+00 0.  1.
         25    1    1    2    0    0 -0.20162061453E+03 -0.16208285816E+03 -0.34625227725E+03  0.44993039974E+03  0.12500000000E+03 0.  0.
          1    1    1    2  501    0  0.17328783986E+02  0.10808289411E+03  0.36201503526E+03  0.37820243853E+03  0.00000000000E+00 0.  1.
         -1    1    1    2    0  503  0.18429183055E+03  0.53999964043E+02  0.19169356645E+03  0.27134092640E+03  0.00000000000E+00 0. -1.
<mgrwt>
<rscale>  4 0.27433471E+03</rscale>
<asrwt>0</asrwt>
<pdfrwt beam="1">  1       21 0.10053308E+00 0.27433471E+03</pdfrwt>
<pdfrwt beam="2">  1       21 0.68616726E-01 0.27433471E+03</pdfrwt>
<totfact> 0.14691717E+03</totfact>
</mgrwt>
</event>
<event>
 5    0  0.1972558E-002  0.2900732E+03  0.7546771E-02  0.1090311E+00
         21   -1    0    0  503  502  0.00000000000E+00  0.00000000000E+00  0.47659627417E+03  0.47659627417E+03  0.00000000000E+00 0. -1.
         21   -1    0    0  501  503 -0.00000000000E+00 -0.00000000000E+00 -0.45280108409E+03  0.45280108409E+03  0.00000000000E+00 0. -1.
         25    1    1    2    0    0  0.14437086921E+02 -0.29234347671E+03 -0.25343857372E+03  0.40685285854E+03  0.12500000000E+03 0.  0.
          1    1    1    2  501    0 -0.53994604667E+02  0.21516431165E+03 -0.10440886914E+02  0.22208131498E+03  0.00000000000E+00 0. -1.
         -1    1    1    2    0  502  0.39557517747E+02  0.77179165054E+02  0.28767465071E+03  0.30046318475E+03  0.00000000000E+00 0.  1.
<mgrwt>
<rscale>  4 0.29007317E+03</rscale>
<asrwt>0</asrwt>
<pdfrwt beam="1">  1       21 0.73322503E-01 0.29007317E+03</pdfrwt>
<pdfrwt beam="2">  1       21 0.69661706E-01 0.29007317E+03</pdfrwt>
<totfact> 0.29242533E+03</totfact>
</mgrwt>
</event>
<event>
 5    0  0.1972558E-002  0.2776612E+03  0.7546771E-02  0.1096973E+00
         21   -1    0    0  501  502  0.00000000000E+00  0.00000000000E+00  0.12867515257E+03  0.12867515257E+03  0.00000000000E+00 0. -1.
         21   -1    0    0  502  503 -0.00000000000E+00 -0.00000000000E+00 -0.79262154191E+03  0.79262154191E+03  0.00000000000E+00 0.  1.
         25    1    1    2    0    0 -0.50735302208E+02 -0.25289897678E+03 -0.37947498115E+03  0.47556095789E+03  0.12500000000E+03 0.  0.
          1    1    1    2  501    0 -0.38832742967E+02  0.24247429481E+03 -0.24634920236E+03  0.34783573001E+03  0.00000000000E+00 0. -1.
         -1    1    1    2    0  503  0.89568045175E+02  0.10424681975E+02 -0.38122205827E+02  0.97900006577E+02  0.00000000000E+00 0.  1.
<mgrwt>
<rscale>  4 0.27766123E+03</rscale>
<asrwt>0</asrwt>
<pdfrwt beam="1">  1       21 0.19796177E-01 0.27766123E+03</pdfrwt>
<pdfrwt beam="2">  1       21 0.12194178E+00 0.27766123E+03</pdfrwt>
<totfact> 0.11340853E+04</totfact>
</mgrwt>
</event>
<event>
 5    0  0.1972558E-002  0.2663915E+03  0.7546771E-02  0.1103363E+00
         21   -1    0    0  501  502  0.00000000000E+00  0.00000000000E+00  0.11725897155E+04  0.11725897155E+04  0.00000000000E+00 0. -1.
         21   -1    0    0  502  503 -0.00000000000E+00 -0.00000000000E+00 -0.22536484556E+03  0.22536484556E+03  0.00000000000E+00 0. -1.
         25    1    1    2    0    0  0.16595261652E+03  0.17037018185E+03 -0.11802495595E+03  0.29346406939E+03  0.12500000000E+03 0.  0.
          3    1    1    2  501    0 -0.13783508217E+03 -0.16852908809E+03  0.59813481585E+03  0.63652637128E+03  0.00000000000E+00 0. -1.
         -3    1    1    2    0  503 -0.28117534341E+02 -0.18410937607E+01  0.46711501006E+03  0.46796412040E+03  0.00000000000E+00 0.  1.
<mgrwt>
<rscale>  4 0.26639147E+03</rscale>
<asrwt>0</asrwt>
<pdfrwt beam="1">  1       21 0.18039841E+00 0.26639147E+03</pdfrwt>
<pdfrwt beam="2">  1       21 0.34671515E-01 0.26639147E+03</pdfrwt>
<totfact> 0.13563087E+03</totfact>
</mgrwt>
</event>
<event>
 5    0  0.1972558E-002  0.2427712E+03  0.7546771E-02  0.1117960E+00
         21   -1    0    0  503  502  0.00000000000E+00  0.00000000000E+00  0.33676669587E+03  0.33676669587E+03  0.00000000000E+00 0.  1.
         21   -1    0    0  501  503 -0.00000000000E+00 -0.00000000000E+00 -0.45195027056E+03  0.45195027056E+03  0.00000000000E+00 0.  1.
         25    1    1    2    0    0 -0.12734457119E+03 -0.18667024407E+03 -0.32889297577E+03  0.41816026753E+03  0.12500000000E+03 0.  0.
          2    1    1    2  501    0  0.10243086459E+03  0.65390113013E+02 -0.23387162782E+01  0.12154595220E+03  0.00000000000E+00 0. -1.
         -2    1    1    2    0  502  0.24913706593E+02  0.12128013105E+03  0.21604811735E+03  0.24901074671E+03  0.00000000000E+00 0.  1.
<mgrwt>
<rscale>  4 0.24277124E+03</rscale>
<asrwt>0</asrwt>
<pdfrwt beam="1">  1       21 0.51810261E-01 0.24277124E+03</pdfrwt>
<pdfrwt beam="2">  1       21 0.69530811E-01 0.24277124E+03</pdfrwt>
<totfact> 0.64277510E+03</totfact>
</mgrwt>
</event>
<event>
 5    0  0.1972558E-002  0.3529578E+03  0.7546771E-02  0.1061408E+00
         21   -1    0    0  501  502  0.00000000000E+00  0.00000000000E+00  0.58686849286E+03  0.58686849286E+03  0.00000000000E+00 0.  1.
         21   -1    0    0  502  503 -0.00000000000E+00 -0.00000000000E+00 -0.34523903375E+03  0.34523903375E+03  0.00000000000E+00 0. -1.
         25    1    1    2    0    0  0.27039204704E+03  0.18932070083E+03 -0.17090611556E+03  0.39215824255E+03  0.12500000000E+03 0.  0.
          2    1    1    2  501    0 -0.81228787970E+02 -0.41729385176E+01  0.71879795834E+02  0.10854600158E+03  0.00000000000E+00 0. -1.
         -2    1    1    2    0  503 -0.18916325907E+03 -0.18514776231E+03  0.34065577884E+03  0.43140328248E+03  0.00000000000E+00 0.  1.
<mgrwt>
<rscale>  4 0.35295777E+03</rscale>
<asrwt>0</asrwt>
<pdfrwt beam="1">  1       21 0.90287461E-01 0.35295777E+03</pdfrwt>
<pdfrwt beam="2">  1       21 0.53113697E-01 0.35295777E+03</pdfrwt>
<totfact> 0.31693068E+03</totfact>
</mgrwt>
</event>
<event>
 5    0  0.1972558E-002  0.2571321E+03  0.7546771E-02  0.1108879E+00
         21   -1    0    0  501  502  0.00000000000E+00  0.00000000000E+00  0.77664297105E+03  0.77664297105E+03  0.00000000000E+00 0. -1.
         21   -1    0    0  502  503 -0.00000000000E+00 -0.00000000000E+00 -0.47403760960E+03  0.47403760960E+03  0.00000000000E+00 0. -1.
         25    1    1    2    0    0 -0.22293500526E+03  0.41479469440E+02 -0.39678509757E+03  0.47379740039E+03  0.12500000000E+03 0.  0.
          2    1    1    2  501    0  0.21350897730E+03  0.13148645116E+02  0.27261579091E+03  0.34652321669E+03  0.00000000000E+00 0.  1.
         -2    1    1    2    0  503  0.94260279615E+01 -0.54628114556E+02  0.42677466812E+03  0.43035996357E+03  0.00000000000E+00 0. -1.
<mgrwt>
<rscale>  4 0.25713205E+03</rscale>
<asrwt>0</asrwt>
<pdfrwt beam="1">  1       21 0.11948353E+00 0.25713205E+03</pdfrwt>
<pdfrwt beam="2">  1       21 0.72928863E-01 0.25713205E+03</pdfrwt>
<totfact> 0.85174946E+02</totfact>
</mgrwt>
</event>
<event>
 5    0  0.1972558E-002  0.2584180E+03  0.7546771E-02  0.1108097E+00
         21   -1    0    0  503  502  0.00000000000E+00  0.00000000000E+00  0.40397033545E+03  0.40397033545E+03  0.00000000000E+00 0.  1.
         21   -1    0    0  501  503 -0.00000000000E+00 -0.00000000000E+00 -0.22841440714E+03  0.22841440714E+03  0.00000000000E+00 0.  1.
         25    1    1    2    0    0  0.22334553055E+03  0.56359130696E+02  0.47732755446E+02  0.26638880151E+03  0.12500000000E+03 0.  0.
          3    1    1    2  501    0  0.47595950289E+01 -0.84850171844E+02  0.10486130547E+03  0.13497443755E+03  0.00000000000E+00 0. -1.
         -3    1    1    2    0  502 -0.22810512557E+03  0.28491041148E+02  0.22961867385E+02  0.23102150353E+03  0.00000000000E+00 0.  1.
<mgrwt>
<rscale>  4 0.25841805E+03</rscale>
<asrwt>0</asrwt>
<pdfrwt beam="1">  1       21 0.62149282E-01 0.25841805E+03</pdfrwt>
<pdfrwt beam="2">  1       21 0.35140678E-01 0.25841805E+03</pdfrwt>
<totfact> 0.18089389E+04</totfact>
</mgrwt>
</event>
<event>
 5    0  0.1972558E-002  0.2597208E+03  0.7546771E-02  0.1107311E+00
         21   -1    0    0  503  502  0.00000000000E+00  0.00000000000E+00  0.33165639471E+03  0.33165639471E+03  0.00000000000E+00 0.  1.
         21   -1    0    0  501  503 -0.00000000000E+00 -0.00000000000E+00 -0.68034613405E+03  0.68034613405E+03  0.00000000000E+00 0. -1.
         25    1    1    2    0    0  0.14127796241E+03 -0.17852291962E+03 -0.60931199359E+03  0.66235640031E+03  0.12500000000E+03 0.  0.
          1    1    1    2  501    0 -0.25698053615E+02  0.41165892354E+02  0.28752175499E+02  0.56406633021E+02  0.00000000000E+00 0. -1.
         -1    1    1    2    0  502 -0.11557990880E+03  0.13735702727E+03  0.23187007876E+03  0.29323949543E+03  0.00000000000E+00 0.  1.
<mgrwt>
<rscale>  4 0.25972080E+03</rscale>
<asrwt>0</asrwt>
<pdfrwt beam="1">  1       21 0.51024061E-01 0.25972080E+03</pdfrwt>
<pdfrwt beam="2">  1       21 0.10466864E+00 0.25972080E+03</pdfrwt>
<totfact> 0.25528420E+03</totfact>
</mgrwt>
</event>
<event>
 5    0  0.1972558E-002  0.2382925E+03  0.7546771E-02  0.1120936E+00
         21   -1    0    0  503  502  0.00000000000E+00  0.00000000000E+00  0.32428592730E+03  0.32428592730E+03  0.00000000000E+00 0. -1.
         21   -1    0    0  501  503 -0.00000000000E+00 -0.00000000000E+00 -0.20522961596E+03  0.20522961596E+03  0.00000000000E+00 0. -1.
         25    1    1    2    0    0  0.93716802374E+02 -0.17993189671E+03 -0.72572843632E+02  0.24909866345E+03  0.12500000000E+03 0.  0.
          4    1    1    2  501    0 -0.33751857957E+01  0.24156560069E+02  0.27595624137E+02  0.36830011472E+02  0.00000000000E+00 0.  1.
         -4    1    1    2    0  502 -0.90341616578E+02  0.15577533664E+03  0.16403353083E+03  0.24358686834E+03  0.00000000000E+00 0. -1.
<mgrwt>
<rscale>  4 0.23829252E+03</rscale>
<asrwt>0</asrwt>
<pdfrwt beam="1">  1       21 0.49890143E-01 0.23829252E+03</pdfrwt>
<pdfrwt beam="2">  1       21 0.31573787E-01 0.23829252E+03</pdfrwt>
<totfact> 0.36090688E+04</totfact>
</mgrwt>
</event>
<event>
 5    0  0.1972558E-002  0.3280340E+03  0.7546771E-02  0.1072010E+00
         21   -1    0    0  501  502  0.00000000000E+00  0.00000000000E+00  0.38935467564E+03  0.38935467564E+03  0.00000000000E+00 0.  1.
         21   -1    0    0  502  503 -0.00000000000E+00 -0.00000000000E+00 -0.36110342257E+03  0.36110342257E+03  0.00000000000E+00 0.  1.
         25    1    1    2    0    0  0.27268773953E+03  0.56993359301E+02 -0.10983917327E+03  0.32449420685E+03  0.12500000000E+03 0.  0.
          4    1    1    2  501    0 -0.28788414698E+03 -0.13374354810E+03  0.14173301059E+03  0.34763898664E+03  0.00000000000E+00 0.  1.
         -4    1    1    2    0  503  0.15196407448E+02  0.76750188799E+02 -0.36425842582E+01  0.78324904725E+02  0.00000000000E+00 0. -1.
<mgrwt>
<rscale>  4 0.32803403E+03</rscale>
<asrwt>0</asrwt>
<pdfrwt beam="1">  1       21 0.59900720E-01 0.32803403E+03</pdfrwt>
<pdfrwt beam="2">  1       21 0.55554372E-01 0.32803403E+03</pdfrwt>
<totfact> 0.73579220E+03</totfact>
</mgrwt>
</event>
<event>
 5    0  0.1972558E-002  0.2457250E+03  0.7546771E-02  0.1116037E+00
         21   -1    0    0  501  502  0.00000000000E+00  0.00000000000E+00  0.52501140985E+03  0.52501140985E+03  0.00000000000E+00 0. -1.
         21   -1    0    0  502  503 -0.00000000000E+00 -0.00000000000E+00 -0.30534538936E+03  0.30534538936E+03  0.00000000000E+00 0.  1.
         25    1    1    2    0    0  0.59141164329E+02  0.21190822591E+03 -0.18382694013E+03  0.31276207802E+03  0.12500000000E+03 0.  0.
          2    1    1    2  501    0  0.41792046361E+02 -0.17687947175E+03  0.35796026481E+03  0.40145793534E+03  0.00000000000E+00 0. -1.
         -2    1    1    2    0  503 -0.10093321069E+03 -0.35028754163E+02  0.45532695823E+02  0.11613678585E+03  0.00000000000E+00 0.  1.
<mgrwt>
<rscale>  4 0.24572496E+03</rscale>
<asrwt>0</asrwt>
<pdfrwt beam="1">  1       21 0.80770986E-01 0.24572496E+03</pdfrwt>
<pdfrwt beam="2">  1       21 0.46976214E-01 0.24572496E+03</pdfrwt>
<totfact> 0.56247481E+03</totfact>
</mgrwt>
</event>
<event>
 5    0  0.1972558E-002  0.4074742E+03  0.7546771E-02  0.1041222E+00
         21   -1    0    0  501  502  0.00000000000E+00  0.00000000000E+00  0.31780705657E+03  0.31780705657E+03  0.00000000000E+00 0. -1.
         21   -1    0    0  502  503 -0.00000000000E+00 -0.00000000000E+00 -0.13539206994E+04  0.13539206994E+04  0.00000000000E+00 0.  1.
         25    1    1    2    0    0  0.27718366018E+03 -0.29440668316E+03 -0.10167325538E+04  0.11013065706E+04  0.12500000000E+03 0.  0.
          1    1    1    2  501    0  0.18154437570E+02  0.10298026162E+03  0.14758469766E+03  0.18087498686E+03  0.00000000000E+00 0.  1.
         -1    1    1    2    0  503 -0.29533809775E+03  0.19142642153E+03 -0.16696578672E+03  0.38954619852E+03  0.00000000000E+00 0. -1.
<mgrwt>
<rscale>  4 0.40747425E+03</rscale>
<asrwt>0</asrwt>
<pdfrwt beam="1">  1       21 0.48893393E-01 0.40747425E+03</pdfrwt>
<pdfrwt beam="2">  1       21 0.20829549E+00 0.40747425E+03</pdfrwt>
<totfact> 0.39697822E+02</totfact>
</mgrwt>
</event>
<event>
 5    0  0.1972558E-002  0.2314925E+03  0.7546771E-02  0.1125594E+00
         21   -1    0    0  501  502  0.00000000000E+00  0.00000000000E+00  0.56284365339E+03  0.56284365339E+03  0.00000000000E+00 0. -1.
         21   -1    0    0  502  503 -0.00000000000E+00 -0.00000000000E+00 -0.10281918149E+03  0.10281918149E+03  0.00000000000E+00 0. -1.
         25    1    1    2    0    0  0.18282416718E+03  0.84994237255E+02  0.18016883041E+03  0.29788337302E+03  0.12500000000E+03 0.  0.
          1    1    1    2  501    0 -0.17469360837E+01 -0.28723638860E+02  0.10834496401E+03  0.11210142926E+03  0.00000000000E+00 0.  1.
         -1    1    1    2    0  503 -0.18107723110E+03 -0.56270598395E+02  0.17151067748E+03  0.25567803260E+03  0.00000000000E+00 0. -1.
<mgrwt>
<rscale>  4 0.23149254E+03</rscale>
<asrwt>0</asrwt>
<pdfrwt beam="1">  1       21 0.86591329E-01 0.23149254E+03</pdfrwt>
<pdfrwt beam="2">  1       21 0.15818336E-01 0.23149254E+03</pdfrwt>
<totfact> 0.40097511E+04</totfact>
</mgrwt>
</event>
<event>
 5    0  0.1972558E-002  0.3252647E+03  0.7546771E-02  0.1073252E+00
         21   -1    0    0  501  502  0.00000000000E+00  0.00000000000E+00  0.31852586775E+03  0.31852586775E+03  0.00000000000E+00 0. -1.
         21   -1    0    0  502  503 -0.00000000000E+00 -0.00000000000E+00 -0.80479465048E+03  0.80479465048E+03  0.00000000000E+00 0. -1.
         25    1    1    2    0    0 -0.22722275538E+03 -0.20520775819E+03 -0.63864224976E+03  0.71918657368E+03  0.12500000000E+03 0.  0.
          2    1    1    2  501    0  0.19143118080E+03  0.20163907309E+03  0.33630684847E+02  0.28006291390E+03  0.00000000000E+00 0. -1.
         -2    1    1    2    0  503  0.35791574583E+02  0.35686851078E+01  0.11874278219E+03  0.12407103065E+03  0.00000000000E+00 0.  1.
<mgrwt>
<rscale>  4 0.32526467E+03</rscale>
<asrwt>0</asrwt>
<pdfrwt beam="1">  1       21 0.49003980E-01 0.32526467E+03</pdfrwt>
<pdfrwt beam="2">  1       21 0.12381456E+00 0.32526467E+03</pdfrwt>
<totfact> 0.17630612E+03</totfact>
</mgrwt>
</event>
<event>
 5    0  0.1972558E-002  0.2384403E+03  0.7546771E-02  0.1120836E+00
         21   -1    0    0  501  502  0.00000000000E+00  0.00000000000E+00  0.90998675030E+03  0.90998675030E+03  0.00000000000E+00 0. -1.
         21   -1    0    0  502  503 -0.00000000000E+00 -0.00000000000E+00 -0.23268076292E+03  0.23268076292E+03  0.00000000000E+00 0. -1.
         25    1    1    2    0    0 -0.29179783866E+03  0.18893685995E+03  0.55403236951E+03  0.66589787667E+03  0.12500000000E+03 0.  0.
          2    1    1    2  501    0  0.15550068391E+03 -0.57640539550E+02  0.21083646401E+03  0.26824412212E+03  0.00000000000E+00 0.  1.
         -2    1    1    2    0  503  0.13629715475E+03 -0.13129632040E+03 -0.87562846138E+02  0.20852551443E+03  0.00000000000E+00 0. -1.
<mgrwt>
<rscale>  4 0.23844030E+03</rscale>
<asrwt>0</asrwt>
<pdfrwt beam="1">  1       21 0.13999796E+00 0.23844030E+03</pdfrwt>
<pdfrwt beam="2">  1       21 0.35797041E-01 0.23844030E+03</pdfrwt>
<totfact> 0.25911500E+03</totfact>
</mgrwt>
</event>
<event>
 5    0  0.1972558E-002  0.2333765E+03  0.7546771E-02  0.1124286E+00
         21   -1    0    0  501  502  0.00000000000E+00  0.00000000000E+00  0.13357348439E+03  0.13357348439E+03  0.00000000000E+00 0. -1.
         21   -1    0    0  502  503 -0.00000000000E+00 -0.00000000000E+00 -0.90893247724E+03  0.90893247724E+03  0.00000000000E+00 0. -1.
         25    1    1    2    0    0 -0.35923928330E+02 -0.20919204316E+03 -0.70800707078E+03  0.74963381182E+03  0.12500000000E+03 0.  0.
          1    1    1    2  501    0 -0.58374169394E+02  0.14579625565E+03  0.67910593600E+01  0.15719481639E+03  0.00000000000E+00 0. -1.
         -1    1    1    2    0  503  0.94298097725E+02  0.63395787513E+02 -0.74142981431E+02  0.13567733342E+03  0.00000000000E+00 0.  1.
<mgrwt>
<rscale>  4 0.23337650E+03</rscale>
<asrwt>0</asrwt>
<pdfrwt beam="1">  1       21 0.20549767E-01 0.23337650E+03</pdfrwt>
<pdfrwt beam="2">  1       21 0.13983577E+00 0.23337650E+03</pdfrwt>
<totfact> 0.76448725E+03</totfact>
</mgrwt>
</event>
<event>
 5    0  0.1972558E-002  0.5474779E+03  0.7546771E-02  0.1002931E+00
         21   -1    0    0  501  502  0.00000000000E+00  0.00000000000E+00  0.24251439859E+04  0.24251439859E+04  0.00000000000E+00 0.  1.
         21   -1    0    0  502  503 -0.00000000000E+00 -0.00000000000E+00 -0.91114716025E+03  0.91114716025E+03  0.00000000000E+00 0. -1.
         25    1    1    2    0    0 -0.32980248182E+03  0.39968589396E+03 -0.79838635632E+03  0.95998138774E+03  0.12500000000E+03 0.  0.
          1    1    1    2  501    0  0.16765527563E+03 -0.10899624212E+03  0.61819469707E+03  0.64973314193E+03  0.00000000000E+00 0.  1.
         -1    1    1    2    0  503  0.16214720619E+03 -0.29068965184E+03  0.16941884849E+04  0.17265766165E+04  0.00000000000E+00 0. -1.
<mgrwt>
<rscale>  4 0.54383503E+03</rscale>
<asrwt>0</asrwt>
<pdfrwt beam="1">  1       21 0.37309907E+00 0.54747793E+03</pdfrwt>
<pdfrwt beam="2">  1       21 0.14017649E+00 0.54747793E+03</pdfrwt>
<totfact> 0.29528619E+00</totfact>
</mgrwt>
</event>
<event>
 5    0  0.1972558E-002  0.4444294E+03  0.7546771E-02  0.1029396E+00
         21   -1    0    0  501  502  0.00000000000E+00  0.00000000000E+00  0.84997538456E+03  0.84997538456E+03  0.00000000000E+00 0. -1.
         21   -1    0    0  502  503 -0.00000000000E+00 -0.00000000000E+00 -0.55199000151E+03  0.55199000151E+03  0.00000000000E+00 0.  1.
         25    1    1    2    0    0  0.41851227176E+03  0.29156467609E+02 -0.22815028686E+03  0.49363972147E+03  0.12500000000E+03 0.  0.
          2    1    1    2  501    0  0.21339967745E+02 -0.16440703357E+02  0.46300048013E+03  0.46378350074E+03  0.00000000000E+00 0. -1.
         -2    1    1    2    0  503 -0.43985223951E+03 -0.12715764252E+02  0.63135189777E+02  0.44454216386E+03  0.00000000000E+00 0.  1.
<mgrwt>
<rscale>  4 0.44442936E+03</rscale>
<asrwt>0</asrwt>
<pdfrwt beam="1">  1       21 0.13076544E+00 0.44442936E+03</pdfrwt>
<pdfrwt beam="2">  1       21 0.84921539E-01 0.44442936E+03</pdfrwt>
<totfact> 0.42680465E+02</totfact>
</mgrwt>
</event>
<event>
 5    0  0.1972558E-002  0.2415073E+03  0.7546771E-02  0.1118793E+00
         21   -1    0    0  501  502  0.00000000000E+00  0.00000000000E+00  0.71675148252E+02  0.71675148252E+02  0.00000000000E+00 0. -1.
         21   -1    0    0  502  503 -0.00000000000E+00 -0.00000000000E+00 -0.22327528744E+04  0.22327528744E+04  0.00000000000E+00 0.  1.
         25    1    1    2    0    0 -0.84261938261E+02 -0.18306414491E+03 -0.19007994560E+04  0.19155354675E+04  0.12500000000E+03 0.  0.
          3    1    1    2  501    0 -0.90092127184E+01 -0.37874191431E+02 -0.60475225638E+01  0.39397878363E+02  0.00000000000E+00 0.  1.
         -3    1    1    2    0  503  0.93271150980E+02  0.22093833634E+03 -0.25423074756E+03  0.34949467675E+03  0.00000000000E+00 0. -1.
<mgrwt>
<rscale>  4 0.24150735E+03</rscale>
<asrwt>0</asrwt>
<pdfrwt beam="1">  1       21 0.11026946E-01 0.24150735E+03</pdfrwt>
<pdfrwt beam="2">  1       21 0.34350045E+00 0.24150735E+03</pdfrwt>
<totfact> 0.12244020E+03</totfact>
</mgrwt>
</event>
<event>
 5    0  0.1972558E-002  0.1995892E+03  0.7546771E-02  0.1150086E+00
         21   -1    0    0  501  502  0.00000000000E+00  0.00000000000E+00  0.14318678892E+04  0.14318678892E+04  0.00000000000E+00 0. -1.
         21   -1    0    0  502  503 -0.00000000000E+00 -0.00000000000E+00 -0.24037214450E+03  0.24037214450E+03  0.00000000000E+00 0.  1.
         25    1    1    2    0    0  0.18137562870E+03 -0.11793283046E+03 -0.38601588445E+02  0.25282474922E+03  0.12500000000E+03 0.  0.
          4    1    1    2  501    0 -0.10867161288E+03  0.71202135594E+02 -0.47922216837E+02  0.13847672160E+03  0.00000000000E+00 0.  1.
         -4    1    1    2    0  503 -0.72704015820E+02  0.46730694870E+02  0.12780195500E+04  0.12809385629E+04  0.00000000000E+00 0. -1.
<mgrwt>
<rscale>  4 0.19958916E+03</rscale>
<asrwt>0</asrwt>
<pdfrwt beam="1">  1       21 0.22028736E+00 0.19958916E+03</pdfrwt>
<pdfrwt beam="2">  1       21 0.36980331E-01 0.19958916E+03</pdfrwt>
<totfact> 0.70071478E+02</totfact>
</mgrwt>
</event>
<event>
 5    0  0.1972558E-002  0.2505904E+03  0.7546771E-02  0.1112932E+00
         21   -1    0    0  501  502  0.00000000000E+00  0.00000000000E+00  0.11949645665E+04  0.11949645665E+04  0.00000000000E+00 0.  1.
         21   -1    0    0  502  503 -0.00000000000E+00 -0.00000000000E+00 -0.53875682347E+03  0.53875682347E+03  0.00000000000E+00 0. -1.
         25    1    1    2    0    0 -0.18171589581E+02  0.21530917690E+03 -0.46450628062E+03  0.52733227956E+03  0.12500000000E+03 0.  0.
          3    1    1    2  501    0 -0.60628927320E+02 -0.26120138597E+03  0.10678114766E+04  0.11009647498E+04  0.00000000000E+00 0.  1.
         -3    1    1    2    0  503  0.78800516901E+02  0.45892209070E+02  0.52902547059E+02  0.10542436057E+03  0.00000000000E+00 0. -1.
<mgrwt>
<rscale>  4 0.25059044E+03</rscale>
<asrwt>0</asrwt>
<pdfrwt beam="1">  1       21 0.18384070E+00 0.25059044E+03</pdfrwt>
<pdfrwt beam="2">  1       21 0.82885665E-01 0.25059044E+03</pdfrwt>
<totfact> 0.20341821E+02</totfact>
</mgrwt>
</event>
<event>
 5    0  0.1972558E-002  0.4182007E+03  0.7546771E-02  0.1037653E+00
         21   -1    0    0  501  502  0.00000000000E+00  0.00000000000E+00  0.13420989720E+04  0.13420989720E+04  0.00000000000E+00 0. -1.
         21   -1    0    0  502  503 -0.00000000000E+00 -0.00000000000E+00 -0.68923470625E+03  0.68923470625E+03  0.00000000000E+00 0. -1.
         25    1    1    2    0    0 -0.20755371174E+03  0.34274151477E+03 -0.57571883103E+03  0.71247979733E+03  0.12500000000E+03 0.  0.
          3    1    1    2  501    0  0.15596895508E+02 -0.14523542917E+02  0.46837189592E+03  0.46885651253E+03  0.00000000000E+00 0.  1.
         -3    1    1    2    0  503  0.19195681623E+03 -0.32821797186E+03  0.76021120082E+03  0.84999736835E+03  0.00000000000E+00 0. -1.
<mgrwt>
<rscale>  4 0.41820073E+03</rscale>
<asrwt>0</asrwt>
<pdfrwt beam="1">  1       21 0.20647677E+00 0.41820073E+03</pdfrwt>
<pdfrwt beam="2">  1       21 0.10603611E+00 0.41820073E+03</pdfrwt>
<totfact> 0.70015437E+01</totfact>
</mgrwt>
</event>
<event>
 5    0  0.1972558E-002  0.2832427E+03  0.7546771E-02  0.1093931E+00
         21   -1    0    0  501  502  0.00000000000E+00  0.00000000000E+00  0.91448644754E+03  0.91448644754E+03  0.00000000000E+00 0.  1.
         21   -1    0    0  502  503 -0.00000000000E+00 -0.00000000000E+00 -0.11560491496E+03  0.11560491496E+03  0.00000000000E+00 0.  1.
         25    1    1    2    0    0  0.23370048777E+03 -0.91046239516E+02  0.16982383125E+03  0.32767433432E+03  0.12500000000E+03 0.  0.
          4    1    1    2  501    0 -0.42926695946E+01 -0.36452087257E+02  0.16733273581E+03  0.17131090494E+03  0.00000000000E+00 0. -1.
         -4    1    1    2    0  503 -0.22940781817E+03  0.12749832677E+03  0.46172496552E+03  0.53110612325E+03  0.00000000000E+00 0.  1.
<mgrwt>
<rscale>  4 0.28324274E+03</rscale>
<asrwt>0</asrwt>
<pdfrwt beam="1">  1       21 0.14069022E+00 0.28324274E+03</pdfrwt>
<pdfrwt beam="2">  1       21 0.17785372E-01 0.28324274E+03</pdfrwt>
<totfact> 0.95768227E+03</totfact>
</mgrwt>
</event>
<event>
 5    0  0.1972558E-002  0.2670159E+03  0.7546771E-02  0.1103000E+00
         21   -1    0    0  501  502  0.00000000000E+00  0.00000000000E+00  0.28816770256E+03  0.28816770256E+03  0.00000000000E+00 0.  1.
         21   -1    0    0  502  503 -0.00000000000E+00 -0.00000000000E+00 -0.94433054036E+03  0.94433054036E+03  0.00000000000E+00 0. -1.
         25    1    1    2    0    0  0.23655986960E+03  0.17327344387E+02 -0.83542490476E+03  0.87739419890E+03  0.12500000000E+03 0.  0.
          4    1    1    2  501    0 -0.11882793406E+02  0.21670356333E+02  0.11579105095E+03  0.11839920862E+03  0.00000000000E+00 0. -1.
         -4    1    1    2    0  503 -0.22467707619E+03 -0.38997700720E+02  0.63471016013E+02  0.23670483540E+03  0.00000000000E+00 0.  1.
<mgrwt>
<rscale>  4 0.26701591E+03</rscale>
<asrwt>0</asrwt>
<pdfrwt beam="1">  1       21 0.44333493E-01 0.26701591E+03</pdfrwt>
<pdfrwt beam="2">  1       21 0.14528162E+00 0.26701591E+03</pdfrwt>
<totfact> 0.14906167E+03</totfact>
</mgrwt>
</event>
<event>
 5    0  0.1972558E-002  0.2933393E+03  0.7546771E-02  0.1088618E+00
         21   -1    0    0  501  502  0.00000000000E+00  0.00000000000E+00  0.52954427766E+03  0.52954427766E+03  0.00000000000E+00 0.  1.
         21   -1    0    0  502  503 -0.00000000000E+00 -0.00000000000E+00 -0.73805753678E+03  0.73805753678E+03  0.00000000000E+00 0. -1.
         25    1    1    2    0    0  0.18996897908E+03  0.88222843399E+02 -0.21241501636E+03  0.32344492929E+03  0.12500000000E+03 0.  0.
          2    1    1    2  501    0  0.14134546078E+03 -0.49220705160E+02  0.39953400357E+03  0.42664814205E+03  0.00000000000E+00 0.  1.
         -2    1    1    2    0  503 -0.33131443986E+03 -0.39002138239E+02 -0.39563224634E+03  0.51750874310E+03  0.00000000000E+00 0. -1.
<mgrwt>
<rscale>  4 0.29333927E+03</rscale>
<asrwt>0</asrwt>
<pdfrwt beam="1">  1       21 0.81468350E-01 0.29333927E+03</pdfrwt>
<pdfrwt beam="2">  1       21 0.11354731E+00 0.29333927E+03</pdfrwt>
<totfact> 0.73204487E+02</totfact>
</mgrwt>
</event>
<event>
 5    0  0.1972558E-002  0.2390497E+03  0.7546771E-02  0.1120427E+00
         21   -1    0    0  501  502  0.00000000000E+00  0.00000000000E+00  0.11971731971E+04  0.11971731971E+04  0.00000000000E+00 0. -1.
         21   -1    0    0  502  503 -0.00000000000E+00 -0.00000000000E+00 -0.51505010023E+02  0.51505010023E+02  0.00000000000E+00 0. -1.
         25    1    1    2    0    0  0.55045312021E+02 -0.19990924268E+03  0.59686000660E+03  0.64409670016E+03  0.12500000000E+03 0.  0.
          2    1    1    2  501    0 -0.32093914164E+02 -0.12653201934E+01  0.18903394632E+03  0.19174319603E+03  0.00000000000E+00 0.  1.
         -2    1    1    2    0  503 -0.22951397856E+02  0.20117456287E+03  0.35977423417E+03  0.41283831094E+03  0.00000000000E+00 0. -1.
<mgrwt>
<rscale>  4 0.23904975E+03</rscale>
<asrwt>0</asrwt>
<pdfrwt beam="1">  1       21 0.18418047E+00 0.23904975E+03</pdfrwt>
<pdfrwt beam="2">  1       21 0.79238486E-02 0.23904975E+03</pdfrwt>
<totfact> 0.20161331E+04</totfact>
</mgrwt>
</event>
<event>
 5    0  0.1972558E-002  0.2870693E+03  0.7546771E-02  0.1091889E+00
         21   -1    0    0  501  502  0.00000000000E+00  0.00000000000E+00  0.42582537825E+03  0.42582537825E+03  0.00000000000E+00 0.  1.
         21   -1    0    0  502  503 -0.00000000000E+00 -0.00000000000E+00 -0.35618610672E+03  0.35618610672E+03  0.00000000000E+00 0. -1.
         25    1    1    2    0    0 -0.24373748212E+03  0.80535779157E+02 -0.22217456971E+03  0.36177411646E+03  0.12500000000E+03 0.  0.
          4    1    1    2  501    0  0.24195889779E+03 -0.11498477697E+03  0.25735720258E+03  0.37148127392E+03  0.00000000000E+00 0.  1.
         -4    1    1    2    0  503  0.17785843334E+01  0.34448997816E+02  0.34456638658E+02  0.48756094597E+02  0.00000000000E+00 0. -1.
<mgrwt>
<rscale>  4 0.28706926E+03</rscale>
<asrwt>0</asrwt>
<pdfrwt beam="1">  1       21 0.65511597E-01 0.28706926E+03</pdfrwt>
<pdfrwt beam="2">  1       21 0.54797862E-01 0.28706926E+03</pdfrwt>
<totfact> 0.63497937E+03</totfact>
</mgrwt>
</event>
<event>
 5    0  0.1972558E-002  0.2398811E+03  0.7546771E-02  0.1119872E+00
         21   -1    0    0  503  502  0.00000000000E+00  0.00000000000E+00  0.22377569322E+03  0.22377569322E+03  0.00000000000E+00 0.  1.
         21   -1    0    0  501  503 -0.00000000000E+00 -0.00000000000E+00 -0.46673456905E+03  0.46673456905E+03  0.00000000000E+00 0.  1.
         25    1    1    2    0    0  0.19985134786E+03  0.88667333403E+02 -0.34412660030E+03  0.42643941456E+03  0.12500000000E+03 0.  0.
          4    1    1    2  501    0 -0.36760276004E+02 -0.35252455612E+02  0.74722925606E+02  0.90429912804E+02  0.00000000000E+00 0. -1.
         -4    1    1    2    0  502 -0.16309107185E+03 -0.53414877791E+02  0.26444798860E+02  0.17364093490E+03  0.00000000000E+00 0.  1.
<mgrwt>
<rscale>  4 0.23988111E+03</rscale>
<asrwt>0</asrwt>
<pdfrwt beam="1">  1       21 0.34427030E-01 0.23988111E+03</pdfrwt>
<pdfrwt beam="2">  1       21 0.71805319E-01 0.23988111E+03</pdfrwt>
<totfact> 0.13842019E+04</totfact>
</mgrwt>
</event>
<event>
 5    0  0.1972558E-002  0.2723683E+03  0.7546771E-02  0.1099932E+00
         21   -1    0    0  501  502  0.00000000000E+00  0.00000000000E+00  0.19907082930E+04  0.19907082930E+04  0.00000000000E+00 0. -1.
         21   -1    0    0  502  503 -0.00000000000E+00 -0.00000000000E+00 -0.14247182245E+03  0.14247182245E+03  0.00000000000E+00 0.  1.
         25    1    1    2    0    0 -0.19915746782E+03 -0.14354197563E+03  0.11488086518E+02  0.27572626261E+03  0.12500000000E+03 0.  0.
          1    1    1    2  501    0  0.15690015135E+02  0.32887072671E+02  0.68358549407E+03  0.68455596106E+03  0.00000000000E+00 0.  1.
         -1    1    1    2    0  503  0.18346745269E+03  0.11065490296E+03  0.11531628899E+04  0.11728978917E+04  0.00000000000E+00 0. -1.
<mgrwt>
<rscale>  4 0.27236833E+03</rscale>
<asrwt>0</asrwt>
<pdfrwt beam="1">  1       21 0.30626279E+00 0.27236833E+03</pdfrwt>
<pdfrwt beam="2">  1       21 0.21918743E-01 0.27236833E+03</pdfrwt>
<totfact> 0.55483374E+02</totfact>
</mgrwt>
</event>
<event>
 5    0  0.1972558E-002  0.5618770E+03  0.7546771E-02  0.9987817E-01
         21   -1    0    0  501  502  0.00000000000E+00  0.00000000000E+00  0.11246773150E+04  0.11246773150E+04  0.00000000000E+00 0.  1.
         21   -1    0    0  502  503 -0.00000000000E+00 -0.00000000000E+00 -0.61735500157E+03  0.61735500157E+03  0.00000000000E+00 0. -1.
         25    1    1    2    0    0  0.47519118441E+03  0.26803769957E+03 -0.37495122786E+03  0.67369451045E+03  0.12500000000E+03 0.  0.
          1    1    1    2  501    0 -0.48096142158E+03 -0.28809807226E+03  0.76067555429E+03  0.94496120936E+03  0.00000000000E+00 0.  1.
         -1    1    1    2    0  503  0.57702371615E+01  0.20060372691E+02  0.12159798699E+03  0.12337659677E+03  0.00000000000E+00 0. -1.
<mgrwt>
<rscale>  4 0.56187696E+03</rscale>
<asrwt>0</asrwt>
<pdfrwt beam="1">  1       21 0.17302728E+00 0.56187696E+03</pdfrwt>
<pdfrwt beam="2">  1       21 0.94977693E-01 0.56187696E+03</pdfrwt>
<totfact> 0.14433470E+02</totfact>
</mgrwt>
</event>
<event>
 5    0  0.1972558E-002  0.4112569E+03  0.7546771E-02  0.1039950E+00
         21   -1    0    0  501  502  0.00000000000E+00  0.00000000000E+00  0.49851418360E+03  0.49851418360E+03  0.00000000000E+00 0. -1.
         21   -1    0    0  502  503 -0.00000000000E+00 -0.00000000000E+00 -0.96772208985E+03  0.96772208985E+03  0.00000000000E+00 0. -1.
         25    1    1    2    0    0 -0.12392397897E+03 -0.36969085395E+03 -0.34806526468E+03  0.53740385980E+03  0.12500000000E+03 0.  0.
          2    1    1    2  501    0  0.10508218505E+03  0.37922682064E+03 -0.45085992173E+03  0.59843956765E+03  0.00000000000E+00 0.  1.
         -2    1    1    2    0  503  0.18841793920E+02 -0.95359666877E+01  0.32971728015E+03  0.33039284600E+03  0.00000000000E+00 0. -1.
<mgrwt>
<rscale>  4 0.41125694E+03</rscale>
<asrwt>0</asrwt>
<pdfrwt beam="1">  1       21 0.76694491E-01 0.41125694E+03</pdfrwt>
<pdfrwt beam="2">  1       21 0.14888032E+00 0.41125694E+03</pdfrwt>
<totfact> 0.38934866E+02</totfact>
</mgrwt>
</event>
<event>
 5    0  0.1972558E-002  0.2608656E+03  0.7546771E-02  0.1106624E+00
         21   -1    0    0  501  502  0.00000000000E+00  0.00000000000E+00  0.32491221037E+03  0.32491221037E+03  0.00000000000E+00 0.  1.
         21   -1    0    0  502  503 -0.00000000000E+00 -0.00000000000E+00 -0.43872825632E+03  0.43872825632E+03  0.00000000000E+00 0. -1.
         25    1    1    2    0    0  0.17761376960E+03 -0.26125350277E+03 -0.18978151110E+03  0.38915558048E+03  0.12500000000E+03 0.  0.
          3    1    1    2  501    0 -0.12032489673E+03  0.97696549579E+02  0.11960414333E+03  0.19577499246E+03  0.00000000000E+00 0.  1.
         -3    1    1    2    0  503 -0.57288872870E+02  0.16355695319E+03 -0.43638678178E+02  0.17870989375E+03  0.00000000000E+00 0. -1.
<mgrwt>
<rscale>  4 0.26086555E+03</rscale>
<asrwt>0</asrwt>
<pdfrwt beam="1">  1       21 0.49986494E-01 0.26086555E+03</pdfrwt>
<pdfrwt beam="2">  1       21 0.67496654E-01 0.26086555E+03</pdfrwt>
<totfact> 0.73244018E+03</totfact>
</mgrwt>
</event>
<event>
 5    0  0.1972558E-002  0.2789035E+03  0.7546771E-02  0.1096289E+00
         21   -1    0    0  501  502  0.00000000000E+00  0.00000000000E+00  0.88699571514E+03  0.88699571514E+03  0.00000000000E+00 0.  1.
         21   -1    0    0  502  503 -0.00000000000E+00 -0.00000000000E+00 -0.90827317216E+02  0.90827317216E+02  0.00000000000E+00 0.  1.
         25    1    1    2    0    0  0.24370743208E+03 -0.52619929248E+02  0.27397452465E+03  0.39095934515E+03  0.12500000000E+03 0.  0.
          3    1    1    2  501    0 -0.15630723887E+03  0.55645743445E+02  0.24258536309E+03  0.29389804367E+03  0.00000000000E+00 0.  1.
         -3    1    1    2    0  503 -0.87400193208E+02 -0.30258141966E+01  0.27960851019E+03  0.29296564354E+03  0.00000000000E+00 0. -1.
<mgrwt>
<rscale>  4 0.27890351E+03</rscale>
<asrwt>0</asrwt>
<pdfrwt beam="1">  1       21 0.13646087E+00 0.27890351E+03</pdfrwt>
<pdfrwt beam="2">  1       21 0.13973434E-01 0.27890351E+03</pdfrwt>
<totfact> 0.16218407E+04</totfact>
</mgrwt>
</event>
<event>
 5    0  0.1972558E-002  0.2704001E+03  0.7546771E-02  0.1101051E+00
         21   -1    0    0  501  502  0.00000000000E+00  0.00000000000E+00  0.28134003959E+04  0.28134003959E+04  0.00000000000E+00 0.  1.
         21   -1    0    0  502  503 -0.00000000000E+00 -0.00000000000E+00 -0.20805568120E+03  0.20805568120E+03  0.00000000000E+00 0. -1.
         25    1    1    2    0    0  0.21469916863E+03  0.32505677925E+02  0.24750825910E+03  0.35218984998E+03  0.12500000000E+03 0.  0.
          4    1    1    2  501    0  0.31602205550E+02 -0.10418106474E+02  0.24151846172E+04  0.24154138303E+04  0.00000000000E+00 0.  1.
         -4    1    1    2    0  503 -0.24630137418E+03 -0.22087571451E+02 -0.57348161604E+02  0.25385239683E+03  0.00000000000E+00 0. -1.
<mgrwt>
<rscale>  4 0.27040009E+03</rscale>
<asrwt>0</asrwt>
<pdfrwt beam="1">  1       21 0.43283080E+00 0.27040009E+03</pdfrwt>
<pdfrwt beam="2">  1       21 0.32008568E-01 0.27040009E+03</pdfrwt>
<totfact> 0.44592872E+01</totfact>
</mgrwt>
</event>
<event>
 5    0  0.1972558E-002  0.2431697E+03  0.7546771E-02  0.1117699E+00
         21   -1    0    0  501  502  0.00000000000E+00  0.00000000000E+00  0.15229015761E+03  0.15229015761E+03  0.00000000000E+00 0.  1.
         21   -1    0    0  502  503 -0.00000000000E+00 -0.00000000000E+00 -0.39955052014E+03  0.39955052014E+03  0.00000000000E+00 0. -1.
         25    1    1    2    0    0  0.86936953286E+02 -0.18960087661E+03 -0.23399709230E+03  0.33747024381E+03  0.12500000000E+03 0.  0.
          2    1    1    2  501    0 -0.66031164839E+02  0.16538449184E+03 -0.25940079252E+02  0.17995841904E+03  0.00000000000E+00 0.  1.
         -2    1    1    2    0  503 -0.20905788447E+02  0.24216384768E+02  0.12676809019E+02  0.34412014889E+02  0.00000000000E+00 0. -1.
<mgrwt>
<rscale>  4 0.24316975E+03</rscale>
<asrwt>0</asrwt>
<pdfrwt beam="1">  1       21 0.23429255E-01 0.24316975E+03</pdfrwt>
<pdfrwt beam="2">  1       21 0.61469311E-01 0.24316975E+03</pdfrwt>
<totfact> 0.41153258E+04</totfact>
</mgrwt>
</event>
<event>
 5    0  0.1972558E-002  0.2859599E+03  0.7546771E-02  0.1092478E+00
         21   -1    0    0  501  502  0.00000000000E+00  0.00000000000E+00  0.69812101758E+03  0.69812101758E+03  0.00000000000E+00 0. -1.
         21   -1    0    0  502  503 -0.00000000000E+00 -0.00000000000E+00 -0.34474349132E+03  0.34474349132E+03  0.00000000000E+00 0.  1.
         25    1    1    2    0    0  0.26016920072E+03 -0.60284157347E+02 -0.21774087859E+03  0.36654915473E+03  0.12500000000E+03 0.  0.
          1    1    1    2  501    0 -0.20916138232E+03  0.85421204828E+02  0.20269766754E+03  0.30353189374E+03  0.00000000000E+00 0.  1.
         -1    1    1    2    0  503 -0.51007818395E+02 -0.25137047481E+02  0.36842073731E+03  0.37278346043E+03  0.00000000000E+00 0. -1.
<mgrwt>
<rscale>  4 0.28595989E+03</rscale>
<asrwt>0</asrwt>
<pdfrwt beam="1">  1       21 0.10740323E+00 0.28595989E+03</pdfrwt>
<pdfrwt beam="2">  1       21 0.53037460E-01 0.28595989E+03</pdfrwt>
<totfact> 0.21723059E+03</totfact>
</mgrwt>
</event>
<event>
 5    0  0.1972558E-002  0.3461899E+03  0.7546771E-02  0.1064190E+00
         21   -1    0    0  501  502  0.00000000000E+00  0.00000000000E+00  0.81691550786E+03  0.81691550786E+03  0.00000000000E+00 0. -1.
         21   -1    0    0  502  503 -0.00000000000E+00 -0.00000000000E+00 -0.42118534028E+03  0.42118534028E+03  0.00000000000E+00 0.  1.
         25    1    1    2    0    0 -0.41030485781E+02 -0.31651739600E+03 -0.22476987789E+03  0.40989420677E+03  0.12500000000E+03 0.  0.
          3    1    1    2  501    0  0.31215501505E+02 -0.18169986311E+02  0.45186637852E+03  0.45330759973E+03  0.00000000000E+00 0. -1.
         -3    1    1    2    0  503  0.98149842754E+01  0.33468738231E+03  0.16863366694E+03  0.37489904164E+03  0.00000000000E+00 0.  1.
<mgrwt>
<rscale>  4 0.34618991E+03</rscale>
<asrwt>0</asrwt>
<pdfrwt beam="1">  1       21 0.12567931E+00 0.34618991E+03</pdfrwt>
<pdfrwt beam="2">  1       21 0.64797745E-01 0.34618991E+03</pdfrwt>
<totfact> 0.91876077E+02</totfact>
</mgrwt>
</event>
