<event>
 5    0  0.1200001E+000  0.2613100E+03  0.7546771E-02  0.1106359E+00
         21   -1    0    0  503  501  0.00000000000E+00  0.00000000000E+00  0.51520002465E+03  0.51520002465E+03  0.00000000000E+00 0.  1.
         21   -1    0    0  501  502 -0.00000000000E+00 -0.00000000000E+00 -0.23148341035E+03  0.23148341035E+03  0.00000000000E+00 0.  1.
         25    1    1    2    0    0 -0.48622169413E+02 -0.22967174831E+03 -0.79754533267E+02  0.27766709007E+03  0.12500000000E+03 0.  0.
         21    1    1    2  503  504 -0.17074514457E+01  0.22932749200E+03  0.34723341921E+03  0.41613106276E+03  0.00000000000E+00 0.  1.
         21    1    1    2  504  502  0.50329620859E+02  0.34425630980E+00  0.16237728361E+02  0.52885282173E+02  0.00000000000E+00 0.  1.
<mgrwt>
<rscale>  4 0.26131000E+03</rscale>
<asrwt>0</asrwt>
<pdfrwt beam="1">  1       21 0.79261542E-01 0.26131000E+03</pdfrwt>
<pdfrwt beam="2">  1       21 0.35612833E-01 0.26131000E+03</pdfrwt>
<totfact> 0.10239780E+04</totfact>
</mgrwt>
</event>
<event>
 5    0  0.1200001E+000  0.2623284E+03  0.7546771E-02  0.1105752E+00
         21   -1    0    0  503  501  0.00000000000E+00  0.00000000000E+00  0.17315871858E+03  0.17315871858E+03  0.00000000000E+00 0. -1.
         21   -1    0    0  501  502 -0.00000000000E+00 -0.00000000000E+00 -0.10087185724E+04  0.10087185724E+04  0.00000000000E+00 0. -1.
         25    1    1    2    0    0  0.21690794180E+03  0.63188047782E+02 -0.83807869646E+03  0.87695078884E+03  0.12500000000E+03 0.  0.
         21    1    1    2  503  504  0.39818481687E+02 -0.10575376766E+02  0.11289344577E+02  0.42717670566E+02  0.00000000000E+00 0.  1.
         21    1    1    2  504  502 -0.25672642348E+03 -0.52612671016E+02 -0.87705019619E+01  0.26220883160E+03  0.00000000000E+00 0. -1.
<mgrwt>
<rscale>  4 0.26232841E+03</rscale>
<asrwt>0</asrwt>
<pdfrwt beam="1">  1       21 0.26639803E-01 0.26232841E+03</pdfrwt>
<pdfrwt beam="2">  1       21 0.15518747E+00 0.26232841E+03</pdfrwt>
<totfact> 0.34698521E+03</totfact>
</mgrwt>
</event>
<event>
 5    0  0.1200001E+000  0.2265180E+03  0.7546771E-02  0.1129115E+00
         21   -1    0    0  503  501  0.00000000000E+00  0.00000000000E+00  0.19024509678E+04  0.19024509678E+04  0.00000000000E+00 0.  1.
         21   -1    0    0  504  502 -0.00000000000E+00 -0.00000000000E+00 -0.81966275973E+03  0.81966275973E+03  0.00000000000E+00 0.  1.
         25    1    1    2    0    0 -0.73296036725E+02 -0.22323423924E+03 -0.17038055767E+03  0.31600691290E+03  0.12500000000E+03 0.  0.
         21    1    1    2  503  502  0.12489003549E+03  0.41650637731E+02 -0.56399882028E+03  0.57916057002E+03  0.00000000000E+00 0.  1.
         21    1    1    2  504  501 -0.51593998761E+02  0.18158360151E+03  0.18171675860E+04  0.18269462446E+04  0.00000000000E+00 0.  1.
<mgrwt>
<rscale>  4 0.22651800E+03</rscale>
<asrwt>0</asrwt>
<pdfrwt beam="1">  1       21 0.29268476E+00 0.22651800E+03</pdfrwt>
<pdfrwt beam="2">  1       21 0.12610196E+00 0.22651800E+03</pdfrwt>
<totfact> 0.16536418E+01</totfact>
</mgrwt>
</event>
<event>
 5    0  0.1200001E+000  0.2546807E+03  0.7546771E-02  0.1110382E+00
         21   -1    0    0  503  501  0.00000000000E+00  0.00000000000E+00  0.30574293642E+03  0.30574293642E+03  0.00000000000E+00 0. -1.
         21   -1    0    0  504  502 -0.00000000000E+00 -0.00000000000E+00 -0.21566172632E+03  0.21566172632E+03  0.00000000000E+00 0. -1.
         25    1    1    2    0    0 -0.22000381613E+03  0.20016217187E+02 -0.11519363775E+01  0.25382800283E+03  0.12500000000E+03 0.  0.
         21    1    1    2  503  502  0.21978123500E+03 -0.40954450489E+02  0.62710728966E+02  0.23219322514E+03  0.00000000000E+00 0. -1.
         21    1    1    2  504  501  0.22258113268E+00  0.20938233301E+02  0.28522417506E+02  0.35383434776E+02  0.00000000000E+00 0. -1.
<mgrwt>
<rscale>  4 0.25468074E+03</rscale>
<asrwt>0</asrwt>
<pdfrwt beam="1">  1       21 0.47037375E-01 0.25468074E+03</pdfrwt>
<pdfrwt beam="2">  1       21 0.33178727E-01 0.25468074E+03</pdfrwt>
<totfact> 0.36740692E+04</totfact>
</mgrwt>
</event>
<event>
 5    0  0.1200001E+000  0.5479819E+03  0.7546771E-02  0.1001962E+00
         21   -1    0    0  503  501  0.00000000000E+00  0.00000000000E+00  0.83583477521E+03  0.83583477521E+03  0.00000000000E+00 0. -1.
         21   -1    0    0  504  502 -0.00000000000E+00 -0.00000000000E+00 -0.55139417464E+03  0.55139417464E+03  0.00000000000E+00 0. -1.
         25    1    1    2    0    0 -0.20170132814E+02  0.52858693690E+03 -0.24699193760E+03  0.59702680121E+03  0.12500000000E+03 0.  0.
         21    1    1    2  503  502  0.10945719356E+02 -0.54888836934E+03  0.46280797494E+03  0.71804559217E+03  0.00000000000E+00 0. -1.
         21    1    1    2  504  501  0.92244134583E+01  0.20301432438E+02  0.68624563225E+02  0.72156556463E+02  0.00000000000E+00 0. -1.
<mgrwt>
<rscale>  4 0.54798191E+03</rscale>
<asrwt>0</asrwt>
<pdfrwt beam="1">  1       21 0.12858997E+00 0.54798191E+03</pdfrwt>
<pdfrwt beam="2">  1       21 0.84829873E-01 0.54798191E+03</pdfrwt>
<totfact> 0.42796436E+02</totfact>
</mgrwt>
</event>
<event>
 5    0  0.1200001E+000  0.1998548E+03  0.7546771E-02  0.1149862E+00
         21   -1    0    0  503  501  0.00000000000E+00  0.00000000000E+00  0.81076870731E+03  0.81076870731E+03  0.00000000000E+00 0. -1.
         21   -1    0    0  501  502 -0.00000000000E+00 -0.00000000000E+00 -0.28032971308E+03  0.28032971308E+03  0.00000000000E+00 0. -1.
         25    1    1    2    0    0  0.21258130747E+03  0.32268208753E+02  0.23701698655E+03  0.34356091381E+03  0.12500000000E+03 0.  0.
         21    1    1    2  503  504 -0.10001727559E+03  0.72165612130E+02  0.48590451931E+03  0.50131280941E+03  0.00000000000E+00 0. -1.
         21    1    1    2  504  502 -0.11256403189E+03 -0.10443382088E+03 -0.19248251162E+03  0.24622469718E+03  0.00000000000E+00 0. -1.
<mgrwt>
<rscale>  4 0.19985477E+03</rscale>
<asrwt>0</asrwt>
<pdfrwt beam="1">  1       21 0.12473365E+00 0.19985477E+03</pdfrwt>
<pdfrwt beam="2">  1       21 0.43127648E-01 0.19985477E+03</pdfrwt>
<totfact> 0.24631391E+03</totfact>
</mgrwt>
</event>
<event>
 5    0  0.1200001E+000  0.2641038E+03  0.7546771E-02  0.1104702E+00
         21   -1    0    0  503  501  0.00000000000E+00  0.00000000000E+00  0.85222102423E+03  0.85222102423E+03  0.00000000000E+00 0. -1.
         21   -1    0    0  504  502 -0.00000000000E+00 -0.00000000000E+00 -0.12766885988E+03  0.12766885988E+03  0.00000000000E+00 0. -1.
         25    1    1    2    0    0 -0.16274767444E+03  0.16551420229E+03  0.56877918512E+03  0.62691029512E+03  0.12500000000E+03 0.  0.
         21    1    1    2  503  502  0.11258216862E+03 -0.20584883077E+03  0.68277799404E+02  0.24435700054E+03  0.00000000000E+00 0. -1.
         21    1    1    2  504  501  0.50165505820E+02  0.40334628488E+02  0.87495179828E+02  0.10862258845E+03  0.00000000000E+00 0.  1.
<mgrwt>
<rscale>  4 0.26410384E+03</rscale>
<asrwt>0</asrwt>
<pdfrwt beam="1">  1       21 0.13111092E+00 0.26410384E+03</pdfrwt>
<pdfrwt beam="2">  1       21 0.19641364E-01 0.26410384E+03</pdfrwt>
<totfact> 0.96448876E+03</totfact>
</mgrwt>
</event>
<event>
 5    0  0.1238849E+000  0.3389361E+03  0.7546771E-02  0.1067250E+00
         21   -1    0    0  502  501  0.00000000000E+00  0.00000000000E+00  0.79743926020E+03  0.79743926020E+03  0.00000000000E+00 0.  1.
         21   -1    0    0  503  502 -0.00000000000E+00 -0.00000000000E+00 -0.15898140565E+03  0.15898140565E+03  0.00000000000E+00 0.  1.
         25    1    1    2    0    0  0.29000036189E+03 -0.43798955837E+02  0.34019360384E+03  0.46623518370E+03  0.12500000000E+03 0.  0.
         21    1    1    2  503  504  0.42634085844E+02  0.29225054452E+02  0.67777758684E+02  0.85238451744E+02  0.00000000000E+00 0. -1.
         21    1    1    2  504  501 -0.33263444774E+03  0.14573901384E+02  0.23048649203E+03  0.40494703040E+03  0.00000000000E+00 0.  1.
<mgrwt>
<rscale>  4 0.33893608E+03</rscale>
<asrwt>0</asrwt>
<pdfrwt beam="1">  1       21 0.12268296E+00 0.33893608E+03</pdfrwt>
<pdfrwt beam="2">  1       21 0.24458678E-01 0.33893608E+03</pdfrwt>
<totfact> 0.72517240E+03</totfact>
</mgrwt>
</event>
<event>
 5    0  0.1200001E+000  0.2624390E+03  0.7546771E-02  0.1105687E+00
         21   -1    0    0  503  501  0.00000000000E+00  0.00000000000E+00  0.96292935513E+03  0.96292935513E+03  0.00000000000E+00 0.  1.
         21   -1    0    0  501  502 -0.00000000000E+00 -0.00000000000E+00 -0.17122829480E+03  0.17122829480E+03  0.00000000000E+00 0.  1.
         25    1    1    2    0    0 -0.86322696756E+02  0.23763070465E+03  0.78909263960E+02  0.29286794244E+03  0.12500000000E+03 0.  0.
         21    1    1    2  503  504 -0.11110153438E+03 -0.20221877885E+03  0.48942394710E+03  0.54108389872E+03  0.00000000000E+00 0.  1.
         21    1    1    2  504  502  0.19742423114E+03 -0.35411925805E+02  0.22336784928E+03  0.30020580877E+03  0.00000000000E+00 0.  1.
<mgrwt>
<rscale>  4 0.26243899E+03</rscale>
<asrwt>0</asrwt>
<pdfrwt beam="1">  1       21 0.14814297E+00 0.26243899E+03</pdfrwt>
<pdfrwt beam="2">  1       21 0.26342815E-01 0.26243899E+03</pdfrwt>
<totfact> 0.40142767E+03</totfact>
</mgrwt>
</event>
<event>
 5    0  0.1200001E+000  0.2253198E+03  0.7546771E-02  0.1129978E+00
         21   -1    0    0  503  501  0.00000000000E+00  0.00000000000E+00  0.28927180029E+04  0.28927180029E+04  0.00000000000E+00 0.  1.
         21   -1    0    0  504  502 -0.00000000000E+00 -0.00000000000E+00 -0.69069063911E+02  0.69069063911E+02  0.00000000000E+00 0.  1.
         25    1    1    2    0    0 -0.13131248001E+03 -0.16633380131E+03  0.15753644448E+04  0.15944616756E+04  0.12500000000E+03 0.  0.
         21    1    1    2  503  502  0.16333349687E+03  0.90178742870E+02  0.91875250088E+02  0.20796898433E+03  0.00000000000E+00 0.  1.
         21    1    1    2  504  501 -0.32021016856E+02  0.76155058443E+02  0.11564092440E+04  0.11593564069E+04  0.00000000000E+00 0.  1.
<mgrwt>
<rscale>  4 0.22531982E+03</rscale>
<asrwt>0</asrwt>
<pdfrwt beam="1">  1       21 0.44503344E+00 0.22531982E+03</pdfrwt>
<pdfrwt beam="2">  1       21 0.10626012E-01 0.22531982E+03</pdfrwt>
<totfact> 0.31031726E+02</totfact>
</mgrwt>
</event>
<event>
 5    0  0.1200001E+000  0.2311396E+03  0.7546771E-02  0.1125840E+00
         21   -1    0    0  503  501  0.00000000000E+00  0.00000000000E+00  0.23130012876E+03  0.23130012876E+03  0.00000000000E+00 0. -1.
         21   -1    0    0  501  502 -0.00000000000E+00 -0.00000000000E+00 -0.54403822458E+03  0.54403822458E+03  0.00000000000E+00 0. -1.
         25    1    1    2    0    0  0.19791066670E+03  0.13204681403E+03 -0.27641368684E+02  0.27017408897E+03  0.12500000000E+03 0.  0.
         21    1    1    2  503  504 -0.92987285790E+02  0.24741407541E+02  0.58909198718E+02  0.11282316367E+03  0.00000000000E+00 0. -1.
         21    1    1    2  504  502 -0.10492338091E+03 -0.15678822157E+03 -0.34400592585E+03  0.39234110070E+03  0.00000000000E+00 0. -1.
<mgrwt>
<rscale>  4 0.23113955E+03</rscale>
<asrwt>0</asrwt>
<pdfrwt beam="1">  1       21 0.35584636E-01 0.23113955E+03</pdfrwt>
<pdfrwt beam="2">  1       21 0.83698186E-01 0.23113955E+03</pdfrwt>
<totfact> 0.92120716E+03</totfact>
</mgrwt>
</event>
<event>
 5    0  0.1200001E+000  0.2587563E+03  0.7546771E-02  0.1107893E+00
         21   -1    0    0  502  501  0.00000000000E+00  0.00000000000E+00  0.26390754760E+03  0.26390754760E+03  0.00000000000E+00 0.  1.
         21   -1    0    0  503  502 -0.00000000000E+00 -0.00000000000E+00 -0.52278296093E+03  0.52278296093E+03  0.00000000000E+00 0.  1.
         25    1    1    2    0    0  0.21470796736E+03 -0.60247371037E+02 -0.40295512291E+03  0.47720759428E+03  0.12500000000E+03 0.  0.
         21    1    1    2  503  504  0.25746844460E+02  0.41975682862E+01  0.66930709679E+01  0.26931705815E+02  0.00000000000E+00 0.  1.
         21    1    1    2  504  501 -0.24045481182E+03  0.56049802751E+02  0.13738663861E+03  0.28255120843E+03  0.00000000000E+00 0.  1.
<mgrwt>
<rscale>  4 0.25875628E+03</rscale>
<asrwt>0</asrwt>
<pdfrwt beam="1">  1       21 0.40601161E-01 0.25875628E+03</pdfrwt>
<pdfrwt beam="2">  1       21 0.80428148E-01 0.25875628E+03</pdfrwt>
<totfact> 0.76101829E+03</totfact>
</mgrwt>
</event>
<event>
 5    0  0.1200001E+000  0.2231184E+03  0.7546771E-02  0.1131579E+00
         21   -1    0    0  503  501  0.00000000000E+00  0.00000000000E+00  0.75597076631E+03  0.75597076631E+03  0.00000000000E+00 0.  1.
         21   -1    0    0  501  502 -0.00000000000E+00 -0.00000000000E+00 -0.17604481870E+03  0.17604481870E+03  0.00000000000E+00 0.  1.
         25    1    1    2    0    0  0.13727983220E+03  0.17927907626E+03 -0.12539762846E+02  0.25839695270E+03  0.12500000000E+03 0.  0.
         21    1    1    2  503  504 -0.14810302469E+03 -0.10485289533E+03  0.56520656363E+03  0.59362201370E+03  0.00000000000E+00 0.  1.
         21    1    1    2  504  502  0.10823192487E+02 -0.74426180933E+02  0.27259146825E+02  0.79996618613E+02  0.00000000000E+00 0.  1.
<mgrwt>
<rscale>  4 0.22311838E+03</rscale>
<asrwt>0</asrwt>
<pdfrwt beam="1">  1       21 0.11630319E+00 0.22311838E+03</pdfrwt>
<pdfrwt beam="2">  1       21 0.27083819E-01 0.22311838E+03</pdfrwt>
<totfact> 0.72474424E+03</totfact>
</mgrwt>
</event>
<event>
 5    0  0.1200001E+000  0.2541342E+03  0.7546771E-02  0.1110720E+00
         21   -1    0    0  503  501  0.00000000000E+00  0.00000000000E+00  0.24781443509E+03  0.24781443509E+03  0.00000000000E+00 0.  1.
         21   -1    0    0  504  502 -0.00000000000E+00 -0.00000000000E+00 -0.84880756585E+03  0.84880756585E+03  0.00000000000E+00 0.  1.
         25    1    1    2    0    0  0.17582234887E+03  0.15385403532E+03 -0.72604622330E+03  0.77288594302E+03  0.12500000000E+03 0.  0.
         21    1    1    2  503  502 -0.10783643899E+03 -0.14171269703E+03 -0.31618779071E+01  0.17810441754E+03  0.00000000000E+00 0.  1.
         21    1    1    2  504  501 -0.67985909876E+02 -0.12141338291E+02  0.12821497045E+03  0.14563164039E+03  0.00000000000E+00 0.  1.
<mgrwt>
<rscale>  4 0.25413424E+03</rscale>
<asrwt>0</asrwt>
<pdfrwt beam="1">  1       21 0.38125298E-01 0.25413424E+03</pdfrwt>
<pdfrwt beam="2">  1       21 0.13058578E+00 0.25413424E+03</pdfrwt>
<totfact> 0.27000732E+03</totfact>
</mgrwt>
</event>
<event>
 5    0  0.1200001E+000  0.2998463E+03  0.7546771E-02  0.1085317E+00
         21   -1    0    0  503  501  0.00000000000E+00  0.00000000000E+00  0.38194037018E+03  0.38194037018E+03  0.00000000000E+00 0.  1.
         21   -1    0    0  501  502 -0.00000000000E+00 -0.00000000000E+00 -0.32879136200E+03  0.32879136200E+03  0.00000000000E+00 0.  1.
         25    1    1    2    0    0 -0.20852603855E+03 -0.18298069170E+03 -0.52778404822E+02  0.30882940647E+03  0.12500000000E+03 0.  0.
         21    1    1    2  503  504 -0.18469427993E+02  0.38027458272E+02  0.12494402620E+03  0.13190230110E+03  0.00000000000E+00 0.  1.
         21    1    1    2  504  502  0.22699546654E+03  0.14495323343E+03 -0.19016613193E+02  0.27000002461E+03  0.00000000000E+00 0.  1.
<mgrwt>
<rscale>  4 0.29984635E+03</rscale>
<asrwt>0</asrwt>
<pdfrwt beam="1">  1       21 0.58760057E-01 0.29984635E+03</pdfrwt>
<pdfrwt beam="2">  1       21 0.50583287E-01 0.29984635E+03</pdfrwt>
<totfact> 0.94838018E+03</totfact>
</mgrwt>
</event>
<event>
 5    0  0.1200001E+000  0.2384864E+03  0.7546771E-02  0.1120805E+00
         21   -1    0    0  503  501  0.00000000000E+00  0.00000000000E+00  0.16510324872E+03  0.16510324872E+03  0.00000000000E+00 0.  1.
         21   -1    0    0  504  502 -0.00000000000E+00 -0.00000000000E+00 -0.37938241081E+03  0.37938241081E+03  0.00000000000E+00 0.  1.
         25    1    1    2    0    0 -0.19246280888E+03 -0.64875491558E+02 -0.23169505172E+03  0.33250317171E+03  0.12500000000E+03 0.  0.
         21    1    1    2  503  502  0.17061196779E+03  0.41769793967E+02 -0.15292786630E+00  0.17565074047E+03  0.00000000000E+00 0.  1.
         21    1    1    2  504  501  0.21850841091E+02  0.23105697591E+02  0.17568817501E+02  0.36331747357E+02  0.00000000000E+00 0.  1.
<mgrwt>
<rscale>  4 0.23848640E+03</rscale>
<asrwt>0</asrwt>
<pdfrwt beam="1">  1       21 0.25400500E-01 0.23848640E+03</pdfrwt>
<pdfrwt beam="2">  1       21 0.58366524E-01 0.23848640E+03</pdfrwt>
<totfact> 0.39507327E+04</totfact>
</mgrwt>
</event>
<event>
 5    0  0.1200001E+000  0.2255066E+03  0.7546771E-02  0.1129843E+00
         21   -1    0    0  503  501  0.00000000000E+00  0.00000000000E+00  0.10448240024E+04  0.10448240024E+04  0.00000000000E+00 0.  1.
         21   -1    0    0  501  502 -0.00000000000E+00 -0.00000000000E+00 -0.21561181518E+03  0.21561181518E+03  0.00000000000E+00 0.  1.
         25    1    1    2    0    0 -0.18018260254E+03 -0.15563422551E+03 -0.59896183894E+02  0.27550015472E+03  0.12500000000E+03 0.  0.
         21    1    1    2  503  504  0.18682723707E+03  0.13064823557E+02  0.78819432348E+03  0.81013912243E+03  0.00000000000E+00 0.  1.
         21    1    1    2  504  502 -0.66446345280E+01  0.14256940195E+03  0.10091404765E+03  0.17479654045E+03  0.00000000000E+00 0.  1.
<mgrwt>
<rscale>  4 0.22550661E+03</rscale>
<asrwt>0</asrwt>
<pdfrwt beam="1">  1       21 0.16074215E+00 0.22550661E+03</pdfrwt>
<pdfrwt beam="2">  1       21 0.33171049E-01 0.22550661E+03</pdfrwt>
<totfact> 0.21108354E+03</totfact>
</mgrwt>
</event>
<event>
 5    0  0.1200001E+000  0.3086831E+03  0.7546771E-02  0.1080979E+00
         21   -1    0    0  502  501  0.00000000000E+00  0.00000000000E+00  0.25783220940E+03  0.25783220940E+03  0.00000000000E+00 0.  1.
         21   -1    0    0  503  502 -0.00000000000E+00 -0.00000000000E+00 -0.94886577170E+03  0.94886577170E+03  0.00000000000E+00 0.  1.
         25    1    1    2    0    0  0.21377750509E+03  0.17836658498E+03 -0.78343731674E+03  0.84078207021E+03  0.12500000000E+03 0.  0.
         21    1    1    2  503  504  0.92011426665E+01  0.38748117857E+02 -0.42013481824E+01  0.40046585253E+02  0.00000000000E+00 0.  1.
         21    1    1    2  504  501 -0.22297864776E+03 -0.21711470284E+03  0.96605102625E+02  0.32586932565E+03  0.00000000000E+00 0.  1.
<mgrwt>
<rscale>  4 0.30868314E+03</rscale>
<asrwt>0</asrwt>
<pdfrwt beam="1">  1       21 0.39666493E-01 0.30868314E+03</pdfrwt>
<pdfrwt beam="2">  1       21 0.14597935E+00 0.30868314E+03</pdfrwt>
<totfact> 0.17995012E+03</totfact>
</mgrwt>
</event>
<event>
 5    0  0.1200001E+000  0.4039793E+03  0.7546771E-02  0.1042410E+00
         21   -1    0    0  502  501  0.00000000000E+00  0.00000000000E+00  0.13001704757E+04  0.13001704757E+04  0.00000000000E+00 0. -1.
         21   -1    0    0  504  502 -0.00000000000E+00 -0.00000000000E+00 -0.82052188044E+03  0.82052188044E+03  0.00000000000E+00 0.  1.
         25    1    1    2    0    0  0.28631190152E+03  0.25055853103E+03 -0.66738042164E+03  0.77831594460E+03  0.12500000000E+03 0.  0.
         21    1    1    2  503  501 -0.43187725999E+03 -0.20114822687E+03  0.10681830539E+04  0.11696125912E+04  0.00000000000E+00 0. -1.
         21    1    1    2  504  503  0.14556535847E+03 -0.49410304156E+02  0.78845963052E+02  0.17276382039E+03  0.00000000000E+00 0. -1.
<mgrwt>
<rscale>  4 0.40397934E+03</rscale>
<asrwt>0</asrwt>
<pdfrwt beam="1">  1       21 0.20002623E+00 0.40397934E+03</pdfrwt>
<pdfrwt beam="2">  1       21 0.12623414E+00 0.40397934E+03</pdfrwt>
<totfact> 0.50339068E+01</totfact>
</mgrwt>
</event>
<event>
 5    0  0.1200001E+000  0.3501568E+03  0.7546771E-02  0.1062551E+00
         21   -1    0    0  503  501  0.00000000000E+00  0.00000000000E+00  0.82155699025E+03  0.82155699025E+03  0.00000000000E+00 0.  1.
         21   -1    0    0  501  502 -0.00000000000E+00 -0.00000000000E+00 -0.47489691224E+03  0.47489691224E+03  0.00000000000E+00 0. -1.
         25    1    1    2    0    0  0.69570589375E+02 -0.24414529320E+03  0.16992209036E+03  0.33006894414E+03  0.12500000000E+03 0.  0.
         21    1    1    2  503  504  0.12127185431E+03 -0.53607191611E+02  0.48156401790E+03  0.49948423096E+03  0.00000000000E+00 0.  1.
         21    1    1    2  504  502 -0.19084244369E+03  0.29775248481E+03 -0.30482603024E+03  0.46690072739E+03  0.00000000000E+00 0. -1.
<mgrwt>
<rscale>  4 0.35015679E+03</rscale>
<asrwt>0</asrwt>
<pdfrwt beam="1">  1       21 0.12639338E+00 0.35015679E+03</pdfrwt>
<pdfrwt beam="2">  1       21 0.73061064E-01 0.35015679E+03</pdfrwt>
<totfact> 0.69122347E+02</totfact>
</mgrwt>
</event>
<event>
 5    0  0.1200001E+000  0.2756334E+03  0.7546771E-02  0.1098098E+00
         21   -1    0    0  503  501  0.00000000000E+00  0.00000000000E+00  0.54599557258E+03  0.54599557258E+03  0.00000000000E+00 0. -1.
         21   -1    0    0  504  502 -0.00000000000E+00 -0.00000000000E+00 -0.42423534302E+03  0.42423534302E+03  0.00000000000E+00 0. -1.
         25    1    1    2    0    0  0.13294802250E+03 -0.17244817367E+03  0.29212420634E+02  0.25276850043E+03  0.12500000000E+03 0.  0.
         21    1    1    2  503  502 -0.13654971099E+03  0.21701579330E+03 -0.25819750492E+03  0.36387859192E+03  0.00000000000E+00 0. -1.
         21    1    1    2  504  501  0.36016884907E+01 -0.44567619628E+02  0.35074531384E+03  0.35358382325E+03  0.00000000000E+00 0. -1.
<mgrwt>
<rscale>  4 0.27563342E+03</rscale>
<asrwt>0</asrwt>
<pdfrwt beam="1">  1       21 0.83999319E-01 0.27563342E+03</pdfrwt>
<pdfrwt beam="2">  1       21 0.65266976E-01 0.27563342E+03</pdfrwt>
<totfact> 0.25003875E+03</totfact>
</mgrwt>
</event>
<event>
 5    0  0.1200001E+000  0.3315413E+03  0.7546771E-02  0.1070457E+00
         21   -1    0    0  503  501  0.00000000000E+00  0.00000000000E+00  0.30939040661E+03  0.30939040661E+03  0.00000000000E+00 0. -1.
         21   -1    0    0  504  502 -0.00000000000E+00 -0.00000000000E+00 -0.48470230622E+03  0.48470230622E+03  0.00000000000E+00 0. -1.
         25    1    1    2    0    0  0.27471055255E+03  0.13790190272E+03 -0.44918213716E+02  0.33485141239E+03  0.12500000000E+03 0.  0.
         21    1    1    2  503  502 -0.26299473029E+03 -0.15883755730E+03 -0.21258856046E+03  0.37361677399E+03  0.00000000000E+00 0. -1.
         21    1    1    2  504  501 -0.11715822256E+02  0.20935654581E+02  0.82194874566E+02  0.85624526444E+02  0.00000000000E+00 0.  1.
<mgrwt>
<rscale>  4 0.33154126E+03</rscale>
<asrwt>0</asrwt>
<pdfrwt beam="1">  1       21 0.47598524E-01 0.33154126E+03</pdfrwt>
<pdfrwt beam="2">  1       21 0.74569585E-01 0.33154126E+03</pdfrwt>
<totfact> 0.62740877E+03</totfact>
</mgrwt>
</event>
<event>
 5    0  0.1200001E+000  0.2499945E+03  0.7546771E-02  0.1113308E+00
         21   -1    0    0  503  501  0.00000000000E+00  0.00000000000E+00  0.19800189151E+04  0.19800189151E+04  0.00000000000E+00 0. -1.
         21   -1    0    0  501  502 -0.00000000000E+00 -0.00000000000E+00 -0.88960819373E+02  0.88960819373E+02  0.00000000000E+00 0.  1.
         25    1    1    2    0    0  0.94380771653E+02 -0.18911848915E+03  0.17446218980E+03  0.30122348625E+03  0.12500000000E+03 0.  0.
         21    1    1    2  503  504  0.51010937261E+02  0.87113350043E+01  0.12053015048E+04  0.12064119199E+04  0.00000000000E+00 0. -1.
         21    1    1    2  504  502 -0.14539170891E+03  0.18040715415E+03  0.51129440118E+03  0.56134432835E+03  0.00000000000E+00 0.  1.
<mgrwt>
<rscale>  4 0.24999452E+03</rscale>
<asrwt>0</asrwt>
<pdfrwt beam="1">  1       21 0.30461826E+00 0.24999452E+03</pdfrwt>
<pdfrwt beam="2">  1       21 0.13686281E-01 0.24999452E+03</pdfrwt>
<totfact> 0.13915347E+03</totfact>
</mgrwt>
</event>
<event>
 5    0  0.1200001E+000  0.2885157E+03  0.7546771E-02  0.1091127E+00
         21   -1    0    0  503  501  0.00000000000E+00  0.00000000000E+00  0.23820593429E+04  0.23820593429E+04  0.00000000000E+00 0.  1.
         21   -1    0    0  504  502 -0.00000000000E+00 -0.00000000000E+00 -0.16985364553E+03  0.16985364553E+03  0.00000000000E+00 0.  1.
         25    1    1    2    0    0 -0.15272630882E+03  0.24558063201E+03  0.28573001975E+03  0.42532554168E+03  0.12500000000E+03 0.  0.
         21    1    1    2  503  502  0.14492150369E+03 -0.20078765918E+03  0.53852980882E+02  0.25341284471E+03  0.00000000000E+00 0.  1.
         21    1    1    2  504  501  0.78048051321E+01 -0.44792972824E+02  0.18726226968E+04  0.18731746021E+04  0.00000000000E+00 0.  1.
<mgrwt>
<rscale>  4 0.28851570E+03</rscale>
<asrwt>0</asrwt>
<pdfrwt beam="1">  1       21 0.36647064E+00 0.28851570E+03</pdfrwt>
<pdfrwt beam="2">  1       21 0.26131332E-01 0.28851570E+03</pdfrwt>
<totfact> 0.17028673E+02</totfact>
</mgrwt>
</event>
<event>
 5    0  0.1200001E+000  0.2052974E+03  0.7546771E-02  0.1145345E+00
         21   -1    0    0  503  501  0.00000000000E+00  0.00000000000E+00  0.12779251373E+04  0.12779251373E+04  0.00000000000E+00 0.  1.
         21   -1    0    0  504  502 -0.00000000000E+00 -0.00000000000E+00 -0.34720135058E+03  0.34720135058E+03  0.00000000000E+00 0.  1.
         25    1    1    2    0    0  0.22209277421E+03 -0.18998862054E+03  0.83949858682E+03  0.89766572485E+03  0.12500000000E+03 0.  0.
         21    1    1    2  503  502 -0.15001070311E+03  0.55994566491E+02 -0.28206985313E+03  0.32434858497E+03  0.00000000000E+00 0.  1.
         21    1    1    2  504  501 -0.72082071097E+02  0.13399405405E+03  0.37329505298E+03  0.40311217803E+03  0.00000000000E+00 0.  1.
<mgrwt>
<rscale>  4 0.20529742E+03</rscale>
<asrwt>0</asrwt>
<pdfrwt beam="1">  1       21 0.19660386E+00 0.20529742E+03</pdfrwt>
<pdfrwt beam="2">  1       21 0.53415593E-01 0.20529742E+03</pdfrwt>
<totfact> 0.46147134E+02</totfact>
</mgrwt>
</event>
<event>
 5    0  0.1200001E+000  0.2297712E+03  0.7546771E-02  0.1126801E+00
         21   -1    0    0  503  501  0.00000000000E+00  0.00000000000E+00  0.13308894807E+03  0.13308894807E+03  0.00000000000E+00 0.  1.
         21   -1    0    0  501  502 -0.00000000000E+00 -0.00000000000E+00 -0.66780142178E+03  0.66780142178E+03  0.00000000000E+00 0.  1.
         25    1    1    2    0    0 -0.27436086906E+01  0.20056519696E+03 -0.44211178780E+03  0.50132001609E+03  0.12500000000E+03 0.  0.
         21    1    1    2  503  504  0.76582190595E+01 -0.18918557180E+02  0.59309900417E+02  0.62723396053E+02  0.00000000000E+00 0.  1.
         21    1    1    2  504  502 -0.49146103689E+01 -0.18164663978E+03 -0.15191058632E+03  0.23684695770E+03  0.00000000000E+00 0.  1.
<mgrwt>
<rscale>  4 0.22977119E+03</rscale>
<asrwt>0</asrwt>
<pdfrwt beam="1">  1       21 0.20475223E-01 0.22977119E+03</pdfrwt>
<pdfrwt beam="2">  1       21 0.10273868E+00 0.22977119E+03</pdfrwt>
<totfact> 0.16621982E+04</totfact>
</mgrwt>
</event>
<event>
 5    0  0.1200001E+000  0.2435819E+03  0.7546771E-02  0.1117429E+00
         21   -1    0    0  502  501  0.00000000000E+00  0.00000000000E+00  0.51359305978E+02  0.51359305978E+02  0.00000000000E+00 0.  1.
         21   -1    0    0  504  502 -0.00000000000E+00 -0.00000000000E+00 -0.19450356439E+04  0.19450356439E+04  0.00000000000E+00 0.  1.
         25    1    1    2    0    0 -0.20507685400E+03  0.86865809775E+02 -0.54952805769E+03  0.60597712098E+03  0.12500000000E+03 0.  0.
         21    1    1    2  503  501  0.19759748019E+03 -0.56887507064E+02 -0.13438794924E+04  0.13595194161E+04  0.00000000000E+00 0.  1.
         21    1    1    2  504  503  0.74793738152E+01 -0.29978302711E+02 -0.26878781043E+00  0.30898412791E+02  0.00000000000E+00 0.  1.
<mgrwt>
<rscale>  4 0.24358189E+03</rscale>
<asrwt>0</asrwt>
<pdfrwt beam="1">  1       21 0.79014309E-02 0.24358189E+03</pdfrwt>
<pdfrwt beam="2">  1       21 0.29923628E+00 0.24358189E+03</pdfrwt>
<totfact> 0.40061059E+03</totfact>
</mgrwt>
</event>
<event>
 5    0  0.1200001E+000  0.3914523E+03  0.7546771E-02  0.1046780E+00
         21   -1    0    0  503  501  0.00000000000E+00  0.00000000000E+00  0.58971548048E+03  0.58971548048E+03  0.00000000000E+00 0. -1.
         21   -1    0    0  501  502 -0.00000000000E+00 -0.00000000000E+00 -0.37612290378E+03  0.37612290378E+03  0.00000000000E+00 0. -1.
         25    1    1    2    0    0 -0.36302447181E+03  0.12732528728E+02 -0.14230477845E+03  0.40966392859E+03  0.12500000000E+03 0.  0.
         21    1    1    2  503  504 -0.31468980271E+02  0.46746768418E+01  0.35453043188E+02  0.47634730966E+02  0.00000000000E+00 0.  1.
         21    1    1    2  504  502  0.39449345208E+03 -0.17407205570E+02  0.32044431196E+03  0.50853972471E+03  0.00000000000E+00 0. -1.
<mgrwt>
<rscale>  4 0.39145233E+03</rscale>
<asrwt>0</asrwt>
<pdfrwt beam="1">  1       21 0.90725458E-01 0.39145233E+03</pdfrwt>
<pdfrwt beam="2">  1       21 0.57865062E-01 0.39145233E+03</pdfrwt>
<totfact> 0.25618214E+03</totfact>
</mgrwt>
</event>
<event>
 5    0  0.1200001E+000  0.3639734E+03  0.7546771E-02  0.1057022E+00
         21   -1    0    0  503  501  0.00000000000E+00  0.00000000000E+00  0.24586281647E+03  0.24586281647E+03  0.00000000000E+00 0.  1.
         21   -1    0    0  504  502 -0.00000000000E+00 -0.00000000000E+00 -0.80263020328E+03  0.80263020328E+03  0.00000000000E+00 0.  1.
         25    1    1    2    0    0  0.14739788014E+03 -0.30632549906E+03 -0.40753496289E+03  0.54522581782E+03  0.12500000000E+03 0.  0.
         21    1    1    2  503  502 -0.60217161536E+02  0.34764439195E+03 -0.18741622156E+03  0.39950916123E+03  0.00000000000E+00 0.  1.
         21    1    1    2  504  501 -0.87180718604E+02 -0.41318892895E+02  0.38183797646E+02  0.10375804070E+03  0.00000000000E+00 0.  1.
<mgrwt>
<rscale>  4 0.36397338E+03</rscale>
<asrwt>0</asrwt>
<pdfrwt beam="1">  1       21 0.37825049E-01 0.36397338E+03</pdfrwt>
<pdfrwt beam="2">  1       21 0.12348157E+00 0.36397338E+03</pdfrwt>
<totfact> 0.29749576E+03</totfact>
</mgrwt>
</event>
<event>
 5    0  0.1200001E+000  0.2640780E+03  0.7546771E-02  0.1104718E+00
         21   -1    0    0  502  501  0.00000000000E+00  0.00000000000E+00  0.16760040122E+03  0.16760040122E+03  0.00000000000E+00 0.  1.
         21   -1    0    0  504  502 -0.00000000000E+00 -0.00000000000E+00 -0.58878568944E+03  0.58878568944E+03  0.00000000000E+00 0.  1.
         25    1    1    2    0    0 -0.57648571950E+02 -0.22536376754E+03 -0.43276266728E+03  0.50697210155E+03  0.12500000000E+03 0.  0.
         21    1    1    2  503  501  0.15724546645E+02  0.19799462294E+03  0.31516213470E+01  0.19864305877E+03  0.00000000000E+00 0.  1.
         21    1    1    2  504  503  0.41924025305E+02  0.27369144593E+02  0.84257577136E+01  0.50770930330E+02  0.00000000000E+00 0.  1.
<mgrwt>
<rscale>  4 0.26407799E+03</rscale>
<asrwt>0</asrwt>
<pdfrwt beam="1">  1       21 0.25784677E-01 0.26407799E+03</pdfrwt>
<pdfrwt beam="2">  1       21 0.90582413E-01 0.26407799E+03</pdfrwt>
<totfact> 0.14180501E+04</totfact>
</mgrwt>
</event>
<event>
 5    0  0.1200001E+000  0.2491256E+03  0.7546771E-02  0.1113859E+00
         21   -1    0    0  503  501  0.00000000000E+00  0.00000000000E+00  0.67376423960E+03  0.67376423960E+03  0.00000000000E+00 0.  1.
         21   -1    0    0  501  502 -0.00000000000E+00 -0.00000000000E+00 -0.12194522860E+03  0.12194522860E+03  0.00000000000E+00 0.  1.
         25    1    1    2    0    0 -0.17331577200E+03  0.12177131139E+03  0.26047606544E+03  0.35824487403E+03  0.12500000000E+03 0.  0.
         21    1    1    2  503  504 -0.51401965794E+02 -0.83493997657E+02  0.96799530211E+02  0.13778083605E+03  0.00000000000E+00 0.  1.
         21    1    1    2  504  502  0.22471773780E+03 -0.38277313735E+02  0.19454341535E+03  0.29968375812E+03  0.00000000000E+00 0.  1.
<mgrwt>
<rscale>  4 0.24912556E+03</rscale>
<asrwt>0</asrwt>
<pdfrwt beam="1">  1       21 0.10365603E+00 0.24912556E+03</pdfrwt>
<pdfrwt beam="2">  1       21 0.18760805E-01 0.24912556E+03</pdfrwt>
<totfact> 0.18970464E+04</totfact>
</mgrwt>
</event>
<event>
 5    0  0.1200001E+000  0.4497137E+03  0.7546771E-02  0.1027807E+00
         21   -1    0    0  503  501  0.00000000000E+00  0.00000000000E+00  0.68765957234E+03  0.68765957234E+03  0.00000000000E+00 0.  1.
         21   -1    0    0  501  502 -0.00000000000E+00 -0.00000000000E+00 -0.65182623136E+03  0.65182623136E+03  0.00000000000E+00 0.  1.
         25    1    1    2    0    0 -0.25536766498E+03  0.34713729700E+03 -0.42096053898E+03  0.61526394553E+03  0.12500000000E+03 0.  0.
         21    1    1    2  503  504 -0.19246504775E+02 -0.82305147275E+01  0.23304428953E+03  0.23398249977E+03  0.00000000000E+00 0.  1.
         21    1    1    2  504  502  0.27461416975E+03 -0.33890678228E+03  0.22374959043E+03  0.49023935839E+03  0.00000000000E+00 0.  1.
<mgrwt>
<rscale>  4 0.44971371E+03</rscale>
<asrwt>0</asrwt>
<pdfrwt beam="1">  1       21 0.10579378E+00 0.44971371E+03</pdfrwt>
<pdfrwt beam="2">  1       21 0.10028096E+00 0.44971371E+03</pdfrwt>
<totfact> 0.48942141E+02</totfact>
</mgrwt>
</event>
<event>
 5    0  0.1200001E+000  0.4201391E+03  0.7546771E-02  0.1037021E+00
         21   -1    0    0  503  501  0.00000000000E+00  0.00000000000E+00  0.13134796872E+03  0.13134796872E+03  0.00000000000E+00 0. -1.
         21   -1    0    0  501  502 -0.00000000000E+00 -0.00000000000E+00 -0.18159923547E+04  0.18159923547E+04  0.00000000000E+00 0. -1.
         25    1    1    2    0    0  0.20461500644E+03 -0.34844069477E+03 -0.92694497024E+03  0.10188867437E+04  0.12500000000E+03 0.  0.
         21    1    1    2  503  504  0.51657081924E+02  0.40412240126E+02  0.61619251952E+01  0.65875432347E+02  0.00000000000E+00 0. -1.
         21    1    1    2  504  502 -0.25627208836E+03  0.30802845465E+03 -0.76386134095E+03  0.86257814739E+03  0.00000000000E+00 0. -1.
<mgrwt>
<rscale>  4 0.42013911E+03</rscale>
<asrwt>0</asrwt>
<pdfrwt beam="1">  1       21 0.20207381E-01 0.42013911E+03</pdfrwt>
<pdfrwt beam="2">  1       21 0.27938342E+00 0.42013911E+03</pdfrwt>
<totfact> 0.83666225E+02</totfact>
</mgrwt>
</event>
<event>
 5    0  0.1200001E+000  0.3242132E+03  0.7546771E-02  0.1073726E+00
         21   -1    0    0  503  501  0.00000000000E+00  0.00000000000E+00  0.31354513054E+03  0.31354513054E+03  0.00000000000E+00 0.  1.
         21   -1    0    0  504  502 -0.00000000000E+00 -0.00000000000E+00 -0.18557706845E+04  0.18557706845E+04  0.00000000000E+00 0. -1.
         25    1    1    2    0    0  0.29678834813E+03 -0.21748270823E+01 -0.17143078819E+04  0.17442948625E+04  0.12500000000E+03 0.  0.
         21    1    1    2  503  502 -0.33911125446E+03 -0.20355729504E+02  0.14062813879E+03  0.36767794609E+03  0.00000000000E+00 0.  1.
         21    1    1    2  504  501  0.42322906327E+02  0.22530556587E+02  0.31454189099E+02  0.57343006479E+02  0.00000000000E+00 0. -1.
<mgrwt>
<rscale>  4 0.32421321E+03</rscale>
<asrwt>0</asrwt>
<pdfrwt beam="1">  1       21 0.48237712E-01 0.32421321E+03</pdfrwt>
<pdfrwt beam="2">  1       21 0.28550318E+00 0.32421321E+03</pdfrwt>
<totfact> 0.14555911E+02</totfact>
</mgrwt>
</event>
<event>
 5    0  0.1200001E+000  0.2649831E+03  0.7546771E-02  0.1104186E+00
         21   -1    0    0  503  501  0.00000000000E+00  0.00000000000E+00  0.55666062888E+03  0.55666062888E+03  0.00000000000E+00 0.  1.
         21   -1    0    0  504  502 -0.00000000000E+00 -0.00000000000E+00 -0.27005427102E+03  0.27005427102E+03  0.00000000000E+00 0. -1.
         25    1    1    2    0    0 -0.22424413673E+03 -0.74469982306E+02  0.32130622214E+03  0.41796399307E+03  0.12500000000E+03 0.  0.
         21    1    1    2  503  502  0.22821128531E+03  0.48975915988E+02 -0.15859981744E+03  0.28219307784E+03  0.00000000000E+00 0. -1.
         21    1    1    2  504  501 -0.39671485871E+01  0.25494066318E+02  0.12389995315E+03  0.12655782898E+03  0.00000000000E+00 0.  1.
<mgrwt>
<rscale>  4 0.26498306E+03</rscale>
<asrwt>0</asrwt>
<pdfrwt beam="1">  1       21 0.85640097E-01 0.26498306E+03</pdfrwt>
<pdfrwt beam="2">  1       21 0.41546811E-01 0.26498306E+03</pdfrwt>
<totfact> 0.62638210E+03</totfact>
</mgrwt>
</event>
<event>
 5    0  0.1200001E+000  0.2625501E+03  0.7546771E-02  0.1105621E+00
         21   -1    0    0  503  501  0.00000000000E+00  0.00000000000E+00  0.14189815726E+04  0.14189815726E+04  0.00000000000E+00 0. -1.
         21   -1    0    0  504  502 -0.00000000000E+00 -0.00000000000E+00 -0.49386120259E+03  0.49386120259E+03  0.00000000000E+00 0. -1.
         25    1    1    2    0    0 -0.96118710394E+02  0.21363353014E+03 -0.33525359699E+03  0.42766583448E+03  0.12500000000E+03 0.  0.
         21    1    1    2  503  502  0.39490432923E+01 -0.23577537890E+03  0.15090438903E+02  0.23629080724E+03  0.00000000000E+00 0. -1.
         21    1    1    2  504  501  0.92169667102E+02  0.22141848768E+02  0.12452835281E+04  0.12488861335E+04  0.00000000000E+00 0. -1.
<mgrwt>
<rscale>  4 0.26255014E+03</rscale>
<asrwt>0</asrwt>
<pdfrwt beam="1">  1       21 0.21830486E+00 0.26255014E+03</pdfrwt>
<pdfrwt beam="2">  1       21 0.75978647E-01 0.26255014E+03</pdfrwt>
<totfact> 0.14620477E+02</totfact>
</mgrwt>
</event>
<event>
 5    0  0.1200001E+000  0.2616363E+03  0.7546771E-02  0.1106164E+00
         21   -1    0    0  503  501  0.00000000000E+00  0.00000000000E+00  0.27929864167E+03  0.27929864167E+03  0.00000000000E+00 0.  1.
         21   -1    0    0  504  502 -0.00000000000E+00 -0.00000000000E+00 -0.38272658226E+03  0.38272658226E+03  0.00000000000E+00 0.  1.
         25    1    1    2    0    0  0.10517028817E+03  0.17601896245E+03  0.34217175033E+02  0.24256809296E+03  0.12500000000E+03 0.  0.
         21    1    1    2  503  502 -0.13618170981E+03 -0.19679281206E+03 -0.22249038225E+03  0.32676419504E+03  0.00000000000E+00 0.  1.
         21    1    1    2  504  501  0.31011421643E+02  0.20773849612E+02  0.84845266630E+02  0.92692935921E+02  0.00000000000E+00 0.  1.
<mgrwt>
<rscale>  4 0.26163626E+03</rscale>
<asrwt>0</asrwt>
<pdfrwt beam="1">  1       21 0.42969022E-01 0.26163626E+03</pdfrwt>
<pdfrwt beam="2">  1       21 0.58881013E-01 0.26163626E+03</pdfrwt>
<totfact> 0.13505975E+04</totfact>
</mgrwt>
</event>
<event>
 5    0  0.1200001E+000  0.2694085E+03  0.7546771E-02  0.1101619E+00
         21   -1    0    0  503  501  0.00000000000E+00  0.00000000000E+00  0.26282278841E+03  0.26282278841E+03  0.00000000000E+00 0. -1.
         21   -1    0    0  501  502 -0.00000000000E+00 -0.00000000000E+00 -0.48941729208E+03  0.48941729208E+03  0.00000000000E+00 0. -1.
         25    1    1    2    0    0  0.22022660317E+03  0.98191621809E+02 -0.28469344512E+03  0.39346754508E+03  0.12500000000E+03 0.  0.
         21    1    1    2  503  504 -0.26343371544E+02  0.38353106822E+02  0.10696845773E+03  0.11664983916E+03  0.00000000000E+00 0. -1.
         21    1    1    2  504  502 -0.19388323162E+03 -0.13654472863E+03 -0.48869516283E+02  0.24212269626E+03  0.00000000000E+00 0. -1.
<mgrwt>
<rscale>  4 0.26940853E+03</rscale>
<asrwt>0</asrwt>
<pdfrwt beam="1">  1       21 0.40434275E-01 0.26940853E+03</pdfrwt>
<pdfrwt beam="2">  1       21 0.75294968E-01 0.26940853E+03</pdfrwt>
<totfact> 0.88610409E+03</totfact>
</mgrwt>
</event>
<event>
 5    0  0.1200001E+000  0.2606980E+03  0.7546771E-02  0.1106725E+00
         21   -1    0    0  502  501  0.00000000000E+00  0.00000000000E+00  0.39724253832E+03  0.39724253832E+03  0.00000000000E+00 0.  1.
         21   -1    0    0  504  502 -0.00000000000E+00 -0.00000000000E+00 -0.37974171905E+03  0.37974171905E+03  0.00000000000E+00 0.  1.
         25    1    1    2    0    0 -0.22876913898E+03  0.17660999290E+01 -0.29111155289E+03  0.39078046815E+03  0.12500000000E+03 0.  0.
         21    1    1    2  503  501  0.20609186346E+03  0.53887311237E+01  0.29092708125E+03  0.35656901325E+03  0.00000000000E+00 0.  1.
         21    1    1    2  504  503  0.22677275526E+02 -0.71548310527E+01  0.17685290904E+02  0.29634775974E+02  0.00000000000E+00 0. -1.
<mgrwt>
<rscale>  4 0.26069798E+03</rscale>
<asrwt>0</asrwt>
<pdfrwt beam="1">  1       21 0.61114236E-01 0.26069798E+03</pdfrwt>
<pdfrwt beam="2">  1       21 0.58421803E-01 0.26069798E+03</pdfrwt>
<totfact> 0.65350755E+03</totfact>
</mgrwt>
</event>
<event>
 5    0  0.1200001E+000  0.3178299E+03  0.7546771E-02  0.1076652E+00
         21   -1    0    0  503  501  0.00000000000E+00  0.00000000000E+00  0.83969678421E+02  0.83969678421E+02  0.00000000000E+00 0. -1.
         21   -1    0    0  501  502 -0.00000000000E+00 -0.00000000000E+00 -0.12893702993E+04  0.12893702993E+04  0.00000000000E+00 0. -1.
         25    1    1    2    0    0  0.23338514401E+03  0.14072747207E+03 -0.52210586600E+03  0.60207340263E+03  0.12500000000E+03 0.  0.
         21    1    1    2  503  504  0.35376367675E+02  0.12440720346E+02 -0.28577953083E+02  0.47148258875E+02  0.00000000000E+00 0.  1.
         21    1    1    2  504  502 -0.26876151168E+03 -0.15316819241E+03 -0.65471680176E+03  0.72411831619E+03  0.00000000000E+00 0. -1.
<mgrwt>
<rscale>  4 0.31782992E+03</rscale>
<asrwt>0</asrwt>
<pdfrwt beam="1">  1       21 0.12918412E-01 0.31782992E+03</pdfrwt>
<pdfrwt beam="2">  1       21 0.19836466E+00 0.31782992E+03</pdfrwt>
<totfact> 0.64815772E+03</totfact>
</mgrwt>
</event>
<event>
 5    0  0.1200001E+000  0.2482341E+03  0.7546771E-02  0.1114426E+00
         21   -1    0    0  503  501  0.00000000000E+00  0.00000000000E+00  0.15223674256E+03  0.15223674256E+03  0.00000000000E+00 0.  1.
         21   -1    0    0  501  502 -0.00000000000E+00 -0.00000000000E+00 -0.79904758494E+03  0.79904758494E+03  0.00000000000E+00 0.  1.
         25    1    1    2    0    0 -0.16931679956E+03 -0.12810154404E+03 -0.65048015841E+03  0.69557718528E+03  0.12500000000E+03 0.  0.
         21    1    1    2  503  504  0.55100296195E+01 -0.28514696100E+02  0.10709700744E+01  0.29061921770E+02  0.00000000000E+00 0.  1.
         21    1    1    2  504  502  0.16380676994E+03  0.15661624014E+03  0.25983459602E+01  0.22664522045E+03  0.00000000000E+00 0.  1.
<mgrwt>
<rscale>  4 0.24823410E+03</rscale>
<asrwt>0</asrwt>
<pdfrwt beam="1">  1       21 0.23421037E-01 0.24823410E+03</pdfrwt>
<pdfrwt beam="2">  1       21 0.12293040E+00 0.24823410E+03</pdfrwt>
<totfact> 0.82130417E+03</totfact>
</mgrwt>
</event>
<event>
 5    0  0.1200001E+000  0.3842013E+03  0.7546771E-02  0.1049392E+00
         21   -1    0    0  503  501  0.00000000000E+00  0.00000000000E+00  0.10720844769E+04  0.10720844769E+04  0.00000000000E+00 0. -1.
         21   -1    0    0  501  502 -0.00000000000E+00 -0.00000000000E+00 -0.19670530774E+03  0.19670530774E+03  0.00000000000E+00 0.  1.
         25    1    1    2    0    0 -0.38028271385E+03  0.31751643758E+02  0.59108821948E+03  0.71458616873E+03  0.12500000000E+03 0.  0.
         21    1    1    2  503  504  0.25132255044E+02  0.93188607928E+00  0.18122098902E+03  0.18295776976E+03  0.00000000000E+00 0. -1.
         21    1    1    2  504  502  0.35515045881E+03 -0.32683529838E+02  0.10306996071E+03  0.37124584619E+03  0.00000000000E+00 0.  1.
<mgrwt>
<rscale>  4 0.38420130E+03</rscale>
<asrwt>0</asrwt>
<pdfrwt beam="1">  1       21 0.16493607E+00 0.38420130E+03</pdfrwt>
<pdfrwt beam="2">  1       21 0.30262356E-01 0.38420130E+03</pdfrwt>
<totfact> 0.21344011E+03</totfact>
</mgrwt>
</event>
<event>
 5    0  0.1200001E+000  0.2571220E+03  0.7546771E-02  0.1108885E+00
         21   -1    0    0  503  501  0.00000000000E+00  0.00000000000E+00  0.48390399060E+03  0.48390399060E+03  0.00000000000E+00 0.  1.
         21   -1    0    0  501  502 -0.00000000000E+00 -0.00000000000E+00 -0.17513537033E+03  0.17513537033E+03  0.00000000000E+00 0.  1.
         25    1    1    2    0    0 -0.22704884740E+03  0.34647827145E+02 -0.31721175308E+01  0.26150853402E+03  0.12500000000E+03 0.  0.
         21    1    1    2  503  504  0.21504525202E+02  0.23615878366E+02  0.30281948895E+02  0.44013074695E+02  0.00000000000E+00 0. -1.
         21    1    1    2  504  502  0.20554432220E+03 -0.58263705511E+02  0.28165878891E+03  0.35351775222E+03  0.00000000000E+00 0.  1.
<mgrwt>
<rscale>  4 0.25712201E+03</rscale>
<asrwt>0</asrwt>
<pdfrwt beam="1">  1       21 0.74446767E-01 0.25712201E+03</pdfrwt>
<pdfrwt beam="2">  1       21 0.26943903E-01 0.25712201E+03</pdfrwt>
<totfact> 0.20484978E+04</totfact>
</mgrwt>
</event>
<event>
 5    0  0.1200001E+000  0.3047796E+03  0.7546771E-02  0.1082875E+00
         21   -1    0    0  503  501  0.00000000000E+00  0.00000000000E+00  0.74439592863E+03  0.74439592863E+03  0.00000000000E+00 0. -1.
         21   -1    0    0  501  502 -0.00000000000E+00 -0.00000000000E+00 -0.13163971360E+04  0.13163971360E+04  0.00000000000E+00 0.  1.
         25    1    1    2    0    0  0.11269586306E+03  0.25462191712E+03 -0.12575991567E+04  0.12941071505E+04  0.12500000000E+03 0.  0.
         21    1    1    2  503  504 -0.47242128404E+02  0.66141082581E+01  0.25036795154E+03  0.25487188210E+03  0.00000000000E+00 0. -1.
         21    1    1    2  504  502 -0.65453734657E+02 -0.26123602538E+03  0.43522999778E+03  0.51181403196E+03  0.00000000000E+00 0. -1.
<mgrwt>
<rscale>  4 0.30477959E+03</rscale>
<asrwt>0</asrwt>
<pdfrwt beam="1">  1       21 0.11452245E+00 0.30477959E+03</pdfrwt>
<pdfrwt beam="2">  1       21 0.20252264E+00 0.30477959E+03</pdfrwt>
<totfact> 0.67114468E+01</totfact>
</mgrwt>
</event>
<event>
 5    0  0.1200001E+000  0.2487615E+03  0.7546771E-02  0.1114090E+00
         21   -1    0    0  502  501  0.00000000000E+00  0.00000000000E+00  0.32582466009E+03  0.32582466009E+03  0.00000000000E+00 0.  1.
         21   -1    0    0  503  502 -0.00000000000E+00 -0.00000000000E+00 -0.32456262961E+03  0.32456262961E+03  0.00000000000E+00 0.  1.
         25    1    1    2    0    0 -0.18976225051E+03 -0.10123029696E+03 -0.21309273088E+03  0.32755273880E+03  0.12500000000E+03 0.  0.
         21    1    1    2  503  504  0.37332427225E+02  0.75457206689E+02  0.98942993942E+02  0.12991234050E+03  0.00000000000E+00 0.  1.
         21    1    1    2  504  501  0.15242982329E+03  0.25773090276E+02  0.11541176742E+03  0.19292221041E+03  0.00000000000E+00 0.  1.
<mgrwt>
<rscale>  4 0.24876150E+03</rscale>
<asrwt>0</asrwt>
<pdfrwt beam="1">  1       21 0.50126871E-01 0.24876150E+03</pdfrwt>
<pdfrwt beam="2">  1       21 0.49932712E-01 0.24876150E+03</pdfrwt>
<totfact> 0.14014837E+04</totfact>
</mgrwt>
</event>
<event>
 5    0  0.1200001E+000  0.2723885E+03  0.7546771E-02  0.1099920E+00
         21   -1    0    0  503  501  0.00000000000E+00  0.00000000000E+00  0.19753423206E+03  0.19753423206E+03  0.00000000000E+00 0.  1.
         21   -1    0    0  504  502 -0.00000000000E+00 -0.00000000000E+00 -0.45074252260E+03  0.45074252260E+03  0.00000000000E+00 0.  1.
         25    1    1    2    0    0  0.19831944131E+03  0.11411100505E+03 -0.88908610410E+02  0.27546626523E+03  0.12500000000E+03 0.  0.
         21    1    1    2  503  502 -0.20631395552E+03 -0.14254958817E+03 -0.20404039066E+03  0.32329292345E+03  0.00000000000E+00 0.  1.
         21    1    1    2  504  501  0.79945142137E+01  0.28438583125E+02  0.39740710531E+02  0.49517565986E+02  0.00000000000E+00 0.  1.
<mgrwt>
<rscale>  4 0.27238846E+03</rscale>
<asrwt>0</asrwt>
<pdfrwt beam="1">  1       21 0.30389882E-01 0.27238846E+03</pdfrwt>
<pdfrwt beam="2">  1       21 0.69345003E-01 0.27238846E+03</pdfrwt>
<totfact> 0.18843537E+04</totfact>
</mgrwt>
</event>
<event>
 5    0  0.1200001E+000  0.2223173E+03  0.7546771E-02  0.1132167E+00
         21   -1    0    0  503  501  0.00000000000E+00  0.00000000000E+00  0.17138308837E+04  0.17138308837E+04  0.00000000000E+00 0. -1.
         21   -1    0    0  504  502 -0.00000000000E+00 -0.00000000000E+00 -0.89147175747E+02  0.89147175747E+02  0.00000000000E+00 0. -1.
         25    1    1    2    0    0 -0.17240142863E+03  0.19282219031E+03  0.26818105110E+03  0.39299965119E+03  0.12500000000E+03 0.  0.
         21    1    1    2  503  502  0.97159996311E+01 -0.12048716671E+03  0.16119077088E+03  0.20147958360E+03  0.00000000000E+00 0. -1.
         21    1    1    2  504  501  0.16268542900E+03 -0.72335023596E+02  0.11953118860E+04  0.12084988247E+04  0.00000000000E+00 0. -1.
<mgrwt>
<rscale>  4 0.22231728E+03</rscale>
<asrwt>0</asrwt>
<pdfrwt beam="1">  1       21 0.26366626E+00 0.22231728E+03</pdfrwt>
<pdfrwt beam="2">  1       21 0.13714951E-01 0.22231728E+03</pdfrwt>
<totfact> 0.24719275E+03</totfact>
</mgrwt>
</event>
<event>
 5    0  0.1200001E+000  0.3029802E+03  0.7546771E-02  0.1083760E+00
         21   -1    0    0  503  501  0.00000000000E+00  0.00000000000E+00  0.16536981792E+04  0.16536981792E+04  0.00000000000E+00 0.  1.
         21   -1    0    0  504  502 -0.00000000000E+00 -0.00000000000E+00 -0.68936425285E+02  0.68936425285E+02  0.00000000000E+00 0.  1.
         25    1    1    2    0    0 -0.14602165149E+02  0.25677435884E+03  0.72831940950E+03  0.78244517817E+03  0.12500000000E+03 0.  0.
         21    1    1    2  503  502 -0.41861470493E+02 -0.28891560786E+03  0.50944202464E+03  0.58715908206E+03  0.00000000000E+00 0.  1.
         21    1    1    2  504  501  0.56463635642E+02  0.32141249021E+02  0.34700031979E+03  0.35303034427E+03  0.00000000000E+00 0.  1.
<mgrwt>
<rscale>  4 0.30298022E+03</rscale>
<asrwt>0</asrwt>
<pdfrwt beam="1">  1       21 0.25441508E+00 0.30298022E+03</pdfrwt>
<pdfrwt beam="2">  1       21 0.10605605E-01 0.30298022E+03</pdfrwt>
<totfact> 0.41708610E+03</totfact>
</mgrwt>
</event>
<event>
 5    0  0.1200001E+000  0.2064206E+03  0.7546771E-02  0.1144432E+00
         21   -1    0    0  503  501  0.00000000000E+00  0.00000000000E+00  0.19891737088E+03  0.19891737088E+03  0.00000000000E+00 0. -1.
         21   -1    0    0  504  502 -0.00000000000E+00 -0.00000000000E+00 -0.44924893858E+03  0.44924893858E+03  0.00000000000E+00 0. -1.
         25    1    1    2    0    0 -0.14321656793E+02 -0.20544858629E+03 -0.28303481441E+03  0.37168257644E+03  0.12500000000E+03 0.  0.
         21    1    1    2  503  502 -0.54958941182E+02  0.11917308273E+03 -0.47776897412E+02  0.13966152222E+03  0.00000000000E+00 0. -1.
         21    1    1    2  504  501  0.69280597975E+02  0.86275503566E+02  0.80480144112E+02  0.13682221080E+03  0.00000000000E+00 0. -1.
<mgrwt>
<rscale>  4 0.20642062E+03</rscale>
<asrwt>0</asrwt>
<pdfrwt beam="1">  1       21 0.30602672E-01 0.20642062E+03</pdfrwt>
<pdfrwt beam="2">  1       21 0.69115221E-01 0.20642062E+03</pdfrwt>
<totfact> 0.19370687E+04</totfact>
</mgrwt>
</event>
<event>
 5    0  0.1552655E+000  0.3619562E+03  0.7546771E-02  0.1057812E+00
         21   -1    0    0  503  501  0.00000000000E+00  0.00000000000E+00  0.14454886039E+04  0.14454886039E+04  0.00000000000E+00 0. -1.
         21   -1    0    0  501  502 -0.00000000000E+00 -0.00000000000E+00 -0.30197823070E+03  0.30197823070E+03  0.00000000000E+00 0.  1.
         25    1    1    2    0    0 -0.19061036675E+02  0.31481999307E+03  0.60155412476E+03  0.69062820400E+03  0.12500000000E+03 0.  0.
         21    1    1    2  503  504 -0.96773787852E+01  0.28004002508E+02  0.68400014279E+03  0.68464156399E+03  0.00000000000E+00 0. -1.
         21    1    1    2  504  502  0.28738415461E+02 -0.34282399557E+03 -0.14204389434E+03  0.37219706660E+03  0.00000000000E+00 0.  1.
<mgrwt>
<rscale>  4 0.36195620E+03</rscale>
<asrwt>0</asrwt>
<pdfrwt beam="1">  1       21 0.22238286E+00 0.36195620E+03</pdfrwt>
<pdfrwt beam="2">  1       21 0.46458190E-01 0.36195620E+03</pdfrwt>
<totfact> 0.36934089E+02</totfact>
</mgrwt>
</event>
<event>
 5    0  0.1200001E+000  0.2475548E+03  0.7546771E-02  0.1114860E+00
         21   -1    0    0  503  501  0.00000000000E+00  0.00000000000E+00  0.59005239926E+03  0.59005239926E+03  0.00000000000E+00 0. -1.
         21   -1    0    0  504  502 -0.00000000000E+00 -0.00000000000E+00 -0.31609171822E+03  0.31609171822E+03  0.00000000000E+00 0. -1.
         25    1    1    2    0    0  0.87986102882E+02 -0.20369881649E+03 -0.22713525406E+03  0.34124798282E+03  0.12500000000E+03 0.  0.
         21    1    1    2  503  502 -0.10775228672E+03  0.11961803118E+03  0.40425295145E+03  0.43513156336E+03  0.00000000000E+00 0. -1.
         21    1    1    2  504  501  0.19766183835E+02  0.84080785314E+02  0.96842983643E+02  0.12976457129E+03  0.00000000000E+00 0. -1.
<mgrwt>
<rscale>  4 0.24755484E+03</rscale>
<asrwt>0</asrwt>
<pdfrwt beam="1">  1       21 0.90777292E-01 0.24755484E+03</pdfrwt>
<pdfrwt beam="2">  1       21 0.48629495E-01 0.24755484E+03</pdfrwt>
<totfact> 0.39928034E+03</totfact>
</mgrwt>
</event>
<event>
 5    0  0.1200001E+000  0.2560815E+03  0.7546771E-02  0.1109521E+00
         21   -1    0    0  503  501  0.00000000000E+00  0.00000000000E+00  0.21023444280E+04  0.21023444280E+04  0.00000000000E+00 0. -1.
         21   -1    0    0  501  502 -0.00000000000E+00 -0.00000000000E+00 -0.48665799278E+02  0.48665799278E+02  0.00000000000E+00 0. -1.
         25    1    1    2    0    0 -0.19731325794E+03 -0.66763831979E+02  0.47119101880E+03  0.53012819885E+03  0.12500000000E+03 0.  0.
         21    1    1    2  503  504 -0.23121364673E+02 -0.81563209524E+02  0.40859800479E+03  0.41730023265E+03  0.00000000000E+00 0.  1.
         21    1    1    2  504  502  0.22043462261E+03  0.14832704150E+03  0.11738896052E+04  0.12035817958E+04  0.00000000000E+00 0. -1.
<mgrwt>
<rscale>  4 0.25608154E+03</rscale>
<asrwt>0</asrwt>
<pdfrwt beam="1">  1       21 0.32343753E+00 0.25608154E+03</pdfrwt>
<pdfrwt beam="2">  1       21 0.74870477E-02 0.25608154E+03</pdfrwt>
<totfact> 0.31394553E+03</totfact>
</mgrwt>
</event>
<event>
 5    0  0.1200001E+000  0.2670277E+03  0.7546771E-02  0.1102993E+00
         21   -1    0    0  503  501  0.00000000000E+00  0.00000000000E+00  0.47012133219E+03  0.47012133219E+03  0.00000000000E+00 0.  1.
         21   -1    0    0  504  502 -0.00000000000E+00 -0.00000000000E+00 -0.18592853342E+03  0.18592853342E+03  0.00000000000E+00 0.  1.
         25    1    1    2    0    0  0.43127455735E+02 -0.23251727475E+03  0.49927668034E+02  0.27210665654E+03  0.12500000000E+03 0.  0.
         21    1    1    2  503  502 -0.67947109286E+02  0.22611541560E+03  0.11623979045E+03  0.26316663868E+03  0.00000000000E+00 0.  1.
         21    1    1    2  504  501  0.24819653551E+02  0.64018591508E+01  0.11802534029E+03  0.12077657039E+03  0.00000000000E+00 0.  1.
<mgrwt>
<rscale>  4 0.26702773E+03</rscale>
<asrwt>0</asrwt>
<pdfrwt beam="1">  1       21 0.72326359E-01 0.26702773E+03</pdfrwt>
<pdfrwt beam="2">  1       21 0.28604390E-01 0.26702773E+03</pdfrwt>
<totfact> 0.19365669E+04</totfact>
</mgrwt>
</event>
<event>
 5    0  0.1200001E+000  0.2648471E+03  0.7546771E-02  0.1104265E+00
         21   -1    0    0  502  501  0.00000000000E+00  0.00000000000E+00  0.49965367424E+03  0.49965367424E+03  0.00000000000E+00 0. -1.
         21   -1    0    0  504  502 -0.00000000000E+00 -0.00000000000E+00 -0.11511826030E+04  0.11511826030E+04  0.00000000000E+00 0.  1.
         25    1    1    2    0    0 -0.23375920232E+03 -0.17779561455E+02 -0.10991733640E+04  0.11308256106E+04  0.12500000000E+03 0.  0.
         21    1    1    2  503  501  0.21444089477E+03 -0.19682663528E+02  0.32103340210E+03  0.38656791106E+03  0.00000000000E+00 0. -1.
         21    1    1    2  504  503  0.19318307549E+02  0.37462224983E+02  0.12661103313E+03  0.13344275558E+03  0.00000000000E+00 0. -1.
<mgrwt>
<rscale>  4 0.26484711E+03</rscale>
<asrwt>0</asrwt>
<pdfrwt beam="1">  1       21 0.76869797E-01 0.26484711E+03</pdfrwt>
<pdfrwt beam="2">  1       21 0.17710501E+00 0.26484711E+03</pdfrwt>
<totfact> 0.26502546E+02</totfact>
</mgrwt>
</event>
<event>
 5    0  0.1200001E+000  0.2532272E+03  0.7546771E-02  0.1111282E+00
         21   -1    0    0  502  501  0.00000000000E+00  0.00000000000E+00  0.92808996846E+03  0.92808996846E+03  0.00000000000E+00 0. -1.
         21   -1    0    0  504  502 -0.00000000000E+00 -0.00000000000E+00 -0.13939936413E+03  0.13939936413E+03  0.00000000000E+00 0. -1.
         25    1    1    2    0    0 -0.86501207355E+02  0.20252540052E+03  0.68513805220E+01  0.25331983370E+03  0.12500000000E+03 0.  0.
         21    1    1    2  503  501  0.60078366528E+00 -0.61055553888E+02  0.23766114396E+03  0.24537921866E+03  0.00000000000E+00 0. -1.
         21    1    1    2  504  503  0.85900423690E+02 -0.14146984663E+03  0.54417807985E+03  0.56879028023E+03  0.00000000000E+00 0. -1.
<mgrwt>
<rscale>  4 0.25322716E+03</rscale>
<asrwt>0</asrwt>
<pdfrwt beam="1">  1       21 0.14278307E+00 0.25322716E+03</pdfrwt>
<pdfrwt beam="2">  1       21 0.21446057E-01 0.25322716E+03</pdfrwt>
<totfact> 0.65950730E+03</totfact>
</mgrwt>
</event>
<event>
 5    0  0.1200001E+000  0.3101509E+03  0.7546771E-02  0.1080274E+00
         21   -1    0    0  503  501  0.00000000000E+00  0.00000000000E+00  0.44958772260E+03  0.44958772260E+03  0.00000000000E+00 0.  1.
         21   -1    0    0  501  502 -0.00000000000E+00 -0.00000000000E+00 -0.21131623348E+03  0.21131623348E+03  0.00000000000E+00 0.  1.
         25    1    1    2    0    0  0.26598055455E+03  0.99110696853E+02  0.59379870551E+02  0.31578403167E+03  0.12500000000E+03 0.  0.
         21    1    1    2  503  504 -0.37594545485E+02 -0.86463721335E+01  0.62131539240E+02  0.73133014225E+02  0.00000000000E+00 0.  1.
         21    1    1    2  504  502 -0.22838600907E+03 -0.90464324720E+02  0.11676007933E+03  0.27198691018E+03  0.00000000000E+00 0.  1.
<mgrwt>
<rscale>  4 0.31015091E+03</rscale>
<asrwt>0</asrwt>
<pdfrwt beam="1">  1       21 0.69167342E-01 0.31015091E+03</pdfrwt>
<pdfrwt beam="2">  1       21 0.32510190E-01 0.31015091E+03</pdfrwt>
<totfact> 0.16320967E+04</totfact>
</mgrwt>
</event>
<event>
 5    0  0.1200001E+000  0.2679221E+03  0.7546771E-02  0.1102475E+00
         21   -1    0    0  502  501  0.00000000000E+00  0.00000000000E+00  0.46343381242E+03  0.46343381242E+03  0.00000000000E+00 0.  1.
         21   -1    0    0  503  502 -0.00000000000E+00 -0.00000000000E+00 -0.21928987772E+03  0.21928987772E+03  0.00000000000E+00 0.  1.
         25    1    1    2    0    0 -0.22387955195E+03 -0.44252068690E+02 -0.48303183382E+02  0.26464787339E+03  0.12500000000E+03 0.  0.
         21    1    1    2  503  504 -0.33162070518E+02  0.18545473525E+01  0.61664589286E+02  0.70040587082E+02  0.00000000000E+00 0. -1.
         21    1    1    2  504  501  0.25704162247E+03  0.42397521338E+02  0.23078252879E+03  0.34803522967E+03  0.00000000000E+00 0.  1.
<mgrwt>
<rscale>  4 0.26792211E+03</rscale>
<asrwt>0</asrwt>
<pdfrwt beam="1">  1       21 0.71297509E-01 0.26792211E+03</pdfrwt>
<pdfrwt beam="2">  1       21 0.33736904E-01 0.26792211E+03</pdfrwt>
<totfact> 0.14434032E+04</totfact>
</mgrwt>
</event>
<event>
 5    0  0.1200001E+000  0.3960670E+03  0.7546771E-02  0.1045150E+00
         21   -1    0    0  503  501  0.00000000000E+00  0.00000000000E+00  0.17839534698E+04  0.17839534698E+04  0.00000000000E+00 0.  1.
         21   -1    0    0  501  502 -0.00000000000E+00 -0.00000000000E+00 -0.24090918049E+03  0.24090918049E+03  0.00000000000E+00 0. -1.
         25    1    1    2    0    0 -0.70298392194E+01  0.37575878077E+03 -0.36639465106E+02  0.39775813049E+03  0.12500000000E+03 0.  0.
         21    1    1    2  503  504 -0.36736785803E+01 -0.46188321350E+02  0.38401274149E+03  0.38679793507E+03  0.00000000000E+00 0.  1.
         21    1    1    2  504  502  0.10703517800E+02 -0.32957045942E+03  0.11956710130E+04  0.12403065848E+04  0.00000000000E+00 0.  1.
<mgrwt>
<rscale>  4 0.39606701E+03</rscale>
<asrwt>0</asrwt>
<pdfrwt beam="1">  1       21 0.27445437E+00 0.39606701E+03</pdfrwt>
<pdfrwt beam="2">  1       21 0.37062952E-01 0.39606701E+03</pdfrwt>
<totfact> 0.27626827E+02</totfact>
</mgrwt>
</event>
<event>
 5    0  0.1200001E+000  0.2271536E+03  0.7546771E-02  0.1128659E+00
         21   -1    0    0  503  501  0.00000000000E+00  0.00000000000E+00  0.16925206675E+03  0.16925206675E+03  0.00000000000E+00 0.  1.
         21   -1    0    0  501  502 -0.00000000000E+00 -0.00000000000E+00 -0.10337390891E+04  0.10337390891E+04  0.00000000000E+00 0.  1.
         25    1    1    2    0    0  0.81509943405E+02  0.18514716410E+03 -0.83573478122E+03  0.86890791675E+03  0.12500000000E+03 0.  0.
         21    1    1    2  503  504  0.32155297991E+01 -0.46656771012E+02  0.11062931247E+03  0.12010844554E+03  0.00000000000E+00 0.  1.
         21    1    1    2  504  502 -0.84725473204E+02 -0.13849039308E+03 -0.13938155355E+03  0.21397479351E+03  0.00000000000E+00 0.  1.
<mgrwt>
<rscale>  4 0.22715358E+03</rscale>
<asrwt>0</asrwt>
<pdfrwt beam="1">  1       21 0.26038779E-01 0.22715358E+03</pdfrwt>
<pdfrwt beam="2">  1       21 0.15903678E+00 0.22715358E+03</pdfrwt>
<totfact> 0.34807504E+03</totfact>
</mgrwt>
</event>
<event>
 5    0  0.1200001E+000  0.2879031E+03  0.7546771E-02  0.1091449E+00
         21   -1    0    0  503  501  0.00000000000E+00  0.00000000000E+00  0.84416202727E+03  0.84416202727E+03  0.00000000000E+00 0.  1.
         21   -1    0    0  501  502 -0.00000000000E+00 -0.00000000000E+00 -0.21692393043E+03  0.21692393043E+03  0.00000000000E+00 0. -1.
         25    1    1    2    0    0  0.67917170970E+02  0.20735139718E+03  0.15457476573E+03  0.29517063239E+03  0.12500000000E+03 0.  0.
         21    1    1    2  503  504 -0.39971412974E+02 -0.27637152003E+03  0.57507819185E+03  0.63929168435E+03  0.00000000000E+00 0.  1.
         21    1    1    2  504  502 -0.27945757996E+02  0.69020122856E+02 -0.10241486074E+03  0.12662364096E+03  0.00000000000E+00 0. -1.
<mgrwt>
<rscale>  4 0.28790311E+03</rscale>
<asrwt>0</asrwt>
<pdfrwt beam="1">  1       21 0.12987108E+00 0.28790311E+03</pdfrwt>
<pdfrwt beam="2">  1       21 0.33372913E-01 0.28790311E+03</pdfrwt>
<totfact> 0.35001645E+03</totfact>
</mgrwt>
</event>
<event>
 5    0  0.1200001E+000  0.2595035E+03  0.7546771E-02  0.1107442E+00
         21   -1    0    0  503  501  0.00000000000E+00  0.00000000000E+00  0.12380854226E+03  0.12380854226E+03  0.00000000000E+00 0.  1.
         21   -1    0    0  504  502 -0.00000000000E+00 -0.00000000000E+00 -0.83882626326E+03  0.83882626326E+03  0.00000000000E+00 0.  1.
         25    1    1    2    0    0  0.22551860605E+03  0.15885165791E+02 -0.54767273574E+03  0.60554224101E+03  0.12500000000E+03 0.  0.
         21    1    1    2  503  502 -0.22678879848E+03 -0.42764357276E+02 -0.20643179433E+03  0.30963855555E+03  0.00000000000E+00 0.  1.
         21    1    1    2  504  501  0.12701924299E+01  0.26879191485E+02  0.39086809077E+02  0.47454008972E+02  0.00000000000E+00 0.  1.
<mgrwt>
<rscale>  4 0.25950351E+03</rscale>
<asrwt>0</asrwt>
<pdfrwt beam="1">  1       21 0.19047468E-01 0.25950351E+03</pdfrwt>
<pdfrwt beam="2">  1       21 0.12905020E+00 0.25950351E+03</pdfrwt>
<totfact> 0.10665009E+04</totfact>
</mgrwt>
</event>
<event>
 5    0  0.1505848E+000  0.2765521E+03  0.7546771E-02  0.1097587E+00
         21   -1    0    0  502  501  0.00000000000E+00  0.00000000000E+00  0.83594828289E+02  0.83594828289E+02  0.00000000000E+00 0.  1.
         21   -1    0    0  503  502 -0.00000000000E+00 -0.00000000000E+00 -0.10009504719E+04  0.10009504719E+04  0.00000000000E+00 0.  1.
         25    1    1    2    0    0 -0.20179069438E+03 -0.14139863284E+03 -0.60375514294E+03  0.66397163369E+03  0.12500000000E+03 0.  0.
         21    1    1    2  503  504 -0.18132359224E+02  0.25926732066E+02 -0.40791604725E+02  0.51622988123E+02  0.00000000000E+00 0. -1.
         21    1    1    2  504  501  0.21992305361E+03  0.11547190077E+03 -0.27280889596E+03  0.36895067840E+03  0.00000000000E+00 0.  1.
<mgrwt>
<rscale>  4 0.27655213E+03</rscale>
<asrwt>0</asrwt>
<pdfrwt beam="1">  1       21 0.12860743E-01 0.27655213E+03</pdfrwt>
<pdfrwt beam="2">  1       21 0.15399238E+00 0.27655213E+03</pdfrwt>
<totfact> 0.13719011E+04</totfact>
</mgrwt>
</event>
<event>
 5    0  0.1200001E+000  0.2668223E+03  0.7546771E-02  0.1103112E+00
         21   -1    0    0  502  501  0.00000000000E+00  0.00000000000E+00  0.11490361736E+04  0.11490361736E+04  0.00000000000E+00 0.  1.
         21   -1    0    0  504  502 -0.00000000000E+00 -0.00000000000E+00 -0.76984089899E+02  0.76984089899E+02  0.00000000000E+00 0.  1.
         25    1    1    2    0    0 -0.21888205025E+03 -0.13035529548E+02  0.58096432023E+03  0.63342230647E+03  0.12500000000E+03 0.  0.
         21    1    1    2  503  501  0.24402717188E+03 -0.45830764973E+01  0.24935929098E+03  0.34892738672E+03  0.00000000000E+00 0.  1.
         21    1    1    2  504  503 -0.25145121637E+02  0.17618606046E+02  0.24172847250E+03  0.24367057031E+03  0.00000000000E+00 0.  1.
<mgrwt>
<rscale>  4 0.26682228E+03</rscale>
<asrwt>0</asrwt>
<pdfrwt beam="1">  1       21 0.17677478E+00 0.26682228E+03</pdfrwt>
<pdfrwt beam="2">  1       21 0.11843707E-01 0.26682228E+03</pdfrwt>
<totfact> 0.10930781E+04</totfact>
</mgrwt>
</event>
<event>
 5    0  0.1200001E+000  0.2590190E+03  0.7546771E-02  0.1107734E+00
         21   -1    0    0  503  501  0.00000000000E+00  0.00000000000E+00  0.69439646891E+03  0.69439646891E+03  0.00000000000E+00 0. -1.
         21   -1    0    0  501  502 -0.00000000000E+00 -0.00000000000E+00 -0.14268828813E+03  0.14268828813E+03  0.00000000000E+00 0. -1.
         25    1    1    2    0    0 -0.21607608622E+03  0.63664008259E+02  0.46160581634E+02  0.26172080597E+03  0.12500000000E+03 0.  0.
         21    1    1    2  503  504  0.60446620911E+01  0.39453082577E+02  0.90423836093E+02  0.98841053203E+02  0.00000000000E+00 0. -1.
         21    1    1    2  504  502  0.21003142412E+03 -0.10311709084E+03  0.41512376305E+03  0.47652289786E+03  0.00000000000E+00 0. -1.
<mgrwt>
<rscale>  4 0.25901897E+03</rscale>
<asrwt>0</asrwt>
<pdfrwt beam="1">  1       21 0.10683022E+00 0.25901897E+03</pdfrwt>
<pdfrwt beam="2">  1       21 0.21952045E-01 0.25901897E+03</pdfrwt>
<totfact> 0.13052552E+04</totfact>
</mgrwt>
</event>
<event>
 5    0  0.1200001E+000  0.2174633E+03  0.7546771E-02  0.1135788E+00
         21   -1    0    0  503  501  0.00000000000E+00  0.00000000000E+00  0.45009782493E+03  0.45009782493E+03  0.00000000000E+00 0. -1.
         21   -1    0    0  504  502 -0.00000000000E+00 -0.00000000000E+00 -0.19633141865E+03  0.19633141865E+03  0.00000000000E+00 0. -1.
         25    1    1    2    0    0  0.16232562613E+03  0.17199282252E+03  0.71745426912E+02  0.27695405067E+03  0.12500000000E+03 0.  0.
         21    1    1    2  503  502 -0.60629388727E+02 -0.14399501909E+03 -0.32608320400E+01  0.15627258661E+03  0.00000000000E+00 0. -1.
         21    1    1    2  504  501 -0.10169623741E+03 -0.27997803429E+02  0.18528181141E+03  0.21320260631E+03  0.00000000000E+00 0. -1.
<mgrwt>
<rscale>  4 0.21746333E+03</rscale>
<asrwt>0</asrwt>
<pdfrwt beam="1">  1       21 0.69245819E-01 0.21746333E+03</pdfrwt>
<pdfrwt beam="2">  1       21 0.30204834E-01 0.21746333E+03</pdfrwt>
<totfact> 0.19664605E+04</totfact>
</mgrwt>
</event>
<event>
 5    0  0.1200001E+000  0.2424651E+03  0.7546771E-02  0.1118161E+00
         21   -1    0    0  502  501  0.00000000000E+00  0.00000000000E+00  0.85925171059E+02  0.85925171059E+02  0.00000000000E+00 0.  1.
         21   -1    0    0  503  502 -0.00000000000E+00 -0.00000000000E+00 -0.14854551382E+04  0.14854551382E+04  0.00000000000E+00 0. -1.
         25    1    1    2    0    0 -0.18550882859E+03 -0.95586765186E+02 -0.12870188417E+04  0.13098064185E+04  0.12500000000E+03 0.  0.
         21    1    1    2  503  504  0.15883509298E+02 -0.15749167006E+02 -0.40514210284E+02  0.46278757156E+02  0.00000000000E+00 0.  1.
         21    1    1    2  504  501  0.16962531929E+03  0.11133593219E+03 -0.71996915152E+02  0.21529513355E+03  0.00000000000E+00 0.  1.
<mgrwt>
<rscale>  4 0.24246509E+03</rscale>
<asrwt>0</asrwt>
<pdfrwt beam="1">  1       21 0.13219257E-01 0.24246509E+03</pdfrwt>
<pdfrwt beam="2">  1       21 0.22853156E+00 0.24246509E+03</pdfrwt>
<totfact> 0.42065303E+03</totfact>
</mgrwt>
</event>
<event>
 5    0  0.1200001E+000  0.2197409E+03  0.7546771E-02  0.1134076E+00
         21   -1    0    0  503  501  0.00000000000E+00  0.00000000000E+00  0.69523312676E+03  0.69523312676E+03  0.00000000000E+00 0. -1.
         21   -1    0    0  504  502 -0.00000000000E+00 -0.00000000000E+00 -0.17151196716E+03  0.17151196716E+03  0.00000000000E+00 0. -1.
         25    1    1    2    0    0  0.17150308810E+03 -0.14938654097E+03  0.58243865854E+01  0.25959308799E+03  0.12500000000E+03 0.  0.
         21    1    1    2  503  502 -0.12202364904E+03  0.67160363707E+02  0.83748852169E+02  0.16252432316E+03  0.00000000000E+00 0. -1.
         21    1    1    2  504  501 -0.49479439066E+02  0.82226177264E+02  0.43414792085E+03  0.44462768278E+03  0.00000000000E+00 0.  1.
<mgrwt>
<rscale>  4 0.21974091E+03</rscale>
<asrwt>0</asrwt>
<pdfrwt beam="1">  1       21 0.10695894E+00 0.21974091E+03</pdfrwt>
<pdfrwt beam="2">  1       21 0.26386457E-01 0.21974091E+03</pdfrwt>
<totfact> 0.93678740E+03</totfact>
</mgrwt>
</event>
<event>
 5    0  0.1200001E+000  0.2238484E+03  0.7546771E-02  0.1131046E+00
         21   -1    0    0  503  501  0.00000000000E+00  0.00000000000E+00  0.35094961405E+03  0.35094961405E+03  0.00000000000E+00 0. -1.
         21   -1    0    0  501  502 -0.00000000000E+00 -0.00000000000E+00 -0.23985284609E+03  0.23985284609E+03  0.00000000000E+00 0. -1.
         25    1    1    2    0    0  0.72240054265E+02 -0.21565497778E+03 -0.32072304718E+02  0.26149441220E+03  0.12500000000E+03 0.  0.
         21    1    1    2  503  504 -0.45218383171E+02  0.17005388068E+03  0.18972212119E+03  0.25876148821E+03  0.00000000000E+00 0. -1.
         21    1    1    2  504  502 -0.27021671095E+02  0.45601097097E+02 -0.46553048509E+02  0.70546559737E+02  0.00000000000E+00 0. -1.
<mgrwt>
<rscale>  4 0.22384837E+03</rscale>
<asrwt>0</asrwt>
<pdfrwt beam="1">  1       21 0.53992248E-01 0.22384837E+03</pdfrwt>
<pdfrwt beam="2">  1       21 0.36900438E-01 0.22384837E+03</pdfrwt>
<totfact> 0.22572550E+04</totfact>
</mgrwt>
</event>
<event>
 5    0  0.1200001E+000  0.3421873E+03  0.7546771E-02  0.1065868E+00
         21   -1    0    0  503  501  0.00000000000E+00  0.00000000000E+00  0.73925418577E+03  0.73925418577E+03  0.00000000000E+00 0. -1.
         21   -1    0    0  504  502 -0.00000000000E+00 -0.00000000000E+00 -0.24026505251E+03  0.24026505251E+03  0.00000000000E+00 0. -1.
         25    1    1    2    0    0  0.21465469208E+03 -0.15351967168E+03 -0.29900084011E+02  0.29353695074E+03  0.12500000000E+03 0.  0.
         21    1    1    2  503  502 -0.28500799814E+03  0.17743511124E+03  0.50778741043E+03  0.60873707945E+03  0.00000000000E+00 0. -1.
         21    1    1    2  504  501  0.70353306055E+02 -0.23915439557E+02  0.21101806839E+02  0.77245208097E+02  0.00000000000E+00 0. -1.
<mgrwt>
<rscale>  4 0.34218731E+03</rscale>
<asrwt>0</asrwt>
<pdfrwt beam="1">  1       21 0.11373141E+00 0.34218731E+03</pdfrwt>
<pdfrwt beam="2">  1       21 0.36963855E-01 0.34218731E+03</pdfrwt>
<totfact> 0.38712962E+03</totfact>
</mgrwt>
</event>
<event>
 5    0  0.1200001E+000  0.2954256E+03  0.7546771E-02  0.1087550E+00
         21   -1    0    0  502  501  0.00000000000E+00  0.00000000000E+00  0.19285870736E+03  0.19285870736E+03  0.00000000000E+00 0.  1.
         21   -1    0    0  503  502 -0.00000000000E+00 -0.00000000000E+00 -0.11246023326E+04  0.11246023326E+04  0.00000000000E+00 0. -1.
         25    1    1    2    0    0 -0.19724964413E+03 -0.17787770595E+03 -0.96445474716E+03  0.10081398017E+04  0.12500000000E+03 0.  0.
         21    1    1    2  503  504 -0.19537867880E+01 -0.23545309484E+02 -0.28926198425E+01  0.23802649665E+02  0.00000000000E+00 0. -1.
         21    1    1    2  504  501  0.19920343092E+03  0.20142301543E+03  0.35603741749E+02  0.28551858865E+03  0.00000000000E+00 0.  1.
<mgrwt>
<rscale>  4 0.29542556E+03</rscale>
<asrwt>0</asrwt>
<pdfrwt beam="1">  1       21 0.29670570E-01 0.29542556E+03</pdfrwt>
<pdfrwt beam="2">  1       21 0.17301574E+00 0.29542556E+03</pdfrwt>
<totfact> 0.20379446E+03</totfact>
</mgrwt>
</event>
<event>
 5    0  0.1200001E+000  0.8660577E+03  0.7546771E-02  0.9469035E-01
         21   -1    0    0  503  501  0.00000000000E+00  0.00000000000E+00  0.19653877279E+04  0.19653877279E+04  0.00000000000E+00 0.  1.
         21   -1    0    0  504  502 -0.00000000000E+00 -0.00000000000E+00 -0.47169964659E+03  0.47169964659E+03  0.00000000000E+00 0. -1.
         25    1    1    2    0    0  0.58340689574E+03 -0.57539099954E+03  0.77699134198E+03  0.11361245327E+04  0.12500000000E+03 0.  0.
         21    1    1    2  503  502 -0.59505679780E+03  0.65403751873E+03  0.39297184533E+03  0.96761797200E+03  0.00000000000E+00 0.  1.
         21    1    1    2  504  501  0.11649902061E+02 -0.78646519183E+02  0.32372489397E+03  0.33334486973E+03  0.00000000000E+00 0. -1.
<mgrwt>
<rscale>  4 0.86605769E+03</rscale>
<asrwt>0</asrwt>
<pdfrwt beam="1">  1       21 0.30236734E+00 0.86605769E+03</pdfrwt>
<pdfrwt beam="2">  1       21 0.72569177E-01 0.86605769E+03</pdfrwt>
<totfact> 0.35292917E+01</totfact>
</mgrwt>
</event>
<event>
 5    0  0.1200001E+000  0.2443667E+03  0.7546771E-02  0.1116918E+00
         21   -1    0    0  502  501  0.00000000000E+00  0.00000000000E+00  0.10134089594E+03  0.10134089594E+03  0.00000000000E+00 0.  1.
         21   -1    0    0  503  502 -0.00000000000E+00 -0.00000000000E+00 -0.10566024523E+04  0.10566024523E+04  0.00000000000E+00 0. -1.
         25    1    1    2    0    0  0.82874094590E+02  0.20409469031E+03 -0.84797839899E+03  0.88499441994E+03  0.12500000000E+03 0.  0.
         21    1    1    2  503  504 -0.54860444845E+02 -0.21774924054E+02  0.10437828371E+01  0.59033085713E+02  0.00000000000E+00 0. -1.
         21    1    1    2  504  501 -0.28013649745E+02 -0.18231976625E+03 -0.10832694020E+03  0.21391584259E+03  0.00000000000E+00 0.  1.
<mgrwt>
<rscale>  4 0.24436667E+03</rscale>
<asrwt>0</asrwt>
<pdfrwt beam="1">  1       21 0.15590907E-01 0.24436667E+03</pdfrwt>
<pdfrwt beam="2">  1       21 0.16255423E+00 0.24436667E+03</pdfrwt>
<totfact> 0.84911271E+03</totfact>
</mgrwt>
</event>
<event>
 5    0  0.1200001E+000  0.3076654E+03  0.7546771E-02  0.1081470E+00
         21   -1    0    0  503  501  0.00000000000E+00  0.00000000000E+00  0.33588664599E+03  0.33588664599E+03  0.00000000000E+00 0.  1.
         21   -1    0    0  504  502 -0.00000000000E+00 -0.00000000000E+00 -0.31483649253E+03  0.31483649253E+03  0.00000000000E+00 0.  1.
         25    1    1    2    0    0 -0.19519210370E+03 -0.21333796011E+03 -0.19224776189E+01  0.31502656792E+03  0.12500000000E+03 0.  0.
         21    1    1    2  503  502  0.20493588027E+03  0.18388087311E+03 -0.27228883072E+02  0.27668086777E+03  0.00000000000E+00 0.  1.
         21    1    1    2  504  501 -0.97437765629E+01  0.29457087004E+02  0.50201514154E+02  0.59015702824E+02  0.00000000000E+00 0. -1.
<mgrwt>
<rscale>  4 0.30766538E+03</rscale>
<asrwt>0</asrwt>
<pdfrwt beam="1">  1       21 0.51674868E-01 0.30766538E+03</pdfrwt>
<pdfrwt beam="2">  1       21 0.48436384E-01 0.30766538E+03</pdfrwt>
<totfact> 0.13633637E+04</totfact>
</mgrwt>
</event>
<event>
 5    0  0.1200001E+000  0.2412052E+03  0.7546771E-02  0.1118993E+00
         21   -1    0    0  503  501  0.00000000000E+00  0.00000000000E+00  0.21997847566E+03  0.21997847566E+03  0.00000000000E+00 0. -1.
         21   -1    0    0  504  502 -0.00000000000E+00 -0.00000000000E+00 -0.11665991609E+04  0.11665991609E+04  0.00000000000E+00 0. -1.
         25    1    1    2    0    0 -0.20811362887E+03 -0.52621582232E+01 -0.10268738094E+04  0.10551937231E+04  0.12500000000E+03 0.  0.
         21    1    1    2  503  502  0.19437475308E+03  0.37626681024E+02 -0.43523293788E+02  0.20271060372E+03  0.00000000000E+00 0. -1.
         21    1    1    2  504  501  0.13738875793E+02 -0.32364522801E+02  0.12377641786E+03  0.12867330983E+03  0.00000000000E+00 0. -1.
<mgrwt>
<rscale>  4 0.24120516E+03</rscale>
<asrwt>0</asrwt>
<pdfrwt beam="1">  1       21 0.33842842E-01 0.24120516E+03</pdfrwt>
<pdfrwt beam="2">  1       21 0.17947680E+00 0.24120516E+03</pdfrwt>
<totfact> 0.14737621E+03</totfact>
</mgrwt>
</event>
<event>
 5    0  0.1200001E+000  0.2847231E+03  0.7546771E-02  0.1093137E+00
         21   -1    0    0  503  501  0.00000000000E+00  0.00000000000E+00  0.16684144626E+04  0.16684144626E+04  0.00000000000E+00 0.  1.
         21   -1    0    0  501  502 -0.00000000000E+00 -0.00000000000E+00 -0.97197495671E+02  0.97197495671E+02  0.00000000000E+00 0. -1.
         25    1    1    2    0    0  0.26854535151E+03 -0.37134215478E+02  0.18896329293E+03  0.35330961189E+03  0.12500000000E+03 0.  0.
         21    1    1    2  503  504 -0.19754508384E+02 -0.12360049300E+02  0.40027990654E+02  0.46316859306E+02  0.00000000000E+00 0. -1.
         21    1    1    2  504  502 -0.24879084313E+03  0.49494264778E+02  0.13422256834E+04  0.13659854871E+04  0.00000000000E+00 0.  1.
<mgrwt>
<rscale>  4 0.28472312E+03</rscale>
<asrwt>0</asrwt>
<pdfrwt beam="1">  1       21 0.25667913E+00 0.28472312E+03</pdfrwt>
<pdfrwt beam="2">  1       21 0.14953462E-01 0.28472312E+03</pdfrwt>
<totfact> 0.21965944E+03</totfact>
</mgrwt>
</event>
<event>
 5    0  0.1200001E+000  0.2115322E+03  0.7546771E-02  0.1140358E+00
         21   -1    0    0  503  501  0.00000000000E+00  0.00000000000E+00  0.23927643892E+04  0.23927643892E+04  0.00000000000E+00 0. -1.
         21   -1    0    0  504  502 -0.00000000000E+00 -0.00000000000E+00 -0.12352705706E+03  0.12352705706E+03  0.00000000000E+00 0. -1.
         25    1    1    2    0    0  0.10262078988E+03  0.21808329932E+03  0.92283204401E+02  0.28676216935E+03  0.12500000000E+03 0.  0.
         21    1    1    2  503  502 -0.10333803137E+03 -0.49149017644E+02  0.12060550525E+03  0.16625300767E+03  0.00000000000E+00 0. -1.
         21    1    1    2  504  501  0.71724148828E+00 -0.16893428168E+03  0.20563486225E+04  0.20632762693E+04  0.00000000000E+00 0. -1.
<mgrwt>
<rscale>  4 0.21153222E+03</rscale>
<asrwt>0</asrwt>
<pdfrwt beam="1">  1       21 0.36811756E+00 0.21153222E+03</pdfrwt>
<pdfrwt beam="2">  1       21 0.19004164E-01 0.21153222E+03</pdfrwt>
<totfact> 0.33634370E+02</totfact>
</mgrwt>
</event>
<event>
 5    0  0.1200001E+000  0.3296958E+03  0.7546771E-02  0.1071272E+00
         21   -1    0    0  503  501  0.00000000000E+00  0.00000000000E+00  0.26351920488E+03  0.26351920488E+03  0.00000000000E+00 0.  1.
         21   -1    0    0  501  502 -0.00000000000E+00 -0.00000000000E+00 -0.45382041767E+03  0.45382041767E+03  0.00000000000E+00 0. -1.
         25    1    1    2    0    0  0.14662522959E+03 -0.26483135759E+03 -0.29113005745E+00  0.32750525290E+03  0.12500000000E+03 0.  0.
         21    1    1    2  503  504  0.26954756205E+02  0.11856833838E+02 -0.95574122996E+00  0.29462804212E+02  0.00000000000E+00 0. -1.
         21    1    1    2  504  502 -0.17357998580E+03  0.25297452376E+03 -0.18905434151E+03  0.36037156545E+03  0.00000000000E+00 0. -1.
<mgrwt>
<rscale>  4 0.32969583E+03</rscale>
<asrwt>0</asrwt>
<pdfrwt beam="1">  1       21 0.40541416E-01 0.32969583E+03</pdfrwt>
<pdfrwt beam="2">  1       21 0.69818525E-01 0.32969583E+03</pdfrwt>
<totfact> 0.10155106E+04</totfact>
</mgrwt>
</event>
<event>
 5    0  0.1200001E+000  0.3123593E+03  0.7546771E-02  0.1079221E+00
         21   -1    0    0  503  501  0.00000000000E+00  0.00000000000E+00  0.17996571242E+03  0.17996571242E+03  0.00000000000E+00 0. -1.
         21   -1    0    0  504  502 -0.00000000000E+00 -0.00000000000E+00 -0.86153253504E+03  0.86153253504E+03  0.00000000000E+00 0. -1.
         25    1    1    2    0    0 -0.14171951010E+03 -0.24287181546E+03 -0.62420869428E+03  0.69594010684E+03  0.12500000000E+03 0.  0.
         21    1    1    2  503  502  0.17646966746E+03  0.24928222402E+03 -0.50831593234E+02  0.30962400038E+03  0.00000000000E+00 0. -1.
         21    1    1    2  504  501 -0.34750157358E+02 -0.64104085513E+01 -0.65265351092E+01  0.35934140240E+02  0.00000000000E+00 0.  1.
<mgrwt>
<rscale>  4 0.31235925E+03</rscale>
<asrwt>0</asrwt>
<pdfrwt beam="1">  1       21 0.27687032E-01 0.31235925E+03</pdfrwt>
<pdfrwt beam="2">  1       21 0.13254347E+00 0.31235925E+03</pdfrwt>
<totfact> 0.47380765E+03</totfact>
</mgrwt>
</event>
<event>
 5    0  0.1200001E+000  0.3026023E+03  0.7546771E-02  0.1083947E+00
         21   -1    0    0  503  501  0.00000000000E+00  0.00000000000E+00  0.17291389466E+03  0.17291389466E+03  0.00000000000E+00 0. -1.
         21   -1    0    0  501  502 -0.00000000000E+00 -0.00000000000E+00 -0.79648405933E+03  0.79648405933E+03  0.00000000000E+00 0. -1.
         25    1    1    2    0    0 -0.15561036604E+03  0.24481622561E+03 -0.48228804965E+03  0.57652088703E+03  0.12500000000E+03 0.  0.
         21    1    1    2  503  504  0.30498373797E+01 -0.38544989035E+02  0.56826081320E+02  0.68732970298E+02  0.00000000000E+00 0. -1.
         21    1    1    2  504  502  0.15256052866E+03 -0.20627123658E+03 -0.19810819634E+03  0.32414409667E+03  0.00000000000E+00 0. -1.
<mgrwt>
<rscale>  4 0.30260229E+03</rscale>
<asrwt>0</asrwt>
<pdfrwt beam="1">  1       21 0.26602138E-01 0.30260229E+03</pdfrwt>
<pdfrwt beam="2">  1       21 0.12253601E+00 0.30260229E+03</pdfrwt>
<totfact> 0.62891845E+03</totfact>
</mgrwt>
</event>
<event>
 5    0  0.1200001E+000  0.2456745E+03  0.7546771E-02  0.1116069E+00
         21   -1    0    0  503  501  0.00000000000E+00  0.00000000000E+00  0.61425389299E+02  0.61425389299E+02  0.00000000000E+00 0.  1.
         21   -1    0    0  504  502 -0.00000000000E+00 -0.00000000000E+00 -0.13428357402E+04  0.13428357402E+04  0.00000000000E+00 0.  1.
         25    1    1    2    0    0  0.23548346941E+03 -0.27182195406E+02 -0.67007158031E+03  0.72167323551E+03  0.12500000000E+03 0.  0.
         21    1    1    2  503  502 -0.16761776608E+03  0.10699671664E+03 -0.39830946359E+03  0.44519034318E+03  0.00000000000E+00 0.  1.
         21    1    1    2  504  501 -0.67865703326E+02 -0.79814521235E+02 -0.21302930700E+03  0.23739755080E+03  0.00000000000E+00 0.  1.
<mgrwt>
<rscale>  4 0.24567449E+03</rscale>
<asrwt>0</asrwt>
<pdfrwt beam="1">  1       21 0.94500604E-02 0.24567449E+03</pdfrwt>
<pdfrwt beam="2">  1       21 0.20659010E+00 0.24567449E+03</pdfrwt>
<totfact> 0.10492293E+04</totfact>
</mgrwt>
</event>
<event>
 5    0  0.1200001E+000  0.4258448E+03  0.7546771E-02  0.1035181E+00
         21   -1    0    0  502  501  0.00000000000E+00  0.00000000000E+00  0.25008988379E+04  0.25008988379E+04  0.00000000000E+00 0. -1.
         21   -1    0    0  503  502 -0.00000000000E+00 -0.00000000000E+00 -0.24963414305E+03  0.24963414305E+03  0.00000000000E+00 0.  1.
         25    1    1    2    0    0 -0.47105275585E+03  0.42502447740E+02  0.81793340775E+02  0.49599627766E+03  0.12500000000E+03 0.  0.
         21    1    1    2  503  504  0.22266870507E+03  0.10050179607E+03  0.15834264645E+04  0.16021614562E+04  0.00000000000E+00 0. -1.
         21    1    1    2  504  501  0.24838405079E+03 -0.14300424381E+03  0.58604488956E+03  0.65237524708E+03  0.00000000000E+00 0.  1.
<mgrwt>
<rscale>  4 0.42584483E+03</rscale>
<asrwt>0</asrwt>
<pdfrwt beam="1">  1       21 0.38475365E+00 0.42584483E+03</pdfrwt>
<pdfrwt beam="2">  1       21 0.38405255E-01 0.42584483E+03</pdfrwt>
<totfact> 0.53722693E+01</totfact>
</mgrwt>
</event>
<event>
 5    0  0.1200001E+000  0.3328222E+03  0.7546771E-02  0.1069895E+00
         21   -1    0    0  503  501  0.00000000000E+00  0.00000000000E+00  0.60182309163E+03  0.60182309163E+03  0.00000000000E+00 0. -1.
         21   -1    0    0  504  502 -0.00000000000E+00 -0.00000000000E+00 -0.26800452799E+03  0.26800452799E+03  0.00000000000E+00 0. -1.
         25    1    1    2    0    0 -0.24412828511E+03 -0.34454502762E+02 -0.59126937017E+02  0.28267777952E+03  0.12500000000E+03 0.  0.
         21    1    1    2  503  502  0.33145298926E+03  0.17580280582E+02  0.36627934718E+03  0.49429820000E+03  0.00000000000E+00 0. -1.
         21    1    1    2  504  501 -0.87324704148E+02  0.16874222180E+02  0.26666153480E+02  0.92851640105E+02  0.00000000000E+00 0. -1.
<mgrwt>
<rscale>  4 0.33282222E+03</rscale>
<asrwt>0</asrwt>
<pdfrwt beam="1">  1       21 0.92588168E-01 0.33282222E+03</pdfrwt>
<pdfrwt beam="2">  1       21 0.41231466E-01 0.33282222E+03</pdfrwt>
<totfact> 0.51227845E+03</totfact>
</mgrwt>
</event>
<event>
 5    0  0.1200001E+000  0.2720778E+03  0.7546771E-02  0.1100096E+00
         21   -1    0    0  502  501  0.00000000000E+00  0.00000000000E+00  0.95159992748E+03  0.95159992748E+03  0.00000000000E+00 0.  1.
         21   -1    0    0  503  502 -0.00000000000E+00 -0.00000000000E+00 -0.59288440042E+03  0.59288440042E+03  0.00000000000E+00 0. -1.
         25    1    1    2    0    0  0.16573450784E+03  0.17577551289E+03 -0.54019659688E+03  0.60481594002E+03  0.12500000000E+03 0.  0.
         21    1    1    2  503  504 -0.16297995341E+02  0.18206274487E+02  0.43440029687E+02  0.49841039938E+02  0.00000000000E+00 0.  1.
         21    1    1    2  504  501 -0.14943651250E+03 -0.19398178738E+03  0.85547209425E+03  0.88982734794E+03  0.00000000000E+00 0.  1.
<mgrwt>
<rscale>  4 0.27207785E+03</rscale>
<asrwt>0</asrwt>
<pdfrwt beam="1">  1       21 0.14639999E+00 0.27207785E+03</pdfrwt>
<pdfrwt beam="2">  1       21 0.91212985E-01 0.27207785E+03</pdfrwt>
<totfact> 0.29914490E+02</totfact>
</mgrwt>
</event>
<event>
 5    0  0.1200001E+000  0.2794529E+03  0.7546771E-02  0.1095988E+00
         21   -1    0    0  502  501  0.00000000000E+00  0.00000000000E+00  0.81293591947E+03  0.81293591947E+03  0.00000000000E+00 0.  1.
         21   -1    0    0  503  502 -0.00000000000E+00 -0.00000000000E+00 -0.11870144661E+03  0.11870144661E+03  0.00000000000E+00 0.  1.
         25    1    1    2    0    0 -0.22877001922E+03  0.70924600622E+02  0.20647287477E+03  0.34003245239E+03  0.12500000000E+03 0.  0.
         21    1    1    2  503  504  0.23591096818E+03 -0.13325354570E+03  0.41389969405E+03  0.49469530934E+03  0.00000000000E+00 0.  1.
         21    1    1    2  504  501 -0.71409489629E+01  0.62328945074E+02  0.73861904038E+02  0.96909604345E+02  0.00000000000E+00 0.  1.
<mgrwt>
<rscale>  4 0.27945294E+03</rscale>
<asrwt>0</asrwt>
<pdfrwt beam="1">  1       21 0.12506706E+00 0.27945294E+03</pdfrwt>
<pdfrwt beam="2">  1       21 0.18261762E-01 0.27945294E+03</pdfrwt>
<totfact> 0.12364325E+04</totfact>
</mgrwt>
</event>
<event>
 5    0  0.1200001E+000  0.2531568E+03  0.7546771E-02  0.1111326E+00
         21   -1    0    0  503  501  0.00000000000E+00  0.00000000000E+00  0.67452923337E+03  0.67452923337E+03  0.00000000000E+00 0.  1.
         21   -1    0    0  501  502 -0.00000000000E+00 -0.00000000000E+00 -0.10299735545E+04  0.10299735545E+04  0.00000000000E+00 0.  1.
         25    1    1    2    0    0 -0.53331464676E+02 -0.24958000171E+03 -0.66765866230E+03  0.72562215493E+03  0.12500000000E+03 0.  0.
         21    1    1    2  503  504  0.50209173558E+01  0.67883168655E+02  0.61701540002E+03  0.62075867941E+03  0.00000000000E+00 0.  1.
         21    1    1    2  504  502  0.48310547320E+02  0.18169683305E+03 -0.30480105882E+03  0.35812195351E+03  0.00000000000E+00 0.  1.
<mgrwt>
<rscale>  4 0.25315685E+03</rscale>
<asrwt>0</asrwt>
<pdfrwt beam="1">  1       21 0.10377373E+00 0.25315685E+03</pdfrwt>
<pdfrwt beam="2">  1       21 0.15845747E+00 0.25315685E+03</pdfrwt>
<totfact> 0.18119967E+02</totfact>
</mgrwt>
</event>
<event>
 5    0  0.1200001E+000  0.2871381E+03  0.7546771E-02  0.1091853E+00
         21   -1    0    0  503  501  0.00000000000E+00  0.00000000000E+00  0.11088958033E+04  0.11088958033E+04  0.00000000000E+00 0. -1.
         21   -1    0    0  504  502 -0.00000000000E+00 -0.00000000000E+00 -0.19900291640E+03  0.19900291640E+03  0.00000000000E+00 0. -1.
         25    1    1    2    0    0  0.23038214927E+03  0.11080589619E+03 -0.58683601126E+02  0.29055575433E+03  0.12500000000E+03 0.  0.
         21    1    1    2  503  502 -0.25152461279E+03 -0.12682729843E+03  0.91778854335E+03  0.96004458478E+03  0.00000000000E+00 0. -1.
         21    1    1    2  504  501  0.21142463517E+02  0.16021402240E+02  0.50787944708E+02  0.57298380614E+02  0.00000000000E+00 0.  1.
<mgrwt>
<rscale>  4 0.28713811E+03</rscale>
<asrwt>0</asrwt>
<pdfrwt beam="1">  1       21 0.17059935E+00 0.28713811E+03</pdfrwt>
<pdfrwt beam="2">  1       21 0.30615834E-01 0.28713811E+03</pdfrwt>
<totfact> 0.20038656E+03</totfact>
</mgrwt>
</event>
<event>
 5    0  0.1200001E+000  0.3115737E+03  0.7546771E-02  0.1079594E+00
         21   -1    0    0  503  501  0.00000000000E+00  0.00000000000E+00  0.20182852310E+04  0.20182852310E+04  0.00000000000E+00 0. -1.
         21   -1    0    0  504  502 -0.00000000000E+00 -0.00000000000E+00 -0.26676737381E+03  0.26676737381E+03  0.00000000000E+00 0. -1.
         25    1    1    2    0    0  0.20122701887E+03 -0.21529863688E+03 -0.14517298508E+03  0.35149112615E+03  0.12500000000E+03 0.  0.
         21    1    1    2  503  502 -0.13717680050E+03  0.69790939069E+02  0.40227038964E+03  0.43070838876E+03  0.00000000000E+00 0. -1.
         21    1    1    2  504  501 -0.64050218369E+02  0.14550769781E+03  0.14944204526E+04  0.15028530899E+04  0.00000000000E+00 0. -1.
<mgrwt>
<rscale>  4 0.31157374E+03</rscale>
<asrwt>0</asrwt>
<pdfrwt beam="1">  1       21 0.31050541E+00 0.31157374E+03</pdfrwt>
<pdfrwt beam="2">  1       21 0.41041136E-01 0.31157374E+03</pdfrwt>
<totfact> 0.14651954E+02</totfact>
</mgrwt>
</event>
<event>
 5    0  0.1200001E+000  0.2854353E+03  0.7546771E-02  0.1092757E+00
         21   -1    0    0  503  501  0.00000000000E+00  0.00000000000E+00  0.21639248813E+03  0.21639248813E+03  0.00000000000E+00 0. -1.
         21   -1    0    0  504  502 -0.00000000000E+00 -0.00000000000E+00 -0.15232036118E+04  0.15232036118E+04  0.00000000000E+00 0.  1.
         25    1    1    2    0    0  0.24850064395E+03  0.60065153426E+02 -0.13276588159E+04  0.13578156444E+04  0.12500000000E+03 0.  0.
         21    1    1    2  503  502 -0.26641488930E+03 -0.14956381152E+02 -0.72552547819E+02  0.27652207647E+03  0.00000000000E+00 0. -1.
         21    1    1    2  504  501  0.17914245350E+02 -0.45108772274E+02  0.93400240054E+02  0.10525837907E+03  0.00000000000E+00 0. -1.
<mgrwt>
<rscale>  4 0.28543528E+03</rscale>
<asrwt>0</asrwt>
<pdfrwt beam="1">  1       21 0.33291152E-01 0.28543528E+03</pdfrwt>
<pdfrwt beam="2">  1       21 0.23433902E+00 0.28543528E+03</pdfrwt>
<totfact> 0.65050539E+02</totfact>
</mgrwt>
</event>
<event>
 5    0  0.1200001E+000  0.3084423E+03  0.7546771E-02  0.1081095E+00
         21   -1    0    0  503  501  0.00000000000E+00  0.00000000000E+00  0.12327862068E+03  0.12327862068E+03  0.00000000000E+00 0. -1.
         21   -1    0    0  504  502 -0.00000000000E+00 -0.00000000000E+00 -0.81943915475E+03  0.81943915475E+03  0.00000000000E+00 0. -1.
         25    1    1    2    0    0  0.72552158612E+02  0.26189779429E+03 -0.40166794569E+03  0.50081574353E+03  0.12500000000E+03 0.  0.
         21    1    1    2  503  502 -0.92710271542E+02 -0.27989975258E+03 -0.29164883562E+03  0.41472654757E+03  0.00000000000E+00 0. -1.
         21    1    1    2  504  501  0.20158112929E+02  0.18001958285E+02 -0.28437527617E+01  0.27175484333E+02  0.00000000000E+00 0. -1.
<mgrwt>
<rscale>  4 0.30844234E+03</rscale>
<asrwt>0</asrwt>
<pdfrwt beam="1">  1       21 0.18965942E-01 0.30844234E+03</pdfrwt>
<pdfrwt beam="2">  1       21 0.12606756E+00 0.30844234E+03</pdfrwt>
<totfact> 0.11133857E+04</totfact>
</mgrwt>
</event>
<event>
 5    0  0.1454981E+000  0.3117234E+03  0.7546771E-02  0.1079523E+00
         21   -1    0    0  503  501  0.00000000000E+00  0.00000000000E+00  0.18265324794E+04  0.18265324794E+04  0.00000000000E+00 0. -1.
         21   -1    0    0  504  502 -0.00000000000E+00 -0.00000000000E+00 -0.84083046646E+02  0.84083046646E+02  0.00000000000E+00 0. -1.
         25    1    1    2    0    0 -0.17565887255E+03 -0.22106477089E+03  0.30188153419E+03  0.43183692885E+03  0.12500000000E+03 0.  0.
         21    1    1    2  503  502  0.20604093744E+03  0.21607423507E+03  0.13631336281E+04  0.13954476812E+04  0.00000000000E+00 0. -1.
         21    1    1    2  504  501 -0.30382064896E+02  0.49905358217E+01  0.77434270406E+02  0.83330915923E+02  0.00000000000E+00 0.  1.
<mgrwt>
<rscale>  4 0.31172337E+03</rscale>
<asrwt>0</asrwt>
<pdfrwt beam="1">  1       21 0.28100497E+00 0.31172337E+03</pdfrwt>
<pdfrwt beam="2">  1       21 0.12935855E-01 0.31172337E+03</pdfrwt>
<totfact> 0.20119250E+03</totfact>
</mgrwt>
</event>
<event>
 5    0  0.1200001E+000  0.2518522E+03  0.7546771E-02  0.1112140E+00
         21   -1    0    0  502  501  0.00000000000E+00  0.00000000000E+00  0.14383515143E+04  0.14383515143E+04  0.00000000000E+00 0.  1.
         21   -1    0    0  503  502 -0.00000000000E+00 -0.00000000000E+00 -0.11029344542E+03  0.11029344542E+03  0.00000000000E+00 0.  1.
         25    1    1    2    0    0  0.12055645500E+03 -0.19206944504E+03  0.10292482207E+03  0.27864502428E+03  0.12500000000E+03 0.  0.
         21    1    1    2  503  504 -0.60559380656E+02 -0.19100816961E+01  0.76085077129E+03  0.76325944682E+03  0.00000000000E+00 0.  1.
         21    1    1    2  504  501 -0.59997074340E+02  0.19397952674E+03  0.46428247554E+03  0.50674048863E+03  0.00000000000E+00 0.  1.
<mgrwt>
<rscale>  4 0.25185216E+03</rscale>
<asrwt>0</asrwt>
<pdfrwt beam="1">  1       21 0.22128484E+00 0.25185216E+03</pdfrwt>
<pdfrwt beam="2">  1       21 0.16968223E-01 0.25185216E+03</pdfrwt>
<totfact> 0.29289750E+03</totfact>
</mgrwt>
</event>
<event>
 5    0  0.1200001E+000  0.2661625E+03  0.7546771E-02  0.1103496E+00
         21   -1    0    0  503  501  0.00000000000E+00  0.00000000000E+00  0.21036158165E+04  0.21036158165E+04  0.00000000000E+00 0. -1.
         21   -1    0    0  504  502 -0.00000000000E+00 -0.00000000000E+00 -0.13195727476E+03  0.13195727476E+03  0.00000000000E+00 0. -1.
         25    1    1    2    0    0 -0.19031247037E+03 -0.16488149779E+03  0.44188194716E+03  0.52372645524E+03  0.12500000000E+03 0.  0.
         21    1    1    2  503  502  0.18661530269E+03  0.13467110567E+03  0.54816096391E+02  0.23657215036E+03  0.00000000000E+00 0. -1.
         21    1    1    2  504  501  0.36971676801E+01  0.30210392115E+02  0.14749604982E+04  0.14752744857E+04  0.00000000000E+00 0. -1.
<mgrwt>
<rscale>  4 0.26616251E+03</rscale>
<asrwt>0</asrwt>
<pdfrwt beam="1">  1       21 0.32363318E+00 0.26616251E+03</pdfrwt>
<pdfrwt beam="2">  1       21 0.20301121E-01 0.26616251E+03</pdfrwt>
<totfact> 0.51030036E+02</totfact>
</mgrwt>
</event>
<event>
 5    0  0.1200001E+000  0.2243479E+03  0.7546771E-02  0.1130682E+00
         21   -1    0    0  503  501  0.00000000000E+00  0.00000000000E+00  0.57895545906E+03  0.57895545906E+03  0.00000000000E+00 0. -1.
         21   -1    0    0  501  502 -0.00000000000E+00 -0.00000000000E+00 -0.30156771372E+03  0.30156771372E+03  0.00000000000E+00 0.  1.
         25    1    1    2    0    0  0.11927221225E+03  0.17964167538E+03  0.50157230609E+02  0.25423953259E+03  0.12500000000E+03 0.  0.
         21    1    1    2  503  504 -0.13801467221E+01 -0.45077055511E+02  0.38507224844E+03  0.38770411689E+03  0.00000000000E+00 0. -1.
         21    1    1    2  504  502 -0.11789206553E+03 -0.13456461987E+03 -0.15784173370E+03  0.23857952330E+03  0.00000000000E+00 0.  1.
<mgrwt>
<rscale>  4 0.22434789E+03</rscale>
<asrwt>0</asrwt>
<pdfrwt beam="1">  1       21 0.89070070E-01 0.22434789E+03</pdfrwt>
<pdfrwt beam="2">  1       21 0.46395033E-01 0.22434789E+03</pdfrwt>
<totfact> 0.46749563E+03</totfact>
</mgrwt>
</event>
<event>
 5    0  0.1200001E+000  0.3129447E+03  0.7546771E-02  0.1078943E+00
         21   -1    0    0  503  501  0.00000000000E+00  0.00000000000E+00  0.52690005730E+03  0.52690005730E+03  0.00000000000E+00 0.  1.
         21   -1    0    0  501  502 -0.00000000000E+00 -0.00000000000E+00 -0.23200138163E+03  0.23200138163E+03  0.00000000000E+00 0.  1.
         25    1    1    2    0    0  0.20453863504E+03 -0.24339043429E+03  0.74633167125E+02  0.34967136909E+03  0.12500000000E+03 0.  0.
         21    1    1    2  503  504 -0.59029921574E+02  0.29262911777E+02  0.10917114624E+03  0.12751152426E+03  0.00000000000E+00 0. -1.
         21    1    1    2  504  502 -0.14550871347E+03  0.21412752251E+03  0.11109436229E+03  0.28171854558E+03  0.00000000000E+00 0.  1.
<mgrwt>
<rscale>  4 0.31294472E+03</rscale>
<asrwt>0</asrwt>
<pdfrwt beam="1">  1       21 0.81061547E-01 0.31294472E+03</pdfrwt>
<pdfrwt beam="2">  1       21 0.35692520E-01 0.31294472E+03</pdfrwt>
<totfact> 0.94471199E+03</totfact>
</mgrwt>
</event>
<event>
 5    0  0.1200001E+000  0.3964347E+03  0.7546771E-02  0.1045021E+00
         21   -1    0    0  503  501  0.00000000000E+00  0.00000000000E+00  0.86672487926E+03  0.86672487926E+03  0.00000000000E+00 0.  1.
         21   -1    0    0  504  502 -0.00000000000E+00 -0.00000000000E+00 -0.39028736917E+03  0.39028736917E+03  0.00000000000E+00 0.  1.
         25    1    1    2    0    0 -0.30320036687E+03 -0.23242767889E+03 -0.20458245949E+03  0.45103444560E+03  0.12500000000E+03 0.  0.
         21    1    1    2  503  502  0.29625006942E+03  0.19168216879E+03  0.45282863095E+03  0.57407310203E+03  0.00000000000E+00 0.  1.
         21    1    1    2  504  501  0.69502974496E+01  0.40745510104E+02  0.22819133863E+03  0.23190470080E+03  0.00000000000E+00 0. -1.
<mgrwt>
<rscale>  4 0.39643468E+03</rscale>
<asrwt>0</asrwt>
<pdfrwt beam="1">  1       21 0.13334229E+00 0.39643468E+03</pdfrwt>
<pdfrwt beam="2">  1       21 0.60044211E-01 0.39643468E+03</pdfrwt>
<totfact> 0.90822362E+02</totfact>
</mgrwt>
</event>
<event>
 5    0  0.1200001E+000  0.2546692E+03  0.7546771E-02  0.1110389E+00
         21   -1    0    0  503  501  0.00000000000E+00  0.00000000000E+00  0.15310021392E+03  0.15310021392E+03  0.00000000000E+00 0.  1.
         21   -1    0    0  501  502 -0.00000000000E+00 -0.00000000000E+00 -0.94742814059E+03  0.94742814059E+03  0.00000000000E+00 0.  1.
         25    1    1    2    0    0 -0.13536504700E+03  0.17893168956E+03 -0.79210422073E+03  0.83270303348E+03  0.12500000000E+03 0.  0.
         21    1    1    2  503  504  0.25299829586E+02  0.26232338274E+01  0.43736867672E+02  0.50595220392E+02  0.00000000000E+00 0.  1.
         21    1    1    2  504  502  0.11006521742E+03 -0.18155492339E+03 -0.45960573616E+02  0.21723010063E+03  0.00000000000E+00 0.  1.
<mgrwt>
<rscale>  4 0.25466916E+03</rscale>
<asrwt>0</asrwt>
<pdfrwt beam="1">  1       21 0.23553879E-01 0.25466916E+03</pdfrwt>
<pdfrwt beam="2">  1       21 0.14575817E+00 0.25466916E+03</pdfrwt>
<totfact> 0.52220870E+03</totfact>
</mgrwt>
</event>
<event>
 5    0  0.1200001E+000  0.2386083E+03  0.7546771E-02  0.1120723E+00
         21   -1    0    0  503  501  0.00000000000E+00  0.00000000000E+00  0.51794175804E+03  0.51794175804E+03  0.00000000000E+00 0. -1.
         21   -1    0    0  501  502 -0.00000000000E+00 -0.00000000000E+00 -0.10146656314E+04  0.10146656314E+04  0.00000000000E+00 0. -1.
         25    1    1    2    0    0 -0.19725816825E+03 -0.60193244154E+02 -0.85843225705E+03  0.89166414727E+03  0.12500000000E+03 0.  0.
         21    1    1    2  503  504  0.35107714115E+01  0.43579176959E+02  0.43197282364E+03  0.43417967542E+03  0.00000000000E+00 0. -1.
         21    1    1    2  504  502  0.19374739684E+03  0.16614067195E+02 -0.70264439939E+02  0.20676356674E+03  0.00000000000E+00 0. -1.
<mgrwt>
<rscale>  4 0.23860829E+03</rscale>
<asrwt>0</asrwt>
<pdfrwt beam="1">  1       21 0.79683349E-01 0.23860829E+03</pdfrwt>
<pdfrwt beam="2">  1       21 0.15610240E+00 0.23860829E+03</pdfrwt>
<totfact> 0.35496538E+02</totfact>
</mgrwt>
</event>
<event>
 5    0  0.1200001E+000  0.2935925E+03  0.7546771E-02  0.1088488E+00
         21   -1    0    0  502  501  0.00000000000E+00  0.00000000000E+00  0.26511831379E+03  0.26511831379E+03  0.00000000000E+00 0. -1.
         21   -1    0    0  503  502 -0.00000000000E+00 -0.00000000000E+00 -0.34940401485E+03  0.34940401485E+03  0.00000000000E+00 0. -1.
         25    1    1    2    0    0  0.26244711593E+03  0.41146967948E+02  0.51246935364E+02  0.29803155876E+03  0.12500000000E+03 0.  0.
         21    1    1    2  503  504 -0.16445062956E+03 -0.51524565325E+02 -0.13338522028E+03  0.21792293910E+03  0.00000000000E+00 0. -1.
         21    1    1    2  504  501 -0.97996486376E+02  0.10377597377E+02 -0.21474161445E+01  0.98567830783E+02  0.00000000000E+00 0. -1.
<mgrwt>
<rscale>  4 0.29359251E+03</rscale>
<asrwt>0</asrwt>
<pdfrwt beam="1">  1       21 0.40787433E-01 0.29359251E+03</pdfrwt>
<pdfrwt beam="2">  1       21 0.53754463E-01 0.29359251E+03</pdfrwt>
<totfact> 0.18006787E+04</totfact>
</mgrwt>
</event>
<event>
 5    0  0.1200001E+000  0.2710018E+03  0.7546771E-02  0.1100708E+00
         21   -1    0    0  502  501  0.00000000000E+00  0.00000000000E+00  0.86298849525E+02  0.86298849525E+02  0.00000000000E+00 0.  1.
         21   -1    0    0  504  502 -0.00000000000E+00 -0.00000000000E+00 -0.10581107789E+04  0.10581107789E+04  0.00000000000E+00 0.  1.
         25    1    1    2    0    0 -0.21898147517E+02 -0.23945236828E+03 -0.79146187502E+03  0.83657268970E+03  0.12500000000E+03 0.  0.
         21    1    1    2  503  501 -0.88629087002E+00  0.21741077472E+03 -0.15168140135E+03  0.26509522438E+03  0.00000000000E+00 0.  1.
         21    1    1    2  504  503  0.22784438387E+02  0.22041593560E+02 -0.28668652992E+02  0.42741714328E+02  0.00000000000E+00 0.  1.
<mgrwt>
<rscale>  4 0.27100178E+03</rscale>
<asrwt>0</asrwt>
<pdfrwt beam="1">  1       21 0.13276747E-01 0.27100178E+03</pdfrwt>
<pdfrwt beam="2">  1       21 0.16278626E+00 0.27100178E+03</pdfrwt>
<totfact> 0.11164005E+04</totfact>
</mgrwt>
</event>
<event>
 5    0  0.1200001E+000  0.3097805E+03  0.7546771E-02  0.1080451E+00
         21   -1    0    0  503  501  0.00000000000E+00  0.00000000000E+00  0.38337994440E+03  0.38337994440E+03  0.00000000000E+00 0. -1.
         21   -1    0    0  501  502 -0.00000000000E+00 -0.00000000000E+00 -0.35357660731E+03  0.35357660731E+03  0.00000000000E+00 0. -1.
         25    1    1    2    0    0 -0.14036797609E+03  0.27455036597E+03 -0.11524736609E+03  0.35211933709E+03  0.12500000000E+03 0.  0.
         21    1    1    2  503  504 -0.28050157488E+02 -0.83440683147E+02  0.86602199439E+02  0.12348724585E+03  0.00000000000E+00 0. -1.
         21    1    1    2  504  502  0.16841813358E+03 -0.19110968282E+03  0.58448503749E+02  0.26134996877E+03  0.00000000000E+00 0. -1.
<mgrwt>
<rscale>  4 0.30978052E+03</rscale>
<asrwt>0</asrwt>
<pdfrwt beam="1">  1       21 0.58981530E-01 0.30978052E+03</pdfrwt>
<pdfrwt beam="2">  1       21 0.54396401E-01 0.30978052E+03</pdfrwt>
<totfact> 0.80250698E+03</totfact>
</mgrwt>
</event>
<event>
 5    0  0.1200001E+000  0.4037840E+03  0.7546771E-02  0.1042477E+00
         21   -1    0    0  503  501  0.00000000000E+00  0.00000000000E+00  0.10599408231E+04  0.10599408231E+04  0.00000000000E+00 0. -1.
         21   -1    0    0  501  502 -0.00000000000E+00 -0.00000000000E+00 -0.75948462150E+03  0.75948462150E+03  0.00000000000E+00 0. -1.
         25    1    1    2    0    0  0.32706693945E+03 -0.20582080430E+03 -0.89585350084E+02  0.41591528141E+03  0.12500000000E+03 0.  0.
         21    1    1    2  503  504  0.14635618467E+02  0.32080968525E+02  0.82384806728E+03  0.82460234527E+03  0.00000000000E+00 0. -1.
         21    1    1    2  504  502 -0.34170255792E+03  0.17373983577E+03 -0.43380651562E+03  0.57890781789E+03  0.00000000000E+00 0. -1.
<mgrwt>
<rscale>  4 0.40378399E+03</rscale>
<asrwt>0</asrwt>
<pdfrwt beam="1">  1       21 0.16306782E+00 0.40378399E+03</pdfrwt>
<pdfrwt beam="2">  1       21 0.11684379E+00 0.40378399E+03</pdfrwt>
<totfact> 0.11119749E+02</totfact>
</mgrwt>
</event>
<event>
 5    0  0.1200001E+000  0.1798918E+03  0.7546771E-02  0.1167908E+00
         21   -1    0    0  503  501  0.00000000000E+00  0.00000000000E+00  0.67480122922E+03  0.67480122922E+03  0.00000000000E+00 0. -1.
         21   -1    0    0  501  502 -0.00000000000E+00 -0.00000000000E+00 -0.55073261627E+03  0.55073261627E+03  0.00000000000E+00 0. -1.
         25    1    1    2    0    0 -0.20066028079E+03 -0.11436105226E+03 -0.15885018790E+03  0.30692243443E+03  0.12500000000E+03 0.  0.
         21    1    1    2  503  504  0.12504816042E+03  0.20926786880E+02  0.58233134737E+03  0.59597380056E+03  0.00000000000E+00 0. -1.
         21    1    1    2  504  502  0.75612120374E+02  0.93434265383E+02 -0.29941254651E+03  0.32263761049E+03  0.00000000000E+00 0. -1.
<mgrwt>
<rscale>  4 0.17989184E+03</rscale>
<asrwt>0</asrwt>
<pdfrwt beam="1">  1       21 0.10381557E+00 0.17989184E+03</pdfrwt>
<pdfrwt beam="2">  1       21 0.84728095E-01 0.17989184E+03</pdfrwt>
<totfact> 0.91848467E+02</totfact>
</mgrwt>
</event>
<event>
 5    0  0.1200001E+000  0.2379134E+03  0.7546771E-02  0.1121191E+00
         21   -1    0    0  503  501  0.00000000000E+00  0.00000000000E+00  0.82548246781E+03  0.82548246781E+03  0.00000000000E+00 0.  1.
         21   -1    0    0  504  502 -0.00000000000E+00 -0.00000000000E+00 -0.14934843933E+03  0.14934843933E+03  0.00000000000E+00 0.  1.
         25    1    1    2    0    0 -0.15641767147E+03 -0.12482958264E+03 -0.16956051047E+02  0.23656166282E+03  0.12500000000E+03 0.  0.
         21    1    1    2  503  502  0.14744954145E+03  0.15833203826E+03  0.54972968935E+03  0.59077333467E+03  0.00000000000E+00 0.  1.
         21    1    1    2  504  501  0.89681300210E+01 -0.33502455623E+02  0.14336039018E+03  0.14749590964E+03  0.00000000000E+00 0.  1.
<mgrwt>
<rscale>  4 0.23791339E+03</rscale>
<asrwt>0</asrwt>
<pdfrwt beam="1">  1       21 0.12699730E+00 0.23791339E+03</pdfrwt>
<pdfrwt beam="2">  1       21 0.22976684E-01 0.23791339E+03</pdfrwt>
<totfact> 0.78966959E+03</totfact>
</mgrwt>
</event>
<event>
 5    0  0.1200001E+000  0.2433363E+03  0.7546771E-02  0.1117590E+00
         21   -1    0    0  503  501  0.00000000000E+00  0.00000000000E+00  0.12435771746E+04  0.12435771746E+04  0.00000000000E+00 0.  1.
         21   -1    0    0  501  502 -0.00000000000E+00 -0.00000000000E+00 -0.62575909009E+02  0.62575909009E+02  0.00000000000E+00 0.  1.
         25    1    1    2    0    0 -0.18875818788E+03  0.10744966540E+03  0.31003802627E+03  0.39865230693E+03  0.12500000000E+03 0.  0.
         21    1    1    2  503  504 -0.57193576743E+01 -0.36566042460E+02  0.59655124182E+02  0.70203421246E+02  0.00000000000E+00 0. -1.
         21    1    1    2  504  502  0.19447754556E+03 -0.70883622939E+02  0.81130811517E+03  0.83729735547E+03  0.00000000000E+00 0.  1.
<mgrwt>
<rscale>  4 0.24333627E+03</rscale>
<asrwt>0</asrwt>
<pdfrwt beam="1">  1       21 0.19131955E+00 0.24333627E+03</pdfrwt>
<pdfrwt beam="2">  1       21 0.96270638E-02 0.24333627E+03</pdfrwt>
<totfact> 0.12785726E+04</totfact>
</mgrwt>
</event>
<event>
 5    0  0.1200001E+000  0.2471916E+03  0.7546771E-02  0.1115093E+00
         21   -1    0    0  503  501  0.00000000000E+00  0.00000000000E+00  0.10720498467E+04  0.10720498467E+04  0.00000000000E+00 0.  1.
         21   -1    0    0  501  502 -0.00000000000E+00 -0.00000000000E+00 -0.12560428470E+03  0.12560428470E+03  0.00000000000E+00 0.  1.
         25    1    1    2    0    0  0.14232273182E+03  0.15517479991E+03  0.30394836815E+02  0.24674647845E+03  0.12500000000E+03 0.  0.
         21    1    1    2  503  504  0.45804240287E+01  0.20051692892E+02  0.15168629466E+03  0.15307443503E+03  0.00000000000E+00 0. -1.
         21    1    1    2  504  502 -0.14690315585E+03 -0.17522649280E+03  0.76436443056E+03  0.79783321796E+03  0.00000000000E+00 0.  1.
<mgrwt>
<rscale>  4 0.24719159E+03</rscale>
<asrwt>0</asrwt>
<pdfrwt beam="1">  1       21 0.16493074E+00 0.24719159E+03</pdfrwt>
<pdfrwt beam="2">  1       21 0.19323737E-01 0.24719159E+03</pdfrwt>
<totfact> 0.54705738E+03</totfact>
</mgrwt>
</event>
<event>
 5    0  0.1200001E+000  0.2721200E+03  0.7546771E-02  0.1100072E+00
         21   -1    0    0  503  501  0.00000000000E+00  0.00000000000E+00  0.68888873081E+03  0.68888873081E+03  0.00000000000E+00 0. -1.
         21   -1    0    0  504  502 -0.00000000000E+00 -0.00000000000E+00 -0.12235813124E+03  0.12235813124E+03  0.00000000000E+00 0. -1.
         25    1    1    2    0    0  0.69272297626E+02  0.23157215854E+03  0.12694016045E+03  0.30027174387E+03  0.12500000000E+03 0.  0.
         21    1    1    2  503  502 -0.24978635234E+02 -0.20396930929E+03  0.31750635044E+03  0.37820324419E+03  0.00000000000E+00 0. -1.
         21    1    1    2  504  501 -0.44293662392E+02 -0.27602849247E+02  0.12208408867E+03  0.13277187399E+03  0.00000000000E+00 0. -1.
<mgrwt>
<rscale>  4 0.27212004E+03</rscale>
<asrwt>0</asrwt>
<pdfrwt beam="1">  1       21 0.10598288E+00 0.27212004E+03</pdfrwt>
<pdfrwt beam="2">  1       21 0.18824328E-01 0.27212004E+03</pdfrwt>
<totfact> 0.17664555E+04</totfact>
</mgrwt>
</event>
<event>
 5    0  0.1200001E+000  0.3122064E+03  0.7546771E-02  0.1079293E+00
         21   -1    0    0  503  501  0.00000000000E+00  0.00000000000E+00  0.17663188518E+04  0.17663188518E+04  0.00000000000E+00 0. -1.
         21   -1    0    0  504  502 -0.00000000000E+00 -0.00000000000E+00 -0.45108871860E+03  0.45108871860E+03  0.00000000000E+00 0. -1.
         25    1    1    2    0    0  0.13501647302E+03 -0.25261393136E+03 -0.38227493998E+03  0.49376348188E+03  0.12500000000E+03 0.  0.
         21    1    1    2  503  502 -0.14662702042E+03  0.23523114441E+03  0.15384873468E+04  0.15632582930E+04  0.00000000000E+00 0. -1.
         21    1    1    2  504  501  0.11610547404E+02  0.17382786948E+02  0.15901772641E+03  0.16038579552E+03  0.00000000000E+00 0. -1.
<mgrwt>
<rscale>  4 0.31220640E+03</rscale>
<asrwt>0</asrwt>
<pdfrwt beam="1">  1       21 0.27174136E+00 0.31220640E+03</pdfrwt>
<pdfrwt beam="2">  1       21 0.69398266E-01 0.31220640E+03</pdfrwt>
<totfact> 0.80913205E+01</totfact>
</mgrwt>
</event>
<event>
 5    0  0.1200001E+000  0.2404037E+03  0.7546771E-02  0.1119524E+00
         21   -1    0    0  503  501  0.00000000000E+00  0.00000000000E+00  0.39227788954E+03  0.39227788954E+03  0.00000000000E+00 0. -1.
         21   -1    0    0  504  502 -0.00000000000E+00 -0.00000000000E+00 -0.23833780473E+03  0.23833780473E+03  0.00000000000E+00 0. -1.
         25    1    1    2    0    0 -0.18766714478E+03  0.15709018284E+03  0.14907941092E+03  0.31264349271E+03  0.12500000000E+03 0.  0.
         21    1    1    2  503  502  0.18108989363E+03 -0.24528938445E+02  0.22331349400E+02  0.18410298086E+03  0.00000000000E+00 0. -1.
         21    1    1    2  504  501  0.65772511541E+01 -0.13256124440E+03 -0.17470675512E+02  0.13386922070E+03  0.00000000000E+00 0. -1.
<mgrwt>
<rscale>  4 0.24040371E+03</rscale>
<asrwt>0</asrwt>
<pdfrwt beam="1">  1       21 0.60350445E-01 0.24040371E+03</pdfrwt>
<pdfrwt beam="2">  1       21 0.36667355E-01 0.24040371E+03</pdfrwt>
<totfact> 0.17862300E+04</totfact>
</mgrwt>
</event>
<event>
 5    0  0.1200001E+000  0.3201561E+03  0.7546771E-02  0.1075577E+00
         21   -1    0    0  503  501  0.00000000000E+00  0.00000000000E+00  0.40027821647E+03  0.40027821647E+03  0.00000000000E+00 0.  1.
         21   -1    0    0  501  502 -0.00000000000E+00 -0.00000000000E+00 -0.33937231130E+03  0.33937231130E+03  0.00000000000E+00 0.  1.
         25    1    1    2    0    0 -0.58993907228E+02 -0.29725390237E+03 -0.13182632817E+03  0.35333177661E+03  0.12500000000E+03 0.  0.
         21    1    1    2  503  504 -0.40408751842E+02  0.35567987043E+02  0.42746736462E+02  0.68740325908E+02  0.00000000000E+00 0. -1.
         21    1    1    2  504  502  0.99402659071E+02  0.26168591533E+03  0.14998549687E+03  0.31757842525E+03  0.00000000000E+00 0.  1.
<mgrwt>
<rscale>  4 0.32015607E+03</rscale>
<asrwt>0</asrwt>
<pdfrwt beam="1">  1       21 0.61581264E-01 0.32015607E+03</pdfrwt>
<pdfrwt beam="2">  1       21 0.52211125E-01 0.32015607E+03</pdfrwt>
<totfact> 0.79364776E+03</totfact>
</mgrwt>
</event>
<event>
 5    0  0.1200001E+000  0.2484202E+03  0.7546771E-02  0.1114307E+00
         21   -1    0    0  503  501  0.00000000000E+00  0.00000000000E+00  0.45854679744E+03  0.45854679744E+03  0.00000000000E+00 0. -1.
         21   -1    0    0  501  502 -0.00000000000E+00 -0.00000000000E+00 -0.19776698176E+03  0.19776698176E+03  0.00000000000E+00 0. -1.
         25    1    1    2    0    0  0.13482450241E+03  0.16371146504E+03 -0.55016359243E+02  0.25225164027E+03  0.12500000000E+03 0.  0.
         21    1    1    2  503  504 -0.10505608292E+02  0.21854471954E+02  0.58583487336E+02  0.63403554619E+02  0.00000000000E+00 0. -1.
         21    1    1    2  504  502 -0.12431889412E+03 -0.18556593699E+03  0.25721268759E+03  0.34065858431E+03  0.00000000000E+00 0. -1.
<mgrwt>
<rscale>  4 0.24842021E+03</rscale>
<asrwt>0</asrwt>
<pdfrwt beam="1">  1       21 0.70545661E-01 0.24842021E+03</pdfrwt>
<pdfrwt beam="2">  1       21 0.30425690E-01 0.24842021E+03</pdfrwt>
<totfact> 0.18302178E+04</totfact>
</mgrwt>
</event>
<event>
 5    0  0.1200001E+000  0.3762352E+03  0.7546771E-02  0.1052334E+00
         21   -1    0    0  503  501  0.00000000000E+00  0.00000000000E+00  0.27514070801E+03  0.27514070801E+03  0.00000000000E+00 0. -1.
         21   -1    0    0  501  502 -0.00000000000E+00 -0.00000000000E+00 -0.73729216164E+03  0.73729216164E+03  0.00000000000E+00 0. -1.
         25    1    1    2    0    0 -0.11472493747E+03 -0.32819231209E+03 -0.41983089757E+03  0.55924501567E+03  0.12500000000E+03 0.  0.
         21    1    1    2  503  504 -0.31219198829E+02 -0.11757045478E+02  0.60608785888E+02  0.69183028415E+02  0.00000000000E+00 0. -1.
         21    1    1    2  504  502  0.14594413630E+03  0.33994935757E+03 -0.10292934194E+03  0.38400482557E+03  0.00000000000E+00 0. -1.
<mgrwt>
<rscale>  4 0.37623524E+03</rscale>
<asrwt>0</asrwt>
<pdfrwt beam="1">  1       21 0.42329340E-01 0.37623524E+03</pdfrwt>
<pdfrwt beam="2">  1       21 0.11342956E+00 0.37623524E+03</pdfrwt>
<totfact> 0.29076361E+03</totfact>
</mgrwt>
</event>
<event>
 5    0  0.1200001E+000  0.2521449E+03  0.7546771E-02  0.1111957E+00
         21   -1    0    0  503  501  0.00000000000E+00  0.00000000000E+00  0.42512659974E+03  0.42512659974E+03  0.00000000000E+00 0.  1.
         21   -1    0    0  501  502 -0.00000000000E+00 -0.00000000000E+00 -0.34546437801E+03  0.34546437801E+03  0.00000000000E+00 0. -1.
         25    1    1    2    0    0  0.17968627563E+03 -0.99410366701E+02 -0.19232546486E+03  0.30786955532E+03  0.12500000000E+03 0.  0.
         21    1    1    2  503  504  0.73166766226E+02 -0.40823521302E+02  0.44828381989E+02  0.95023783356E+02  0.00000000000E+00 0.  1.
         21    1    1    2  504  502 -0.25285304186E+03  0.14023388800E+03  0.22715930460E+03  0.36769763908E+03  0.00000000000E+00 0.  1.
<mgrwt>
<rscale>  4 0.25214491E+03</rscale>
<asrwt>0</asrwt>
<pdfrwt beam="1">  1       21 0.65404093E-01 0.25214491E+03</pdfrwt>
<pdfrwt beam="2">  1       21 0.53148366E-01 0.25214491E+03</pdfrwt>
<totfact> 0.69314788E+03</totfact>
</mgrwt>
</event>
<event>
 5    0  0.1509001E+000  0.3055204E+03  0.7546771E-02  0.1082513E+00
         21   -1    0    0  502  501  0.00000000000E+00  0.00000000000E+00  0.16230117147E+03  0.16230117147E+03  0.00000000000E+00 0. -1.
         21   -1    0    0  504  502 -0.00000000000E+00 -0.00000000000E+00 -0.85540760648E+03  0.85540760648E+03  0.00000000000E+00 0. -1.
         25    1    1    2    0    0  0.27256048757E+03 -0.58553536070E+02 -0.66523120723E+03  0.73203503676E+03  0.12500000000E+03 0.  0.
         21    1    1    2  503  501 -0.25361389966E+03  0.68221483544E+02 -0.21697621004E+02  0.26352413111E+03  0.00000000000E+00 0. -1.
         21    1    1    2  504  503 -0.18946587906E+02 -0.96679474737E+01 -0.61776067798E+01  0.22149610091E+02  0.00000000000E+00 0.  1.
<mgrwt>
<rscale>  4 0.30552043E+03</rscale>
<asrwt>0</asrwt>
<pdfrwt beam="1">  1       21 0.24969411E-01 0.30552043E+03</pdfrwt>
<pdfrwt beam="2">  1       21 0.13160117E+00 0.30552043E+03</pdfrwt>
<totfact> 0.59180037E+03</totfact>
</mgrwt>
</event>
<event>
 5    0  0.1200001E+000  0.2464734E+03  0.7546771E-02  0.1115554E+00
         21   -1    0    0  503  501  0.00000000000E+00  0.00000000000E+00  0.26293820854E+03  0.26293820854E+03  0.00000000000E+00 0. -1.
         21   -1    0    0  504  502 -0.00000000000E+00 -0.00000000000E+00 -0.47076640471E+03  0.47076640471E+03  0.00000000000E+00 0. -1.
         25    1    1    2    0    0 -0.18978161654E+03  0.87984303965E+02 -0.33204053349E+03  0.41186674496E+03  0.12500000000E+03 0.  0.
         21    1    1    2  503  502  0.19240173918E+03 -0.11426790675E+03  0.32164939945E+02  0.22607557832E+03  0.00000000000E+00 0. -1.
         21    1    1    2  504  501 -0.26201226402E+01  0.26283602784E+02  0.92047397370E+02  0.95762289971E+02  0.00000000000E+00 0. -1.
<mgrwt>
<rscale>  4 0.24647338E+03</rscale>
<asrwt>0</asrwt>
<pdfrwt beam="1">  1       21 0.40452032E-01 0.24647338E+03</pdfrwt>
<pdfrwt beam="2">  1       21 0.72425600E-01 0.24647338E+03</pdfrwt>
<totfact> 0.97798069E+03</totfact>
</mgrwt>
</event>
<event>
 5    0  0.1200001E+000  0.3102916E+03  0.7546771E-02  0.1080206E+00
         21   -1    0    0  502  501  0.00000000000E+00  0.00000000000E+00  0.22515704636E+04  0.22515704636E+04  0.00000000000E+00 0. -1.
         21   -1    0    0  504  502 -0.00000000000E+00 -0.00000000000E+00 -0.14016756865E+03  0.14016756865E+03  0.00000000000E+00 0.  1.
         25    1    1    2    0    0 -0.28011053341E+03  0.83628606778E+02  0.84144747783E+02  0.32887838691E+03  0.12500000000E+03 0.  0.
         21    1    1    2  503  501  0.28217494654E+03 -0.29291353780E+02  0.19356504096E+04  0.19563290091E+04  0.00000000000E+00 0. -1.
         21    1    1    2  504  503 -0.20644131280E+01 -0.54337252998E+02  0.91607737660E+02  0.10653063627E+03  0.00000000000E+00 0. -1.
<mgrwt>
<rscale>  4 0.31029159E+03</rscale>
<asrwt>0</asrwt>
<pdfrwt beam="1">  1       21 0.34639543E+00 0.31029159E+03</pdfrwt>
<pdfrwt beam="2">  1       21 0.21564243E-01 0.31029159E+03</pdfrwt>
<totfact> 0.31870434E+02</totfact>
</mgrwt>
</event>
<event>
 5    0  0.1200001E+000  0.2734236E+03  0.7546771E-02  0.1099336E+00
         21   -1    0    0  503  501  0.00000000000E+00  0.00000000000E+00  0.70797136733E+02  0.70797136733E+02  0.00000000000E+00 0.  1.
         21   -1    0    0  501  502 -0.00000000000E+00 -0.00000000000E+00 -0.23263322157E+04  0.23263322157E+04  0.00000000000E+00 0. -1.
         25    1    1    2    0    0  0.17299682805E+03 -0.17111716869E+03 -0.18970696552E+04  0.19166917501E+04  0.12500000000E+03 0.  0.
         21    1    1    2  503  504 -0.47227555372E+02 -0.44315968036E+02 -0.40852032531E+02  0.76571767455E+02  0.00000000000E+00 0. -1.
         21    1    1    2  504  502 -0.12576927268E+03  0.21543313672E+03 -0.31761339124E+03  0.40386583495E+03  0.00000000000E+00 0.  1.
<mgrwt>
<rscale>  4 0.27342362E+03</rscale>
<asrwt>0</asrwt>
<pdfrwt beam="1">  1       21 0.10891867E-01 0.27342362E+03</pdfrwt>
<pdfrwt beam="2">  1       21 0.35789727E+00 0.27342362E+03</pdfrwt>
<totfact> 0.99163270E+02</totfact>
</mgrwt>
</event>
<event>
 5    0  0.1200001E+000  0.4733465E+03  0.7546771E-02  0.1020980E+00
         21   -1    0    0  503  501  0.00000000000E+00  0.00000000000E+00  0.12126486588E+04  0.12126486588E+04  0.00000000000E+00 0.  1.
         21   -1    0    0  501  502 -0.00000000000E+00 -0.00000000000E+00 -0.18590419283E+03  0.18590419283E+03  0.00000000000E+00 0.  1.
         25    1    1    2    0    0 -0.42756469793E+03 -0.16006341194E+03  0.39681910743E+03  0.61767489085E+03  0.12500000000E+03 0.  0.
         21    1    1    2  503  504  0.20115697376E+02  0.20504598319E+02  0.59994702606E+02  0.66516495502E+02  0.00000000000E+00 0. -1.
         21    1    1    2  504  502  0.40744900056E+03  0.13955881362E+03  0.56993065593E+03  0.71436146529E+03  0.00000000000E+00 0.  1.
<mgrwt>
<rscale>  4 0.47334646E+03</rscale>
<asrwt>0</asrwt>
<pdfrwt beam="1">  1       21 0.18656133E+00 0.47334646E+03</pdfrwt>
<pdfrwt beam="2">  1       21 0.28600646E-01 0.47334646E+03</pdfrwt>
<totfact> 0.16089968E+03</totfact>
</mgrwt>
</event>
<event>
 5    0  0.1200001E+000  0.2364154E+03  0.7546771E-02  0.1122204E+00
         21   -1    0    0  503  501  0.00000000000E+00  0.00000000000E+00  0.26605064817E+03  0.26605064817E+03  0.00000000000E+00 0.  1.
         21   -1    0    0  504  502 -0.00000000000E+00 -0.00000000000E+00 -0.66647734554E+03  0.66647734554E+03  0.00000000000E+00 0.  1.
         25    1    1    2    0    0 -0.14898699608E+03 -0.13442514575E+03 -0.59803513975E+03  0.64306941552E+03  0.12500000000E+03 0.  0.
         21    1    1    2  503  502  0.11819578975E+03  0.13610709804E+03  0.17484448432E+03  0.25112940996E+03  0.00000000000E+00 0.  1.
         21    1    1    2  504  501  0.30791206327E+02 -0.16819522908E+01  0.22763958062E+02  0.38329168230E+02  0.00000000000E+00 0.  1.
<mgrwt>
<rscale>  4 0.23641541E+03</rscale>
<asrwt>0</asrwt>
<pdfrwt beam="1">  1       21 0.40930869E-01 0.23641541E+03</pdfrwt>
<pdfrwt beam="2">  1       21 0.10253498E+00 0.23641541E+03</pdfrwt>
<totfact> 0.43020429E+03</totfact>
</mgrwt>
</event>
<event>
 5    0  0.1200001E+000  0.2980026E+03  0.7546771E-02  0.1086243E+00
         21   -1    0    0  503  501  0.00000000000E+00  0.00000000000E+00  0.30677652371E+03  0.30677652371E+03  0.00000000000E+00 0.  1.
         21   -1    0    0  504  502 -0.00000000000E+00 -0.00000000000E+00 -0.65732336368E+03  0.65732336368E+03  0.00000000000E+00 0.  1.
         25    1    1    2    0    0  0.13182745093E+03 -0.24144774980E+03 -0.27794616491E+03  0.41055397123E+03  0.12500000000E+03 0.  0.
         21    1    1    2  503  502 -0.20972921462E+03  0.17814012780E+03 -0.23550859065E+03  0.36219407073E+03  0.00000000000E+00 0.  1.
         21    1    1    2  504  501  0.77901763683E+02  0.63307622000E+02  0.16290791559E+03  0.19135184543E+03  0.00000000000E+00 0.  1.
<mgrwt>
<rscale>  4 0.29800262E+03</rscale>
<asrwt>0</asrwt>
<pdfrwt beam="1">  1       21 0.47196389E-01 0.29800262E+03</pdfrwt>
<pdfrwt beam="2">  1       21 0.10112667E+00 0.29800262E+03</pdfrwt>
<totfact> 0.31925604E+03</totfact>
</mgrwt>
</event>
<event>
 5    0  0.1200001E+000  0.2482755E+03  0.7546771E-02  0.1114400E+00
         21   -1    0    0  503  501  0.00000000000E+00  0.00000000000E+00  0.73072922978E+03  0.73072922978E+03  0.00000000000E+00 0.  1.
         21   -1    0    0  501  502 -0.00000000000E+00 -0.00000000000E+00 -0.13406415012E+03  0.13406415012E+03  0.00000000000E+00 0.  1.
         25    1    1    2    0    0  0.22635858785E+03 -0.24257847196E+02  0.24736521451E+03  0.35866586511E+03  0.12500000000E+03 0.  0.
         21    1    1    2  503  504 -0.20833508704E+02 -0.11465881170E+02  0.28760859994E+03  0.28859003495E+03  0.00000000000E+00 0.  1.
         21    1    1    2  504  502 -0.20552507915E+03  0.35723728366E+02  0.61691265218E+02  0.21753747983E+03  0.00000000000E+00 0.  1.
<mgrwt>
<rscale>  4 0.24827555E+03</rscale>
<asrwt>0</asrwt>
<pdfrwt beam="1">  1       21 0.11241988E+00 0.24827555E+03</pdfrwt>
<pdfrwt beam="2">  1       21 0.20625254E-01 0.24827555E+03</pdfrwt>
<totfact> 0.13042617E+04</totfact>
</mgrwt>
</event>
<event>
 5    0  0.1200001E+000  0.2460745E+03  0.7546771E-02  0.1115811E+00
         21   -1    0    0  503  501  0.00000000000E+00  0.00000000000E+00  0.86246474145E+02  0.86246474145E+02  0.00000000000E+00 0.  1.
         21   -1    0    0  504  502 -0.00000000000E+00 -0.00000000000E+00 -0.81271351559E+03  0.81271351559E+03  0.00000000000E+00 0.  1.
         25    1    1    2    0    0 -0.20587872078E+03  0.42721643959E+01 -0.20053044921E+03  0.31343541618E+03  0.12500000000E+03 0.  0.
         21    1    1    2  503  502  0.21384817375E+03  0.17011610987E+02 -0.51927348637E+03  0.56184107181E+03  0.00000000000E+00 0.  1.
         21    1    1    2  504  501 -0.79694529661E+01 -0.21283775383E+02 -0.66631058713E+01  0.23683501746E+02  0.00000000000E+00 0.  1.
<mgrwt>
<rscale>  4 0.24607450E+03</rscale>
<asrwt>0</asrwt>
<pdfrwt beam="1">  1       21 0.13268689E-01 0.24607450E+03</pdfrwt>
<pdfrwt beam="2">  1       21 0.12503285E+00 0.24607450E+03</pdfrwt>
<totfact> 0.22647228E+04</totfact>
</mgrwt>
</event>
<event>
 5    0  0.1200001E+000  0.2595129E+03  0.7546771E-02  0.1107436E+00
         21   -1    0    0  503  501  0.00000000000E+00  0.00000000000E+00  0.91978056284E+03  0.91978056284E+03  0.00000000000E+00 0.  1.
         21   -1    0    0  501  502 -0.00000000000E+00 -0.00000000000E+00 -0.19994622318E+03  0.19994622318E+03  0.00000000000E+00 0.  1.
         25    1    1    2    0    0  0.18370722558E+03  0.17176719137E+03 -0.55127649987E+02  0.28621036067E+03  0.12500000000E+03 0.  0.
         21    1    1    2  503  504 -0.15152495948E+03 -0.24989965628E+02  0.45029528859E+03  0.47576271255E+03  0.00000000000E+00 0.  1.
         21    1    1    2  504  502 -0.32182266096E+02 -0.14677722574E+03  0.32466670106E+03  0.35775371280E+03  0.00000000000E+00 0.  1.
<mgrwt>
<rscale>  4 0.25951285E+03</rscale>
<asrwt>0</asrwt>
<pdfrwt beam="1">  1       21 0.14150470E+00 0.25951285E+03</pdfrwt>
<pdfrwt beam="2">  1       21 0.30760958E-01 0.25951285E+03</pdfrwt>
<totfact> 0.33539393E+03</totfact>
</mgrwt>
</event>
<event>
 5    0  0.1200001E+000  0.3387272E+03  0.7546771E-02  0.1067339E+00
         21   -1    0    0  503  501  0.00000000000E+00  0.00000000000E+00  0.56142177950E+03  0.56142177950E+03  0.00000000000E+00 0. -1.
         21   -1    0    0  501  502 -0.00000000000E+00 -0.00000000000E+00 -0.27194843565E+03  0.27194843565E+03  0.00000000000E+00 0. -1.
         25    1    1    2    0    0 -0.20914291054E+03  0.24142412368E+03 -0.23881431933E+02  0.34383380770E+03  0.12500000000E+03 0.  0.
         21    1    1    2  503  504 -0.12662836985E+02 -0.28095491050E+02  0.12496178684E+03  0.12870568063E+03  0.00000000000E+00 0.  1.
         21    1    1    2  504  502  0.22180574752E+03 -0.21332863263E+03  0.18839298894E+03  0.36083072682E+03  0.00000000000E+00 0. -1.
<mgrwt>
<rscale>  4 0.33872716E+03</rscale>
<asrwt>0</asrwt>
<pdfrwt beam="1">  1       21 0.86372581E-01 0.33872716E+03</pdfrwt>
<pdfrwt beam="2">  1       21 0.41838221E-01 0.33872716E+03</pdfrwt>
<totfact> 0.58362677E+03</totfact>
</mgrwt>
</event>
<event>
 5    0  0.1200001E+000  0.2558104E+03  0.7546771E-02  0.1109687E+00
         21   -1    0    0  503  501  0.00000000000E+00  0.00000000000E+00  0.59719368153E+03  0.59719368153E+03  0.00000000000E+00 0. -1.
         21   -1    0    0  501  502 -0.00000000000E+00 -0.00000000000E+00 -0.76374299756E+03  0.76374299756E+03  0.00000000000E+00 0.  1.
         25    1    1    2    0    0  0.22308260065E+03 -0.20076305417E+02 -0.47668493053E+03  0.54131546048E+03  0.12500000000E+03 0.  0.
         21    1    1    2  503  504 -0.20162733035E+02 -0.10182548789E+03  0.50342265551E+03  0.51401297248E+03  0.00000000000E+00 0. -1.
         21    1    1    2  504  502 -0.20291986762E+03  0.12190179331E+03 -0.19328704101E+03  0.30560824614E+03  0.00000000000E+00 0.  1.
<mgrwt>
<rscale>  4 0.25581036E+03</rscale>
<asrwt>0</asrwt>
<pdfrwt beam="1">  1       21 0.91875951E-01 0.25581036E+03</pdfrwt>
<pdfrwt beam="2">  1       21 0.11749892E+00 0.25581036E+03</pdfrwt>
<totfact> 0.52392578E+02</totfact>
</mgrwt>
</event>
<event>
 5    0  0.1200001E+000  0.4764506E+03  0.7546771E-02  0.1020115E+00
         21   -1    0    0  502  501  0.00000000000E+00  0.00000000000E+00  0.66591166882E+03  0.66591166882E+03  0.00000000000E+00 0.  1.
         21   -1    0    0  504  502 -0.00000000000E+00 -0.00000000000E+00 -0.78840351802E+03  0.78840351802E+03  0.00000000000E+00 0.  1.
         25    1    1    2    0    0  0.11816684721E+03 -0.54141834097E+03 -0.18882132504E+03  0.59864490018E+03  0.12500000000E+03 0.  0.
         21    1    1    2  503  501 -0.33218558708E+03  0.15856912760E+03  0.16926536668E+03  0.40514466163E+03  0.00000000000E+00 0.  1.
         21    1    1    2  504  503  0.21401873987E+03  0.38284921337E+03 -0.10293589084E+03  0.45052562504E+03  0.00000000000E+00 0.  1.
<mgrwt>
<rscale>  4 0.47645059E+03</rscale>
<asrwt>0</asrwt>
<pdfrwt beam="1">  1       21 0.10244795E+00 0.47645059E+03</pdfrwt>
<pdfrwt beam="2">  1       21 0.12129285E+00 0.47645059E+03</pdfrwt>
<totfact> 0.32597098E+02</totfact>
</mgrwt>
</event>
<event>
 5    0  0.1200001E+000  0.4644153E+03  0.7546771E-02  0.1023508E+00
         21   -1    0    0  503  501  0.00000000000E+00  0.00000000000E+00  0.28334597500E+03  0.28334597500E+03  0.00000000000E+00 0.  1.
         21   -1    0    0  504  502 -0.00000000000E+00 -0.00000000000E+00 -0.17700436555E+04  0.17700436555E+04  0.00000000000E+00 0.  1.
         25    1    1    2    0    0  0.16507719768E+02 -0.44071456036E+03 -0.14380866409E+04  0.15093773601E+04  0.12500000000E+03 0.  0.
         21    1    1    2  503  502  0.12781818631E+02  0.48693773544E+03 -0.44642991473E+02  0.48914694088E+03  0.00000000000E+00 0.  1.
         21    1    1    2  504  501 -0.29289538399E+02 -0.46223175087E+02 -0.39680481323E+01  0.54865329496E+02  0.00000000000E+00 0. -1.
<mgrwt>
<rscale>  4 0.46441534E+03</rscale>
<asrwt>0</asrwt>
<pdfrwt beam="1">  1       21 0.43591689E-01 0.46441534E+03</pdfrwt>
<pdfrwt beam="2">  1       21 0.27231440E+00 0.46441534E+03</pdfrwt>
<totfact> 0.19536500E+02</totfact>
</mgrwt>
</event>
<event>
 5    0  0.1200001E+000  0.3368968E+03  0.7546771E-02  0.1068125E+00
         21   -1    0    0  503  501  0.00000000000E+00  0.00000000000E+00  0.20158369033E+03  0.20158369033E+03  0.00000000000E+00 0. -1.
         21   -1    0    0  504  502 -0.00000000000E+00 -0.00000000000E+00 -0.15259269818E+04  0.15259269818E+04  0.00000000000E+00 0.  1.
         25    1    1    2    0    0  0.17894373970E+03  0.21381085820E+03 -0.85559192733E+03  0.90851444192E+03  0.12500000000E+03 0.  0.
         21    1    1    2  503  502 -0.27126263123E+03 -0.28760273408E+03 -0.54871222408E+03  0.67630159885E+03  0.00000000000E+00 0.  1.
         21    1    1    2  504  501  0.92318891528E+02  0.73791875886E+02  0.79960859977E+02  0.14269463132E+03  0.00000000000E+00 0. -1.
<mgrwt>
<rscale>  4 0.33689683E+03</rscale>
<asrwt>0</asrwt>
<pdfrwt beam="1">  1       21 0.31012877E-01 0.33689683E+03</pdfrwt>
<pdfrwt beam="2">  1       21 0.23475799E+00 0.33689683E+03</pdfrwt>
<totfact> 0.71591603E+02</totfact>
</mgrwt>
</event>
<event>
 5    0  0.1200001E+000  0.2281900E+03  0.7546771E-02  0.1127920E+00
         21   -1    0    0  503  501  0.00000000000E+00  0.00000000000E+00  0.95065418008E+03  0.95065418008E+03  0.00000000000E+00 0. -1.
         21   -1    0    0  504  502 -0.00000000000E+00 -0.00000000000E+00 -0.12893442382E+03  0.12893442382E+03  0.00000000000E+00 0. -1.
         25    1    1    2    0    0  0.20311388532E+03 -0.41596164058E+02  0.25219543250E+02  0.24340607354E+03  0.12500000000E+03 0.  0.
         21    1    1    2  503  502 -0.11388331991E+03 -0.21342166933E+01  0.64514023245E+03  0.65511822212E+03  0.00000000000E+00 0. -1.
         21    1    1    2  504  501 -0.89230565407E+02  0.43730380751E+02  0.15135998056E+03  0.18106430824E+03  0.00000000000E+00 0. -1.
<mgrwt>
<rscale>  4 0.22818998E+03</rscale>
<asrwt>0</asrwt>
<pdfrwt beam="1">  1       21 0.14625448E+00 0.22818998E+03</pdfrwt>
<pdfrwt beam="2">  1       21 0.19836066E-01 0.22818998E+03</pdfrwt>
<totfact> 0.72900737E+03</totfact>
</mgrwt>
</event>
<event>
 5    0  0.1200001E+000  0.2769712E+03  0.7546771E-02  0.1097355E+00
         21   -1    0    0  503  501  0.00000000000E+00  0.00000000000E+00  0.20481321655E+03  0.20481321655E+03  0.00000000000E+00 0. -1.
         21   -1    0    0  504  502 -0.00000000000E+00 -0.00000000000E+00 -0.47417416162E+03  0.47417416162E+03  0.00000000000E+00 0. -1.
         25    1    1    2    0    0  0.96071346223E+02  0.23595682587E+03 -0.27520776944E+03  0.39530955415E+03  0.12500000000E+03 0.  0.
         21    1    1    2  503  502 -0.78595707027E+02 -0.22093498261E+03 -0.34688076932E+02  0.23705023599E+03  0.00000000000E+00 0. -1.
         21    1    1    2  504  501 -0.17475639196E+02 -0.15021843262E+02  0.40534901313E+02  0.46627588022E+02  0.00000000000E+00 0.  1.
<mgrwt>
<rscale>  4 0.27697124E+03</rscale>
<asrwt>0</asrwt>
<pdfrwt beam="1">  1       21 0.31509726E-01 0.27697124E+03</pdfrwt>
<pdfrwt beam="2">  1       21 0.72949869E-01 0.27697124E+03</pdfrwt>
<totfact> 0.15636452E+04</totfact>
</mgrwt>
</event>
<event>
 5    0  0.1200001E+000  0.2701171E+03  0.7546771E-02  0.1101213E+00
         21   -1    0    0  503  501  0.00000000000E+00  0.00000000000E+00  0.39223329245E+03  0.39223329245E+03  0.00000000000E+00 0.  1.
         21   -1    0    0  504  502 -0.00000000000E+00 -0.00000000000E+00 -0.46026119369E+03  0.46026119369E+03  0.00000000000E+00 0.  1.
         25    1    1    2    0    0 -0.25707347931E+01  0.24500674622E+03 -0.35985387799E+03  0.45294009303E+03  0.12500000000E+03 0.  0.
         21    1    1    2  503  502 -0.19288392126E+02 -0.20147393922E+03  0.28617674412E+03  0.35051521954E+03  0.00000000000E+00 0.  1.
         21    1    1    2  504  501  0.21859126919E+02 -0.43532806999E+02  0.56492326287E+01  0.49039173568E+02  0.00000000000E+00 0.  1.
<mgrwt>
<rscale>  4 0.27011709E+03</rscale>
<asrwt>0</asrwt>
<pdfrwt beam="1">  1       21 0.60343584E-01 0.27011709E+03</pdfrwt>
<pdfrwt beam="2">  1       21 0.70809414E-01 0.27011709E+03</pdfrwt>
<totfact> 0.43842075E+03</totfact>
</mgrwt>
</event>
<event>
 5    0  0.1200001E+000  0.2272384E+03  0.7546771E-02  0.1128599E+00
         21   -1    0    0  503  501  0.00000000000E+00  0.00000000000E+00  0.60950906206E+03  0.60950906206E+03  0.00000000000E+00 0.  1.
         21   -1    0    0  501  502 -0.00000000000E+00 -0.00000000000E+00 -0.18656755855E+03  0.18656755855E+03  0.00000000000E+00 0. -1.
         25    1    1    2    0    0  0.64860138724E+02 -0.19401261567E+03 -0.34519226673E+02  0.24220716266E+03  0.12500000000E+03 0.  0.
         21    1    1    2  503  504  0.64748907419E+02  0.16508942247E+03  0.29303124401E+03  0.34251167628E+03  0.00000000000E+00 0.  1.
         21    1    1    2  504  502 -0.12960904614E+03  0.28923193200E+02  0.16442948618E+03  0.21135778167E+03  0.00000000000E+00 0.  1.
<mgrwt>
<rscale>  4 0.22723843E+03</rscale>
<asrwt>0</asrwt>
<pdfrwt beam="1">  1       21 0.93770624E-01 0.22723843E+03</pdfrwt>
<pdfrwt beam="2">  1       21 0.28702702E-01 0.22723843E+03</pdfrwt>
<totfact> 0.10839917E+04</totfact>
</mgrwt>
</event>
<event>
 5    0  0.1200001E+000  0.2737499E+03  0.7546771E-02  0.1099152E+00
         21   -1    0    0  502  501  0.00000000000E+00  0.00000000000E+00  0.11433806580E+04  0.11433806580E+04  0.00000000000E+00 0.  1.
         21   -1    0    0  503  502 -0.00000000000E+00 -0.00000000000E+00 -0.15079685599E+03  0.15079685599E+03  0.00000000000E+00 0. -1.
         25    1    1    2    0    0 -0.20726857643E+02 -0.25270031419E+03  0.55247986575E+02  0.28803539963E+03  0.12500000000E+03 0.  0.
         21    1    1    2  503  504 -0.10013660001E+03  0.67783291436E+02  0.17698365112E+03  0.21434814211E+03  0.00000000000E+00 0.  1.
         21    1    1    2  504  501  0.12086345766E+03  0.18491702276E+03  0.76035216435E+03  0.79179397228E+03  0.00000000000E+00 0.  1.
<mgrwt>
<rscale>  4 0.27374991E+03</rscale>
<asrwt>0</asrwt>
<pdfrwt beam="1">  1       21 0.17590471E+00 0.27374991E+03</pdfrwt>
<pdfrwt beam="2">  1       21 0.23199517E-01 0.27374991E+03</pdfrwt>
<totfact> 0.31767776E+03</totfact>
</mgrwt>
</event>
<event>
 5    0  0.1200001E+000  0.2927476E+03  0.7546771E-02  0.1088923E+00
         21   -1    0    0  503  501  0.00000000000E+00  0.00000000000E+00  0.62735467695E+02  0.62735467695E+02  0.00000000000E+00 0.  1.
         21   -1    0    0  501  502 -0.00000000000E+00 -0.00000000000E+00 -0.30763653593E+04  0.30763653593E+04  0.00000000000E+00 0. -1.
         25    1    1    2    0    0 -0.19560152475E+03  0.18216204186E+03 -0.26580995611E+04  0.26744272738E+04  0.12500000000E+03 0.  0.
         21    1    1    2  503  504  0.21713791138E+02  0.11101733334E+01  0.69617387552E+01  0.22829520733E+02  0.00000000000E+00 0. -1.
         21    1    1    2  504  502  0.17388773361E+03 -0.18327221520E+03 -0.36249206923E+03  0.44184403246E+03  0.00000000000E+00 0.  1.
<mgrwt>
<rscale>  4 0.29274762E+03</rscale>
<asrwt>0</asrwt>
<pdfrwt beam="1">  1       21 0.96516105E-02 0.29274762E+03</pdfrwt>
<pdfrwt beam="2">  1       21 0.47328698E+00 0.29274762E+03</pdfrwt>
<totfact> 0.21765868E+02</totfact>
</mgrwt>
</event>
<event>
 5    0  0.1200001E+000  0.4013391E+03  0.7546771E-02  0.1043317E+00
         21   -1    0    0  503  501  0.00000000000E+00  0.00000000000E+00  0.24632655792E+03  0.24632655792E+03  0.00000000000E+00 0.  1.
         21   -1    0    0  504  502 -0.00000000000E+00 -0.00000000000E+00 -0.10194111686E+04  0.10194111686E+04  0.00000000000E+00 0.  1.
         25    1    1    2    0    0  0.16453662880E+03 -0.37297773487E+03 -0.48816324376E+03  0.64816128046E+03  0.12500000000E+03 0.  0.
         21    1    1    2  503  502 -0.10097402067E+03  0.34429683329E+03 -0.36470645412E+03  0.51161202091E+03  0.00000000000E+00 0.  1.
         21    1    1    2  504  501 -0.63562608137E+02  0.28680901586E+02  0.79785087170E+02  0.10596442518E+03  0.00000000000E+00 0.  1.
<mgrwt>
<rscale>  4 0.40133915E+03</rscale>
<asrwt>0</asrwt>
<pdfrwt beam="1">  1       21 0.37896393E-01 0.40133915E+03</pdfrwt>
<pdfrwt beam="2">  1       21 0.15683249E+00 0.40133915E+03</pdfrwt>
<totfact> 0.15493172E+03</totfact>
</mgrwt>
</event>
<event>
 5    0  0.1200001E+000  0.2499549E+03  0.7546771E-02  0.1113333E+00
         21   -1    0    0  502  501  0.00000000000E+00  0.00000000000E+00  0.11762127511E+03  0.11762127511E+03  0.00000000000E+00 0. -1.
         21   -1    0    0  504  502 -0.00000000000E+00 -0.00000000000E+00 -0.49619416080E+03  0.49619416080E+03  0.00000000000E+00 0. -1.
         25    1    1    2    0    0  0.61602962205E+02  0.20750306499E+03 -0.26904230578E+03  0.36723454254E+03  0.12500000000E+03 0.  0.
         21    1    1    2  503  501 -0.42866929554E+02 -0.10407017721E+03 -0.77639396683E+02  0.13673350486E+03  0.00000000000E+00 0. -1.
         21    1    1    2  504  503 -0.18736032651E+02 -0.10343288779E+03 -0.31891183223E+02  0.10984738851E+03  0.00000000000E+00 0. -1.
<mgrwt>
<rscale>  4 0.24995489E+03</rscale>
<asrwt>0</asrwt>
<pdfrwt beam="1">  1       21 0.18095581E-01 0.24995489E+03</pdfrwt>
<pdfrwt beam="2">  1       21 0.76337563E-01 0.24995489E+03</pdfrwt>
<totfact> 0.41352200E+04</totfact>
</mgrwt>
</event>
<event>
 5    0  0.1200001E+000  0.2290936E+03  0.7546771E-02  0.1127279E+00
         21   -1    0    0  502  501  0.00000000000E+00  0.00000000000E+00  0.52434377686E+03  0.52434377686E+03  0.00000000000E+00 0. -1.
         21   -1    0    0  503  502 -0.00000000000E+00 -0.00000000000E+00 -0.36360974860E+03  0.36360974860E+03  0.00000000000E+00 0.  1.
         25    1    1    2    0    0  0.72330433098E+02  0.18807620273E+03 -0.27343624040E+03  0.36193470012E+03  0.12500000000E+03 0.  0.
         21    1    1    2  503  504  0.35144331162E+02 -0.11269792505E+03  0.66225810789E+02  0.13535805974E+03  0.00000000000E+00 0.  1.
         21    1    1    2  504  501 -0.10747476426E+03 -0.75378277688E+02  0.36794445787E+03  0.39066076560E+03  0.00000000000E+00 0. -1.
<mgrwt>
<rscale>  4 0.22909356E+03</rscale>
<asrwt>0</asrwt>
<pdfrwt beam="1">  1       21 0.80668273E-01 0.22909356E+03</pdfrwt>
<pdfrwt beam="2">  1       21 0.55939962E-01 0.22909356E+03</pdfrwt>
<totfact> 0.39494093E+03</totfact>
</mgrwt>
</event>
<event>
 5    0  0.1200001E+000  0.2900274E+03  0.7546771E-02  0.1090335E+00
         21   -1    0    0  503  501  0.00000000000E+00  0.00000000000E+00  0.25750321339E+03  0.25750321339E+03  0.00000000000E+00 0. -1.
         21   -1    0    0  504  502 -0.00000000000E+00 -0.00000000000E+00 -0.75145636505E+03  0.75145636505E+03  0.00000000000E+00 0. -1.
         25    1    1    2    0    0 -0.17075887070E+03  0.16649653196E+03 -0.17736883849E+03  0.32243509726E+03  0.12500000000E+03 0.  0.
         21    1    1    2  503  502  0.23181976921E+03 -0.14931571879E+03 -0.45626437511E+03  0.53311609362E+03  0.00000000000E+00 0. -1.
         21    1    1    2  504  501 -0.61060898516E+02 -0.17180813168E+02  0.13968006195E+03  0.15340838756E+03  0.00000000000E+00 0. -1.
<mgrwt>
<rscale>  4 0.29002743E+03</rscale>
<asrwt>0</asrwt>
<pdfrwt beam="1">  1       21 0.39615879E-01 0.29002743E+03</pdfrwt>
<pdfrwt beam="2">  1       21 0.11560867E+00 0.29002743E+03</pdfrwt>
<totfact> 0.33183869E+03</totfact>
</mgrwt>
</event>
<event>
 5    0  0.1200001E+000  0.2450819E+03  0.7546771E-02  0.1116453E+00
         21   -1    0    0  503  501  0.00000000000E+00  0.00000000000E+00  0.28493085798E+03  0.28493085798E+03  0.00000000000E+00 0.  1.
         21   -1    0    0  504  502 -0.00000000000E+00 -0.00000000000E+00 -0.81489718021E+03  0.81489718021E+03  0.00000000000E+00 0.  1.
         25    1    1    2    0    0 -0.86035665748E+02  0.20376560181E+03 -0.67010769125E+03  0.71665324540E+03  0.12500000000E+03 0.  0.
         21    1    1    2  503  502  0.99294159683E+01 -0.18541261812E+03 -0.37158409084E+02  0.18935992086E+03  0.00000000000E+00 0.  1.
         21    1    1    2  504  501  0.76106249780E+02 -0.18352983689E+02  0.17729977810E+03  0.19381487193E+03  0.00000000000E+00 0.  1.
<mgrwt>
<rscale>  4 0.24508188E+03</rscale>
<asrwt>0</asrwt>
<pdfrwt beam="1">  1       21 0.43835517E-01 0.24508188E+03</pdfrwt>
<pdfrwt beam="2">  1       21 0.12536880E+00 0.24508188E+03</pdfrwt>
<totfact> 0.22671921E+03</totfact>
</mgrwt>
</event>
<event>
 5    0  0.1200001E+000  0.2437080E+03  0.7546771E-02  0.1117347E+00
         21   -1    0    0  503  501  0.00000000000E+00  0.00000000000E+00  0.41853959510E+03  0.41853959510E+03  0.00000000000E+00 0. -1.
         21   -1    0    0  504  502 -0.00000000000E+00 -0.00000000000E+00 -0.32928854543E+03  0.32928854543E+03  0.00000000000E+00 0. -1.
         25    1    1    2    0    0 -0.14666255872E+03  0.14999669104E+03 -0.17924409946E+03  0.30292302759E+03  0.12500000000E+03 0.  0.
         21    1    1    2  503  502  0.21992568089E+03 -0.64746128615E+02  0.12030532209E+03  0.25890681105E+03  0.00000000000E+00 0. -1.
         21    1    1    2  504  501 -0.73263122171E+02 -0.85250562428E+02  0.14818982704E+03  0.18599830189E+03  0.00000000000E+00 0. -1.
<mgrwt>
<rscale>  4 0.24370796E+03</rscale>
<asrwt>0</asrwt>
<pdfrwt beam="1">  1       21 0.64390707E-01 0.24370796E+03</pdfrwt>
<pdfrwt beam="2">  1       21 0.50659776E-01 0.24370796E+03</pdfrwt>
<totfact> 0.79753136E+03</totfact>
</mgrwt>
</event>
<event>
 5    0  0.1200001E+000  0.3981385E+03  0.7546771E-02  0.1044426E+00
         21   -1    0    0  503  501  0.00000000000E+00  0.00000000000E+00  0.52953691089E+03  0.52953691089E+03  0.00000000000E+00 0.  1.
         21   -1    0    0  504  502 -0.00000000000E+00 -0.00000000000E+00 -0.17448222992E+04  0.17448222992E+04  0.00000000000E+00 0.  1.
         25    1    1    2    0    0  0.14817349592E+03  0.35067654910E+03 -0.15597937594E+04  0.16104381388E+04  0.12500000000E+03 0.  0.
         21    1    1    2  503  502 -0.50872539420E+02 -0.36208615254E+03  0.69771573046E+02  0.37223980111E+03  0.00000000000E+00 0.  1.
         21    1    1    2  504  501 -0.97300956501E+02  0.11409603440E+02  0.27473679804E+03  0.29168127020E+03  0.00000000000E+00 0.  1.
<mgrwt>
<rscale>  4 0.39813852E+03</rscale>
<asrwt>0</asrwt>
<pdfrwt beam="1">  1       21 0.81467218E-01 0.39813852E+03</pdfrwt>
<pdfrwt beam="2">  1       21 0.26843420E+00 0.39813852E+03</pdfrwt>
<totfact> 0.54718894E+01</totfact>
</mgrwt>
</event>
<event>
 5    0  0.1200001E+000  0.2735949E+03  0.7546771E-02  0.1099240E+00
         21   -1    0    0  503  501  0.00000000000E+00  0.00000000000E+00  0.62347963306E+03  0.62347963306E+03  0.00000000000E+00 0. -1.
         21   -1    0    0  504  502 -0.00000000000E+00 -0.00000000000E+00 -0.47074713097E+03  0.47074713097E+03  0.00000000000E+00 0. -1.
         25    1    1    2    0    0 -0.20588901023E+03 -0.13950706906E+03 -0.17689722718E+03  0.32980317741E+03  0.12500000000E+03 0.  0.
         21    1    1    2  503  502  0.20832769947E+03  0.11745997468E+03 -0.15128869128E+03  0.28299389415E+03  0.00000000000E+00 0. -1.
         21    1    1    2  504  501 -0.24386892400E+01  0.22047094376E+02  0.48091842054E+03  0.48142969247E+03  0.00000000000E+00 0. -1.
<mgrwt>
<rscale>  4 0.27359493E+03</rscale>
<asrwt>0</asrwt>
<pdfrwt beam="1">  1       21 0.95919943E-01 0.27359493E+03</pdfrwt>
<pdfrwt beam="2">  1       21 0.72422636E-01 0.27359493E+03</pdfrwt>
<totfact> 0.14577688E+03</totfact>
</mgrwt>
</event>
<event>
 5    0  0.1200001E+000  0.2507630E+03  0.7546771E-02  0.1112824E+00
         21   -1    0    0  502  501  0.00000000000E+00  0.00000000000E+00  0.25350128960E+04  0.25350128960E+04  0.00000000000E+00 0.  1.
         21   -1    0    0  503  502 -0.00000000000E+00 -0.00000000000E+00 -0.22669293257E+02  0.22669293257E+02  0.00000000000E+00 0.  1.
         25    1    1    2    0    0 -0.38280857125E+02 -0.21398985287E+03  0.12931424303E+04  0.13172317284E+04  0.12500000000E+03 0.  0.
         21    1    1    2  503  504 -0.17127230097E+02  0.21358698686E+02  0.18357420491E+03  0.18560448467E+03  0.00000000000E+00 0. -1.
         21    1    1    2  504  501  0.55408087222E+02  0.19263115418E+03  0.10356269675E+04  0.10548459762E+04  0.00000000000E+00 0.  1.
<mgrwt>
<rscale>  4 0.25076300E+03</rscale>
<asrwt>0</asrwt>
<pdfrwt beam="1">  1       21 0.39000176E+00 0.25076300E+03</pdfrwt>
<pdfrwt beam="2">  1       21 0.34875856E-02 0.25076300E+03</pdfrwt>
<totfact> 0.46206721E+03</totfact>
</mgrwt>
</event>
<event>
 5    0  0.1200001E+000  0.4373024E+03  0.7546771E-02  0.1031578E+00
         21   -1    0    0  503  501  0.00000000000E+00  0.00000000000E+00  0.39911894165E+03  0.39911894165E+03  0.00000000000E+00 0. -1.
         21   -1    0    0  501  502 -0.00000000000E+00 -0.00000000000E+00 -0.60434209800E+03  0.60434209800E+03  0.00000000000E+00 0.  1.
         25    1    1    2    0    0 -0.12023030385E+03  0.40143873771E+03 -0.33119428729E+03  0.54856452859E+03  0.12500000000E+03 0.  0.
         21    1    1    2  503  504  0.44664562150E+02 -0.21215930670E+02  0.14151171812E+02  0.51432426444E+02  0.00000000000E+00 0.  1.
         21    1    1    2  504  502  0.75565741704E+02 -0.38022280704E+03  0.11181995913E+03  0.40346408461E+03  0.00000000000E+00 0. -1.
<mgrwt>
<rscale>  4 0.43730240E+03</rscale>
<asrwt>0</asrwt>
<pdfrwt beam="1">  1       21 0.61402914E-01 0.43730240E+03</pdfrwt>
<pdfrwt beam="2">  1       21 0.92975707E-01 0.43730240E+03</pdfrwt>
<totfact> 0.20841716E+03</totfact>
</mgrwt>
</event>
<event>
 5    0  0.1200001E+000  0.2694781E+03  0.7546771E-02  0.1101579E+00
         21   -1    0    0  503  501  0.00000000000E+00  0.00000000000E+00  0.28189529090E+03  0.28189529090E+03  0.00000000000E+00 0.  1.
         21   -1    0    0  501  502 -0.00000000000E+00 -0.00000000000E+00 -0.77362089836E+03  0.77362089836E+03  0.00000000000E+00 0.  1.
         25    1    1    2    0    0 -0.21221958542E+03 -0.46224124930E+02 -0.49102962114E+03  0.55127934026E+03  0.12500000000E+03 0.  0.
         21    1    1    2  503  504 -0.12972999574E+03 -0.59153879316E+02  0.27876006108E+02  0.14527947188E+03  0.00000000000E+00 0.  1.
         21    1    1    2  504  502  0.34194958116E+03  0.10537800425E+03 -0.28571992431E+02  0.35895737712E+03  0.00000000000E+00 0.  1.
<mgrwt>
<rscale>  4 0.26947813E+03</rscale>
<asrwt>0</asrwt>
<pdfrwt beam="1">  1       21 0.43368506E-01 0.26947813E+03</pdfrwt>
<pdfrwt beam="2">  1       21 0.11901860E+00 0.26947813E+03</pdfrwt>
<totfact> 0.25973435E+03</totfact>
</mgrwt>
</event>
<event>
 5    0  0.1200001E+000  0.3191534E+03  0.7546771E-02  0.1076040E+00
         21   -1    0    0  503  501  0.00000000000E+00  0.00000000000E+00  0.59439353744E+03  0.59439353744E+03  0.00000000000E+00 0. -1.
         21   -1    0    0  504  502 -0.00000000000E+00 -0.00000000000E+00 -0.64898813622E+03  0.64898813622E+03  0.00000000000E+00 0. -1.
         25    1    1    2    0    0 -0.30937834288E+03 -0.55562948862E+02 -0.40155801505E+03  0.52504860707E+03  0.12500000000E+03 0.  0.
         21    1    1    2  503  502  0.19413836925E+03 -0.23154684633E+03  0.87554865130E+02  0.31459418759E+03  0.00000000000E+00 0. -1.
         21    1    1    2  504  501  0.11523997363E+03  0.28710979519E+03  0.25940855114E+03  0.40373887901E+03  0.00000000000E+00 0. -1.
<mgrwt>
<rscale>  4 0.31915345E+03</rscale>
<asrwt>0</asrwt>
<pdfrwt beam="1">  1       21 0.91445160E-01 0.31915345E+03</pdfrwt>
<pdfrwt beam="2">  1       21 0.99844328E-01 0.31915345E+03</pdfrwt>
<totfact> 0.75308074E+02</totfact>
</mgrwt>
</event>
<event>
 5    0  0.1200001E+000  0.2818102E+03  0.7546771E-02  0.1094704E+00
         21   -1    0    0  503  501  0.00000000000E+00  0.00000000000E+00  0.18823971750E+03  0.18823971750E+03  0.00000000000E+00 0.  1.
         21   -1    0    0  501  502 -0.00000000000E+00 -0.00000000000E+00 -0.10373643003E+04  0.10373643003E+04  0.00000000000E+00 0.  1.
         25    1    1    2    0    0 -0.33108655993E+02 -0.25229310432E+03 -0.90824416609E+03  0.95146227399E+03  0.12500000000E+03 0.  0.
         21    1    1    2  503  504 -0.19879719775E+02  0.18107090964E+02  0.10702550385E+00  0.26890173967E+02  0.00000000000E+00 0. -1.
         21    1    1    2  504  502  0.52988375768E+02  0.23418601335E+03  0.59012557775E+02  0.24725156985E+03  0.00000000000E+00 0.  1.
<mgrwt>
<rscale>  4 0.28181018E+03</rscale>
<asrwt>0</asrwt>
<pdfrwt beam="1">  1       21 0.28959957E-01 0.28181018E+03</pdfrwt>
<pdfrwt beam="2">  1       21 0.15959451E+00 0.28181018E+03</pdfrwt>
<totfact> 0.26976883E+03</totfact>
</mgrwt>
</event>
<event>
 5    0  0.1200001E+000  0.2532763E+03  0.7546771E-02  0.1111252E+00
         21   -1    0    0  503  501  0.00000000000E+00  0.00000000000E+00  0.36279225654E+03  0.36279225654E+03  0.00000000000E+00 0. -1.
         21   -1    0    0  501  502 -0.00000000000E+00 -0.00000000000E+00 -0.21475491588E+03  0.21475491588E+03  0.00000000000E+00 0. -1.
         25    1    1    2    0    0  0.55304398165E+02 -0.21928620644E+03 -0.51575011190E+02  0.26349572781E+03  0.12500000000E+03 0.  0.
         21    1    1    2  503  504 -0.25281524671E+02  0.11806660791E+02  0.47318578488E+02  0.54932691531E+02  0.00000000000E+00 0.  1.
         21    1    1    2  504  502 -0.30022873494E+02  0.20747954565E+03  0.15229377336E+03  0.25911875309E+03  0.00000000000E+00 0. -1.
<mgrwt>
<rscale>  4 0.25327625E+03</rscale>
<asrwt>0</asrwt>
<pdfrwt beam="1">  1       21 0.55814193E-01 0.25327625E+03</pdfrwt>
<pdfrwt beam="2">  1       21 0.33039218E-01 0.25327625E+03</pdfrwt>
<totfact> 0.25849950E+04</totfact>
</mgrwt>
</event>
<event>
 5    0  0.1200001E+000  0.2914626E+03  0.7546771E-02  0.1089588E+00
         21   -1    0    0  502  501  0.00000000000E+00  0.00000000000E+00  0.81235656555E+03  0.81235656555E+03  0.00000000000E+00 0. -1.
         21   -1    0    0  503  502 -0.00000000000E+00 -0.00000000000E+00 -0.33089370721E+03  0.33089370721E+03  0.00000000000E+00 0. -1.
         25    1    1    2    0    0 -0.24030713232E+03  0.10114686769E+03 -0.22342719749E+03  0.36540788068E+03  0.12500000000E+03 0.  0.
         21    1    1    2  503  504 -0.35350307468E+02 -0.19157181925E+02  0.10907399445E+03  0.11624877687E+03  0.00000000000E+00 0. -1.
         21    1    1    2  504  501  0.27565743979E+03 -0.81989685766E+02  0.59581606138E+03  0.66159361521E+03  0.00000000000E+00 0. -1.
<mgrwt>
<rscale>  4 0.29146257E+03</rscale>
<asrwt>0</asrwt>
<pdfrwt beam="1">  1       21 0.12497793E+00 0.29146257E+03</pdfrwt>
<pdfrwt beam="2">  1       21 0.50906725E-01 0.29146257E+03</pdfrwt>
<totfact> 0.16209957E+03</totfact>
</mgrwt>
</event>
<event>
 5    0  0.1200001E+000  0.3567977E+03  0.7546771E-02  0.1059859E+00
         21   -1    0    0  502  501  0.00000000000E+00  0.00000000000E+00  0.23793854023E+03  0.23793854023E+03  0.00000000000E+00 0.  1.
         21   -1    0    0  503  502 -0.00000000000E+00 -0.00000000000E+00 -0.13690890879E+04  0.13690890879E+04  0.00000000000E+00 0.  1.
         25    1    1    2    0    0 -0.34946612154E+03 -0.14404886703E+03 -0.10559441398E+04  0.11285032887E+04  0.12500000000E+03 0.  0.
         21    1    1    2  503  504  0.95199117793E+02  0.17570228375E+03  0.28974192965E+02  0.20192490783E+03  0.00000000000E+00 0.  1.
         21    1    1    2  504  501  0.25426700375E+03 -0.31653416726E+02 -0.10418060084E+03  0.27659943163E+03  0.00000000000E+00 0.  1.
<mgrwt>
<rscale>  4 0.35679765E+03</rscale>
<asrwt>0</asrwt>
<pdfrwt beam="1">  1       21 0.36605929E-01 0.35679765E+03</pdfrwt>
<pdfrwt beam="2">  1       21 0.21062909E+00 0.35679765E+03</pdfrwt>
<totfact> 0.71933446E+02</totfact>
</mgrwt>
</event>
<event>
 5    0  0.1200001E+000  0.2339620E+03  0.7546771E-02  0.1123882E+00
         21   -1    0    0  502  501  0.00000000000E+00  0.00000000000E+00  0.79196222146E+03  0.79196222146E+03  0.00000000000E+00 0.  1.
         21   -1    0    0  504  502 -0.00000000000E+00 -0.00000000000E+00 -0.10395660552E+03  0.10395660552E+03  0.00000000000E+00 0. -1.
         25    1    1    2    0    0  0.18118571680E+03 -0.13118716345E+03  0.15784693027E+03  0.30096343503E+03  0.12500000000E+03 0.  0.
         21    1    1    2  503  501 -0.17550305928E+03  0.78322072166E+02  0.49555482076E+03  0.53151693405E+03  0.00000000000E+00 0.  1.
         21    1    1    2  504  503 -0.56826575203E+01  0.52865091286E+02  0.34603864910E+02  0.63438457893E+02  0.00000000000E+00 0.  1.
<mgrwt>
<rscale>  4 0.23396198E+03</rscale>
<asrwt>0</asrwt>
<pdfrwt beam="1">  1       21 0.12184034E+00 0.23396198E+03</pdfrwt>
<pdfrwt beam="2">  1       21 0.15993324E-01 0.23396198E+03</pdfrwt>
<totfact> 0.17296182E+04</totfact>
</mgrwt>
</event>
<event>
 5    0  0.1200001E+000  0.2628434E+03  0.7546771E-02  0.1105447E+00
         21   -1    0    0  503  501  0.00000000000E+00  0.00000000000E+00  0.56719739134E+03  0.56719739134E+03  0.00000000000E+00 0. -1.
         21   -1    0    0  501  502 -0.00000000000E+00 -0.00000000000E+00 -0.23757615483E+03  0.23757615483E+03  0.00000000000E+00 0. -1.
         25    1    1    2    0    0  0.16260360109E+03 -0.14966530514E+03  0.32171334217E+03  0.40983424599E+03  0.12500000000E+03 0.  0.
         21    1    1    2  503  504 -0.31754567848E+01 -0.20649942391E+02  0.12997460344E+03  0.13164308256E+03  0.00000000000E+00 0. -1.
         21    1    1    2  504  502 -0.15942814431E+03  0.17031524753E+03 -0.12206670911E+03  0.26329621762E+03  0.00000000000E+00 0. -1.
<mgrwt>
<rscale>  4 0.26284344E+03</rscale>
<asrwt>0</asrwt>
<pdfrwt beam="1">  1       21 0.87261137E-01 0.26284344E+03</pdfrwt>
<pdfrwt beam="2">  1       21 0.36550178E-01 0.26284344E+03</pdfrwt>
<totfact> 0.77869380E+03</totfact>
</mgrwt>
</event>
<event>
 5    0  0.1200001E+000  0.2205571E+03  0.7546771E-02  0.1133468E+00
         21   -1    0    0  502  501  0.00000000000E+00  0.00000000000E+00  0.17122976527E+04  0.17122976527E+04  0.00000000000E+00 0. -1.
         21   -1    0    0  503  502 -0.00000000000E+00 -0.00000000000E+00 -0.47448040587E+03  0.47448040587E+03  0.00000000000E+00 0.  1.
         25    1    1    2    0    0  0.64710372657E+02 -0.27432959533E+03 -0.38238327250E+03  0.49120884183E+03  0.12500000000E+03 0.  0.
         21    1    1    2  503  504  0.25174369568E+02  0.11763516227E+03  0.79228133332E+02  0.14404470624E+03  0.00000000000E+00 0. -1.
         21    1    1    2  504  501 -0.89884742225E+02  0.15669443306E+03  0.15409723860E+04  0.15515245105E+04  0.00000000000E+00 0. -1.
<mgrwt>
<rscale>  4 0.22055713E+03</rscale>
<asrwt>0</asrwt>
<pdfrwt beam="1">  1       21 0.26343041E+00 0.22055713E+03</pdfrwt>
<pdfrwt beam="2">  1       21 0.72996986E-01 0.22055713E+03</pdfrwt>
<totfact> 0.89915461E+01</totfact>
</mgrwt>
</event>
<event>
 5    0  0.1200001E+000  0.2599653E+03  0.7546771E-02  0.1107164E+00
         21   -1    0    0  503  501  0.00000000000E+00  0.00000000000E+00  0.78803652878E+03  0.78803652878E+03  0.00000000000E+00 0. -1.
         21   -1    0    0  504  502 -0.00000000000E+00 -0.00000000000E+00 -0.10083652774E+03  0.10083652774E+03  0.00000000000E+00 0. -1.
         25    1    1    2    0    0  0.20556644054E+03  0.17066746710E+02  0.31741028404E+03  0.39865163205E+03  0.12500000000E+03 0.  0.
         21    1    1    2  503  502 -0.24587698234E+03  0.34792585970E+02  0.24306721386E+03  0.34748767595E+03  0.00000000000E+00 0. -1.
         21    1    1    2  504  501  0.40310541801E+02 -0.51859332680E+02  0.12672250314E+03  0.14273374853E+03  0.00000000000E+00 0.  1.
<mgrwt>
<rscale>  4 0.25996527E+03</rscale>
<asrwt>0</asrwt>
<pdfrwt beam="1">  1       21 0.12123638E+00 0.25996527E+03</pdfrwt>
<pdfrwt beam="2">  1       21 0.15513312E-01 0.25996527E+03</pdfrwt>
<totfact> 0.18269938E+04</totfact>
</mgrwt>
</event>
<event>
 5    0  0.1200001E+000  0.2824941E+03  0.7546771E-02  0.1094334E+00
         21   -1    0    0  503  501  0.00000000000E+00  0.00000000000E+00  0.52437470566E+03  0.52437470566E+03  0.00000000000E+00 0. -1.
         21   -1    0    0  501  502 -0.00000000000E+00 -0.00000000000E+00 -0.39858100394E+03  0.39858100394E+03  0.00000000000E+00 0. -1.
         25    1    1    2    0    0 -0.17087218624E+03  0.18117860536E+03 -0.15971501925E+03  0.32118044530E+03  0.12500000000E+03 0.  0.
         21    1    1    2  503  504  0.17599357371E+02  0.29105437180E+02  0.33514652891E+03  0.33686801525E+03  0.00000000000E+00 0. -1.
         21    1    1    2  504  502  0.15327282887E+03 -0.21028404254E+03 -0.49637807948E+02  0.26490724904E+03  0.00000000000E+00 0. -1.
<mgrwt>
<rscale>  4 0.28249409E+03</rscale>
<asrwt>0</asrwt>
<pdfrwt beam="1">  1       21 0.80673032E-01 0.28249409E+03</pdfrwt>
<pdfrwt beam="2">  1       21 0.61320154E-01 0.28249409E+03</pdfrwt>
<totfact> 0.31313929E+03</totfact>
</mgrwt>
</event>
<event>
 5    0  0.1200001E+000  0.2575438E+03  0.7546771E-02  0.1108628E+00
         21   -1    0    0  503  501  0.00000000000E+00  0.00000000000E+00  0.52173198198E+03  0.52173198198E+03  0.00000000000E+00 0.  1.
         21   -1    0    0  504  502 -0.00000000000E+00 -0.00000000000E+00 -0.96327830757E+03  0.96327830757E+03  0.00000000000E+00 0.  1.
         25    1    1    2    0    0  0.47578972494E+02  0.22115914390E+03 -0.91698867270E+03  0.95271630164E+03  0.12500000000E+03 0.  0.
         21    1    1    2  503  502 -0.40000498550E+02 -0.19917353295E+03  0.34975486053E+03  0.40447323593E+03  0.00000000000E+00 0.  1.
         21    1    1    2  504  501 -0.75784739438E+01 -0.21985610943E+02  0.12568748657E+03  0.12782075198E+03  0.00000000000E+00 0.  1.
<mgrwt>
<rscale>  4 0.25754378E+03</rscale>
<asrwt>0</asrwt>
<pdfrwt beam="1">  1       21 0.80266458E-01 0.25754378E+03</pdfrwt>
<pdfrwt beam="2">  1       21 0.14819666E+00 0.25754378E+03</pdfrwt>
<totfact> 0.39416116E+02</totfact>
</mgrwt>
</event>
