<event>
 5    0  0.1911311E+001  0.3267496E+03  0.7546771E-02  0.1072584E+00
         21   -1    0    0  504  501  0.00000000000E+00  0.00000000000E+00  0.13502224809E+04  0.13502224809E+04  0.00000000000E+00 0. -1.
         21   -1    0    0  503  502 -0.00000000000E+00 -0.00000000000E+00 -0.27729877331E+03  0.27729877331E+03  0.00000000000E+00 0. -1.
         25    1    1    2    0    0 -0.27845245173E+03 -0.54167238666E+02  0.42132060659E+03  0.52307352366E+03  0.12500000000E+03 0.  0.
         21    1    1    2  503  501  0.22743596098E+03  0.21865396821E+03 -0.10187847885E+03  0.33153566718E+03  0.00000000000E+00 0. -1.
         21    1    1    2  504  502  0.51016490749E+02 -0.16448672954E+03  0.75348157986E+03  0.77291206338E+03  0.00000000000E+00 0. -1.
<mgrwt>
<rscale>  4 0.32674960E+03</rscale>
<asrwt>0</asrwt>
<pdfrwt beam="1">  1       21 0.20772653E+00 0.32674960E+03</pdfrwt>
<pdfrwt beam="2">  1       21 0.42661351E-01 0.32674960E+03</pdfrwt>
<totfact> 0.56020335E+02</totfact>
</mgrwt>
</event>
<event>
 5    0  0.1911311E+001  0.2260037E+03  0.7546771E-02  0.1129485E+00
         21   -1    0    0  504  501  0.00000000000E+00  0.00000000000E+00  0.46229984970E+03  0.46229984970E+03  0.00000000000E+00 0. -1.
         21   -1    0    0  503  502 -0.00000000000E+00 -0.00000000000E+00 -0.16190629718E+04  0.16190629718E+04  0.00000000000E+00 0. -1.
         25    1    1    2    0    0  0.28973053952E+02  0.23081973533E+03  0.38149130754E+03  0.46398039377E+03  0.12500000000E+03 0.  0.
         21    1    1    2  503  501 -0.41730257093E+02 -0.18301415633E+03 -0.15541256534E+04  0.15654207557E+04  0.00000000000E+00 0. -1.
         21    1    1    2  504  502  0.12757203141E+02 -0.47805579005E+02  0.15871223768E+02  0.51961672027E+02  0.00000000000E+00 0.  1.
<mgrwt>
<rscale>  4 0.22600370E+03</rscale>
<asrwt>0</asrwt>
<pdfrwt beam="1">  1       21 0.71123055E-01 0.22600370E+03</pdfrwt>
<pdfrwt beam="2">  1       21 0.24908661E+00 0.22600370E+03</pdfrwt>
<totfact> 0.11489662E+02</totfact>
</mgrwt>
</event>
<event>
 5    0  0.2267930E+001  0.3136980E+03  0.7546771E-02  0.1078587E+00
         21   -1    0    0  503  501  0.00000000000E+00  0.00000000000E+00  0.15762884421E+04  0.15762884421E+04  0.00000000000E+00 0. -1.
         21   -1    0    0  504  502 -0.00000000000E+00 -0.00000000000E+00 -0.70347839592E+02  0.70347839592E+02  0.00000000000E+00 0. -1.
         25    1    1    2    0    0 -0.10529543292E+03 -0.27949411382E+03  0.96604425746E+03  0.10188574950E+04  0.12500000000E+03 0.  0.
         21    1    1    2  503  502  0.91220844766E+01  0.22867176772E+02  0.27675075769E+01  0.24774569561E+02  0.00000000000E+00 0.  1.
         21    1    1    2  504  501  0.96173348442E+02  0.25662693705E+03  0.53712883746E+03  0.60300421707E+03  0.00000000000E+00 0. -1.
<mgrwt>
<rscale>  4 0.31369800E+03</rscale>
<asrwt>0</asrwt>
<pdfrwt beam="1">  1       21 0.24250589E+00 0.31369800E+03</pdfrwt>
<pdfrwt beam="2">  1       21 0.10822746E-01 0.31369800E+03</pdfrwt>
<totfact> 0.47136019E+03</totfact>
</mgrwt>
</event>
<event>
 5    0  0.1911311E+001  0.4559592E+03  0.7546771E-02  0.1025960E+00
         21   -1    0    0  504  501  0.00000000000E+00  0.00000000000E+00  0.60063950515E+03  0.60063950515E+03  0.00000000000E+00 0.  1.
         21   -1    0    0  503  502 -0.00000000000E+00 -0.00000000000E+00 -0.49653598832E+03  0.49653598832E+03  0.00000000000E+00 0.  1.
         25    1    1    2    0    0  0.33292579771E+03  0.22052580832E+03 -0.98164847991E+02  0.42980525392E+03  0.12500000000E+03 0.  0.
         21    1    1    2  503  501  0.91516537488E+02 -0.43010510564E+02 -0.78836527561E+02  0.12822004028E+03  0.00000000000E+00 0. -1.
         21    1    1    2  504  502 -0.42444233520E+03 -0.17751529775E+03  0.28110489238E+03  0.53915019927E+03  0.00000000000E+00 0.  1.
<mgrwt>
<rscale>  4 0.45595924E+03</rscale>
<asrwt>0</asrwt>
<pdfrwt beam="1">  1       21 0.92406078E-01 0.45595924E+03</pdfrwt>
<pdfrwt beam="2">  1       21 0.76390152E-01 0.45595924E+03</pdfrwt>
<totfact> 0.12863906E+03</totfact>
</mgrwt>
</event>
<event>
 5    0  0.1911311E+001  0.1843889E+03  0.7546771E-02  0.1163622E+00
         21   -1    0    0  503  501  0.00000000000E+00  0.00000000000E+00  0.93934002915E+03  0.93934002915E+03  0.00000000000E+00 0. -1.
         21   -1    0    0  504  502 -0.00000000000E+00 -0.00000000000E+00 -0.82445089487E+02  0.82445089487E+02  0.00000000000E+00 0.  1.
         25    1    1    2    0    0 -0.19058182506E+03  0.85080227804E+02  0.19170902306E+03  0.30973767406E+03  0.12500000000E+03 0.  0.
         21    1    1    2  503  502  0.71184416852E+02 -0.41616697701E+02  0.86218827218E+02  0.11930153770E+03  0.00000000000E+00 0.  1.
         21    1    1    2  504  501  0.11939740821E+03 -0.43463530104E+02  0.57896708938E+03  0.59274590688E+03  0.00000000000E+00 0. -1.
<mgrwt>
<rscale>  4 0.18438892E+03</rscale>
<asrwt>0</asrwt>
<pdfrwt beam="1">  1       21 0.14451384E+00 0.18438892E+03</pdfrwt>
<pdfrwt beam="2">  1       21 0.12683861E-01 0.18438892E+03</pdfrwt>
<totfact> 0.17607870E+04</totfact>
</mgrwt>
</event>
