<event>
 5    0  0.1856407E+000  0.2448208E+03  0.7546771E-02  0.1116622E+00
         21   -1    0    0  502  501  0.00000000000E+00  0.00000000000E+00  0.54247442900E+03  0.54247442900E+03  0.00000000000E+00 0. -1.
         21   -1    0    0  503  502 -0.00000000000E+00 -0.00000000000E+00 -0.98448931473E+02  0.98448931473E+02  0.00000000000E+00 0. -1.
         25    1    1    2    0    0  0.13011243386E+03 -0.16547809638E+03  0.21241716696E+03  0.32412697920E+03  0.12500000000E+03 0.  0.
         21    1    1    2  503  504 -0.78515258234E+02  0.13504083806E+03  0.16504999439E+03  0.22724914602E+03  0.00000000000E+00 0. -1.
         21    1    1    2  504  501 -0.51597175626E+02  0.30437258316E+02  0.66558336182E+02  0.89547235254E+02  0.00000000000E+00 0. -1.
<mgrwt>
<rscale>  4 0.24482084E+03</rscale>
<asrwt>0</asrwt>
<pdfrwt beam="1">  1       21 0.83457603E-01 0.24482084E+03</pdfrwt>
<pdfrwt beam="2">  1       21 0.15145990E-01 0.24482084E+03</pdfrwt>
<totfact> 0.46992380E+04</totfact>
</mgrwt>
</event>
<event>
 5    0  0.1856407E+000  0.2728429E+03  0.7546771E-02  0.1099663E+00
         21   -1    0    0  502  501  0.00000000000E+00  0.00000000000E+00  0.29628439018E+03  0.29628439018E+03  0.00000000000E+00 0.  1.
         21   -1    0    0  503  502 -0.00000000000E+00 -0.00000000000E+00 -0.61214749741E+03  0.61214749741E+03  0.00000000000E+00 0.  1.
         25    1    1    2    0    0 -0.25345093240E+03 -0.68445759969E+02  0.17012323632E+03  0.33688145204E+03  0.12500000000E+03 0.  0.
         21    1    1    2  503  504  0.25257802854E+02 -0.70614965257E+01  0.32805078142E+01  0.26430722081E+02  0.00000000000E+00 0.  1.
         21    1    1    2  504  501  0.22819312955E+03  0.75507256495E+02 -0.48926685137E+03  0.54511971346E+03  0.00000000000E+00 0.  1.
<mgrwt>
<rscale>  4 0.27284294E+03</rscale>
<asrwt>0</asrwt>
<pdfrwt beam="1">  1       21 0.45582214E-01 0.27284294E+03</pdfrwt>
<pdfrwt beam="2">  1       21 0.94176537E-01 0.27284294E+03</pdfrwt>
<totfact> 0.41259841E+03</totfact>
</mgrwt>
</event>
<event>
 5    0  0.1856407E+000  0.3272049E+03  0.7546771E-02  0.1072380E+00
         21   -1    0    0  502  501  0.00000000000E+00  0.00000000000E+00  0.13706392542E+03  0.13706392542E+03  0.00000000000E+00 0.  1.
         21   -1    0    0  503  502 -0.00000000000E+00 -0.00000000000E+00 -0.86402535587E+03  0.86402535587E+03  0.00000000000E+00 0.  1.
         25    1    1    2    0    0 -0.23654179791E+03 -0.18837742469E+03 -0.18211548979E+03  0.37447179855E+03  0.12500000000E+03 0.  0.
         21    1    1    2  503  504  0.92868949557E+02  0.11203383031E+03 -0.22887813953E+03  0.27122209291E+03  0.00000000000E+00 0. -1.
         21    1    1    2  504  501  0.14367284835E+03  0.76343594375E+02 -0.31596780113E+03  0.35539538982E+03  0.00000000000E+00 0.  1.
<mgrwt>
<rscale>  4 0.32720495E+03</rscale>
<asrwt>0</asrwt>
<pdfrwt beam="1">  1       21 0.21086758E-01 0.32720495E+03</pdfrwt>
<pdfrwt beam="2">  1       21 0.13292698E+00 0.32720495E+03</pdfrwt>
<totfact> 0.78874077E+03</totfact>
</mgrwt>
</event>
<event>
 5    0  0.1856407E+000  0.2350637E+03  0.7546771E-02  0.1123126E+00
         21   -1    0    0  502  501  0.00000000000E+00  0.00000000000E+00  0.85189929902E+03  0.85189929902E+03  0.00000000000E+00 0.  1.
         21   -1    0    0  503  502 -0.00000000000E+00 -0.00000000000E+00 -0.18552349334E+03  0.18552349334E+03  0.00000000000E+00 0.  1.
         25    1    1    2    0    0  0.18099619849E+03  0.17550285284E+03  0.65742078150E+03  0.71511394838E+03  0.12500000000E+03 0.  0.
         21    1    1    2  503  504 -0.70282718238E+02 -0.15711700645E+02  0.86902765450E+02  0.11286544495E+03  0.00000000000E+00 0.  1.
         21    1    1    2  504  501 -0.11071348026E+03 -0.15979115220E+03 -0.77947741260E+02  0.20944339903E+03  0.00000000000E+00 0.  1.
<mgrwt>
<rscale>  4 0.23506369E+03</rscale>
<asrwt>0</asrwt>
<pdfrwt beam="1">  1       21 0.13106143E+00 0.23506369E+03</pdfrwt>
<pdfrwt beam="2">  1       21 0.28542076E-01 0.23506369E+03</pdfrwt>
<totfact> 0.48119534E+03</totfact>
</mgrwt>
</event>
<event>
 5    0  0.1856407E+000  0.2584601E+03  0.7546771E-02  0.1108072E+00
         21   -1    0    0  502  501  0.00000000000E+00  0.00000000000E+00  0.14949561708E+04  0.14949561708E+04  0.00000000000E+00 0.  1.
         21   -1    0    0  503  502 -0.00000000000E+00 -0.00000000000E+00 -0.58896118585E+02  0.58896118585E+02  0.00000000000E+00 0.  1.
         25    1    1    2    0    0 -0.22362959293E+03 -0.45071873070E+02  0.96213690698E+03  0.99668154209E+03  0.12500000000E+03 0.  0.
         21    1    1    2  503  504 -0.31388269483E+01  0.46146654340E+02  0.18049361409E+03  0.18632581858E+03  0.00000000000E+00 0.  1.
         21    1    1    2  504  501  0.22676841988E+03 -0.10747812697E+01  0.29342953119E+03  0.37084492875E+03  0.00000000000E+00 0.  1.
<mgrwt>
<rscale>  4 0.25846014E+03</rscale>
<asrwt>0</asrwt>
<pdfrwt beam="1">  1       21 0.22999323E+00 0.25846014E+03</pdfrwt>
<pdfrwt beam="2">  1       21 0.90609425E-02 0.25846014E+03</pdfrwt>
<totfact> 0.80002669E+03</totfact>
</mgrwt>
</event>
<event>
 5    0  0.1856407E+000  0.2112651E+03  0.7546771E-02  0.1140568E+00
         21   -1    0    0  502  501  0.00000000000E+00  0.00000000000E+00  0.14619489270E+04  0.14619489270E+04  0.00000000000E+00 0.  1.
         21   -1    0    0  503  502 -0.00000000000E+00 -0.00000000000E+00 -0.89319066905E+02  0.89319066905E+02  0.00000000000E+00 0. -1.
         25    1    1    2    0    0 -0.17838583853E+03  0.92307147792E+02  0.12014924896E+04  0.12245616846E+04  0.12500000000E+03 0.  0.
         21    1    1    2  503  504  0.15524682347E+03 -0.64258770259E+02  0.17619902417E+02  0.16894148903E+03  0.00000000000E+00 0. -1.
         21    1    1    2  504  501  0.23139015062E+02 -0.28048377534E+02  0.15351746814E+03  0.15776482030E+03  0.00000000000E+00 0. -1.
<mgrwt>
<rscale>  4 0.21126510E+03</rscale>
<asrwt>0</asrwt>
<pdfrwt beam="1">  1       21 0.22491520E+00 0.21126510E+03</pdfrwt>
<pdfrwt beam="2">  1       21 0.13741396E-01 0.21126510E+03</pdfrwt>
<totfact> 0.42402308E+03</totfact>
</mgrwt>
</event>
<event>
 5    0  0.1856407E+000  0.2466665E+03  0.7546771E-02  0.1115430E+00
         21   -1    0    0  502  501  0.00000000000E+00  0.00000000000E+00  0.13809094774E+03  0.13809094774E+03  0.00000000000E+00 0. -1.
         21   -1    0    0  503  502 -0.00000000000E+00 -0.00000000000E+00 -0.16912511157E+04  0.16912511157E+04  0.00000000000E+00 0.  1.
         25    1    1    2    0    0  0.37202074310E+02 -0.20936901373E+03  0.13887876174E+02  0.24705718235E+03  0.12500000000E+03 0.  0.
         21    1    1    2  503  504 -0.14995114914E+02  0.23828011895E+02 -0.33052383227E+03  0.33172071283E+03  0.00000000000E+00 0. -1.
         21    1    1    2  504  501 -0.22206959396E+02  0.18554100184E+03 -0.12365242118E+04  0.12505641682E+04  0.00000000000E+00 0.  1.
<mgrwt>
<rscale>  4 0.24666653E+03</rscale>
<asrwt>0</asrwt>
<pdfrwt beam="1">  1       21 0.21244760E-01 0.24666653E+03</pdfrwt>
<pdfrwt beam="2">  1       21 0.26019249E+00 0.24666653E+03</pdfrwt>
<totfact> 0.11254772E+03</totfact>
</mgrwt>
</event>
<event>
 5    0  0.1856407E+000  0.2724737E+03  0.7546771E-02  0.1099872E+00
         21   -1    0    0  502  501  0.00000000000E+00  0.00000000000E+00  0.39685979306E+03  0.39685979306E+03  0.00000000000E+00 0. -1.
         21   -1    0    0  503  502 -0.00000000000E+00 -0.00000000000E+00 -0.93782050832E+03  0.93782050832E+03  0.00000000000E+00 0.  1.
         25    1    1    2    0    0  0.16916816804E+02  0.24589525353E+03  0.31784396041E+03  0.42118931322E+03  0.12500000000E+03 0.  0.
         21    1    1    2  503  504 -0.16619082058E+02 -0.20711119030E+03 -0.37980697114E+03  0.43292559911E+03  0.00000000000E+00 0.  1.
         21    1    1    2  504  501 -0.29773474582E+00 -0.38784063225E+02 -0.47899770453E+03  0.48056538904E+03  0.00000000000E+00 0.  1.
<mgrwt>
<rscale>  4 0.27247369E+03</rscale>
<asrwt>0</asrwt>
<pdfrwt beam="1">  1       21 0.61055354E-01 0.27247369E+03</pdfrwt>
<pdfrwt beam="2">  1       21 0.14428008E+00 0.27247369E+03</pdfrwt>
<totfact> 0.76797622E+02</totfact>
</mgrwt>
</event>
