<event>
 5    0  0.1911311E+001  0.3513719E+03  0.7546771E-02  0.1062053E+00
         21   -1    0    0  504  501  0.00000000000E+00  0.00000000000E+00  0.45386494574E+03  0.45386494574E+03  0.00000000000E+00 0. -1.
         21   -1    0    0  501  502 -0.00000000000E+00 -0.00000000000E+00 -0.82019672631E+03  0.82019672631E+03  0.00000000000E+00 0.  1.
         25    1    1    2    0    0 -0.36291674003E+03 -0.17668192609E+03 -0.23272613602E+03  0.48240182171E+03  0.12500000000E+03 0.  0.
         21    1    1    2  503  502  0.12877759444E+03 -0.11884485510E+02  0.26353944572E+03  0.29356081018E+03  0.00000000000E+00 0. -1.
         21    1    1    2  504  503  0.23413914559E+03  0.18856641160E+03 -0.39714509026E+03  0.49809904015E+03  0.00000000000E+00 0.  1.
<mgrwt>
<rscale>  4 0.35137189E+03</rscale>
<asrwt>0</asrwt>
<pdfrwt beam="1">  1       21 0.69825376E-01 0.35137189E+03</pdfrwt>
<pdfrwt beam="2">  1       21 0.12618411E+00 0.35137189E+03</pdfrwt>
<totfact> 0.76800656E+02</totfact>
</mgrwt>
</event>
<event>
 5    0  0.1911311E+001  0.2880764E+03  0.7546771E-02  0.1091358E+00
         21   -1    0    0  502  501  0.00000000000E+00  0.00000000000E+00  0.10374166634E+03  0.10374166634E+03  0.00000000000E+00 0.  1.
         21   -1    0    0  504  502 -0.00000000000E+00 -0.00000000000E+00 -0.74902075022E+03  0.74902075022E+03  0.00000000000E+00 0.  1.
         25    1    1    2    0    0 -0.24792734376E+03 -0.76779066096E+02 -0.37421182417E+03  0.47225256180E+03  0.12500000000E+03 0.  0.
         21    1    1    2  503  501  0.21764168784E+03  0.57575387346E+02 -0.20100951115E+03  0.30180731119E+03  0.00000000000E+00 0.  1.
         21    1    1    2  504  503  0.30285655914E+02  0.19203678750E+02 -0.70057748566E+02  0.78702543579E+02  0.00000000000E+00 0.  1.
<mgrwt>
<rscale>  4 0.28807637E+03</rscale>
<asrwt>0</asrwt>
<pdfrwt beam="1">  1       21 0.15960257E-01 0.28807637E+03</pdfrwt>
<pdfrwt beam="2">  1       21 0.11523396E+00 0.28807637E+03</pdfrwt>
<totfact> 0.19415835E+04</totfact>
</mgrwt>
</event>
<event>
 5    0  0.1911311E+001  0.2132644E+03  0.7546771E-02  0.1139007E+00
         21   -1    0    0  502  501  0.00000000000E+00  0.00000000000E+00  0.43646319749E+03  0.43646319749E+03  0.00000000000E+00 0.  1.
         21   -1    0    0  504  502 -0.00000000000E+00 -0.00000000000E+00 -0.29424566844E+03  0.29424566844E+03  0.00000000000E+00 0.  1.
         25    1    1    2    0    0 -0.17153557007E+03 -0.18669718672E+03 -0.42738070048E+02  0.28588779960E+03  0.12500000000E+03 0.  0.
         21    1    1    2  503  501  0.12888992860E+03  0.98442565797E+02  0.27005670659E+03  0.31501456670E+03  0.00000000000E+00 0.  1.
         21    1    1    2  504  503  0.42645641471E+02  0.88254620928E+02 -0.85101107489E+02  0.12980649963E+03  0.00000000000E+00 0.  1.
<mgrwt>
<rscale>  4 0.21326439E+03</rscale>
<asrwt>0</asrwt>
<pdfrwt beam="1">  1       21 0.67148184E-01 0.21326439E+03</pdfrwt>
<pdfrwt beam="2">  1       21 0.45268564E-01 0.21326439E+03</pdfrwt>
<totfact> 0.93702088E+03</totfact>
</mgrwt>
</event>
<event>
 5    0  0.1911311E+001  0.2463702E+03  0.7546771E-02  0.1115620E+00
         21   -1    0    0  504  501  0.00000000000E+00  0.00000000000E+00  0.15143416516E+04  0.15143416516E+04  0.00000000000E+00 0. -1.
         21   -1    0    0  503  502 -0.00000000000E+00 -0.00000000000E+00 -0.71421789532E+02  0.71421789532E+02  0.00000000000E+00 0. -1.
         25    1    1    2    0    0 -0.57699814419E+01  0.24978720052E+03  0.36933755526E+03  0.46310060241E+03  0.12500000000E+03 0.  0.
         21    1    1    2  503  501  0.18338262362E+02 -0.45645033088E+02  0.26663895249E+02  0.55952875010E+02  0.00000000000E+00 0. -1.
         21    1    1    2  504  502 -0.12568280920E+02 -0.20414216743E+03  0.10469184116E+04  0.10667099637E+04  0.00000000000E+00 0. -1.
<mgrwt>
<rscale>  4 0.24637018E+03</rscale>
<asrwt>0</asrwt>
<pdfrwt beam="1">  1       21 0.23297561E+00 0.24637018E+03</pdfrwt>
<pdfrwt beam="2">  1       21 0.10987969E-01 0.24637018E+03</pdfrwt>
<totfact> 0.54946719E+03</totfact>
</mgrwt>
</event>
