<LesHouchesEvents version="3.0">
  <!--
  <scalesfunctionalform>
    muR  H_T/2 := sum_i mT(i)/2, i=final state
    muF1 H_T/2 := sum_i mT(i)/2, i=final state
    muF2 H_T/2 := sum_i mT(i)/2, i=final state
    QES  H_T/2 := sum_i mT(i)/2, i=final state
  </scalesfunctionalform>
HERWIG6   
  -->
  <header>
       48
  </header>
  <init>
   2212   2212 0.65000000D+04 0.65000000D+04 -1 -1   244800   244800 -4   1
 0.39493811D-04 0.18981836D-05 0.16232397D-05     66
  </init>
  <event>
  5     66 0.16232397E-05 0.28735423E+02 0.75467711E-02 0.94775915E-01
       -3 -1    0    0    0  501 0.00000000E+00 0.00000000E+00 0.28686635E+03 0.28686678E+03 0.50000000E+00 0.0000E+00 0.9000E+01
        2 -1    0    0  502    0 0.00000000E+00 0.00000000E+00 -.33605882E+04 0.33605882E+04 0.32000000E+00 0.0000E+00 0.9000E+01
       25  1    1    2    0    0 -.19445829E+02 0.47090895E+03 -.14328329E+03 0.50822089E+03 0.12500000E+03 0.0000E+00 0.9000E+01
       -3  1    1    2    0  501 0.13101121E+01 -.28737758E+02 0.85907216E+02 0.90597323E+02 0.50000000E+00 0.0000E+00 0.9000E+01
        2  1    1    2  502    0 0.18135717E+02 -.44217119E+03 -.30163458E+04 0.30486368E+04 0.32000000E+00 0.0000E+00 0.9000E+01
#aMCatNLO 1  0  0  2  5 0.38077815D+02 0.00000000D+00  -5  6  0 0.00000000D+00 0.00000000D+00 0.00000000D+00 0.00000000D+00 0.00000000D+00
  <mgrwgt>
 0.7335567691D-03    7    2    0
 0.981855637363787D+03 0.000000000000000D+00 0.000000000000000D+00 0.981855637363787D+03
 0.981855637363787D+03 0.000000000000000D+00 0.000000000000000D+00 -.981855637363787D+03
 0.720003013381168D+03 -.194490895919476D+02 0.470991668971426D+03 0.529686624289794D+03
 0.302406309603596D+03 0.130864652643914D+01 -.287056090911546D+02 0.301037956973934D+03
 0.941301951742811D+03 0.181404430655085D+02 -.442286059880271D+03 -.830724581263729D+03
 0.000000000000000D+00 0.000000000000000D+00 -.000000000000000D+00 -.000000000000000D+00
 0.989343103786125D+03 0.000000000000000D+00 0.000000000000000D+00 0.989343103786125D+03
 0.103167532278900D+04 0.000000000000000D+00 0.000000000000000D+00 -.103167532278900D+04
 0.729179248652432D+03 -.220907461827939D+02 0.484790115046599D+03 0.529686624289794D+03
 0.301911690801879D+03 0.207059327532939D+00 -.229515714112082D+02 0.301037956973934D+03
 0.932989479084016D+03 0.147238719128486D+02 -.424439920084762D+03 -.830724581263729D+03
 0.569380080368020D+02 0.715981494241232D+01 -.373986235506281D+02 -.423322190028794D+02
0.306588312004D-03 0.000000000000D+00 0.000000000000D+00 0.249553074699D-04 0.000000000000D+00  6 -3 2 25 -3 2 21 0 0.44133319D-01 0.51701361D+00 0.22995770D+06 0.22995770D+06 0.22995770D+06 0.10931999D+01  1  2  2  2  6  2        2 0.139973530231D-03 0.100000000000D+01
0.113132231169D-03 0.000000000000D+00 -.117737984465D-05 0.249553074699D-04 0.000000000000D+00  6 -3 2 25 -3 2 21 2 0.44133319D-01 0.51701361D+00 0.22995770D+06 0.22995770D+06 0.22995770D+06 0.10931999D+01  1  2  3  2  6  2        2 0.617270945485D-04 0.100000000000D+01
-.219520802457D-03 0.000000000000D+00 0.000000000000D+00 0.249553074699D-04 0.000000000000D+00  6 -3 2 25 -3 2 21 2 0.44133319D-01 0.51701361D+00 0.22995770D+06 0.22995770D+06 0.22995770D+06 0.10931999D+01  1  2 15  2  6  2        2 -.119774720154D-03 0.100000000000D+01
-.244861739574D-03 0.000000000000D+00 0.000000000000D+00 0.249553074699D-04 0.000000000000D+00  6 -3 2 25 -3 2 21 2 0.44133319D-01 0.51701361D+00 0.22995770D+06 0.22995770D+06 0.22995770D+06 0.10931999D+01  1  2  4  2  6  2        2 -.133601216858D-03 0.100000000000D+01
-.565562648779D-02 0.000000000000D+00 -.746938452076D-03 0.249553074699D-04 0.000000000000D+00  6 -3 2 25 -3 2 21 2 0.44133319D-01 0.54421934D+00 0.22995770D+06 0.22995770D+06 0.22995770D+06 0.10931999D+01  1  2  5  2  6  2        2 -.232169981858D-02 0.100000000000D+01
0.569559403198D-02 0.000000000000D+00 0.748630248411D-03 0.249553074699D-04 0.000000000000D+00  6 -3 2 25 -3 2 21 2 0.44133319D-01 0.51701361D+00 0.22995770D+06 0.22995770D+06 0.22995770D+06 0.10931999D+01  1  2  6  2  6  2        2 0.310762430556D-02 0.100000000000D+01
-.497440453228D-04 0.000000000000D+00 -.666086496873D-05 0.249553074699D-04 0.000000000000D+00  6 -3 21 25 -3 2 -2 2 0.44133319D-01 0.54421934D+00 0.22995770D+06 0.22995770D+06 0.22995770D+06 0.10931999D+01  1  2  5  6  6  2        2 -.692405634824D-06 0.100000000000D+01
  </mgrwgt>
  </event>
  <event>
  6     66 0.16232397E-05 0.23964637E+03 0.75467711E-02 0.90759756E-01
       21 -1    0    0  503  501 0.00000000E+00 0.00000000E+00 0.61215603E+03 0.61215649E+03 0.75000000E+00 0.0000E+00 0.9000E+01
        2 -1    0    0  502    0 0.00000000E+00 0.00000000E+00 -.14636229E+04 0.14636229E+04 0.32000000E+00 0.0000E+00 0.9000E+01
       25  1    1    2    0    0 -.29081255E+03 0.62800080E+03 0.97003795E+02 0.70992372E+03 0.12500000E+03 0.0000E+00 0.9000E+01
       -3  1    1    2    0  501 0.34871869E+02 -.25064593E+03 -.83494196E+03 0.87244929E+03 0.50000000E+00 0.0000E+00 0.9000E+01
        2  1    1    2  502    0 0.26833532E+03 -.35372561E+03 -.80975764E+02 0.45131234E+03 0.32000000E+00 0.0000E+00 0.9000E+01
        3  1    1    2  503    0 -.12394634E+02 -.23629260E+02 -.32552947E+02 0.42094100E+02 0.50000000E+00 0.0000E+00 0.9000E+01
#aMCatNLO 2  0  0  1  2 0.26682745D+02 0.00000000D+00  -5  6  0 0.00000000D+00 0.00000000D+00 0.00000000D+00 0.00000000D+00 0.00000000D+00
  <mgrwgt>
 0.2928666489D-02    1    2    0
 0.930664288426956D+03 0.000000000000000D+00 0.000000000000000D+00 0.930664288426956D+03
 0.930664288426956D+03 0.000000000000000D+00 0.000000000000000D+00 -.930664288426956D+03
 0.812352551006881D+03 -.296304675084795D+03 0.617712106424583D+03 0.418242704929549D+03
 0.588675281732499D+03 0.309521066573897D+02 -.258027882643236D+03 -.528206556372556D+03
 0.460300744114531D+03 0.265352568427405D+03 -.359684223781347D+03 0.109963851443007D+03
 0.000000000000000D+00 -.000000000000000D+00 -.000000000000000D+00 -.000000000000000D+00
 0.938068391576859D+03 0.000000000000000D+00 0.000000000000000D+00 0.938068391576859D+03
 0.955114108826251D+03 0.000000000000000D+00 0.000000000000000D+00 -.955114108826251D+03
 0.818304669590154D+03 -.290875660131919D+03 0.628062037054530D+03 0.418242704929549D+03
 0.585666254856826D+03 0.348618908115312D+02 -.250574229425355D+03 -.528206556372556D+03
 0.457548895451059D+03 0.268408403433532D+03 -.353858548110069D+03 0.109963851443007D+03
 0.316626805050705D+02 -.123946341131438D+02 -.236292595191055D+02 -.170457172493921D+02
0.174992889019D-03 0.000000000000D+00 0.000000000000D+00 0.248535283595D-11 0.500993941914D-11  6 21 2 25 -3 2 3 2 0.94177692D-01 0.22517232D+00 0.50919277D+06 0.50919277D+06 0.50919277D+06 0.10679517D+01  1  2  1  5  6  1       -3 0.292866648865D-02 0.100000000000D+01
  </mgrwgt>
  </event>
  <event>
  5     66 -.16232397E-05 0.26933492E+02 0.75467711E-02 0.88575852E-01
       -3 -1    0    0    0  501 0.00000000E+00 0.00000000E+00 0.12941241E+04 0.12941242E+04 0.50000000E+00 0.0000E+00 0.9000E+01
        2 -1    0    0  502    0 -.00000000E+00 -.00000000E+00 -.23915198E+04 0.23915198E+04 0.32000000E+00 0.0000E+00 0.9000E+01
       25  1    1    2    0    0 0.86716249E+03 -.14231997E+03 -.80862131E+03 0.12007161E+04 0.12500000E+03 0.0000E+00 0.9000E+01
       -3  1    1    2    0  501 -.16723653E+02 0.21115469E+02 0.96484693E+03 0.96522297E+03 0.50000000E+00 0.0000E+00 0.9000E+01
        2  1    1    2  502    0 -.85043884E+03 0.12120450E+03 -.12536213E+04 0.15197049E+04 0.32000000E+00 0.0000E+00 0.9000E+01
#aMCatNLO 1  0  0  5  2 0.31970901D+02 0.00000000D+00  -5  6  0 0.00000000D+00 0.00000000D+00 0.00000000D+00 0.00000000D+00 0.00000000D+00
  <mgrwgt>
 -.1080689636D-02    6    2    0
 0.175923951465324D+04 0.000000000000000D+00 0.000000000000000D+00 0.175923951465324D+04
 0.175923951465324D+04 -.000000000000000D+00 -.000000000000000D+00 -.175923951465324D+04
 0.100562256237368D+04 0.867275975612814D+03 -.142336138845991D+03 -.472466447124301D+03
 0.131189391178400D+04 -.167221480207903D+02 0.211135686968832D+02 0.131161740715743D+04
 0.120096255514879D+04 -.850553827592024D+03 0.121222570149108D+03 -.839150960033128D+03
 0.000000000000000D+00 0.000000000000000D+00 0.000000000000000D+00 -.000000000000000D+00
 0.175923951465324D+04 0.000000000000000D+00 0.000000000000000D+00 0.175923951465324D+04
 0.175923951465324D+04 -.000000000000000D+00 -.000000000000000D+00 -.175923951465324D+04
 0.100460667961778D+04 0.864839036069649D+03 -.141988821527395D+03 -.474870716073368D+03
 0.130881199527938D+04 -.198991497888086D+02 0.215663611095372D+02 0.130848299755609D+04
 0.369847538915528D+03 -.304889812600402D+03 0.654344654583466D+02 -.198866123169697D+03
 0.835212815493787D+03 -.540050073680439D+03 0.549879949595116D+02 -.634746158313025D+03
0.280996494373D-02 0.000000000000D+00 0.000000000000D+00 0.174695574715D-04 0.000000000000D+00  6 -3 2 25 -3 2 21 0 0.19909603D+00 0.36792613D+00 0.78659637D+06 0.78659637D+06 0.78659637D+06 0.10548747D+01  1  2  2  4  6  5        2 0.724355162424D-04 0.100000000000D+01
0.271173443234D-02 0.000000000000D+00 -.107910052647D-04 0.174695574715D-04 0.000000000000D+00  6 -3 2 25 -3 2 21 2 0.19909603D+00 0.36792613D+00 0.78659637D+06 0.78659637D+06 0.78659637D+06 0.10548747D+01  1  2  3  4  6  5        2 0.777856652271D-04 0.100000000000D+01
-.166929558246D-02 0.000000000000D+00 0.000000000000D+00 0.174695574715D-04 0.000000000000D+00  6 -3 2 25 -3 2 21 2 0.19909603D+00 0.36792613D+00 0.78659637D+06 0.78659637D+06 0.78659637D+06 0.10548747D+01  1  2 15  4  6  5        2 -.478834747952D-04 0.100000000000D+01
-.525718178581D-01 0.000000000000D+00 0.000000000000D+00 0.174695574715D-04 0.000000000000D+00  6 -3 2 25 -3 2 21 2 0.19909603D+00 0.36792613D+00 0.78659637D+06 0.78659637D+06 0.78659637D+06 0.10548747D+01  1  2  4  4  6  5        2 -.150801412392D-02 0.100000000000D+01
-.136460268643D-01 0.000000000000D+00 0.000000000000D+00 0.174695574715D-04 0.000000000000D+00  6 -3 2 25 -3 2 21 2 0.19909603D+00 0.36792613D+00 0.78659637D+06 0.78659637D+06 0.78659637D+06 0.10548747D+01  1  2  5  4  6  5        2 -.391434081702D-03 0.100000000000D+01
0.249755930756D-01 0.000000000000D+00 -.000000000000D+00 0.174695574715D-04 0.000000000000D+00  6 -3 2 25 -3 2 21 2 0.19909603D+00 0.36792613D+00 0.78659637D+06 0.78659637D+06 0.78659637D+06 0.10548747D+01  1  2  6  4  6  5        2 0.716420862847D-03 0.100000000000D+01
  </mgrwgt>
  </event>
  <event>
  5     66 0.16232397E-05 0.10159248E+02 0.75467711E-02 0.93838597E-01
       -3 -1    0    0    0  501 0.00000000E+00 0.00000000E+00 0.48409604E+03 0.48409630E+03 0.50000000E+00 0.0000E+00 0.9000E+01
        2 -1    0    0  502    0 0.00000000E+00 0.00000000E+00 -.10810850E+04 0.10810850E+04 0.32000000E+00 0.0000E+00 0.9000E+01
       25  1    1    2    0    0 0.40232112E+03 0.33117022E+03 -.18409395E+03 0.56661413E+03 0.12500000E+03 0.0000E+00 0.9000E+01
       -3  1    1    2    0  501 0.66926228E+01 -.76563036E+01 0.19634865E+03 0.19661245E+03 0.50000000E+00 0.0000E+00 0.9000E+01
        2  1    1    2  502    0 -.40901374E+03 -.32351391E+03 -.60924363E+03 0.80195473E+03 0.32000000E+00 0.0000E+00 0.9000E+01
#aMCatNLO 1  0  0  1  2 0.43316408D+01 0.00000000D+00  -5  6  0 0.00000000D+00 0.00000000D+00 0.00000000D+00 0.00000000D+00 0.00000000D+00
  <mgrwgt>
 0.1778217145D-03    9    2    0
 0.723428776113002D+03 0.000000000000000D+00 0.000000000000000D+00 0.723428776113002D+03
 0.723428776113002D+03 0.000000000000000D+00 0.000000000000000D+00 -.723428776113002D+03
 0.537176782079607D+03 0.402463439693575D+03 0.331275898249525D+03 0.348332334759174D+02
 0.293422539001546D+03 0.668615202410817D+01 -.764890101383670D+01 0.293246613072521D+03
 0.616258231144852D+03 -.409149591717683D+03 -.323626997235688D+03 -.328079846548438D+03
 0.000000000000000D+00 -.000000000000000D+00 -.000000000000000D+00 0.000000000000000D+00
 0.824079946483981D+03 0.000000000000000D+00 0.000000000000000D+00 0.824079946483981D+03
 0.723478623960087D+03 0.000000000000000D+00 0.000000000000000D+00 -.723478623960087D+03
 0.538463135353241D+03 0.404067886956548D+03 0.331411129430690D+03 0.348332334759174D+02
 0.293441877159301D+03 0.756153140617200D+01 -.757511947514983D+01 0.293246613072521D+03
 0.614959023790053D+03 -.407313082005846D+03 -.323472206621323D+03 -.328079846548438D+03
 0.100694534141473D+03 -.431633635687436D+01 -.363803334217721D+00 0.100601322523894D+03
0.273466253443D-06 0.000000000000D+00 0.000000000000D+00 0.326456009825D-05 0.000000000000D+00  6 -3 2 25 -3 2 21 0 0.74476338D-01 0.16632079D+00 0.28508859D+06 0.28508859D+06 0.28508859D+06 0.10861938D+01  1  2  2  1  6  1       -3 0.843748517574D-06 0.100000000000D+01
0.256249582214D-06 0.000000000000D+00 -.105018241854D-08 0.326456009825D-05 0.000000000000D+00  6 -3 2 25 -3 2 21 2 0.74476338D-01 0.16632079D+00 0.28508859D+06 0.28508859D+06 0.28508859D+06 0.10861938D+01  1  2  3  1  6  1       -3 0.932796875974D-06 0.100000000000D+01
-.198600574029D-06 0.000000000000D+00 0.000000000000D+00 0.326456009825D-05 0.000000000000D+00  6 -3 2 25 -3 2 21 2 0.74476338D-01 0.16632079D+00 0.28508859D+06 0.28508859D+06 0.28508859D+06 0.10861938D+01  1  2 15  1  6  1       -3 -.722943598272D-06 0.100000000000D+01
-.575047759790D-04 0.000000000000D+00 0.000000000000D+00 0.326456009825D-05 0.000000000000D+00  6 -3 2 25 -3 2 21 2 0.74476338D-01 0.16632079D+00 0.28508859D+06 0.28508859D+06 0.28508859D+06 0.10861938D+01  1  2  4  1  6  1       -3 -.209328245234D-03 0.100000000000D+01
-.503778800513D-03 0.000000000000D+00 -.529608907470D-06 0.326456009825D-05 0.000000000000D+00  6 -3 2 25 -3 2 21 2 0.84840791D-01 0.16632079D+00 0.28508859D+06 0.28508859D+06 0.28508859D+06 0.10861938D+01  1  2  5  1  6  1       -3 -.134341019107D-02 0.100000000000D+01
0.499605420231D-03 0.000000000000D+00 0.525144961351D-06 0.326456009825D-05 0.000000000000D+00  6 -3 2 25 -3 2 21 2 0.74476338D-01 0.16632079D+00 0.28508859D+06 0.28508859D+06 0.28508859D+06 0.10861938D+01  1  2  6  1  6  1       -3 0.181865808789D-02 0.100000000000D+01
0.378754816983D-04 0.000000000000D+00 0.000000000000D+00 0.326456009825D-05 0.200934832413D-06  6 -3 2 25 -3 2 21 2 0.84838285D-01 0.16633225D+00 0.28756569D+06 0.28756569D+06 0.28756569D+06 0.10859146D+01  1  2 11  1  6  1       -3 0.100914119210D-03 0.100000000000D+01
-.102359930633D-04 0.000000000000D+00 -.107638144923D-07 0.326456009825D-05 0.000000000000D+00  6 21 2 25 -3 2 3 2 0.84840791D-01 0.16632079D+00 0.28508859D+06 0.28508859D+06 0.28508859D+06 0.10861938D+01  1  2  5  5  6  1       -3 -.400238508297D-03 0.100000000000D+01
0.538154200198D-05 0.000000000000D+00 0.000000000000D+00 0.326456009825D-05 0.189946344151D-07  6 21 2 25 -3 2 3 2 0.84838285D-01 0.16633225D+00 0.28756569D+06 0.28756569D+06 0.28756569D+06 0.10859146D+01  1  2 11  5  6  1       -3 0.210172850221D-03 0.100000000000D+01
  </mgrwgt>
  </event>
  <event>
  5     66 -.16232397E-05 0.10058202E+03 0.75467711E-02 0.91166083E-01
       -3 -1    0    0    0  501 0.00000000E+00 0.00000000E+00 0.12908732E+03 0.12908829E+03 0.50000000E+00 0.0000E+00 0.9000E+01
        2 -1    0    0  502    0 0.00000000E+00 0.00000000E+00 -.26969219E+04 0.26969219E+04 0.32000000E+00 0.0000E+00 0.9000E+01
       25  1    1    2    0    0 -.23060354E+03 0.39543138E+03 -.61586314E+03 0.77746793E+03 0.12500000E+03 0.0000E+00 0.9000E+01
       -3  1    1    2    0  501 -.34068061E+02 -.94907760E+02 -.65983542E+02 0.12050806E+03 0.50000000E+00 0.0000E+00 0.9000E+01
        2  1    1    2  502    0 0.26467160E+03 -.30052362E+03 -.18859879E+04 0.19280342E+04 0.32000000E+00 0.0000E+00 0.9000E+01
#aMCatNLO 1  0  0  1  4 0.17494429D+02 0.00000000D+00  -5  6  0 0.00000000D+00 0.00000000D+00 0.00000000D+00 0.00000000D+00 0.00000000D+00
  <mgrwgt>
 -.2142968594D-04    6    2    0
 0.590033743914872D+03 0.000000000000000D+00 0.000000000000000D+00 0.590033743914872D+03
 0.590033743914872D+03 0.000000000000000D+00 0.000000000000000D+00 -.590033743914872D+03
 0.521920694330425D+03 -.230781615096591D+03 0.395376837508044D+03 0.217239990945268D+03
 0.144642868260992D+03 -.339818889986410D+02 -.946677007089231D+02 0.103946221678984D+03
 0.513503925238327D+03 0.264763504095231D+03 -.300709136799121D+03 -.321186212624252D+03
 0.000000000000000D+00 0.000000000000000D+00 0.000000000000000D+00 0.000000000000000D+00
 0.967204075255637D+03 0.000000000000000D+00 0.000000000000000D+00 0.967204075255637D+03
 0.694971453225677D+03 0.000000000000000D+00 0.000000000000000D+00 -.694971453225677D+03
 0.543557283919507D+03 -.360524531217222D+03 0.320403448212802D+03 0.217239990945268D+03
 0.172514695683614D+03 -.726020651598382D+02 -.116984799696371D+03 0.103946221678984D+03
 0.511619107434657D+03 0.139934596922624D+03 -.372842911286276D+03 -.321186212624252D+03
 0.434484441443537D+03 0.293191999454436D+03 0.169424262769846D+03 0.272232622029959D+03
0.256486400575D-04 0.000000000000D+00 0.000000000000D+00 0.599399238780D-07 0.000000000000D+00  6 -3 2 25 -3 2 21 0 0.19859664D-01 0.41491113D+00 0.23804614D+06 0.23804614D+06 0.23804614D+06 0.10920635D+01  1  2  2  1  6  1       -3 0.140571761237D-03 0.100000000000D+01
0.224665364385D-05 0.000000000000D+00 -.984975312628D-07 0.599399238780D-07 0.000000000000D+00  6 -3 2 25 -3 2 21 2 0.19859664D-01 0.41491113D+00 0.23804614D+06 0.23804614D+06 0.23804614D+06 0.10920635D+01  1  2  3  1  6  1       -3 0.146847201287D-04 0.100000000000D+01
-.153150367066D-04 0.000000000000D+00 0.000000000000D+00 0.599399238780D-07 0.000000000000D+00  6 -3 2 25 -3 2 21 2 0.19859664D-01 0.41491113D+00 0.23804614D+06 0.23804614D+06 0.23804614D+06 0.10920635D+01  1  2 15  1  6  1       -3 -.100103114876D-03 0.100000000000D+01
-.236751256816D-05 0.000000000000D+00 0.000000000000D+00 0.599399238780D-07 0.000000000000D+00  6 -3 2 25 -3 2 21 2 0.19859664D-01 0.41491113D+00 0.23804614D+06 0.23804614D+06 0.23804614D+06 0.10920635D+01  1  2  4  1  6  1       -3 -.154746859000D-04 0.100000000000D+01
-.229761473367D-04 0.000000000000D+00 -.158654242446D-04 0.599399238780D-07 0.000000000000D+00  6 -3 2 25 -3 2 21 2 0.40140845D-01 0.41491113D+00 0.23804614D+06 0.23804614D+06 0.23804614D+06 0.10920635D+01  1  2  5  1  6  1       -3 -.399523728361D-04 0.100000000000D+01
-.789141274406D-06 0.000000000000D+00 -.120758020053D-05 0.599399238780D-07 0.000000000000D+00  6 21 2 25 -3 2 3 2 0.40140845D-01 0.41491113D+00 0.23804614D+06 0.23804614D+06 0.23804614D+06 0.10920635D+01  1  2  5  5  6  1       -3 -.211559936952D-04 0.100000000000D+01
  </mgrwgt>
  </event>
  <event>
  5     66 0.16232397E-05 0.75573841E+02 0.75467711E-02 0.94183816E-01
       -1 -1    0    0    0  501 0.00000000E+00 0.00000000E+00 0.39239232E+03 0.39239246E+03 0.32000000E+00 0.0000E+00 0.9000E+01
        4 -1    0    0  502    0 -.00000000E+00 -.00000000E+00 -.17913279E+04 0.17913286E+04 0.15500000E+01 0.0000E+00 0.9000E+01
       25  1    1    2    0    0 -.16880274E+03 0.47104416E+03 -.18593885E+03 0.54824741E+03 0.12500000E+03 0.0000E+00 0.9000E+01
       -1  1    1    2    0  501 0.64457656E+02 -.39499854E+02 0.16834156E+03 0.18453728E+03 0.32000000E+00 0.0000E+00 0.9000E+01
        4  1    1    2  502    0 0.10434509E+03 -.43154431E+03 -.13813383E+04 0.14509364E+04 0.15500000E+01 0.0000E+00 0.9000E+01
#aMCatNLO 1  0  0  5  2 0.11814339D+01 0.00000000D+00  -5  6  0 0.00000000D+00 0.00000000D+00 0.00000000D+00 0.00000000D+00 0.00000000D+00
  <mgrwgt>
 0.3346116319D-05    7    2    0
 0.838393827324538D+03 0.000000000000000D+00 0.000000000000000D+00 0.838393827324538D+03
 0.838393827324538D+03 -.000000000000000D+00 -.000000000000000D+00 -.838393827324538D+03
 0.558953633777697D+03 -.168801299030854D+03 0.471093384675810D+03 0.215363202691357D+03
 0.380653056307440D+03 0.644372245936654D+02 -.394873331546523D+02 0.373075520348353D+03
 0.737180964563938D+03 0.104364074437189D+03 -.431606051521157D+03 -.588438723039709D+03
 0.000000000000000D+00 0.000000000000000D+00 0.000000000000000D+00 0.000000000000000D+00
 0.838393827324538D+03 0.000000000000000D+00 0.000000000000000D+00 0.838393827324538D+03
 0.838393827324538D+03 -.000000000000000D+00 -.000000000000000D+00 -.838393827324538D+03
 0.552962920627541D+03 -.167793923993860D+03 0.466927303919931D+03 0.209683293358692D+03
 0.377285252393753D+03 0.651239021404128D+02 -.423271435608495D+02 0.369203808162650D+03
 0.735844955202910D+03 0.103256058822168D+03 -.431490481771007D+03 -.587045099251420D+03
 0.106945264248723D+02 -.586036968720340D+00 0.689032141192510D+01 0.815799773007766D+01
0.253173489569D-03 0.000000000000D+00 0.000000000000D+00 0.355128378847D-05 0.000000000000D+00  6 -1 4 25 -1 4 21 0 0.60368112D-01 0.27558898D+00 0.26802196D+06 0.26802196D+06 0.26802196D+06 0.10881922D+01  1  2  2  4  6  5        4 0.701031418068D-05 0.100000000000D+01
0.546589716895D-04 0.000000000000D+00 -.972252862054D-06 0.355128378847D-05 0.000000000000D+00  6 -1 4 25 -1 4 21 2 0.60368112D-01 0.27558898D+00 0.26802196D+06 0.26802196D+06 0.26802196D+06 0.10881922D+01  1  2  3  4  6  5        4 0.179222235063D-05 0.100000000000D+01
-.161455486452D-03 0.000000000000D+00 0.000000000000D+00 0.355128378847D-05 0.000000000000D+00  6 -1 4 25 -1 4 21 2 0.60368112D-01 0.27558898D+00 0.26802196D+06 0.26802196D+06 0.26802196D+06 0.10881922D+01  1  2 15  4  6  5        4 -.529399149867D-05 0.100000000000D+01
-.252615983319D-04 0.000000000000D+00 0.000000000000D+00 0.355128378847D-05 0.000000000000D+00  6 -1 4 25 -1 4 21 2 0.60368112D-01 0.27558898D+00 0.26802196D+06 0.26802196D+06 0.26802196D+06 0.10881922D+01  1  2  4  4  6  5        4 -.828306858757D-06 0.100000000000D+01
0.868686435322D-07 0.000000000000D+00 0.000000000000D+00 0.355128378847D-05 0.000000000000D+00  6 -1 4 25 -1 4 21 2 0.60368112D-01 0.27558898D+00 0.26802196D+06 0.26802196D+06 0.26802196D+06 0.10881922D+01  1  2  5  4  6  5        4 0.284835077746D-08 0.100000000000D+01
-.881380158046D-07 0.000000000000D+00 0.000000000000D+00 0.355128378847D-05 0.000000000000D+00  6 -1 4 25 -1 4 21 2 0.60368112D-01 0.27558898D+00 0.26802196D+06 0.26802196D+06 0.26802196D+06 0.10881922D+01  1  2  6  4  6  5        4 -.288997244153D-08 0.100000000000D+01
0.203277104367D-04 0.000000000000D+00 0.000000000000D+00 0.355128378847D-05 0.240843949943D-07  6 -1 4 25 -1 4 21 2 0.60368112D-01 0.27558898D+00 0.27036032D+06 0.27036032D+06 0.27036032D+06 0.10879103D+01  1  2 11  4  6  5        4 0.665919766954D-06 0.100000000000D+01
  </mgrwgt>
  </event>
  <event>
  5     66 0.16232397E-05 0.33099472E+02 0.75467711E-02 0.91496149E-01
       -3 -1    0    0    0  501 0.00000000E+00 0.00000000E+00 0.10526930E+04 0.10526932E+04 0.50000000E+00 0.0000E+00 0.9000E+01
        2 -1    0    0  502    0 0.00000000E+00 0.00000000E+00 -.17800774E+04 0.17800774E+04 0.32000000E+00 0.0000E+00 0.9000E+01
       25  1    1    2    0    0 0.18037467E+03 0.59372109E+03 0.60190665E+03 0.87347374E+03 0.12500000E+03 0.0000E+00 0.9000E+01
       -3  1    1    2    0  501 0.26290105E+02 0.20172468E+02 0.25007456E+03 0.25226104E+03 0.50000000E+00 0.0000E+00 0.9000E+01
        2  1    1    2  502    0 -.20666477E+03 -.61389356E+03 -.15793655E+04 0.17070358E+04 0.32000000E+00 0.0000E+00 0.9000E+01
#aMCatNLO 1  0  0  2  5 0.16795733D+02 0.00000000D+00  -5  6  0 0.00000000D+00 0.00000000D+00 0.00000000D+00 0.00000000D+00 0.00000000D+00
  <mgrwgt>
 0.1795314096D-02    9    2    0
 0.136889565191888D+04 0.000000000000000D+00 0.000000000000000D+00 0.136889565191888D+04
 0.136889565191888D+04 0.000000000000000D+00 0.000000000000000D+00 -.136889565191888D+04
 0.106404774815521D+04 0.180439689891580D+03 0.593853791060694D+03 0.855191091808635D+03
 0.327076205642464D+03 0.262598846329465D+02 0.201492800375374D+02 0.325397094748101D+03
 0.134666735004009D+04 -.206699574524527D+03 -.614003071098232D+03 -.118058818655674D+04
 0.000000000000000D+00 0.000000000000000D+00 0.000000000000000D+00 -.000000000000000D+00
 0.137134998503708D+04 0.000000000000000D+00 0.000000000000000D+00 0.137134998503708D+04
 0.139796074357945D+04 0.000000000000000D+00 0.000000000000000D+00 -.139796074357945D+04
 0.106111717409515D+04 0.175028916869145D+03 0.590218376459465D+03 0.855191091808635D+03
 0.326879703873614D+03 0.245948811520285D+02 0.190305899833568D+02 0.325397094748101D+03
 0.134984594440487D+04 -.213565028229066D+03 -.618615863122228D+03 -.118058818655674D+04
 0.314679062429053D+02 0.139412302078930D+02 0.936689667940666D+01 -.266107585423665D+02
0.156189377970D-02 0.000000000000D+00 0.000000000000D+00 0.129793621018D-04 0.000000000000D+00  6 -3 2 25 -3 2 21 0 0.16195279D+00 0.27385807D+00 0.43170471D+06 0.43170471D+06 0.43170471D+06 0.10730477D+01  1  2  2  2  6  2        2 0.216272333200D-03 0.100000000000D+01
0.555385946548D-03 0.000000000000D+00 -.599808337013D-05 0.129793621018D-04 0.000000000000D+00  6 -3 2 25 -3 2 21 2 0.16195279D+00 0.27385807D+00 0.43170471D+06 0.43170471D+06 0.43170471D+06 0.10730477D+01  1  2  3  2  6  2        2 0.885487384557D-04 0.100000000000D+01
-.106397184050D-02 0.000000000000D+00 0.000000000000D+00 0.129793621018D-04 0.000000000000D+00  6 -3 2 25 -3 2 21 2 0.16195279D+00 0.27385807D+00 0.43170471D+06 0.43170471D+06 0.43170471D+06 0.10730477D+01  1  2 15  2  6  2        2 -.169635844792D-03 0.100000000000D+01
0.418115390721D-02 0.000000000000D+00 0.000000000000D+00 0.129793621018D-04 0.000000000000D+00  6 -3 2 25 -3 2 21 2 0.16195279D+00 0.28369904D+00 0.44257263D+06 0.44257263D+06 0.44257263D+06 0.10722754D+01  1  2 12  2  6  2        2 0.612883760184D-03 0.100000000000D+01
-.120816960981D-02 0.000000000000D+00 0.000000000000D+00 0.129793621018D-04 0.000000000000D+00  6 -3 2 25 -3 2 21 2 0.16195279D+00 0.27385807D+00 0.43170471D+06 0.43170471D+06 0.43170471D+06 0.10730477D+01  1  2  4  2  6  2        2 -.192626218676D-03 0.100000000000D+01
-.157935702894D+00 0.000000000000D+00 -.133113411138D-01 0.129793621018D-04 0.000000000000D+00  6 -3 2 25 -3 2 21 2 0.16195279D+00 0.27986443D+00 0.43170471D+06 0.43170471D+06 0.43170471D+06 0.10730477D+01  1  2  5  2  6  2        2 -.239704832100D-01 0.100000000000D+01
0.158190398227D+00 0.000000000000D+00 0.133082089927D-01 0.129793621018D-04 0.000000000000D+00  6 -3 2 25 -3 2 21 2 0.16195279D+00 0.27385807D+00 0.43170471D+06 0.43170471D+06 0.43170471D+06 0.10730477D+01  1  2  6  2  6  2        2 0.252213083278D-01 0.100000000000D+01
0.336370230168D-03 0.000000000000D+00 0.000000000000D+00 0.129793621018D-04 0.000000000000D+00  6 -3 21 25 -3 2 -2 2 0.16195279D+00 0.28369904D+00 0.44257263D+06 0.44257263D+06 0.44257263D+06 0.10722754D+01  1  2 12  6  6  2        2 0.113663749976D-04 0.100000000000D+01
-.619769648925D-03 0.000000000000D+00 -.524289270605D-04 0.129793621018D-04 0.000000000000D+00  6 -3 21 25 -3 2 -2 2 0.16195279D+00 0.27986443D+00 0.43170471D+06 0.43170471D+06 0.43170471D+06 0.10730477D+01  1  2  5  6  6  2        2 -.223201647801D-04 0.100000000000D+01
  </mgrwgt>
  </event>
  <event>
  5     66 0.16232397E-05 0.27755253E+02 0.75467711E-02 0.94822867E-01
       -3 -1    0    0    0  501 0.00000000E+00 0.00000000E+00 0.25186716E+03 0.25186765E+03 0.50000000E+00 0.0000E+00 0.9000E+01
        2 -1    0    0  502    0 0.00000000E+00 0.00000000E+00 -.29334441E+04 0.29334442E+04 0.32000000E+00 0.0000E+00 0.9000E+01
       25  1    1    2    0    0 0.46252798E+03 -.52727523E+02 -.36178807E+03 0.60268394E+03 0.12500000E+03 0.0000E+00 0.9000E+01
       -3  1    1    2    0  501 0.94827191E+01 0.26106806E+02 0.10683134E+03 0.11038421E+03 0.50000000E+00 0.0000E+00 0.9000E+01
        2  1    1    2  502    0 -.47201070E+03 0.26620718E+02 -.24266203E+04 0.24722437E+04 0.32000000E+00 0.0000E+00 0.9000E+01
#aMCatNLO 1  0  0  2  5 0.14098998D+03 0.00000000D+00  -5  6  0 0.00000000D+00 0.00000000D+00 0.00000000D+00 0.00000000D+00 0.00000000D+00
  <mgrwgt>
 0.6742091565D-03    3    2    0
 0.859557475137324D+03 0.000000000000000D+00 0.000000000000000D+00 0.859557475137324D+03
 0.859557475137324D+03 0.000000000000000D+00 0.000000000000000D+00 -.859557475137324D+03
 0.552590258805270D+03 0.462667807625460D+03 -.527201397615443D+02 0.269981630443719D+03
 0.370897370994076D+03 0.947575227106197D+01 0.260876255336784D+02 0.369857412692012D+03
 0.795627320475301D+03 -.472143559896522D+03 0.266325142278659D+02 -.639839043135732D+03
 0.000000000000000D+00 0.000000000000000D+00 0.000000000000000D+00 0.000000000000000D+00
 0.166301414438269D+04 0.000000000000000D+00 0.000000000000000D+00 0.166301414438269D+04
 0.894720418898927D+03 0.000000000000000D+00 0.000000000000000D+00 -.894720418898927D+03
 0.500352449904413D+03 0.390625807854287D+03 -.961715736924601D+02 0.269981630443719D+03
 0.372191637847659D+03 -.413661575138868D+02 -.457717959332003D+01 0.369857412692012D+03
 0.868662210140221D+03 -.586013711607528D+03 -.420471641471081D+02 -.639839043135732D+03
 0.816528265389329D+03 0.236754061267127D+03 0.142795917432888D+03 0.768293725483768D+03
0.770016678500D-03 0.000000000000D+00 0.000000000000D+00 0.151146413409D-04 0.000000000000D+00  6 -3 2 25 -3 2 21 0 0.38748833D-01 0.45129914D+00 0.24147226D+06 0.24147226D+06 0.24147226D+06 0.10915948D+01  1  2  2  2  6  2        2 0.864084562024D-03 0.100000000000D+01
0.374902481119D-03 0.000000000000D+00 -.295706679549D-05 0.151146413409D-04 0.000000000000D+00  6 -3 2 25 -3 2 21 2 0.38748833D-01 0.45129914D+00 0.24147226D+06 0.24147226D+06 0.24147226D+06 0.10915948D+01  1  2  3  2  6  2        2 0.501299621503D-03 0.100000000000D+01
-.516902908769D-03 0.000000000000D+00 0.000000000000D+00 0.151146413409D-04 0.000000000000D+00  6 -3 2 25 -3 2 21 2 0.38748833D-01 0.45129914D+00 0.24147226D+06 0.24147226D+06 0.24147226D+06 0.10915948D+01  1  2 15  2  6  2        2 -.691175027026D-03 0.100000000000D+01
  </mgrwgt>
  </event>
  <event>
  5     66 -.16232397E-05 0.57881793E+02 0.75467711E-02 0.90549809E-01
       -3 -1    0    0    0  501 0.00000000E+00 0.00000000E+00 0.74272236E+03 0.74272253E+03 0.50000000E+00 0.0000E+00 0.9000E+01
        2 -1    0    0  502    0 -.00000000E+00 -.00000000E+00 -.17772316E+04 0.17772316E+04 0.32000000E+00 0.0000E+00 0.9000E+01
       25  1    1    2    0    0 0.43071235E+03 0.58024191E+03 -.53533469E+03 0.90796587E+03 0.12500000E+03 0.0000E+00 0.9000E+01
       -3  1    1    2    0  501 -.40121245E+03 -.53045445E+03 0.35632490E+03 0.75453366E+03 0.50000000E+00 0.0000E+00 0.9000E+01
        2  1    1    2  502    0 -.29499899E+02 -.49787457E+02 -.85549941E+03 0.85745459E+03 0.32000000E+00 0.0000E+00 0.9000E+01
#aMCatNLO 1  0  0  5  2 0.64745827D+01 0.00000000D+00  -5  6  0 0.00000000D+00 0.00000000D+00 0.00000000D+00 0.00000000D+00 0.00000000D+00
  <mgrwgt>
 -.2050394553D-04    1    2    0
 0.114890812118213D+04 0.000000000000000D+00 0.000000000000000D+00 0.114890812118213D+04
 0.114890812118213D+04 -.000000000000000D+00 -.000000000000000D+00 -.114890812118213D+04
 0.754666425400692D+03 0.430696198091167D+03 0.580222435256292D+03 -.178154775973394D+03
 0.987845694428238D+03 -.401190635210065D+03 -.530425610700324D+03 0.730434022847608D+03
 0.555304122535333D+03 -.295055628811022D+02 -.497968245559673D+02 -.552279246874213D+03
 0.000000000000000D+00 0.000000000000000D+00 0.000000000000000D+00 0.000000000000000D+00
 0.114890812118213D+04 0.000000000000000D+00 0.000000000000000D+00 0.114890812118213D+04
 0.114890812118213D+04 -.000000000000000D+00 -.000000000000000D+00 -.114890812118213D+04
 0.765956872248628D+03 0.427298467273533D+03 0.574488052011481D+03 -.241752824402622D+03
 0.935942336306551D+03 -.405489210596044D+03 -.537680358057587D+03 0.649974145285969D+03
 0.354130150077127D+03 -.171922353124986D+03 -.160599856229321D+03 -.264685764386257D+03
 0.241786883731956D+03 0.150113096447497D+03 0.123792162275427D+03 -.143535556497090D+03
-.440631501592D-04 0.000000000000D+00 0.000000000000D+00 0.445164901364D-05 0.000000000000D+00  6 -3 2 25 -3 2 21 2 0.11426499D+00 0.27342025D+00 0.53018680D+06 0.53018680D+06 0.53018680D+06 0.10667157D+01  1  2 14  4  6  5        2 -.205039455315D-04 0.100000000000D+01
  </mgrwgt>
  </event>
  <event>
  6     66 -.16232397E-05 0.40294014E+02 0.75467711E-02 0.92244889E-01
       -3 -1    0    0    0  503 0.00000000E+00 0.00000000E+00 0.18116393E+03 0.18116462E+03 0.50000000E+00 0.0000E+00 0.9000E+01
        2 -1    0    0  502    0 0.00000000E+00 0.00000000E+00 -.24977219E+04 0.24977219E+04 0.32000000E+00 0.0000E+00 0.9000E+01
       25  1    1    2    0    0 -.52522955E+03 0.22119079E+03 -.94464564E+03 0.11103026E+04 0.12500000E+03 0.0000E+00 0.9000E+01
       -3  1    1    2    0  501 -.45787557E+02 -.59955274E+01 -.21493367E+01 0.46231119E+02 0.50000000E+00 0.0000E+00 0.9000E+01
        2  1    1    2  502    0 0.55977073E+03 -.21374594E+03 -.13816035E+04 0.15059412E+04 0.32000000E+00 0.0000E+00 0.9000E+01
       21  1    1    2  501  503 0.11246376E+02 -.14493238E+01 0.11840503E+02 0.16411628E+02 0.75000000E+00 0.0000E+00 0.9000E+01
#aMCatNLO 2  0  0  1  4 0.11339378D+02 0.00000000D+00  -5  6  0 0.00000000D+00 0.00000000D+00 0.00000000D+00 0.00000000D+00 0.00000000D+00
  <mgrwgt>
 -.1576825077D-03    5    2    0
 0.645601392668223D+03 0.000000000000000D+00 0.000000000000000D+00 0.645601392668223D+03
 0.645601392668223D+03 0.000000000000000D+00 0.000000000000000D+00 -.645601392668223D+03
 0.581508124508846D+03 -.520478979114900D+03 0.220604626927010D+03 0.544236138794696D+02
 0.906364055985836D+02 -.447835422994891D+02 -.606960338839331D+01 0.785655921739817D+02
 0.619058255229017D+03 0.565262521414389D+03 -.214535023538616D+03 -.132989206053451D+03
 0.000000000000000D+00 0.000000000000000D+00 -.000000000000000D+00 0.000000000000000D+00
 0.700222764909397D+03 0.000000000000000D+00 0.000000000000000D+00 0.700222764909397D+03
 0.646215069015494D+03 0.000000000000000D+00 0.000000000000000D+00 -.646215069015494D+03
 0.586311539783934D+03 -.525564735419137D+03 0.221260029874170D+03 0.544236138794696D+02
 0.910231523962222D+02 -.455746543783018D+02 -.596765253645106D+01 0.785655921739817D+02
 0.613917883563772D+03 0.559893014150067D+03 -.213843053519742D+03 -.132989206053451D+03
 0.551852581809624D+02 0.112463756473714D+02 -.144932381797658D+01 0.540076958939032D+02
-.722753676866D-04 0.000000000000D+00 0.000000000000D+00 0.368361603031D-07 0.000000000000D+00  6 -3 2 25 -3 2 21 2 0.29169190D-01 0.38389853D+00 0.38466278D+06 0.38466278D+06 0.38466278D+06 0.10766538D+01  1  2 13  1  6  1       -3 -.291620390573D-03 0.100000000000D+01
-.295131161545D-05 0.000000000000D+00 0.000000000000D+00 0.368361603031D-07 0.000000000000D+00  6 -3 2 25 -3 2 21 2 0.25697197D-01 0.38389853D+00 0.37745883D+06 0.37745883D+06 0.37745883D+06 0.10772483D+01  1  2  8  1  6  1       -3 -.151336849353D-04 0.100000000000D+01
-.780205910360D-05 0.000000000000D+00 0.000000000000D+00 0.368361603031D-07 0.000000000000D+00  6 -3 2 25 -3 2 21 2 0.27885173D-01 0.38389853D+00 0.37745883D+06 0.37745883D+06 0.37745883D+06 0.10772483D+01  1  2  9  1  6  1       -3 -.343412915138D-04 0.100000000000D+01
0.777608400353D-05 0.000000000000D+00 0.000000000000D+00 0.368361603031D-07 0.000000000000D+00  6 -3 2 25 -3 2 21 2 0.25697197D-01 0.38389853D+00 0.37745883D+06 0.37745883D+06 0.37745883D+06 0.10772483D+01  1  2 10  1  6  1       -3 0.398740697946D-04 0.100000000000D+01
0.327477757249D-04 0.000000000000D+00 0.000000000000D+00 0.368361603031D-07 0.687326993671D-09  6 -3 2 25 -3 2 21 2 0.27871319D-01 0.38426345D+00 0.38466278D+06 0.38466278D+06 0.38466278D+06 0.10766538D+01  1  2  1  1  6  1       -3 0.143538789506D-03 0.100000000000D+01
  </mgrwgt>
  </event>
  <event>
  6     66 0.16232397E-05 0.50191106E+02 0.75467711E-02 0.94123782E-01
       -3 -1    0    0    0  501 0.00000000E+00 0.00000000E+00 0.12432046E+04 0.12432047E+04 0.50000000E+00 0.0000E+00 0.9000E+01
        2 -1    0    0  502    0 0.00000000E+00 0.00000000E+00 -.87251310E+03 0.87251316E+03 0.32000000E+00 0.0000E+00 0.9000E+01
       25  1    1    2    0    0 0.47680963E+03 -.19680192E+02 0.87712245E+03 0.10063317E+04 0.12500000E+03 0.0000E+00 0.9000E+01
       -3  1    1    2    0  503 -.17087528E+02 0.61441828E+02 0.77449144E+02 0.10032797E+03 0.50000000E+00 0.0000E+00 0.9000E+01
        2  1    1    2  502    0 -.45783768E+03 -.67312507E+02 -.72802563E+03 0.86265157E+03 0.32000000E+00 0.0000E+00 0.9000E+01
       21  1    1    2  503  501 -.18844166E+01 0.25550871E+02 0.14414552E+03 0.14640660E+03 0.75000000E+00 0.0000E+00 0.9000E+01
#aMCatNLO 2  0  0  4  1 0.30314264D+02 0.00000000D+00  -5  6  0 0.00000000D+00 0.00000000D+00 0.00000000D+00 0.00000000D+00 0.00000000D+00
  <mgrwgt>
 0.1119335923D-03    2    2    0
 0.104149530346544D+04 0.000000000000000D+00 0.000000000000000D+00 0.104149530346544D+04
 0.104149530346544D+04 -.000000000000000D+00 -.000000000000000D+00 -.104149530346544D+04
 0.864278970030221D+03 0.477363349935031D+03 -.209126456551784D+02 0.709253150452647D+03
 0.209258949732977D+03 -.196669230858968D+02 0.901794090852743D+02 0.187803605813927D+03
 0.100945268716768D+04 -.457696426849134D+03 -.692667634300959D+02 -.897056756266574D+03
 0.000000000000000D+00 0.000000000000000D+00 0.000000000000000D+00 0.000000000000000D+00
 0.104149530346544D+04 0.000000000000000D+00 0.000000000000000D+00 0.104149530346544D+04
 0.104149530346544D+04 -.000000000000000D+00 -.000000000000000D+00 -.104149530346544D+04
 0.866877439628115D+03 0.477001746957058D+03 -.192545752628416D+02 0.712706173726283D+03
 0.870707311962662D+02 -.169228568147156D+02 0.608086633753392D+02 0.599769589658041D+02
 0.100594256448102D+04 -.458117401476686D+03 -.673364542003976D+02 -.893036780560917D+03
 0.123099871625483D+03 -.196148866565665D+01 0.257823660878999D+02 0.120353647868830D+03
-.327716183182D-03 0.000000000000D+00 0.000000000000D+00 0.743440831677D-06 0.000000000000D+00  6 -3 2 25 -3 2 21 2 0.19126226D+00 0.13423280D+00 0.27326759D+06 0.27326759D+06 0.27326759D+06 0.10875635D+01  1  2 13  3  6  4       -3 -.964686407929D-04 0.100000000000D+01
0.707968764112D-03 0.000000000000D+00 0.000000000000D+00 0.743440831677D-06 0.394289840416D-08  6 -3 2 25 -3 2 21 2 0.19126226D+00 0.13423280D+00 0.27326759D+06 0.27326759D+06 0.27326759D+06 0.10875635D+01  1  2  1  3  6  4       -3 0.208402233099D-03 0.100000000000D+01
  </mgrwgt>
  </event>
  <event>
  5     66 -.16232397E-05 0.28567751E+02 0.75467711E-02 0.92297823E-01
       -3 -1    0    0    0  501 0.00000000E+00 0.00000000E+00 0.33051495E+03 0.33051533E+03 0.50000000E+00 0.0000E+00 0.9000E+01
        2 -1    0    0  502    0 -.00000000E+00 -.00000000E+00 -.24350697E+04 0.24350697E+04 0.32000000E+00 0.0000E+00 0.9000E+01
       25  1    1    2    0    0 0.25058808E+03 0.54797021E+03 -.59626500E+03 0.85686795E+03 0.12500000E+03 0.0000E+00 0.9000E+01
       -3  1    1    2    0  501 -.21379088E+02 -.18975729E+02 0.15019181E+03 0.15288877E+03 0.50000000E+00 0.0000E+00 0.9000E+01
        2  1    1    2  502    0 -.22920899E+03 -.52899448E+03 -.16584816E+04 0.17558284E+04 0.32000000E+00 0.0000E+00 0.9000E+01
#aMCatNLO 1  0  0  5  2 0.21010049D+03 0.00000000D+00  -5  6  0 0.00000000D+00 0.00000000D+00 0.00000000D+00 0.00000000D+00 0.00000000D+00
  <mgrwgt>
 -.3826967176D-03    6    2    0
 0.897121787407218D+03 0.000000000000000D+00 0.000000000000000D+00 0.897121787407218D+03
 0.897121787407218D+03 -.000000000000000D+00 -.000000000000000D+00 -.897121787407218D+03
 0.621529311288025D+03 0.250642167033074D+03 0.548106729887019D+03 0.862044172168111D+02
 0.411565438788894D+03 -.213656452107360D+02 -.189637975672744D+02 0.410572763334407D+03
 0.761148824737518D+03 -.229276521822338D+03 -.529142932319745D+03 -.496777180551218D+03
 0.000000000000000D+00 0.000000000000000D+00 0.000000000000000D+00 -.000000000000000D+00
 0.897121787407218D+03 0.000000000000000D+00 0.000000000000000D+00 0.897121787407218D+03
 0.897121787407218D+03 -.000000000000000D+00 -.000000000000000D+00 -.897121787407218D+03
 0.616078538131853D+03 0.248647983481996D+03 0.543504391525402D+03 0.818835871809568D+02
 0.408931968081511D+03 -.226877299351098D+02 -.220150118053044D+02 0.407708180791877D+03
 0.579245822677222D+03 -.242355685402098D+03 -.386935806039354D+03 -.356468970384473D+03
 0.189987245923851D+03 0.163954318552121D+02 -.134553573680743D+03 -.133122797588361D+03
0.529614609190D-04 0.000000000000D+00 0.000000000000D+00 0.521600601600D-05 0.000000000000D+00  6 -3 2 25 -3 2 21 0 0.50848485D-01 0.37462614D+00 0.37256985D+06 0.37256985D+06 0.37256985D+06 0.10776588D+01  1  2  2  4  6  5        2 0.659305633106D-04 0.100000000000D+01
0.306227671518D-04 0.000000000000D+00 -.203385955002D-06 0.521600601600D-05 0.000000000000D+00  6 -3 2 25 -3 2 21 2 0.50848485D-01 0.37462614D+00 0.37256985D+06 0.37256985D+06 0.37256985D+06 0.10776588D+01  1  2  3  4  6  5        2 0.442724787818D-04 0.100000000000D+01
-.354708099388D-04 0.000000000000D+00 0.000000000000D+00 0.521600601600D-05 0.000000000000D+00  6 -3 2 25 -3 2 21 2 0.50848485D-01 0.37462614D+00 0.37256985D+06 0.37256985D+06 0.37256985D+06 0.10776588D+01  1  2 15  4  6  5        2 -.512814754005D-04 0.100000000000D+01
-.406923681936D-03 0.000000000000D+00 0.000000000000D+00 0.521600601600D-05 0.000000000000D+00  6 -3 2 25 -3 2 21 2 0.50848485D-01 0.37462614D+00 0.37256985D+06 0.37256985D+06 0.37256985D+06 0.10776588D+01  1  2  4  4  6  5        2 -.588304772885D-03 0.100000000000D+01
-.362989735656D-03 0.000000000000D+00 0.000000000000D+00 0.521600601600D-05 0.000000000000D+00  6 -3 2 25 -3 2 21 2 0.50848485D-01 0.37462614D+00 0.37256985D+06 0.37256985D+06 0.37256985D+06 0.10776588D+01  1  2  5  4  6  5        2 -.524787825026D-03 0.100000000000D+01
0.464451101877D-03 0.000000000000D+00 -.000000000000D+00 0.521600601600D-05 0.000000000000D+00  6 -3 2 25 -3 2 21 2 0.50848485D-01 0.37462614D+00 0.37256985D+06 0.37256985D+06 0.37256985D+06 0.10776588D+01  1  2  6  4  6  5        2 0.671474313577D-03 0.100000000000D+01
  </mgrwgt>
  </event>
  <event>
  5     66 0.16232397E-05 0.41608215E+02 0.75467711E-02 0.94134835E-01
       -3 -1    0    0    0  501 0.00000000E+00 0.00000000E+00 0.11801049E+03 0.11801155E+03 0.50000000E+00 0.0000E+00 0.9000E+01
        2 -1    0    0  502    0 0.00000000E+00 0.00000000E+00 -.32467126E+04 0.32467127E+04 0.32000000E+00 0.0000E+00 0.9000E+01
       25  1    1    2    0    0 0.45315288E+03 -.19710866E+03 -.17212078E+04 0.17950990E+04 0.12500000E+03 0.0000E+00 0.9000E+01
       -3  1    1    2    0  501 -.42194887E+03 0.16960080E+03 -.56126437E+03 0.72237333E+03 0.50000000E+00 0.0000E+00 0.9000E+01
        2  1    1    2  502    0 -.31204009E+02 0.27507862E+02 -.84623002E+03 0.84725186E+03 0.32000000E+00 0.0000E+00 0.9000E+01
#aMCatNLO 1  0  0  2  2 0.33224650D+02 0.00000000D+00  -5  6  0 0.00000000D+00 0.00000000D+00 0.00000000D+00 0.00000000D+00 0.00000000D+00
  <mgrwgt>
 0.1801205183D-02    7    2    0
 0.618989477609675D+03 0.000000000000000D+00 0.000000000000000D+00 0.618989477609675D+03
 0.618989477609675D+03 0.000000000000000D+00 0.000000000000000D+00 -.618989477609675D+03
 0.528950455432209D+03 0.453140629635211D+03 -.197106931785825D+03 -.141336518698192D+03
 0.544859801282412D+03 -.421928396092087D+03 0.169592571459472D+03 0.300144950532959D+03
 0.164168698504729D+03 -.312122335431234D+02 0.275143603263531D+02 -.158808431834767D+03
 0.000000000000000D+00 0.000000000000000D+00 -.000000000000000D+00 -.000000000000000D+00
 0.624659963636502D+03 0.000000000000000D+00 0.000000000000000D+00 0.624659963636502D+03
 0.669871177357188D+03 0.000000000000000D+00 0.000000000000000D+00 -.669871177357188D+03
 0.516128483885351D+03 0.439445114853339D+03 -.194102012847891D+03 -.141336518698192D+03
 0.557091960914398D+03 -.436369215900331D+03 0.172761017013524D+03 0.300144950532959D+03
 0.165204268668750D+03 -.355285891512643D+02 0.284614075105106D+02 -.158808431834767D+03
 0.561064275251897D+02 0.324526901982568D+02 -.712041167614365D+01 -.452112137206862D+02
0.982579270709D-04 0.000000000000D+00 0.000000000000D+00 0.706676854014D-06 0.000000000000D+00  6 -3 2 25 -3 2 21 0 0.18155543D-01 0.49949434D+00 0.25304057D+06 0.25304057D+06 0.25304057D+06 0.10900644D+01  1  2  2  2  6  2        2 0.284071143092D-03 0.100000000000D+01
0.262366643356D-04 0.000000000000D+00 -.377336311858D-06 0.706676854014D-06 0.000000000000D+00  6 -3 2 25 -3 2 21 2 0.18155543D-01 0.49949434D+00 0.25304057D+06 0.25304057D+06 0.25304057D+06 0.10900644D+01  1  2  3  2  6  2        2 0.901306330656D-04 0.100000000000D+01
-.645024477530D-04 0.000000000000D+00 0.000000000000D+00 0.706676854014D-06 0.000000000000D+00  6 -3 2 25 -3 2 21 2 0.18155543D-01 0.49949434D+00 0.25304057D+06 0.25304057D+06 0.25304057D+06 0.10900644D+01  1  2 15  2  6  2        2 -.221584816419D-03 0.100000000000D+01
-.205919189687D-04 0.000000000000D+00 0.000000000000D+00 0.706676854014D-06 0.000000000000D+00  6 -3 2 25 -3 2 21 2 0.18155543D-01 0.49949434D+00 0.25304057D+06 0.25304057D+06 0.25304057D+06 0.10900644D+01  1  2  4  2  6  2        2 -.707392780172D-04 0.100000000000D+01
-.139533451595D-02 0.000000000000D+00 -.159502483851D-03 0.706676854014D-06 0.000000000000D+00  6 -3 2 25 -3 2 21 2 0.18155543D-01 0.54169305D+00 0.25304057D+06 0.25304057D+06 0.25304057D+06 0.10900644D+01  1  2  5  2  6  2        2 -.310299710126D-02 0.100000000000D+01
0.140417316129D-02 0.000000000000D+00 0.158979335117D-03 0.706676854014D-06 0.000000000000D+00  6 -3 2 25 -3 2 21 2 0.18155543D-01 0.49949434D+00 0.25304057D+06 0.25304057D+06 0.25304057D+06 0.10900644D+01  1  2  6  2  6  2        2 0.482374643141D-02 0.100000000000D+01
-.185106220899D-04 0.000000000000D+00 -.215652185490D-05 0.706676854014D-06 0.000000000000D+00  6 -3 21 25 -3 2 -2 2 0.18155543D-01 0.54169305D+00 0.25304057D+06 0.25304057D+06 0.25304057D+06 0.10900644D+01  1  2  5  6  6  2        2 -.142182865288D-05 0.100000000000D+01
  </mgrwgt>
  </event>
  <event>
  5     66 -.16232397E-05 0.25703320E+02 0.75467711E-02 0.95292257E-01
       -3 -1    0    0    0  501 0.00000000E+00 0.00000000E+00 0.58951428E+03 0.58951449E+03 0.50000000E+00 0.0000E+00 0.9000E+01
        2 -1    0    0  502    0 -.00000000E+00 -.00000000E+00 -.87915684E+03 0.87915690E+03 0.32000000E+00 0.0000E+00 0.9000E+01
       25  1    1    2    0    0 -.20051196E+03 -.41735019E+03 -.20406452E+03 0.52120394E+03 0.12500000E+03 0.0000E+00 0.9000E+01
       -3  1    1    2    0  501 0.19498393E+03 0.39225513E+03 0.31911639E+03 0.54195788E+03 0.50000000E+00 0.0000E+00 0.9000E+01
        2  1    1    2  502    0 0.55280316E+01 0.25095053E+02 -.40469443E+03 0.40550957E+03 0.32000000E+00 0.0000E+00 0.9000E+01
#aMCatNLO 1  0  0  5  2 0.43218687D+00 0.00000000D+00  -5  6  0 0.00000000D+00 0.00000000D+00 0.00000000D+00 0.00000000D+00 0.00000000D+00
  <mgrwgt>
 -.3671040182D-02    7    2    0
 0.719913680951217D+03 0.000000000000000D+00 0.000000000000000D+00 0.719913680951217D+03
 0.719913680951217D+03 -.000000000000000D+00 -.000000000000000D+00 -.719913680951217D+03
 0.490544851344015D+03 -.200499559215766D+03 -.417328582004367D+03 -.103179613183174D+03
 0.616965585659175D+03 0.194969991512996D+03 0.392227096975559D+03 0.434501024964633D+03
 0.332316924899245D+03 0.552956770277000D+01 0.251014850288078D+02 -.331321411781459D+03
 0.000000000000000D+00 0.000000000000000D+00 0.000000000000000D+00 -.000000000000000D+00
 0.719913680951217D+03 0.000000000000000D+00 0.000000000000000D+00 0.719913680951217D+03
 0.719913680951217D+03 -.000000000000000D+00 -.000000000000000D+00 -.719913680951217D+03
 0.490545068248128D+03 -.200499533184339D+03 -.417328463834643D+03 -.103181172937895D+03
 0.616964308938747D+03 0.194970024253070D+03 0.392227245599199D+03 0.434499063240289D+03
 0.310551774882513D+03 0.547341925150875D+01 0.237613248344648D+02 -.309593032877821D+03
 0.217662098330466D+02 0.560896797595770D-01 0.133989340097900D+01 -.217248574245737D+02
0.776858817548D-06 0.000000000000D+00 0.000000000000D+00 0.770571499210D-05 0.000000000000D+00  6 -3 2 25 -3 2 21 0 0.90694525D-01 0.13525492D+00 0.22244768D+06 0.22244768D+06 0.22244768D+06 0.10942948D+01  1  2  2  4  6  5        2 0.201004038355D-05 0.100000000000D+01
0.405960084216D-06 0.000000000000D+00 -.298334241101D-08 0.770571499210D-05 0.000000000000D+00  6 -3 2 25 -3 2 21 2 0.90694525D-01 0.13525492D+00 0.22244768D+06 0.22244768D+06 0.22244768D+06 0.10942948D+01  1  2  3  4  6  5        2 0.125780895924D-05 0.100000000000D+01
-.525492971850D-06 0.000000000000D+00 0.000000000000D+00 0.770571499210D-05 0.000000000000D+00  6 -3 2 25 -3 2 21 2 0.90694525D-01 0.13525492D+00 0.22244768D+06 0.22244768D+06 0.22244768D+06 0.10942948D+01  1  2 15  4  6  5        2 -.162816442727D-05 0.100000000000D+01
-.245075534382D-01 0.000000000000D+00 0.000000000000D+00 0.770571499210D-05 0.000000000000D+00  6 -3 2 25 -3 2 21 2 0.90694525D-01 0.13525492D+00 0.22244768D+06 0.22244768D+06 0.22244768D+06 0.10942948D+01  1  2  4  4  6  5        2 -.759331310696D-01 0.100000000000D+01
-.141981480299D-01 0.000000000000D+00 0.000000000000D+00 0.770571499210D-05 0.000000000000D+00  6 -3 2 25 -3 2 21 2 0.90694525D-01 0.13525492D+00 0.22244768D+06 0.22244768D+06 0.22244768D+06 0.10942948D+01  1  2  5  4  6  5        2 -.439909205144D-01 0.100000000000D+01
0.152378130606D-01 0.000000000000D+00 -.000000000000D+00 0.770571499210D-05 0.000000000000D+00  6 -3 2 25 -3 2 21 2 0.90694525D-01 0.13525492D+00 0.22244768D+06 0.22244768D+06 0.22244768D+06 0.10942948D+01  1  2  6  4  6  5        2 0.472121731473D-01 0.100000000000D+01
0.222826187628D-01 0.000000000000D+00 0.000000000000D+00 0.770571499210D-05 0.366098469161D-03  6 -3 2 25 -3 2 21 2 0.90694525D-01 0.13525492D+00 0.22245776D+06 0.22245776D+06 0.22245776D+06 0.10942933D+01  1  2 11  4  6  5        2 0.690391985701D-01 0.100000000000D+01
  </mgrwgt>
  </event>
  <event>
  6     66 -.16232397E-05 0.16705583E+03 0.75467711E-02 0.91571384E-01
       -3 -1    0    0    0  501 0.00000000E+00 0.00000000E+00 0.14297247E+04 0.14297248E+04 0.50000000E+00 0.0000E+00 0.9000E+01
        2 -1    0    0  503    0 0.00000000E+00 0.00000000E+00 -.12023516E+04 0.12023517E+04 0.32000000E+00 0.0000E+00 0.9000E+01
       25  1    1    2    0    0 -.54357229E+03 0.78228861E+02 0.22871290E+03 0.60788583E+03 0.12500000E+03 0.0000E+00 0.9000E+01
       -3  1    1    2    0  501 0.16006032E+03 -.16893678E+03 0.91951103E+03 0.94850394E+03 0.50000000E+00 0.0000E+00 0.9000E+01
        2  1    1    2  502    0 0.39177738E+03 -.40260856E+02 -.50988885E+03 0.64428037E+03 0.32000000E+00 0.0000E+00 0.9000E+01
       21  1    1    2  503  502 -.82654132E+01 0.13096878E+03 -.41096197E+03 0.43140636E+03 0.75000000E+00 0.0000E+00 0.9000E+01
#aMCatNLO 2  0  0  2  5 0.13122933D+03 0.00000000D+00  -5  6  0 0.00000000D+00 0.00000000D+00 0.00000000D+00 0.00000000D+00 0.00000000D+00
  <mgrwgt>
 -.3207064563D-03    2    2    0
 0.105098242831035D+04 0.000000000000000D+00 0.000000000000000D+00 0.105098242831035D+04
 0.105098242831035D+04 0.000000000000000D+00 0.000000000000000D+00 -.105098242831035D+04
 0.574058291873257D+03 -.545872907463531D+03 0.113683190967999D+03 0.549256174939031D+02
 0.702495350239063D+03 0.157246895931088D+03 -.124867978438522D+03 0.673187283590695D+03
 0.825411214508383D+03 0.388626011532442D+03 0.111847874705237D+02 -.728112901084598D+03
 0.000000000000000D+00 -.000000000000000D+00 0.000000000000000D+00 -.000000000000000D+00
 0.106061153395062D+04 0.000000000000000D+00 0.000000000000000D+00 0.106061153395062D+04
 0.162079253309673D+04 0.000000000000000D+00 0.000000000000000D+00 -.162079253309673D+04
 0.565946116973301D+03 -.543633706451243D+03 0.782021551503185D+02 0.549256174939031D+02
 0.712261663511287D+03 0.160025767058908D+03 -.168900303128371D+03 0.673187283590695D+03
 0.827849530355387D+03 0.391873352599500D+03 -.402706308149430D+02 -.728112901084598D+03
 0.575346756207379D+03 -.826541320716407D+01 0.130968778792995D+03 -.560180999146115D+03
-.703781456898D-02 0.000000000000D+00 0.000000000000D+00 0.158003496811D-05 0.000000000000D+00  6 -3 2 25 -3 2 21 2 0.21796066D+00 0.19805565D+00 0.43633387D+06 0.43633387D+06 0.43633387D+06 0.10727162D+01  1  2 13  2  6  2        2 -.573841806632D-03 0.100000000000D+01
0.291967581119D-02 0.000000000000D+00 0.000000000000D+00 0.158003496811D-05 0.236682552205D-09  6 -3 2 25 -3 2 21 2 0.21995761D+00 0.18497714D+00 0.43633387D+06 0.43633387D+06 0.43633387D+06 0.10727162D+01  1  2  1  2  6  2        2 0.253135350323D-03 0.100000000000D+01
  </mgrwgt>
  </event>
  <event>
  5     66 -.16232397E-05 0.57886757E+02 0.75467711E-02 0.89062008E-01
       -3 -1    0    0    0  501 0.00000000E+00 0.00000000E+00 0.50365719E+03 0.50365743E+03 0.50000000E+00 0.0000E+00 0.9000E+01
        2 -1    0    0  502    0 0.00000000E+00 0.00000000E+00 -.26275762E+04 0.26275762E+04 0.32000000E+00 0.0000E+00 0.9000E+01
       25  1    1    2    0    0 0.56136263E+03 -.54241731E+03 -.82869056E+03 0.11452937E+04 0.12500000E+03 0.0000E+00 0.9000E+01
       -3  1    1    2    0  501 -.59148352E+03 0.59183996E+03 -.16328719E+03 0.85251994E+03 0.50000000E+00 0.0000E+00 0.9000E+01
        2  1    1    2  502    0 0.30120889E+02 -.49422645E+02 -.11319413E+04 0.11334200E+04 0.32000000E+00 0.0000E+00 0.9000E+01
#aMCatNLO 1  0  0  2  5 0.13122933D+03 0.00000000D+00  -5  6  0 0.00000000D+00 0.00000000D+00 0.00000000D+00 0.00000000D+00 0.00000000D+00
  <mgrwgt>
 -.3789473229D-04    1    2    0
 0.115039039094606D+04 0.000000000000000D+00 0.000000000000000D+00 0.115039039094606D+04
 0.115039039094606D+04 0.000000000000000D+00 0.000000000000000D+00 -.115039039094606D+04
 0.793635944408018D+03 0.561332164644921D+03 -.542383618858595D+03 -.704217522169693D+02
 0.100945190541222D+04 -.591457411802100D+03 0.591813832931756D+03 0.564736811723254D+03
 0.497692932071876D+03 0.301252471571780D+02 -.494302140731609D+02 -.494315059506285D+03
 0.000000000000000D+00 0.000000000000000D+00 -.000000000000000D+00 -.000000000000000D+00
 0.120724466772114D+04 0.000000000000000D+00 0.000000000000000D+00 0.120724466772114D+04
 0.133721962333264D+04 0.000000000000000D+00 0.000000000000000D+00 -.133721962333264D+04
 0.731395914864670D+03 0.524989843001836D+03 -.488611733220076D+03 -.704217522169693D+02
 0.108316553233646D+04 -.641325600152513D+03 0.665598511503295D+03 0.564736811723254D+03
 0.494568472012446D+03 0.647912928627007D+01 -.144435569620207D+02 -.494315059506285D+03
 0.235334371840202D+03 0.109856627864407D+03 -.162543221321198D+03 -.129974955611501D+03
-.943037688391D-04 0.000000000000D+00 0.000000000000D+00 0.113451165276D-05 0.000000000000D+00  6 -3 2 25 -3 2 21 2 0.77485741D-01 0.40424251D+00 0.70988319D+06 0.70988319D+06 0.70988319D+06 0.10579160D+01  1  2 14  2  6  2        2 -.378947322896D-04 0.100000000000D+01
  </mgrwgt>
  </event>
  <event>
  6     66 -.16232397E-05 0.22192410E+02 0.75467711E-02 0.93043396E-01
       -3 -1    0    0    0  503 0.00000000E+00 0.00000000E+00 0.30722349E+03 0.30722390E+03 0.50000000E+00 0.0000E+00 0.9000E+01
        2 -1    0    0  502    0 0.00000000E+00 0.00000000E+00 -.22511325E+04 0.22511326E+04 0.32000000E+00 0.0000E+00 0.9000E+01
       25  1    1    2    0    0 0.20656605E+03 -.50419697E+03 -.10813949E+04 0.12173430E+04 0.12500000E+03 0.0000E+00 0.9000E+01
       -3  1    1    2    0  501 -.19085652E+03 0.50499066E+03 -.14778715E+03 0.55971695E+03 0.50000000E+00 0.0000E+00 0.9000E+01
        2  1    1    2  502    0 -.28643606E+02 0.15722356E+02 -.74430765E+03 0.74502458E+03 0.32000000E+00 0.0000E+00 0.9000E+01
       21  1    1    2  501  503 0.12934077E+02 -.16516041E+02 0.29580678E+02 0.36271876E+02 0.75000000E+00 0.0000E+00 0.9000E+01
#aMCatNLO 2  0  0  1  4 0.20977845D+02 0.00000000D+00  -5  6  0 0.00000000D+00 0.00000000D+00 0.00000000D+00 0.00000000D+00 0.00000000D+00
  <mgrwgt>
 -.4812173523D-03    2    2    0
 0.785144712346492D+03 0.000000000000000D+00 0.000000000000000D+00 0.785144712346492D+03
 0.785144712346492D+03 0.000000000000000D+00 0.000000000000000D+00 -.785144712346492D+03
 0.603109670055869D+03 0.211503296420619D+03 -.510489293839059D+03 -.206841269078029D+03
 0.706334700636876D+03 -.185004274466257D+03 0.497508769298494D+03 0.466011965752058D+03
 0.260845054000238D+03 -.264990219543616D+02 0.129805245405649D+02 -.259170696674029D+03
 0.000000000000000D+00 0.000000000000000D+00 -.000000000000000D+00 0.000000000000000D+00
 0.879469201226125D+03 0.000000000000000D+00 0.000000000000000D+00 0.879469201226125D+03
 0.786382010628373D+03 0.000000000000000D+00 0.000000000000000D+00 -.786382010628373D+03
 0.596052145668569D+03 0.206564920315936D+03 -.504183283595525D+03 -.206841269078029D+03
 0.713154274567724D+03 -.190849999658714D+03 0.504973409934017D+03 0.466011965752058D+03
 0.261223122046065D+03 -.286489978556917D+02 0.157259148813857D+02 -.259170696674029D+03
 0.954216695721407D+02 0.129340771984699D+02 -.165160412198771D+02 0.930871905977517D+02
-.559372299671D-03 0.000000000000D+00 0.000000000000D+00 0.313464049908D-05 0.000000000000D+00  6 -3 2 25 -3 2 21 2 0.47489341D-01 0.34578255D+00 0.33206787D+06 0.33206787D+06 0.33206787D+06 0.10813037D+01  1  2 13  1  6  1       -3 -.120818539966D-02 0.100000000000D+01
0.334810626913D-03 0.000000000000D+00 0.000000000000D+00 0.313464049908D-05 0.261047310733D-07  6 -3 2 25 -3 2 21 2 0.47265097D-01 0.34632747D+00 0.33206787D+06 0.33206787D+06 0.33206787D+06 0.10813037D+01  1  2  1  1  6  1       -3 0.726968047390D-03 0.100000000000D+01
  </mgrwgt>
  </event>
  <event>
  6     66 0.16232397E-05 0.14993525E+03 0.75467711E-02 0.94188876E-01
       -3 -1    0    0    0  501 0.00000000E+00 0.00000000E+00 0.13458422E+04 0.13458423E+04 0.50000000E+00 0.0000E+00 0.9000E+01
        2 -1    0    0  503    0 0.00000000E+00 0.00000000E+00 -.28545424E+04 0.28545424E+04 0.32000000E+00 0.0000E+00 0.9000E+01
       25  1    1    2    0    0 0.10931981E+03 0.47991290E+03 -.15169491E+02 0.50805740E+03 0.12500000E+03 0.0000E+00 0.9000E+01
       -3  1    1    2    0  501 -.11156802E+03 -.10451450E+03 0.10795975E+04 0.10903677E+04 0.50000000E+00 0.0000E+00 0.9000E+01
        2  1    1    2  502    0 0.74719595E+01 -.37273883E+03 -.24047265E+04 0.24334542E+04 0.32000000E+00 0.0000E+00 0.9000E+01
       21  1    1    2  503  502 -.52237482E+01 -.26595738E+01 -.16840174E+03 0.16850539E+03 0.75000000E+00 0.0000E+00 0.9000E+01
#aMCatNLO 2  0  0  2  5 0.58618153D+01 0.00000000D+00  -5  6  0 0.00000000D+00 0.00000000D+00 0.00000000D+00 0.00000000D+00 0.00000000D+00
  <mgrwgt>
 0.3190938577D-02    5    2    0
 0.190129010862819D+04 0.000000000000000D+00 0.000000000000000D+00 0.190129010862819D+04
 0.190129010862819D+04 0.000000000000000D+00 0.000000000000000D+00 -.190129010862819D+04
 0.532926196766722D+03 0.108581538364308D+03 0.479580205641974D+03 0.163089567670910D+03
 0.153678385421323D+04 -.113672695950924D+03 -.105583356364483D+03 0.152893272828615D+04
 0.173287016627642D+04 0.509115758661557D+01 -.373996849277492D+03 -.169202229595706D+04
 0.000000000000000D+00 -.000000000000000D+00 -.000000000000000D+00 -.000000000000000D+00
 0.190136441205535D+04 0.000000000000000D+00 0.000000000000000D+00 0.190136441205535D+04
 0.202052748041517D+04 0.000000000000000D+00 0.000000000000000D+00 -.202052748041517D+04
 0.533411417136900D+03 0.109313972078659D+03 0.479953110581959D+03 0.163089567670910D+03
 0.153655567732214D+04 -.111561715845569D+03 -.104508590287946D+03 0.152893272828615D+04
 0.173261764089503D+04 0.747149198872912D+01 -.372784946493702D+03 -.169202229595706D+04
 0.119307157116450D+03 -.522374822181888D+01 -.265957380031036D+01 -.119163068359811D+03
-.846868200799D+00 0.000000000000D+00 0.000000000000D+00 0.145369929577D-03 0.000000000000D+00  6 -3 2 25 -3 2 21 2 0.20704443D+00 0.43993278D+00 0.27011689D+06 0.27011689D+06 0.27011689D+06 0.10879395D+01  1  2 13  2  6  2        2 -.126147247629D-01 0.100000000000D+01
-.484887928858D+00 0.000000000000D+00 0.000000000000D+00 0.145369929577D-03 0.000000000000D+00  6 -3 2 25 -3 2 21 2 0.20704443D+00 0.41324396D+00 0.26859986D+06 0.26859986D+06 0.26859986D+06 0.10881222D+01  1  2  8  2  6  2        2 -.920527325731D-02 0.100000000000D+01
-.419852813297D+00 0.000000000000D+00 0.000000000000D+00 0.145369929577D-03 0.000000000000D+00  6 -3 2 25 -3 2 21 2 0.20704443D+00 0.43916478D+00 0.26859986D+06 0.26859986D+06 0.26859986D+06 0.10881222D+01  1  2  9  2  6  2        2 -.630453714333D-02 0.100000000000D+01
0.419077053368D+00 0.000000000000D+00 0.000000000000D+00 0.145369929577D-03 0.000000000000D+00  6 -3 2 25 -3 2 21 2 0.20704443D+00 0.41324396D+00 0.26859986D+06 0.26859986D+06 0.26859986D+06 0.10881222D+01  1  2 10  2  6  2        2 0.795589777046D-02 0.100000000000D+01
0.155740905777D+01 0.000000000000D+00 0.000000000000D+00 0.145369929577D-03 0.328131881501D-04  6 -3 2 25 -3 2 21 2 0.20705252D+00 0.43916011D+00 0.27011689D+06 0.27011689D+06 0.27011689D+06 0.10879395D+01  1  2  1  2  6  2        2 0.233595759699D-01 0.100000000000D+01
  </mgrwgt>
  </event>
  <event>
  5     66 0.16232397E-05 0.98451601E+02 0.75467711E-02 0.94275672E-01
       -3 -1    0    0    0  501 0.00000000E+00 0.00000000E+00 0.96433149E+03 0.96433162E+03 0.50000000E+00 0.0000E+00 0.9000E+01
        2 -1    0    0  502    0 0.00000000E+00 0.00000000E+00 -.32953597E+04 0.32953597E+04 0.32000000E+00 0.0000E+00 0.9000E+01
       25  1    1    2    0    0 -.41461655E+03 -.19576302E+03 -.61696936E+03 0.77878511E+03 0.12500000E+03 0.0000E+00 0.9000E+01
       -3  1    1    2    0  501 0.34004262E+03 0.13150279E+03 0.84482128E+03 0.92013326E+03 0.50000000E+00 0.0000E+00 0.9000E+01
        2  1    1    2  502    0 0.74573931E+02 0.64260237E+02 -.25588801E+04 0.25607729E+04 0.32000000E+00 0.0000E+00 0.9000E+01
#aMCatNLO 1  0  0  2  1 0.57884778D+02 0.00000000D+00  -5  6  0 0.00000000D+00 0.00000000D+00 0.00000000D+00 0.00000000D+00 0.00000000D+00
  <mgrwgt>
 0.1401014002D-02    4    2    0
 0.178264394222197D+04 0.000000000000000D+00 0.000000000000000D+00 0.178264394222197D+04
 0.178264394222197D+04 0.000000000000000D+00 0.000000000000000D+00 -.178264394222197D+04
 0.527054013707519D+03 -.414619336897333D+03 -.195767703522249D+03 -.227874406403277D+03
 0.165167418116087D+04 0.340037333035859D+03 0.131500740508961D+03 0.161093443941735D+04
 0.138655968957555D+04 0.745820038614742D+02 0.642669630132886D+02 -.138306003301407D+04
 0.000000000000000D+00 -.000000000000000D+00 0.000000000000000D+00 0.000000000000000D+00
 0.182577212755322D+04 0.000000000000000D+00 0.000000000000000D+00 0.182577212755322D+04
 0.180240786627375D+04 0.000000000000000D+00 0.000000000000000D+00 -.180240786627375D+04
 0.520474527602051D+03 -.406118970345055D+03 -.195983087828527D+03 -.227874406403277D+03
 0.165735673164779D+04 0.366889084164786D+03 0.130820364462388D+03 0.161093443941735D+04
 0.138792649283067D+04 0.970960916544419D+02 0.636964957103846D+02 -.138306003301407D+04
 0.624222417464553D+02 -.578662054741724D+02 0.146622765575468D+01 0.233642612794686D+02
0.108501253677D+00 0.000000000000D+00 0.000000000000D+00 0.420832235363D-03 0.000000000000D+00  6 -3 2 25 -3 2 21 0 0.14835870D+00 0.50697842D+00 0.22009095D+06 0.22009095D+06 0.22009095D+06 0.10946467D+01  1  2  2  2  6  2        2 0.273588476111D-02 0.100000000000D+01
0.273680671041D-01 0.000000000000D+00 -.416673383154D-03 0.420832235363D-03 0.000000000000D+00  6 -3 2 25 -3 2 21 2 0.14835870D+00 0.50697842D+00 0.22009095D+06 0.22009095D+06 0.22009095D+06 0.10946467D+01  1  2  3  2  6  2        2 0.826904092878D-03 0.100000000000D+01
-.706609556985D-01 0.000000000000D+00 0.000000000000D+00 0.420832235363D-03 0.000000000000D+00  6 -3 2 25 -3 2 21 2 0.14835870D+00 0.50697842D+00 0.22009095D+06 0.22009095D+06 0.22009095D+06 0.10946467D+01  1  2 15  2  6  2        2 -.213496383400D-02 0.100000000000D+01
-.887364975962D-03 0.000000000000D+00 0.000000000000D+00 0.420832235363D-03 0.000000000000D+00  6 -3 2 25 -3 2 21 2 0.14835870D+00 0.50697842D+00 0.22009095D+06 0.22009095D+06 0.22009095D+06 0.10946467D+01  1  2  4  2  6  2        2 -.268110176619D-04 0.100000000000D+01
  </mgrwgt>
  </event>
  <event>
  5     66 -.16232397E-05 0.16377120E+02 0.75467711E-02 0.95407746E-01
       -3 -1    0    0    0  501 0.00000000E+00 0.00000000E+00 0.15592864E+03 0.15592944E+03 0.50000000E+00 0.0000E+00 0.9000E+01
        2 -1    0    0  502    0 -.00000000E+00 -.00000000E+00 -.28726693E+04 0.28726693E+04 0.32000000E+00 0.0000E+00 0.9000E+01
       25  1    1    2    0    0 -.41271606E+03 0.19788030E+03 -.14448002E+04 0.15207116E+04 0.12500000E+03 0.0000E+00 0.9000E+01
       -3  1    1    2    0  501 0.85093064E+01 -.14004662E+02 0.81669230E+02 0.83298571E+02 0.50000000E+00 0.0000E+00 0.9000E+01
        2  1    1    2  502    0 0.40420676E+03 -.18387564E+03 -.13536097E+04 0.14245886E+04 0.32000000E+00 0.0000E+00 0.9000E+01
#aMCatNLO 1  0  0  5  2 0.64313551D+02 0.00000000D+00  -5  6  0 0.00000000D+00 0.00000000D+00 0.00000000D+00 0.00000000D+00 0.00000000D+00
  <mgrwgt>
 -.6354301077D-03    4    2    0
 0.669277716457193D+03 0.000000000000000D+00 0.000000000000000D+00 0.669277716457193D+03
 0.669277716457193D+03 -.000000000000000D+00 -.000000000000000D+00 -.669277716457193D+03
 0.508464153125223D+03 -.412859402588629D+03 0.197943990422336D+03 -.182417338439067D+03
 0.354009403486222D+03 0.850409520732553D+01 -.139960854559332D+02 0.353630382904645D+03
 0.476081876302941D+03 0.404355307381303D+03 -.183947904966403D+03 -.171213044465578D+03
 0.000000000000000D+00 0.000000000000000D+00 0.000000000000000D+00 -.000000000000000D+00
 0.669277716457193D+03 0.000000000000000D+00 0.000000000000000D+00 0.669277716457193D+03
 0.669277716457193D+03 -.000000000000000D+00 -.000000000000000D+00 -.669277716457193D+03
 0.507976190043237D+03 -.412276252136318D+03 0.197678705654152D+03 -.182664257330693D+03
 0.353854978764376D+03 0.891020997584961D+01 -.141808337688210D+02 0.353458424865138D+03
 0.131213206388572D+03 0.115834232526313D+03 -.541246542563304D+02 -.294933536147182D+02
 0.345511057718201D+03 0.287531809634156D+03 -.129373217629000D+03 -.141300813919727D+03
0.166531449096D-04 0.000000000000D+00 0.000000000000D+00 0.226306498910D-05 0.000000000000D+00  6 -3 2 25 -3 2 21 0 0.23989085D-01 0.44194918D+00 0.21866013D+06 0.21866013D+06 0.21866013D+06 0.10948624D+01  1  2  2  4  6  5        2 0.510264085462D-04 0.100000000000D+01
0.123334241067D-04 0.000000000000D+00 -.639524613268D-07 0.226306498910D-05 0.000000000000D+00  6 -3 2 25 -3 2 21 2 0.23989085D-01 0.44194918D+00 0.21866013D+06 0.21866013D+06 0.21866013D+06 0.10948624D+01  1  2  3  4  6  5        2 0.453003444335D-04 0.100000000000D+01
-.115736245344D-04 0.000000000000D+00 0.000000000000D+00 0.226306498910D-05 0.000000000000D+00  6 -3 2 25 -3 2 21 2 0.23989085D-01 0.44194918D+00 0.21866013D+06 0.21866013D+06 0.21866013D+06 0.10948624D+01  1  2 15  4  6  5        2 -.425096204605D-04 0.100000000000D+01
-.187653728334D-03 0.000000000000D+00 0.000000000000D+00 0.226306498910D-05 0.000000000000D+00  6 -3 2 25 -3 2 21 2 0.23989085D-01 0.44194918D+00 0.21866013D+06 0.21866013D+06 0.21866013D+06 0.10948624D+01  1  2  5  4  6  5        2 -.689247240198D-03 0.100000000000D+01
  </mgrwgt>
  </event>
  <event>
  6     66 -.16232397E-05 0.16030836E+03 0.75467711E-02 0.93489198E-01
       -3 -1    0    0    0  503 0.00000000E+00 0.00000000E+00 0.72153524E+03 0.72153541E+03 0.50000000E+00 0.0000E+00 0.9000E+01
        2 -1    0    0  502    0 0.00000000E+00 0.00000000E+00 -.73408146E+03 0.73408153E+03 0.32000000E+00 0.0000E+00 0.9000E+01
       25  1    1    2    0    0 0.48073744E+03 0.27684545E+02 0.20272170E+03 0.53721133E+03 0.12500000E+03 0.0000E+00 0.9000E+01
       -3  1    1    2    0  501 -.36914398E+03 0.48833382E+02 0.63107761E+02 0.37767025E+03 0.50000000E+00 0.0000E+00 0.9000E+01
        2  1    1    2  502    0 -.15876231E+03 -.96661734E+02 -.38216080E+03 0.42496582E+03 0.32000000E+00 0.0000E+00 0.9000E+01
       21  1    1    2  501  503 0.47168847E+02 0.20143807E+02 0.10378512E+03 0.11576954E+03 0.75000000E+00 0.0000E+00 0.9000E+01
#aMCatNLO 2  0  0  1  4 0.51290088D+02 0.00000000D+00  -5  6  0 0.00000000D+00 0.00000000D+00 0.00000000D+00 0.00000000D+00 0.00000000D+00
  <mgrwgt>
 -.1389641211D-03    2    2    0
 0.666900926347840D+03 0.000000000000000D+00 0.000000000000000D+00 0.666900926347840D+03
 0.666900926347840D+03 0.000000000000000D+00 0.000000000000000D+00 -.666900926347840D+03
 0.574745680180977D+03 0.500614289865966D+03 0.362864250031583D+02 0.250551841001378D+03
 0.372367724461710D+03 -.355568471264826D+03 0.545194259770136D+02 0.962102731225904D+02
 0.386688448052992D+03 -.145045818601140D+03 -.908058509801719D+02 -.346762114123968D+03
 0.000000000000000D+00 0.000000000000000D+00 0.000000000000000D+00 0.000000000000000D+00
 0.787153454998223D+03 0.000000000000000D+00 0.000000000000000D+00 0.787153454998223D+03
 0.672885391016628D+03 0.000000000000000D+00 0.000000000000000D+00 -.672885391016628D+03
 0.556918619790521D+03 0.480611475489981D+03 0.277440744582088D+02 0.250551841001378D+03
 0.384393950861343D+03 -.368944667119664D+03 0.488070221221287D+02 0.962102731225904D+02
 0.393475073635601D+03 -.158835655487966D+03 -.966949033120464D+02 -.346762114123968D+03
 0.125251201727386D+03 0.471688471176488D+02 0.201438067317089D+02 0.114268063981594D+03
-.119952703144D-03 0.000000000000D+00 0.000000000000D+00 0.407846820644D-07 0.000000000000D+00  6 -3 2 25 -3 2 21 2 0.11308842D+00 0.11193102D+00 0.30623921D+06 0.30623921D+06 0.30623921D+06 0.10838911D+01  1  2 13  1  6  1       -3 -.257640429185D-03 0.100000000000D+01
0.530897426290D-04 0.000000000000D+00 0.000000000000D+00 0.407846820644D-07 0.419548579873D-10  6 -3 2 25 -3 2 21 2 0.11100526D+00 0.11293544D+00 0.30623921D+06 0.30623921D+06 0.30623921D+06 0.10838911D+01  1  2  1  1  6  1       -3 0.118676308063D-03 0.100000000000D+01
  </mgrwgt>
  </event>
  <event>
  5     66 -.16232397E-05 0.68736034E+02 0.75467711E-02 0.93136052E-01
       -3 -1    0    0    0  501 0.00000000E+00 0.00000000E+00 0.65352068E+03 0.65352087E+03 0.50000000E+00 0.0000E+00 0.9000E+01
        2 -1    0    0  502    0 -.00000000E+00 -.00000000E+00 -.20970054E+04 0.20970054E+04 0.32000000E+00 0.0000E+00 0.9000E+01
       25  1    1    2    0    0 -.36609307E+03 -.42165708E+03 -.10430144E+03 0.58165507E+03 0.12500000E+03 0.0000E+00 0.9000E+01
       -3  1    1    2    0  501 0.32188963E+03 0.36903823E+03 0.26934063E+03 0.55887993E+03 0.50000000E+00 0.0000E+00 0.9000E+01
        2  1    1    2  502    0 0.44203437E+02 0.52618849E+02 -.16085239E+04 0.16099913E+04 0.32000000E+00 0.0000E+00 0.9000E+01
#aMCatNLO 1  0  0  4  1 0.10739368D+03 0.00000000D+00  -5  6  0 0.00000000D+00 0.00000000D+00 0.00000000D+00 0.00000000D+00 0.00000000D+00
  <mgrwgt>
 -.5528496437D-03    6    2    0
 0.117065651945743D+04 0.000000000000000D+00 0.000000000000000D+00 0.117065651945743D+04
 0.117065651945743D+04 -.000000000000000D+00 -.000000000000000D+00 -.117065651945743D+04
 0.619035599711574D+03 -.366049187716885D+03 -.421607159230370D+03 0.236295300773786D+03
 0.822480935672154D+03 0.321836593271237D+03 0.368977425746522D+03 0.660871966469433D+03
 0.899796503531138D+03 0.442125944456486D+02 0.526297334838482D+02 -.897167267243219D+03
 0.000000000000000D+00 0.000000000000000D+00 0.000000000000000D+00 0.000000000000000D+00
 0.117065651945743D+04 0.000000000000000D+00 0.000000000000000D+00 0.117065651945743D+04
 0.117065651945743D+04 -.000000000000000D+00 -.000000000000000D+00 -.117065651945743D+04
 0.617172133304785D+03 -.362791370800531D+03 -.417872155428808D+03 0.242985030645783D+03
 0.580034794239815D+03 0.310235765618693D+03 0.274737186568314D+03 0.405849246120201D+03
 0.890718742207537D+03 0.489311952930354D+02 0.580394887142821D+02 -.887477905976681D+03
 0.253387369162730D+03 0.362440988880300D+01 0.850954801462126D+02 0.238643629210698D+03
0.512684609444D-03 0.000000000000D+00 0.000000000000D+00 0.173752503716D-04 0.000000000000D+00  6 -3 2 25 -3 2 21 0 0.10054166D+00 0.32261623D+00 0.31951522D+06 0.31951522D+06 0.31951522D+06 0.10825327D+01  1  2  2  3  6  4       -3 0.203992955521D-03 0.100000000000D+01
0.197322518574D-03 0.000000000000D+00 -.196884389322D-05 0.173752503716D-04 0.000000000000D+00  6 -3 2 25 -3 2 21 2 0.10054166D+00 0.32261623D+00 0.31951522D+06 0.31951522D+06 0.31951522D+06 0.10825327D+01  1  2  3  3  6  4       -3 0.920075727021D-04 0.100000000000D+01
-.308699592422D-03 0.000000000000D+00 0.000000000000D+00 0.173752503716D-04 0.000000000000D+00  6 -3 2 25 -3 2 21 2 0.10054166D+00 0.32261623D+00 0.31951522D+06 0.31951522D+06 0.31951522D+06 0.10825327D+01  1  2 15  3  6  4       -3 -.143940490919D-03 0.100000000000D+01
-.223888502802D-02 0.000000000000D+00 0.000000000000D+00 0.173752503716D-04 0.000000000000D+00  6 -3 2 25 -3 2 21 2 0.10054166D+00 0.32261623D+00 0.31951522D+06 0.31951522D+06 0.31951522D+06 0.10825327D+01  1  2  4  3  6  4       -3 -.104394763697D-02 0.100000000000D+01
-.206280720448D-02 0.000000000000D+00 0.000000000000D+00 0.173752503716D-04 0.000000000000D+00  6 -3 2 25 -3 2 21 2 0.10054166D+00 0.32261623D+00 0.31951522D+06 0.31951522D+06 0.31951522D+06 0.10825327D+01  1  2  5  3  6  4       -3 -.961846043769D-03 0.100000000000D+01
0.278991934743D-02 0.000000000000D+00 -.000000000000D+00 0.173752503716D-04 0.000000000000D+00  6 -3 2 25 -3 2 21 2 0.10054166D+00 0.32261623D+00 0.31951522D+06 0.31951522D+06 0.31951522D+06 0.10825327D+01  1  2  6  3  6  4       -3 0.130088399969D-02 0.100000000000D+01
  </mgrwgt>
  </event>
  <event>
  6     66 0.16232397E-05 0.11885026E+03 0.75467711E-02 0.94137542E-01
       -3 -1    0    0    0  501 0.00000000E+00 0.00000000E+00 0.34991609E+03 0.34991645E+03 0.50000000E+00 0.0000E+00 0.9000E+01
        2 -1    0    0  502    0 -.00000000E+00 -.00000000E+00 -.46980799E+04 0.46980799E+04 0.32000000E+00 0.0000E+00 0.9000E+01
       25  1    1    2    0    0 -.33867995E+03 0.30807251E+03 -.37275125E+03 0.60347434E+03 0.12500000E+03 0.0000E+00 0.9000E+01
       -3  1    1    2    0  503 0.24091243E+03 -.25645467E+03 -.15363664E+03 0.38394305E+03 0.50000000E+00 0.0000E+00 0.9000E+01
        2  1    1    2  502    0 -.51692290E+02 0.15939885E+02 -.38845716E+04 0.38849482E+04 0.32000000E+00 0.0000E+00 0.9000E+01
       21  1    1    2  503  501 0.14945982E+03 -.67557721E+02 0.62795714E+02 0.17563071E+03 0.75000000E+00 0.0000E+00 0.9000E+01
#aMCatNLO 2  0  0  4  1 0.10881641D+03 0.00000000D+00  -5  6  0 0.00000000D+00 0.00000000D+00 0.00000000D+00 0.00000000D+00 0.00000000D+00
  <mgrwgt>
 0.1357115728D-02    1    2    0
 0.128216015628642D+04 0.000000000000000D+00 0.000000000000000D+00 0.128216015628642D+04
 0.128216015628642D+04 -.000000000000000D+00 -.000000000000000D+00 -.128216015628642D+04
 0.556133537987873D+03 -.340861111999977D+03 0.309895732039243D+03 0.285373176148197D+03
 0.937933345694738D+03 0.397070093110436D+03 -.329571667284702D+03 0.783222074667573D+03
 0.107025342889022D+04 -.562089811104592D+02 0.196759352454580D+02 -.106859525081577D+04
 0.000000000000000D+00 0.000000000000000D+00 0.000000000000000D+00 0.000000000000000D+00
 0.128216015628642D+04 0.000000000000000D+00 0.000000000000000D+00 0.128216015628642D+04
 0.128216015628642D+04 -.000000000000000D+00 -.000000000000000D+00 -.128216015628642D+04
 0.556012859750894D+03 -.338518125559476D+03 0.307951032700211D+03 0.289994724667431D+03
 0.494738596572922D+03 0.240661902614485D+03 -.256230743569652D+03 0.348129190989012D+03
 0.106111942478312D+04 -.517187649788771D+02 0.159490163899939D+02 -.105973828461433D+04
 0.452449431465897D+03 0.149574987923868D+03 -.676693055205535D+02 0.421614368957883D+03
0.526230858278D-01 0.000000000000D+00 0.000000000000D+00 0.350281692871D-04 0.156124378145D-07  6 -3 2 25 -3 2 21 2 0.53833273D-01 0.72278155D+00 0.27259815D+06 0.27259815D+06 0.27259815D+06 0.10876430D+01  1  2  1  3  6  4       -3 0.135711572760D-02 0.100000000000D+01
  </mgrwgt>
  </event>
  <event>
  6     66 0.16232397E-05 0.12405182E+03 0.75467711E-02 0.93026175E-01
       21 -1    0    0  503  501 0.00000000E+00 0.00000000E+00 0.46193219E+03 0.46193280E+03 0.75000000E+00 0.0000E+00 0.9000E+01
        2 -1    0    0  502    0 0.00000000E+00 0.00000000E+00 -.16150202E+04 0.16150203E+04 0.32000000E+00 0.0000E+00 0.9000E+01
       25  1    1    2    0    0 0.37913996E+03 -.28986324E+03 -.43732662E+03 0.65927792E+03 0.12500000E+03 0.0000E+00 0.9000E+01
       -3  1    1    2    0  501 0.13587557E+02 0.16393546E+03 0.58110561E+01 0.16460096E+03 0.50000000E+00 0.0000E+00 0.9000E+01
        2  1    1    2  502    0 -.28834951E+02 -.75375056E+02 -.82143544E+03 0.82539029E+03 0.32000000E+00 0.0000E+00 0.9000E+01
        3  1    1    2  503    0 -.36389257E+03 0.20130284E+03 0.99862968E+02 0.42768387E+03 0.50000000E+00 0.0000E+00 0.9000E+01
#aMCatNLO 2  0  0  1  1 0.24127376D+03 0.00000000D+00  -5  6  0 0.00000000D+00 0.00000000D+00 0.00000000D+00 0.00000000D+00 0.00000000D+00
  <mgrwgt>
 0.2349889020D-02    1    2    0
 0.494282806544141D+03 0.000000000000000D+00 0.000000000000000D+00 0.494282806544141D+03
 0.494282806544141D+03 0.000000000000000D+00 0.000000000000000D+00 -.494282806544141D+03
 0.347048428843505D+03 0.229100676544173D+03 -.206745666376784D+03 0.979118042126033D+02
 0.310201911673351D+03 -.870548976590587D+02 0.219524568394896D+03 0.201135861224216D+03
 0.331315272571427D+03 -.142045778885114D+03 -.127789020181120D+02 -.299047665436819D+03
 0.000000000000000D+00 -.000000000000000D+00 0.000000000000000D+00 0.000000000000000D+00
 0.125003350959878D+04 0.000000000000000D+00 0.000000000000000D+00 0.125003350959878D+04
 0.596808241714175D+03 0.000000000000000D+00 0.000000000000000D+00 -.596808241714175D+03
 0.502938070662257D+03 0.379172328463768D+03 -.289764260813287D+03 0.979118042126033D+02
 0.259784722466571D+03 0.135806251488993D+02 0.163853696867637D+03 0.201135861224216D+03
 0.309752196229133D+03 -.288603881868447D+02 -.753922732066370D+02 -.299047665436819D+03
 0.774366761954991D+03 -.363892565425823D+03 0.201302837152287D+03 0.653225267884603D+03
0.803355767818D-04 0.000000000000D+00 0.000000000000D+00 0.535728478459D-06 0.120164621254D-10  6 21 2 25 -3 2 3 2 0.71066531D-01 0.24846467D+00 0.33311341D+06 0.33311341D+06 0.33311341D+06 0.10812037D+01  1  2  1  5  6  1       -3 0.234988901955D-02 0.100000000000D+01
  </mgrwgt>
  </event>
  <event>
  5     66 -.16232397E-05 0.29759660E+02 0.75467711E-02 0.93125556E-01
       -3 -1    0    0    0  501 0.00000000E+00 0.00000000E+00 0.63767011E+03 0.63767030E+03 0.50000000E+00 0.0000E+00 0.9000E+01
        2 -1    0    0  502    0 -.00000000E+00 -.00000000E+00 -.18049494E+04 0.18049495E+04 0.32000000E+00 0.0000E+00 0.9000E+01
       25  1    1    2    0    0 0.49315761E+03 0.25371772E+03 -.56859902E+03 0.80405657E+03 0.12500000E+03 0.0000E+00 0.9000E+01
       -3  1    1    2    0  501 0.40027279E+01 -.29494350E+02 0.45294811E+03 0.45392530E+03 0.50000000E+00 0.0000E+00 0.9000E+01
        2  1    1    2  502    0 -.49716034E+03 -.22422337E+03 -.10516284E+04 0.11846379E+04 0.32000000E+00 0.0000E+00 0.9000E+01
#aMCatNLO 1  0  0  4  1 0.51295008D+00 0.00000000D+00  -5  6  0 0.00000000D+00 0.00000000D+00 0.00000000D+00 0.00000000D+00 0.00000000D+00
  <mgrwgt>
 -.3560018888D-02    8    2    0
 0.107282923602612D+04 0.000000000000000D+00 0.000000000000000D+00 0.107282923602612D+04
 0.107282923602612D+04 -.000000000000000D+00 -.000000000000000D+00 -.107282923602612D+04
 0.606086019107854D+03 0.493264476225354D+03 0.253764889494371D+03 -.209782744552650D+03
 0.763031575367704D+03 0.400204743616730D+01 -.294893363776511D+02 0.762451013288358D+03
 0.776540877576673D+03 -.497266523661521D+03 -.224275553116720D+03 -.552668268735708D+03
 0.000000000000000D+00 0.000000000000000D+00 0.000000000000000D+00 0.000000000000000D+00
 0.107282923602612D+04 0.000000000000000D+00 0.000000000000000D+00 0.107282923602612D+04
 0.107282923602612D+04 -.000000000000000D+00 -.000000000000000D+00 -.107282923602612D+04
 0.606085920697779D+03 0.493264477668026D+03 0.253764878863953D+03 -.209782469701660D+03
 0.587588999401887D+03 0.266260260104904D+01 -.230042819158271D+02 0.587132477196618D+03
 0.776540629699920D+03 -.497266521813114D+03 -.224275566736822D+03 -.552667916586003D+03
 0.175442922252644D+03 0.133944154403925D+01 -.648503021130287D+01 0.175317909091045D+03
0.902138241564D-06 0.000000000000D+00 0.000000000000D+00 0.159755525314D-04 0.000000000000D+00  6 -3 2 25 -3 2 21 0 0.98103111D-01 0.27768454D+00 0.32711827D+06 0.32711827D+06 0.32711827D+06 0.10817822D+01  1  2  2  3  6  4       -3 0.552529629885D-06 0.100000000000D+01
0.619159415927D-06 0.000000000000D+00 -.346444838606D-08 0.159755525314D-04 0.000000000000D+00  6 -3 2 25 -3 2 21 2 0.98103111D-01 0.27768454D+00 0.32711827D+06 0.32711827D+06 0.32711827D+06 0.10817822D+01  1  2  3  3  6  4       -3 0.443776809628D-06 0.100000000000D+01
-.538887236323D-06 0.000000000000D+00 0.000000000000D+00 0.159755525314D-04 0.000000000000D+00  6 -3 2 25 -3 2 21 2 0.98103111D-01 0.27768454D+00 0.32711827D+06 0.32711827D+06 0.32711827D+06 0.10817822D+01  1  2 15  3  6  4       -3 -.386242464110D-06 0.100000000000D+01
0.439880320820D-12 0.000000000000D+00 0.000000000000D+00 0.159755525314D-04 0.000000000000D+00  6 -3 2 25 -3 2 21 2 0.98103111D-01 0.27768454D+00 0.32712977D+06 0.32712977D+06 0.32712977D+06 0.10817811D+01  1  2 12  3  6  4       -3 0.315278883617D-12 0.100000000000D+01
-.172840630181D+00 0.000000000000D+00 0.000000000000D+00 0.159755525314D-04 0.000000000000D+00  6 -3 2 25 -3 2 21 2 0.98103111D-01 0.27768454D+00 0.32711827D+06 0.32711827D+06 0.32711827D+06 0.10817822D+01  1  2  4  3  6  4       -3 -.123881930021D+00 0.100000000000D+01
-.126697525834D+00 0.000000000000D+00 0.000000000000D+00 0.159755525314D-04 0.000000000000D+00  6 -3 2 25 -3 2 21 2 0.98103111D-01 0.27768454D+00 0.32711827D+06 0.32711827D+06 0.32711827D+06 0.10817822D+01  1  2  5  3  6  4       -3 -.908092849044D-01 0.100000000000D+01
0.159066862684D+00 0.000000000000D+00 -.000000000000D+00 0.159755525314D-04 0.000000000000D+00  6 -3 2 25 -3 2 21 2 0.98103111D-01 0.27768454D+00 0.32711827D+06 0.32711827D+06 0.32711827D+06 0.10817822D+01  1  2  6  3  6  4       -3 0.114009709008D+00 0.100000000000D+01
0.135504040193D+00 0.000000000000D+00 0.000000000000D+00 0.159755525314D-04 0.248693693937D-03  6 -3 2 25 -3 2 21 2 0.98103111D-01 0.27768454D+00 0.32712977D+06 0.32712977D+06 0.32712977D+06 0.10817811D+01  1  2 11  3  6  4       -3 0.971208769652D-01 0.100000000000D+01
  </mgrwgt>
  </event>
  <event>
  5     66 0.16232397E-05 0.68215424E+02 0.75467711E-02 0.93735395E-01
       -3 -1    0    0    0  501 0.00000000E+00 0.00000000E+00 0.63747397E+03 0.63747416E+03 0.50000000E+00 0.0000E+00 0.9000E+01
        2 -1    0    0  502    0 -.00000000E+00 -.00000000E+00 -.10425007E+04 0.10425008E+04 0.32000000E+00 0.0000E+00 0.9000E+01
       25  1    1    2    0    0 0.49591266E+03 0.17628875E+03 -.24068016E+03 0.59208026E+03 0.12500000E+03 0.0000E+00 0.9000E+01
       -3  1    1    2    0  501 -.42999208E+03 -.19376482E+03 0.33844268E+03 0.58050124E+03 0.50000000E+00 0.0000E+00 0.9000E+01
        2  1    1    2  502    0 -.65920579E+02 0.17476071E+02 -.50278928E+03 0.50739343E+03 0.32000000E+00 0.0000E+00 0.9000E+01
#aMCatNLO 1  0  0  5  2 0.54499255D+01 0.00000000D+00  -5  6  0 0.00000000D+00 0.00000000D+00 0.00000000D+00 0.00000000D+00 0.00000000D+00
  <mgrwgt>
 0.5313008313D-03    8    2    0
 0.815209958450025D+03 0.000000000000000D+00 0.000000000000000D+00 0.815209958450025D+03
 0.815209958450025D+03 -.000000000000000D+00 -.000000000000000D+00 -.815209958450025D+03
 0.550235027933530D+03 0.495893281356690D+03 0.176268865043609D+03 -.100760739807452D+03
 0.682161976070035D+03 -.429955318046573D+03 -.193748255095645D+03 0.492894511763560D+03
 0.398022912896485D+03 -.659379633101170D+02 0.174793900520362D+02 -.392133771956108D+03
 0.000000000000000D+00 -.000000000000000D+00 0.000000000000000D+00 0.000000000000000D+00
 0.815209958450025D+03 0.000000000000000D+00 0.000000000000000D+00 0.815209958450025D+03
 0.815209958450025D+03 -.000000000000000D+00 -.000000000000000D+00 -.815209958450025D+03
 0.550243592149025D+03 0.495861996696554D+03 0.176277158244516D+03 -.100946790015369D+03
 0.682016881366138D+03 -.429994099237902D+03 -.193737974651180D+03 0.492663879604580D+03
 0.369299521585202D+03 -.578423529608685D+02 0.205143072876186D+02 -.364164196542601D+03
 0.288599217996848D+02 -.802554449778325D+01 -.305349088095459D+01 -.275528930466103D+02
0.154769588044D-04 0.000000000000D+00 0.000000000000D+00 0.283749799639D-05 0.000000000000D+00  6 -3 2 25 -3 2 21 0 0.98072937D-01 0.16038475D+00 0.29199918D+06 0.29199918D+06 0.29199918D+06 0.10854215D+01  1  2  2  4  6  5        2 0.256240394525D-04 0.100000000000D+01
0.409856350188D-05 0.000000000000D+00 -.594355969858D-07 0.283749799639D-05 0.000000000000D+00  6 -3 2 25 -3 2 21 2 0.98072937D-01 0.16038475D+00 0.29199918D+06 0.29199918D+06 0.29199918D+06 0.10854215D+01  1  2  3  4  6  5        2 0.799448446181D-05 0.100000000000D+01
-.975689888090D-05 0.000000000000D+00 0.000000000000D+00 0.283749799639D-05 0.000000000000D+00  6 -3 2 25 -3 2 21 2 0.98072937D-01 0.16038475D+00 0.29199918D+06 0.29199918D+06 0.29199918D+06 0.10854215D+01  1  2 15  4  6  5        2 -.190313939172D-04 0.100000000000D+01
0.271800422188D-03 0.000000000000D+00 0.000000000000D+00 0.283749799639D-05 0.000000000000D+00  6 -3 2 25 -3 2 21 2 0.98072937D-01 0.16038475D+00 0.29294503D+06 0.29294503D+06 0.29294503D+06 0.10853173D+01  1  2 12  4  6  5        2 0.529992357229D-03 0.100000000000D+01
-.451301443520D-03 0.000000000000D+00 0.000000000000D+00 0.283749799639D-05 0.000000000000D+00  6 -3 2 25 -3 2 21 2 0.98072937D-01 0.16038475D+00 0.29199918D+06 0.29199918D+06 0.29199918D+06 0.10854215D+01  1  2  4  4  6  5        2 -.880289490735D-03 0.100000000000D+01
-.159217317252D-02 0.000000000000D+00 0.000000000000D+00 0.283749799639D-05 0.000000000000D+00  6 -3 2 25 -3 2 21 2 0.98072937D-01 0.16038475D+00 0.29199918D+06 0.29199918D+06 0.29199918D+06 0.10854215D+01  1  2  5  4  6  5        2 -.310562558867D-02 0.100000000000D+01
0.171687828912D-02 0.000000000000D+00 -.000000000000D+00 0.283749799639D-05 0.000000000000D+00  6 -3 2 25 -3 2 21 2 0.98072937D-01 0.16038475D+00 0.29199918D+06 0.29199918D+06 0.29199918D+06 0.10854215D+01  1  2  6  4  6  5        2 0.334887010995D-02 0.100000000000D+01
0.319891306090D-03 0.000000000000D+00 0.000000000000D+00 0.283749799639D-05 0.157638061593D-06  6 -3 2 25 -3 2 21 2 0.98072937D-01 0.16038475D+00 0.29294503D+06 0.29294503D+06 0.29294503D+06 0.10853173D+01  1  2 11  4  6  5        2 0.623766313559D-03 0.100000000000D+01
  </mgrwgt>
  </event>
  <event>
  6     66 0.16232397E-05 0.51184486E+02 0.75467711E-02 0.93679862E-01
       -3 -1    0    0    0  501 0.00000000E+00 0.00000000E+00 0.21572244E+03 0.21572302E+03 0.50000000E+00 0.0000E+00 0.9000E+01
        2 -1    0    0  502    0 -.00000000E+00 -.00000000E+00 -.23368282E+04 0.23368282E+04 0.32000000E+00 0.0000E+00 0.9000E+01
       25  1    1    2    0    0 -.13076083E+03 0.47581152E+03 -.55778499E+03 0.75514508E+03 0.12500000E+03 0.0000E+00 0.9000E+01
       -3  1    1    2    0  501 0.14472456E+03 -.43926043E+03 -.35420353E+03 0.58254212E+03 0.50000000E+00 0.0000E+00 0.9000E+01
        2  1    1    2  503    0 0.11145504E+02 -.72039279E+02 -.85114806E+03 0.85426401E+03 0.32000000E+00 0.0000E+00 0.9000E+01
       21  1    1    2  502  503 -.25109239E+02 0.35488192E+02 -.35796917E+03 0.36060002E+03 0.75000000E+00 0.0000E+00 0.9000E+01
#aMCatNLO 2  0  0  5  2 0.13619640D+02 0.00000000D+00  -5  6  0 0.00000000D+00 0.00000000D+00 0.00000000D+00 0.00000000D+00 0.00000000D+00
  <mgrwgt>
 0.2964581128D-04    1    2    0
 0.710004961382461D+03 0.000000000000000D+00 0.000000000000000D+00 0.710004961382461D+03
 0.710004961382461D+03 -.000000000000000D+00 -.000000000000000D+00 -.710004961382461D+03
 0.526254080362474D+03 -.130500242095970D+03 0.476400812857994D+03 0.131644633081982D+03
 0.520343735132509D+03 0.144946549397178D+03 -.438584010620232D+03 0.239566621501774D+03
 0.373412107269939D+03 -.144463073012085D+02 -.378168022377621D+02 -.371211254583755D+03
 0.000000000000000D+00 0.000000000000000D+00 0.000000000000000D+00 -.000000000000000D+00
 0.710004961382461D+03 0.000000000000000D+00 0.000000000000000D+00 0.710004961382461D+03
 0.710004961382461D+03 -.000000000000000D+00 -.000000000000000D+00 -.710004961382461D+03
 0.524218536696081D+03 -.130742211731564D+03 0.475767397157635D+03 0.125426999043940D+03
 0.518006747825942D+03 0.144707372017492D+03 -.439210116896303D+03 0.233420737067073D+03
 0.264033006366798D+03 0.111862914018474D+02 -.720874605155696D+02 -.253755183931637D+03
 0.113751631876102D+03 -.251514516877757D+02 0.355301802542381D+02 -.105092552179377D+03
0.742590489767D-05 0.000000000000D+00 0.000000000000D+00 0.195068389543D-05 0.708339451751D-10  6 -3 2 25 -3 2 21 2 0.33188114D-01 0.35951207D+00 0.29588626D+06 0.29588626D+06 0.29588626D+06 0.10849958D+01  1  2  1  4  6  5        2 0.296458112821D-04 0.100000000000D+01
  </mgrwgt>
  </event>
  <event>
  5     66 0.16232397E-05 0.80237640E+02 0.75467711E-02 0.92473215E-01
       -3 -1    0    0    0  501 0.00000000E+00 0.00000000E+00 0.81708284E+03 0.81708300E+03 0.50000000E+00 0.0000E+00 0.9000E+01
        2 -1    0    0  502    0 0.00000000E+00 0.00000000E+00 -.20644357E+04 0.20644357E+04 0.32000000E+00 0.0000E+00 0.9000E+01
       25  1    1    2    0    0 0.49786974E+03 -.29097313E+03 -.10543874E+04 0.12082622E+04 0.12500000E+03 0.0000E+00 0.9000E+01
       -3  1    1    2    0  501 -.68111671E+02 0.42423560E+02 0.67155324E+03 0.67633051E+03 0.50000000E+00 0.0000E+00 0.9000E+01
        2  1    1    2  502    0 -.42975807E+03 0.24854957E+03 -.86451870E+03 0.99692606E+03 0.32000000E+00 0.0000E+00 0.9000E+01
#aMCatNLO 1  0  0  2  5 0.34769169D+02 0.00000000D+00  -5  6  0 0.00000000D+00 0.00000000D+00 0.00000000D+00 0.00000000D+00 0.00000000D+00
  <mgrwgt>
 0.3684993727D-03    9    2    0
 0.129877451851706D+04 0.000000000000000D+00 0.000000000000000D+00 0.129877451851706D+04
 0.129877451851706D+04 0.000000000000000D+00 0.000000000000000D+00 -.129877451851706D+04
 0.834046025728335D+03 0.497943961250664D+03 -.291016174441974D+03 -.589380327717498D+03
 0.107267747220581D+04 -.681070202714765D+02 0.424206634930255D+02 0.106967232388073D+04
 0.690825539099980D+03 -.429836940979188D+03 0.248595510948949D+03 -.480291996163234D+03
 0.000000000000000D+00 0.000000000000000D+00 -.000000000000000D+00 -.000000000000000D+00
 0.130222373974762D+04 0.000000000000000D+00 0.000000000000000D+00 0.130222373974762D+04
 0.138957041649929D+04 0.000000000000000D+00 0.000000000000000D+00 -.138957041649929D+04
 0.826446397613510D+03 0.489015305140845D+03 -.284400261543427D+03 -.589380327717498D+03
 0.107384408304328D+04 -.796491101538032D+02 0.509730660482875D+02 0.106967232388073D+04
 0.697491245149800D+03 -.437302077804750D+03 0.254126992328251D+03 -.480291996163234D+03
 0.940124304403202D+02 0.279358828177087D+02 -.206997968331113D+02 -.873466767516612D+02
0.101751879061D-03 0.000000000000D+00 0.000000000000D+00 0.786045355821D-05 0.000000000000D+00  6 -3 2 25 -3 2 21 0 0.12570507D+00 0.31760551D+00 0.34042783D+06 0.34042783D+06 0.34042783D+06 0.10805131D+01  1  2  2  2  6  2        2 0.226559279574D-04 0.100000000000D+01
0.357135674519D-04 0.000000000000D+00 -.390754007479D-06 0.786045355821D-05 0.000000000000D+00  6 -3 2 25 -3 2 21 2 0.12570507D+00 0.31760551D+00 0.34042783D+06 0.34042783D+06 0.34042783D+06 0.10805131D+01  1  2  3  2  6  2        2 0.928394793144D-05 0.100000000000D+01
-.741946266652D-04 0.000000000000D+00 0.000000000000D+00 0.786045355821D-05 0.000000000000D+00  6 -3 2 25 -3 2 21 2 0.12570507D+00 0.31760551D+00 0.34042783D+06 0.34042783D+06 0.34042783D+06 0.10805131D+01  1  2 15  2  6  2        2 -.192873213151D-04 0.100000000000D+01
0.236941726325D-02 0.000000000000D+00 0.000000000000D+00 0.786045355821D-05 0.000000000000D+00  6 -3 2 25 -3 2 21 2 0.12570507D+00 0.34507534D+00 0.36872894D+06 0.36872894D+06 0.36872894D+06 0.10779855D+01  1  2 12  2  6  2        2 0.484784076022D-03 0.100000000000D+01
-.123030738363D-02 0.000000000000D+00 0.000000000000D+00 0.786045355821D-05 0.000000000000D+00  6 -3 2 25 -3 2 21 2 0.12570507D+00 0.31760551D+00 0.34042783D+06 0.34042783D+06 0.34042783D+06 0.10805131D+01  1  2  4  2  6  2        2 -.319825503421D-03 0.100000000000D+01
-.426109366686D-02 0.000000000000D+00 -.264937547628D-03 0.786045355821D-05 0.000000000000D+00  6 -3 2 25 -3 2 21 2 0.12570507D+00 0.34010506D+00 0.34042783D+06 0.34042783D+06 0.34042783D+06 0.10805131D+01  1  2  5  2  6  2        2 -.918633260321D-03 0.100000000000D+01
0.426984128535D-02 0.000000000000D+00 0.264318186551D-03 0.786045355821D-05 0.000000000000D+00  6 -3 2 25 -3 2 21 2 0.12570507D+00 0.31760551D+00 0.34042783D+06 0.34042783D+06 0.34042783D+06 0.10805131D+01  1  2  6  2  6  2        2 0.110996987971D-02 0.100000000000D+01
0.400418572282D-04 0.000000000000D+00 0.000000000000D+00 0.786045355821D-05 0.000000000000D+00  6 -3 21 25 -3 2 -2 2 0.12570507D+00 0.34507534D+00 0.36872894D+06 0.36872894D+06 0.36872894D+06 0.10779855D+01  1  2 12  6  6  2        2 0.124141363777D-05 0.100000000000D+01
-.497785767115D-04 0.000000000000D+00 -.307707569479D-05 0.786045355821D-05 0.000000000000D+00  6 -3 21 25 -3 2 -2 2 0.12570507D+00 0.34010506D+00 0.34042783D+06 0.34042783D+06 0.34042783D+06 0.10805131D+01  1  2  5  6  6  2        2 -.168978753079D-05 0.100000000000D+01
  </mgrwgt>
  </event>
  <event>
  5     66 0.16232397E-05 0.38710086E+02 0.75467711E-02 0.89240546E-01
       -3 -1    0    0    0  501 0.00000000E+00 0.00000000E+00 0.26529402E+03 0.26529449E+03 0.50000000E+00 0.0000E+00 0.9000E+01
        2 -1    0    0  502    0 0.00000000E+00 0.00000000E+00 -.26726538E+04 0.26726538E+04 0.32000000E+00 0.0000E+00 0.9000E+01
       25  1    1    2    0    0 0.27973446E+03 0.62381212E+03 -.84427540E+03 0.10935350E+04 0.12500000E+03 0.0000E+00 0.9000E+01
       -3  1    1    2    0  501 -.12236711E+02 -.36780064E+02 0.74698945E+02 0.84158734E+02 0.50000000E+00 0.0000E+00 0.9000E+01
        2  1    1    2  502    0 -.26749775E+03 -.58703206E+03 -.16377833E+04 0.17602545E+04 0.32000000E+00 0.0000E+00 0.9000E+01
#aMCatNLO 1  0  0  1  2 0.62293098D+02 0.00000000D+00  -5  6  0 0.00000000D+00 0.00000000D+00 0.00000000D+00 0.00000000D+00 0.00000000D+00
  <mgrwgt>
 0.6510858565D-04    4    2    0
 0.842044997291327D+03 0.000000000000000D+00 0.000000000000000D+00 0.842044997291327D+03
 0.842044997291327D+03 0.000000000000000D+00 0.000000000000000D+00 -.842044997291327D+03
 0.701027569317829D+03 0.279803457965324D+03 0.623955538274222D+03 0.905768409210518D+02
 0.253256022624559D+03 -.122202509523207D+02 -.367305901069265D+02 0.250280127482528D+03
 0.729806402640266D+03 -.267583207013003D+03 -.587224948167296D+03 -.340856968403580D+03
 0.000000000000000D+00 -.000000000000000D+00 0.000000000000000D+00 -.000000000000000D+00
 0.966663716315150D+03 0.000000000000000D+00 0.000000000000000D+00 0.966663716315150D+03
 0.966698503366011D+03 0.000000000000000D+00 0.000000000000000D+00 -.966698503366011D+03
 0.662264445247497D+03 0.336549961829210D+03 0.549089386639821D+03 0.905768409210518D+02
 0.258703830635581D+03 0.908988031874395D+01 -.648452299606047D+02 0.250280127482528D+03
 0.779191299547616D+03 -.204771760145471D+03 -.670092631378938D+03 -.340856968403580D+03
 0.233202644250468D+03 -.140868082002483D+03 0.185848474699722D+03 -.347870508609976D-01
0.656928155716D-04 0.000000000000D+00 0.000000000000D+00 0.720365562917D-06 0.000000000000D+00  6 -3 2 25 -3 2 21 0 0.40814502D-01 0.41117754D+00 0.47553327D+06 0.47553327D+06 0.47553327D+06 0.10700537D+01  1  2  2  1  6  1       -3 0.921673849650D-04 0.100000000000D+01
0.260964761406D-04 0.000000000000D+00 -.252277709110D-06 0.720365562917D-06 0.000000000000D+00  6 -3 2 25 -3 2 21 2 0.40814502D-01 0.41117754D+00 0.47553327D+06 0.47553327D+06 0.47553327D+06 0.10700537D+01  1  2  3  1  6  1       -3 0.419230084967D-04 0.100000000000D+01
-.402009276704D-04 0.000000000000D+00 0.000000000000D+00 0.720365562917D-06 0.000000000000D+00  6 -3 2 25 -3 2 21 2 0.40814502D-01 0.41117754D+00 0.47553327D+06 0.47553327D+06 0.47553327D+06 0.10700537D+01  1  2 15  1  6  1       -3 -.645812799865D-04 0.100000000000D+01
-.273926594431D-05 0.000000000000D+00 0.000000000000D+00 0.720365562917D-06 0.000000000000D+00  6 -3 2 25 -3 2 21 2 0.40814502D-01 0.41117754D+00 0.47553327D+06 0.47553327D+06 0.47553327D+06 0.10700537D+01  1  2  4  1  6  1       -3 -.440052782755D-05 0.100000000000D+01
  </mgrwgt>
  </event>
  <event>
  6     66 0.16232397E-05 0.84370101E+02 0.75467711E-02 0.91538535E-01
       -3 -1    0    0    0  501 0.00000000E+00 0.00000000E+00 0.46227584E+03 0.46227611E+03 0.50000000E+00 0.0000E+00 0.9000E+01
        2 -1    0    0  503    0 0.00000000E+00 0.00000000E+00 -.20718824E+04 0.20718824E+04 0.32000000E+00 0.0000E+00 0.9000E+01
       25  1    1    2    0    0 -.50865399E+03 -.37484656E+03 -.30957529E+03 0.71463325E+03 0.12500000E+03 0.0000E+00 0.9000E+01
       -3  1    1    2    0  501 -.29133785E+02 0.20757372E+02 0.18420575E+03 0.18764769E+03 0.50000000E+00 0.0000E+00 0.9000E+01
        2  1    1    2  502    0 0.44199137E+03 0.27285838E+03 -.94645516E+03 0.10796229E+04 0.32000000E+00 0.0000E+00 0.9000E+01
       21  1    1    2  503  502 0.95796402E+02 0.81230806E+02 -.53778185E+03 0.55225472E+03 0.75000000E+00 0.0000E+00 0.9000E+01
#aMCatNLO 2  0  0  2  2 0.12560014D+03 0.00000000D+00  -5  6  0 0.00000000D+00 0.00000000D+00 0.00000000D+00 0.00000000D+00 0.00000000D+00
  <mgrwgt>
 0.4262203498D-03    1    2    0
 0.831167718946788D+03 0.000000000000000D+00 0.000000000000000D+00 0.831167718946788D+03
 0.831167718946788D+03 0.000000000000000D+00 0.000000000000000D+00 -.831167718946788D+03
 0.604967941920114D+03 -.472681519699300D+03 -.344290623065676D+03 0.916371025014801D+02
 0.341543572738980D+03 -.946419073009002D+01 0.373986071160832D+02 0.339357901571347D+03
 0.715823923234481D+03 0.482145710429390D+03 0.306892015949593D+03 -.430995004072827D+03
 0.000000000000000D+00 0.000000000000000D+00 0.000000000000000D+00 -.000000000000000D+00
 0.846791998524558D+03 0.000000000000000D+00 0.000000000000000D+00 0.846791998524558D+03
 0.113106942028532D+04 0.000000000000000D+00 0.000000000000000D+00 -.113106942028532D+04
 0.650755722660840D+03 -.508812198268624D+03 -.374927724920438D+03 0.916371025014801D+02
 0.341234980988812D+03 -.291096375386433D+02 0.207401999483040D+02 0.339357901571347D+03
 0.675082930745457D+03 0.442125433772592D+03 0.272956719388872D+03 -.430995004072827D+03
 0.310787784414768D+03 0.957964020346756D+02 0.812308055832618D+02 -.284277421760761D+03
0.393020189469D-03 0.000000000000D+00 0.000000000000D+00 0.242763337115D-05 0.348159256993D-08  6 -3 2 25 -3 2 21 2 0.71119345D-01 0.31875099D+00 0.43904559D+06 0.43904559D+06 0.43904559D+06 0.10725237D+01  1  2  1  2  6  2        2 0.426220349756D-03 0.100000000000D+01
  </mgrwgt>
  </event>
  <event>
  5     66 0.16232397E-05 0.99800483E+02 0.75467711E-02 0.92533580E-01
       -3 -1    0    0    0  501 0.00000000E+00 0.00000000E+00 0.87170212E+03 0.87170226E+03 0.50000000E+00 0.0000E+00 0.9000E+01
        2 -1    0    0  502    0 0.00000000E+00 0.00000000E+00 -.18232144E+04 0.18232145E+04 0.32000000E+00 0.0000E+00 0.9000E+01
       25  1    1    2    0    0 0.55488579E+03 -.15049385E+03 0.24684197E+03 0.63804592E+03 0.12500000E+03 0.0000E+00 0.9000E+01
       -3  1    1    2    0  501 -.79981960E+02 -.59770228E+02 0.38123189E+03 0.39409085E+03 0.50000000E+00 0.0000E+00 0.9000E+01
        2  1    1    2  502    0 -.47490383E+03 0.21026408E+03 -.15795862E+04 0.16627800E+04 0.32000000E+00 0.0000E+00 0.9000E+01
#aMCatNLO 1  0  0  2  5 0.95206825D+02 0.00000000D+00  -5  6  0 0.00000000D+00 0.00000000D+00 0.00000000D+00 0.00000000D+00 0.00000000D+00
  <mgrwgt>
 0.4946544432D-03    3    2    0
 0.126067446875714D+04 0.000000000000000D+00 0.000000000000000D+00 0.126067446875714D+04
 0.126067446875714D+04 0.000000000000000D+00 0.000000000000000D+00 -.126067446875714D+04
 0.775347405372069D+03 0.554944831942668D+03 -.150559691397937D+03 0.504882770396735D+03
 0.564821593051586D+03 -.799440135818096D+02 -.597418708612777D+02 0.555934614442883D+03
 0.118117993909062D+04 -.475000818360858D+03 0.210301562259215D+03 -.106081738483962D+04
 0.000000000000000D+00 0.000000000000000D+00 -.000000000000000D+00 0.000000000000000D+00
 0.462514170036432D+04 0.000000000000000D+00 0.000000000000000D+00 0.462514170036432D+04
 0.169372502938598D+04 0.000000000000000D+00 0.000000000000000D+00 -.169372502938598D+04
 0.651572566903114D+03 0.337355017381176D+03 0.200516309423888D+03 0.504882770396735D+03
 0.662652189441178D+03 -.267120448070867D+03 0.242262863142187D+03 0.555934614442883D+03
 0.166827789216855D+04 -.909512222750187D+03 0.911375399156899D+03 -.106081738483962D+04
 0.333636408123746D+04 0.839277653439877D+03 -.135415457172297D+04 0.293141667097834D+04
0.480628888958D-02 0.000000000000D+00 0.000000000000D+00 0.648950462123D-05 0.000000000000D+00  6 -3 2 25 -3 2 21 0 0.13410803D+00 0.28049454D+00 0.36464077D+06 0.36464077D+06 0.36464077D+06 0.10783373D+01  1  2  2  2  6  2        2 0.118999192273D-02 0.100000000000D+01
0.868708498919D-03 0.000000000000D+00 -.184574148609D-04 0.648950462123D-05 0.000000000000D+00  6 -3 2 25 -3 2 21 2 0.13410803D+00 0.28049454D+00 0.36464077D+06 0.36464077D+06 0.36464077D+06 0.10783373D+01  1  2  3  2  6  2        2 0.250102159746D-03 0.100000000000D+01
-.328390386838D-02 0.000000000000D+00 0.000000000000D+00 0.648950462123D-05 0.000000000000D+00  6 -3 2 25 -3 2 21 2 0.13410803D+00 0.28049454D+00 0.36464077D+06 0.36464077D+06 0.36464077D+06 0.10783373D+01  1  2 15  2  6  2        2 -.945439639307D-03 0.100000000000D+01
  </mgrwgt>
  </event>
  <event>
  6     66 -.16232397E-05 0.49999512E+02 0.75467711E-02 0.95157707E-01
       -3 -1    0    0    0  501 0.00000000E+00 0.00000000E+00 0.27269125E+03 0.27269170E+03 0.50000000E+00 0.0000E+00 0.9000E+01
        2 -1    0    0  502    0 -.00000000E+00 -.00000000E+00 -.12223700E+04 0.12223700E+04 0.32000000E+00 0.0000E+00 0.9000E+01
       25  1    1    2    0    0 0.46482282E+03 0.55488725E+02 -.49187336E+03 0.69043729E+03 0.12500000E+03 0.0000E+00 0.9000E+01
       -3  1    1    2    0  503 -.11544029E+03 0.45969826E+01 -.13392732E+02 0.11630653E+03 0.50000000E+00 0.0000E+00 0.9000E+01
        2  1    1    2  502    0 -.62301749E+02 -.98927340E+01 -.38595489E+03 0.39107627E+03 0.32000000E+00 0.0000E+00 0.9000E+01
       21  1    1    2  503  501 -.28708078E+03 -.50192973E+02 -.58457746E+02 0.29724162E+03 0.75000000E+00 0.0000E+00 0.9000E+01
#aMCatNLO 2  0  0  4  1 0.18995088D+02 0.00000000D+00  -5  6  0 0.00000000D+00 0.00000000D+00 0.00000000D+00 0.00000000D+00 0.00000000D+00
  <mgrwgt>
 -.1632277919D-03    2    2    0
 0.577347350701857D+03 0.000000000000000D+00 0.000000000000000D+00 0.577347350701857D+03
 0.577347350701857D+03 -.000000000000000D+00 -.000000000000000D+00 -.577347350701857D+03
 0.489984028147649D+03 0.465411659378534D+03 0.555582824736190D+02 -.690261718690593D+02
 0.475415027120474D+03 -.403291107874136D+03 -.456832168956259D+02 0.247565696362967D+03
 0.189295646135591D+03 -.621205515043981D+02 -.987506557799301D+01 -.178539524493907D+03
 0.000000000000000D+00 0.000000000000000D+00 -.000000000000000D+00 0.000000000000000D+00
 0.577347350701857D+03 0.000000000000000D+00 0.000000000000000D+00 0.577347350701857D+03
 0.577347350701857D+03 -.000000000000000D+00 -.000000000000000D+00 -.577347350701857D+03
 0.489289992859342D+03 0.464750028832350D+03 0.554833355899512D+02 -.686200210174709D+02
 0.139204914960713D+03 -.115137009613705D+03 0.457519226641251D+01 0.781059855719018D+02
 0.189233241849741D+03 -.623762983837513D+02 -.990403556997092D+01 -.178382530816032D+03
 0.336966551733918D+03 -.287236720834893D+03 -.501544922863927D+02 0.168896566261601D+03
-.290584618681D-03 0.000000000000D+00 0.000000000000D+00 0.405633926208D-06 0.000000000000D+00  6 -3 2 25 -3 2 21 2 0.41952538D-01 0.18805696D+00 0.22773056D+06 0.22773056D+06 0.22773056D+06 0.10935205D+01  1  2 13  3  6  4       -3 -.308363909781D-02 0.100000000000D+01
0.275202959486D-03 0.000000000000D+00 0.000000000000D+00 0.405633926208D-06 0.107453555827D-08  6 -3 2 25 -3 2 21 2 0.41952538D-01 0.18805696D+00 0.22773056D+06 0.22773056D+06 0.22773056D+06 0.10935205D+01  1  2  1  3  6  4       -3 0.292041130586D-02 0.100000000000D+01
  </mgrwgt>
  </event>
  <event>
  5     66 0.16232397E-05 0.58596430E+02 0.75467711E-02 0.88203366E-01
       -3 -1    0    0    0  501 0.00000000E+00 0.00000000E+00 0.88759788E+03 0.88759802E+03 0.50000000E+00 0.0000E+00 0.9000E+01
        2 -1    0    0  502    0 0.00000000E+00 0.00000000E+00 -.16073935E+04 0.16073935E+04 0.32000000E+00 0.0000E+00 0.9000E+01
       25  1    1    2    0    0 -.56375635E+03 -.59897908E+03 0.24438036E+03 0.86714700E+03 0.12500000E+03 0.0000E+00 0.9000E+01
       -3  1    1    2    0  501 0.58359437E+03 0.65410391E+03 -.25039680E+03 0.91166503E+03 0.50000000E+00 0.0000E+00 0.9000E+01
        2  1    1    2  502    0 -.19838019E+02 -.55124834E+02 -.71377919E+03 0.71617953E+03 0.32000000E+00 0.0000E+00 0.9000E+01
#aMCatNLO 1  0  0  2  1 0.55719003D+02 0.00000000D+00  -5  6  0 0.00000000D+00 0.00000000D+00 0.00000000D+00 0.00000000D+00 0.00000000D+00
  <mgrwgt>
 0.1898659153D-03    7    2    0
 0.119445355315512D+04 0.000000000000000D+00 0.000000000000000D+00 0.119445355315512D+04
 0.119445355315512D+04 0.000000000000000D+00 0.000000000000000D+00 -.119445355315512D+04
 0.979258994876750D+03 -.563673362818059D+03 -.598879738499681D+03 0.516660989345002D+03
 0.876583251166088D+03 0.583514749443596D+03 0.654014672516859D+03 0.131735165902072D+02
 0.533064860267407D+03 -.198413866255369D+02 -.551349340171780D+02 -.529834505935210D+03
 0.000000000000000D+00 0.000000000000000D+00 0.000000000000000D+00 -.000000000000000D+00
 0.119593242299583D+04 0.000000000000000D+00 0.000000000000000D+00 0.119593242299583D+04
 0.186734448995524D+04 0.000000000000000D+00 0.000000000000000D+00 -.186734448995524D+04
 0.997105478342548D+03 -.571434936438153D+03 -.620578657744277D+03 0.516660989345002D+03
 0.857874795038050D+03 0.576703190139127D+03 0.634971694570378D+03 0.131735165902072D+02
 0.534576541160930D+03 -.240342252690835D+02 -.668567924424333D+02 -.529834505935210D+03
 0.673720098409546D+03 0.187659715681094D+02 0.524637556163324D+02 -.671412066959407D+03
0.124777748682D-04 0.000000000000D+00 0.000000000000D+00 0.186352932244D-06 0.000000000000D+00  6 -3 2 25 -3 2 21 0 0.13655353D+00 0.24729132D+00 0.78052969D+06 0.78052969D+06 0.78052969D+06 0.10551032D+01  1  2  2  2  6  2        2 0.365442698089D-05 0.100000000000D+01
0.514894240400D-05 0.000000000000D+00 -.479179409676D-07 0.186352932244D-06 0.000000000000D+00  6 -3 2 25 -3 2 21 2 0.13655353D+00 0.24729132D+00 0.78052969D+06 0.78052969D+06 0.78052969D+06 0.10551032D+01  1  2  3  2  6  2        2 0.167876570598D-05 0.100000000000D+01
-.733231091428D-05 0.000000000000D+00 0.000000000000D+00 0.186352932244D-06 0.000000000000D+00  6 -3 2 25 -3 2 21 2 0.13655353D+00 0.24729132D+00 0.78052969D+06 0.78052969D+06 0.78052969D+06 0.10551032D+01  1  2 15  2  6  2        2 -.239063309369D-05 0.100000000000D+01
-.239221765640D-03 0.000000000000D+00 0.000000000000D+00 0.186352932244D-06 0.000000000000D+00  6 -3 2 25 -3 2 21 2 0.13655353D+00 0.24729132D+00 0.78052969D+06 0.78052969D+06 0.78052969D+06 0.10551032D+01  1  2  4  2  6  2        2 -.779960746830D-04 0.100000000000D+01
-.135386520383D-02 0.000000000000D+00 -.722708822105D-05 0.186352932244D-06 0.000000000000D+00  6 -3 2 25 -3 2 21 2 0.13655353D+00 0.38671690D+00 0.78052969D+06 0.78052969D+06 0.78052969D+06 0.10551032D+01  1  2  5  2  6  2        2 -.136157534837D-03 0.100000000000D+01
0.123249590035D-02 0.000000000000D+00 0.656031576831D-05 0.186352932244D-06 0.000000000000D+00  6 -3 2 25 -3 2 21 2 0.13655353D+00 0.24729132D+00 0.78052969D+06 0.78052969D+06 0.78052969D+06 0.10551032D+01  1  2  6  2  6  2        2 0.401844046394D-03 0.100000000000D+01
-.697279011244D-04 0.000000000000D+00 -.373738529449D-06 0.186352932244D-06 0.000000000000D+00  6 -3 21 25 -3 2 -2 2 0.13655353D+00 0.38671690D+00 0.78052969D+06 0.78052969D+06 0.78052969D+06 0.10551032D+01  1  2  5  6  6  2        2 -.767081138408D-06 0.100000000000D+01
  </mgrwgt>
  </event>
  <event>
  5     66 0.16232397E-05 0.89144228E+02 0.75467711E-02 0.94463433E-01
       -3 -1    0    0    0  501 0.00000000E+00 0.00000000E+00 0.82769212E+03 0.82769227E+03 0.50000000E+00 0.0000E+00 0.9000E+01
        2 -1    0    0  502    0 0.00000000E+00 0.00000000E+00 -.92497075E+03 0.92497081E+03 0.32000000E+00 0.0000E+00 0.9000E+01
       25  1    1    2    0    0 -.47019999E+03 0.10894835E+03 0.97480240E+02 0.50802083E+03 0.12500000E+03 0.0000E+00 0.9000E+01
       -3  1    1    2    0  501 0.44907516E+02 -.77049471E+02 0.45706840E+03 0.46568775E+03 0.50000000E+00 0.0000E+00 0.9000E+01
        2  1    1    2  502    0 0.42529247E+03 -.31898883E+02 -.65182727E+03 0.77895450E+03 0.32000000E+00 0.0000E+00 0.9000E+01
#aMCatNLO 1  0  0  1  2 0.31715341D-02 0.00000000D+00  -5  6  0 0.00000000D+00 0.00000000D+00 0.00000000D+00 0.00000000D+00 0.00000000D+00
  <mgrwgt>
 0.3371634760D-03    9    2    0
 0.874980678963926D+03 0.000000000000000D+00 0.000000000000000D+00 0.874980678963926D+03
 0.874980678963926D+03 0.000000000000000D+00 0.000000000000000D+00 -.874980678963926D+03
 0.514363015187584D+03 -.470302923338401D+03 0.108934174190009D+03 0.126066717993917D+03
 0.491609947364150D+03 0.448888435922051D+02 -.770174340609925D+02 0.483460077895784D+03
 0.743988395376118D+03 0.425414079746196D+03 -.319167401290167D+02 -.609526795889701D+03
 0.000000000000000D+00 -.000000000000000D+00 0.000000000000000D+00 0.000000000000000D+00
 0.875120904342311D+03 0.000000000000000D+00 0.000000000000000D+00 0.875120904342311D+03
 0.874980696898331D+03 0.000000000000000D+00 0.000000000000000D+00 -.874980696898331D+03
 0.514362234597721D+03 -.470302208098059D+03 0.108933576332983D+03 0.126066717993917D+03
 0.491610099303924D+03 0.448895271942097D+02 -.770180054720790D+02 0.483460077895784D+03
 0.743989024029080D+03 0.425415114290142D+03 -.319176048863991D+02 -.609526795889701D+03
 0.140243309915181D+00 -.243338629272673D-02 0.203402549464148D-02 0.140207443979993D+00
0.706183330674D-06 0.000000000000D+00 0.000000000000D+00 0.496955338146D-05 0.000000000000D+00  6 -3 2 25 -3 2 21 0 0.12733727D+00 0.14230321D+00 0.25726637D+06 0.25726637D+06 0.25726637D+06 0.10895243D+01  1  2  2  1  6  1       -3 0.678365805529D-06 0.100000000000D+01
0.149142446392D-06 0.000000000000D+00 -.271192993213D-08 0.496955338146D-05 0.000000000000D+00  6 -3 2 25 -3 2 21 2 0.12733727D+00 0.14230321D+00 0.25726637D+06 0.25726637D+06 0.25726637D+06 0.10895243D+01  1  2  3  1  6  1       -3 0.170067589896D-06 0.100000000000D+01
-.414198500220D-06 0.000000000000D+00 0.000000000000D+00 0.496955338146D-05 0.000000000000D+00  6 -3 2 25 -3 2 21 2 0.12733727D+00 0.14230321D+00 0.25726637D+06 0.25726637D+06 0.25726637D+06 0.10895243D+01  1  2 15  1  6  1       -3 -.472311822521D-06 0.100000000000D+01
-.304423683412D+01 0.000000000000D+00 0.000000000000D+00 0.496955338146D-05 0.000000000000D+00  6 -3 2 25 -3 2 21 2 0.12733727D+00 0.14230321D+00 0.25726637D+06 0.25726637D+06 0.25726637D+06 0.10895243D+01  1  2  4  1  6  1       -3 -.347135261606D+01 0.100000000000D+01
-.382631718168D+01 0.000000000000D+00 -.974789188850D-03 0.496955338146D-05 0.000000000000D+00  6 -3 2 25 -3 2 21 2 0.12735767D+00 0.14230321D+00 0.25726637D+06 0.25726637D+06 0.25726637D+06 0.10895243D+01  1  2  5  1  6  1       -3 -.436109778908D+01 0.100000000000D+01
0.382631728877D+01 0.000000000000D+00 0.974789176332D-03 0.496955338146D-05 0.000000000000D+00  6 -3 2 25 -3 2 21 2 0.12733727D+00 0.14230321D+00 0.25726637D+06 0.25726637D+06 0.25726637D+06 0.10895243D+01  1  2  6  1  6  1       -3 0.436316136163D+01 0.100000000000D+01
0.304417169089D+01 0.000000000000D+00 0.000000000000D+00 0.496955338146D-05 0.250634280349D+01  6 -3 2 25 -3 2 21 2 0.12735767D+00 0.14230321D+00 0.25726855D+06 0.25726855D+06 0.25726855D+06 0.10895240D+01  1  2 11  1  6  1       -3 0.346963358293D+01 0.100000000000D+01
-.114946410158D-03 0.000000000000D+00 -.292836484139D-07 0.496955338146D-05 0.000000000000D+00  6 21 2 25 -3 2 3 2 0.12735767D+00 0.14230321D+00 0.25726637D+06 0.25726637D+06 0.25726637D+06 0.10895243D+01  1  2  5  5  6  1       -3 -.196108828793D-02 0.100000000000D+01
0.114492172836D-03 0.000000000000D+00 0.000000000000D+00 0.496955338146D-05 0.939571955793D-04  6 21 2 25 -3 2 3 2 0.12735767D+00 0.14230321D+00 0.25726855D+06 0.25726855D+06 0.25726855D+06 0.10895240D+01  1  2 11  5  6  1       -3 0.195333623281D-02 0.100000000000D+01
  </mgrwgt>
  </event>
  <event>
  5     66 -.16232397E-05 0.13971528E+03 0.75467711E-02 0.93352358E-01
       -3 -1    0    0    0  501 0.00000000E+00 0.00000000E+00 0.74133104E+03 0.74133121E+03 0.50000000E+00 0.0000E+00 0.9000E+01
        2 -1    0    0  502    0 0.00000000E+00 0.00000000E+00 -.57611245E+03 0.57611254E+03 0.32000000E+00 0.0000E+00 0.9000E+01
       25  1    1    2    0    0 -.15750801E+03 0.51711485E+03 0.13183152E+03 0.57028159E+03 0.12500000E+03 0.0000E+00 0.9000E+01
       -3  1    1    2    0  501 0.10287027E+03 -.94789376E+02 0.23695349E+03 0.27516272E+03 0.50000000E+00 0.0000E+00 0.9000E+01
        2  1    1    2  502    0 0.54637736E+02 -.42232547E+03 -.20356641E+03 0.47199944E+03 0.32000000E+00 0.0000E+00 0.9000E+01
#aMCatNLO 1  0  0  4  1 0.14924933D+02 0.00000000D+00  -5  6  0 0.00000000D+00 0.00000000D+00 0.00000000D+00 0.00000000D+00 0.00000000D+00
  <mgrwgt>
 -.5108393007D-03    7    2    0
 0.653521393233573D+03 0.000000000000000D+00 0.000000000000000D+00 0.653521393233573D+03
 0.653521393233573D+03 -.000000000000000D+00 -.000000000000000D+00 -.653521393233573D+03
 0.558251184792387D+03 -.157449694807508D+03 0.517201415914872D+03 0.610874316269563D+02
 0.247102379957350D+03 0.102746761998200D+03 -.946755676876512D+02 0.203811741473578D+03
 0.501689221717408D+03 0.547029328093087D+02 -.422525848227220D+03 -.264899173100535D+03
 0.000000000000000D+00 0.000000000000000D+00 0.000000000000000D+00 0.000000000000000D+00
 0.653521393233573D+03 0.000000000000000D+00 0.000000000000000D+00 0.653521393233573D+03
 0.653521393233573D+03 -.000000000000000D+00 -.000000000000000D+00 -.653521393233573D+03
 0.557937874722133D+03 -.157108084437859D+03 0.516886640489879D+03 0.617650608095186D+02
 0.153804511192889D+03 0.668253032504386D+02 -.712001142972282D+02 0.118830762990196D+03
 0.501639925033417D+03 0.550100023310716D+02 -.422808796134552D+03 -.264290060241241D+03
 0.936604755187057D+02 0.352727788563484D+02 -.228777300580992D+02 0.836942364415254D+02
0.611801408668D-05 0.000000000000D+00 0.000000000000D+00 0.498417362781D-07 0.000000000000D+00  6 -3 2 25 -3 2 21 0 0.11405095D+00 0.88632704D-01 0.31397326D+06 0.31397326D+06 0.31397326D+06 0.10830921D+01  1  2  2  3  6  4       -3 0.144443805480D-04 0.100000000000D+01
0.502935953181D-06 0.000000000000D+00 -.234947850029D-07 0.498417362781D-07 0.000000000000D+00  6 -3 2 25 -3 2 21 2 0.11405095D+00 0.88632704D-01 0.31397326D+06 0.31397326D+06 0.31397326D+06 0.10830921D+01  1  2  3  3  6  4       -3 0.139293842935D-05 0.100000000000D+01
-.335160457270D-05 0.000000000000D+00 0.000000000000D+00 0.498417362781D-07 0.000000000000D+00  6 -3 2 25 -3 2 21 2 0.11405095D+00 0.88632704D-01 0.31397326D+06 0.31397326D+06 0.31397326D+06 0.10830921D+01  1  2 15  3  6  4       -3 -.928265076249D-05 0.100000000000D+01
0.982964748894D-04 0.000000000000D+00 0.000000000000D+00 0.498417362781D-07 0.000000000000D+00  6 -3 2 25 -3 2 21 2 0.11405095D+00 0.88632704D-01 0.31391983D+06 0.31391983D+06 0.31391983D+06 0.10830976D+01  1  2 12  3  6  4       -3 0.272247470630D-03 0.100000000000D+01
-.344331382221D-03 0.000000000000D+00 0.000000000000D+00 0.498417362781D-07 0.000000000000D+00  6 -3 2 25 -3 2 21 2 0.11405095D+00 0.88632704D-01 0.31397326D+06 0.31397326D+06 0.31397326D+06 0.10830921D+01  1  2  4  3  6  4       -3 -.953664997882D-03 0.100000000000D+01
-.993172920935D-04 0.000000000000D+00 0.000000000000D+00 0.498417362781D-07 0.000000000000D+00  6 -3 2 25 -3 2 21 2 0.11405095D+00 0.88632704D-01 0.31397326D+06 0.31397326D+06 0.31397326D+06 0.10830921D+01  1  2  5  3  6  4       -3 -.275070557157D-03 0.100000000000D+01
0.158539826930D-03 0.000000000000D+00 -.000000000000D+00 0.498417362781D-07 0.000000000000D+00  6 -3 2 25 -3 2 21 2 0.11405095D+00 0.88632704D-01 0.31397326D+06 0.31397326D+06 0.31397326D+06 0.10830921D+01  1  2  6  3  6  4       -3 0.439094115496D-03 0.100000000000D+01
  </mgrwgt>
  </event>
  <event>
  5     66 0.16232397E-05 0.27429584E+02 0.75467711E-02 0.90298892E-01
       -3 -1    0    0    0  501 0.00000000E+00 0.00000000E+00 0.40967691E+03 0.40967722E+03 0.50000000E+00 0.0000E+00 0.9000E+01
        2 -1    0    0  502    0 0.00000000E+00 0.00000000E+00 -.19747383E+04 0.19747384E+04 0.32000000E+00 0.0000E+00 0.9000E+01
       25  1    1    2    0    0 0.36185496E+03 -.62171329E+03 -.57272498E+03 0.92795761E+03 0.12500000E+03 0.0000E+00 0.9000E+01
       -3  1    1    2    0  501 -.18584348E+02 -.20221053E+02 0.12220224E+03 0.12525138E+03 0.50000000E+00 0.0000E+00 0.9000E+01
        2  1    1    2  502    0 -.34327061E+03 0.64193434E+03 -.11145387E+04 0.13312066E+04 0.32000000E+00 0.0000E+00 0.9000E+01
#aMCatNLO 1  0  0  1  2 0.57089522D+01 0.00000000D+00  -5  6  0 0.00000000D+00 0.00000000D+00 0.00000000D+00 0.00000000D+00 0.00000000D+00
  <mgrwgt>
 0.4907621778D-04    8    2    0
 0.899447108249680D+03 0.000000000000000D+00 0.000000000000000D+00 0.899447108249680D+03
 0.899447108249680D+03 0.000000000000000D+00 0.000000000000000D+00 -.899447108249680D+03
 0.731936168317717D+03 0.361937133593621D+03 -.621904022267534D+03 0.483988936352579D+02
 0.271995620740129D+03 -.185610876756043D+02 -.201957443789309D+02 0.270609008784052D+03
 0.794962427441514D+03 -.343376045918017D+03 0.642099766646465D+03 -.319007902419310D+03
 0.000000000000000D+00 0.000000000000000D+00 -.000000000000000D+00 -.000000000000000D+00
 0.899544543664077D+03 0.000000000000000D+00 0.000000000000000D+00 0.899544543664077D+03
 0.987153589937597D+03 0.000000000000000D+00 0.000000000000000D+00 -.987153589937597D+03
 0.730092946761277D+03 0.359814127276413D+03 -.620968639963212D+03 0.483988936352579D+02
 0.272025053673481D+03 -.193510578044887D+02 -.198476888533716D+02 0.270609008784052D+03
 0.796785274977881D+03 -.345687416049285D+03 0.643118140780353D+03 -.319007902419310D+03
 0.877948581890350D+02 0.522434657736027D+01 -.230181196377009D+01 -.876090462735204D+02
0.549760952346D-04 0.000000000000D+00 0.000000000000D+00 0.840739038449D-06 0.000000000000D+00  6 -3 2 25 -3 2 21 0 0.63027243D-01 0.30380592D+00 0.55198334D+06 0.55198334D+06 0.55198334D+06 0.10654877D+01  1  2  2  1  6  1       -3 0.763172329630D-04 0.100000000000D+01
0.297689998983D-04 0.000000000000D+00 -.211122681239D-06 0.840739038449D-06 0.000000000000D+00  6 -3 2 25 -3 2 21 2 0.63027243D-01 0.30380592D+00 0.55198334D+06 0.55198334D+06 0.55198334D+06 0.10654877D+01  1  2  3  1  6  1       -3 0.469147962240D-04 0.100000000000D+01
-.456352594002D-04 0.000000000000D+00 0.000000000000D+00 0.840739038449D-06 0.000000000000D+00  6 -3 2 25 -3 2 21 2 0.63027243D-01 0.30380592D+00 0.55198334D+06 0.55198334D+06 0.55198334D+06 0.10654877D+01  1  2 15  1  6  1       -3 -.719194095435D-04 0.100000000000D+01
-.170047579566D-05 0.000000000000D+00 0.000000000000D+00 0.840739038449D-06 0.000000000000D+00  6 -3 2 25 -3 2 21 2 0.63027243D-01 0.30380592D+00 0.55198334D+06 0.55198334D+06 0.55198334D+06 0.10654877D+01  1  2  4  1  6  1       -3 -.267988429943D-05 0.100000000000D+01
0.573582886908D-06 0.000000000000D+00 0.000000000000D+00 0.840739038449D-06 0.000000000000D+00  6 -3 2 25 -3 2 21 2 0.71590801D-01 0.30380592D+00 0.55198334D+06 0.55198334D+06 0.55198334D+06 0.10654877D+01  1  2  5  1  6  1       -3 0.676035789197D-06 0.100000000000D+01
-.568959351117D-06 0.000000000000D+00 0.000000000000D+00 0.840739038449D-06 0.000000000000D+00  6 -3 2 25 -3 2 21 2 0.63027243D-01 0.30380592D+00 0.55198334D+06 0.55198334D+06 0.55198334D+06 0.10654877D+01  1  2  6  1  6  1       -3 -.896658003579D-06 0.100000000000D+01
0.540029873695D-06 0.000000000000D+00 0.000000000000D+00 0.840739038449D-06 0.143428654426D-06  6 -3 2 25 -3 2 21 2 0.63034070D-01 0.33343051D+00 0.55655577D+06 0.55655577D+06 0.55655577D+06 0.10652368D+01  1  2 11  1  6  1       -3 0.664025931493D-06 0.100000000000D+01
0.441409777611D-11 0.000000000000D+00 0.000000000000D+00 0.840739038449D-06 0.640766341723D-13  6 21 2 25 -3 2 3 2 0.63034070D-01 0.33343051D+00 0.55655577D+06 0.55655577D+06 0.55655577D+06 0.10652368D+01  1  2 11  5  6  1       -3 0.787235612863D-10 0.100000000000D+01
  </mgrwgt>
  </event>
  <event>
  5     66 0.16232397E-05 0.13326472E+02 0.75467711E-02 0.91888700E-01
       -3 -1    0    0    0  501 0.00000000E+00 0.00000000E+00 0.30404180E+03 0.30404221E+03 0.50000000E+00 0.0000E+00 0.9000E+01
        2 -1    0    0  502    0 0.00000000E+00 0.00000000E+00 -.19563880E+04 0.19563881E+04 0.32000000E+00 0.0000E+00 0.9000E+01
       25  1    1    2    0    0 -.34166725E+03 0.47133828E+03 -.28634355E+03 0.66069200E+03 0.12500000E+03 0.0000E+00 0.9000E+01
       -3  1    1    2    0  501 -.35645899E+01 0.12878993E+02 0.56432179E+02 0.57994962E+02 0.50000000E+00 0.0000E+00 0.9000E+01
        2  1    1    2  502    0 0.34523184E+03 -.48421727E+03 -.14224349E+04 0.15417433E+04 0.32000000E+00 0.0000E+00 0.9000E+01
#aMCatNLO 1  0  0  2  2 0.77539234D+02 0.00000000D+00  -5  6  0 0.00000000D+00 0.00000000D+00 0.00000000D+00 0.00000000D+00 0.00000000D+00
  <mgrwgt>
 0.1184380305D-03    4    2    0
 0.771248485990440D+03 0.000000000000000D+00 0.000000000000000D+00 0.771248485990440D+03
 0.771248485990440D+03 0.000000000000000D+00 0.000000000000000D+00 -.771248485990440D+03
 0.661783284344719D+03 -.341786640988015D+03 0.471521533527403D+03 0.288411946528188D+03
 0.145038451919361D+03 -.355479621592559D+01 0.128436083565176D+02 0.144424920576099D+03
 0.735675235716800D+03 0.345341437203941D+03 -.484365141883921D+03 -.432836867104287D+03
 0.000000000000000D+00 0.000000000000000D+00 0.000000000000000D+00 0.000000000000000D+00
 0.854928220469756D+03 0.000000000000000D+00 0.000000000000000D+00 0.854928220469756D+03
 0.790396151734500D+03 0.000000000000000D+00 0.000000000000000D+00 -.790396151734500D+03
 0.654563241172447D+03 -.362184507358154D+03 0.445498561640475D+03 0.288411946528188D+03
 0.144823692821781D+03 -.804644729683578D+01 0.711329776013425D+01 0.144424920576099D+03
 0.745057704492333D+03 0.322396268846861D+03 -.513637883466896D+03 -.432836867104287D+03
 0.100879733717695D+03 0.478346858081283D+02 0.610260240662865D+02 0.645320687352556D+02
0.504334330362D-04 0.000000000000D+00 0.000000000000D+00 0.156347769316D-05 0.000000000000D+00  6 -3 2 25 -3 2 21 0 0.46775695D-01 0.30098281D+00 0.36229982D+06 0.36229982D+06 0.36229982D+06 0.10785406D+01  1  2  2  2  6  2        2 0.138878451905D-03 0.100000000000D+01
0.309644663754D-04 0.000000000000D+00 -.193677662287D-06 0.156347769316D-05 0.000000000000D+00  6 -3 2 25 -3 2 21 2 0.46775695D-01 0.30098281D+00 0.36229982D+06 0.36229982D+06 0.36229982D+06 0.10785406D+01  1  2  3  2  6  2        2 0.991865921155D-04 0.100000000000D+01
-.371952215970D-04 0.000000000000D+00 0.000000000000D+00 0.156347769316D-05 0.000000000000D+00  6 -3 2 25 -3 2 21 2 0.46775695D-01 0.30098281D+00 0.36229982D+06 0.36229982D+06 0.36229982D+06 0.10785406D+01  1  2 15  2  6  2        2 -.119145191409D-03 0.100000000000D+01
-.150417157176D-06 0.000000000000D+00 0.000000000000D+00 0.156347769316D-05 0.000000000000D+00  6 -3 2 25 -3 2 21 2 0.46775695D-01 0.30098281D+00 0.36229982D+06 0.36229982D+06 0.36229982D+06 0.10785406D+01  1  2  4  2  6  2        2 -.481822132347D-06 0.100000000000D+01
  </mgrwgt>
  </event>
  <event>
  6     66 0.16232397E-05 0.26472421E+03 0.75467711E-02 0.91853120E-01
       21 -1    0    0  503  501 0.00000000E+00 0.00000000E+00 0.51622495E+03 0.51622549E+03 0.75000000E+00 0.0000E+00 0.9000E+01
        2 -1    0    0  502    0 0.00000000E+00 0.00000000E+00 -.12628709E+04 0.12628709E+04 0.32000000E+00 0.0000E+00 0.9000E+01
       25  1    1    2    0    0 0.12830036E+03 -.45611820E+03 -.34054140E+03 0.59673967E+03 0.12500000E+03 0.0000E+00 0.9000E+01
       -3  1    1    2    0  501 -.27078201E+03 -.21183109E+02 -.50014008E+03 0.56913264E+03 0.50000000E+00 0.0000E+00 0.9000E+01
        2  1    1    2  502    0 0.14834538E+03 0.48942578E+03 0.16779989E+03 0.53823866E+03 0.32000000E+00 0.0000E+00 0.9000E+01
        3  1    1    2  503    0 -.58637316E+01 -.12124477E+02 -.73764364E+02 0.74985450E+02 0.50000000E+00 0.0000E+00 0.9000E+01
#aMCatNLO 2  0  0  1  2 0.13467973D+02 0.00000000D+00  -5  6  0 0.00000000D+00 0.00000000D+00 0.00000000D+00 0.00000000D+00 0.00000000D+00
  <mgrwgt>
 0.2139479142D+00    1    2    0
 0.782790393839890D+03 0.000000000000000D+00 0.000000000000000D+00 0.782790393839890D+03
 0.782790393839890D+03 0.000000000000000D+00 0.000000000000000D+00 -.782790393839890D+03
 0.506392741325431D+03 0.126384217977216D+03 -.460174021078228D+03 -.114348188608594D+03
 0.405485862368998D+03 -.272147793822898D+03 -.243068922056283D+02 -.299605637279680D+03
 0.653702183985352D+03 0.145763575845682D+03 0.484480913283856D+03 0.413953825888274D+03
 0.000000000000000D+00 -.000000000000000D+00 -.000000000000000D+00 -.000000000000000D+00
 0.783745049048733D+03 0.000000000000000D+00 0.000000000000000D+00 0.783745049048733D+03
 0.831806082349321D+03 0.000000000000000D+00 0.000000000000000D+00 -.831806082349321D+03
 0.503321068670507D+03 0.128275075752013D+03 -.456264281826191D+03 -.114348188608594D+03
 0.404293320365811D+03 -.270631347035319D+03 -.211713250529577D+02 -.299605637279680D+03
 0.658024326964568D+03 0.148220002852110D+03 0.489560083814187D+03 0.413953825888274D+03
 0.499124153971683D+02 -.586373156880445D+01 -.121244769350386D+02 -.480610333005878D+02
0.625456197764D-02 0.000000000000D+00 0.000000000000D+00 0.451343467760D-11 0.516791742052D-10  6 21 2 25 -3 2 3 2 0.79419141D-01 0.19428756D+00 0.41382961D+06 0.41382961D+06 0.41382961D+06 0.10743651D+01  1  2  1  5  6  1       -3 0.213947914232D+00 0.100000000000D+01
  </mgrwgt>
  </event>
  <event>
  5     66 0.16232397E-05 0.28798293E+02 0.75467711E-02 0.94675059E-01
       -3 -1    0    0    0  501 0.00000000E+00 0.00000000E+00 0.27985974E+03 0.27986019E+03 0.50000000E+00 0.0000E+00 0.9000E+01
        2 -1    0    0  502    0 -.00000000E+00 -.00000000E+00 -.41154609E+04 0.41154609E+04 0.32000000E+00 0.0000E+00 0.9000E+01
       25  1    1    2    0    0 -.48131218E+03 -.78540373E+02 -.15816894E+04 0.16598784E+04 0.12500000E+03 0.0000E+00 0.9000E+01
       -3  1    1    2    0  501 0.45944855E+03 0.59803439E+02 0.17686386E+02 0.46366203E+03 0.50000000E+00 0.0000E+00 0.9000E+01
        2  1    1    2  502    0 0.21863625E+02 0.18736934E+02 -.22715981E+04 0.22717806E+04 0.32000000E+00 0.0000E+00 0.9000E+01
#aMCatNLO 1  0  0  5  2 0.24469811D+01 0.00000000D+00  -5  6  0 0.00000000D+00 0.00000000D+00 0.00000000D+00 0.00000000D+00 0.00000000D+00
  <mgrwgt>
 0.4177126519D-02    8    2    0
 0.107319748187445D+04 0.000000000000000D+00 0.000000000000000D+00 0.107319748187445D+04
 0.107319748187445D+04 -.000000000000000D+00 -.000000000000000D+00 -.107319748187445D+04
 0.572519690852658D+03 -.481304264011389D+03 -.785416110804987D+02 -.272637519771873D+03
 0.981053954285425D+03 0.459437226528725D+03 0.598019645472003D+02 0.864758938164248D+03
 0.592821318610810D+03 0.218670374826648D+02 0.187396465332994D+02 -.592121418392375D+03
 0.000000000000000D+00 0.000000000000000D+00 0.000000000000000D+00 0.000000000000000D+00
 0.107319748187445D+04 0.000000000000000D+00 0.000000000000000D+00 0.107319748187445D+04
 0.107319748187445D+04 -.000000000000000D+00 -.000000000000000D+00 -.107319748187445D+04
 0.572522084954661D+03 -.481304063444943D+03 -.785414391987653D+02 -.272642950763091D+03
 0.981045930043152D+03 0.459437570211732D+03 0.598022590771784D+02 0.864749631824980D+03
 0.268253988251596D+03 0.749245648216160D+01 0.802418957563295D+01 -.268029247826435D+03
 0.324572960499484D+03 0.143740367510501D+02 0.107149905459550D+02 -.324077433235453D+03
0.268982083417D-04 0.000000000000D+00 0.000000000000D+00 0.586477707044D-04 0.000000000000D+00  6 -3 2 25 -3 2 21 0 0.43055380D-01 0.63314787D+00 0.24777844D+06 0.24777844D+06 0.24777844D+06 0.10907509D+01  1  2  2  4  6  5        2 0.342407590770D-05 0.100000000000D+01
0.150403516419D-04 0.000000000000D+00 -.103296202493D-06 0.586477707044D-04 0.000000000000D+00  6 -3 2 25 -3 2 21 2 0.43055380D-01 0.63314787D+00 0.24777844D+06 0.24777844D+06 0.24777844D+06 0.10907509D+01  1  2  3  4  6  5        2 0.227787110072D-05 0.100000000000D+01
-.181571076915D-04 0.000000000000D+00 0.000000000000D+00 0.586477707044D-04 0.000000000000D+00  6 -3 2 25 -3 2 21 2 0.43055380D-01 0.63314787D+00 0.24777844D+06 0.24777844D+06 0.24777844D+06 0.10907509D+01  1  2 15  4  6  5        2 -.274990584448D-05 0.100000000000D+01
0.266585530530D-03 0.000000000000D+00 0.000000000000D+00 0.586477707044D-04 0.000000000000D+00  6 -3 2 25 -3 2 21 2 0.43055380D-01 0.63314787D+00 0.24783247D+06 0.24783247D+06 0.24783247D+06 0.10907437D+01  1  2 12  4  6  5        2 0.403732538973D-04 0.100000000000D+01
-.592130289507D-01 0.000000000000D+00 0.000000000000D+00 0.586477707044D-04 0.000000000000D+00  6 -3 2 25 -3 2 21 2 0.43055380D-01 0.63314787D+00 0.24777844D+06 0.24777844D+06 0.24777844D+06 0.10907509D+01  1  2  4  4  6  5        2 -.896785199206D-02 0.100000000000D+01
-.615177206156D-01 0.000000000000D+00 0.000000000000D+00 0.586477707044D-04 0.000000000000D+00  6 -3 2 25 -3 2 21 2 0.43055380D-01 0.63314787D+00 0.24777844D+06 0.24777844D+06 0.24777844D+06 0.10907509D+01  1  2  5  4  6  5        2 -.931689905323D-02 0.100000000000D+01
0.102125184184D+00 0.000000000000D+00 -.000000000000D+00 0.586477707044D-04 0.000000000000D+00  6 -3 2 25 -3 2 21 2 0.43055380D-01 0.63314787D+00 0.24777844D+06 0.24777844D+06 0.24777844D+06 0.10907509D+01  1  2  6  4  6  5        2 0.154669259900D-01 0.100000000000D+01
0.459017493242D-01 0.000000000000D+00 0.000000000000D+00 0.586477707044D-04 0.127389641619D-04  6 -3 2 25 -3 2 21 2 0.43055380D-01 0.63314787D+00 0.24783247D+06 0.24783247D+06 0.24783247D+06 0.10907437D+01  1  2 11  4  6  5        2 0.695162627960D-02 0.100000000000D+01
  </mgrwgt>
  </event>
  <event>
  6     66 0.16232397E-05 0.16710620E+03 0.75467711E-02 0.94706809E-01
       21 -1    0    0  503  501 0.00000000E+00 0.00000000E+00 0.19441159E+04 0.19441160E+04 0.75000000E+00 0.0000E+00 0.9000E+01
        2 -1    0    0  502    0 0.00000000E+00 0.00000000E+00 -.78417551E+03 0.78417558E+03 0.32000000E+00 0.0000E+00 0.9000E+01
       25  1    1    2    0    0 0.22185698E+03 -.42965265E+03 -.47827177E+03 0.69151342E+03 0.12500000E+03 0.0000E+00 0.9000E+01
       -3  1    1    2    0  501 -.86182021E+02 0.27253577E+03 0.25341271E+03 0.38199651E+03 0.50000000E+00 0.0000E+00 0.9000E+01
        2  1    1    2  502    0 -.17506889E+02 0.20540733E+02 -.12821569E+03 0.13102587E+03 0.32000000E+00 0.0000E+00 0.9000E+01
        3  1    1    2  503    0 -.11816807E+03 0.13657615E+03 0.15130151E+04 0.15237558E+04 0.50000000E+00 0.0000E+00 0.9000E+01
#aMCatNLO 2  0  0  1  5 0.59986508D+03 0.00000000D+00  -5  6  0 0.00000000D+00 0.00000000D+00 0.00000000D+00 0.00000000D+00 0.00000000D+00
  <mgrwgt>
 0.2454656791D-03    1    2    0
 0.568688838323689D+03 0.000000000000000D+00 0.000000000000000D+00 0.568688838323689D+03
 0.568688838323689D+03 0.000000000000000D+00 0.000000000000000D+00 -.568688838323689D+03
 0.509233812949642D+03 0.165799299788771D+03 -.364862633507191D+03 -.288235887965016D+03
 0.524898543643928D+03 -.137916671174685D+03 0.332329636152136D+03 0.382170754855208D+03
 0.103245320053807D+03 -.278826286140863D+02 0.325329973550556D+02 -.939348668901915D+02
 0.000000000000000D+00 -.000000000000000D+00 0.000000000000000D+00 0.000000000000000D+00
 0.262947586985701D+04 0.000000000000000D+00 0.000000000000000D+00 0.262947586985701D+04
 0.579784051091346D+03 0.000000000000000D+00 0.000000000000000D+00 -.579784051091346D+03
 0.576652006665621D+03 0.221857303960879D+03 -.429653286220083D+03 -.288235887965016D+03
 0.477239609808951D+03 -.861820746153575D+02 0.272535886295720D+03 0.382170754855208D+03
 0.977353706972910D+02 -.175071580101604D+02 0.205412484057368D+02 -.939348668901915D+02
 0.205763293377650D+04 -.118168071335361D+03 0.136576151518626D+03 0.204969181876567D+04
0.222060625937D-03 0.000000000000D+00 0.000000000000D+00 0.809172376484D-06 0.185402764520D-09  6 21 2 25 -3 2 3 2 0.29909475D+00 0.12064240D+00 0.24645053D+06 0.24645053D+06 0.24645053D+06 0.10909266D+01  1  2  1  5  6  1       -3 0.245465679099D-03 0.100000000000D+01
  </mgrwgt>
  </event>
  <event>
  6     66 0.16232397E-05 0.21956630E+03 0.75467711E-02 0.90568804E-01
       21 -1    0    0  503  501 0.00000000E+00 0.00000000E+00 0.27362190E+03 0.27362292E+03 0.75000000E+00 0.0000E+00 0.9000E+01
        2 -1    0    0  502    0 0.00000000E+00 0.00000000E+00 -.19723353E+04 0.19723353E+04 0.32000000E+00 0.0000E+00 0.9000E+01
       25  1    1    2    0    0 -.53211909E+03 -.15316990E+03 -.63755327E+03 0.85364566E+03 0.12500000E+03 0.0000E+00 0.9000E+01
       -3  1    1    2    0  501 -.77546297E+02 0.22269340E+03 -.35785158E+03 0.42856012E+03 0.50000000E+00 0.0000E+00 0.9000E+01
        2  1    1    2  502    0 0.60988810E+03 -.10139938E+03 -.69618662E+03 0.93108606E+03 0.32000000E+00 0.0000E+00 0.9000E+01
        3  1    1    2  503    0 -.22271190E+00 0.31875876E+02 -.71219016E+01 0.32666383E+02 0.50000000E+00 0.0000E+00 0.9000E+01
#aMCatNLO 2  0  0  1  4 0.31876654D+02 0.00000000D+00  -5  6  0 0.00000000D+00 0.00000000D+00 0.00000000D+00 0.00000000D+00 0.00000000D+00
  <mgrwgt>
 0.2772264558D-01    2    2    0
 0.713470905210372D+03 0.000000000000000D+00 0.000000000000000D+00 0.713470905210372D+03
 0.713470905210372D+03 0.000000000000000D+00 0.000000000000000D+00 -.713470905210372D+03
 0.565126536895850D+03 -.532453174687315D+03 -.140385086013467D+03 0.229923268567490D+02
 0.245176914893938D+03 -.774841410084425D+02 0.227826100615277D+03 -.469382079710211D+02
 0.616638358630956D+03 0.609937315695758D+03 -.874410146018099D+02 0.239458811142722D+02
 0.000000000000000D+00 -.000000000000000D+00 0.000000000000000D+00 0.000000000000000D+00
 0.748590409294838D+03 0.000000000000000D+00 0.000000000000000D+00 0.748590409294838D+03
 0.720919066218040D+03 0.000000000000000D+00 0.000000000000000D+00 -.720919066218040D+03
 0.568320431231445D+03 -.532364733574762D+03 -.153043313825467D+03 0.229923268567490D+02
 0.240136674846598D+03 -.774462727402122D+02 0.222406164657140D+03 -.469382079710211D+02
 0.618840708472365D+03 0.610033718215067D+03 -.101238727179567D+03 0.239458811142722D+02
 0.422116609624704D+02 -.222711900093027D+00 0.318758763478938D+02 0.276713430767986D+02
-.436711578219D-07 0.000000000000D+00 0.000000000000D+00 0.854416324553D-10 0.000000000000D+00  6 21 2 25 -3 2 3 2 0.43107991D-01 0.30030072D+00 0.52824817D+06 0.52824817D+06 0.52824817D+06 0.10668276D+01  1  2 13  5  6  1       -3 -.239123654699D-05 0.100000000000D+01
0.494149351312D-03 0.000000000000D+00 0.000000000000D+00 0.854416324553D-10 0.457966230484D-10  6 21 2 25 -3 2 3 2 0.42095672D-01 0.30343566D+00 0.52824817D+06 0.52824817D+06 0.52824817D+06 0.10668276D+01  1  2  1  5  6  1       -3 0.277250368152D-01 0.100000000000D+01
  </mgrwgt>
  </event>
  <event>
  6     66 0.16232397E-05 0.44220961E+02 0.75467711E-02 0.94548470E-01
       21 -1    0    0  503  501 0.00000000E+00 0.00000000E+00 0.15471280E+04 0.15471282E+04 0.75000000E+00 0.0000E+00 0.9000E+01
        2 -1    0    0  502    0 0.00000000E+00 0.00000000E+00 -.42269682E+03 0.42269694E+03 0.32000000E+00 0.0000E+00 0.9000E+01
       25  1    1    2    0    0 0.45404141E+03 -.17730993E+03 0.30213639E+03 0.58694447E+03 0.12500000E+03 0.0000E+00 0.9000E+01
       -3  1    1    2    0  501 -.38265163E+02 0.28868344E+02 0.78966420E+03 0.79111782E+03 0.50000000E+00 0.0000E+00 0.9000E+01
        2  1    1    2  502    0 -.42309535E+03 0.14749752E+03 -.99863782E+02 0.45906216E+03 0.32000000E+00 0.0000E+00 0.9000E+01
        3  1    1    2  503    0 0.73191053E+01 0.94406729E+00 0.13249440E+03 0.13270071E+03 0.50000000E+00 0.0000E+00 0.9000E+01
#aMCatNLO 2  0  0  1  5 0.73797402D+01 0.00000000D+00  -5  6  0 0.00000000D+00 0.00000000D+00 0.00000000D+00 0.00000000D+00 0.00000000D+00
  <mgrwgt>
 0.3743234923D-03    1    2    0
 0.773148296294300D+03 0.000000000000000D+00 0.000000000000000D+00 0.773148296294300D+03
 0.773148296294300D+03 0.000000000000000D+00 0.000000000000000D+00 -.773148296294300D+03
 0.505676223229125D+03 0.456550054060427D+03 -.177040205072542D+03 -.173855303216608D+02
 0.432981148408592D+03 -.361974044887449D+02 0.291191920752829D+02 0.430481701630144D+03
 0.607639220950883D+03 -.420352649571682D+03 0.147921012997259D+03 -.413096171308483D+03
 0.000000000000000D+00 0.000000000000000D+00 0.000000000000000D+00 0.000000000000000D+00
 0.845631609079800D+03 0.000000000000000D+00 0.000000000000000D+00 0.845631609079800D+03
 0.773344962353891D+03 0.000000000000000D+00 0.000000000000000D+00 -.773344962353891D+03
 0.503629077051548D+03 0.454161388854259D+03 -.177348311131511D+03 -.173855303216608D+02
 0.433139634752673D+03 -.382472030764475D+02 0.288547953055279D+02 0.430481701630144D+03
 0.609545490684069D+03 -.423233291107353D+03 0.147549448531646D+03 -.413096171308483D+03
 0.726623689454012D+02 0.731910532954195D+01 0.944067294336804D+00 0.722866467259095D+02
0.640439003332D-04 0.000000000000D+00 0.000000000000D+00 0.551649817229D-05 0.811839041614D-08  6 21 2 25 -3 2 3 2 0.23801946D+00 0.65030231D-01 0.25342924D+06 0.25342924D+06 0.25342924D+06 0.10900143D+01  1  2  1  5  6  1       -3 0.374323492324D-03 0.100000000000D+01
  </mgrwgt>
  </event>
  <event>
  5     66 0.16232397E-05 0.16587627E+03 0.75467711E-02 0.93363252E-01
       -3 -1    0    0    0  501 0.00000000E+00 0.00000000E+00 0.55276571E+03 0.55276593E+03 0.50000000E+00 0.0000E+00 0.9000E+01
        2 -1    0    0  502    0 -.00000000E+00 -.00000000E+00 -.13407385E+04 0.13407386E+04 0.32000000E+00 0.0000E+00 0.9000E+01
       25  1    1    2    0    0 0.54990714E+03 0.10260248E+02 -.17090091E+03 0.58935155E+03 0.12500000E+03 0.0000E+00 0.9000E+01
       -3  1    1    2    0  501 -.16561537E+03 0.10451621E+02 0.28142302E+03 0.32670607E+03 0.50000000E+00 0.0000E+00 0.9000E+01
        2  1    1    2  502    0 -.38429176E+03 -.20711869E+02 -.89849492E+03 0.97744686E+03 0.32000000E+00 0.0000E+00 0.9000E+01
#aMCatNLO 1  0  0  4  1 0.21029576D+02 0.00000000D+00  -5  6  0 0.00000000D+00 0.00000000D+00 0.00000000D+00 0.00000000D+00 0.00000000D+00
  <mgrwgt>
 0.3802699706D-03    7    2    0
 0.860880087165866D+03 0.000000000000000D+00 0.000000000000000D+00 0.860880087165866D+03
 0.860880087165866D+03 -.000000000000000D+00 -.000000000000000D+00 -.860880087165866D+03
 0.570014043577245D+03 0.549963320429465D+03 0.102691768927285D+02 0.820115849342330D+02
 0.487887601479929D+03 -.165546945888781D+03 0.104473027980000D+02 0.458823903310390D+03
 0.663858529274558D+03 -.384416374540684D+03 -.207164796907285D+02 -.540835488244623D+03
 0.000000000000000D+00 0.000000000000000D+00 0.000000000000000D+00 0.000000000000000D+00
 0.860880087165866D+03 0.000000000000000D+00 0.000000000000000D+00 0.860880087165866D+03
 0.860880087165866D+03 -.000000000000000D+00 -.000000000000000D+00 -.860880087165866D+03
 0.569883584971568D+03 0.549731692269831D+03 0.102837944352465D+02 0.826535571297906D+02
 0.160143419375501D+03 -.452161082864892D+02 -.154359736049824D+02 0.152850086815704D+03
 0.663405521546065D+03 -.384686075715369D+03 -.206994594441647D+02 -.540087994263190D+03
 0.328327648438599D+03 -.119829508267972D+03 0.258516386139006D+02 0.304584350317695D+03
0.187731851924D-04 0.000000000000D+00 0.000000000000D+00 0.752185194916D-06 0.000000000000D+00  6 -3 2 25 -3 2 21 0 0.85040898D-01 0.20626748D+00 0.31076939D+06 0.31076939D+06 0.31076939D+06 0.10834205D+01  1  2  2  3  6  4       -3 0.297323382418D-04 0.100000000000D+01
0.208882121028D-05 0.000000000000D+00 -.720939742320D-07 0.752185194916D-06 0.000000000000D+00  6 -3 2 25 -3 2 21 2 0.85040898D-01 0.20626748D+00 0.31076939D+06 0.31076939D+06 0.31076939D+06 0.10834205D+01  1  2  3  3  6  4       -3 0.388317031346D-05 0.100000000000D+01
-.116506547667D-04 0.000000000000D+00 0.000000000000D+00 0.752185194916D-06 0.000000000000D+00  6 -3 2 25 -3 2 21 2 0.85040898D-01 0.20626748D+00 0.31076939D+06 0.31076939D+06 0.31076939D+06 0.10834205D+01  1  2 15  3  6  4       -3 -.216588554825D-04 0.100000000000D+01
0.231414789615D-03 0.000000000000D+00 0.000000000000D+00 0.752185194916D-06 0.000000000000D+00  6 -3 2 25 -3 2 21 2 0.85040898D-01 0.20626748D+00 0.31330053D+06 0.31330053D+06 0.31330053D+06 0.10831608D+01  1  2 12  3  6  4       -3 0.429850031268D-03 0.100000000000D+01
-.223607277421D-03 0.000000000000D+00 0.000000000000D+00 0.752185194916D-06 0.000000000000D+00  6 -3 2 25 -3 2 21 2 0.85040898D-01 0.20626748D+00 0.31076939D+06 0.31076939D+06 0.31076939D+06 0.10834205D+01  1  2  4  3  6  4       -3 -.415691461424D-03 0.100000000000D+01
-.236138101353D-03 0.000000000000D+00 0.000000000000D+00 0.752185194916D-06 0.000000000000D+00  6 -3 2 25 -3 2 21 2 0.85040898D-01 0.20626748D+00 0.31076939D+06 0.31076939D+06 0.31076939D+06 0.10834205D+01  1  2  5  3  6  4       -3 -.438986573163D-03 0.100000000000D+01
0.426643767857D-03 0.000000000000D+00 -.000000000000D+00 0.752185194916D-06 0.000000000000D+00  6 -3 2 25 -3 2 21 2 0.85040898D-01 0.20626748D+00 0.31076939D+06 0.31076939D+06 0.31076939D+06 0.10834205D+01  1  2  6  3  6  4       -3 0.793141320862D-03 0.100000000000D+01
  </mgrwgt>
  </event>
  <event>
  5     66 0.16232397E-05 0.14562833E+02 0.75467711E-02 0.94737743E-01
       -3 -1    0    0    0  501 0.00000000E+00 0.00000000E+00 0.25346086E+03 0.25346135E+03 0.50000000E+00 0.0000E+00 0.9000E+01
        2 -1    0    0  502    0 0.00000000E+00 0.00000000E+00 -.11355057E+04 0.11355058E+04 0.32000000E+00 0.0000E+00 0.9000E+01
       25  1    1    2    0    0 0.37178405E+03 0.27007730E+03 -.21543554E+03 0.52268786E+03 0.12500000E+03 0.0000E+00 0.9000E+01
       -3  1    1    2    0  501 -.48512757E+01 0.13837836E+02 0.27630462E+02 0.31284389E+02 0.50000000E+00 0.0000E+00 0.9000E+01
        2  1    1    2  502    0 -.36693277E+03 -.28391514E+03 -.69423977E+03 0.83499486E+03 0.32000000E+00 0.0000E+00 0.9000E+01
#aMCatNLO 1  0  0  1  2 0.15460948D+04 0.00000000D+00  -5  6  0 0.00000000D+00 0.00000000D+00 0.00000000D+00 0.00000000D+00 0.00000000D+00
  <mgrwgt>
 0.9353573384D-04    7    2    0
 0.536476122510381D+03 0.000000000000000D+00 0.000000000000000D+00 0.536476122510381D+03
 0.536476122510381D+03 0.000000000000000D+00 0.000000000000000D+00 -.536476122510381D+03
 0.499835466450803D+03 0.371936253157933D+03 0.270275411820912D+03 0.151079842712279D+03
 0.627765081069804D+02 -.481794457671798D+01 0.137427618448187D+02 0.610640145833701D+02
 0.510340270462978D+03 -.367118308581215D+03 -.284018173665731D+03 -.212143857295649D+03
 0.000000000000000D+00 0.000000000000000D+00 -.000000000000000D+00 0.000000000000000D+00
 0.980627250630759D+03 0.000000000000000D+00 0.000000000000000D+00 0.980627250630759D+03
 0.537348835617949D+03 0.000000000000000D+00 0.000000000000000D+00 -.537348835617949D+03
 0.500887650980943D+03 0.363593693027733D+03 0.283263033983778D+03 0.151079842712279D+03
 0.632435359070533D+02 -.586851468595618D+01 0.153782798898125D+02 0.610640145833701D+02
 0.509331759868798D+03 -.375618836927114D+03 -.270784628013284D+03 -.212143857295649D+03
 0.444513139491914D+03 0.178936585853373D+02 -.278566858603066D+02 0.443278415012810D+03
0.955022302661D-06 0.000000000000D+00 0.000000000000D+00 0.349879591407D-06 0.000000000000D+00  6 -3 2 25 -3 2 21 0 0.38994020D-01 0.17469323D+00 0.22809048D+06 0.22809048D+06 0.22809048D+06 0.10934684D+01  1  2  2  1  6  1       -3 0.110200372693D-04 0.100000000000D+01
0.408165568036D-06 0.000000000000D+00 -.366753710537D-08 0.349879591407D-06 0.000000000000D+00  6 -3 2 25 -3 2 21 2 0.38994020D-01 0.17469323D+00 0.22809048D+06 0.22809048D+06 0.22809048D+06 0.10934684D+01  1  2  3  1  6  1       -3 0.563142641523D-05 0.100000000000D+01
-.615853781280D-06 0.000000000000D+00 0.000000000000D+00 0.349879591407D-06 0.000000000000D+00  6 -3 2 25 -3 2 21 2 0.38994020D-01 0.17469323D+00 0.22809048D+06 0.22809048D+06 0.22809048D+06 0.10934684D+01  1  2 15  1  6  1       -3 -.849688343019D-05 0.100000000000D+01
-.296943949426D-04 0.000000000000D+00 0.000000000000D+00 0.349879591407D-06 0.000000000000D+00  6 -3 2 25 -3 2 21 2 0.38994020D-01 0.17469323D+00 0.22809048D+06 0.22809048D+06 0.22809048D+06 0.10934684D+01  1  2  4  1  6  1       -3 -.409691098808D-03 0.100000000000D+01
-.120350103076D-03 0.000000000000D+00 -.609695288770D-06 0.349879591407D-06 0.000000000000D+00  6 -3 2 25 -3 2 21 2 0.71316544D-01 0.17469323D+00 0.22809048D+06 0.22809048D+06 0.22809048D+06 0.10934684D+01  1  2  5  1  6  1       -3 -.459116975784D-03 0.100000000000D+01
0.101709339035D-03 0.000000000000D+00 0.513279876039D-06 0.349879591407D-06 0.000000000000D+00  6 -3 2 25 -3 2 21 2 0.38994020D-01 0.17469323D+00 0.22809048D+06 0.22809048D+06 0.22809048D+06 0.10934684D+01  1  2  6  1  6  1       -3 0.140327529653D-02 0.100000000000D+01
-.790920071641D-05 0.000000000000D+00 -.402361865645D-07 0.349879591407D-06 0.000000000000D+00  6 21 2 25 -3 2 3 2 0.71316544D-01 0.17469323D+00 0.22809048D+06 0.22809048D+06 0.22809048D+06 0.10934684D+01  1  2  5  5  6  1       -3 -.449086068353D-03 0.100000000000D+01
  </mgrwgt>
  </event>
  <event>
  6     66 -.16232397E-05 0.13191395E+03 0.75467711E-02 0.92375091E-01
       21 -1    0    0  503  501 0.00000000E+00 0.00000000E+00 0.75389776E+03 0.75389813E+03 0.75000000E+00 0.0000E+00 0.9000E+01
        2 -1    0    0  502    0 0.00000000E+00 0.00000000E+00 -.11959811E+04 0.11959811E+04 0.32000000E+00 0.0000E+00 0.9000E+01
       25  1    1    2    0    0 -.39714177E+03 0.20977100E+03 -.66198720E+03 0.80967741E+03 0.12500000E+03 0.0000E+00 0.9000E+01
       -3  1    1    2    0  501 -.95599848E+02 0.11065218E+03 0.16320032E+03 0.21912971E+03 0.50000000E+00 0.0000E+00 0.9000E+01
        2  1    1    2  502    0 0.49980372E+03 -.34791345E+03 -.21656404E+03 0.64633398E+03 0.32000000E+00 0.0000E+00 0.9000E+01
        3  1    1    2  503    0 -.70621086E+01 0.27490273E+02 0.27326763E+03 0.27473812E+03 0.50000000E+00 0.0000E+00 0.9000E+01
#aMCatNLO 2  0  0  1  4 0.28382891D+02 0.00000000D+00  -5  6  0 0.00000000D+00 0.00000000D+00 0.00000000D+00 0.00000000D+00 0.00000000D+00
  <mgrwgt>
 -.1050971317D-03    1    2    0
 0.757226053240799D+03 0.000000000000000D+00 0.000000000000000D+00 0.757226053240799D+03
 0.757226053240799D+03 0.000000000000000D+00 0.000000000000000D+00 -.757226053240799D+03
 0.588732979117114D+03 -.400032430585648D+03 0.220509132405020D+03 -.349758913690325D+03
 0.321647267321884D+03 -.970122426438210D+02 0.116373086799881D+03 0.283730319179180D+03
 0.604071860042599D+03 0.497044673229469D+03 -.336882219204901D+03 0.660285945111450D+02
 0.000000000000000D+00 -.000000000000000D+00 0.000000000000000D+00 0.000000000000000D+00
 0.118978362467535D+04 0.000000000000000D+00 0.000000000000000D+00 0.118978362467535D+04
 0.757824764346654D+03 0.000000000000000D+00 0.000000000000000D+00 -.757824764346654D+03
 0.582968281130083D+03 -.397300764441952D+03 0.209875729115511D+03 -.349758913690325D+03
 0.319138968181315D+03 -.955183344914128D+02 0.110557834486305D+03 0.283730319179180D+03
 0.612610800799730D+03 0.499881207545002D+03 -.347923836933775D+03 0.660285945111450D+02
 0.432890338910879D+03 -.706210861163681D+01 0.274902733319592D+02 0.431958860328698D+03
-.761531458786D-05 0.000000000000D+00 0.000000000000D+00 0.682675348143D-08 0.000000000000D+00  6 21 2 25 -3 2 3 2 0.11737148D+00 0.18385172D+00 0.39057594D+06 0.39057594D+06 0.39057594D+06 0.10761749D+01  1  2 13  5  6  1       -3 -.105097131741D-03 0.100000000000D+01
  </mgrwgt>
  </event>
  <event>
  5     66 -.16232397E-05 0.62998982E+02 0.75467711E-02 0.94512481E-01
       -3 -1    0    0    0  501 0.00000000E+00 0.00000000E+00 0.39433271E+03 0.39433303E+03 0.50000000E+00 0.0000E+00 0.9000E+01
        2 -1    0    0  502    0 -.00000000E+00 -.00000000E+00 -.18533248E+04 0.18533248E+04 0.32000000E+00 0.0000E+00 0.9000E+01
       25  1    1    2    0    0 -.27419386E+03 -.40209127E+03 -.28999021E+03 0.58015428E+03 0.12500000E+03 0.0000E+00 0.9000E+01
       -3  1    1    2    0  501 0.28633688E+03 0.34029105E+03 0.49406428E+02 0.44746849E+03 0.50000000E+00 0.0000E+00 0.9000E+01
        2  1    1    2  502    0 -.12143020E+02 0.61800227E+02 -.12184083E+04 0.12200351E+04 0.32000000E+00 0.0000E+00 0.9000E+01
#aMCatNLO 1  0  0  4  1 0.37448144D+01 0.00000000D+00  -5  6  0 0.00000000D+00 0.00000000D+00 0.00000000D+00 0.00000000D+00 0.00000000D+00
  <mgrwgt>
 -.6716218554D-03    8    2    0
 0.854884190304339D+03 0.000000000000000D+00 0.000000000000000D+00 0.854884190304339D+03
 0.854884190304339D+03 -.000000000000000D+00 -.000000000000000D+00 -.854884190304339D+03
 0.515196486438479D+03 -.274140609975278D+03 -.402047803469451D+03 0.114047837885367D+03
 0.630288902822731D+03 0.286286065686720D+03 0.340230656662143D+03 0.446707387315621D+03
 0.564282991347468D+03 -.121454557114420D+02 0.618171468073074D+02 -.560755225200989D+03
 0.000000000000000D+00 0.000000000000000D+00 0.000000000000000D+00 0.000000000000000D+00
 0.854884190304339D+03 0.000000000000000D+00 0.000000000000000D+00 0.854884190304339D+03
 0.854884190304339D+03 -.000000000000000D+00 -.000000000000000D+00 -.854884190304339D+03
 0.515187440320131D+03 -.274132490252851D+03 -.402038153756020D+03 0.114060507520482D+03
 0.472688993319069D+03 0.217039104582951D+03 0.256546023187003D+03 0.332435030455215D+03
 0.564270167993199D+03 -.121365623871586D+02 0.618277158916029D+02 -.560741348473717D+03
 0.157621778976279D+03 0.692299480570589D+02 0.836644146774148D+02 0.114245810498020D+03
0.369202851978D-05 0.000000000000D+00 0.000000000000D+00 0.616889133393D-05 0.000000000000D+00  6 -3 2 25 -3 2 21 0 0.60666597D-01 0.28512692D+00 0.25505885D+06 0.25505885D+06 0.25505885D+06 0.10898052D+01  1  2  2  3  6  4       -3 0.674874469878D-05 0.100000000000D+01
0.123106642604D-05 0.000000000000D+00 -.141783616494D-07 0.616889133393D-05 0.000000000000D+00  6 -3 2 25 -3 2 21 2 0.60666597D-01 0.28512692D+00 0.25505885D+06 0.25505885D+06 0.25505885D+06 0.10898052D+01  1  2  3  3  6  4       -3 0.267261978079D-05 0.100000000000D+01
-.205849736188D-05 0.000000000000D+00 0.000000000000D+00 0.616889133393D-05 0.000000000000D+00  6 -3 2 25 -3 2 21 2 0.60666597D-01 0.28512692D+00 0.25505885D+06 0.25505885D+06 0.25505885D+06 0.10898052D+01  1  2 15  3  6  4       -3 -.446895525027D-05 0.100000000000D+01
0.453283795308D-03 0.000000000000D+00 0.000000000000D+00 0.616889133393D-05 0.000000000000D+00  6 -3 2 25 -3 2 21 2 0.60666597D-01 0.28512692D+00 0.25504620D+06 0.25504620D+06 0.25504620D+06 0.10898068D+01  1  2 12  3  6  4       -3 0.984074945489D-03 0.100000000000D+01
-.927511162329D-02 0.000000000000D+00 0.000000000000D+00 0.616889133393D-05 0.000000000000D+00  6 -3 2 25 -3 2 21 2 0.60666597D-01 0.28512692D+00 0.25505885D+06 0.25505885D+06 0.25505885D+06 0.10898052D+01  1  2  4  3  6  4       -3 -.201360757382D-01 0.100000000000D+01
-.671504429769D-02 0.000000000000D+00 0.000000000000D+00 0.616889133393D-05 0.000000000000D+00  6 -3 2 25 -3 2 21 2 0.60666597D-01 0.28512692D+00 0.25505885D+06 0.25505885D+06 0.25505885D+06 0.10898052D+01  1  2  5  3  6  4       -3 -.145782224576D-01 0.100000000000D+01
0.859590544416D-02 0.000000000000D+00 -.000000000000D+00 0.616889133393D-05 0.000000000000D+00  6 -3 2 25 -3 2 21 2 0.60666597D-01 0.28512692D+00 0.25505885D+06 0.25505885D+06 0.25505885D+06 0.10898052D+01  1  2  6  3  6  4       -3 0.186615331537D-01 0.100000000000D+01
0.662928460557D-02 0.000000000000D+00 0.000000000000D+00 0.616889133393D-05 0.172804502736D-05  6 -3 2 25 -3 2 21 2 0.60666597D-01 0.28512692D+00 0.25504620D+06 0.25504620D+06 0.25504620D+06 0.10898068D+01  1  2 11  3  6  4       -3 0.143921158320D-01 0.100000000000D+01
  </mgrwgt>
  </event>
  <event>
  5     66 -.16232397E-05 0.16201017E+02 0.75467711E-02 0.92118175E-01
       -3 -1    0    0    0  501 0.00000000E+00 0.00000000E+00 0.74964241E+03 0.74964258E+03 0.50000000E+00 0.0000E+00 0.9000E+01
        2 -1    0    0  502    0 -.00000000E+00 -.00000000E+00 -.16415895E+04 0.16415895E+04 0.32000000E+00 0.0000E+00 0.9000E+01
       25  1    1    2    0    0 0.52469961E+03 0.32965065E+03 -.65363711E+03 0.90931057E+03 0.12500000E+03 0.0000E+00 0.9000E+01
       -3  1    1    2    0  501 -.51831609E+03 -.31476284E+03 0.47384514E+03 0.76958215E+03 0.50000000E+00 0.0000E+00 0.9000E+01
        2  1    1    2  502    0 -.63835204E+01 -.14887815E+02 -.71215508E+03 0.71233935E+03 0.32000000E+00 0.0000E+00 0.9000E+01
#aMCatNLO 1  0  0  4  1 0.88130510D+01 0.00000000D+00  -5  6  0 0.00000000D+00 0.00000000D+00 0.00000000D+00 0.00000000D+00 0.00000000D+00
  <mgrwgt>
 -.2143839719D-02    6    2    0
 0.110932651583709D+04 0.000000000000000D+00 0.000000000000000D+00 0.110932651583709D+04
 0.110932651583709D+04 -.000000000000000D+00 -.000000000000000D+00 -.110932651583709D+04
 0.717211204341312D+03 0.524689428462225D+03 0.329645949519429D+03 -.338823646249982D+03
 0.101991835545963D+04 -.518304855619815D+03 -.314756014048128D+03 0.820074496655603D+03
 0.481523471873234D+03 -.638457284241019D+01 -.148899354713011D+02 -.481250850405621D+03
 0.000000000000000D+00 0.000000000000000D+00 0.000000000000000D+00 0.000000000000000D+00
 0.110932651583709D+04 0.000000000000000D+00 0.000000000000000D+00 0.110932651583709D+04
 0.110932651583709D+04 -.000000000000000D+00 -.000000000000000D+00 -.110932651583709D+04
 0.717102548658044D+03 0.524627626468257D+03 0.329608418423452D+03 -.338725861638192D+03
 0.493894688723109D+03 -.247449377683812D+03 -.165462656973863D+03 0.394110236076075D+03
 0.481459189497547D+03 -.642606602931198D+01 -.149151334411402D+02 -.481185198880280D+03
 0.526196604795479D+03 -.270752182755133D+03 -.149230628008448D+03 0.425800824442397D+03
0.150150939343D-04 0.000000000000D+00 0.000000000000D+00 0.200482350543D-04 0.000000000000D+00  6 -3 2 25 -3 2 21 0 0.11532962D+00 0.25255224D+00 0.39358352D+06 0.39358352D+06 0.39358352D+06 0.10759343D+01  1  2  2  3  6  4       -3 0.722933636755D-05 0.100000000000D+01
0.122797195969D-04 0.000000000000D+00 -.576619142728D-07 0.200482350543D-04 0.000000000000D+00  6 -3 2 25 -3 2 21 2 0.11532962D+00 0.25255224D+00 0.39358352D+06 0.39358352D+06 0.39358352D+06 0.10759343D+01  1  2  3  3  6  4       -3 0.684432013189D-05 0.100000000000D+01
-.108082511921D-04 0.000000000000D+00 0.000000000000D+00 0.200482350543D-04 0.000000000000D+00  6 -3 2 25 -3 2 21 2 0.11532962D+00 0.25255224D+00 0.39358352D+06 0.39358352D+06 0.39358352D+06 0.10759343D+01  1  2 15  3  6  4       -3 -.602417104406D-05 0.100000000000D+01
-.606599002050D-02 0.000000000000D+00 0.000000000000D+00 0.200482350543D-04 0.000000000000D+00  6 -3 2 25 -3 2 21 2 0.11532962D+00 0.25255224D+00 0.39358352D+06 0.39358352D+06 0.39358352D+06 0.10759343D+01  1  2  4  3  6  4       -3 -.338098743130D-02 0.100000000000D+01
-.355498082826D-02 0.000000000000D+00 0.000000000000D+00 0.200482350543D-04 0.000000000000D+00  6 -3 2 25 -3 2 21 2 0.11532962D+00 0.25255224D+00 0.39358352D+06 0.39358352D+06 0.39358352D+06 0.10759343D+01  1  2  5  3  6  4       -3 -.198143179568D-02 0.100000000000D+01
0.576016429305D-02 0.000000000000D+00 -.000000000000D+00 0.200482350543D-04 0.000000000000D+00  6 -3 2 25 -3 2 21 2 0.11532962D+00 0.25255224D+00 0.39358352D+06 0.39358352D+06 0.39358352D+06 0.10759343D+01  1  2  6  3  6  4       -3 0.321053002251D-02 0.100000000000D+01
  </mgrwgt>
  </event>
  <event>
  6     66 0.16232397E-05 0.12620907E+03 0.75467711E-02 0.93400816E-01
       21 -1    0    0  503  501 0.00000000E+00 0.00000000E+00 0.28155586E+04 0.28155587E+04 0.75000000E+00 0.0000E+00 0.9000E+01
        2 -1    0    0  502    0 0.00000000E+00 0.00000000E+00 -.10497879E+04 0.10497880E+04 0.32000000E+00 0.0000E+00 0.9000E+01
       25  1    1    2    0    0 0.17917413E+03 -.43659234E+03 0.97613480E+02 0.49786507E+03 0.12500000E+03 0.0000E+00 0.9000E+01
       -3  1    1    2    0  501 -.29482294E+03 0.31825799E+03 0.90125217E+03 0.10002322E+04 0.50000000E+00 0.0000E+00 0.9000E+01
        2  1    1    2  502    0 0.43444311E+02 -.11664459E+02 -.79600792E+03 0.79727798E+03 0.32000000E+00 0.0000E+00 0.9000E+01
        3  1    1    2  503    0 0.72204503E+02 0.12999881E+03 0.15629129E+04 0.15699714E+04 0.50000000E+00 0.0000E+00 0.9000E+01
#aMCatNLO 2  0  0  1  2 0.14870502D+03 0.00000000D+00  -5  6  0 0.00000000D+00 0.00000000D+00 0.00000000D+00 0.00000000D+00 0.00000000D+00
  <mgrwgt>
 0.1042120317D-02    1    2    0
 0.114077639214398D+04 0.000000000000000D+00 0.000000000000000D+00 0.114077639214398D+04
 0.114077639214398D+04 0.000000000000000D+00 0.000000000000000D+00 -.114077639214398D+04
 0.472981172983929D+03 0.194380394046562D+03 -.409131756644361D+03 0.539783115024579D+02
 0.934888568359529D+03 -.265414440866053D+03 0.371138153328135D+03 0.815983015125482D+03
 0.873683042944493D+03 0.710340468194913D+02 0.379936033162255D+02 -.869961326627940D+03
 0.000000000000000D+00 0.000000000000000D+00 0.000000000000000D+00 0.000000000000000D+00
 0.257681145829209D+04 0.000000000000000D+00 0.000000000000000D+00 0.257681145829209D+04
 0.114705305865825D+04 0.000000000000000D+00 0.000000000000000D+00 -.114705305865825D+04
 0.491144758578605D+03 0.179140672341671D+03 -.436569737017528D+03 0.539783115024579D+02
 0.924124996762546D+03 -.294799450075547D+03 0.318232639594462D+03 0.815983015125482D+03
 0.871123974782494D+03 0.434542748121094D+02 -.116617157039467D+02 -.869961326627940D+03
 0.143747078682669D+04 0.722045029217665D+02 0.129998813127013D+03 0.142975839963384D+04
0.117512254047D-01 0.000000000000D+00 0.000000000000D+00 0.269295449770D-04 0.215868891037D-08  6 21 2 25 -3 2 3 2 0.43316285D+00 0.16150584D+00 0.31117552D+06 0.31117552D+06 0.31117552D+06 0.10833786D+01  1  2  1  5  6  1       -3 0.104212031700D-02 0.100000000000D+01
  </mgrwgt>
  </event>
</LesHouchesEvents>
