<event>
 5    0  0.1911311E+001  0.2938297E+03  0.7546771E-02  0.1088366E+00
         21   -1    0    0  504  501  0.00000000000E+00  0.00000000000E+00  0.66101657987E+03  0.66101657987E+03  0.00000000000E+00 0. -1.
         21   -1    0    0  503  502 -0.00000000000E+00 -0.00000000000E+00 -0.19012787147E+03  0.19012787147E+03  0.00000000000E+00 0. -1.
         25    1    1    2    0    0 -0.16211412119E+03 -0.14966737603E+03  0.12475658997E+03  0.28261372663E+03  0.12500000000E+03 0.  0.
         21    1    1    2  503  501 -0.63268322819E+02 -0.40174455449E+02 -0.38287496286E+02  0.84159372115E+02  0.00000000000E+00 0.  1.
         21    1    1    2  504  502  0.22538244401E+03  0.18984183148E+03  0.38441961471E+03  0.48437135260E+03  0.00000000000E+00 0. -1.
<mgrwt>
<rscale>  4 0.29382967E+03</rscale>
<asrwt>0</asrwt>
<pdfrwt beam="1">  1       21 0.10169486E+00 0.29382967E+03</pdfrwt>
<pdfrwt beam="2">  1       21 0.29250442E-01 0.29382967E+03</pdfrwt>
<totfact> 0.83074837E+03</totfact>
</mgrwt>
</event>
<event>
 5    0  0.1911311E+001  0.2293502E+03  0.7546771E-02  0.1127098E+00
         21   -1    0    0  503  501  0.00000000000E+00  0.00000000000E+00  0.55157526332E+03  0.55157526332E+03  0.00000000000E+00 0. -1.
         21   -1    0    0  504  502 -0.00000000000E+00 -0.00000000000E+00 -0.18785905169E+03  0.18785905169E+03  0.00000000000E+00 0. -1.
         25    1    1    2    0    0  0.36792463204E+02 -0.24377238744E+03  0.24598484740E+03  0.37001649609E+03  0.12500000000E+03 0.  0.
         21    1    1    2  503  502 -0.50841753784E+02  0.17325679921E+03 -0.49635036713E+02  0.18726035156E+03  0.00000000000E+00 0. -1.
         21    1    1    2  504  501  0.14049290580E+02  0.70515588239E+02  0.16736640093E+03  0.18215746735E+03  0.00000000000E+00 0. -1.
<mgrwt>
<rscale>  4 0.22935020E+03</rscale>
<asrwt>0</asrwt>
<pdfrwt beam="1">  1       21 0.84857732E-01 0.22935020E+03</pdfrwt>
<pdfrwt beam="2">  1       21 0.28901393E-01 0.22935020E+03</pdfrwt>
<totfact> 0.13469276E+04</totfact>
</mgrwt>
</event>
<event>
 5    0  0.1911311E+001  0.3290294E+03  0.7546771E-02  0.1071567E+00
         21   -1    0    0  502  501  0.00000000000E+00  0.00000000000E+00  0.95144042606E+03  0.95144042606E+03  0.00000000000E+00 0.  1.
         21   -1    0    0  504  502 -0.00000000000E+00 -0.00000000000E+00 -0.65927825221E+03  0.65927825221E+03  0.00000000000E+00 0.  1.
         25    1    1    2    0    0  0.22281769240E+01  0.34270019895E+03 -0.39411998207E+03  0.53703254222E+03  0.12500000000E+03 0.  0.
         21    1    1    2  503  501  0.98146157185E+00 -0.84931595511E+02  0.79092195623E+03  0.79546959717E+03  0.00000000000E+00 0.  1.
         21    1    1    2  504  503 -0.32096384959E+01 -0.25776860344E+03 -0.10463980030E+03  0.27821653888E+03  0.00000000000E+00 0.  1.
<mgrwt>
<rscale>  4 0.32902942E+03</rscale>
<asrwt>0</asrwt>
<pdfrwt beam="1">  1       21 0.14637545E+00 0.32902942E+03</pdfrwt>
<pdfrwt beam="2">  1       21 0.10142742E+00 0.32902942E+03</pdfrwt>
<totfact> 0.22236049E+02</totfact>
</mgrwt>
</event>
<event>
 5    0  0.1911311E+001  0.2735509E+03  0.7546771E-02  0.1099264E+00
         21   -1    0    0  502  501  0.00000000000E+00  0.00000000000E+00  0.15399896590E+04  0.15399896590E+04  0.00000000000E+00 0.  1.
         21   -1    0    0  504  502 -0.00000000000E+00 -0.00000000000E+00 -0.12744090395E+04  0.12744090395E+04  0.00000000000E+00 0. -1.
         25    1    1    2    0    0 -0.22383993990E+03 -0.19760802061E+03  0.12968170199E+04  0.13366048899E+04  0.12500000000E+03 0.  0.
         21    1    1    2  503  501  0.98907027642E+02  0.12850511599E+03  0.18911475987E+03  0.24911956438E+03  0.00000000000E+00 0.  1.
         21    1    1    2  504  503  0.12493291226E+03  0.69102904613E+02 -0.12203511603E+04  0.12286742442E+04  0.00000000000E+00 0. -1.
<mgrwt>
<rscale>  4 0.27355087E+03</rscale>
<asrwt>0</asrwt>
<pdfrwt beam="1">  1       21 0.23692149E+00 0.27355087E+03</pdfrwt>
<pdfrwt beam="2">  1       21 0.19606293E+00 0.27355087E+03</pdfrwt>
<totfact> 0.99342017E+00</totfact>
</mgrwt>
</event>
