<event>
 5    0  0.2159162E+000  0.2396595E+03  0.7546771E-02  0.1120020E+00
         21   -1    0    0  502  501  0.00000000000E+00  0.00000000000E+00  0.19259631024E+03  0.19259631024E+03  0.00000000000E+00 0.  1.
         21   -1    0    0  503  502 -0.00000000000E+00 -0.00000000000E+00 -0.29521297523E+03  0.29521297523E+03  0.00000000000E+00 0.  1.
         25    1    1    2    0    0 -0.18329790286E+03  0.90628763951E+02 -0.12797058548E+03  0.27168578320E+03  0.12500000000E+03 0.  0.
         21    1    1    2  503  504  0.47165610223E+02  0.23330588977E+01 -0.81139968263E+01  0.47915288750E+02  0.00000000000E+00 0.  1.
         21    1    1    2  504  501  0.13613229263E+03 -0.92961822849E+02  0.33467917311E+02  0.16820821352E+03  0.00000000000E+00 0.  1.
<mgrwt>
<rscale>  4 0.23965954E+03</rscale>
<asrwt>0</asrwt>
<pdfrwt beam="1">  1       21 0.29630202E-01 0.23965954E+03</pdfrwt>
<pdfrwt beam="2">  1       21 0.45417381E-01 0.23965954E+03</pdfrwt>
<totfact> 0.49684678E+04</totfact>
</mgrwt>
</event>
<event>
 5    0  0.2159162E+000  0.2398943E+03  0.7546771E-02  0.1119863E+00
         21   -1    0    0  502  501  0.00000000000E+00  0.00000000000E+00  0.10889646097E+04  0.10889646097E+04  0.00000000000E+00 0.  1.
         21   -1    0    0  503  502 -0.00000000000E+00 -0.00000000000E+00 -0.51429824649E+02  0.51429824649E+02  0.00000000000E+00 0. -1.
         25    1    1    2    0    0  0.20935046992E+03  0.28515573280E+02  0.56476902154E+03  0.61581637268E+03  0.12500000000E+03 0.  0.
         21    1    1    2  503  504 -0.19973214856E+03 -0.33782418998E+01  0.42843632104E+03  0.47271770104E+03  0.00000000000E+00 0. -1.
         21    1    1    2  504  501 -0.96183213619E+01 -0.25137331380E+02  0.44329442471E+02  0.51860360629E+02  0.00000000000E+00 0.  1.
<mgrwt>
<rscale>  4 0.23989431E+03</rscale>
<asrwt>0</asrwt>
<pdfrwt beam="1">  1       21 0.16753300E+00 0.23989431E+03</pdfrwt>
<pdfrwt beam="2">  1       21 0.79122815E-02 0.23989431E+03</pdfrwt>
<totfact> 0.26385364E+04</totfact>
</mgrwt>
</event>
<event>
 5    0  0.3592874E+000  0.2714009E+03  0.7546771E-02  0.1100481E+00
         21   -1    0    0  502  501  0.00000000000E+00  0.00000000000E+00  0.32760895511E+03  0.32760895511E+03  0.00000000000E+00 0. -1.
         21   -1    0    0  503  502 -0.00000000000E+00 -0.00000000000E+00 -0.33999928765E+03  0.33999928765E+03  0.00000000000E+00 0. -1.
         25    1    1    2    0    0  0.24667449920E+03  0.53977591070E+02  0.17850326359E+03  0.33354205733E+03  0.12500000000E+03 0.  0.
         21    1    1    2  503  504 -0.32048644364E+02 -0.36025404241E+02 -0.75882924390E+02  0.89906415623E+02  0.00000000000E+00 0. -1.
         21    1    1    2  504  501 -0.21462585484E+03 -0.17952186829E+02 -0.11501067175E+03  0.24415976981E+03  0.00000000000E+00 0. -1.
<mgrwt>
<rscale>  4 0.27140086E+03</rscale>
<asrwt>0</asrwt>
<pdfrwt beam="1">  1       21 0.50401378E-01 0.27140086E+03</pdfrwt>
<pdfrwt beam="2">  1       21 0.52307583E-01 0.27140086E+03</pdfrwt>
<totfact> 0.12420876E+04</totfact>
</mgrwt>
</event>
<event>
 5    0  0.2159162E+000  0.2368562E+03  0.7546771E-02  0.1121905E+00
         21   -1    0    0  502  501  0.00000000000E+00  0.00000000000E+00  0.13384404536E+03  0.13384404536E+03  0.00000000000E+00 0. -1.
         21   -1    0    0  503  502 -0.00000000000E+00 -0.00000000000E+00 -0.10393402516E+04  0.10393402516E+04  0.00000000000E+00 0. -1.
         25    1    1    2    0    0 -0.44541913630E+02  0.22146610329E+03 -0.60840005684E+02  0.26525030305E+03  0.12500000000E+03 0.  0.
         21    1    1    2  503  504  0.71370576354E+02 -0.18544525715E+03 -0.83953388569E+03  0.86272872202E+03  0.00000000000E+00 0. -1.
         21    1    1    2  504  501 -0.26828662723E+02 -0.36020846138E+02 -0.51223148935E+01  0.45205271926E+02  0.00000000000E+00 0. -1.
<mgrwt>
<rscale>  4 0.23685621E+03</rscale>
<asrwt>0</asrwt>
<pdfrwt beam="1">  1       21 0.20591391E-01 0.23685621E+03</pdfrwt>
<pdfrwt beam="2">  1       21 0.15989851E+00 0.23685621E+03</pdfrwt>
<totfact> 0.53226632E+03</totfact>
</mgrwt>
</event>
<event>
 5    0  0.2159162E+000  0.2785958E+03  0.7546771E-02  0.1096458E+00
         21   -1    0    0  502  501  0.00000000000E+00  0.00000000000E+00  0.23111586558E+04  0.23111586558E+04  0.00000000000E+00 0.  1.
         21   -1    0    0  503  502 -0.00000000000E+00 -0.00000000000E+00 -0.82991983660E+03  0.82991983660E+03  0.00000000000E+00 0.  1.
         25    1    1    2    0    0 -0.17778177375E+03 -0.17431082010E+03  0.22834348838E+04  0.23003674684E+04  0.12500000000E+03 0.  0.
         21    1    1    2  503  504  0.15871757468E+02  0.16271798269E+02 -0.11505566030E+03  0.11727953390E+03  0.00000000000E+00 0.  1.
         21    1    1    2  504  501  0.16191001628E+03  0.15803902183E+03 -0.68714040425E+03  0.72343149015E+03  0.00000000000E+00 0.  1.
<mgrwt>
<rscale>  4 0.27859580E+03</rscale>
<asrwt>0</asrwt>
<pdfrwt beam="1">  1       21 0.35556287E+00 0.27859580E+03</pdfrwt>
<pdfrwt beam="2">  1       21 0.12767998E+00 0.27859580E+03</pdfrwt>
<totfact> 0.63020198E+00</totfact>
</mgrwt>
</event>
<event>
 5    0  0.2159162E+000  0.2553538E+03  0.7546771E-02  0.1109967E+00
         21   -1    0    0  502  501  0.00000000000E+00  0.00000000000E+00  0.12346192510E+04  0.12346192510E+04  0.00000000000E+00 0.  1.
         21   -1    0    0  503  502 -0.00000000000E+00 -0.00000000000E+00 -0.16360130656E+03  0.16360130656E+03  0.00000000000E+00 0.  1.
         25    1    1    2    0    0  0.29174430678E+03  0.15097870239E+03  0.84885638152E+03  0.91874450505E+03  0.12500000000E+03 0.  0.
         21    1    1    2  503  504 -0.94708764030E+02 -0.75024285644E+02  0.23882772325E+03  0.26765103178E+03  0.00000000000E+00 0.  1.
         21    1    1    2  504  501 -0.19703554275E+03 -0.75954416743E+02 -0.16666160278E+02  0.21182502078E+03  0.00000000000E+00 0.  1.
<mgrwt>
<rscale>  4 0.25535379E+03</rscale>
<asrwt>0</asrwt>
<pdfrwt beam="1">  1       21 0.18994142E+00 0.25535379E+03</pdfrwt>
<pdfrwt beam="2">  1       21 0.25169433E-01 0.25535379E+03</pdfrwt>
<totfact> 0.22077797E+03</totfact>
</mgrwt>
</event>
<event>
 5    0  0.2159162E+000  0.2959728E+03  0.7546771E-02  0.1087271E+00
         21   -1    0    0  502  501  0.00000000000E+00  0.00000000000E+00  0.55610993412E+03  0.55610993412E+03  0.00000000000E+00 0. -1.
         21   -1    0    0  503  502 -0.00000000000E+00 -0.00000000000E+00 -0.59563576789E+03  0.59563576789E+03  0.00000000000E+00 0.  1.
         25    1    1    2    0    0 -0.41715032479E+02 -0.27001293344E+03  0.46859223177E+03  0.55664244164E+03  0.12500000000E+03 0.  0.
         21    1    1    2  503  504 -0.20301396724E+02  0.64430861181E+02 -0.36231088067E+02  0.76656208646E+02  0.00000000000E+00 0.  1.
         21    1    1    2  504  501  0.62016429203E+02  0.20558207226E+03 -0.47188697748E+03  0.51844705172E+03  0.00000000000E+00 0.  1.
<mgrwt>
<rscale>  4 0.29597278E+03</rscale>
<asrwt>0</asrwt>
<pdfrwt beam="1">  1       21 0.85555375E-01 0.29597278E+03</pdfrwt>
<pdfrwt beam="2">  1       21 0.91636272E-01 0.29597278E+03</pdfrwt>
<totfact> 0.10947578E+03</totfact>
</mgrwt>
</event>
<event>
 5    0  0.2159162E+000  0.2639217E+03  0.7546771E-02  0.1104810E+00
         21   -1    0    0  502  501  0.00000000000E+00  0.00000000000E+00  0.21914569904E+03  0.21914569904E+03  0.00000000000E+00 0. -1.
         21   -1    0    0  503  502 -0.00000000000E+00 -0.00000000000E+00 -0.78540503433E+03  0.78540503433E+03  0.00000000000E+00 0. -1.
         25    1    1    2    0    0 -0.27855555567E+03  0.15704962367E+03 -0.30735576721E+02  0.34471358773E+03  0.12500000000E+03 0.  0.
         21    1    1    2  503  504  0.10952175485E+03 -0.16083715587E+02 -0.40123506387E+02  0.11774377460E+03  0.00000000000E+00 0. -1.
         21    1    1    2  504  501  0.16903380082E+03 -0.14096590808E+03 -0.49540025219E+03  0.54209337104E+03  0.00000000000E+00 0. -1.
<mgrwt>
<rscale>  4 0.26392168E+03</rscale>
<asrwt>0</asrwt>
<pdfrwt beam="1">  1       21 0.33714723E-01 0.26392168E+03</pdfrwt>
<pdfrwt beam="2">  1       21 0.12083155E+00 0.26392168E+03</pdfrwt>
<totfact> 0.41778261E+03</totfact>
</mgrwt>
</event>
<event>
 5    0  0.2159162E+000  0.2354258E+03  0.7546771E-02  0.1122878E+00
         21   -1    0    0  502  501  0.00000000000E+00  0.00000000000E+00  0.41070499899E+03  0.41070499899E+03  0.00000000000E+00 0. -1.
         21   -1    0    0  503  502 -0.00000000000E+00 -0.00000000000E+00 -0.42741480926E+03  0.42741480926E+03  0.00000000000E+00 0.  1.
         25    1    1    2    0    0  0.19044406687E+03  0.88414843585E+02  0.32614542306E+03  0.40753154989E+03  0.12500000000E+03 0.  0.
         21    1    1    2  503  504 -0.99240942574E+02  0.56383720678E+00 -0.49811059322E+02  0.11104154279E+03  0.00000000000E+00 0.  1.
         21    1    1    2  504  501 -0.91203124297E+02 -0.88978680792E+02 -0.29304417400E+03  0.31954671557E+03  0.00000000000E+00 0.  1.
<mgrwt>
<rscale>  4 0.23542583E+03</rscale>
<asrwt>0</asrwt>
<pdfrwt beam="1">  1       21 0.63185384E-01 0.23542583E+03</pdfrwt>
<pdfrwt beam="2">  1       21 0.65756124E-01 0.23542583E+03</pdfrwt>
<totfact> 0.47737540E+03</totfact>
</mgrwt>
</event>
<event>
 5    0  0.2159162E+000  0.4247420E+03  0.7546771E-02  0.1035534E+00
         21   -1    0    0  502  501  0.00000000000E+00  0.00000000000E+00  0.19749077936E+03  0.19749077936E+03  0.00000000000E+00 0. -1.
         21   -1    0    0  503  502 -0.00000000000E+00 -0.00000000000E+00 -0.22488166538E+04  0.22488166538E+04  0.00000000000E+00 0.  1.
         25    1    1    2    0    0  0.23959742265E+03 -0.32767941975E+03 -0.81305994517E+02  0.43245391872E+03  0.12500000000E+03 0.  0.
         21    1    1    2  503  504 -0.22435176464E+03  0.30613109803E+03 -0.16657916704E+04  0.17084823244E+04  0.00000000000E+00 0.  1.
         21    1    1    2  504  501 -0.15245658008E+02  0.21548321720E+02 -0.30422820947E+03  0.30537119002E+03  0.00000000000E+00 0.  1.
<mgrwt>
<rscale>  4 0.42474195E+03</rscale>
<asrwt>0</asrwt>
<pdfrwt beam="1">  1       21 0.30383197E-01 0.42474195E+03</pdfrwt>
<pdfrwt beam="2">  1       21 0.34597180E+00 0.42474195E+03</pdfrwt>
<totfact> 0.14999281E+02</totfact>
</mgrwt>
</event>
