<event>
 5    0  0.1911311E+001  0.2392916E+03  0.7546771E-02  0.1120266E+00
         21   -1    0    0  503  501  0.00000000000E+00  0.00000000000E+00  0.43624370393E+03  0.43624370393E+03  0.00000000000E+00 0. -1.
         21   -1    0    0  504  502 -0.00000000000E+00 -0.00000000000E+00 -0.17883139245E+03  0.17883139245E+03  0.00000000000E+00 0. -1.
         25    1    1    2    0    0  0.15449173623E+03 -0.15362238462E+03  0.21230624850E+03  0.32888672331E+03  0.12500000000E+03 0.  0.
         21    1    1    2  503  502 -0.13343306436E+03  0.14877785804E+03 -0.35289147048E+02  0.20293978813E+03  0.00000000000E+00 0. -1.
         21    1    1    2  504  501 -0.21058671874E+02  0.48445265759E+01  0.80395210023E+02  0.83248584934E+02  0.00000000000E+00 0. -1.
<mgrwt>
<rscale>  4 0.23929157E+03</rscale>
<asrwt>0</asrwt>
<pdfrwt beam="1">  1       21 0.67114416E-01 0.23929157E+03</pdfrwt>
<pdfrwt beam="2">  1       21 0.27512522E-01 0.23929157E+03</pdfrwt>
<totfact> 0.24983617E+04</totfact>
</mgrwt>
</event>
<event>
 5    0  0.1911311E+001  0.2473066E+03  0.7546771E-02  0.1115019E+00
         21   -1    0    0  504  501  0.00000000000E+00  0.00000000000E+00  0.54478265989E+03  0.54478265989E+03  0.00000000000E+00 0. -1.
         21   -1    0    0  503  502 -0.00000000000E+00 -0.00000000000E+00 -0.12374044974E+04  0.12374044974E+04  0.00000000000E+00 0. -1.
         25    1    1    2    0    0  0.36172590889E+02 -0.22796271191E+03  0.44423588941E+03  0.51599029040E+03  0.12500000000E+03 0.  0.
         21    1    1    2  503  501 -0.63181916945E+02  0.20350984123E+03 -0.11860169260E+04  0.12050080327E+04  0.00000000000E+00 0. -1.
         21    1    1    2  504  502  0.27009326056E+02  0.24452870681E+02  0.49159199066E+02  0.61188834204E+02  0.00000000000E+00 0. -1.
<mgrwt>
<rscale>  4 0.24730658E+03</rscale>
<asrwt>0</asrwt>
<pdfrwt beam="1">  1       21 0.83812718E-01 0.24730658E+03</pdfrwt>
<pdfrwt beam="2">  1       21 0.19036992E+00 0.24730658E+03</pdfrwt>
<totfact> 0.17982540E+02</totfact>
</mgrwt>
</event>
<event>
 5    0  0.1911311E+001  0.3408762E+03  0.7546771E-02  0.1066423E+00
         21   -1    0    0  503  501  0.00000000000E+00  0.00000000000E+00  0.10044090033E+04  0.10044090033E+04  0.00000000000E+00 0.  1.
         21   -1    0    0  501  502 -0.00000000000E+00 -0.00000000000E+00 -0.23608138546E+03  0.23608138546E+03  0.00000000000E+00 0.  1.
         25    1    1    2    0    0  0.12675742759E+03 -0.20546744991E+03  0.15537062422E+03  0.31312832720E+03  0.12500000000E+03 0.  0.
         21    1    1    2  503  504 -0.19631215991E+03  0.41407815773E+03  0.31101662647E+03  0.55383258010E+03  0.00000000000E+00 0.  1.
         21    1    1    2  504  502  0.69554732320E+02 -0.20861070783E+03  0.30194036711E+03  0.37352948143E+03  0.00000000000E+00 0.  1.
<mgrwt>
<rscale>  4 0.34087619E+03</rscale>
<asrwt>0</asrwt>
<pdfrwt beam="1">  1       21 0.15452446E+00 0.34087619E+03</pdfrwt>
<pdfrwt beam="2">  1       21 0.36320214E-01 0.34087619E+03</pdfrwt>
<totfact> 0.18132026E+03</totfact>
</mgrwt>
</event>
<event>
 5    0  0.2083048E+001  0.2784926E+03  0.7546771E-02  0.1096515E+00
         21   -1    0    0  504  501  0.00000000000E+00  0.00000000000E+00  0.24089193863E+03  0.24089193863E+03  0.00000000000E+00 0. -1.
         21   -1    0    0  503  502 -0.00000000000E+00 -0.00000000000E+00 -0.56231045899E+03  0.56231045899E+03  0.00000000000E+00 0. -1.
         25    1    1    2    0    0  0.22459670064E+03  0.17122492633E+02 -0.39527484774E+03  0.47180935021E+03  0.12500000000E+03 0.  0.
         21    1    1    2  503  501  0.22601923087E+02  0.40950255343E+02 -0.31589135062E+02  0.56441507722E+02  0.00000000000E+00 0.  1.
         21    1    1    2  504  502 -0.24719862372E+03 -0.58072747976E+02  0.10544546245E+03  0.27495153969E+03  0.00000000000E+00 0. -1.
<mgrwt>
<rscale>  4 0.27849255E+03</rscale>
<asrwt>0</asrwt>
<pdfrwt beam="1">  1       21 0.37060298E-01 0.27849255E+03</pdfrwt>
<pdfrwt beam="2">  1       21 0.86509302E-01 0.27849255E+03</pdfrwt>
<totfact> 0.76616010E+03</totfact>
</mgrwt>
</event>
<event>
 5    0  0.1911311E+001  0.3034235E+03  0.7546771E-02  0.1083542E+00
         21   -1    0    0  504  501  0.00000000000E+00  0.00000000000E+00  0.32722333328E+03  0.32722333328E+03  0.00000000000E+00 0. -1.
         21   -1    0    0  503  502 -0.00000000000E+00 -0.00000000000E+00 -0.55762364289E+03  0.55762364289E+03  0.00000000000E+00 0. -1.
         25    1    1    2    0    0 -0.25362512532E+03 -0.39546074996E+02 -0.39851181018E+03  0.49023082226E+03  0.12500000000E+03 0.  0.
         21    1    1    2  503  501 -0.24164370832E+02  0.74034803067E+01 -0.39108544993E+02  0.46564005732E+02  0.00000000000E+00 0. -1.
         21    1    1    2  504  502  0.27778949615E+03  0.32142594689E+02  0.20722004556E+03  0.34805214817E+03  0.00000000000E+00 0. -1.
<mgrwt>
<rscale>  4 0.30342349E+03</rscale>
<asrwt>0</asrwt>
<pdfrwt beam="1">  1       21 0.50342051E-01 0.30342349E+03</pdfrwt>
<pdfrwt beam="2">  1       21 0.85788253E-01 0.30342349E+03</pdfrwt>
<totfact> 0.40999979E+03</totfact>
</mgrwt>
</event>
<event>
 5    0  0.1911311E+001  0.2405463E+03  0.7546771E-02  0.1119429E+00
         21   -1    0    0  504  501  0.00000000000E+00  0.00000000000E+00  0.93332888783E+02  0.93332888783E+02  0.00000000000E+00 0.  1.
         21   -1    0    0  501  502 -0.00000000000E+00 -0.00000000000E+00 -0.57505373274E+03  0.57505373274E+03  0.00000000000E+00 0.  1.
         25    1    1    2    0    0 -0.91681952581E+02 -0.18393458643E+03 -0.31318354951E+03  0.39490055482E+03  0.12500000000E+03 0.  0.
         21    1    1    2  503  502  0.71712029187E+01  0.79622291187E+02 -0.77018623420E+02  0.11100902557E+03  0.00000000000E+00 0.  1.
         21    1    1    2  504  503  0.84510749663E+02  0.10431229524E+03 -0.91518671023E+02  0.16247704113E+03  0.00000000000E+00 0.  1.
<mgrwt>
<rscale>  4 0.24054628E+03</rscale>
<asrwt>0</asrwt>
<pdfrwt beam="1">  1       21 0.14358906E-01 0.24054628E+03</pdfrwt>
<pdfrwt beam="2">  1       21 0.88469805E-01 0.24054628E+03</pdfrwt>
<totfact> 0.45366618E+04</totfact>
</mgrwt>
</event>
<event>
 5    0  0.1911311E+001  0.2311181E+03  0.7546771E-02  0.1125855E+00
         21   -1    0    0  502  501  0.00000000000E+00  0.00000000000E+00  0.15715568356E+04  0.15715568356E+04  0.00000000000E+00 0.  1.
         21   -1    0    0  504  502 -0.00000000000E+00 -0.00000000000E+00 -0.35826626546E+02  0.35826626546E+02  0.00000000000E+00 0.  1.
         25    1    1    2    0    0 -0.12287734107E+03 -0.16510517922E+03  0.84824245878E+03  0.88175894100E+03  0.12500000000E+03 0.  0.
         21    1    1    2  503  501  0.11387871357E+03  0.14693324397E+03  0.67838967274E+03  0.70339909558E+03  0.00000000000E+00 0.  1.
         21    1    1    2  504  503  0.89986275008E+01  0.18171935246E+02  0.90980775645E+01  0.22225425595E+02  0.00000000000E+00 0.  1.
<mgrwt>
<rscale>  4 0.23111810E+03</rscale>
<asrwt>0</asrwt>
<pdfrwt beam="1">  1       21 0.24177792E+00 0.23111810E+03</pdfrwt>
<pdfrwt beam="2">  1       21 0.55117899E-02 0.23111810E+03</pdfrwt>
<totfact> 0.16420378E+04</totfact>
</mgrwt>
</event>
