<event>
 4    0  0.1360544E-001  0.2458910E+03  0.7546771E-02  0.1115929E+00
          2   -1    0    0  502    0 -0.00000000000E+00  0.00000000000E+00  0.84564368004E+03  0.84564368004E+03  0.00000000000E+00 0. -1.
         21   -1    0    0  501  502  0.00000000000E+00 -0.00000000000E+00 -0.14622065353E+03  0.14622065353E+03  0.00000000000E+00 0.  1.
         25    1    1    2    0    0 -0.15238151637E+03  0.14702812332E+03 -0.15366030771E+02  0.24637067699E+03  0.12500000000E+03 0.  0.
          2    1    1    2  501    0  0.15238151637E+03 -0.14702812332E+03  0.71478905728E+03  0.74549365657E+03  0.00000000000E+00 0. -1.
<mgrwt>
<rscale>  3 0.24589102E+03</rscale>
<asrwt>0</asrwt>
<pdfrwt beam="1">  1       21 0.22495486E-01 0.24589102E+03</pdfrwt>
<pdfrwt beam="2">  1        2 0.13009902E+00 0.24589102E+03</pdfrwt>
<totfact> 0.76158017E+03</totfact>
</mgrwt>
</event>
<event>
 4    0  0.1555688E-001  0.2499136E+03  0.7546771E-02  0.1113359E+00
          2   -1    0    0  502    0 -0.00000000000E+00  0.00000000000E+00  0.13946807826E+04  0.13946807826E+04  0.00000000000E+00 0.  1.
         21   -1    0    0  501  502  0.00000000000E+00 -0.00000000000E+00 -0.47105053078E+02  0.47105053078E+02  0.00000000000E+00 0.  1.
         25    1    1    2    0    0 -0.21430323223E+03 -0.30098675056E+02  0.41507844846E+03  0.48450688742E+03  0.12500000000E+03 0.  0.
          2    1    1    2  501    0  0.21430323223E+03  0.30098675056E+02  0.93249728105E+03  0.95727894825E+03  0.00000000000E+00 0.  1.
<mgrwt>
<rscale>  3 0.24991360E+03</rscale>
<asrwt>0</asrwt>
<pdfrwt beam="1">  1       21 0.72469323E-02 0.24991360E+03</pdfrwt>
<pdfrwt beam="2">  1        2 0.21456624E+00 0.24991360E+03</pdfrwt>
<totfact> 0.28093572E+04</totfact>
</mgrwt>
</event>
<event>
 4    0  0.1002184E-001  0.2452589E+03  0.7546771E-02  0.1116338E+00
         21   -1    0    0  501  502  0.00000000000E+00  0.00000000000E+00  0.37363127226E+03  0.37363127226E+03  0.00000000000E+00 0. -1.
          2   -1    0    0  502    0 -0.00000000000E+00 -0.00000000000E+00 -0.18497128319E+03  0.18497128319E+03  0.00000000000E+00 0.  1.
         25    1    1    2    0    0  0.18804194542E+03 -0.95745341965E+02  0.23815423182E+03  0.34186164143E+03  0.12500000000E+03 0.  0.
          2    1    1    2  501    0 -0.18804194542E+03  0.95745341965E+02 -0.49494242746E+02  0.21674091402E+03  0.00000000000E+00 0.  1.
<mgrwt>
<rscale>  3 0.24525893E+03</rscale>
<asrwt>0</asrwt>
<pdfrwt beam="1">  1       21 0.57481734E-01 0.24525893E+03</pdfrwt>
<pdfrwt beam="2">  1        2 0.28457120E-01 0.24525893E+03</pdfrwt>
<totfact> 0.64141485E+03</totfact>
</mgrwt>
</event>
<event>
 4    0  0.1304802E-001  0.2592061E+03  0.7546771E-02  0.1107621E+00
         21   -1    0    0  501  502  0.00000000000E+00  0.00000000000E+00  0.22858961069E+03  0.22858961069E+03  0.00000000000E+00 0.  1.
          2   -1    0    0  502    0 -0.00000000000E+00 -0.00000000000E+00 -0.26058994214E+03  0.26058994214E+03  0.00000000000E+00 0.  1.
         25    1    1    2    0    0 -0.48607002044E+01  0.22702238157E+03  0.41862322951E+01  0.25923987479E+03  0.12500000000E+03 0.  0.
          2    1    1    2  501    0  0.48607002044E+01 -0.22702238157E+03 -0.36186563747E+02  0.22993967804E+03  0.00000000000E+00 0.  1.
<mgrwt>
<rscale>  3 0.25920607E+03</rscale>
<asrwt>0</asrwt>
<pdfrwt beam="1">  1       21 0.35167632E-01 0.25920607E+03</pdfrwt>
<pdfrwt beam="2">  1        2 0.40090760E-01 0.25920607E+03</pdfrwt>
<totfact> 0.12148705E+04</totfact>
</mgrwt>
</event>
<event>
 4    0  0.1743616E-001  0.2567977E+03  0.7546771E-02  0.1109083E+00
         -3   -1    0    0    0  501 -0.00000000000E+00  0.00000000000E+00  0.27376282553E+03  0.27376282553E+03  0.00000000000E+00 0.  1.
         21   -1    0    0  501  502  0.00000000000E+00 -0.00000000000E+00 -0.23095272937E+03  0.23095272937E+03  0.00000000000E+00 0.  1.
         25    1    1    2    0    0  0.22039257565E+03  0.41799385298E+02 -0.50577979988E+02  0.26173117520E+03  0.12500000000E+03 0.  0.
         -3    1    1    2    0  502 -0.22039257565E+03 -0.41799385298E+02  0.93388076144E+02  0.24298437970E+03  0.00000000000E+00 0.  1.
<mgrwt>
<rscale>  3 0.25679773E+03</rscale>
<asrwt>0</asrwt>
<pdfrwt beam="1">  1       21 0.35531189E-01 0.25679773E+03</pdfrwt>
<pdfrwt beam="2">  1       -3 0.42117358E-01 0.25679773E+03</pdfrwt>
<totfact> 0.21119011E+03</totfact>
</mgrwt>
</event>
<event>
 4    0  0.1002184E-001  0.4360196E+03  0.7546771E-02  0.1031975E+00
          2   -1    0    0  502    0 -0.00000000000E+00  0.00000000000E+00  0.10145218251E+04  0.10145218251E+04  0.00000000000E+00 0. -1.
         21   -1    0    0  501  502  0.00000000000E+00 -0.00000000000E+00 -0.23079570283E+03  0.23079570283E+03  0.00000000000E+00 0.  1.
         25    1    1    2    0    0  0.14302244488E+03 -0.39246995426E+03  0.10521742279E+03  0.44853516116E+03  0.12500000000E+03 0.  0.
          2    1    1    2  501    0 -0.14302244488E+03  0.39246995426E+03  0.67850869948E+03  0.79678236677E+03  0.00000000000E+00 0. -1.
<mgrwt>
<rscale>  3 0.43601959E+03</rscale>
<asrwt>0</asrwt>
<pdfrwt beam="1">  1       21 0.35507032E-01 0.43601959E+03</pdfrwt>
<pdfrwt beam="2">  1        2 0.15608028E+00 0.43601959E+03</pdfrwt>
<totfact> 0.23138288E+03</totfact>
</mgrwt>
</event>
<event>
 4    0  0.1878647E-001  0.3692969E+03  0.7546771E-02  0.1054962E+00
         21   -1    0    0  501  502  0.00000000000E+00  0.00000000000E+00  0.28724405288E+03  0.28724405288E+03  0.00000000000E+00 0. -1.
         -1   -1    0    0    0  501 -0.00000000000E+00 -0.00000000000E+00 -0.10886807582E+04  0.10886807582E+04  0.00000000000E+00 0. -1.
         25    1    1    2    0    0  0.28171697317E+03  0.20344710854E+03  0.12227330600E+03  0.38901277653E+03  0.12500000000E+03 0.  0.
         -1    1    1    2    0  502 -0.28171697317E+03 -0.20344710854E+03 -0.92371001127E+03  0.98691203451E+03  0.00000000000E+00 0. -1.
<mgrwt>
<rscale>  3 0.36929687E+03</rscale>
<asrwt>0</asrwt>
<pdfrwt beam="1">  1       21 0.44191393E-01 0.36929687E+03</pdfrwt>
<pdfrwt beam="2">  1       -1 0.16748935E+00 0.36929687E+03</pdfrwt>
<totfact> 0.12053890E+02</totfact>
</mgrwt>
</event>
<event>
 4    0  0.1002184E-001  0.2622858E+03  0.7546771E-02  0.1105778E+00
         21   -1    0    0  501  502  0.00000000000E+00  0.00000000000E+00  0.22064509547E+03  0.22064509547E+03  0.00000000000E+00 0.  1.
          3   -1    0    0  502    0 -0.00000000000E+00 -0.00000000000E+00 -0.33942021768E+03  0.33942021768E+03  0.00000000000E+00 0. -1.
         25    1    1    2    0    0 -0.75947858501E+02  0.21771717536E+03  0.59081589414E+02  0.26885773164E+03  0.12500000000E+03 0.  0.
          3    1    1    2  501    0  0.75947858501E+02 -0.21771717536E+03 -0.17785671163E+03  0.29120758151E+03  0.00000000000E+00 0. -1.
<mgrwt>
<rscale>  3 0.26228581E+03</rscale>
<asrwt>0</asrwt>
<pdfrwt beam="1">  1       21 0.33945399E-01 0.26228581E+03</pdfrwt>
<pdfrwt beam="2">  1        3 0.52218495E-01 0.26228581E+03</pdfrwt>
<totfact> 0.15047951E+03</totfact>
</mgrwt>
</event>
<event>
 4    0  0.1002184E-001  0.2597044E+03  0.7546771E-02  0.1107321E+00
         21   -1    0    0  501  502  0.00000000000E+00  0.00000000000E+00  0.42725869165E+02  0.42725869165E+02  0.00000000000E+00 0. -1.
         -3   -1    0    0    0  501 -0.00000000000E+00 -0.00000000000E+00 -0.27867009323E+04  0.27867009323E+04  0.00000000000E+00 0.  1.
         25    1    1    2    0    0  0.10702622687E+03  0.20091481805E+03 -0.41642447191E+03  0.49077053514E+03  0.12500000000E+03 0.  0.
         -3    1    1    2    0  502 -0.10702622687E+03 -0.20091481805E+03 -0.23275505913E+04  0.23386562664E+04  0.00000000000E+00 0.  1.
<mgrwt>
<rscale>  3 0.25970440E+03</rscale>
<asrwt>0</asrwt>
<pdfrwt beam="1">  1       21 0.65732110E-02 0.25970440E+03</pdfrwt>
<pdfrwt beam="2">  1       -3 0.42872320E+00 0.25970440E+03</pdfrwt>
<totfact> 0.75196427E+01</totfact>
</mgrwt>
</event>
<event>
 4    0  0.1456453E-001  0.3074819E+03  0.7546771E-02  0.1081559E+00
          2   -1    0    0  502    0 -0.00000000000E+00  0.00000000000E+00  0.74762230848E+03  0.74762230848E+03  0.00000000000E+00 0.  1.
         21   -1    0    0  501  502  0.00000000000E+00 -0.00000000000E+00 -0.13566964797E+03  0.13566964797E+03  0.00000000000E+00 0.  1.
         25    1    1    2    0    0 -0.25592233845E+03  0.11586145618E+03  0.14878677174E+03  0.34158838358E+03  0.12500000000E+03 0.  0.
          2    1    1    2  501    0  0.25592233845E+03 -0.11586145618E+03  0.46316588876E+03  0.54170357287E+03  0.00000000000E+00 0.  1.
<mgrwt>
<rscale>  3 0.30748190E+03</rscale>
<asrwt>0</asrwt>
<pdfrwt beam="1">  1       21 0.20872254E-01 0.30748190E+03</pdfrwt>
<pdfrwt beam="2">  1        2 0.11501881E+00 0.30748190E+03</pdfrwt>
<totfact> 0.10134484E+04</totfact>
</mgrwt>
</event>
<event>
 4    0  0.1500064E-001  0.2942305E+03  0.7546771E-02  0.1088161E+00
         21   -1    0    0  501  502  0.00000000000E+00  0.00000000000E+00  0.38258439463E+02  0.38258439463E+02  0.00000000000E+00 0. -1.
          2   -1    0    0  502    0 -0.00000000000E+00 -0.00000000000E+00 -0.20974107016E+04  0.20974107016E+04  0.00000000000E+00 0. -1.
         25    1    1    2    0    0 -0.15483104826E+03 -0.21673470720E+03 -0.12339619979E+04  0.12685557926E+04  0.12500000000E+03 0.  0.
          2    1    1    2  501    0  0.15483104826E+03  0.21673470720E+03 -0.82519026431E+03  0.86711334849E+03  0.00000000000E+00 0. -1.
<mgrwt>
<rscale>  3 0.29423050E+03</rscale>
<asrwt>0</asrwt>
<pdfrwt beam="1">  1       21 0.58859147E-02 0.29423050E+03</pdfrwt>
<pdfrwt beam="2">  1        2 0.32267852E+00 0.29423050E+03</pdfrwt>
<totfact> 0.16919242E+04</totfact>
</mgrwt>
</event>
<event>
 4    0  0.1920870E-001  0.3751140E+03  0.7546771E-02  0.1052755E+00
         21   -1    0    0  501  502  0.00000000000E+00  0.00000000000E+00  0.25344179863E+03  0.25344179863E+03  0.00000000000E+00 0.  1.
         -2   -1    0    0    0  501 -0.00000000000E+00 -0.00000000000E+00 -0.12378756092E+04  0.12378756092E+04  0.00000000000E+00 0.  1.
         25    1    1    2    0    0  0.34014217889E+03 -0.96895742604E+02  0.67838800792E+02  0.38119888468E+03  0.12500000000E+03 0.  0.
         -2    1    1    2    0  502 -0.34014217889E+03  0.96895742604E+02 -0.10522726113E+04  0.11101185231E+04  0.00000000000E+00 0.  1.
<mgrwt>
<rscale>  3 0.37511397E+03</rscale>
<asrwt>0</asrwt>
<pdfrwt beam="1">  1       21 0.38991047E-01 0.37511397E+03</pdfrwt>
<pdfrwt beam="2">  1       -2 0.19044240E+00 0.37511397E+03</pdfrwt>
<totfact> 0.81020464E+01</totfact>
</mgrwt>
</event>
<event>
 4    0  0.1545886E-001  0.2859310E+03  0.7546771E-02  0.1092493E+00
          2   -1    0    0  502    0 -0.00000000000E+00  0.00000000000E+00  0.80900680653E+03  0.80900680653E+03  0.00000000000E+00 0.  1.
         21   -1    0    0  501  502  0.00000000000E+00 -0.00000000000E+00 -0.13679339618E+03  0.13679339618E+03  0.00000000000E+00 0.  1.
         25    1    1    2    0    0  0.11721952183E+03  0.22889107179E+03  0.75046145242E+02  0.29561539702E+03  0.12500000000E+03 0.  0.
          2    1    1    2  501    0 -0.11721952183E+03 -0.22889107179E+03  0.59716726511E+03  0.65018480569E+03  0.00000000000E+00 0.  1.
<mgrwt>
<rscale>  3 0.28593100E+03</rscale>
<asrwt>0</asrwt>
<pdfrwt beam="1">  1       21 0.21045138E-01 0.28593100E+03</pdfrwt>
<pdfrwt beam="2">  1        2 0.12446258E+00 0.28593100E+03</pdfrwt>
<totfact> 0.90652008E+03</totfact>
</mgrwt>
</event>
<event>
 4    0  0.1788276E-001  0.2653698E+03  0.7546771E-02  0.1103959E+00
         21   -1    0    0  501  502  0.00000000000E+00  0.00000000000E+00  0.63765716152E+02  0.63765716152E+02  0.00000000000E+00 0.  1.
          2   -1    0    0  502    0 -0.00000000000E+00 -0.00000000000E+00 -0.98322709990E+03  0.98322709990E+03  0.00000000000E+00 0.  1.
         25    1    1    2    0    0 -0.22915930958E+03  0.47771746574E+02 -0.45034101458E+03  0.52271230935E+03  0.12500000000E+03 0.  0.
          2    1    1    2  501    0  0.22915930958E+03 -0.47771746574E+02 -0.46912036918E+03  0.52428050671E+03  0.00000000000E+00 0.  1.
<mgrwt>
<rscale>  3 0.26536980E+03</rscale>
<asrwt>0</asrwt>
<pdfrwt beam="1">  1       21 0.98101107E-02 0.26536980E+03</pdfrwt>
<pdfrwt beam="2">  1        2 0.15126570E+00 0.26536980E+03</pdfrwt>
<totfact> 0.28341951E+04</totfact>
</mgrwt>
</event>
<event>
 4    0  0.1002184E-001  0.2416437E+03  0.7546771E-02  0.1118703E+00
         21   -1    0    0  501  502  0.00000000000E+00  0.00000000000E+00  0.12733252809E+03  0.12733252809E+03  0.00000000000E+00 0.  1.
          2   -1    0    0  502    0 -0.00000000000E+00 -0.00000000000E+00 -0.53023505748E+04  0.53023505748E+04  0.00000000000E+00 0. -1.
         25    1    1    2    0    0  0.19736103780E+03 -0.61767912507E+02  0.87399761849E+01  0.24180165723E+03  0.12500000000E+03 0.  0.
          2    1    1    2  501    0 -0.19736103780E+03  0.61767912507E+02 -0.51837580229E+04  0.51878814457E+04  0.00000000000E+00 0. -1.
<mgrwt>
<rscale>  3 0.24164365E+03</rscale>
<asrwt>0</asrwt>
<pdfrwt beam="1">  1       21 0.19589617E-01 0.24164365E+03</pdfrwt>
<pdfrwt beam="2">  1        2 0.81574636E+00 0.24164365E+03</pdfrwt>
<totfact> 0.62179481E+00</totfact>
</mgrwt>
</event>
<event>
 4    0  0.1313637E-001  0.4323712E+03  0.7546771E-02  0.1033114E+00
         21   -1    0    0  501  502  0.00000000000E+00  0.00000000000E+00  0.58693860404E+03  0.58693860404E+03  0.00000000000E+00 0. -1.
          1   -1    0    0  502    0 -0.00000000000E+00 -0.00000000000E+00 -0.53172701686E+03  0.53172701686E+03  0.00000000000E+00 0. -1.
         25    1    1    2    0    0  0.23524388140E+03  0.34055862174E+03  0.39309845464E+03  0.58435541720E+03  0.12500000000E+03 0.  0.
          1    1    1    2  501    0 -0.23524388140E+03 -0.34055862174E+03 -0.33788686745E+03  0.53431020369E+03  0.00000000000E+00 0. -1.
<mgrwt>
<rscale>  3 0.43237120E+03</rscale>
<asrwt>0</asrwt>
<pdfrwt beam="1">  1       21 0.90298247E-01 0.43237120E+03</pdfrwt>
<pdfrwt beam="2">  1        1 0.81804156E-01 0.43237120E+03</pdfrwt>
<totfact> 0.43389257E+02</totfact>
</mgrwt>
</event>
<event>
 4    0  0.1002184E-001  0.3070471E+03  0.7546771E-02  0.1081770E+00
          2   -1    0    0  502    0 -0.00000000000E+00  0.00000000000E+00  0.26260092040E+03  0.26260092040E+03  0.00000000000E+00 0. -1.
         21   -1    0    0  501  502  0.00000000000E+00 -0.00000000000E+00 -0.39533506803E+03  0.39533506803E+03  0.00000000000E+00 0.  1.
         25    1    1    2    0    0 -0.18779830491E+03 -0.20828998024E+03 -0.20391705679E+03  0.36859203090E+03  0.12500000000E+03 0.  0.
          2    1    1    2  501    0  0.18779830491E+03  0.20828998024E+03  0.71182909159E+02  0.28934395752E+03  0.00000000000E+00 0. -1.
<mgrwt>
<rscale>  3 0.30704710E+03</rscale>
<asrwt>0</asrwt>
<pdfrwt beam="1">  1       21 0.60820780E-01 0.30704710E+03</pdfrwt>
<pdfrwt beam="2">  1        2 0.40400142E-01 0.30704710E+03</pdfrwt>
<totfact> 0.38128859E+03</totfact>
</mgrwt>
</event>
<event>
 4    0  0.1621441E-001  0.2522231E+03  0.7546771E-02  0.1111908E+00
          1   -1    0    0  502    0 -0.00000000000E+00  0.00000000000E+00  0.97180720181E+03  0.97180720181E+03  0.00000000000E+00 0. -1.
         21   -1    0    0  501  502  0.00000000000E+00 -0.00000000000E+00 -0.25826036423E+03  0.25826036423E+03  0.00000000000E+00 0.  1.
         25    1    1    2    0    0  0.63328135715E+02 -0.20971654013E+03 -0.18012422559E+03  0.30993743985E+03  0.12500000000E+03 0.  0.
          1    1    1    2  501    0 -0.63328135715E+02  0.20971654013E+03  0.89367106317E+03  0.92013012619E+03  0.00000000000E+00 0. -1.
<mgrwt>
<rscale>  3 0.25222308E+03</rscale>
<asrwt>0</asrwt>
<pdfrwt beam="1">  1       21 0.39732364E-01 0.25222308E+03</pdfrwt>
<pdfrwt beam="2">  1        1 0.14950880E+00 0.25222308E+03</pdfrwt>
<totfact> 0.11180713E+03</totfact>
</mgrwt>
</event>
<event>
 4    0  0.1317698E-001  0.2539074E+03  0.7546771E-02  0.1110860E+00
         -1   -1    0    0    0  501 -0.00000000000E+00  0.00000000000E+00  0.10362135174E+03  0.10362135174E+03  0.00000000000E+00 0. -1.
         21   -1    0    0  501  502  0.00000000000E+00 -0.00000000000E+00 -0.64661867263E+03  0.64661867263E+03  0.00000000000E+00 0. -1.
         25    1    1    2    0    0 -0.86005949161E+02 -0.20358520923E+03 -0.43635107548E+03  0.50484772138E+03  0.12500000000E+03 0.  0.
         -1    1    1    2    0  502  0.86005949161E+02  0.20358520923E+03 -0.10664624540E+03  0.24539230299E+03  0.00000000000E+00 0. -1.
<mgrwt>
<rscale>  3 0.25390739E+03</rscale>
<asrwt>0</asrwt>
<pdfrwt beam="1">  1       21 0.99479795E-01 0.25390739E+03</pdfrwt>
<pdfrwt beam="2">  1       -1 0.15941747E-01 0.25390739E+03</pdfrwt>
<totfact> 0.21429968E+03</totfact>
</mgrwt>
</event>
<event>
 4    0  0.1002184E-001  0.2437217E+03  0.7546771E-02  0.1117338E+00
         21   -1    0    0  501  502  0.00000000000E+00  0.00000000000E+00  0.10547667115E+03  0.10547667115E+03  0.00000000000E+00 0.  1.
          1   -1    0    0  502    0 -0.00000000000E+00 -0.00000000000E+00 -0.53406602039E+03  0.53406602039E+03  0.00000000000E+00 0. -1.
         25    1    1    2    0    0  0.15854497487E+03 -0.13652382985E+03 -0.13374717853E+03  0.27800822459E+03  0.12500000000E+03 0.  0.
          1    1    1    2  501    0 -0.15854497487E+03  0.13652382985E+03 -0.29484217071E+03  0.36153446696E+03  0.00000000000E+00 0. -1.
<mgrwt>
<rscale>  3 0.24372170E+03</rscale>
<asrwt>0</asrwt>
<pdfrwt beam="1">  1       21 0.16227180E-01 0.24372170E+03</pdfrwt>
<pdfrwt beam="2">  1        1 0.82164006E-01 0.24372170E+03</pdfrwt>
<totfact> 0.15394858E+04</totfact>
</mgrwt>
</event>
<event>
 4    0  0.1416819E-001  0.4580502E+03  0.7546771E-02  0.1025348E+00
         -1   -1    0    0    0  501 -0.00000000000E+00  0.00000000000E+00  0.33081443423E+03  0.33081443423E+03  0.00000000000E+00 0. -1.
         21   -1    0    0  501  502  0.00000000000E+00 -0.00000000000E+00 -0.98460026183E+03  0.98460026183E+03  0.00000000000E+00 0. -1.
         25    1    1    2    0    0  0.44065881767E+03  0.21905468537E+01 -0.73624429342E+03  0.86710186926E+03  0.12500000000E+03 0.  0.
         -1    1    1    2    0  502 -0.44065881767E+03 -0.21905468537E+01  0.82458465819E+02  0.44831282680E+03  0.00000000000E+00 0. -1.
<mgrwt>
<rscale>  3 0.45805021E+03</rscale>
<asrwt>0</asrwt>
<pdfrwt beam="1">  1       21 0.15147696E+00 0.45805021E+03</pdfrwt>
<pdfrwt beam="2">  1       -1 0.50894528E-01 0.45805021E+03</pdfrwt>
<totfact> 0.94147147E+01</totfact>
</mgrwt>
</event>
<event>
 4    0  0.1649173E-001  0.2462523E+03  0.7546771E-02  0.1115696E+00
          2   -1    0    0  502    0 -0.00000000000E+00  0.00000000000E+00  0.87952748573E+03  0.87952748573E+03  0.00000000000E+00 0.  1.
         21   -1    0    0  501  502  0.00000000000E+00 -0.00000000000E+00 -0.14316166207E+04  0.14316166207E+04  0.00000000000E+00 0. -1.
         25    1    1    2    0    0 -0.15447302510E+03 -0.14544162488E+03 -0.14079778309E+04  0.14293501160E+04  0.12500000000E+03 0.  0.
          2    1    1    2  501    0  0.15447302510E+03  0.14544162488E+03  0.85588869594E+03  0.88179399044E+03  0.00000000000E+00 0.  1.
<mgrwt>
<rscale>  3 0.24625227E+03</rscale>
<asrwt>0</asrwt>
<pdfrwt beam="1">  1       21 0.22024871E+00 0.24625227E+03</pdfrwt>
<pdfrwt beam="2">  1        2 0.13531192E+00 0.24625227E+03</pdfrwt>
<totfact> 0.37636044E+01</totfact>
</mgrwt>
</event>
<event>
 4    0  0.1228306E-001  0.2992877E+03  0.7546771E-02  0.1085597E+00
         21   -1    0    0  501  502  0.00000000000E+00  0.00000000000E+00  0.36452411593E+03  0.36452411593E+03  0.00000000000E+00 0.  1.
          2   -1    0    0  502    0 -0.00000000000E+00 -0.00000000000E+00 -0.23795302925E+03  0.23795302925E+03  0.00000000000E+00 0.  1.
         25    1    1    2    0    0 -0.23561252264E+03  0.13577515023E+03 -0.73007985327E+01  0.29937677583E+03  0.12500000000E+03 0.  0.
          2    1    1    2  501    0  0.23561252264E+03 -0.13577515023E+03  0.13387188522E+03  0.30310036935E+03  0.00000000000E+00 0.  1.
<mgrwt>
<rscale>  3 0.29928774E+03</rscale>
<asrwt>0</asrwt>
<pdfrwt beam="1">  1       21 0.56080633E-01 0.29928774E+03</pdfrwt>
<pdfrwt beam="2">  1        2 0.36608159E-01 0.29928774E+03</pdfrwt>
<totfact> 0.50682084E+03</totfact>
</mgrwt>
</event>
<event>
 4    0  0.1385592E-001  0.4225903E+03  0.7546771E-02  0.1036227E+00
          2   -1    0    0  502    0 -0.00000000000E+00  0.00000000000E+00  0.96492022737E+03  0.96492022737E+03  0.00000000000E+00 0.  1.
         21   -1    0    0  501  502  0.00000000000E+00 -0.00000000000E+00 -0.62743841719E+03  0.62743841719E+03  0.00000000000E+00 0. -1.
         25    1    1    2    0    0 -0.32265638786E+03  0.24259107027E+03 -0.50480097568E+03  0.65833623404E+03  0.12500000000E+03 0.  0.
          2    1    1    2  501    0  0.32265638786E+03 -0.24259107027E+03  0.84228278586E+03  0.93402241052E+03  0.00000000000E+00 0.  1.
<mgrwt>
<rscale>  3 0.42259031E+03</rscale>
<asrwt>0</asrwt>
<pdfrwt beam="1">  1       21 0.96528987E-01 0.42259031E+03</pdfrwt>
<pdfrwt beam="2">  1        2 0.14844927E+00 0.42259031E+03</pdfrwt>
<totfact> 0.27892331E+02</totfact>
</mgrwt>
</event>
<event>
 4    0  0.1132696E-001  0.2518447E+03  0.7546771E-02  0.1112145E+00
         21   -1    0    0  501  502  0.00000000000E+00  0.00000000000E+00  0.78190826780E+03  0.78190826780E+03  0.00000000000E+00 0.  1.
          1   -1    0    0  502    0 -0.00000000000E+00 -0.00000000000E+00 -0.74525814030E+02  0.74525814030E+02  0.00000000000E+00 0.  1.
         25    1    1    2    0    0  0.38070815922E+01 -0.21860070106E+03  0.47327322700E+03  0.53610941772E+03  0.12500000000E+03 0.  0.
          1    1    1    2  501    0 -0.38070815922E+01  0.21860070106E+03  0.23410922677E+03  0.32032466411E+03  0.00000000000E+00 0.  1.
<mgrwt>
<rscale>  3 0.25184471E+03</rscale>
<asrwt>0</asrwt>
<pdfrwt beam="1">  1       21 0.12029357E+00 0.25184471E+03</pdfrwt>
<pdfrwt beam="2">  1        1 0.11465510E-01 0.25184471E+03</pdfrwt>
<totfact> 0.29240854E+03</totfact>
</mgrwt>
</event>
<event>
 4    0  0.1470272E-001  0.2571774E+03  0.7546771E-02  0.1108851E+00
         21   -1    0    0  501  502  0.00000000000E+00  0.00000000000E+00  0.14602542830E+03  0.14602542830E+03  0.00000000000E+00 0.  1.
          2   -1    0    0  502    0 -0.00000000000E+00 -0.00000000000E+00 -0.17582624139E+04  0.17582624139E+04  0.00000000000E+00 0.  1.
         25    1    1    2    0    0 -0.60718458802E+02 -0.21639884063E+03  0.18776010762E+02  0.25786183907E+03  0.12500000000E+03 0.  0.
          2    1    1    2  501    0  0.60718458802E+02  0.21639884063E+03 -0.16310129964E+04  0.16464260032E+04  0.00000000000E+00 0.  1.
<mgrwt>
<rscale>  3 0.25717735E+03</rscale>
<asrwt>0</asrwt>
<pdfrwt beam="1">  1       21 0.22465450E-01 0.25717735E+03</pdfrwt>
<pdfrwt beam="2">  1        2 0.27050192E+00 0.25717735E+03</pdfrwt>
<totfact> 0.23090709E+03</totfact>
</mgrwt>
</event>
<event>
 4    0  0.1341200E-001  0.2608880E+03  0.7546771E-02  0.1106611E+00
          1   -1    0    0  502    0 -0.00000000000E+00  0.00000000000E+00  0.63707072826E+03  0.63707072826E+03  0.00000000000E+00 0.  1.
         21   -1    0    0  501  502  0.00000000000E+00 -0.00000000000E+00 -0.16421788361E+03  0.16421788361E+03  0.00000000000E+00 0.  1.
         25    1    1    2    0    0 -0.21043477384E+03  0.90303787041E+02 -0.16084833534E+02  0.26138341544E+03  0.12500000000E+03 0.  0.
          1    1    1    2  501    0  0.21043477384E+03 -0.90303787041E+02  0.48893767818E+03  0.53990519643E+03  0.00000000000E+00 0.  1.
<mgrwt>
<rscale>  3 0.26088804E+03</rscale>
<asrwt>0</asrwt>
<pdfrwt beam="1">  1       21 0.25264290E-01 0.26088804E+03</pdfrwt>
<pdfrwt beam="2">  1        1 0.98010880E-01 0.26088804E+03</pdfrwt>
<totfact> 0.52248822E+03</totfact>
</mgrwt>
</event>
<event>
 4    0  0.1623343E-001  0.2628541E+03  0.7546771E-02  0.1105440E+00
          2   -1    0    0  502    0 -0.00000000000E+00  0.00000000000E+00  0.65945715024E+03  0.65945715024E+03  0.00000000000E+00 0. -1.
         21   -1    0    0  501  502  0.00000000000E+00 -0.00000000000E+00 -0.96358441171E+02  0.96358441171E+02  0.00000000000E+00 0. -1.
         25    1    1    2    0    0 -0.21388841718E+03  0.87858097065E+02  0.22383026326E+03  0.34524235976E+03  0.12500000000E+03 0.  0.
          2    1    1    2  501    0  0.21388841718E+03 -0.87858097065E+02  0.33926844581E+03  0.41057323165E+03  0.00000000000E+00 0. -1.
<mgrwt>
<rscale>  3 0.26285414E+03</rscale>
<asrwt>0</asrwt>
<pdfrwt beam="1">  1       21 0.14824376E-01 0.26285414E+03</pdfrwt>
<pdfrwt beam="2">  1        2 0.10145494E+00 0.26285414E+03</pdfrwt>
<totfact> 0.22515091E+04</totfact>
</mgrwt>
</event>
<event>
 4    0  0.1090388E-001  0.3369142E+03  0.7546771E-02  0.1068118E+00
          3   -1    0    0  502    0 -0.00000000000E+00  0.00000000000E+00  0.21317136753E+03  0.21317136753E+03  0.00000000000E+00 0.  1.
         21   -1    0    0  501  502  0.00000000000E+00 -0.00000000000E+00 -0.84073916753E+03  0.84073916753E+03  0.00000000000E+00 0.  1.
         25    1    1    2    0    0  0.29649086379E+03 -0.99896752140E+02 -0.65833081347E+03  0.73953407857E+03  0.12500000000E+03 0.  0.
          3    1    1    2  501    0 -0.29649086379E+03  0.99896752140E+02  0.30763013471E+02  0.31437645650E+03  0.00000000000E+00 0.  1.
<mgrwt>
<rscale>  3 0.33691422E+03</rscale>
<asrwt>0</asrwt>
<pdfrwt beam="1">  1       21 0.12934449E+00 0.33691422E+03</pdfrwt>
<pdfrwt beam="2">  1        3 0.32795595E-01 0.33691422E+03</pdfrwt>
<totfact> 0.18784814E+02</totfact>
</mgrwt>
</event>
<event>
 4    0  0.1571939E-001  0.2735100E+03  0.7546771E-02  0.1099287E+00
         21   -1    0    0  501  502  0.00000000000E+00  0.00000000000E+00  0.19326862556E+03  0.19326862556E+03  0.00000000000E+00 0.  1.
          2   -1    0    0  502    0 -0.00000000000E+00 -0.00000000000E+00 -0.51354647891E+03  0.51354647891E+03  0.00000000000E+00 0.  1.
         25    1    1    2    0    0 -0.15279171429E+03  0.18930768804E+03  0.35511922888E+02  0.27580573847E+03  0.12500000000E+03 0.  0.
          2    1    1    2  501    0  0.15279171429E+03 -0.18930768804E+03 -0.35578977624E+03  0.43100936600E+03  0.00000000000E+00 0.  1.
<mgrwt>
<rscale>  3 0.27350998E+03</rscale>
<asrwt>0</asrwt>
<pdfrwt beam="1">  1       21 0.29733635E-01 0.27350998E+03</pdfrwt>
<pdfrwt beam="2">  1        2 0.79007151E-01 0.27350998E+03</pdfrwt>
<totfact> 0.80455678E+03</totfact>
</mgrwt>
</event>
<event>
 4    0  0.1157044E-001  0.2642189E+03  0.7546771E-02  0.1104635E+00
          2   -1    0    0  502    0 -0.00000000000E+00  0.00000000000E+00  0.24132114710E+04  0.24132114710E+04  0.00000000000E+00 0.  1.
         21   -1    0    0  501  502  0.00000000000E+00 -0.00000000000E+00 -0.53364337407E+02  0.53364337407E+02  0.00000000000E+00 0. -1.
         25    1    1    2    0    0  0.14613610904E+03 -0.18119294329E+03  0.32681937173E+03  0.42026485316E+03  0.12500000000E+03 0.  0.
          2    1    1    2  501    0 -0.14613610904E+03  0.18119294329E+03  0.20330277618E+04  0.20463109552E+04  0.00000000000E+00 0.  1.
<mgrwt>
<rscale>  3 0.26421893E+03</rscale>
<asrwt>0</asrwt>
<pdfrwt beam="1">  1       21 0.82098999E-02 0.26421893E+03</pdfrwt>
<pdfrwt beam="2">  1        2 0.37126322E+00 0.26421893E+03</pdfrwt>
<totfact> 0.64851268E+03</totfact>
</mgrwt>
</event>
<event>
 4    0  0.1421070E-001  0.2568160E+03  0.7546771E-02  0.1109071E+00
         21   -1    0    0  501  502  0.00000000000E+00  0.00000000000E+00  0.24115736644E+03  0.24115736644E+03  0.00000000000E+00 0.  1.
          1   -1    0    0  502    0 -0.00000000000E+00 -0.00000000000E+00 -0.18767761030E+04  0.18767761030E+04  0.00000000000E+00 0.  1.
         25    1    1    2    0    0 -0.60798629003E+01  0.22425991654E+03  0.16378534031E+03  0.30459828069E+03  0.12500000000E+03 0.  0.
          1    1    1    2  501    0  0.60798629003E+01 -0.22425991654E+03 -0.17994040769E+04  0.18133351887E+04  0.00000000000E+00 0.  1.
<mgrwt>
<rscale>  3 0.25681603E+03</rscale>
<asrwt>0</asrwt>
<pdfrwt beam="1">  1       21 0.37101135E-01 0.25681603E+03</pdfrwt>
<pdfrwt beam="2">  1        1 0.28873477E+00 0.25681603E+03</pdfrwt>
<totfact> 0.31057328E+02</totfact>
</mgrwt>
</event>
<event>
 4    0  0.1329112E-001  0.3503584E+03  0.7546771E-02  0.1062468E+00
          1   -1    0    0  502    0 -0.00000000000E+00  0.00000000000E+00  0.20919260978E+04  0.20919260978E+04  0.00000000000E+00 0. -1.
         21   -1    0    0  501  502  0.00000000000E+00 -0.00000000000E+00 -0.65980553377E+02  0.65980553377E+02  0.00000000000E+00 0. -1.
         25    1    1    2    0    0  0.20892345166E+03 -0.25194638033E+03  0.59930544614E+03  0.69420314389E+03  0.12500000000E+03 0.  0.
          1    1    1    2  501    0 -0.20892345166E+03  0.25194638033E+03  0.14266400983E+04  0.14637035073E+04  0.00000000000E+00 0. -1.
<mgrwt>
<rscale>  3 0.35035837E+03</rscale>
<asrwt>0</asrwt>
<pdfrwt beam="1">  1       21 0.10150856E-01 0.35035837E+03</pdfrwt>
<pdfrwt beam="2">  1        1 0.32183473E+00 0.35035837E+03</pdfrwt>
<totfact> 0.24963834E+03</totfact>
</mgrwt>
</event>
<event>
 4    0  0.1005730E-001  0.3423918E+03  0.7546771E-02  0.1065782E+00
         21   -1    0    0  501  502  0.00000000000E+00  0.00000000000E+00  0.10781581473E+04  0.10781581473E+04  0.00000000000E+00 0.  1.
          4   -1    0    0  502    0 -0.00000000000E+00 -0.00000000000E+00 -0.15024930030E+03  0.15024930030E+03  0.00000000000E+00 0.  1.
         25    1    1    2    0    0  0.24196270256E+03 -0.20751191559E+03  0.12492730379E+03  0.36447081608E+03  0.12500000000E+03 0.  0.
          4    1    1    2  501    0 -0.24196270256E+03  0.20751191559E+03  0.80298154319E+03  0.86393663150E+03  0.00000000000E+00 0.  1.
<mgrwt>
<rscale>  3 0.34239180E+03</rscale>
<asrwt>0</asrwt>
<pdfrwt beam="1">  1       21 0.16587048E+00 0.34239180E+03</pdfrwt>
<pdfrwt beam="2">  1        4 0.23115278E-01 0.34239180E+03</pdfrwt>
<totfact> 0.15951725E+02</totfact>
</mgrwt>
</event>
<event>
 4    0  0.1091708E-001  0.4782576E+03  0.7546771E-02  0.1019615E+00
          1   -1    0    0  502    0 -0.00000000000E+00  0.00000000000E+00  0.26339901467E+04  0.26339901467E+04  0.00000000000E+00 0.  1.
         21   -1    0    0  501  502  0.00000000000E+00 -0.00000000000E+00 -0.87942025033E+02  0.87942025033E+02  0.00000000000E+00 0.  1.
         25    1    1    2    0    0  0.19348077774E+03 -0.41913069836E+03  0.10008071640E+04  0.11092093279E+04  0.12500000000E+03 0.  0.
          1    1    1    2  501    0 -0.19348077774E+03  0.41913069836E+03  0.15452409577E+04  0.16127228438E+04  0.00000000000E+00 0.  1.
<mgrwt>
<rscale>  3 0.47825762E+03</rscale>
<asrwt>0</asrwt>
<pdfrwt beam="1">  1       21 0.13529544E-01 0.47825762E+03</pdfrwt>
<pdfrwt beam="2">  1        1 0.40522919E+00 0.47825762E+03</pdfrwt>
<totfact> 0.61977149E+02</totfact>
</mgrwt>
</event>
<event>
 4    0  0.1441453E-001  0.3360139E+03  0.7546771E-02  0.1068506E+00
         -1   -1    0    0    0  501 -0.00000000000E+00  0.00000000000E+00  0.24823221428E+03  0.24823221428E+03  0.00000000000E+00 0. -1.
         21   -1    0    0  501  502  0.00000000000E+00 -0.00000000000E+00 -0.69694504521E+03  0.69694504521E+03  0.00000000000E+00 0. -1.
         25    1    1    2    0    0 -0.31992863251E+02 -0.31025280060E+03 -0.52570601048E+03  0.62391678374E+03  0.12500000000E+03 0.  0.
         -1    1    1    2    0  502  0.31992863251E+02  0.31025280060E+03  0.76993179549E+02  0.32126047575E+03  0.00000000000E+00 0. -1.
<mgrwt>
<rscale>  3 0.33601390E+03</rscale>
<asrwt>0</asrwt>
<pdfrwt beam="1">  1       21 0.10722231E+00 0.33601390E+03</pdfrwt>
<pdfrwt beam="2">  1       -1 0.38189571E-01 0.33601390E+03</pdfrwt>
<totfact> 0.40300823E+02</totfact>
</mgrwt>
</event>
<event>
 4    0  0.1002184E-001  0.3143449E+03  0.7546771E-02  0.1078282E+00
          1   -1    0    0  502    0 -0.00000000000E+00  0.00000000000E+00  0.77426247675E+03  0.77426247675E+03  0.00000000000E+00 0.  1.
         21   -1    0    0  501  502  0.00000000000E+00 -0.00000000000E+00 -0.11734783738E+03  0.11734783738E+03  0.00000000000E+00 0. -1.
         25    1    1    2    0    0  0.16730899538E+03  0.23493704754E+03  0.33507334020E+03  0.45944190009E+03  0.12500000000E+03 0.  0.
          1    1    1    2  501    0 -0.16730899538E+03 -0.23493704754E+03  0.32184129917E+03  0.43216841404E+03  0.00000000000E+00 0.  1.
<mgrwt>
<rscale>  3 0.31434490E+03</rscale>
<asrwt>0</asrwt>
<pdfrwt beam="1">  1       21 0.18053514E-01 0.31434490E+03</pdfrwt>
<pdfrwt beam="2">  1        1 0.11911730E+00 0.31434490E+03</pdfrwt>
<totfact> 0.73299376E+03</totfact>
</mgrwt>
</event>
<event>
 4    0  0.1010652E-001  0.4056748E+03  0.7546771E-02  0.1041832E+00
         21   -1    0    0  501  502  0.00000000000E+00  0.00000000000E+00  0.91069821825E+02  0.91069821825E+02  0.00000000000E+00 0. -1.
          2   -1    0    0  502    0 -0.00000000000E+00 -0.00000000000E+00 -0.28612958040E+04  0.28612958040E+04  0.00000000000E+00 0. -1.
         25    1    1    2    0    0  0.36698133305E+03 -0.11946437239E+03 -0.47384524168E+03  0.62377988757E+03  0.12500000000E+03 0.  0.
          2    1    1    2  501    0 -0.36698133305E+03  0.11946437239E+03 -0.22963807405E+04  0.23285857383E+04  0.00000000000E+00 0. -1.
<mgrwt>
<rscale>  3 0.40567479E+03</rscale>
<asrwt>0</asrwt>
<pdfrwt beam="1">  1       21 0.14010742E-01 0.40567479E+03</pdfrwt>
<pdfrwt beam="2">  1        2 0.44019934E+00 0.40567479E+03</pdfrwt>
<totfact> 0.13178362E+03</totfact>
</mgrwt>
</event>
<event>
 4    0  0.1470571E-001  0.3660892E+03  0.7546771E-02  0.1056198E+00
         21   -1    0    0  501  502  0.00000000000E+00  0.00000000000E+00  0.34383111725E+03  0.34383111725E+03  0.00000000000E+00 0.  1.
          1   -1    0    0  502    0 -0.00000000000E+00 -0.00000000000E+00 -0.71289920466E+03  0.71289920466E+03  0.00000000000E+00 0.  1.
         25    1    1    2    0    0 -0.25759070205E+03 -0.22813013300E+03  0.18062608555E+03  0.40822433802E+03  0.12500000000E+03 0.  0.
          1    1    1    2  501    0  0.25759070205E+03  0.22813013300E+03 -0.54969417296E+03  0.64850598390E+03  0.00000000000E+00 0.  1.
<mgrwt>
<rscale>  3 0.36608923E+03</rscale>
<asrwt>0</asrwt>
<pdfrwt beam="1">  1       21 0.52897095E-01 0.36608923E+03</pdfrwt>
<pdfrwt beam="2">  1        1 0.10967680E+00 0.36608923E+03</pdfrwt>
<totfact> 0.96652515E+02</totfact>
</mgrwt>
</event>
<event>
 4    0  0.1568724E-001  0.3026651E+03  0.7546771E-02  0.1083916E+00
         21   -1    0    0  501  502  0.00000000000E+00  0.00000000000E+00  0.98299776175E+02  0.98299776175E+02  0.00000000000E+00 0.  1.
          2   -1    0    0  502    0 -0.00000000000E+00 -0.00000000000E+00 -0.14043295561E+04  0.14043295561E+04  0.00000000000E+00 0.  1.
         25    1    1    2    0    0  0.10316503052E+03  0.25561320917E+03 -0.20001725319E+03  0.36278511243E+03  0.12500000000E+03 0.  0.
          2    1    1    2  501    0 -0.10316503052E+03 -0.25561320917E+03 -0.11060125268E+04  0.11398442199E+04  0.00000000000E+00 0.  1.
<mgrwt>
<rscale>  3 0.30266506E+03</rscale>
<asrwt>0</asrwt>
<pdfrwt beam="1">  1       21 0.15123043E-01 0.30266506E+03</pdfrwt>
<pdfrwt beam="2">  1        2 0.21605069E+00 0.30266506E+03</pdfrwt>
<totfact> 0.73589546E+03</totfact>
</mgrwt>
</event>
<event>
 4    0  0.1411495E-001  0.2685868E+03  0.7546771E-02  0.1102091E+00
         21   -1    0    0  501  502  0.00000000000E+00  0.00000000000E+00  0.38970031456E+03  0.38970031456E+03  0.00000000000E+00 0. -1.
          2   -1    0    0  502    0 -0.00000000000E+00 -0.00000000000E+00 -0.53960822613E+03  0.53960822613E+03  0.00000000000E+00 0. -1.
         25    1    1    2    0    0 -0.14385175143E+03  0.18926313377E+03  0.31086573340E+03  0.41082400660E+03  0.12500000000E+03 0.  0.
          2    1    1    2  501    0  0.14385175143E+03 -0.18926313377E+03 -0.46077364497E+03  0.51848453409E+03  0.00000000000E+00 0. -1.
<mgrwt>
<rscale>  3 0.26858678E+03</rscale>
<asrwt>0</asrwt>
<pdfrwt beam="1">  1       21 0.59953895E-01 0.26858678E+03</pdfrwt>
<pdfrwt beam="2">  1        2 0.83016650E-01 0.26858678E+03</pdfrwt>
<totfact> 0.18014104E+03</totfact>
</mgrwt>
</event>
<event>
 4    0  0.1397368E-001  0.2418721E+03  0.7546771E-02  0.1118552E+00
          2   -1    0    0  502    0 -0.00000000000E+00  0.00000000000E+00  0.60286392166E+03  0.60286392166E+03  0.00000000000E+00 0.  1.
         21   -1    0    0  501  502  0.00000000000E+00 -0.00000000000E+00 -0.90991234624E+02  0.90991234624E+02  0.00000000000E+00 0.  1.
         25    1    1    2    0    0 -0.12493863451E+03  0.16512860920E+03  0.17541765028E+03  0.29878666637E+03  0.12500000000E+03 0.  0.
          2    1    1    2  501    0  0.12493863451E+03 -0.16512860920E+03  0.33645503676E+03  0.39506848992E+03  0.00000000000E+00 0.  1.
<mgrwt>
<rscale>  3 0.24187211E+03</rscale>
<asrwt>0</asrwt>
<pdfrwt beam="1">  1       21 0.13998652E-01 0.24187211E+03</pdfrwt>
<pdfrwt beam="2">  1        2 0.92748293E-01 0.24187211E+03</pdfrwt>
<totfact> 0.27869236E+04</totfact>
</mgrwt>
</event>
<event>
 4    0  0.1692747E-001  0.2758946E+03  0.7546771E-02  0.1097953E+00
         21   -1    0    0  501  502  0.00000000000E+00  0.00000000000E+00  0.48069395599E+03  0.48069395599E+03  0.00000000000E+00 0.  1.
          1   -1    0    0  502    0 -0.00000000000E+00 -0.00000000000E+00 -0.73322898484E+03  0.73322898484E+03  0.00000000000E+00 0. -1.
         25    1    1    2    0    0 -0.17284976710E+03 -0.17497362321E+03  0.41735819303E+03  0.50030557871E+03  0.12500000000E+03 0.  0.
          1    1    1    2  501    0  0.17284976710E+03  0.17497362321E+03 -0.66989322187E+03  0.71361736212E+03  0.00000000000E+00 0. -1.
<mgrwt>
<rscale>  3 0.27589456E+03</rscale>
<asrwt>0</asrwt>
<pdfrwt beam="1">  1       21 0.73952916E-01 0.27589456E+03</pdfrwt>
<pdfrwt beam="2">  1        1 0.11280446E+00 0.27589456E+03</pdfrwt>
<totfact> 0.45980064E+02</totfact>
</mgrwt>
</event>
<event>
 4    0  0.1230332E-001  0.4692064E+03  0.7546771E-02  0.1022144E+00
          2   -1    0    0  502    0 -0.00000000000E+00  0.00000000000E+00  0.18014715367E+04  0.18014715367E+04  0.00000000000E+00 0.  1.
         21   -1    0    0  501  502  0.00000000000E+00 -0.00000000000E+00 -0.11788823702E+03  0.11788823702E+03  0.00000000000E+00 0.  1.
         25    1    1    2    0    0  0.12263253284E+03  0.43530556573E+03  0.87830476158E+03  0.99577805152E+03  0.12500000000E+03 0.  0.
          2    1    1    2  501    0 -0.12263253284E+03 -0.43530556573E+03  0.80527853808E+03  0.92358172219E+03  0.00000000000E+00 0.  1.
<mgrwt>
<rscale>  3 0.46920643E+03</rscale>
<asrwt>0</asrwt>
<pdfrwt beam="1">  1       21 0.18136653E-01 0.46920643E+03</pdfrwt>
<pdfrwt beam="2">  1        2 0.27714945E+00 0.46920643E+03</pdfrwt>
<totfact> 0.30765610E+03</totfact>
</mgrwt>
</event>
<event>
 4    0  0.1002184E-001  0.2371938E+03  0.7546771E-02  0.1121676E+00
          4   -1    0    0  502    0 -0.00000000000E+00  0.00000000000E+00  0.80031487555E+03  0.80031487555E+03  0.00000000000E+00 0. -1.
         21   -1    0    0  501  502  0.00000000000E+00 -0.00000000000E+00 -0.60253578383E+02  0.60253578383E+02  0.00000000000E+00 0. -1.
         25    1    1    2    0    0  0.20148461875E+03 -0.63116263208E+01  0.38142916183E+03  0.44916488478E+03  0.12500000000E+03 0.  0.
          4    1    1    2  501    0 -0.20148461875E+03  0.63116263208E+01  0.35863213533E+03  0.41140356915E+03  0.00000000000E+00 0. -1.
<mgrwt>
<rscale>  3 0.23719378E+03</rscale>
<asrwt>0</asrwt>
<pdfrwt beam="1">  1       21 0.92697818E-02 0.23719378E+03</pdfrwt>
<pdfrwt beam="2">  1        4 0.12312536E+00 0.23719378E+03</pdfrwt>
<totfact> 0.20397943E+03</totfact>
</mgrwt>
</event>
<event>
 4    0  0.1008243E-001  0.3029112E+03  0.7546771E-02  0.1083794E+00
          2   -1    0    0  502    0 -0.00000000000E+00  0.00000000000E+00  0.14170524936E+04  0.14170524936E+04  0.00000000000E+00 0. -1.
         21   -1    0    0  501  502  0.00000000000E+00 -0.00000000000E+00 -0.75608316477E+02  0.75608316477E+02  0.00000000000E+00 0.  1.
         25    1    1    2    0    0  0.20621949408E+03  0.18331319661E+03  0.34683061243E+03  0.46048526741E+03  0.12500000000E+03 0.  0.
          2    1    1    2  501    0 -0.20621949408E+03 -0.18331319661E+03  0.99461356471E+03  0.10321755427E+04  0.00000000000E+00 0. -1.
<mgrwt>
<rscale>  3 0.30291122E+03</rscale>
<asrwt>0</asrwt>
<pdfrwt beam="1">  1       21 0.11632050E-01 0.30291122E+03</pdfrwt>
<pdfrwt beam="2">  1        2 0.21800806E+00 0.30291122E+03</pdfrwt>
<totfact> 0.11681422E+04</totfact>
</mgrwt>
</event>
<event>
 4    0  0.1392214E-001  0.2492864E+03  0.7546771E-02  0.1113757E+00
         21   -1    0    0  501  502  0.00000000000E+00  0.00000000000E+00  0.19966406753E+03  0.19966406753E+03  0.00000000000E+00 0. -1.
          2   -1    0    0  502    0 -0.00000000000E+00 -0.00000000000E+00 -0.71542541543E+03  0.71542541543E+03  0.00000000000E+00 0. -1.
         25    1    1    2    0    0 -0.55657575957E+02  0.20837692115E+03  0.95453520225E+02  0.26693647475E+03  0.12500000000E+03 0.  0.
          2    1    1    2  501    0  0.55657575957E+02 -0.20837692115E+03 -0.61121486813E+03  0.64815300821E+03  0.00000000000E+00 0. -1.
<mgrwt>
<rscale>  3 0.24928640E+03</rscale>
<asrwt>0</asrwt>
<pdfrwt beam="1">  1       21 0.30717549E-01 0.24928640E+03</pdfrwt>
<pdfrwt beam="2">  1        2 0.11006545E+00 0.24928640E+03</pdfrwt>
<totfact> 0.51472981E+03</totfact>
</mgrwt>
</event>
<event>
 4    0  0.1838025E-001  0.3013801E+03  0.7546771E-02  0.1084553E+00
          2   -1    0    0  502    0 -0.00000000000E+00  0.00000000000E+00  0.14177957331E+04  0.14177957331E+04  0.00000000000E+00 0. -1.
         21   -1    0    0  501  502  0.00000000000E+00 -0.00000000000E+00 -0.26944802250E+03  0.26944802250E+03  0.00000000000E+00 0.  1.
         25    1    1    2    0    0  0.17927346822E+03 -0.20752350728E+03 -0.16635499989E+03  0.34424405364E+03  0.12500000000E+03 0.  0.
          2    1    1    2  501    0 -0.17927346822E+03  0.20752350728E+03  0.13147027105E+04  0.13429997020E+04  0.00000000000E+00 0. -1.
<mgrwt>
<rscale>  3 0.30138013E+03</rscale>
<asrwt>0</asrwt>
<pdfrwt beam="1">  1       21 0.41453543E-01 0.30138013E+03</pdfrwt>
<pdfrwt beam="2">  1        2 0.21812242E+00 0.30138013E+03</pdfrwt>
<totfact> 0.10283108E+03</totfact>
</mgrwt>
</event>
<event>
 4    0  0.1080032E-001  0.2677737E+03  0.7546771E-02  0.1102561E+00
         21   -1    0    0  501  502  0.00000000000E+00  0.00000000000E+00  0.94323743002E+03  0.94323743002E+03  0.00000000000E+00 0.  1.
          1   -1    0    0  502    0 -0.00000000000E+00 -0.00000000000E+00 -0.70887750334E+02  0.70887750334E+02  0.00000000000E+00 0.  1.
         25    1    1    2    0    0 -0.78099911048E+02  0.22355794300E+03  0.57261790255E+03  0.63213448909E+03  0.12500000000E+03 0.  0.
          1    1    1    2  501    0  0.78099911048E+02 -0.22355794300E+03  0.29973177714E+03  0.38199069126E+03  0.00000000000E+00 0.  1.
<mgrwt>
<rscale>  3 0.26777369E+03</rscale>
<asrwt>0</asrwt>
<pdfrwt beam="1">  1       21 0.14511344E+00 0.26777369E+03</pdfrwt>
<pdfrwt beam="2">  1        1 0.10905808E-01 0.26777369E+03</pdfrwt>
<totfact> 0.19226407E+03</totfact>
</mgrwt>
</event>
<event>
 4    0  0.1541361E-001  0.2615099E+03  0.7546771E-02  0.1106239E+00
         21   -1    0    0  501  502  0.00000000000E+00  0.00000000000E+00  0.93979600564E+02  0.93979600564E+02  0.00000000000E+00 0.  1.
          2   -1    0    0  502    0 -0.00000000000E+00 -0.00000000000E+00 -0.15793483832E+04  0.15793483832E+04  0.00000000000E+00 0.  1.
         25    1    1    2    0    0 -0.16998946015E+03 -0.15448621425E+03 -0.11817337298E+03  0.28697099686E+03  0.12500000000E+03 0.  0.
          2    1    1    2  501    0  0.16998946015E+03  0.15448621425E+03 -0.13671954097E+04  0.13863569870E+04  0.00000000000E+00 0.  1.
<mgrwt>
<rscale>  3 0.26150986E+03</rscale>
<asrwt>0</asrwt>
<pdfrwt beam="1">  1       21 0.14458400E-01 0.26150986E+03</pdfrwt>
<pdfrwt beam="2">  1        2 0.24297667E+00 0.26150986E+03</pdfrwt>
<totfact> 0.65122320E+03</totfact>
</mgrwt>
</event>
<event>
 4    0  0.1175453E-001  0.2838561E+03  0.7546771E-02  0.1093601E+00
          2   -1    0    0  502    0 -0.00000000000E+00  0.00000000000E+00  0.39430544916E+03  0.39430544916E+03  0.00000000000E+00 0.  1.
         21   -1    0    0  501  502  0.00000000000E+00 -0.00000000000E+00 -0.33514811887E+03  0.33514811887E+03  0.00000000000E+00 0. -1.
         25    1    1    2    0    0  0.30554275348E+02  0.25301328444E+03 -0.21428842148E+03  0.35565968766E+03  0.12500000000E+03 0.  0.
          2    1    1    2  501    0 -0.30554275348E+02 -0.25301328444E+03  0.27344575176E+03  0.37379388037E+03  0.00000000000E+00 0.  1.
<mgrwt>
<rscale>  3 0.28385610E+03</rscale>
<asrwt>0</asrwt>
<pdfrwt beam="1">  1       21 0.51561249E-01 0.28385610E+03</pdfrwt>
<pdfrwt beam="2">  1        2 0.60662377E-01 0.28385610E+03</pdfrwt>
<totfact> 0.35115733E+03</totfact>
</mgrwt>
</event>
<event>
 4    0  0.1257182E-001  0.3425415E+03  0.7546771E-02  0.1065719E+00
         21   -1    0    0  501  502  0.00000000000E+00  0.00000000000E+00  0.14242622165E+03  0.14242622165E+03  0.00000000000E+00 0. -1.
          2   -1    0    0  502    0 -0.00000000000E+00 -0.00000000000E+00 -0.80736086687E+03  0.80736086687E+03  0.00000000000E+00 0. -1.
         25    1    1    2    0    0  0.31793186420E+03  0.25080219881E+02 -0.23896261391E+03  0.41765753741E+03  0.12500000000E+03 0.  0.
          2    1    1    2  501    0 -0.31793186420E+03 -0.25080219881E+02 -0.42597203131E+03  0.53212955111E+03  0.00000000000E+00 0. -1.
<mgrwt>
<rscale>  3 0.34254151E+03</rscale>
<asrwt>0</asrwt>
<pdfrwt beam="1">  1       21 0.21911727E-01 0.34254151E+03</pdfrwt>
<pdfrwt beam="2">  1        2 0.12420936E+00 0.34254151E+03</pdfrwt>
<totfact> 0.83235323E+03</totfact>
</mgrwt>
</event>
<event>
 4    0  0.1002184E-001  0.2645952E+03  0.7546771E-02  0.1104413E+00
          1   -1    0    0  502    0 -0.00000000000E+00  0.00000000000E+00  0.15155521915E+03  0.15155521915E+03  0.00000000000E+00 0. -1.
         21   -1    0    0  501  502  0.00000000000E+00 -0.00000000000E+00 -0.83156720226E+03  0.83156720226E+03  0.00000000000E+00 0.  1.
         25    1    1    2    0    0  0.22995916568E+03  0.38786369817E+02 -0.70070586392E+03  0.74899887056E+03  0.12500000000E+03 0.  0.
          1    1    1    2  501    0 -0.22995916568E+03 -0.38786369817E+02  0.20693880812E+02  0.23412355086E+03  0.00000000000E+00 0. -1.
<mgrwt>
<rscale>  3 0.26459516E+03</rscale>
<asrwt>0</asrwt>
<pdfrwt beam="1">  1       21 0.12793342E+00 0.26459516E+03</pdfrwt>
<pdfrwt beam="2">  1        1 0.23316187E-01 0.26459516E+03</pdfrwt>
<totfact> 0.98332670E+02</totfact>
</mgrwt>
</event>
<event>
 4    0  0.1716284E-001  0.2555181E+03  0.7546771E-02  0.1109866E+00
          2   -1    0    0  502    0 -0.00000000000E+00  0.00000000000E+00  0.15288613754E+04  0.15288613754E+04  0.00000000000E+00 0.  1.
         21   -1    0    0  501  502  0.00000000000E+00 -0.00000000000E+00 -0.37830307788E+02  0.37830307788E+02  0.00000000000E+00 0.  1.
         25    1    1    2    0    0 -0.22175724448E+03  0.22095850263E+02  0.71449319299E+03  0.75880829259E+03  0.12500000000E+03 0.  0.
          2    1    1    2  501    0  0.22175724448E+03 -0.22095850263E+02  0.77653787465E+03  0.80788339062E+03  0.00000000000E+00 0.  1.
<mgrwt>
<rscale>  3 0.25551811E+03</rscale>
<asrwt>0</asrwt>
<pdfrwt beam="1">  1       21 0.58200485E-02 0.25551811E+03</pdfrwt>
<pdfrwt beam="2">  1        2 0.23520939E+00 0.25551811E+03</pdfrwt>
<totfact> 0.34731508E+04</totfact>
</mgrwt>
</event>
<event>
 4    0  0.1002184E-001  0.3961751E+03  0.7546771E-02  0.1045112E+00
         21   -1    0    0  501  502  0.00000000000E+00  0.00000000000E+00  0.61059765510E+03  0.61059765510E+03  0.00000000000E+00 0. -1.
         -3   -1    0    0    0  501 -0.00000000000E+00 -0.00000000000E+00 -0.24497368771E+03  0.24497368771E+03  0.00000000000E+00 0.  1.
         25    1    1    2    0    0 -0.45390292590E+02  0.37318821887E+03  0.21329262761E+03  0.44994274120E+03  0.12500000000E+03 0.  0.
         -3    1    1    2    0  502  0.45390292590E+02 -0.37318821887E+03  0.15233133978E+03  0.40562860161E+03  0.00000000000E+00 0.  1.
<mgrwt>
<rscale>  3 0.39617512E+03</rscale>
<asrwt>0</asrwt>
<pdfrwt beam="1">  1       21 0.93938100E-01 0.39617512E+03</pdfrwt>
<pdfrwt beam="2">  1       -3 0.37688260E-01 0.39617512E+03</pdfrwt>
<totfact> 0.31321299E+02</totfact>
</mgrwt>
</event>
<event>
 4    0  0.1002184E-001  0.2775484E+03  0.7546771E-02  0.1097036E+00
          1   -1    0    0  502    0 -0.00000000000E+00  0.00000000000E+00  0.97897639234E+02  0.97897639234E+02  0.00000000000E+00 0. -1.
         21   -1    0    0  501  502  0.00000000000E+00 -0.00000000000E+00 -0.13664236717E+04  0.13664236717E+04  0.00000000000E+00 0. -1.
         25    1    1    2    0    0  0.30414591465E+02 -0.24593302329E+03 -0.11618290279E+04  0.11945207363E+04  0.12500000000E+03 0.  0.
          1    1    1    2  501    0 -0.30414591465E+02  0.24593302329E+03 -0.10669700462E+03  0.26980057471E+03  0.00000000000E+00 0. -1.
<mgrwt>
<rscale>  3 0.27754837E+03</rscale>
<asrwt>0</asrwt>
<pdfrwt beam="1">  1       21 0.21021903E+00 0.27754837E+03</pdfrwt>
<pdfrwt beam="2">  1        1 0.15061175E-01 0.27754837E+03</pdfrwt>
<totfact> 0.43506888E+02</totfact>
</mgrwt>
</event>
<event>
 4    0  0.1525495E-001  0.2851795E+03  0.7546771E-02  0.1092893E+00
          2   -1    0    0  502    0 -0.00000000000E+00  0.00000000000E+00  0.20217848262E+04  0.20217848262E+04  0.00000000000E+00 0.  1.
         21   -1    0    0  501  502  0.00000000000E+00 -0.00000000000E+00 -0.57046541916E+03  0.57046541916E+03  0.00000000000E+00 0. -1.
         25    1    1    2    0    0 -0.19558589009E+03  0.16567590671E+03 -0.52602793053E+03  0.59835836266E+03  0.12500000000E+03 0.  0.
          2    1    1    2  501    0  0.19558589009E+03 -0.16567590671E+03  0.19773473375E+04  0.19938918827E+04  0.00000000000E+00 0.  1.
<mgrwt>
<rscale>  3 0.28517950E+03</rscale>
<asrwt>0</asrwt>
<pdfrwt beam="1">  1       21 0.87763912E-01 0.28517950E+03</pdfrwt>
<pdfrwt beam="2">  1        2 0.31104382E+00 0.28517950E+03</pdfrwt>
<totfact> 0.96775783E+01</totfact>
</mgrwt>
</event>
<event>
 4    0  0.1002184E-001  0.2458304E+03  0.7546771E-02  0.1115969E+00
         -2   -1    0    0    0  501 -0.00000000000E+00  0.00000000000E+00  0.89555977833E+02  0.89555977833E+02  0.00000000000E+00 0. -1.
         21   -1    0    0  501  502  0.00000000000E+00 -0.00000000000E+00 -0.61396742069E+03  0.61396742069E+03  0.00000000000E+00 0.  1.
         25    1    1    2    0    0 -0.14916305690E+03  0.15019312202E+03 -0.35793890092E+03  0.43422672446E+03  0.12500000000E+03 0.  0.
         -2    1    1    2    0  502  0.14916305690E+03 -0.15019312202E+03 -0.16647254194E+03  0.26929667407E+03  0.00000000000E+00 0. -1.
<mgrwt>
<rscale>  3 0.24583041E+03</rscale>
<asrwt>0</asrwt>
<pdfrwt beam="1">  1       21 0.94456524E-01 0.24583041E+03</pdfrwt>
<pdfrwt beam="2">  1       -2 0.13777843E-01 0.24583041E+03</pdfrwt>
<totfact> 0.28797043E+03</totfact>
</mgrwt>
</event>
<event>
 4    0  0.1369488E-001  0.2608896E+03  0.7546771E-02  0.1106610E+00
          2   -1    0    0  502    0 -0.00000000000E+00  0.00000000000E+00  0.49180566827E+03  0.49180566827E+03  0.00000000000E+00 0.  1.
         21   -1    0    0  501  502  0.00000000000E+00 -0.00000000000E+00 -0.15738531350E+03  0.15738531350E+03  0.00000000000E+00 0.  1.
         25    1    1    2    0    0 -0.19440140928E+02 -0.22816763811E+03  0.21973481542E+02  0.26181333818E+03  0.12500000000E+03 0.  0.
          2    1    1    2  501    0  0.19440140928E+02  0.22816763811E+03  0.31244687324E+03  0.38737764359E+03  0.00000000000E+00 0.  1.
<mgrwt>
<rscale>  3 0.26088961E+03</rscale>
<asrwt>0</asrwt>
<pdfrwt beam="1">  1       21 0.24213125E-01 0.26088961E+03</pdfrwt>
<pdfrwt beam="2">  1        2 0.75662410E-01 0.26088961E+03</pdfrwt>
<totfact> 0.12610480E+04</totfact>
</mgrwt>
</event>
<event>
 4    0  0.1219850E-001  0.2456208E+03  0.7546771E-02  0.1116104E+00
          2   -1    0    0  502    0 -0.00000000000E+00  0.00000000000E+00  0.28424989257E+03  0.28424989257E+03  0.00000000000E+00 0. -1.
         21   -1    0    0  501  502  0.00000000000E+00 -0.00000000000E+00 -0.23376434567E+03  0.23376434567E+03  0.00000000000E+00 0. -1.
         25    1    1    2    0    0 -0.20992706110E+03 -0.25203060488E+02 -0.92838531103E+02  0.26258057449E+03  0.12500000000E+03 0.  0.
          2    1    1    2  501    0  0.20992706110E+03  0.25203060488E+02  0.14332407800E+03  0.25543366375E+03  0.00000000000E+00 0. -1.
<mgrwt>
<rscale>  3 0.24562078E+03</rscale>
<asrwt>0</asrwt>
<pdfrwt beam="1">  1       21 0.35963745E-01 0.24562078E+03</pdfrwt>
<pdfrwt beam="2">  1        2 0.43730753E-01 0.24562078E+03</pdfrwt>
<totfact> 0.10599029E+04</totfact>
</mgrwt>
</event>
<event>
 4    0  0.1371283E-001  0.2452726E+03  0.7546771E-02  0.1116329E+00
          2   -1    0    0  502    0 -0.00000000000E+00  0.00000000000E+00  0.19805049031E+04  0.19805049031E+04  0.00000000000E+00 0. -1.
         21   -1    0    0  501  502  0.00000000000E+00 -0.00000000000E+00 -0.75119881465E+02  0.75119881465E+02  0.00000000000E+00 0.  1.
         25    1    1    2    0    0 -0.19770759508E+03  0.73792532631E+02  0.14979578097E+03  0.28739764617E+03  0.12500000000E+03 0.  0.
          2    1    1    2  501    0  0.19770759508E+03 -0.73792532631E+02  0.17555892406E+04  0.17682271384E+04  0.00000000000E+00 0. -1.
<mgrwt>
<rscale>  3 0.24527256E+03</rscale>
<asrwt>0</asrwt>
<pdfrwt beam="1">  1       21 0.11556906E-01 0.24527256E+03</pdfrwt>
<pdfrwt beam="2">  1        2 0.30469302E+00 0.24527256E+03</pdfrwt>
<totfact> 0.60481345E+03</totfact>
</mgrwt>
</event>
<event>
 4    0  0.1596930E-001  0.2552619E+03  0.7546771E-02  0.1110024E+00
          2   -1    0    0  502    0 -0.00000000000E+00  0.00000000000E+00  0.86606523281E+03  0.86606523281E+03  0.00000000000E+00 0. -1.
         21   -1    0    0  501  502  0.00000000000E+00 -0.00000000000E+00 -0.24129406690E+03  0.24129406690E+03  0.00000000000E+00 0. -1.
         25    1    1    2    0    0 -0.14511526818E+03 -0.16874590587E+03 -0.15352036550E+03  0.29787098622E+03  0.12500000000E+03 0.  0.
          2    1    1    2  501    0  0.14511526818E+03  0.16874590587E+03  0.77829153141E+03  0.80948831348E+03  0.00000000000E+00 0. -1.
<mgrwt>
<rscale>  3 0.25526187E+03</rscale>
<asrwt>0</asrwt>
<pdfrwt beam="1">  1       21 0.37122165E-01 0.25526187E+03</pdfrwt>
<pdfrwt beam="2">  1        2 0.13324080E+00 0.25526187E+03</pdfrwt>
<totfact> 0.27659720E+03</totfact>
</mgrwt>
</event>
<event>
 4    0  0.1002184E-001  0.3550502E+03  0.7546771E-02  0.1060561E+00
         -1   -1    0    0    0  501 -0.00000000000E+00  0.00000000000E+00  0.85484478007E+02  0.85484478007E+02  0.00000000000E+00 0. -1.
         21   -1    0    0  501  502  0.00000000000E+00 -0.00000000000E+00 -0.20329007806E+04  0.20329007806E+04  0.00000000000E+00 0.  1.
         25    1    1    2    0    0  0.26094144697E+02  0.33129256144E+03 -0.15948243760E+04  0.16338682493E+04  0.12500000000E+03 0.  0.
         -1    1    1    2    0  502 -0.26094144697E+02 -0.33129256144E+03 -0.35259192660E+03  0.48451700936E+03  0.00000000000E+00 0. -1.
<mgrwt>
<rscale>  3 0.35505023E+03</rscale>
<asrwt>0</asrwt>
<pdfrwt beam="1">  1       21 0.31275398E+00 0.35505023E+03</pdfrwt>
<pdfrwt beam="2">  1       -1 0.13151458E-01 0.35505023E+03</pdfrwt>
<totfact> 0.90118080E+01</totfact>
</mgrwt>
</event>
<event>
 4    0  0.1955546E-001  0.3029738E+03  0.7546771E-02  0.1083763E+00
         21   -1    0    0  501  502  0.00000000000E+00  0.00000000000E+00  0.74264211378E+02  0.74264211378E+02  0.00000000000E+00 0. -1.
         -2   -1    0    0    0  501 -0.00000000000E+00 -0.00000000000E+00 -0.13365531735E+04  0.13365531735E+04  0.00000000000E+00 0. -1.
         25    1    1    2    0    0  0.11485106311E+02  0.27574662908E+03 -0.37784663488E+03  0.48431517693E+03  0.12500000000E+03 0.  0.
         -2    1    1    2    0  502 -0.11485106311E+02 -0.27574662908E+03 -0.88444232722E+03  0.92650220793E+03  0.00000000000E+00 0. -1.
<mgrwt>
<rscale>  3 0.30297378E+03</rscale>
<asrwt>0</asrwt>
<pdfrwt beam="1">  1       21 0.11425264E-01 0.30297378E+03</pdfrwt>
<pdfrwt beam="2">  1       -2 0.20562355E+00 0.30297378E+03</pdfrwt>
<totfact> 0.68727580E+02</totfact>
</mgrwt>
</event>
<event>
 4    0  0.1558533E-001  0.2767046E+03  0.7546771E-02  0.1097503E+00
         21   -1    0    0  501  502  0.00000000000E+00  0.00000000000E+00  0.11064118504E+03  0.11064118504E+03  0.00000000000E+00 0.  1.
          2   -1    0    0  502    0 -0.00000000000E+00 -0.00000000000E+00 -0.10838084846E+04  0.10838084846E+04  0.00000000000E+00 0.  1.
         25    1    1    2    0    0  0.17572055581E+03  0.17338605331E+03 -0.11185275798E+03  0.29845682549E+03  0.12500000000E+03 0.  0.
          2    1    1    2  501    0 -0.17572055581E+03 -0.17338605331E+03 -0.86131454160E+03  0.89599284416E+03  0.00000000000E+00 0.  1.
<mgrwt>
<rscale>  3 0.27670460E+03</rscale>
<asrwt>0</asrwt>
<pdfrwt beam="1">  1       21 0.17021721E-01 0.27670460E+03</pdfrwt>
<pdfrwt beam="2">  1        2 0.16673976E+00 0.27670460E+03</pdfrwt>
<totfact> 0.90422739E+03</totfact>
</mgrwt>
</event>
<event>
 4    0  0.1002184E-001  0.2889096E+03  0.7546771E-02  0.1090920E+00
         21   -1    0    0  501  502  0.00000000000E+00  0.00000000000E+00  0.36998102301E+02  0.36998102301E+02  0.00000000000E+00 0. -1.
          2   -1    0    0  502    0 -0.00000000000E+00 -0.00000000000E+00 -0.21056282760E+04  0.21056282760E+04  0.00000000000E+00 0.  1.
         25    1    1    2    0    0 -0.26042815837E+03 -0.45731986418E+01 -0.89643012826E+03  0.94183635238E+03  0.12500000000E+03 0.  0.
          2    1    1    2  501    0  0.26042815837E+03  0.45731986418E+01 -0.11722000454E+04  0.12007900259E+04  0.00000000000E+00 0.  1.
<mgrwt>
<rscale>  3 0.28890957E+03</rscale>
<asrwt>0</asrwt>
<pdfrwt beam="1">  1       21 0.56920184E-02 0.28890957E+03</pdfrwt>
<pdfrwt beam="2">  1        2 0.32394266E+00 0.28890957E+03</pdfrwt>
<totfact> 0.17770491E+04</totfact>
</mgrwt>
</event>
<event>
 4    0  0.1609353E-001  0.3680875E+03  0.7546771E-02  0.1055427E+00
         21   -1    0    0  501  502  0.00000000000E+00  0.00000000000E+00  0.17203862813E+03  0.17203862813E+03  0.00000000000E+00 0.  1.
          1   -1    0    0  502    0 -0.00000000000E+00 -0.00000000000E+00 -0.13455676275E+04  0.13455676275E+04  0.00000000000E+00 0.  1.
         25    1    1    2    0    0  0.34595611120E+03 -0.13334609437E+02 -0.88356032032E+02  0.37854356563E+03  0.12500000000E+03 0.  0.
          1    1    1    2  501    0 -0.34595611120E+03  0.13334609437E+02 -0.10851729673E+04  0.11390626900E+04  0.00000000000E+00 0.  1.
<mgrwt>
<rscale>  3 0.36808755E+03</rscale>
<asrwt>0</asrwt>
<pdfrwt beam="1">  1       21 0.26467482E-01 0.36808755E+03</pdfrwt>
<pdfrwt beam="2">  1        1 0.20701040E+00 0.36808755E+03</pdfrwt>
<totfact> 0.12993741E+03</totfact>
</mgrwt>
</event>
<event>
 4    0  0.1240055E-001  0.2543141E+03  0.7546771E-02  0.1110608E+00
          1   -1    0    0  502    0 -0.00000000000E+00  0.00000000000E+00  0.13784024182E+03  0.13784024182E+03  0.00000000000E+00 0.  1.
         21   -1    0    0  501  502  0.00000000000E+00 -0.00000000000E+00 -0.42668054392E+03  0.42668054392E+03  0.00000000000E+00 0.  1.
         25    1    1    2    0    0 -0.73045225695E+02 -0.20908149132E+03 -0.20872738605E+03  0.32900273053E+03  0.12500000000E+03 0.  0.
          1    1    1    2  501    0  0.73045225695E+02  0.20908149132E+03 -0.80112916056E+02  0.23551805521E+03  0.00000000000E+00 0.  1.
<mgrwt>
<rscale>  3 0.25431413E+03</rscale>
<asrwt>0</asrwt>
<pdfrwt beam="1">  1       21 0.65643160E-01 0.25431413E+03</pdfrwt>
<pdfrwt beam="2">  1        1 0.21206191E-01 0.25431413E+03</pdfrwt>
<totfact> 0.53539522E+03</totfact>
</mgrwt>
</event>
<event>
 4    0  0.1614078E-001  0.3141374E+03  0.7546771E-02  0.1078380E+00
          2   -1    0    0  502    0 -0.00000000000E+00  0.00000000000E+00  0.73940725734E+03  0.73940725734E+03  0.00000000000E+00 0. -1.
         21   -1    0    0  501  502  0.00000000000E+00 -0.00000000000E+00 -0.17433207290E+03  0.17433207290E+03  0.00000000000E+00 0. -1.
         25    1    1    2    0    0 -0.26890484246E+03  0.10367016170E+03  0.42549148187E+02  0.31700590962E+03  0.12500000000E+03 0.  0.
          2    1    1    2  501    0  0.26890484246E+03 -0.10367016170E+03  0.52252603625E+03  0.59673342062E+03  0.00000000000E+00 0. -1.
<mgrwt>
<rscale>  3 0.31413742E+03</rscale>
<asrwt>0</asrwt>
<pdfrwt beam="1">  1       21 0.26820319E-01 0.31413742E+03</pdfrwt>
<pdfrwt beam="2">  1        2 0.11375496E+00 0.31413742E+03</pdfrwt>
<totfact> 0.63409568E+03</totfact>
</mgrwt>
</event>
<event>
 4    0  0.1002184E-001  0.2443609E+03  0.7546771E-02  0.1116921E+00
         21   -1    0    0  501  502  0.00000000000E+00  0.00000000000E+00  0.53331559705E+02  0.53331559705E+02  0.00000000000E+00 0. -1.
          3   -1    0    0  502    0 -0.00000000000E+00 -0.00000000000E+00 -0.13259500214E+04  0.13259500214E+04  0.00000000000E+00 0.  1.
         25    1    1    2    0    0 -0.99522165192E+02 -0.18488530014E+03 -0.31369315506E+03  0.39763756249E+03  0.12500000000E+03 0.  0.
          3    1    1    2  501    0  0.99522165192E+02  0.18488530014E+03 -0.95892530667E+03  0.98164401865E+03  0.00000000000E+00 0.  1.
<mgrwt>
<rscale>  3 0.24436087E+03</rscale>
<asrwt>0</asrwt>
<pdfrwt beam="1">  1       21 0.82048555E-02 0.24436087E+03</pdfrwt>
<pdfrwt beam="2">  1        3 0.20399231E+00 0.24436087E+03</pdfrwt>
<totfact> 0.86127596E+02</totfact>
</mgrwt>
</event>
<event>
 4    0  0.1548014E-001  0.2718569E+03  0.7546771E-02  0.1100222E+00
         21   -1    0    0  501  502  0.00000000000E+00  0.00000000000E+00  0.11762712856E+03  0.11762712856E+03  0.00000000000E+00 0. -1.
          1   -1    0    0  502    0 -0.00000000000E+00 -0.00000000000E+00 -0.97085069520E+03  0.97085069520E+03  0.00000000000E+00 0. -1.
         25    1    1    2    0    0  0.19878896001E+03  0.13698224967E+03 -0.87487618330E+02  0.28558758850E+03  0.12500000000E+03 0.  0.
          1    1    1    2  501    0 -0.19878896001E+03 -0.13698224967E+03 -0.76573594831E+03  0.80289023526E+03  0.00000000000E+00 0. -1.
<mgrwt>
<rscale>  3 0.27185692E+03</rscale>
<asrwt>0</asrwt>
<pdfrwt beam="1">  1       21 0.18096481E-01 0.27185692E+03</pdfrwt>
<pdfrwt beam="2">  1        1 0.14936165E+00 0.27185692E+03</pdfrwt>
<totfact> 0.51201077E+03</totfact>
</mgrwt>
</event>
<event>
 4    0  0.1002184E-001  0.2927042E+03  0.7546771E-02  0.1088946E+00
         21   -1    0    0  501  502  0.00000000000E+00  0.00000000000E+00  0.61113507307E+03  0.61113507307E+03  0.00000000000E+00 0.  1.
         -2   -1    0    0    0  501 -0.00000000000E+00 -0.00000000000E+00 -0.18108281534E+03  0.18108281534E+03  0.00000000000E+00 0. -1.
         25    1    1    2    0    0 -0.17638578737E+02  0.26408257457E+03  0.43872558214E+03  0.52740483699E+03  0.12500000000E+03 0.  0.
         -2    1    1    2    0  502  0.17638578737E+02 -0.26408257457E+03 -0.86733244164E+01  0.26481305143E+03  0.00000000000E+00 0. -1.
<mgrwt>
<rscale>  3 0.29270416E+03</rscale>
<asrwt>0</asrwt>
<pdfrwt beam="1">  1       21 0.94020779E-01 0.29270416E+03</pdfrwt>
<pdfrwt beam="2">  1       -2 0.27858895E-01 0.29270416E+03</pdfrwt>
<totfact> 0.85883794E+02</totfact>
</mgrwt>
</event>
<event>
 4    0  0.1194300E-001  0.3757107E+03  0.7546771E-02  0.1052531E+00
         21   -1    0    0  501  502  0.00000000000E+00  0.00000000000E+00  0.64270677859E+02  0.64270677859E+02  0.00000000000E+00 0. -1.
          2   -1    0    0  502    0 -0.00000000000E+00 -0.00000000000E+00 -0.26060359872E+04  0.26060359872E+04  0.00000000000E+00 0. -1.
         25    1    1    2    0    0  0.21197134248E+03 -0.28390434742E+03 -0.69687821613E+03  0.79170561235E+03  0.12500000000E+03 0.  0.
          2    1    1    2  501    0 -0.21197134248E+03  0.28390434742E+03 -0.18448870932E+04  0.18786010527E+04  0.00000000000E+00 0. -1.
<mgrwt>
<rscale>  3 0.37571070E+03</rscale>
<asrwt>0</asrwt>
<pdfrwt beam="1">  1       21 0.98877943E-02 0.37571070E+03</pdfrwt>
<pdfrwt beam="2">  1        2 0.40092870E+00 0.37571070E+03</pdfrwt>
<totfact> 0.35103308E+03</totfact>
</mgrwt>
</event>
<event>
 4    0  0.1002184E-001  0.2446144E+03  0.7546771E-02  0.1116756E+00
          2   -1    0    0  502    0 -0.00000000000E+00  0.00000000000E+00  0.93497258466E+02  0.93497258466E+02  0.00000000000E+00 0. -1.
         21   -1    0    0  501  502  0.00000000000E+00 -0.00000000000E+00 -0.57634345934E+03  0.57634345934E+03  0.00000000000E+00 0.  1.
         25    1    1    2    0    0 -0.11313331694E+03  0.17723448014E+03 -0.19208718399E+03  0.31102040867E+03  0.12500000000E+03 0.  0.
          2    1    1    2  501    0  0.11313331694E+03 -0.17723448014E+03 -0.29075901688E+03  0.35882030914E+03  0.00000000000E+00 0. -1.
<mgrwt>
<rscale>  3 0.24461441E+03</rscale>
<asrwt>0</asrwt>
<pdfrwt beam="1">  1       21 0.88668224E-01 0.24461441E+03</pdfrwt>
<pdfrwt beam="2">  1        2 0.14384194E-01 0.24461441E+03</pdfrwt>
<totfact> 0.53465697E+03</totfact>
</mgrwt>
</event>
<event>
 4    0  0.1685377E-001  0.2884695E+03  0.7546771E-02  0.1091151E+00
         21   -1    0    0  501  502  0.00000000000E+00  0.00000000000E+00  0.19038459922E+03  0.19038459922E+03  0.00000000000E+00 0. -1.
          2   -1    0    0  502    0 -0.00000000000E+00 -0.00000000000E+00 -0.16154610534E+04  0.16154610534E+04  0.00000000000E+00 0.  1.
         25    1    1    2    0    0 -0.24583926812E+03 -0.84573561275E+02  0.62967248517E+02  0.29526176082E+03  0.12500000000E+03 0.  0.
          2    1    1    2  501    0  0.24583926812E+03  0.84573561275E+02 -0.14880437027E+04  0.15105838918E+04  0.00000000000E+00 0.  1.
<mgrwt>
<rscale>  3 0.28846947E+03</rscale>
<asrwt>0</asrwt>
<pdfrwt beam="1">  1       21 0.29289938E-01 0.28846947E+03</pdfrwt>
<pdfrwt beam="2">  1        2 0.24853247E+00 0.28846947E+03</pdfrwt>
<totfact> 0.16241054E+03</totfact>
</mgrwt>
</event>
<event>
 4    0  0.1014445E-001  0.2369071E+03  0.7546771E-02  0.1121871E+00
         21   -1    0    0  501  502  0.00000000000E+00  0.00000000000E+00  0.18437825459E+03  0.18437825459E+03  0.00000000000E+00 0. -1.
          2   -1    0    0  502    0 -0.00000000000E+00 -0.00000000000E+00 -0.48530987338E+03  0.48530987338E+03  0.00000000000E+00 0.  1.
         25    1    1    2    0    0 -0.39183606838E+02  0.19739457313E+03  0.70557279367E+02  0.24719082146E+03  0.12500000000E+03 0.  0.
          2    1    1    2  501    0  0.39183606838E+02 -0.19739457313E+03 -0.37148889816E+03  0.42249730650E+03  0.00000000000E+00 0.  1.
<mgrwt>
<rscale>  3 0.23690710E+03</rscale>
<asrwt>0</asrwt>
<pdfrwt beam="1">  1       21 0.28365885E-01 0.23690710E+03</pdfrwt>
<pdfrwt beam="2">  1        2 0.74663057E-01 0.23690710E+03</pdfrwt>
<totfact> 0.94731790E+03</totfact>
</mgrwt>
</event>
<event>
 4    0  0.1207053E-001  0.2717936E+03  0.7546771E-02  0.1100257E+00
         21   -1    0    0  501  502  0.00000000000E+00  0.00000000000E+00  0.59141987185E+02  0.59141987185E+02  0.00000000000E+00 0. -1.
          1   -1    0    0  502    0 -0.00000000000E+00 -0.00000000000E+00 -0.20986797267E+04  0.20986797267E+04  0.00000000000E+00 0.  1.
         25    1    1    2    0    0  0.22681794572E+03  0.82464440191E+02 -0.31316712393E+03  0.41466301005E+03  0.12500000000E+03 0.  0.
          1    1    1    2  501    0 -0.22681794572E+03 -0.82464440191E+02 -0.17263706156E+04  0.17431587038E+04  0.00000000000E+00 0.  1.
<mgrwt>
<rscale>  3 0.27179361E+03</rscale>
<asrwt>0</asrwt>
<pdfrwt beam="1">  1       21 0.90987677E-02 0.27179361E+03</pdfrwt>
<pdfrwt beam="2">  1        1 0.32287379E+00 0.27179361E+03</pdfrwt>
<totfact> 0.30847466E+03</totfact>
</mgrwt>
</event>
<event>
 4    0  0.1495416E-001  0.2443788E+03  0.7546771E-02  0.1116910E+00
         21   -1    0    0  501  502  0.00000000000E+00  0.00000000000E+00  0.73360793346E+02  0.73360793346E+02  0.00000000000E+00 0.  1.
          2   -1    0    0  502    0 -0.00000000000E+00 -0.00000000000E+00 -0.13891954075E+04  0.13891954075E+04  0.00000000000E+00 0.  1.
         25    1    1    2    0    0 -0.19260190765E+03  0.83668890892E+02 -0.17013124202E+03  0.29776772432E+03  0.12500000000E+03 0.  0.
          2    1    1    2  501    0  0.19260190765E+03 -0.83668890892E+02 -0.11457033721E+04  0.11647884765E+04  0.00000000000E+00 0.  1.
<mgrwt>
<rscale>  3 0.24437876E+03</rscale>
<asrwt>0</asrwt>
<pdfrwt beam="1">  1       21 0.11286277E-01 0.24437876E+03</pdfrwt>
<pdfrwt beam="2">  1        2 0.21372235E+00 0.24437876E+03</pdfrwt>
<totfact> 0.12959326E+04</totfact>
</mgrwt>
</event>
<event>
 4    0  0.1002184E-001  0.6262422E+03  0.7546771E-02  0.9852409E-01
         21   -1    0    0  501  502  0.00000000000E+00  0.00000000000E+00  0.30866605001E+03  0.30866605001E+03  0.00000000000E+00 0.  1.
          2   -1    0    0  502    0 -0.00000000000E+00 -0.00000000000E+00 -0.21037287760E+04  0.21037287760E+04  0.00000000000E+00 0.  1.
         25    1    1    2    0    0  0.35995362310E+03  0.49697859898E+03 -0.16734918868E+04  0.17868280370E+04  0.12500000000E+03 0.  0.
          2    1    1    2  501    0 -0.35995362310E+03 -0.49697859898E+03 -0.12157083924E+03  0.62556678906E+03  0.00000000000E+00 0.  1.
<mgrwt>
<rscale>  3 0.62624224E+03</rscale>
<asrwt>0</asrwt>
<pdfrwt beam="1">  1       21 0.47487082E-01 0.62624224E+03</pdfrwt>
<pdfrwt beam="2">  1        2 0.32365060E+00 0.62624224E+03</pdfrwt>
<totfact> 0.29834033E+02</totfact>
</mgrwt>
</event>
<event>
 4    0  0.1235853E-001  0.2865683E+03  0.7546771E-02  0.1092155E+00
         21   -1    0    0  501  502  0.00000000000E+00  0.00000000000E+00  0.48386594722E+03  0.48386594722E+03  0.00000000000E+00 0. -1.
          1   -1    0    0  502    0 -0.00000000000E+00 -0.00000000000E+00 -0.18926483961E+03  0.18926483961E+03  0.00000000000E+00 0. -1.
         25    1    1    2    0    0  0.24411881197E+03 -0.83080620493E+02  0.30044313730E+03  0.41519569194E+03  0.12500000000E+03 0.  0.
          1    1    1    2  501    0 -0.24411881197E+03  0.83080620493E+02 -0.58420296915E+01  0.25793509488E+03  0.00000000000E+00 0. -1.
<mgrwt>
<rscale>  3 0.28656829E+03</rscale>
<asrwt>0</asrwt>
<pdfrwt beam="1">  1       21 0.74440915E-01 0.28656829E+03</pdfrwt>
<pdfrwt beam="2">  1        1 0.29117668E-01 0.28656829E+03</pdfrwt>
<totfact> 0.26765930E+03</totfact>
</mgrwt>
</event>
<event>
 4    0  0.1002184E-001  0.3142686E+03  0.7546771E-02  0.1078318E+00
         21   -1    0    0  501  502  0.00000000000E+00  0.00000000000E+00  0.63590241950E+03  0.63590241950E+03  0.00000000000E+00 0. -1.
          1   -1    0    0  502    0 -0.00000000000E+00 -0.00000000000E+00 -0.15883534559E+03  0.15883534559E+03  0.00000000000E+00 0.  1.
         25    1    1    2    0    0  0.26961131430E+03  0.10222285576E+03  0.37405186949E+03  0.48854843578E+03  0.12500000000E+03 0.  0.
          1    1    1    2  501    0 -0.26961131430E+03 -0.10222285576E+03  0.10301520442E+03  0.30618932931E+03  0.00000000000E+00 0.  1.
<mgrwt>
<rscale>  3 0.31426863E+03</rscale>
<asrwt>0</asrwt>
<pdfrwt beam="1">  1       21 0.97831140E-01 0.31426863E+03</pdfrwt>
<pdfrwt beam="2">  1        1 0.24436207E-01 0.31426863E+03</pdfrwt>
<totfact> 0.17643448E+03</totfact>
</mgrwt>
</event>
<event>
 4    0  0.1609408E-001  0.3486811E+03  0.7546771E-02  0.1063158E+00
          2   -1    0    0  502    0 -0.00000000000E+00  0.00000000000E+00  0.89780270239E+03  0.89780270239E+03  0.00000000000E+00 0.  1.
         21   -1    0    0  501  502  0.00000000000E+00 -0.00000000000E+00 -0.16383415384E+03  0.16383415384E+03  0.00000000000E+00 0.  1.
         25    1    1    2    0    0 -0.23953083045E+03 -0.22040530017E+03  0.12367714106E+03  0.36996560692E+03  0.12500000000E+03 0.  0.
          2    1    1    2  501    0  0.23953083045E+03  0.22040530017E+03  0.61029140749E+03  0.69167124932E+03  0.00000000000E+00 0.  1.
<mgrwt>
<rscale>  3 0.34868111E+03</rscale>
<asrwt>0</asrwt>
<pdfrwt beam="1">  1       21 0.25205255E-01 0.34868111E+03</pdfrwt>
<pdfrwt beam="2">  1        2 0.13812349E+00 0.34868111E+03</pdfrwt>
<totfact> 0.55177998E+03</totfact>
</mgrwt>
</event>
<event>
 4    0  0.1435377E-001  0.2961687E+03  0.7546771E-02  0.1087172E+00
          2   -1    0    0  502    0 -0.00000000000E+00  0.00000000000E+00  0.57094070477E+03  0.57094070477E+03  0.00000000000E+00 0.  1.
         21   -1    0    0  501  502  0.00000000000E+00 -0.00000000000E+00 -0.14124265178E+03  0.14124265178E+03  0.00000000000E+00 0.  1.
         25    1    1    2    0    0 -0.16257881419E+03 -0.21367975339E+03  0.18707761688E+03  0.35030549892E+03  0.12500000000E+03 0.  0.
          2    1    1    2  501    0  0.16257881419E+03  0.21367975339E+03  0.24262043610E+03  0.36187785764E+03  0.00000000000E+00 0.  1.
<mgrwt>
<rscale>  3 0.29616872E+03</rscale>
<asrwt>0</asrwt>
<pdfrwt beam="1">  1       21 0.21729639E-01 0.29616872E+03</pdfrwt>
<pdfrwt beam="2">  1        2 0.87837030E-01 0.29616872E+03</pdfrwt>
<totfact> 0.13005284E+04</totfact>
</mgrwt>
</event>
<event>
 4    0  0.1002184E-001  0.4568380E+03  0.7546771E-02  0.1025702E+00
         21   -1    0    0  501  502  0.00000000000E+00  0.00000000000E+00  0.15089566833E+04  0.15089566833E+04  0.00000000000E+00 0.  1.
         -1   -1    0    0    0  501 -0.00000000000E+00 -0.00000000000E+00 -0.13366970062E+03  0.13366970062E+03  0.00000000000E+00 0.  1.
         25    1    1    2    0    0 -0.34248425473E+03  0.27528259146E+03  0.75548589114E+03  0.88287026318E+03  0.12500000000E+03 0.  0.
         -1    1    1    2    0  502  0.34248425473E+03 -0.27528259146E+03  0.61980109149E+03  0.75975612069E+03  0.00000000000E+00 0.  1.
<mgrwt>
<rscale>  3 0.45683801E+03</rscale>
<asrwt>0</asrwt>
<pdfrwt beam="1">  1       21 0.23214717E+00 0.45683801E+03</pdfrwt>
<pdfrwt beam="2">  1       -1 0.20564570E-01 0.45683801E+03</pdfrwt>
<totfact> 0.12814588E+02</totfact>
</mgrwt>
</event>
<event>
 4    0  0.1426732E-001  0.3781844E+03  0.7546771E-02  0.1051607E+00
          1   -1    0    0  502    0 -0.00000000000E+00  0.00000000000E+00  0.15505746863E+04  0.15505746863E+04  0.00000000000E+00 0.  1.
         21   -1    0    0  501  502  0.00000000000E+00 -0.00000000000E+00 -0.13188878346E+03  0.13188878346E+03  0.00000000000E+00 0.  1.
         25    1    1    2    0    0  0.34845304688E+02  0.35522418598E+03  0.23295305147E+03  0.44417399941E+03  0.12500000000E+03 0.  0.
          1    1    1    2  501    0 -0.34845304688E+02 -0.35522418598E+03  0.11857328514E+04  0.12382894704E+04  0.00000000000E+00 0.  1.
<mgrwt>
<rscale>  3 0.37818437E+03</rscale>
<asrwt>0</asrwt>
<pdfrwt beam="1">  1       21 0.20290583E-01 0.37818437E+03</pdfrwt>
<pdfrwt beam="2">  1        1 0.23854994E+00 0.37818437E+03</pdfrwt>
<totfact> 0.15700802E+03</totfact>
</mgrwt>
</event>
<event>
 4    0  0.1388714E-001  0.2977975E+03  0.7546771E-02  0.1086347E+00
         21   -1    0    0  501  502  0.00000000000E+00  0.00000000000E+00  0.27636490411E+03  0.27636490411E+03  0.00000000000E+00 0.  1.
          3   -1    0    0  502    0 -0.00000000000E+00 -0.00000000000E+00 -0.35837339184E+03  0.35837339184E+03  0.00000000000E+00 0.  1.
         25    1    1    2    0    0  0.23533052482E+03 -0.13295835209E+03  0.93892637038E+02  0.31224862945E+03  0.12500000000E+03 0.  0.
          3    1    1    2  501    0 -0.23533052482E+03  0.13295835209E+03 -0.17590112476E+03  0.32248966650E+03  0.00000000000E+00 0.  1.
<mgrwt>
<rscale>  3 0.29779755E+03</rscale>
<asrwt>0</asrwt>
<pdfrwt beam="1">  1       21 0.42517678E-01 0.29779755E+03</pdfrwt>
<pdfrwt beam="2">  1        3 0.55134367E-01 0.29779755E+03</pdfrwt>
<totfact> 0.85082818E+02</totfact>
</mgrwt>
</event>
<event>
 4    0  0.1002184E-001  0.2556955E+03  0.7546771E-02  0.1109757E+00
          2   -1    0    0  502    0 -0.00000000000E+00  0.00000000000E+00  0.14446145460E+04  0.14446145460E+04  0.00000000000E+00 0.  1.
         21   -1    0    0  501  502  0.00000000000E+00 -0.00000000000E+00 -0.42781413545E+02  0.42781413545E+02  0.00000000000E+00 0. -1.
         25    1    1    2    0    0 -0.73102278682E+02 -0.21073978930E+03  0.54494556722E+03  0.60195171997E+03  0.12500000000E+03 0.  0.
          2    1    1    2  501    0  0.73102278682E+02  0.21073978930E+03  0.85688756527E+03  0.88544423961E+03  0.00000000000E+00 0.  1.
<mgrwt>
<rscale>  3 0.25569553E+03</rscale>
<asrwt>0</asrwt>
<pdfrwt beam="1">  1       21 0.65817570E-02 0.25569553E+03</pdfrwt>
<pdfrwt beam="2">  1        2 0.22224835E+00 0.25569553E+03</pdfrwt>
<totfact> 0.31167169E+04</totfact>
</mgrwt>
</event>
<event>
 4    0  0.1002184E-001  0.3394815E+03  0.7546771E-02  0.1067017E+00
          2   -1    0    0  502    0 -0.00000000000E+00  0.00000000000E+00  0.85397693179E+03  0.85397693179E+03  0.00000000000E+00 0.  1.
         21   -1    0    0  501  502  0.00000000000E+00 -0.00000000000E+00 -0.13522005559E+03  0.13522005559E+03  0.00000000000E+00 0. -1.
         25    1    1    2    0    0 -0.19548980816E+03  0.24780320325E+03  0.23996237507E+03  0.41572783655E+03  0.12500000000E+03 0.  0.
          2    1    1    2  501    0  0.19548980816E+03 -0.24780320325E+03  0.47879450113E+03  0.57346915082E+03  0.00000000000E+00 0.  1.
<mgrwt>
<rscale>  3 0.33948151E+03</rscale>
<asrwt>0</asrwt>
<pdfrwt beam="1">  1       21 0.20803086E-01 0.33948151E+03</pdfrwt>
<pdfrwt beam="2">  1        2 0.13138106E+00 0.33948151E+03</pdfrwt>
<totfact> 0.85422019E+03</totfact>
</mgrwt>
</event>
<event>
 4    0  0.1050605E-001  0.4786004E+03  0.7546771E-02  0.1019521E+00
         21   -1    0    0  501  502  0.00000000000E+00  0.00000000000E+00  0.77408356977E+03  0.77408356977E+03  0.00000000000E+00 0. -1.
          4   -1    0    0  502    0 -0.00000000000E+00 -0.00000000000E+00 -0.29110005106E+03  0.29110005106E+03  0.00000000000E+00 0. -1.
         25    1    1    2    0    0  0.34709312509E+03 -0.30489290068E+03  0.31802234404E+03  0.57462729632E+03  0.12500000000E+03 0.  0.
          4    1    1    2  501    0 -0.34709312509E+03  0.30489290068E+03  0.16496117468E+03  0.49055632451E+03  0.00000000000E+00 0. -1.
<mgrwt>
<rscale>  3 0.47860037E+03</rscale>
<asrwt>0</asrwt>
<pdfrwt beam="1">  1       21 0.11908978E+00 0.47860037E+03</pdfrwt>
<pdfrwt beam="2">  1        4 0.44784623E-01 0.47860037E+03</pdfrwt>
<totfact> 0.10334786E+02</totfact>
</mgrwt>
</event>
<event>
 4    0  0.1529033E-001  0.3009205E+03  0.7546771E-02  0.1084781E+00
         21   -1    0    0  501  502  0.00000000000E+00  0.00000000000E+00  0.43235667022E+02  0.43235667022E+02  0.00000000000E+00 0. -1.
          2   -1    0    0  502    0 -0.00000000000E+00 -0.00000000000E+00 -0.22217204704E+04  0.22217204704E+04  0.00000000000E+00 0. -1.
         25    1    1    2    0    0 -0.87615426938E+02 -0.25932931693E+03 -0.70936655963E+03  0.77055439365E+03  0.12500000000E+03 0.  0.
          2    1    1    2  501    0  0.87615426938E+02  0.25932931693E+03 -0.14691182438E+04  0.14944017438E+04  0.00000000000E+00 0. -1.
<mgrwt>
<rscale>  3 0.30092052E+03</rscale>
<asrwt>0</asrwt>
<pdfrwt beam="1">  1       21 0.66516418E-02 0.30092052E+03</pdfrwt>
<pdfrwt beam="2">  1        2 0.34180311E+00 0.30092052E+03</pdfrwt>
<totfact> 0.11731780E+04</totfact>
</mgrwt>
</event>
<event>
 4    0  0.1562295E-001  0.2372094E+03  0.7546771E-02  0.1121666E+00
         21   -1    0    0  501  502  0.00000000000E+00  0.00000000000E+00  0.84818223780E+02  0.84818223780E+02  0.00000000000E+00 0.  1.
          1   -1    0    0  502    0 -0.00000000000E+00 -0.00000000000E+00 -0.62969075061E+03  0.62969075061E+03  0.00000000000E+00 0.  1.
         25    1    1    2    0    0 -0.15158049068E+03 -0.13291594935E+03 -0.40425396164E+03  0.46871052927E+03  0.12500000000E+03 0.  0.
          1    1    1    2  501    0  0.15158049068E+03  0.13291594935E+03 -0.14061856518E+03  0.24579844512E+03  0.00000000000E+00 0.  1.
<mgrwt>
<rscale>  3 0.23720939E+03</rscale>
<asrwt>0</asrwt>
<pdfrwt beam="1">  1       21 0.13048958E-01 0.23720939E+03</pdfrwt>
<pdfrwt beam="2">  1        1 0.96875498E-01 0.23720939E+03</pdfrwt>
<totfact> 0.18288829E+04</totfact>
</mgrwt>
</event>
<event>
 4    0  0.1251927E-001  0.2372800E+03  0.7546771E-02  0.1121618E+00
         21   -1    0    0  501  502  0.00000000000E+00  0.00000000000E+00  0.15968017825E+03  0.15968017825E+03  0.00000000000E+00 0. -1.
          4   -1    0    0  502    0 -0.00000000000E+00 -0.00000000000E+00 -0.57341763120E+03  0.57341763120E+03  0.00000000000E+00 0. -1.
         25    1    1    2    0    0 -0.10513614444E+03  0.17211387175E+03  0.36199820060E+02  0.24002545841E+03  0.12500000000E+03 0.  0.
          4    1    1    2  501    0  0.10513614444E+03 -0.17211387175E+03 -0.44993727301E+03  0.49307235104E+03  0.00000000000E+00 0. -1.
<mgrwt>
<rscale>  3 0.23727999E+03</rscale>
<asrwt>0</asrwt>
<pdfrwt beam="1">  1       21 0.24566181E-01 0.23727999E+03</pdfrwt>
<pdfrwt beam="2">  1        4 0.88218097E-01 0.23727999E+03</pdfrwt>
<totfact> 0.75079644E+02</totfact>
</mgrwt>
</event>
<event>
 4    0  0.1002184E-001  0.2370362E+03  0.7546771E-02  0.1121783E+00
         21   -1    0    0  501  502  0.00000000000E+00  0.00000000000E+00  0.35275349271E+02  0.35275349271E+02  0.00000000000E+00 0. -1.
          2   -1    0    0  502    0 -0.00000000000E+00 -0.00000000000E+00 -0.14476245745E+04  0.14476245745E+04  0.00000000000E+00 0.  1.
         25    1    1    2    0    0  0.17982508401E+03 -0.90686830286E+02 -0.58076218035E+03  0.62727256608E+03  0.12500000000E+03 0.  0.
          2    1    1    2  501    0 -0.17982508401E+03  0.90686830286E+02 -0.83158704483E+03  0.85562735765E+03  0.00000000000E+00 0.  1.
<mgrwt>
<rscale>  3 0.23703620E+03</rscale>
<asrwt>0</asrwt>
<pdfrwt beam="1">  1       21 0.54269755E-02 0.23703620E+03</pdfrwt>
<pdfrwt beam="2">  1        2 0.22271152E+00 0.23703620E+03</pdfrwt>
<totfact> 0.43425257E+04</totfact>
</mgrwt>
</event>
<event>
 4    0  0.1345104E-001  0.2627720E+03  0.7546771E-02  0.1105489E+00
         21   -1    0    0  501  502  0.00000000000E+00  0.00000000000E+00  0.71129986521E+02  0.71129986521E+02  0.00000000000E+00 0. -1.
          1   -1    0    0  502    0 -0.00000000000E+00 -0.00000000000E+00 -0.25542772908E+04  0.25542772908E+04  0.00000000000E+00 0.  1.
         25    1    1    2    0    0  0.20812858985E+03 -0.10053169686E+03 -0.19906642972E+03  0.32966130411E+03  0.12500000000E+03 0.  0.
          1    1    1    2  501    0 -0.20812858985E+03  0.10053169686E+03 -0.22840808746E+04  0.22957459733E+04  0.00000000000E+00 0.  1.
<mgrwt>
<rscale>  3 0.26277202E+03</rscale>
<asrwt>0</asrwt>
<pdfrwt beam="1">  1       21 0.10943075E-01 0.26277202E+03</pdfrwt>
<pdfrwt beam="2">  1        1 0.39296574E+00 0.26277202E+03</pdfrwt>
<totfact> 0.11182241E+03</totfact>
</mgrwt>
</event>
<event>
 4    0  0.1002184E-001  0.2422477E+03  0.7546771E-02  0.1118304E+00
         21   -1    0    0  501  502  0.00000000000E+00  0.00000000000E+00  0.86470909120E+02  0.86470909120E+02  0.00000000000E+00 0.  1.
          2   -1    0    0  502    0 -0.00000000000E+00 -0.00000000000E+00 -0.34038089148E+04  0.34038089148E+04  0.00000000000E+00 0.  1.
         25    1    1    2    0    0 -0.20745782367E+03 -0.44955019302E+01 -0.93335555273E+02  0.25960640211E+03  0.12500000000E+03 0.  0.
          2    1    1    2  501    0  0.20745782367E+03  0.44955019302E+01 -0.32240024504E+04  0.32306734218E+04  0.00000000000E+00 0.  1.
<mgrwt>
<rscale>  3 0.24224772E+03</rscale>
<asrwt>0</asrwt>
<pdfrwt beam="1">  1       21 0.13303217E-01 0.24224772E+03</pdfrwt>
<pdfrwt beam="2">  1        2 0.52366291E+00 0.24224772E+03</pdfrwt>
<totfact> 0.72994383E+02</totfact>
</mgrwt>
</event>
<event>
 4    0  0.1946768E-001  0.3659474E+03  0.7546771E-02  0.1056253E+00
         -1   -1    0    0    0  501 -0.00000000000E+00  0.00000000000E+00  0.94115515766E+03  0.94115515766E+03  0.00000000000E+00 0.  1.
         21   -1    0    0  501  502  0.00000000000E+00 -0.00000000000E+00 -0.15850738600E+03  0.15850738600E+03  0.00000000000E+00 0.  1.
         25    1    1    2    0    0  0.18383216827E+03  0.29068578093E+03  0.18484719863E+03  0.40998289741E+03  0.12500000000E+03 0.  0.
         -1    1    1    2    0  502 -0.18383216827E+03 -0.29068578093E+03  0.59780057304E+03  0.68967964625E+03  0.00000000000E+00 0.  1.
<mgrwt>
<rscale>  3 0.36594739E+03</rscale>
<asrwt>0</asrwt>
<pdfrwt beam="1">  1       21 0.24385752E-01 0.36594739E+03</pdfrwt>
<pdfrwt beam="2">  1       -1 0.14479310E+00 0.36594739E+03</pdfrwt>
<totfact> 0.58748392E+02</totfact>
</mgrwt>
</event>
<event>
 4    0  0.1163273E-001  0.2912351E+03  0.7546771E-02  0.1089706E+00
         21   -1    0    0  501  502  0.00000000000E+00  0.00000000000E+00  0.50973967363E+03  0.50973967363E+03  0.00000000000E+00 0. -1.
          4   -1    0    0  502    0 -0.00000000000E+00 -0.00000000000E+00 -0.15166335999E+03  0.15166335999E+03  0.00000000000E+00 0. -1.
         25    1    1    2    0    0 -0.75269496174E+02  0.25204634345E+03  0.16146657480E+03  0.33300046708E+03  0.12500000000E+03 0.  0.
          4    1    1    2  501    0  0.75269496174E+02 -0.25204634345E+03  0.19660973884E+03  0.32840256653E+03  0.00000000000E+00 0. -1.
<mgrwt>
<rscale>  3 0.29123505E+03</rscale>
<asrwt>0</asrwt>
<pdfrwt beam="1">  1       21 0.78421487E-01 0.29123505E+03</pdfrwt>
<pdfrwt beam="2">  1        4 0.23332825E-01 0.29123505E+03</pdfrwt>
<totfact> 0.10252649E+03</totfact>
</mgrwt>
</event>
<event>
 4    0  0.1254861E-001  0.2661581E+03  0.7546771E-02  0.1103499E+00
         21   -1    0    0  501  502  0.00000000000E+00  0.00000000000E+00  0.13120459756E+04  0.13120459756E+04  0.00000000000E+00 0.  1.
         -2   -1    0    0    0  501 -0.00000000000E+00 -0.00000000000E+00 -0.16130228046E+03  0.16130228046E+03  0.00000000000E+00 0.  1.
         25    1    1    2    0    0  0.21437707928E+03  0.96216305910E+02  0.12034500249E+04  0.12325307591E+04  0.12500000000E+03 0.  0.
         -2    1    1    2    0  502 -0.21437707928E+03 -0.96216305910E+02 -0.52706329778E+02  0.24081749696E+03  0.00000000000E+00 0.  1.
<mgrwt>
<rscale>  3 0.26615805E+03</rscale>
<asrwt>0</asrwt>
<pdfrwt beam="1">  1       21 0.20185322E+00 0.26615805E+03</pdfrwt>
<pdfrwt beam="2">  1       -2 0.24815736E-01 0.26615805E+03</pdfrwt>
<totfact> 0.14306514E+02</totfact>
</mgrwt>
</event>
<event>
 4    0  0.1007883E-001  0.2677602E+03  0.7546771E-02  0.1102568E+00
         -1   -1    0    0    0  501 -0.00000000000E+00  0.00000000000E+00  0.79261520205E+03  0.79261520205E+03  0.00000000000E+00 0. -1.
         21   -1    0    0  501  502  0.00000000000E+00 -0.00000000000E+00 -0.13973234687E+03  0.13973234687E+03  0.00000000000E+00 0.  1.
         25    1    1    2    0    0 -0.23679169591E+03  0.47195391078E+00  0.34246076710E+02  0.26994133392E+03  0.12500000000E+03 0.  0.
         -1    1    1    2    0  502  0.23679169591E+03 -0.47195391078E+00  0.61863677847E+03  0.66240621500E+03  0.00000000000E+00 0. -1.
<mgrwt>
<rscale>  3 0.26776021E+03</rscale>
<asrwt>0</asrwt>
<pdfrwt beam="1">  1       21 0.21497285E-01 0.26776021E+03</pdfrwt>
<pdfrwt beam="2">  1       -1 0.12194080E+00 0.26776021E+03</pdfrwt>
<totfact> 0.11793964E+03</totfact>
</mgrwt>
</event>
<event>
 4    0  0.1642449E-001  0.2381011E+03  0.7546771E-02  0.1121064E+00
         -2   -1    0    0    0  501 -0.00000000000E+00  0.00000000000E+00  0.29838902892E+03  0.29838902892E+03  0.00000000000E+00 0.  1.
         21   -1    0    0  501  502  0.00000000000E+00 -0.00000000000E+00 -0.16848496994E+03  0.16848496994E+03  0.00000000000E+00 0.  1.
         25    1    1    2    0    0  0.17861711847E+03  0.95723892202E+02  0.27098587915E+02  0.23963821068E+03  0.12500000000E+03 0.  0.
         -2    1    1    2    0  502 -0.17861711847E+03 -0.95723892202E+02  0.10280547106E+03  0.22723578818E+03  0.00000000000E+00 0.  1.
<mgrwt>
<rscale>  3 0.23810111E+03</rscale>
<asrwt>0</asrwt>
<pdfrwt beam="1">  1       21 0.25920765E-01 0.23810111E+03</pdfrwt>
<pdfrwt beam="2">  1       -2 0.45906004E-01 0.23810111E+03</pdfrwt>
<totfact> 0.51744927E+03</totfact>
</mgrwt>
</event>
<event>
 4    0  0.1224593E-001  0.2483869E+03  0.7546771E-02  0.1114329E+00
         21   -1    0    0  501  502  0.00000000000E+00  0.00000000000E+00  0.14652492160E+03  0.14652492160E+03  0.00000000000E+00 0. -1.
         -3   -1    0    0    0  501 -0.00000000000E+00 -0.00000000000E+00 -0.10918431903E+04  0.10918431903E+04  0.00000000000E+00 0.  1.
         25    1    1    2    0    0  0.29029077117E+02  0.21266962198E+03  0.20268486475E+02  0.24921249362E+03  0.12500000000E+03 0.  0.
         -3    1    1    2    0  502 -0.29029077117E+02 -0.21266962198E+03 -0.96558675518E+03  0.98915561830E+03  0.00000000000E+00 0.  1.
<mgrwt>
<rscale>  3 0.24838691E+03</rscale>
<asrwt>0</asrwt>
<pdfrwt beam="1">  1       21 0.22542296E-01 0.24838691E+03</pdfrwt>
<pdfrwt beam="2">  1       -3 0.16797587E+00 0.24838691E+03</pdfrwt>
<totfact> 0.23063124E+02</totfact>
</mgrwt>
</event>
<event>
 4    0  0.1201913E-001  0.2458523E+03  0.7546771E-02  0.1115954E+00
         21   -1    0    0  501  502  0.00000000000E+00  0.00000000000E+00  0.50896659152E+03  0.50896659152E+03  0.00000000000E+00 0.  1.
          1   -1    0    0  502    0 -0.00000000000E+00 -0.00000000000E+00 -0.31004624251E+03  0.31004624251E+03  0.00000000000E+00 0.  1.
         25    1    1    2    0    0 -0.34783466055E+02 -0.20882635742E+03  0.43638911919E+03  0.50087802947E+03  0.12500000000E+03 0.  0.
          1    1    1    2  501    0  0.34783466055E+02  0.20882635742E+03 -0.23746877018E+03  0.31813480456E+03  0.00000000000E+00 0.  1.
<mgrwt>
<rscale>  3 0.24585227E+03</rscale>
<asrwt>0</asrwt>
<pdfrwt beam="1">  1       21 0.78302553E-01 0.24585227E+03</pdfrwt>
<pdfrwt beam="2">  1        1 0.47699422E-01 0.24585227E+03</pdfrwt>
<totfact> 0.12966973E+03</totfact>
</mgrwt>
</event>
<event>
 4    0  0.1074153E-001  0.2407787E+03  0.7546771E-02  0.1119275E+00
         21   -1    0    0  501  502  0.00000000000E+00  0.00000000000E+00  0.65825509905E+03  0.65825509905E+03  0.00000000000E+00 0.  1.
          1   -1    0    0  502    0 -0.00000000000E+00 -0.00000000000E+00 -0.15481678193E+03  0.15481678193E+03  0.00000000000E+00 0.  1.
         25    1    1    2    0    0 -0.17446901861E+03 -0.10913269966E+03  0.55147796934E+03  0.60174939573E+03  0.12500000000E+03 0.  0.
          1    1    1    2  501    0  0.17446901861E+03  0.10913269966E+03 -0.48039652222E+02  0.21132248526E+03  0.00000000000E+00 0.  1.
<mgrwt>
<rscale>  3 0.24077870E+03</rscale>
<asrwt>0</asrwt>
<pdfrwt beam="1">  1       21 0.10127001E+00 0.24077870E+03</pdfrwt>
<pdfrwt beam="2">  1        1 0.23817967E-01 0.24077870E+03</pdfrwt>
<totfact> 0.17175036E+03</totfact>
</mgrwt>
</event>
<event>
 4    0  0.1002184E-001  0.2367265E+03  0.7546771E-02  0.1121993E+00
          2   -1    0    0  502    0 -0.00000000000E+00  0.00000000000E+00  0.31037204242E+04  0.31037204242E+04  0.00000000000E+00 0.  1.
         21   -1    0    0  501  502  0.00000000000E+00 -0.00000000000E+00 -0.44229961717E+02  0.44229961717E+02  0.00000000000E+00 0.  1.
         25    1    1    2    0    0 -0.11152742623E+03  0.16726047798E+03  0.30478344045E+03  0.38591758171E+03  0.12500000000E+03 0.  0.
          2    1    1    2  501    0  0.11152742623E+03 -0.16726047798E+03  0.27547070221E+04  0.27620328042E+04  0.00000000000E+00 0.  1.
<mgrwt>
<rscale>  3 0.23672650E+03</rscale>
<asrwt>0</asrwt>
<pdfrwt beam="1">  1       21 0.68046119E-02 0.23672650E+03</pdfrwt>
<pdfrwt beam="2">  1        2 0.47749528E+00 0.23672650E+03</pdfrwt>
<totfact> 0.36894472E+03</totfact>
</mgrwt>
</event>
<event>
 4    0  0.1463070E-001  0.4649689E+03  0.7546771E-02  0.1023350E+00
          2   -1    0    0  502    0 -0.00000000000E+00  0.00000000000E+00  0.12659292482E+04  0.12659292482E+04  0.00000000000E+00 0. -1.
         21   -1    0    0  501  502  0.00000000000E+00 -0.00000000000E+00 -0.52031284323E+03  0.52031284323E+03  0.00000000000E+00 0.  1.
         25    1    1    2    0    0  0.29322990910E+02 -0.44689060575E+03 -0.36345181169E+03  0.59016376602E+03  0.12500000000E+03 0.  0.
          2    1    1    2  501    0 -0.29322990910E+02  0.44689060575E+03  0.11090682166E+04  0.11960783254E+04  0.00000000000E+00 0. -1.
<mgrwt>
<rscale>  3 0.46496887E+03</rscale>
<asrwt>0</asrwt>
<pdfrwt beam="1">  1       21 0.80048130E-01 0.46496887E+03</pdfrwt>
<pdfrwt beam="2">  1        2 0.19475835E+00 0.46496887E+03</pdfrwt>
<totfact> 0.28223656E+02</totfact>
</mgrwt>
</event>
<event>
 4    0  0.1497487E-001  0.2477878E+03  0.7546771E-02  0.1114711E+00
         21   -1    0    0  501  502  0.00000000000E+00  0.00000000000E+00  0.56649537962E+02  0.56649537962E+02  0.00000000000E+00 0. -1.
          1   -1    0    0  502    0 -0.00000000000E+00 -0.00000000000E+00 -0.11399424872E+04  0.11399424872E+04  0.00000000000E+00 0. -1.
         25    1    1    2    0    0  0.20909712694E+03  0.45301241068E+02 -0.32494407537E+03  0.40864099532E+03  0.12500000000E+03 0.  0.
          1    1    1    2  501    0 -0.20909712694E+03 -0.45301241068E+02 -0.75834887387E+03  0.78795102985E+03  0.00000000000E+00 0. -1.
<mgrwt>
<rscale>  3 0.24778783E+03</rscale>
<asrwt>0</asrwt>
<pdfrwt beam="1">  1       21 0.87153136E-02 0.24778783E+03</pdfrwt>
<pdfrwt beam="2">  1        1 0.17537576E+00 0.24778783E+03</pdfrwt>
<totfact> 0.14518846E+04</totfact>
</mgrwt>
</event>
<event>
 4    0  0.1425904E-001  0.3027611E+03  0.7546771E-02  0.1083868E+00
         21   -1    0    0  501  502  0.00000000000E+00  0.00000000000E+00  0.13970746499E+03  0.13970746499E+03  0.00000000000E+00 0.  1.
          2   -1    0    0  502    0 -0.00000000000E+00 -0.00000000000E+00 -0.19157042947E+04  0.19157042947E+04  0.00000000000E+00 0.  1.
         25    1    1    2    0    0  0.27078979254E+03  0.52078719556E+02 -0.49195891846E+02  0.30673203379E+03  0.12500000000E+03 0.  0.
          2    1    1    2  501    0 -0.27078979254E+03 -0.52078719556E+02 -0.17268009379E+04  0.17486797259E+04  0.00000000000E+00 0.  1.
<mgrwt>
<rscale>  3 0.30276113E+03</rscale>
<asrwt>0</asrwt>
<pdfrwt beam="1">  1       21 0.21493457E-01 0.30276113E+03</pdfrwt>
<pdfrwt beam="2">  1        2 0.29472372E+00 0.30276113E+03</pdfrwt>
<totfact> 0.20364776E+03</totfact>
</mgrwt>
</event>
<event>
 4    0  0.1369109E-001  0.2518988E+03  0.7546771E-02  0.1112111E+00
          2   -1    0    0  502    0 -0.00000000000E+00  0.00000000000E+00  0.38310894458E+03  0.38310894458E+03  0.00000000000E+00 0.  1.
         21   -1    0    0  501  502  0.00000000000E+00 -0.00000000000E+00 -0.14984654524E+03  0.14984654524E+03  0.00000000000E+00 0.  1.
         25    1    1    2    0    0  0.18064543294E+03  0.12326892499E+03  0.74422116918E+02  0.26266261972E+03  0.12500000000E+03 0.  0.
          2    1    1    2  501    0 -0.18064543294E+03 -0.12326892499E+03  0.15884028242E+03  0.27029287011E+03  0.00000000000E+00 0.  1.
<mgrwt>
<rscale>  3 0.25189879E+03</rscale>
<asrwt>0</asrwt>
<pdfrwt beam="1">  1       21 0.23053315E-01 0.25189879E+03</pdfrwt>
<pdfrwt beam="2">  1        2 0.58939837E-01 0.25189879E+03</pdfrwt>
<totfact> 0.18265299E+04</totfact>
</mgrwt>
</event>
<event>
 4    0  0.1002184E-001  0.2656521E+03  0.7546771E-02  0.1103794E+00
          1   -1    0    0  502    0 -0.00000000000E+00  0.00000000000E+00  0.31434151032E+04  0.31434151032E+04  0.00000000000E+00 0.  1.
         21   -1    0    0  501  502  0.00000000000E+00 -0.00000000000E+00 -0.20925023046E+03  0.20925023046E+03  0.00000000000E+00 0.  1.
         25    1    1    2    0    0 -0.23474253156E+02 -0.23322738371E+03 -0.11859279854E+03  0.29092147556E+03  0.12500000000E+03 0.  0.
          1    1    1    2  501    0  0.23474253156E+02  0.23322738371E+03  0.30527576713E+04  0.30617438581E+04  0.00000000000E+00 0.  1.
<mgrwt>
<rscale>  3 0.26565213E+03</rscale>
<asrwt>0</asrwt>
<pdfrwt beam="1">  1       21 0.32192346E-01 0.26565213E+03</pdfrwt>
<pdfrwt beam="2">  1        1 0.48360229E+00 0.26565213E+03</pdfrwt>
<totfact> 0.58012088E+01</totfact>
</mgrwt>
</event>
<event>
 4    0  0.1002184E-001  0.2430671E+03  0.7546771E-02  0.1117766E+00
          1   -1    0    0  502    0 -0.00000000000E+00  0.00000000000E+00  0.25495456008E+03  0.25495456008E+03  0.00000000000E+00 0.  1.
         21   -1    0    0  501  502  0.00000000000E+00 -0.00000000000E+00 -0.20417023260E+03  0.20417023260E+03  0.00000000000E+00 0. -1.
         25    1    1    2    0    0 -0.11067094001E+03 -0.17665943078E+03  0.60335621009E+02  0.25044360365E+03  0.12500000000E+03 0.  0.
          1    1    1    2  501    0  0.11067094001E+03  0.17665943078E+03 -0.95512935234E+01  0.20868118903E+03  0.00000000000E+00 0.  1.
<mgrwt>
<rscale>  3 0.24306709E+03</rscale>
<asrwt>0</asrwt>
<pdfrwt beam="1">  1       21 0.31410805E-01 0.24306709E+03</pdfrwt>
<pdfrwt beam="2">  1        1 0.39223779E-01 0.24306709E+03</pdfrwt>
<totfact> 0.11330462E+04</totfact>
</mgrwt>
</event>
<event>
 4    0  0.1002184E-001  0.2372172E+03  0.7546771E-02  0.1121661E+00
          2   -1    0    0  502    0 -0.00000000000E+00  0.00000000000E+00  0.10346242794E+04  0.10346242794E+04  0.00000000000E+00 0.  1.
         21   -1    0    0  501  502  0.00000000000E+00 -0.00000000000E+00 -0.35536522062E+03  0.35536522062E+03  0.00000000000E+00 0.  1.
         25    1    1    2    0    0  0.71731228207E+02 -0.18841880037E+03 -0.30438053602E+03  0.38590092529E+03  0.12500000000E+03 0.  0.
          2    1    1    2  501    0 -0.71731228207E+02  0.18841880037E+03  0.98363959483E+03  0.10040885748E+04  0.00000000000E+00 0.  1.
<mgrwt>
<rscale>  3 0.23721723E+03</rscale>
<asrwt>0</asrwt>
<pdfrwt beam="1">  1       21 0.54671573E-01 0.23721723E+03</pdfrwt>
<pdfrwt beam="2">  1        2 0.15917296E+00 0.23721723E+03</pdfrwt>
<totfact> 0.98069961E+02</totfact>
</mgrwt>
</event>
<event>
 4    0  0.1002184E-001  0.2430592E+03  0.7546771E-02  0.1117772E+00
         21   -1    0    0  501  502  0.00000000000E+00  0.00000000000E+00  0.19835583139E+03  0.19835583139E+03  0.00000000000E+00 0.  1.
         -3   -1    0    0    0  501 -0.00000000000E+00 -0.00000000000E+00 -0.47623967632E+03  0.47623967632E+03  0.00000000000E+00 0. -1.
         25    1    1    2    0    0  0.20586203880E+03 -0.32765609989E+02  0.83835018955E+02  0.25711101614E+03  0.12500000000E+03 0.  0.
         -3    1    1    2    0  502 -0.20586203880E+03  0.32765609989E+02 -0.36171886389E+03  0.41748449158E+03  0.00000000000E+00 0. -1.
<mgrwt>
<rscale>  3 0.24305918E+03</rscale>
<asrwt>0</asrwt>
<pdfrwt beam="1">  1       21 0.30516282E-01 0.24305918E+03</pdfrwt>
<pdfrwt beam="2">  1       -3 0.73267643E-01 0.24305918E+03</pdfrwt>
<totfact> 0.91389944E+02</totfact>
</mgrwt>
</event>
<event>
 4    0  0.1346624E-001  0.3534794E+03  0.7546771E-02  0.1061196E+00
         21   -1    0    0  501  502  0.00000000000E+00  0.00000000000E+00  0.43912876754E+03  0.43912876754E+03  0.00000000000E+00 0. -1.
          3   -1    0    0  502    0 -0.00000000000E+00 -0.00000000000E+00 -0.61391934199E+03  0.61391934199E+03  0.00000000000E+00 0. -1.
         25    1    1    2    0    0 -0.18321454746E+03 -0.27523653294E+03  0.30735849314E+03  0.46841964388E+03  0.12500000000E+03 0.  0.
          3    1    1    2  501    0  0.18321454746E+03  0.27523653294E+03 -0.48214906759E+03  0.58462846565E+03  0.00000000000E+00 0. -1.
<mgrwt>
<rscale>  3 0.35347945E+03</rscale>
<asrwt>0</asrwt>
<pdfrwt beam="1">  1       21 0.67558272E-01 0.35347945E+03</pdfrwt>
<pdfrwt beam="2">  1        3 0.94449129E-01 0.35347945E+03</pdfrwt>
<totfact> 0.97575000E+01</totfact>
</mgrwt>
</event>
<event>
 4    0  0.1191649E-001  0.2728832E+03  0.7546771E-02  0.1099641E+00
          1   -1    0    0  502    0 -0.00000000000E+00  0.00000000000E+00  0.14851323489E+03  0.14851323489E+03  0.00000000000E+00 0.  1.
         21   -1    0    0  501  502  0.00000000000E+00 -0.00000000000E+00 -0.56391195450E+03  0.56391195450E+03  0.00000000000E+00 0.  1.
         25    1    1    2    0    0 -0.78205208039E+02 -0.22961745860E+03 -0.37918233435E+03  0.46716643131E+03  0.12500000000E+03 0.  0.
          1    1    1    2  501    0  0.78205208039E+02  0.22961745860E+03 -0.36216385258E+02  0.24525875809E+03  0.00000000000E+00 0.  1.
<mgrwt>
<rscale>  3 0.27288318E+03</rscale>
<asrwt>0</asrwt>
<pdfrwt beam="1">  1       21 0.86755685E-01 0.27288318E+03</pdfrwt>
<pdfrwt beam="2">  1        1 0.22848190E-01 0.27288318E+03</pdfrwt>
<totfact> 0.25813737E+03</totfact>
</mgrwt>
</event>
<event>
 4    0  0.1683210E-001  0.3419187E+03  0.7546771E-02  0.1065982E+00
          1   -1    0    0  502    0 -0.00000000000E+00  0.00000000000E+00  0.57237719655E+03  0.57237719655E+03  0.00000000000E+00 0. -1.
         21   -1    0    0  501  502  0.00000000000E+00 -0.00000000000E+00 -0.85873921622E+03  0.85873921622E+03  0.00000000000E+00 0.  1.
         25    1    1    2    0    0 -0.31491759951E+03 -0.45938396811E+02 -0.77551594070E+03  0.84754551799E+03  0.12500000000E+03 0.  0.
          1    1    1    2  501    0  0.31491759951E+03  0.45938396811E+02  0.48915392103E+03  0.58357089479E+03  0.00000000000E+00 0. -1.
<mgrwt>
<rscale>  3 0.34191875E+03</rscale>
<asrwt>0</asrwt>
<pdfrwt beam="1">  1       21 0.13211373E+00 0.34191875E+03</pdfrwt>
<pdfrwt beam="2">  1        1 0.88058031E-01 0.34191875E+03</pdfrwt>
<totfact> 0.15800146E+02</totfact>
</mgrwt>
</event>
<event>
 4    0  0.1002184E-001  0.2469491E+03  0.7546771E-02  0.1115248E+00
          4   -1    0    0  502    0 -0.00000000000E+00  0.00000000000E+00  0.64700094098E+02  0.64700094098E+02  0.00000000000E+00 0.  1.
         21   -1    0    0  501  502  0.00000000000E+00 -0.00000000000E+00 -0.20402908764E+04  0.20402908764E+04  0.00000000000E+00 0. -1.
         25    1    1    2    0    0 -0.12562945173E+02  0.21260536134E+03 -0.18309819925E+04  0.18475602626E+04  0.12500000000E+03 0.  0.
          4    1    1    2  501    0  0.12562945173E+02 -0.21260536134E+03 -0.14460878982E+03  0.25743070787E+03  0.00000000000E+00 0.  1.
<mgrwt>
<rscale>  3 0.24694912E+03</rscale>
<asrwt>0</asrwt>
<pdfrwt beam="1">  1       21 0.31389093E+00 0.24694912E+03</pdfrwt>
<pdfrwt beam="2">  1        4 0.99538599E-02 0.24694912E+03</pdfrwt>
<totfact> 0.88032406E+01</totfact>
</mgrwt>
</event>
<event>
 4    0  0.1519128E-001  0.2530705E+03  0.7546771E-02  0.1111380E+00
          1   -1    0    0  502    0 -0.00000000000E+00  0.00000000000E+00  0.18025436706E+04  0.18025436706E+04  0.00000000000E+00 0.  1.
         21   -1    0    0  501  502  0.00000000000E+00 -0.00000000000E+00 -0.39246931066E+02  0.39246931066E+02  0.00000000000E+00 0.  1.
         25    1    1    2    0    0  0.21767759161E+03 -0.32189535427E+02  0.51015178772E+03  0.56947304290E+03  0.12500000000E+03 0.  0.
          1    1    1    2  501    0 -0.21767759161E+03  0.32189535427E+02  0.12531449518E+04  0.12723175587E+04  0.00000000000E+00 0.  1.
<mgrwt>
<rscale>  3 0.25307054E+03</rscale>
<asrwt>0</asrwt>
<pdfrwt beam="1">  1       21 0.60379908E-02 0.25307054E+03</pdfrwt>
<pdfrwt beam="2">  1        1 0.27731435E+00 0.25307054E+03</pdfrwt>
<totfact> 0.98881328E+03</totfact>
</mgrwt>
</event>
<event>
 4    0  0.1260477E-001  0.2842870E+03  0.7546771E-02  0.1093370E+00
          2   -1    0    0  502    0 -0.00000000000E+00  0.00000000000E+00  0.23149880722E+03  0.23149880722E+03  0.00000000000E+00 0.  1.
         21   -1    0    0  501  502  0.00000000000E+00 -0.00000000000E+00 -0.33885375530E+03  0.33885375530E+03  0.00000000000E+00 0.  1.
         25    1    1    2    0    0 -0.24503044230E+02 -0.25415290699E+03  0.20063112211E+02  0.28499408376E+03  0.12500000000E+03 0.  0.
          2    1    1    2  501    0  0.24503044230E+02  0.25415290699E+03 -0.12741806029E+03  0.28535847876E+03  0.00000000000E+00 0.  1.
<mgrwt>
<rscale>  3 0.28428700E+03</rscale>
<asrwt>0</asrwt>
<pdfrwt beam="1">  1       21 0.52131347E-01 0.28428700E+03</pdfrwt>
<pdfrwt beam="2">  1        2 0.35615201E-01 0.28428700E+03</pdfrwt>
<totfact> 0.61212713E+03</totfact>
</mgrwt>
</event>
<event>
 4    0  0.1540552E-001  0.2483844E+03  0.7546771E-02  0.1114330E+00
         21   -1    0    0  501  502  0.00000000000E+00  0.00000000000E+00  0.81794410776E+02  0.81794410776E+02  0.00000000000E+00 0.  1.
          1   -1    0    0  502    0 -0.00000000000E+00 -0.00000000000E+00 -0.79191278658E+03  0.79191278658E+03  0.00000000000E+00 0.  1.
         25    1    1    2    0    0 -0.13568152365E+03 -0.16631401243E+03 -0.19540820016E+03  0.31603669294E+03  0.12500000000E+03 0.  0.
          1    1    1    2  501    0  0.13568152365E+03  0.16631401243E+03 -0.51471017564E+03  0.55767050442E+03  0.00000000000E+00 0.  1.
<mgrwt>
<rscale>  3 0.24838443E+03</rscale>
<asrwt>0</asrwt>
<pdfrwt beam="1">  1       21 0.12583756E-01 0.24838443E+03</pdfrwt>
<pdfrwt beam="2">  1        1 0.12183273E+00 0.24838443E+03</pdfrwt>
<totfact> 0.13926084E+04</totfact>
</mgrwt>
</event>
<event>
 4    0  0.1478129E-001  0.2579533E+03  0.7546771E-02  0.1108379E+00
          1   -1    0    0  502    0 -0.00000000000E+00  0.00000000000E+00  0.86241691800E+03  0.86241691800E+03  0.00000000000E+00 0. -1.
         21   -1    0    0  501  502  0.00000000000E+00 -0.00000000000E+00 -0.96345926488E+02  0.96345926488E+02  0.00000000000E+00 0. -1.
         25    1    1    2    0    0 -0.13565848582E+03  0.18030991584E+03  0.14048646077E+03  0.29372833739E+03  0.12500000000E+03 0.  0.
          1    1    1    2  501    0  0.13565848582E+03 -0.18030991584E+03  0.62558453074E+03  0.66503450710E+03  0.00000000000E+00 0. -1.
<mgrwt>
<rscale>  3 0.25795327E+03</rscale>
<asrwt>0</asrwt>
<pdfrwt beam="1">  1       21 0.14822451E-01 0.25795327E+03</pdfrwt>
<pdfrwt beam="2">  1        1 0.13267952E+00 0.25795327E+03</pdfrwt>
<totfact> 0.90294468E+03</totfact>
</mgrwt>
</event>
<event>
 4    0  0.1296107E-001  0.2482587E+03  0.7546771E-02  0.1114410E+00
          1   -1    0    0  502    0 -0.00000000000E+00  0.00000000000E+00  0.20066861057E+04  0.20066861057E+04  0.00000000000E+00 0.  1.
         21   -1    0    0  501  502  0.00000000000E+00 -0.00000000000E+00 -0.70328920073E+02  0.70328920073E+02  0.00000000000E+00 0.  1.
         25    1    1    2    0    0 -0.49135744031E+02 -0.20878952228E+03  0.17764334101E+03  0.30526962273E+03  0.12500000000E+03 0.  0.
          1    1    1    2  501    0  0.49135744031E+02  0.20878952228E+03  0.17587138447E+04  0.17717454031E+04  0.00000000000E+00 0.  1.
<mgrwt>
<rscale>  3 0.24825871E+03</rscale>
<asrwt>0</asrwt>
<pdfrwt beam="1">  1       21 0.10819835E-01 0.24825871E+03</pdfrwt>
<pdfrwt beam="2">  1        1 0.30872090E+00 0.24825871E+03</pdfrwt>
<totfact> 0.26266248E+03</totfact>
</mgrwt>
</event>
<event>
 4    0  0.1258080E-001  0.2367313E+03  0.7546771E-02  0.1121990E+00
         -1   -1    0    0    0  501 -0.00000000000E+00  0.00000000000E+00  0.11997392655E+03  0.11997392655E+03  0.00000000000E+00 0. -1.
         21   -1    0    0  501  502  0.00000000000E+00 -0.00000000000E+00 -0.39951571827E+03  0.39951571827E+03  0.00000000000E+00 0. -1.
         25    1    1    2    0    0 -0.18939271382E+03  0.67432381002E+02 -0.15654515615E+03  0.28380999272E+03  0.12500000000E+03 0.  0.
         -1    1    1    2    0  502  0.18939271382E+03 -0.67432381002E+02 -0.12299663557E+03  0.23567965211E+03  0.00000000000E+00 0. -1.
<mgrwt>
<rscale>  3 0.23673134E+03</rscale>
<asrwt>0</asrwt>
<pdfrwt beam="1">  1       21 0.61463958E-01 0.23673134E+03</pdfrwt>
<pdfrwt beam="2">  1       -1 0.18457527E-01 0.23673134E+03</pdfrwt>
<totfact> 0.50694619E+03</totfact>
</mgrwt>
</event>
<event>
 4    0  0.2039372E-001  0.2383743E+03  0.7546771E-02  0.1120881E+00
         21   -1    0    0  501  502  0.00000000000E+00  0.00000000000E+00  0.11738819301E+03  0.11738819301E+03  0.00000000000E+00 0. -1.
         -1   -1    0    0    0  501 -0.00000000000E+00 -0.00000000000E+00 -0.52260869690E+03  0.52260869690E+03  0.00000000000E+00 0. -1.
         25    1    1    2    0    0 -0.55964647093E+02 -0.19510320214E+03 -0.36045798723E+03  0.43214842562E+03  0.12500000000E+03 0.  0.
         -1    1    1    2    0  502  0.55964647093E+02  0.19510320214E+03 -0.44762516662E+02  0.20784846429E+03  0.00000000000E+00 0. -1.
<mgrwt>
<rscale>  3 0.23837429E+03</rscale>
<asrwt>0</asrwt>
<pdfrwt beam="1">  1       21 0.18059722E-01 0.23837429E+03</pdfrwt>
<pdfrwt beam="2">  1       -1 0.80401339E-01 0.23837429E+03</pdfrwt>
<totfact> 0.41665610E+03</totfact>
</mgrwt>
</event>
<event>
 4    0  0.1403969E-001  0.2369529E+03  0.7546771E-02  0.1121840E+00
         21   -1    0    0  501  502  0.00000000000E+00  0.00000000000E+00  0.32803735019E+03  0.32803735019E+03  0.00000000000E+00 0.  1.
         -1   -1    0    0    0  501 -0.00000000000E+00 -0.00000000000E+00 -0.31511879436E+03  0.31511879436E+03  0.00000000000E+00 0.  1.
         25    1    1    2    0    0 -0.92751652329E+02 -0.17865832377E+03  0.24166390349E+03  0.33844956480E+03  0.12500000000E+03 0.  0.
         -1    1    1    2    0  502  0.92751652329E+02  0.17865832377E+03 -0.22874534767E+03  0.30470657975E+03  0.00000000000E+00 0.  1.
<mgrwt>
<rscale>  3 0.23695288E+03</rscale>
<asrwt>0</asrwt>
<pdfrwt beam="1">  1       21 0.50467284E-01 0.23695288E+03</pdfrwt>
<pdfrwt beam="2">  1       -1 0.48479815E-01 0.23695288E+03</pdfrwt>
<totfact> 0.14799717E+03</totfact>
</mgrwt>
</event>
<event>
 4    0  0.1174734E-001  0.4050730E+03  0.7546771E-02  0.1042037E+00
         21   -1    0    0  501  502  0.00000000000E+00  0.00000000000E+00  0.15101069429E+04  0.15101069429E+04  0.00000000000E+00 0. -1.
          2   -1    0    0  502    0 -0.00000000000E+00 -0.00000000000E+00 -0.12853221811E+04  0.12853221811E+04  0.00000000000E+00 0.  1.
         25    1    1    2    0    0  0.38525941208E+03 -0.58607969860E+01  0.14528891481E+04  0.15083007128E+04  0.12500000000E+03 0.  0.
          2    1    1    2  501    0 -0.38525941208E+03  0.58607969860E+01 -0.12281043863E+04  0.12871284113E+04  0.00000000000E+00 0.  1.
<mgrwt>
<rscale>  3 0.40507303E+03</rscale>
<asrwt>0</asrwt>
<pdfrwt beam="1">  1       21 0.23232415E+00 0.40507303E+03</pdfrwt>
<pdfrwt beam="2">  1        2 0.19774187E+00 0.40507303E+03</pdfrwt>
<totfact> 0.16029859E+01</totfact>
</mgrwt>
</event>
<event>
 4    0  0.1002184E-001  0.2766547E+03  0.7546771E-02  0.1097530E+00
          2   -1    0    0  502    0 -0.00000000000E+00  0.00000000000E+00  0.81716304017E+02  0.81716304017E+02  0.00000000000E+00 0.  1.
         21   -1    0    0  501  502  0.00000000000E+00 -0.00000000000E+00 -0.16980682244E+04  0.16980682244E+04  0.00000000000E+00 0. -1.
         25    1    1    2    0    0  0.31446184064E+02  0.24479368695E+03 -0.14636336359E+04  0.14895506812E+04  0.12500000000E+03 0.  0.
          2    1    1    2  501    0 -0.31446184064E+02 -0.24479368695E+03 -0.15271828447E+03  0.29023384722E+03  0.00000000000E+00 0.  1.
<mgrwt>
<rscale>  3 0.27665468E+03</rscale>
<asrwt>0</asrwt>
<pdfrwt beam="1">  1       21 0.26124124E+00 0.27665468E+03</pdfrwt>
<pdfrwt beam="2">  1        2 0.12571740E-01 0.27665468E+03</pdfrwt>
<totfact> 0.31413136E+02</totfact>
</mgrwt>
</event>
<event>
 4    0  0.1002184E-001  0.2399267E+03  0.7546771E-02  0.1119842E+00
         21   -1    0    0  501  502  0.00000000000E+00  0.00000000000E+00  0.21309758751E+03  0.21309758751E+03  0.00000000000E+00 0.  1.
          2   -1    0    0  502    0 -0.00000000000E+00 -0.00000000000E+00 -0.26772936509E+03  0.26772936509E+03  0.00000000000E+00 0. -1.
         25    1    1    2    0    0 -0.67765009123E+02  0.19325553641E+03  0.58373022998E+02  0.24692551231E+03  0.12500000000E+03 0.  0.
          2    1    1    2  501    0  0.67765009123E+02 -0.19325553641E+03 -0.11300480058E+03  0.23390144029E+03  0.00000000000E+00 0. -1.
<mgrwt>
<rscale>  3 0.23992665E+03</rscale>
<asrwt>0</asrwt>
<pdfrwt beam="1">  1       21 0.32784244E-01 0.23992665E+03</pdfrwt>
<pdfrwt beam="2">  1        2 0.41189133E-01 0.23992665E+03</pdfrwt>
<totfact> 0.13608742E+04</totfact>
</mgrwt>
</event>
<event>
 4    0  0.1463884E-001  0.2799673E+03  0.7546771E-02  0.1095707E+00
         21   -1    0    0  501  502  0.00000000000E+00  0.00000000000E+00  0.44115339348E+02  0.44115339348E+02  0.00000000000E+00 0.  1.
          1   -1    0    0  502    0 -0.00000000000E+00 -0.00000000000E+00 -0.23044929462E+04  0.23044929462E+04  0.00000000000E+00 0.  1.
         25    1    1    2    0    0 -0.14407426027E+03 -0.20493731714E+03 -0.52260981020E+03  0.59287663991E+03  0.12500000000E+03 0.  0.
          1    1    1    2  501    0  0.14407426027E+03  0.20493731714E+03 -0.17377677967E+04  0.17557316457E+04  0.00000000000E+00 0.  1.
<mgrwt>
<rscale>  3 0.27996731E+03</rscale>
<asrwt>0</asrwt>
<pdfrwt beam="1">  1       21 0.67869749E-02 0.27996731E+03</pdfrwt>
<pdfrwt beam="2">  1        1 0.35453739E+00 0.27996731E+03</pdfrwt>
<totfact> 0.37709840E+03</totfact>
</mgrwt>
</event>
<event>
 4    0  0.1002184E-001  0.2939156E+03  0.7546771E-02  0.1088322E+00
         -1   -1    0    0    0  501 -0.00000000000E+00  0.00000000000E+00  0.75676779205E+03  0.75676779205E+03  0.00000000000E+00 0.  1.
         21   -1    0    0  501  502  0.00000000000E+00 -0.00000000000E+00 -0.14781512309E+03  0.14781512309E+03  0.00000000000E+00 0. -1.
         25    1    1    2    0    0 -0.26563914049E+03 -0.14043787696E+02  0.67874595385E+02  0.30165102624E+03  0.12500000000E+03 0.  0.
         -1    1    1    2    0  502  0.26563914049E+03  0.14043787696E+02  0.54107807358E+03  0.60293188889E+03  0.00000000000E+00 0.  1.
<mgrwt>
<rscale>  3 0.29391560E+03</rscale>
<asrwt>0</asrwt>
<pdfrwt beam="1">  1       21 0.22740789E-01 0.29391560E+03</pdfrwt>
<pdfrwt beam="2">  1       -1 0.11642581E+00 0.29391560E+03</pdfrwt>
<totfact> 0.11748769E+03</totfact>
</mgrwt>
</event>
<event>
 4    0  0.1721858E-001  0.2871702E+03  0.7546771E-02  0.1091836E+00
          2   -1    0    0  502    0 -0.00000000000E+00  0.00000000000E+00  0.15822234887E+04  0.15822234887E+04  0.00000000000E+00 0. -1.
         21   -1    0    0  501  502  0.00000000000E+00 -0.00000000000E+00 -0.18916447536E+03  0.18916447536E+03  0.00000000000E+00 0.  1.
         25    1    1    2    0    0  0.20519348493E+02 -0.25772206860E+03 -0.61792400005E+02  0.29374310035E+03  0.12500000000E+03 0.  0.
          2    1    1    2  501    0 -0.20519348493E+02  0.25772206860E+03  0.14548514133E+04  0.14776448637E+04  0.00000000000E+00 0. -1.
<mgrwt>
<rscale>  3 0.28717017E+03</rscale>
<asrwt>0</asrwt>
<pdfrwt beam="1">  1       21 0.29102228E-01 0.28717017E+03</pdfrwt>
<pdfrwt beam="2">  1        2 0.24341899E+00 0.28717017E+03</pdfrwt>
<totfact> 0.17139932E+03</totfact>
</mgrwt>
</event>
<event>
 4    0  0.1315780E-001  0.2409001E+03  0.7546771E-02  0.1119195E+00
         21   -1    0    0  501  502  0.00000000000E+00  0.00000000000E+00  0.39641938767E+03  0.39641938767E+03  0.00000000000E+00 0.  1.
          1   -1    0    0  502    0 -0.00000000000E+00 -0.00000000000E+00 -0.12622493472E+03  0.12622493472E+03  0.00000000000E+00 0.  1.
         25    1    1    2    0    0 -0.27988548050E+02 -0.20402080141E+03  0.15857930679E+03  0.28840985207E+03  0.12500000000E+03 0.  0.
          1    1    1    2  501    0  0.27988548050E+02  0.20402080141E+03  0.11161514616E+03  0.23423447031E+03  0.00000000000E+00 0.  1.
<mgrwt>
<rscale>  3 0.24090008E+03</rscale>
<asrwt>0</asrwt>
<pdfrwt beam="1">  1       21 0.60987597E-01 0.24090008E+03</pdfrwt>
<pdfrwt beam="2">  1        1 0.19419221E-01 0.24090008E+03</pdfrwt>
<totfact> 0.70621882E+03</totfact>
</mgrwt>
</event>
<event>
 4    0  0.1615399E-001  0.2587177E+03  0.7546771E-02  0.1107916E+00
         21   -1    0    0  501  502  0.00000000000E+00  0.00000000000E+00  0.41012300317E+02  0.41012300317E+02  0.00000000000E+00 0.  1.
          1   -1    0    0  502    0 -0.00000000000E+00 -0.00000000000E+00 -0.14740997561E+04  0.14740997561E+04  0.00000000000E+00 0.  1.
         25    1    1    2    0    0  0.87382734691E+02  0.20898344793E+03 -0.88555333580E+03  0.92257223803E+03  0.12500000000E+03 0.  0.
          1    1    1    2  501    0 -0.87382734691E+02 -0.20898344793E+03 -0.54753411997E+03  0.59253981838E+03  0.00000000000E+00 0.  1.
<mgrwt>
<rscale>  3 0.25871765E+03</rscale>
<asrwt>0</asrwt>
<pdfrwt beam="1">  1       21 0.63095850E-02 0.25871765E+03</pdfrwt>
<pdfrwt beam="2">  1        1 0.22678457E+00 0.25871765E+03</pdfrwt>
<totfact> 0.15022799E+04</totfact>
</mgrwt>
</event>
<event>
 4    0  0.1403763E-001  0.2398086E+03  0.7546771E-02  0.1119920E+00
          2   -1    0    0  502    0 -0.00000000000E+00  0.00000000000E+00  0.68581745801E+03  0.68581745801E+03  0.00000000000E+00 0.  1.
         21   -1    0    0  501  502  0.00000000000E+00 -0.00000000000E+00 -0.15269108977E+03  0.15269108977E+03  0.00000000000E+00 0.  1.
         25    1    1    2    0    0  0.38049916034E+02  0.20108552246E+03 -0.27799660890E+02  0.24141459069E+03  0.12500000000E+03 0.  0.
          2    1    1    2  501    0 -0.38049916034E+02 -0.20108552246E+03  0.56092602913E+03  0.59709395710E+03  0.00000000000E+00 0.  1.
<mgrwt>
<rscale>  3 0.23980864E+03</rscale>
<asrwt>0</asrwt>
<pdfrwt beam="1">  1       21 0.23490937E-01 0.23980864E+03</pdfrwt>
<pdfrwt beam="2">  1        2 0.10551038E+00 0.23980864E+03</pdfrwt>
<totfact> 0.91298851E+03</totfact>
</mgrwt>
</event>
<event>
 4    0  0.1002184E-001  0.3301487E+03  0.7546771E-02  0.1071071E+00
         -2   -1    0    0    0  501 -0.00000000000E+00  0.00000000000E+00  0.13684545098E+03  0.13684545098E+03  0.00000000000E+00 0.  1.
         21   -1    0    0  501  502  0.00000000000E+00 -0.00000000000E+00 -0.90104180260E+03  0.90104180260E+03  0.00000000000E+00 0. -1.
         25    1    1    2    0    0 -0.29340904968E+03  0.85347965160E+02 -0.61460492139E+03  0.69766564699E+03  0.12500000000E+03 0.  0.
         -2    1    1    2    0  502  0.29340904968E+03 -0.85347965160E+02 -0.14959143023E+03  0.34022160659E+03  0.00000000000E+00 0.  1.
<mgrwt>
<rscale>  3 0.33014867E+03</rscale>
<asrwt>0</asrwt>
<pdfrwt beam="1">  1       21 0.13862182E+00 0.33014867E+03</pdfrwt>
<pdfrwt beam="2">  1       -2 0.21053146E-01 0.33014867E+03</pdfrwt>
<totfact> 0.53123734E+02</totfact>
</mgrwt>
</event>
<event>
 4    0  0.1642489E-001  0.2855241E+03  0.7546771E-02  0.1092709E+00
          2   -1    0    0  502    0 -0.00000000000E+00  0.00000000000E+00  0.19523893158E+04  0.19523893158E+04  0.00000000000E+00 0. -1.
         21   -1    0    0  501  502  0.00000000000E+00 -0.00000000000E+00 -0.40420995109E+02  0.40420995109E+02  0.00000000000E+00 0. -1.
         25    1    1    2    0    0  0.18520649248E+03 -0.17775703859E+03  0.74267574479E+03  0.79567032842E+03  0.12500000000E+03 0.  0.
          2    1    1    2  501    0 -0.18520649248E+03  0.17775703859E+03  0.11692925759E+04  0.11971399825E+04  0.00000000000E+00 0. -1.
<mgrwt>
<rscale>  3 0.28552410E+03</rscale>
<asrwt>0</asrwt>
<pdfrwt beam="1">  1       21 0.62186161E-02 0.28552410E+03</pdfrwt>
<pdfrwt beam="2">  1        2 0.30036751E+00 0.28552410E+03</pdfrwt>
<totfact> 0.18395899E+04</totfact>
</mgrwt>
</event>
<event>
 4    0  0.1340958E-001  0.2594996E+03  0.7546771E-02  0.1107444E+00
         21   -1    0    0  501  502  0.00000000000E+00  0.00000000000E+00  0.29685242844E+03  0.29685242844E+03  0.00000000000E+00 0. -1.
          2   -1    0    0  502    0 -0.00000000000E+00 -0.00000000000E+00 -0.45890563258E+03  0.45890563258E+03  0.00000000000E+00 0. -1.
         25    1    1    2    0    0 -0.13969313243E+03 -0.17944604352E+03  0.20039910766E+03  0.32787170682E+03  0.12500000000E+03 0.  0.
          2    1    1    2  501    0  0.13969313243E+03  0.17944604352E+03 -0.36245231180E+03  0.42788635420E+03  0.00000000000E+00 0. -1.
<mgrwt>
<rscale>  3 0.25949962E+03</rscale>
<asrwt>0</asrwt>
<pdfrwt beam="1">  1       21 0.45669605E-01 0.25949962E+03</pdfrwt>
<pdfrwt beam="2">  1        2 0.70600866E-01 0.25949962E+03</pdfrwt>
<totfact> 0.38559514E+03</totfact>
</mgrwt>
</event>
<event>
 4    0  0.1356993E-001  0.4715603E+03  0.7546771E-02  0.1021481E+00
         21   -1    0    0  501  502  0.00000000000E+00  0.00000000000E+00  0.46755112900E+03  0.46755112900E+03  0.00000000000E+00 0. -1.
          2   -1    0    0  502    0 -0.00000000000E+00 -0.00000000000E+00 -0.83626229735E+03  0.83626229735E+03  0.00000000000E+00 0. -1.
         25    1    1    2    0    0 -0.41726563494E+03  0.18064758988E+03  0.25177285770E+03  0.53456405950E+03  0.12500000000E+03 0.  0.
          2    1    1    2  501    0  0.41726563494E+03 -0.18064758988E+03 -0.62048402605E+03  0.76924936686E+03  0.00000000000E+00 0. -1.
<mgrwt>
<rscale>  3 0.47156035E+03</rscale>
<asrwt>0</asrwt>
<pdfrwt beam="1">  1       21 0.71930943E-01 0.47156035E+03</pdfrwt>
<pdfrwt beam="2">  1        2 0.12865574E+00 0.47156035E+03</pdfrwt>
<totfact> 0.66394695E+02</totfact>
</mgrwt>
</event>
<event>
 4    0  0.1558909E-001  0.2636722E+03  0.7546771E-02  0.1104957E+00
         21   -1    0    0  501  502  0.00000000000E+00  0.00000000000E+00  0.76333622455E+02  0.76333622455E+02  0.00000000000E+00 0. -1.
          2   -1    0    0  502    0 -0.00000000000E+00 -0.00000000000E+00 -0.13556820864E+04  0.13556820864E+04  0.00000000000E+00 0. -1.
         25    1    1    2    0    0 -0.23155703634E+03 -0.16713706785E+02 -0.20810128814E+03  0.33590051384E+03  0.12500000000E+03 0.  0.
          2    1    1    2  501    0  0.23155703634E+03  0.16713706785E+02 -0.10712471758E+04  0.10961151950E+04  0.00000000000E+00 0. -1.
<mgrwt>
<rscale>  3 0.26367216E+03</rscale>
<asrwt>0</asrwt>
<pdfrwt beam="1">  1       21 0.11743635E-01 0.26367216E+03</pdfrwt>
<pdfrwt beam="2">  1        2 0.20856646E+00 0.26367216E+03</pdfrwt>
<totfact> 0.12522682E+04</totfact>
</mgrwt>
</event>
<event>
 4    0  0.1002184E-001  0.6179361E+03  0.7546771E-02  0.9868878E-01
         21   -1    0    0  501  502  0.00000000000E+00  0.00000000000E+00  0.26418349162E+03  0.26418349162E+03  0.00000000000E+00 0. -1.
          1   -1    0    0  502    0 -0.00000000000E+00 -0.00000000000E+00 -0.29384912492E+04  0.29384912492E+04  0.00000000000E+00 0. -1.
         25    1    1    2    0    0 -0.32114302072E+03  0.51292020230E+03 -0.19112897808E+03  0.64681934104E+03  0.12500000000E+03 0.  0.
          1    1    1    2  501    0  0.32114302072E+03 -0.51292020230E+03 -0.24831787795E+04  0.25558553998E+04  0.00000000000E+00 0. -1.
<mgrwt>
<rscale>  3 0.61793606E+03</rscale>
<asrwt>0</asrwt>
<pdfrwt beam="1">  1       21 0.40643614E-01 0.61793606E+03</pdfrwt>
<pdfrwt beam="2">  1        1 0.45207558E+00 0.61793606E+03</pdfrwt>
<totfact> 0.42866018E+01</totfact>
</mgrwt>
</event>
<event>
 4    0  0.1413135E-001  0.2864081E+03  0.7546771E-02  0.1092240E+00
         21   -1    0    0  501  502  0.00000000000E+00  0.00000000000E+00  0.13351215869E+03  0.13351215869E+03  0.00000000000E+00 0. -1.
          2   -1    0    0  502    0 -0.00000000000E+00 -0.00000000000E+00 -0.61841920391E+03  0.61841920391E+03  0.00000000000E+00 0. -1.
         25    1    1    2    0    0  0.16181991004E+03  0.20054650365E+03 -0.37479668512E+03  0.47170132350E+03  0.12500000000E+03 0.  0.
          2    1    1    2  501    0 -0.16181991004E+03 -0.20054650365E+03 -0.11011036009E+03  0.28023003910E+03  0.00000000000E+00 0. -1.
<mgrwt>
<rscale>  3 0.28640807E+03</rscale>
<asrwt>0</asrwt>
<pdfrwt beam="1">  1       21 0.20540332E-01 0.28640807E+03</pdfrwt>
<pdfrwt beam="2">  1        2 0.95141415E-01 0.28640807E+03</pdfrwt>
<totfact> 0.13201632E+04</totfact>
</mgrwt>
</event>
<event>
 4    0  0.1002184E-001  0.2376775E+03  0.7546771E-02  0.1121350E+00
          2   -1    0    0  502    0 -0.00000000000E+00  0.00000000000E+00  0.10876589351E+04  0.10876589351E+04  0.00000000000E+00 0.  1.
         21   -1    0    0  501  502  0.00000000000E+00 -0.00000000000E+00 -0.51224011391E+02  0.51224011391E+02  0.00000000000E+00 0. -1.
         25    1    1    2    0    0  0.55151413534E+02 -0.19448372807E+03  0.34828584171E+03  0.42165581513E+03  0.12500000000E+03 0.  0.
          2    1    1    2  501    0 -0.55151413534E+02  0.19448372807E+03  0.68814908196E+03  0.71722713132E+03  0.00000000000E+00 0.  1.
<mgrwt>
<rscale>  3 0.23767751E+03</rscale>
<asrwt>0</asrwt>
<pdfrwt beam="1">  1       21 0.78806179E-02 0.23767751E+03</pdfrwt>
<pdfrwt beam="2">  1        2 0.16733213E+00 0.23767751E+03</pdfrwt>
<totfact> 0.36209103E+04</totfact>
</mgrwt>
</event>
<event>
 4    0  0.1439001E-001  0.2832447E+03  0.7546771E-02  0.1093930E+00
          2   -1    0    0  502    0 -0.00000000000E+00  0.00000000000E+00  0.47489391892E+03  0.47489391892E+03  0.00000000000E+00 0.  1.
         21   -1    0    0  501  502  0.00000000000E+00 -0.00000000000E+00 -0.22513344862E+03  0.22513344862E+03  0.00000000000E+00 0.  1.
         25    1    1    2    0    0  0.15091553439E+03 -0.20451665276E+03 -0.69793761761E+02  0.29171686437E+03  0.12500000000E+03 0.  0.
          2    1    1    2  501    0 -0.15091553439E+03  0.20451665276E+03  0.31955423206E+03  0.40831050317E+03  0.00000000000E+00 0.  1.
<mgrwt>
<rscale>  3 0.28324470E+03</rscale>
<asrwt>0</asrwt>
<pdfrwt beam="1">  1       21 0.34635915E-01 0.28324470E+03</pdfrwt>
<pdfrwt beam="2">  1        2 0.73060603E-01 0.28324470E+03</pdfrwt>
<totfact> 0.64793030E+03</totfact>
</mgrwt>
</event>
<event>
 4    0  0.1109256E-001  0.3481237E+03  0.7546771E-02  0.1063388E+00
         21   -1    0    0  501  502  0.00000000000E+00  0.00000000000E+00  0.10442916066E+04  0.10442916066E+04  0.00000000000E+00 0. -1.
         -2   -1    0    0    0  501 -0.00000000000E+00 -0.00000000000E+00 -0.11206700486E+03  0.11206700486E+03  0.00000000000E+00 0. -1.
         25    1    1    2    0    0  0.31227083857E+03  0.89733109379E+02  0.58562734958E+03  0.68128518266E+03  0.12500000000E+03 0.  0.
         -2    1    1    2    0  502 -0.31227083857E+03 -0.89733109379E+02  0.34659725215E+03  0.47507342878E+03  0.00000000000E+00 0. -1.
<mgrwt>
<rscale>  3 0.34812370E+03</rscale>
<asrwt>0</asrwt>
<pdfrwt beam="1">  1       21 0.16066024E+00 0.34812370E+03</pdfrwt>
<pdfrwt beam="2">  1       -2 0.17241078E-01 0.34812370E+03</pdfrwt>
<totfact> 0.50025169E+02</totfact>
</mgrwt>
</event>
<event>
 4    0  0.1002184E-001  0.2429319E+03  0.7546771E-02  0.1117855E+00
         21   -1    0    0  501  502  0.00000000000E+00  0.00000000000E+00  0.13058059018E+04  0.13058059018E+04  0.00000000000E+00 0.  1.
         -3   -1    0    0    0  501 -0.00000000000E+00 -0.00000000000E+00 -0.74401277482E+02  0.74401277482E+02  0.00000000000E+00 0. -1.
         25    1    1    2    0    0  0.20455753713E+03  0.39333574093E+02  0.11158690941E+04  0.11420068963E+04  0.12500000000E+03 0.  0.
         -3    1    1    2    0  502 -0.20455753713E+03 -0.39333574093E+02  0.11553553013E+03  0.23820028289E+03  0.00000000000E+00 0. -1.
<mgrwt>
<rscale>  3 0.24293192E+03</rscale>
<asrwt>0</asrwt>
<pdfrwt beam="1">  1       21 0.20089320E+00 0.24293192E+03</pdfrwt>
<pdfrwt beam="2">  1       -3 0.11446351E-01 0.24293192E+03</pdfrwt>
<totfact> 0.37625995E+02</totfact>
</mgrwt>
</event>
<event>
 4    0  0.1569276E-001  0.2779816E+03  0.7546771E-02  0.1096796E+00
         21   -1    0    0  501  502  0.00000000000E+00  0.00000000000E+00  0.11127852228E+03  0.11127852228E+03  0.00000000000E+00 0. -1.
          2   -1    0    0  502    0 -0.00000000000E+00 -0.00000000000E+00 -0.74520690053E+03  0.74520690053E+03  0.00000000000E+00 0. -1.
         25    1    1    2    0    0  0.78136971759E+01 -0.24816871952E+03 -0.15816106513E+03  0.31982603042E+03  0.12500000000E+03 0.  0.
          2    1    1    2  501    0 -0.78136971759E+01  0.24816871952E+03 -0.47576731312E+03  0.53665939239E+03  0.00000000000E+00 0. -1.
<mgrwt>
<rscale>  3 0.27798160E+03</rscale>
<asrwt>0</asrwt>
<pdfrwt beam="1">  1       21 0.17119773E-01 0.27798160E+03</pdfrwt>
<pdfrwt beam="2">  1        2 0.11464721E+00 0.27798160E+03</pdfrwt>
<totfact> 0.14836664E+04</totfact>
</mgrwt>
</event>
<event>
 4    0  0.1461734E-001  0.3687489E+03  0.7546771E-02  0.1055172E+00
          1   -1    0    0  502    0 -0.00000000000E+00  0.00000000000E+00  0.13139068266E+04  0.13139068266E+04  0.00000000000E+00 0.  1.
         21   -1    0    0  501  502  0.00000000000E+00 -0.00000000000E+00 -0.12883899403E+03  0.12883899403E+03  0.00000000000E+00 0.  1.
         25    1    1    2    0    0  0.29867342207E+03  0.17647922414E+03  0.25028738738E+03  0.44566748354E+03  0.12500000000E+03 0.  0.
          1    1    1    2  501    0 -0.29867342207E+03 -0.17647922414E+03  0.93478044518E+03  0.99707833709E+03  0.00000000000E+00 0.  1.
<mgrwt>
<rscale>  3 0.36874887E+03</rscale>
<asrwt>0</asrwt>
<pdfrwt beam="1">  1       21 0.19821385E-01 0.36874887E+03</pdfrwt>
<pdfrwt beam="2">  1        1 0.20213950E+00 0.36874887E+03</pdfrwt>
<totfact> 0.23804493E+03</totfact>
</mgrwt>
</event>
<event>
 4    0  0.1002184E-001  0.2403128E+03  0.7546771E-02  0.1119585E+00
         21   -1    0    0  501  502  0.00000000000E+00  0.00000000000E+00  0.15890744240E+04  0.15890744240E+04  0.00000000000E+00 0.  1.
         -1   -1    0    0    0  501 -0.00000000000E+00 -0.00000000000E+00 -0.10145451276E+03  0.10145451276E+03  0.00000000000E+00 0.  1.
         25    1    1    2    0    0  0.93423173707E+02 -0.18274944915E+03  0.14643865162E+04  0.14839737597E+04  0.12500000000E+03 0.  0.
         -1    1    1    2    0  502 -0.93423173707E+02  0.18274944915E+03  0.23233395071E+02  0.20655517712E+03  0.00000000000E+00 0.  1.
<mgrwt>
<rscale>  3 0.24031282E+03</rscale>
<asrwt>0</asrwt>
<pdfrwt beam="1">  1       21 0.24447297E+00 0.24031282E+03</pdfrwt>
<pdfrwt beam="2">  1       -1 0.15608388E-01 0.24031282E+03</pdfrwt>
<totfact> 0.18759870E+02</totfact>
</mgrwt>
</event>
<event>
 4    0  0.1488261E-001  0.2638751E+03  0.7546771E-02  0.1104837E+00
         21   -1    0    0  501  502  0.00000000000E+00  0.00000000000E+00  0.17217849408E+03  0.17217849408E+03  0.00000000000E+00 0. -1.
          3   -1    0    0  502    0 -0.00000000000E+00 -0.00000000000E+00 -0.41630908978E+03  0.41630908978E+03  0.00000000000E+00 0. -1.
         25    1    1    2    0    0 -0.23078727359E+03  0.27244850042E+02 -0.18404014574E+02  0.26451607750E+03  0.12500000000E+03 0.  0.
          3    1    1    2  501    0  0.23078727359E+03 -0.27244850042E+02 -0.22572658112E+03  0.32397150635E+03  0.00000000000E+00 0. -1.
<mgrwt>
<rscale>  3 0.26387506E+03</rscale>
<asrwt>0</asrwt>
<pdfrwt beam="1">  1       21 0.26488999E-01 0.26387506E+03</pdfrwt>
<pdfrwt beam="2">  1        3 0.64047552E-01 0.26387506E+03</pdfrwt>
<totfact> 0.16038792E+03</totfact>
</mgrwt>
</event>
<event>
 4    0  0.1146256E-001  0.2580689E+03  0.7546771E-02  0.1108309E+00
          1   -1    0    0  502    0 -0.00000000000E+00  0.00000000000E+00  0.75479182923E+03  0.75479182923E+03  0.00000000000E+00 0.  1.
         21   -1    0    0  501  502  0.00000000000E+00 -0.00000000000E+00 -0.14267577814E+03  0.14267577814E+03  0.00000000000E+00 0. -1.
         25    1    1    2    0    0  0.52649523891E+02 -0.21955084190E+03  0.14330175879E+02  0.25846643590E+03  0.12500000000E+03 0.  0.
          1    1    1    2  501    0 -0.52649523891E+02  0.21955084190E+03  0.59778587521E+03  0.63900117148E+03  0.00000000000E+00 0.  1.
<mgrwt>
<rscale>  3 0.25806888E+03</rscale>
<asrwt>0</asrwt>
<pdfrwt beam="1">  1       21 0.21950120E-01 0.25806888E+03</pdfrwt>
<pdfrwt beam="2">  1        1 0.11612182E+00 0.25806888E+03</pdfrwt>
<totfact> 0.53413173E+03</totfact>
</mgrwt>
</event>
<event>
 4    0  0.1002184E-001  0.2985648E+03  0.7546771E-02  0.1085960E+00
         -3   -1    0    0    0  501 -0.00000000000E+00  0.00000000000E+00  0.62111317321E+02  0.62111317321E+02  0.00000000000E+00 0.  1.
         21   -1    0    0  501  502  0.00000000000E+00 -0.00000000000E+00 -0.13086855679E+04  0.13086855679E+04  0.00000000000E+00 0. -1.
         25    1    1    2    0    0  0.11899664888E+03  0.24363030914E+03 -0.62444440213E+03  0.69215008584E+03  0.12500000000E+03 0.  0.
         -3    1    1    2    0  502 -0.11899664888E+03 -0.24363030914E+03 -0.62212984843E+03  0.67864679936E+03  0.00000000000E+00 0.  1.
<mgrwt>
<rscale>  3 0.29856478E+03</rscale>
<asrwt>0</asrwt>
<pdfrwt beam="1">  1       21 0.20133624E+00 0.29856478E+03</pdfrwt>
<pdfrwt beam="2">  1       -3 0.95555874E-02 0.29856478E+03</pdfrwt>
<totfact> 0.49745641E+02</totfact>
</mgrwt>
</event>
<event>
 4    0  0.1223821E-001  0.2595536E+03  0.7546771E-02  0.1107412E+00
          2   -1    0    0  502    0 -0.00000000000E+00  0.00000000000E+00  0.29695702938E+03  0.29695702938E+03  0.00000000000E+00 0. -1.
         21   -1    0    0  501  502  0.00000000000E+00 -0.00000000000E+00 -0.38223841031E+03  0.38223841031E+03  0.00000000000E+00 0. -1.
         25    1    1    2    0    0  0.17805957983E+03  0.14155517507E+03 -0.27853000935E+03  0.38071911912E+03  0.12500000000E+03 0.  0.
          2    1    1    2  501    0 -0.17805957983E+03 -0.14155517507E+03  0.19324862841E+03  0.29847632057E+03  0.00000000000E+00 0. -1.
<mgrwt>
<rscale>  3 0.25955362E+03</rscale>
<asrwt>0</asrwt>
<pdfrwt beam="1">  1       21 0.58805909E-01 0.25955362E+03</pdfrwt>
<pdfrwt beam="2">  1        2 0.45685697E-01 0.25955362E+03</pdfrwt>
<totfact> 0.36320885E+03</totfact>
</mgrwt>
</event>
<event>
 4    0  0.1405358E-001  0.2526173E+03  0.7546771E-02  0.1111662E+00
          2   -1    0    0  502    0 -0.00000000000E+00  0.00000000000E+00  0.19200606002E+04  0.19200606002E+04  0.00000000000E+00 0.  1.
         21   -1    0    0  501  502  0.00000000000E+00 -0.00000000000E+00 -0.57761117495E+02  0.57761117495E+02  0.00000000000E+00 0.  1.
         25    1    1    2    0    0  0.16510158411E+03 -0.14467879371E+03  0.26728952101E+03  0.36777598408E+03  0.12500000000E+03 0.  0.
          2    1    1    2  501    0 -0.16510158411E+03  0.14467879371E+03  0.15950099617E+04  0.16100457337E+04  0.00000000000E+00 0.  1.
<mgrwt>
<rscale>  3 0.25261727E+03</rscale>
<asrwt>0</asrwt>
<pdfrwt beam="1">  1       21 0.88863272E-02 0.25261727E+03</pdfrwt>
<pdfrwt beam="2">  1        2 0.29539389E+00 0.25261727E+03</pdfrwt>
<totfact> 0.10354483E+04</totfact>
</mgrwt>
</event>
<event>
 4    0  0.1367542E-001  0.2360657E+03  0.7546771E-02  0.1122442E+00
          2   -1    0    0  502    0 -0.00000000000E+00  0.00000000000E+00  0.15376761177E+04  0.15376761177E+04  0.00000000000E+00 0.  1.
         21   -1    0    0  501  502  0.00000000000E+00 -0.00000000000E+00 -0.11767321496E+03  0.11767321496E+03  0.00000000000E+00 0.  1.
         25    1    1    2    0    0 -0.63637283468E+02 -0.18987449957E+03  0.15426482986E+02  0.23656924105E+03  0.12500000000E+03 0.  0.
          2    1    1    2  501    0  0.63637283468E+02  0.18987449957E+03  0.14045764197E+04  0.14187800916E+04  0.00000000000E+00 0.  1.
<mgrwt>
<rscale>  3 0.23606573E+03</rscale>
<asrwt>0</asrwt>
<pdfrwt beam="1">  1       21 0.18103573E-01 0.23606573E+03</pdfrwt>
<pdfrwt beam="2">  1        2 0.23656554E+00 0.23606573E+03</pdfrwt>
<totfact> 0.45696067E+03</totfact>
</mgrwt>
</event>
<event>
 4    0  0.1277977E-001  0.3927394E+03  0.7546771E-02  0.1046323E+00
         21   -1    0    0  501  502  0.00000000000E+00  0.00000000000E+00  0.11925244059E+04  0.11925244059E+04  0.00000000000E+00 0. -1.
          2   -1    0    0  502    0 -0.00000000000E+00 -0.00000000000E+00 -0.72060173040E+03  0.72060173040E+03  0.00000000000E+00 0. -1.
         25    1    1    2    0    0 -0.37077509183E+03  0.33839136285E+02  0.11083045615E+04  0.11758330056E+04  0.12500000000E+03 0.  0.
          2    1    1    2  501    0  0.37077509183E+03 -0.33839136285E+02 -0.63638188599E+03  0.73729313077E+03  0.00000000000E+00 0. -1.
<mgrwt>
<rscale>  3 0.39273942E+03</rscale>
<asrwt>0</asrwt>
<pdfrwt beam="1">  1       21 0.18346529E+00 0.39273942E+03</pdfrwt>
<pdfrwt beam="2">  1        2 0.11086180E+00 0.39273942E+03</pdfrwt>
<totfact> 0.76883028E+01</totfact>
</mgrwt>
</event>
<event>
 4    0  0.1159217E-001  0.2887332E+03  0.7546771E-02  0.1091012E+00
         21   -1    0    0  501  502  0.00000000000E+00  0.00000000000E+00  0.12532604332E+03  0.12532604332E+03  0.00000000000E+00 0. -1.
          2   -1    0    0  502    0 -0.00000000000E+00 -0.00000000000E+00 -0.30782423572E+04  0.30782423572E+04  0.00000000000E+00 0. -1.
         25    1    1    2    0    0 -0.20268439352E+03 -0.16328164597E+03 -0.54922604817E+02  0.29391044861E+03  0.12500000000E+03 0.  0.
          2    1    1    2  501    0  0.20268439352E+03  0.16328164597E+03 -0.28979937091E+04  0.29096579519E+04  0.00000000000E+00 0. -1.
<mgrwt>
<rscale>  3 0.28873320E+03</rscale>
<asrwt>0</asrwt>
<pdfrwt beam="1">  1       21 0.19280930E-01 0.28873320E+03</pdfrwt>
<pdfrwt beam="2">  1        2 0.47357574E+00 0.28873320E+03</pdfrwt>
<totfact> 0.57009866E+02</totfact>
</mgrwt>
</event>
<event>
 4    0  0.1361551E-001  0.3241488E+03  0.7546771E-02  0.1073756E+00
         21   -1    0    0  501  502  0.00000000000E+00  0.00000000000E+00  0.15985947089E+03  0.15985947089E+03  0.00000000000E+00 0.  1.
          1   -1    0    0  502    0 -0.00000000000E+00 -0.00000000000E+00 -0.10580669849E+04  0.10580669849E+04  0.00000000000E+00 0.  1.
         25    1    1    2    0    0  0.15204992755E+03 -0.25754279890E+03 -0.85671093657E+03  0.91598368029E+03  0.12500000000E+03 0.  0.
          1    1    1    2  501    0 -0.15204992755E+03  0.25754279890E+03 -0.41496577434E+02  0.30194277549E+03  0.00000000000E+00 0.  1.
<mgrwt>
<rscale>  3 0.32414885E+03</rscale>
<asrwt>0</asrwt>
<pdfrwt beam="1">  1       21 0.24593765E-01 0.32414885E+03</pdfrwt>
<pdfrwt beam="2">  1        1 0.16277954E+00 0.32414885E+03</pdfrwt>
<totfact> 0.24259378E+03</totfact>
</mgrwt>
</event>
<event>
 4    0  0.1686818E-001  0.3608701E+03  0.7546771E-02  0.1058240E+00
         21   -1    0    0  501  502  0.00000000000E+00  0.00000000000E+00  0.32515598402E+03  0.32515598402E+03  0.00000000000E+00 0.  1.
          1   -1    0    0  502    0 -0.00000000000E+00 -0.00000000000E+00 -0.10653665046E+04  0.10653665046E+04  0.00000000000E+00 0. -1.
         25    1    1    2    0    0 -0.16178258451E+03 -0.29736946193E+03  0.18485421365E+03  0.40546057989E+03  0.12500000000E+03 0.  0.
          1    1    1    2  501    0  0.16178258451E+03  0.29736946193E+03 -0.92506473425E+03  0.98506190876E+03  0.00000000000E+00 0. -1.
<mgrwt>
<rscale>  3 0.36087006E+03</rscale>
<asrwt>0</asrwt>
<pdfrwt beam="1">  1       21 0.50023997E-01 0.36087006E+03</pdfrwt>
<pdfrwt beam="2">  1        1 0.16390254E+00 0.36087006E+03</pdfrwt>
<totfact> 0.56586573E+02</totfact>
</mgrwt>
</event>
<event>
 4    0  0.1903976E-001  0.2649899E+03  0.7546771E-02  0.1104182E+00
         -3   -1    0    0    0  501 -0.00000000000E+00  0.00000000000E+00  0.89245542960E+03  0.89245542960E+03  0.00000000000E+00 0.  1.
         21   -1    0    0  501  502  0.00000000000E+00 -0.00000000000E+00 -0.92477320155E+02  0.92477320155E+02  0.00000000000E+00 0.  1.
         25    1    1    2    0    0  0.21512694482E+03 -0.91186838422E+02  0.17462442962E+03  0.31735364077E+03  0.12500000000E+03 0.  0.
         -3    1    1    2    0  502 -0.21512694482E+03  0.91186838422E+02  0.62535367982E+03  0.66757910898E+03  0.00000000000E+00 0.  1.
<mgrwt>
<rscale>  3 0.26498989E+03</rscale>
<asrwt>0</asrwt>
<pdfrwt beam="1">  1       21 0.14227281E-01 0.26498989E+03</pdfrwt>
<pdfrwt beam="2">  1       -3 0.13730083E+00 0.26498989E+03</pdfrwt>
<totfact> 0.90583091E+02</totfact>
</mgrwt>
</event>
<event>
 4    0  0.1360007E-001  0.3178901E+03  0.7546771E-02  0.1076624E+00
          2   -1    0    0  502    0 -0.00000000000E+00  0.00000000000E+00  0.49008715261E+03  0.49008715261E+03  0.00000000000E+00 0. -1.
         21   -1    0    0  501  502  0.00000000000E+00 -0.00000000000E+00 -0.45208361463E+03  0.45208361463E+03  0.00000000000E+00 0.  1.
         25    1    1    2    0    0  0.24522291151E+03 -0.15904356871E+03 -0.33926722734E+03  0.46492621417E+03  0.12500000000E+03 0.  0.
          2    1    1    2  501    0 -0.24522291151E+03  0.15904356871E+03  0.37727076531E+03  0.47724455307E+03  0.00000000000E+00 0. -1.
<mgrwt>
<rscale>  3 0.31789013E+03</rscale>
<asrwt>0</asrwt>
<pdfrwt beam="1">  1       21 0.69551325E-01 0.31789013E+03</pdfrwt>
<pdfrwt beam="2">  1        2 0.75398024E-01 0.31789013E+03</pdfrwt>
<totfact> 0.14269251E+03</totfact>
</mgrwt>
</event>
<event>
 4    0  0.1002184E-001  0.2751542E+03  0.7546771E-02  0.1098365E+00
         21   -1    0    0  501  502  0.00000000000E+00  0.00000000000E+00  0.26385100478E+03  0.26385100478E+03  0.00000000000E+00 0. -1.
          2   -1    0    0  502    0 -0.00000000000E+00 -0.00000000000E+00 -0.32771747361E+04  0.32771747361E+04  0.00000000000E+00 0.  1.
         25    1    1    2    0    0  0.23967004960E+03  0.51411045427E+02  0.18612990785E+03  0.33219598261E+03  0.12500000000E+03 0.  0.
          2    1    1    2  501    0 -0.23967004960E+03 -0.51411045427E+02 -0.31994536392E+04  0.32088297583E+04  0.00000000000E+00 0.  1.
<mgrwt>
<rscale>  3 0.27515419E+03</rscale>
<asrwt>0</asrwt>
<pdfrwt beam="1">  1       21 0.40592468E-01 0.27515419E+03</pdfrwt>
<pdfrwt beam="2">  1        2 0.50418066E+00 0.27515419E+03</pdfrwt>
<totfact> 0.10134844E+02</totfact>
</mgrwt>
</event>
<event>
 4    0  0.1339052E-001  0.5346152E+03  0.7546771E-02  0.1005119E+00
         21   -1    0    0  501  502  0.00000000000E+00  0.00000000000E+00  0.11643299248E+04  0.11643299248E+04  0.00000000000E+00 0. -1.
         -3   -1    0    0    0  501 -0.00000000000E+00 -0.00000000000E+00 -0.67300434596E+03  0.67300434596E+03  0.00000000000E+00 0. -1.
         25    1    1    2    0    0  0.28969742632E+03  0.43158296295E+03  0.98482956867E+03  0.11205814259E+04  0.12500000000E+03 0.  0.
         -3    1    1    2    0  502 -0.28969742632E+03 -0.43158296295E+03 -0.49350398980E+03  0.71675284490E+03  0.00000000000E+00 0. -1.
<mgrwt>
<rscale>  3 0.53461524E+03</rscale>
<asrwt>0</asrwt>
<pdfrwt beam="1">  1       21 0.17912768E+00 0.53461524E+03</pdfrwt>
<pdfrwt beam="2">  1       -3 0.10353913E+00 0.53461524E+03</pdfrwt>
<totfact> 0.64883506E+00</totfact>
</mgrwt>
</event>
<event>
 4    0  0.1437516E-001  0.2416633E+03  0.7546771E-02  0.1118690E+00
          2   -1    0    0  502    0 -0.00000000000E+00  0.00000000000E+00  0.66777526894E+03  0.66777526894E+03  0.00000000000E+00 0. -1.
         21   -1    0    0  501  502  0.00000000000E+00 -0.00000000000E+00 -0.81020751172E+02  0.81020751172E+02  0.00000000000E+00 0. -1.
         25    1    1    2    0    0 -0.19074308080E+03  0.79957550468E+02  0.21537450927E+03  0.32370868384E+03  0.12500000000E+03 0.  0.
          2    1    1    2  501    0  0.19074308080E+03 -0.79957550468E+02  0.37138000850E+03  0.42508733627E+03  0.00000000000E+00 0. -1.
<mgrwt>
<rscale>  3 0.24166326E+03</rscale>
<asrwt>0</asrwt>
<pdfrwt beam="1">  1       21 0.12464731E-01 0.24166326E+03</pdfrwt>
<pdfrwt beam="2">  1        2 0.10273465E+00 0.24166326E+03</pdfrwt>
<totfact> 0.30482383E+04</totfact>
</mgrwt>
</event>
<event>
 4    0  0.1605638E-001  0.2368114E+03  0.7546771E-02  0.1121935E+00
         -1   -1    0    0    0  501 -0.00000000000E+00  0.00000000000E+00  0.63923929753E+03  0.63923929753E+03  0.00000000000E+00 0.  1.
         21   -1    0    0  501  502  0.00000000000E+00 -0.00000000000E+00 -0.82731952837E+02  0.82731952837E+02  0.00000000000E+00 0.  1.
         25    1    1    2    0    0 -0.23738004000E+02 -0.19972772946E+03  0.18884878502E+03  0.30289193181E+03  0.12500000000E+03 0.  0.
         -1    1    1    2    0  502  0.23738004000E+02  0.19972772946E+03  0.36765855967E+03  0.41907931856E+03  0.00000000000E+00 0.  1.
<mgrwt>
<rscale>  3 0.23681144E+03</rscale>
<asrwt>0</asrwt>
<pdfrwt beam="1">  1       21 0.12727993E-01 0.23681144E+03</pdfrwt>
<pdfrwt beam="2">  1       -1 0.98344504E-01 0.23681144E+03</pdfrwt>
<totfact> 0.51384162E+03</totfact>
</mgrwt>
</event>
<event>
 4    0  0.1224143E-001  0.2397428E+03  0.7546771E-02  0.1119964E+00
         -2   -1    0    0    0  501 -0.00000000000E+00  0.00000000000E+00  0.91036480721E+03  0.91036480721E+03  0.00000000000E+00 0. -1.
         21   -1    0    0  501  502  0.00000000000E+00 -0.00000000000E+00 -0.22040593989E+03  0.22040593989E+03  0.00000000000E+00 0.  1.
         25    1    1    2    0    0 -0.18715855572E+03 -0.82603241065E+02 -0.13887613791E+03  0.27706172975E+03  0.12500000000E+03 0.  0.
         -2    1    1    2    0  502  0.18715855572E+03  0.82603241065E+02  0.82883500523E+03  0.85370901735E+03  0.00000000000E+00 0. -1.
<mgrwt>
<rscale>  3 0.23974282E+03</rscale>
<asrwt>0</asrwt>
<pdfrwt beam="1">  1       21 0.33908607E-01 0.23974282E+03</pdfrwt>
<pdfrwt beam="2">  1       -2 0.14005612E+00 0.23974282E+03</pdfrwt>
<totfact> 0.25662087E+02</totfact>
</mgrwt>
</event>
<event>
 4    0  0.1396248E-001  0.2555355E+03  0.7546771E-02  0.1109856E+00
          2   -1    0    0  502    0 -0.00000000000E+00  0.00000000000E+00  0.15494319876E+04  0.15494319876E+04  0.00000000000E+00 0. -1.
         21   -1    0    0  501  502  0.00000000000E+00 -0.00000000000E+00 -0.12257232913E+04  0.12257232913E+04  0.00000000000E+00 0.  1.
         25    1    1    2    0    0 -0.59239120675E+02 -0.21485837044E+03 -0.12042317935E+04  0.12310453303E+04  0.12500000000E+03 0.  0.
          2    1    1    2  501    0  0.59239120675E+02  0.21485837044E+03  0.15279404898E+04  0.15441099485E+04  0.00000000000E+00 0. -1.
<mgrwt>
<rscale>  3 0.25553550E+03</rscale>
<asrwt>0</asrwt>
<pdfrwt beam="1">  1       21 0.18857281E+00 0.25553550E+03</pdfrwt>
<pdfrwt beam="2">  1        2 0.23837415E+00 0.25553550E+03</pdfrwt>
<totfact> 0.24596496E+01</totfact>
</mgrwt>
</event>
<event>
 4    0  0.1002184E-001  0.2645588E+03  0.7546771E-02  0.1104435E+00
          1   -1    0    0  502    0 -0.00000000000E+00  0.00000000000E+00  0.10918711357E+03  0.10918711357E+03  0.00000000000E+00 0.  1.
         21   -1    0    0  501  502  0.00000000000E+00 -0.00000000000E+00 -0.93875100420E+03  0.93875100420E+03  0.00000000000E+00 0. -1.
         25    1    1    2    0    0  0.15592474146E+03 -0.17336044759E+03 -0.75982631807E+03  0.80456659353E+03  0.12500000000E+03 0.  0.
          1    1    1    2  501    0 -0.15592474146E+03  0.17336044759E+03 -0.69737572561E+02  0.24337152425E+03  0.00000000000E+00 0.  1.
<mgrwt>
<rscale>  3 0.26455882E+03</rscale>
<asrwt>0</asrwt>
<pdfrwt beam="1">  1       21 0.14442323E+00 0.26455882E+03</pdfrwt>
<pdfrwt beam="2">  1        1 0.16798017E-01 0.26455882E+03</pdfrwt>
<totfact> 0.10990827E+03</totfact>
</mgrwt>
</event>
<event>
 4    0  0.1337726E-001  0.2921315E+03  0.7546771E-02  0.1089242E+00
         21   -1    0    0  501  502  0.00000000000E+00  0.00000000000E+00  0.33933523751E+03  0.33933523751E+03  0.00000000000E+00 0. -1.
          3   -1    0    0  502    0 -0.00000000000E+00 -0.00000000000E+00 -0.28525372058E+03  0.28525372058E+03  0.00000000000E+00 0. -1.
         25    1    1    2    0    0  0.59370035370E+02 -0.25727610003E+03  0.16803456009E+03  0.33701098815E+03  0.12500000000E+03 0.  0.
          3    1    1    2  501    0 -0.59370035370E+02  0.25727610003E+03 -0.11395304317E+03  0.28757796994E+03  0.00000000000E+00 0. -1.
<mgrwt>
<rscale>  3 0.29213146E+03</rscale>
<asrwt>0</asrwt>
<pdfrwt beam="1">  1       21 0.52205421E-01 0.29213146E+03</pdfrwt>
<pdfrwt beam="2">  1        3 0.43885188E-01 0.29213146E+03</pdfrwt>
<totfact> 0.87940803E+02</totfact>
</mgrwt>
</event>
<event>
 4    0  0.1544850E-001  0.2981923E+03  0.7546771E-02  0.1086148E+00
          2   -1    0    0  502    0 -0.00000000000E+00  0.00000000000E+00  0.69074723362E+03  0.69074723362E+03  0.00000000000E+00 0.  1.
         21   -1    0    0  501  502  0.00000000000E+00 -0.00000000000E+00 -0.23280095748E+03  0.23280095748E+03  0.00000000000E+00 0.  1.
         25    1    1    2    0    0 -0.20070859837E+03 -0.18168571491E+03 -0.90751540633E+02  0.31169613823E+03  0.12500000000E+03 0.  0.
          2    1    1    2  501    0  0.20070859837E+03  0.18168571491E+03  0.54869781678E+03  0.61185205287E+03  0.00000000000E+00 0.  1.
<mgrwt>
<rscale>  3 0.29819229E+03</rscale>
<asrwt>0</asrwt>
<pdfrwt beam="1">  1       21 0.35815532E-01 0.29819229E+03</pdfrwt>
<pdfrwt beam="2">  1        2 0.10626880E+00 0.29819229E+03</pdfrwt>
<totfact> 0.39065679E+03</totfact>
</mgrwt>
</event>
<event>
 4    0  0.1204301E-001  0.2434062E+03  0.7546771E-02  0.1117544E+00
          2   -1    0    0  502    0 -0.00000000000E+00  0.00000000000E+00  0.36797183445E+03  0.36797183445E+03  0.00000000000E+00 0.  1.
         21   -1    0    0  501  502  0.00000000000E+00 -0.00000000000E+00 -0.21856993630E+03  0.21856993630E+03  0.00000000000E+00 0.  1.
         25    1    1    2    0    0 -0.80846435051E+02  0.19257583265E+03 -0.98328782017E+02  0.26251694565E+03  0.12500000000E+03 0.  0.
          2    1    1    2  501    0  0.80846435051E+02 -0.19257583265E+03  0.24773068017E+03  0.32402482510E+03  0.00000000000E+00 0.  1.
<mgrwt>
<rscale>  3 0.24340624E+03</rscale>
<asrwt>0</asrwt>
<pdfrwt beam="1">  1       21 0.33626144E-01 0.24340624E+03</pdfrwt>
<pdfrwt beam="2">  1        2 0.56611052E-01 0.24340624E+03</pdfrwt>
<totfact> 0.91724720E+03</totfact>
</mgrwt>
</event>
<event>
 4    0  0.1002184E-001  0.3157044E+03  0.7546771E-02  0.1077643E+00
         21   -1    0    0  501  502  0.00000000000E+00  0.00000000000E+00  0.66716103285E+02  0.66716103285E+02  0.00000000000E+00 0. -1.
          2   -1    0    0  502    0 -0.00000000000E+00 -0.00000000000E+00 -0.15981613985E+04  0.15981613985E+04  0.00000000000E+00 0.  1.
         25    1    1    2    0    0  0.24831576852E+03 -0.14961137847E+03 -0.48249150251E+03  0.57659980529E+03  0.12500000000E+03 0.  0.
          2    1    1    2  501    0 -0.24831576852E+03  0.14961137847E+03 -0.10489537927E+04  0.10882776965E+04  0.00000000000E+00 0.  1.
<mgrwt>
<rscale>  3 0.31570443E+03</rscale>
<asrwt>0</asrwt>
<pdfrwt beam="1">  1       21 0.10264015E-01 0.31570443E+03</pdfrwt>
<pdfrwt beam="2">  1        2 0.24587100E+00 0.31570443E+03</pdfrwt>
<totfact> 0.11646077E+04</totfact>
</mgrwt>
</event>
<event>
 4    0  0.1002184E-001  0.5089221E+03  0.7546771E-02  0.1011476E+00
         -3   -1    0    0    0  501 -0.00000000000E+00  0.00000000000E+00  0.15652321011E+04  0.15652321011E+04  0.00000000000E+00 0.  1.
         21   -1    0    0  501  502  0.00000000000E+00 -0.00000000000E+00 -0.19606679770E+03  0.19606679770E+03  0.00000000000E+00 0. -1.
         25    1    1    2    0    0 -0.47736887723E+02  0.49101715652E+03  0.31794631831E+03  0.60007626163E+03  0.12500000000E+03 0.  0.
         -3    1    1    2    0  502  0.47736887723E+02 -0.49101715652E+03  0.10512189851E+04  0.11612226372E+04  0.00000000000E+00 0.  1.
<mgrwt>
<rscale>  3 0.50892206E+03</rscale>
<asrwt>0</asrwt>
<pdfrwt beam="1">  1       21 0.30164124E-01 0.50892206E+03</pdfrwt>
<pdfrwt beam="2">  1       -3 0.24080493E+00 0.50892206E+03</pdfrwt>
<totfact> 0.43980509E+01</totfact>
</mgrwt>
</event>
<event>
 4    0  0.1258760E-001  0.2368659E+03  0.7546771E-02  0.1121898E+00
          2   -1    0    0  502    0 -0.00000000000E+00  0.00000000000E+00  0.25821282361E+04  0.25821282361E+04  0.00000000000E+00 0.  1.
         21   -1    0    0  501  502  0.00000000000E+00 -0.00000000000E+00 -0.18747652481E+02  0.18747652481E+02  0.00000000000E+00 0.  1.
         25    1    1    2    0    0 -0.18837029349E+03  0.70689988082E+02  0.15078349491E+04  0.15263262023E+04  0.12500000000E+03 0.  0.
          2    1    1    2  501    0  0.18837029349E+03 -0.70689988082E+02  0.10555456345E+04  0.10745496863E+04  0.00000000000E+00 0.  1.
<mgrwt>
<rscale>  3 0.23686587E+03</rscale>
<asrwt>0</asrwt>
<pdfrwt beam="1">  1       21 0.28842563E-02 0.23686587E+03</pdfrwt>
<pdfrwt beam="2">  1        2 0.39725022E+00 0.23686587E+03</pdfrwt>
<totfact> 0.31480961E+04</totfact>
</mgrwt>
</event>
<event>
 4    0  0.1002184E-001  0.4063955E+03  0.7546771E-02  0.1041587E+00
         21   -1    0    0  501  502  0.00000000000E+00  0.00000000000E+00  0.30460960137E+03  0.30460960137E+03  0.00000000000E+00 0. -1.
          2   -1    0    0  502    0 -0.00000000000E+00 -0.00000000000E+00 -0.26548707712E+04  0.26548707712E+04  0.00000000000E+00 0. -1.
         25    1    1    2    0    0  0.14611609019E+02 -0.38641794732E+03  0.14722022083E+03  0.43223965869E+03  0.12500000000E+03 0.  0.
          2    1    1    2  501    0 -0.14611609019E+02  0.38641794732E+03 -0.24974813906E+04  0.25272407138E+04  0.00000000000E+00 0. -1.
<mgrwt>
<rscale>  3 0.40639553E+03</rscale>
<asrwt>0</asrwt>
<pdfrwt beam="1">  1       21 0.46863014E-01 0.40639553E+03</pdfrwt>
<pdfrwt beam="2">  1        2 0.40844167E+00 0.40639553E+03</pdfrwt>
<totfact> 0.16344816E+02</totfact>
</mgrwt>
</event>
<event>
 4    0  0.1002184E-001  0.2999312E+03  0.7546771E-02  0.1085275E+00
         21   -1    0    0  501  502  0.00000000000E+00  0.00000000000E+00  0.22206609955E+03  0.22206609955E+03  0.00000000000E+00 0. -1.
          2   -1    0    0  502    0 -0.00000000000E+00 -0.00000000000E+00 -0.44216049755E+03  0.44216049755E+03  0.00000000000E+00 0.  1.
         25    1    1    2    0    0  0.73569116568E+02 -0.26252870477E+03  0.20466785874E+02  0.30062871630E+03  0.12500000000E+03 0.  0.
          2    1    1    2  501    0 -0.73569116568E+02  0.26252870477E+03 -0.24056118388E+03  0.36359788081E+03  0.00000000000E+00 0.  1.
<mgrwt>
<rscale>  3 0.29993122E+03</rscale>
<asrwt>0</asrwt>
<pdfrwt beam="1">  1       21 0.34164015E-01 0.29993122E+03</pdfrwt>
<pdfrwt beam="2">  1        2 0.68024692E-01 0.29993122E+03</pdfrwt>
<totfact> 0.71862876E+03</totfact>
</mgrwt>
</event>
<event>
 4    0  0.1702820E-001  0.2518861E+03  0.7546771E-02  0.1112119E+00
         -2   -1    0    0    0  501 -0.00000000000E+00  0.00000000000E+00  0.28351668638E+03  0.28351668638E+03  0.00000000000E+00 0.  1.
         21   -1    0    0  501  502  0.00000000000E+00 -0.00000000000E+00 -0.19621740283E+03  0.19621740283E+03  0.00000000000E+00 0.  1.
         25    1    1    2    0    0 -0.51703331384E+02 -0.21248143327E+03  0.29969901609E+02  0.25366274650E+03  0.12500000000E+03 0.  0.
         -2    1    1    2    0  502  0.51703331384E+02  0.21248143327E+03  0.57329381944E+02  0.22607134271E+03  0.00000000000E+00 0.  1.
<mgrwt>
<rscale>  3 0.25188607E+03</rscale>
<asrwt>0</asrwt>
<pdfrwt beam="1">  1       21 0.30187293E-01 0.25188607E+03</pdfrwt>
<pdfrwt beam="2">  1       -2 0.43617952E-01 0.25188607E+03</pdfrwt>
<totfact> 0.42430589E+03</totfact>
</mgrwt>
</event>
<event>
 4    0  0.1189171E-001  0.4662099E+03  0.7546771E-02  0.1022995E+00
         21   -1    0    0  501  502  0.00000000000E+00  0.00000000000E+00  0.13590439865E+03  0.13590439865E+03  0.00000000000E+00 0. -1.
          2   -1    0    0  502    0 -0.00000000000E+00 -0.00000000000E+00 -0.19331265793E+04  0.19331265793E+04  0.00000000000E+00 0. -1.
         25    1    1    2    0    0 -0.24387203721E+03 -0.37716457902E+03 -0.44627205561E+03  0.64537619868E+03  0.12500000000E+03 0.  0.
          2    1    1    2  501    0  0.24387203721E+03  0.37716457902E+03 -0.13509501251E+04  0.14236547793E+04  0.00000000000E+00 0. -1.
<mgrwt>
<rscale>  3 0.46620992E+03</rscale>
<asrwt>0</asrwt>
<pdfrwt beam="1">  1       21 0.20908370E-01 0.46620992E+03</pdfrwt>
<pdfrwt beam="2">  1        2 0.29740407E+00 0.46620992E+03</pdfrwt>
<totfact> 0.19972008E+03</totfact>
</mgrwt>
</event>
<event>
 4    0  0.1265084E-001  0.3244565E+03  0.7546771E-02  0.1073616E+00
          2   -1    0    0  502    0 -0.00000000000E+00  0.00000000000E+00  0.84918935973E+03  0.84918935973E+03  0.00000000000E+00 0.  1.
         21   -1    0    0  501  502  0.00000000000E+00 -0.00000000000E+00 -0.18851665553E+03  0.18851665553E+03  0.00000000000E+00 0. -1.
         25    1    1    2    0    0 -0.29918889032E+03 -0.11534466452E+02  0.13625616720E+02  0.32474250328E+03  0.12500000000E+03 0.  0.
          2    1    1    2  501    0  0.29918889032E+03  0.11534466452E+02  0.64704708748E+03  0.71296351199E+03  0.00000000000E+00 0.  1.
<mgrwt>
<rscale>  3 0.32445652E+03</rscale>
<asrwt>0</asrwt>
<pdfrwt beam="1">  1       21 0.29002563E-01 0.32445652E+03</pdfrwt>
<pdfrwt beam="2">  1        2 0.13064451E+00 0.32445652E+03</pdfrwt>
<totfact> 0.45454679E+03</totfact>
</mgrwt>
</event>
<event>
 4    0  0.1002184E-001  0.2441962E+03  0.7546771E-02  0.1117029E+00
         21   -1    0    0  501  502  0.00000000000E+00  0.00000000000E+00  0.20436313588E+03  0.20436313588E+03  0.00000000000E+00 0.  1.
         -3   -1    0    0    0  501 -0.00000000000E+00 -0.00000000000E+00 -0.25429208123E+03  0.25429208123E+03  0.00000000000E+00 0. -1.
         25    1    1    2    0    0 -0.20939489452E+03 -0.12672059280E+02 -0.56856555001E+01  0.24426241958E+03  0.12500000000E+03 0.  0.
         -3    1    1    2    0  502  0.20939489452E+03  0.12672059280E+02 -0.44243289845E+02  0.21439279753E+03  0.00000000000E+00 0. -1.
<mgrwt>
<rscale>  3 0.24419624E+03</rscale>
<asrwt>0</asrwt>
<pdfrwt beam="1">  1       21 0.31440482E-01 0.24419624E+03</pdfrwt>
<pdfrwt beam="2">  1       -3 0.39121859E-01 0.24419624E+03</pdfrwt>
<totfact> 0.31115625E+03</totfact>
</mgrwt>
</event>
<event>
 4    0  0.2029469E-001  0.2437474E+03  0.7546771E-02  0.1117321E+00
         21   -1    0    0  501  502  0.00000000000E+00  0.00000000000E+00  0.31756387698E+02  0.31756387698E+02  0.00000000000E+00 0.  1.
         -3   -1    0    0    0  501 -0.00000000000E+00 -0.00000000000E+00 -0.19911147188E+04  0.19911147188E+04  0.00000000000E+00 0.  1.
         25    1    1    2    0    0 -0.14400181571E+03  0.15182644540E+03 -0.60194361988E+03  0.64942198451E+03  0.12500000000E+03 0.  0.
         -3    1    1    2    0  502  0.14400181571E+03 -0.15182644540E+03 -0.13574147112E+04  0.13734491220E+04  0.00000000000E+00 0.  1.
<mgrwt>
<rscale>  3 0.24374739E+03</rscale>
<asrwt>0</asrwt>
<pdfrwt beam="1">  1       21 0.48855982E-02 0.24374739E+03</pdfrwt>
<pdfrwt beam="2">  1       -3 0.30632533E+00 0.24374739E+03</pdfrwt>
<totfact> 0.56385123E+02</totfact>
</mgrwt>
</event>
<event>
 4    0  0.1675055E-001  0.2533572E+03  0.7546771E-02  0.1111201E+00
         21   -1    0    0  501  502  0.00000000000E+00  0.00000000000E+00  0.22206116103E+02  0.22206116103E+02  0.00000000000E+00 0. -1.
          1   -1    0    0  502    0 -0.00000000000E+00 -0.00000000000E+00 -0.25470732177E+04  0.25470732177E+04  0.00000000000E+00 0. -1.
         25    1    1    2    0    0  0.21851384059E+03 -0.28575825003E+02 -0.12346534230E+04  0.12603804788E+04  0.12500000000E+03 0.  0.
          1    1    1    2  501    0 -0.21851384059E+03  0.28575825003E+02 -0.12902136785E+04  0.13088988550E+04  0.00000000000E+00 0. -1.
<mgrwt>
<rscale>  3 0.25335721E+03</rscale>
<asrwt>0</asrwt>
<pdfrwt beam="1">  1       21 0.34163250E-02 0.25335721E+03</pdfrwt>
<pdfrwt beam="2">  1        1 0.39185748E+00 0.25335721E+03</pdfrwt>
<totfact> 0.84782955E+03</totfact>
</mgrwt>
</event>
<event>
 4    0  0.1519494E-001  0.2827586E+03  0.7546771E-02  0.1094192E+00
         21   -1    0    0  501  502  0.00000000000E+00  0.00000000000E+00  0.34042525899E+02  0.34042525899E+02  0.00000000000E+00 0. -1.
          1   -1    0    0  502    0 -0.00000000000E+00 -0.00000000000E+00 -0.25878597208E+04  0.25878597208E+04  0.00000000000E+00 0. -1.
         25    1    1    2    0    0 -0.21758407108E+03  0.13032486320E+03 -0.77256897398E+03  0.82268780076E+03  0.12500000000E+03 0.  0.
          1    1    1    2  501    0  0.21758407108E+03 -0.13032486320E+03 -0.17812482210E+04  0.17992144460E+04  0.00000000000E+00 0. -1.
<mgrwt>
<rscale>  3 0.28275855E+03</rscale>
<asrwt>0</asrwt>
<pdfrwt beam="1">  1       21 0.52373106E-02 0.28275855E+03</pdfrwt>
<pdfrwt beam="2">  1        1 0.39813235E+00 0.28275855E+03</pdfrwt>
<totfact> 0.38211930E+03</totfact>
</mgrwt>
</event>
<event>
 4    0  0.1186750E-001  0.3174939E+03  0.7546771E-02  0.1076808E+00
         21   -1    0    0  501  502  0.00000000000E+00  0.00000000000E+00  0.20721476599E+03  0.20721476599E+03  0.00000000000E+00 0. -1.
         -3   -1    0    0    0  501 -0.00000000000E+00 -0.00000000000E+00 -0.10100547675E+04  0.10100547675E+04  0.00000000000E+00 0.  1.
         25    1    1    2    0    0  0.18416451198E+03  0.22640851740E+03  0.44941392422E+02  0.32065887322E+03  0.12500000000E+03 0.  0.
         -3    1    1    2    0  502 -0.18416451198E+03 -0.22640851740E+03 -0.84778139394E+03  0.89661066029E+03  0.00000000000E+00 0.  1.
<mgrwt>
<rscale>  3 0.31749391E+03</rscale>
<asrwt>0</asrwt>
<pdfrwt beam="1">  1       21 0.31879195E-01 0.31749391E+03</pdfrwt>
<pdfrwt beam="2">  1       -3 0.15539304E+00 0.31749391E+03</pdfrwt>
<totfact> 0.14192261E+02</totfact>
</mgrwt>
</event>
<event>
 4    0  0.1733928E-001  0.3063469E+03  0.7546771E-02  0.1082110E+00
          2   -1    0    0  502    0 -0.00000000000E+00  0.00000000000E+00  0.72280034113E+03  0.72280034113E+03  0.00000000000E+00 0. -1.
         21   -1    0    0  501  502  0.00000000000E+00 -0.00000000000E+00 -0.21336647244E+03  0.21336647244E+03  0.00000000000E+00 0. -1.
         25    1    1    2    0    0 -0.27534659854E+03 -0.49068040155E+02 -0.50298107027E+02  0.31044858103E+03  0.12500000000E+03 0.  0.
          2    1    1    2  501    0  0.27534659854E+03  0.49068040155E+02  0.55973197571E+03  0.62571823254E+03  0.00000000000E+00 0. -1.
<mgrwt>
<rscale>  3 0.30634690E+03</rscale>
<asrwt>0</asrwt>
<pdfrwt beam="1">  1       21 0.32825611E-01 0.30634690E+03</pdfrwt>
<pdfrwt beam="2">  1        2 0.11120005E+00 0.30634690E+03</pdfrwt>
<totfact> 0.43899943E+03</totfact>
</mgrwt>
</event>
<event>
 4    0  0.1273343E-001  0.2373942E+03  0.7546771E-02  0.1121541E+00
          2   -1    0    0  502    0 -0.00000000000E+00  0.00000000000E+00  0.17519875017E+04  0.17519875017E+04  0.00000000000E+00 0.  1.
         21   -1    0    0  501  502  0.00000000000E+00 -0.00000000000E+00 -0.71025508310E+02  0.71025508310E+02  0.00000000000E+00 0.  1.
         25    1    1    2    0    0 -0.61668154467E+02 -0.19216677115E+03  0.15444454187E+03  0.28321219205E+03  0.12500000000E+03 0.  0.
          2    1    1    2  501    0  0.61668154467E+02  0.19216677115E+03  0.15265174515E+04  0.15398008180E+04  0.00000000000E+00 0.  1.
<mgrwt>
<rscale>  3 0.23739425E+03</rscale>
<asrwt>0</asrwt>
<pdfrwt beam="1">  1       21 0.10927003E-01 0.23739425E+03</pdfrwt>
<pdfrwt beam="2">  1        2 0.26953651E+00 0.23739425E+03</pdfrwt>
<totfact> 0.88314936E+03</totfact>
</mgrwt>
</event>
<event>
 4    0  0.1002184E-001  0.2694558E+03  0.7546771E-02  0.1101591E+00
         21   -1    0    0  501  502  0.00000000000E+00  0.00000000000E+00  0.94456107489E+03  0.94456107489E+03  0.00000000000E+00 0. -1.
          1   -1    0    0  502    0 -0.00000000000E+00 -0.00000000000E+00 -0.11502187870E+03  0.11502187870E+03  0.00000000000E+00 0.  1.
         25    1    1    2    0    0 -0.80410803219E+02  0.22475659381E+03  0.76680279179E+03  0.81276869110E+03  0.12500000000E+03 0.  0.
          1    1    1    2  501    0  0.80410803219E+02 -0.22475659381E+03  0.62736404408E+02  0.24681426250E+03  0.00000000000E+00 0.  1.
<mgrwt>
<rscale>  3 0.26945579E+03</rscale>
<asrwt>0</asrwt>
<pdfrwt beam="1">  1       21 0.14531708E+00 0.26945579E+03</pdfrwt>
<pdfrwt beam="2">  1        1 0.17695674E-01 0.26945579E+03</pdfrwt>
<totfact> 0.10082328E+03</totfact>
</mgrwt>
</event>
<event>
 4    0  0.1530648E-001  0.2361622E+03  0.7546771E-02  0.1122376E+00
          1   -1    0    0  502    0 -0.00000000000E+00  0.00000000000E+00  0.12118051540E+04  0.12118051540E+04  0.00000000000E+00 0.  1.
         21   -1    0    0  501  502  0.00000000000E+00 -0.00000000000E+00 -0.13561302313E+03  0.13561302313E+03  0.00000000000E+00 0. -1.
         25    1    1    2    0    0  0.13299267345E+03 -0.14986840298E+03 -0.16280658124E+02  0.23672272648E+03  0.12500000000E+03 0.  0.
          1    1    1    2  501    0 -0.13299267345E+03  0.14986840298E+03  0.10924727890E+04  0.11106954507E+04  0.00000000000E+00 0.  1.
<mgrwt>
<rscale>  3 0.23616221E+03</rscale>
<asrwt>0</asrwt>
<pdfrwt beam="1">  1       21 0.20863543E-01 0.23616221E+03</pdfrwt>
<pdfrwt beam="2">  1        1 0.18643156E+00 0.23616221E+03</pdfrwt>
<totfact> 0.26546143E+03</totfact>
</mgrwt>
</event>
<event>
 4    0  0.1002184E-001  0.6148488E+03  0.7546771E-02  0.9875069E-01
         21   -1    0    0  501  502  0.00000000000E+00  0.00000000000E+00  0.41363588513E+03  0.41363588513E+03  0.00000000000E+00 0. -1.
          1   -1    0    0  502    0 -0.00000000000E+00 -0.00000000000E+00 -0.89497964470E+03  0.89497964470E+03  0.00000000000E+00 0.  1.
         25    1    1    2    0    0  0.36771862327E+03 -0.47665198672E+03 -0.24666496423E+03  0.66248223141E+03  0.12500000000E+03 0.  0.
          1    1    1    2  501    0 -0.36771862327E+03  0.47665198672E+03 -0.23467879534E+03  0.64613329842E+03  0.00000000000E+00 0.  1.
<mgrwt>
<rscale>  3 0.61484885E+03</rscale>
<asrwt>0</asrwt>
<pdfrwt beam="1">  1       21 0.63636291E-01 0.61484885E+03</pdfrwt>
<pdfrwt beam="2">  1        1 0.13768917E+00 0.61484885E+03</pdfrwt>
<totfact> 0.42518952E+02</totfact>
</mgrwt>
</event>
<event>
 4    0  0.1421194E-001  0.2386296E+03  0.7546771E-02  0.1120709E+00
         21   -1    0    0  501  502  0.00000000000E+00  0.00000000000E+00  0.11256800405E+03  0.11256800405E+03  0.00000000000E+00 0.  1.
          1   -1    0    0  502    0 -0.00000000000E+00 -0.00000000000E+00 -0.19919242461E+04  0.19919242461E+04  0.00000000000E+00 0.  1.
         25    1    1    2    0    0 -0.15151574552E+03  0.13550664654E+03 -0.26022104495E+02  0.24004420909E+03  0.12500000000E+03 0.  0.
          1    1    1    2  501    0  0.15151574552E+03 -0.13550664654E+03 -0.18533341376E+04  0.18644480411E+04  0.00000000000E+00 0.  1.
<mgrwt>
<rscale>  3 0.23862957E+03</rscale>
<asrwt>0</asrwt>
<pdfrwt beam="1">  1       21 0.17318156E-01 0.23862957E+03</pdfrwt>
<pdfrwt beam="2">  1        1 0.30644985E+00 0.23862957E+03</pdfrwt>
<totfact> 0.11470657E+03</totfact>
</mgrwt>
</event>
<event>
 4    0  0.1647496E-001  0.2949484E+03  0.7546771E-02  0.1087793E+00
          2   -1    0    0  502    0 -0.00000000000E+00  0.00000000000E+00  0.20696089582E+04  0.20696089582E+04  0.00000000000E+00 0. -1.
         21   -1    0    0  501  502  0.00000000000E+00 -0.00000000000E+00 -0.14617718442E+03  0.14617718442E+03  0.00000000000E+00 0.  1.
         25    1    1    2    0    0  0.24598783642E+03 -0.10420911298E+03  0.22097162176E+02  0.29577498115E+03  0.12500000000E+03 0.  0.
          2    1    1    2  501    0 -0.24598783642E+03  0.10420911298E+03  0.19013346116E+04  0.19200111615E+04  0.00000000000E+00 0. -1.
<mgrwt>
<rscale>  3 0.29494839E+03</rscale>
<asrwt>0</asrwt>
<pdfrwt beam="1">  1       21 0.22488799E-01 0.29494839E+03</pdfrwt>
<pdfrwt beam="2">  1        2 0.31840136E+00 0.29494839E+03</pdfrwt>
<totfact> 0.15541839E+03</totfact>
</mgrwt>
</event>
<event>
 4    0  0.1493137E-001  0.2465961E+03  0.7546771E-02  0.1115475E+00
         21   -1    0    0  501  502  0.00000000000E+00  0.00000000000E+00  0.83683260166E+02  0.83683260166E+02  0.00000000000E+00 0.  1.
          2   -1    0    0  502    0 -0.00000000000E+00 -0.00000000000E+00 -0.75425230354E+03  0.75425230354E+03  0.00000000000E+00 0.  1.
         25    1    1    2    0    0  0.73055585365E+02 -0.19961845451E+03 -0.18627133019E+03  0.30904150916E+03  0.12500000000E+03 0.  0.
          2    1    1    2  501    0 -0.73055585365E+02  0.19961845451E+03 -0.48429771318E+03  0.52889405454E+03  0.00000000000E+00 0.  1.
<mgrwt>
<rscale>  3 0.24659612E+03</rscale>
<asrwt>0</asrwt>
<pdfrwt beam="1">  1       21 0.12874348E-01 0.24659612E+03</pdfrwt>
<pdfrwt beam="2">  1        2 0.11603881E+00 0.24659612E+03</pdfrwt>
<totfact> 0.24764586E+04</totfact>
</mgrwt>
</event>
<event>
 4    0  0.1496248E-001  0.2661345E+03  0.7546771E-02  0.1103513E+00
          2   -1    0    0  502    0 -0.00000000000E+00  0.00000000000E+00  0.40426534746E+03  0.40426534746E+03  0.00000000000E+00 0. -1.
         21   -1    0    0  501  502  0.00000000000E+00 -0.00000000000E+00 -0.16667064232E+03  0.16667064232E+03  0.00000000000E+00 0. -1.
         25    1    1    2    0    0  0.22553477149E+03 -0.65853309083E+02  0.51172519505E+02  0.27100962754E+03  0.12500000000E+03 0.  0.
          2    1    1    2  501    0 -0.22553477149E+03  0.65853309083E+02  0.18642218563E+03  0.29992636223E+03  0.00000000000E+00 0. -1.
<mgrwt>
<rscale>  3 0.26613454E+03</rscale>
<asrwt>0</asrwt>
<pdfrwt beam="1">  1       21 0.25641637E-01 0.26613454E+03</pdfrwt>
<pdfrwt beam="2">  1        2 0.62194669E-01 0.26613454E+03</pdfrwt>
<totfact> 0.14017512E+04</totfact>
</mgrwt>
</event>
<event>
 4    0  0.1327859E-001  0.3450114E+03  0.7546771E-02  0.1064681E+00
         21   -1    0    0  501  502  0.00000000000E+00  0.00000000000E+00  0.19868442701E+03  0.19868442701E+03  0.00000000000E+00 0.  1.
          4   -1    0    0  502    0 -0.00000000000E+00 -0.00000000000E+00 -0.56523150470E+03  0.56523150470E+03  0.00000000000E+00 0.  1.
         25    1    1    2    0    0  0.31796509759E+03 -0.48021488644E+02 -0.14986696173E+03  0.37615551687E+03  0.12500000000E+03 0.  0.
          4    1    1    2  501    0 -0.31796509759E+03  0.48021488644E+02 -0.21668011597E+03  0.38776041483E+03  0.00000000000E+00 0.  1.
<mgrwt>
<rscale>  3 0.34501140E+03</rscale>
<asrwt>0</asrwt>
<pdfrwt beam="1">  1       21 0.30566835E-01 0.34501140E+03</pdfrwt>
<pdfrwt beam="2">  1        4 0.86958693E-01 0.34501140E+03</pdfrwt>
<totfact> 0.50445336E+02</totfact>
</mgrwt>
</event>
<event>
 4    0  0.1733978E-001  0.2535631E+03  0.7546771E-02  0.1111074E+00
          2   -1    0    0  502    0 -0.00000000000E+00  0.00000000000E+00  0.16690104696E+04  0.16690104696E+04  0.00000000000E+00 0.  1.
         21   -1    0    0  501  502  0.00000000000E+00 -0.00000000000E+00 -0.22942548580E+03  0.22942548580E+03  0.00000000000E+00 0. -1.
         25    1    1    2    0    0  0.21238329054E+03 -0.59687346440E+02 -0.14933719394E+03  0.29427170934E+03  0.12500000000E+03 0.  0.
          2    1    1    2  501    0 -0.21238329054E+03  0.59687346440E+02  0.15889221777E+04  0.16041642460E+04  0.00000000000E+00 0.  1.
<mgrwt>
<rscale>  3 0.25356309E+03</rscale>
<asrwt>0</asrwt>
<pdfrwt beam="1">  1       21 0.35296230E-01 0.25356309E+03</pdfrwt>
<pdfrwt beam="2">  1        2 0.25677083E+00 0.25356309E+03</pdfrwt>
<totfact> 0.10684806E+03</totfact>
</mgrwt>
</event>
<event>
 4    0  0.2229750E-001  0.2408550E+03  0.7546771E-02  0.1119225E+00
         -1   -1    0    0    0  501 -0.00000000000E+00  0.00000000000E+00  0.20479511011E+04  0.20479511011E+04  0.00000000000E+00 0. -1.
         21   -1    0    0  501  502  0.00000000000E+00 -0.00000000000E+00 -0.24362307782E+02  0.24362307782E+02  0.00000000000E+00 0. -1.
         25    1    1    2    0    0  0.14923608354E+03 -0.14182637280E+03  0.10903919668E+04  0.11166762153E+04  0.12500000000E+03 0.  0.
         -1    1    1    2    0  502 -0.14923608354E+03  0.14182637280E+03  0.93319682649E+03  0.95563719351E+03  0.00000000000E+00 0. -1.
<mgrwt>
<rscale>  3 0.24085500E+03</rscale>
<asrwt>0</asrwt>
<pdfrwt beam="1">  1       21 0.37480490E-02 0.24085500E+03</pdfrwt>
<pdfrwt beam="2">  1       -1 0.31506926E+00 0.24085500E+03</pdfrwt>
<totfact> 0.12893118E+03</totfact>
</mgrwt>
</event>
<event>
 4    0  0.1048051E-001  0.3482232E+03  0.7546771E-02  0.1063347E+00
          2   -1    0    0  502    0 -0.00000000000E+00  0.00000000000E+00  0.21318574600E+03  0.21318574600E+03  0.00000000000E+00 0.  1.
         21   -1    0    0  501  502  0.00000000000E+00 -0.00000000000E+00 -0.10040788158E+04  0.10040788158E+04  0.00000000000E+00 0.  1.
         25    1    1    2    0    0  0.21915752519E+03 -0.24000915798E+03 -0.82007297234E+03  0.89094281339E+03  0.12500000000E+03 0.  0.
          2    1    1    2  501    0 -0.21915752519E+03  0.24000915798E+03  0.29179902556E+02  0.32632174840E+03  0.00000000000E+00 0.  1.
<mgrwt>
<rscale>  3 0.34822323E+03</rscale>
<asrwt>0</asrwt>
<pdfrwt beam="1">  1       21 0.15447367E+00 0.34822323E+03</pdfrwt>
<pdfrwt beam="2">  1        2 0.32797807E-01 0.34822323E+03</pdfrwt>
<totfact> 0.50219814E+02</totfact>
</mgrwt>
</event>
<event>
 4    0  0.1685663E-001  0.2552090E+03  0.7546771E-02  0.1110056E+00
         21   -1    0    0  501  502  0.00000000000E+00  0.00000000000E+00  0.16407012134E+03  0.16407012134E+03  0.00000000000E+00 0. -1.
         -3   -1    0    0    0  501 -0.00000000000E+00 -0.00000000000E+00 -0.36401342322E+03  0.36401342322E+03  0.00000000000E+00 0. -1.
         25    1    1    2    0    0 -0.22034728706E+03 -0.30882252224E+02 -0.16223483035E+03  0.30240995452E+03  0.12500000000E+03 0.  0.
         -3    1    1    2    0  502  0.22034728706E+03  0.30882252224E+02 -0.37708471532E+02  0.22567359004E+03  0.00000000000E+00 0. -1.
<mgrwt>
<rscale>  3 0.25520901E+03</rscale>
<asrwt>0</asrwt>
<pdfrwt beam="1">  1       21 0.25241557E-01 0.25520901E+03</pdfrwt>
<pdfrwt beam="2">  1       -3 0.56002065E-01 0.25520901E+03</pdfrwt>
<totfact> 0.23280487E+03</totfact>
</mgrwt>
</event>
<event>
 4    0  0.2103666E-001  0.2646727E+03  0.7546771E-02  0.1104368E+00
         21   -1    0    0  501  502  0.00000000000E+00  0.00000000000E+00  0.39514500019E+02  0.39514500019E+02  0.00000000000E+00 0.  1.
         -2   -1    0    0    0  501 -0.00000000000E+00 -0.00000000000E+00 -0.15696987093E+04  0.15696987093E+04  0.00000000000E+00 0.  1.
         25    1    1    2    0    0 -0.23225993176E+03  0.21953350523E+02 -0.83176192495E+03  0.87285710474E+03  0.12500000000E+03 0.  0.
         -2    1    1    2    0  502  0.23225993176E+03 -0.21953350523E+02 -0.69842228437E+03  0.73635610461E+03  0.00000000000E+00 0.  1.
<mgrwt>
<rscale>  3 0.26467268E+03</rscale>
<asrwt>0</asrwt>
<pdfrwt beam="1">  1       21 0.60791535E-02 0.26467268E+03</pdfrwt>
<pdfrwt beam="2">  1       -2 0.24149212E+00 0.26467268E+03</pdfrwt>
<totfact> 0.12746977E+03</totfact>
</mgrwt>
</event>
<event>
 4    0  0.1625489E-001  0.3376850E+03  0.7546771E-02  0.1067786E+00
          2   -1    0    0  502    0 -0.00000000000E+00  0.00000000000E+00  0.10802374282E+04  0.10802374282E+04  0.00000000000E+00 0.  1.
         21   -1    0    0  501  502  0.00000000000E+00 -0.00000000000E+00 -0.12010872502E+03  0.12010872502E+03  0.00000000000E+00 0.  1.
         25    1    1    2    0    0 -0.29422060186E+03 -0.10881367460E+03  0.75072877754E+03  0.82317973478E+03  0.12500000000E+03 0.  0.
          2    1    1    2  501    0  0.29422060186E+03  0.10881367460E+03  0.20939992565E+03  0.37716641845E+03  0.00000000000E+00 0.  1.
<mgrwt>
<rscale>  3 0.33768503E+03</rscale>
<asrwt>0</asrwt>
<pdfrwt beam="1">  1       21 0.18478266E-01 0.33768503E+03</pdfrwt>
<pdfrwt beam="2">  1        2 0.16619037E+00 0.33768503E+03</pdfrwt>
<totfact> 0.76884835E+03</totfact>
</mgrwt>
</event>
<event>
 4    0  0.1510481E-001  0.2378017E+03  0.7546771E-02  0.1121266E+00
          1   -1    0    0  502    0 -0.00000000000E+00  0.00000000000E+00  0.10145359057E+04  0.10145359057E+04  0.00000000000E+00 0.  1.
         21   -1    0    0  501  502  0.00000000000E+00 -0.00000000000E+00 -0.20768868402E+03  0.20768868402E+03  0.00000000000E+00 0.  1.
         25    1    1    2    0    0 -0.58499916900E+02  0.19365540189E+03 -0.12501239300E+03  0.26865917695E+03  0.12500000000E+03 0.  0.
          1    1    1    2  501    0  0.58499916900E+02 -0.19365540189E+03  0.93185961472E+03  0.95356541280E+03  0.00000000000E+00 0.  1.
<mgrwt>
<rscale>  3 0.23780171E+03</rscale>
<asrwt>0</asrwt>
<pdfrwt beam="1">  1       21 0.31952106E-01 0.23780171E+03</pdfrwt>
<pdfrwt beam="2">  1        1 0.15608244E+00 0.23780171E+03</pdfrwt>
<totfact> 0.16163378E+03</totfact>
</mgrwt>
</event>
<event>
 4    0  0.1153887E-001  0.6868598E+03  0.7546771E-02  0.9739971E-01
         -4   -1    0    0    0  501 -0.00000000000E+00  0.00000000000E+00  0.70034051175E+03  0.70034051175E+03  0.00000000000E+00 0.  1.
         21   -1    0    0  501  502  0.00000000000E+00 -0.00000000000E+00 -0.84601460386E+03  0.84601460386E+03  0.00000000000E+00 0.  1.
         25    1    1    2    0    0 -0.15257928752E+03  0.65792927072E+03 -0.43347182574E+03  0.81220329226E+03  0.12500000000E+03 0.  0.
         -4    1    1    2    0  502  0.15257928752E+03 -0.65792927072E+03  0.28779773362E+03  0.73415182335E+03  0.00000000000E+00 0.  1.
<mgrwt>
<rscale>  3 0.68685978E+03</rscale>
<asrwt>0</asrwt>
<pdfrwt beam="1">  1       21 0.13015609E+00 0.68685978E+03</pdfrwt>
<pdfrwt beam="2">  1       -4 0.10774469E+00 0.68685978E+03</pdfrwt>
<totfact> 0.11267752E+01</totfact>
</mgrwt>
</event>
<event>
 4    0  0.1160792E-001  0.3034909E+03  0.7546771E-02  0.1083508E+00
         21   -1    0    0  501  502  0.00000000000E+00  0.00000000000E+00  0.11508618537E+04  0.11508618537E+04  0.00000000000E+00 0.  1.
         -4   -1    0    0    0  501 -0.00000000000E+00 -0.00000000000E+00 -0.44512699252E+03  0.44512699252E+03  0.00000000000E+00 0. -1.
         25    1    1    2    0    0 -0.14040219765E+03 -0.23826234848E+03  0.10849751723E+04  0.11266223184E+04  0.12500000000E+03 0.  0.
         -4    1    1    2    0  502  0.14040219765E+03  0.23826234848E+03 -0.37924031115E+03  0.46936652779E+03  0.00000000000E+00 0. -1.
<mgrwt>
<rscale>  3 0.30349090E+03</rscale>
<asrwt>0</asrwt>
<pdfrwt beam="1">  1       21 0.17705567E+00 0.30349090E+03</pdfrwt>
<pdfrwt beam="2">  1       -4 0.68481076E-01 0.30349090E+03</pdfrwt>
<totfact> 0.15174944E+01</totfact>
</mgrwt>
</event>
<event>
 4    0  0.1002184E-001  0.2765072E+03  0.7546771E-02  0.1097612E+00
         21   -1    0    0  501  502  0.00000000000E+00  0.00000000000E+00  0.36977427847E+02  0.36977427847E+02  0.00000000000E+00 0. -1.
          2   -1    0    0  502    0 -0.00000000000E+00 -0.00000000000E+00 -0.21598706414E+04  0.21598706414E+04  0.00000000000E+00 0.  1.
         25    1    1    2    0    0 -0.63255570481E+02 -0.23839033957E+03 -0.69811824406E+03  0.75088301611E+03  0.12500000000E+03 0.  0.
          2    1    1    2  501    0  0.63255570481E+02  0.23839033957E+03 -0.14247749695E+04  0.14459650532E+04  0.00000000000E+00 0.  1.
<mgrwt>
<rscale>  3 0.27650718E+03</rscale>
<asrwt>0</asrwt>
<pdfrwt beam="1">  1       21 0.56888345E-02 0.27650718E+03</pdfrwt>
<pdfrwt beam="2">  1        2 0.33228782E+00 0.27650718E+03</pdfrwt>
<totfact> 0.16703072E+04</totfact>
</mgrwt>
</event>
<event>
 4    0  0.1268623E-001  0.2522760E+03  0.7546771E-02  0.1111875E+00
         21   -1    0    0  501  502  0.00000000000E+00  0.00000000000E+00  0.16871688497E+03  0.16871688497E+03  0.00000000000E+00 0.  1.
          2   -1    0    0  502    0 -0.00000000000E+00 -0.00000000000E+00 -0.65293505064E+03  0.65293505064E+03  0.00000000000E+00 0. -1.
         25    1    1    2    0    0 -0.11981383705E+03  0.18347434746E+03  0.38186407336E+02  0.25514974707E+03  0.12500000000E+03 0.  0.
          2    1    1    2  501    0  0.11981383705E+03 -0.18347434746E+03 -0.52240457300E+03  0.56650218854E+03  0.00000000000E+00 0. -1.
<mgrwt>
<rscale>  3 0.25227602E+03</rscale>
<asrwt>0</asrwt>
<pdfrwt beam="1">  1       21 0.25956445E-01 0.25227602E+03</pdfrwt>
<pdfrwt beam="2">  1        2 0.10045154E+00 0.25227602E+03</pdfrwt>
<totfact> 0.79730235E+03</totfact>
</mgrwt>
</event>
<event>
 4    0  0.1567752E-001  0.2447452E+03  0.7546771E-02  0.1116671E+00
         21   -1    0    0  501  502  0.00000000000E+00  0.00000000000E+00  0.61259948738E+03  0.61259948738E+03  0.00000000000E+00 0. -1.
         -2   -1    0    0    0  501 -0.00000000000E+00 -0.00000000000E+00 -0.14172971219E+03  0.14172971219E+03  0.00000000000E+00 0. -1.
         25    1    1    2    0    0 -0.20880710707E+03 -0.25977281031E+02  0.68627013366E+01  0.24484142574E+03  0.12500000000E+03 0.  0.
         -2    1    1    2    0  502  0.20880710707E+03  0.25977281031E+02  0.46400707386E+03  0.50948777383E+03  0.00000000000E+00 0. -1.
<mgrwt>
<rscale>  3 0.24474523E+03</rscale>
<asrwt>0</asrwt>
<pdfrwt beam="1">  1       21 0.94246073E-01 0.24474523E+03</pdfrwt>
<pdfrwt beam="2">  1       -2 0.21804571E-01 0.24474523E+03</pdfrwt>
<totfact> 0.13362928E+03</totfact>
</mgrwt>
</event>
<event>
 4    0  0.1002184E-001  0.2879101E+03  0.7546771E-02  0.1091445E+00
         21   -1    0    0  501  502  0.00000000000E+00  0.00000000000E+00  0.11007898619E+03  0.11007898619E+03  0.00000000000E+00 0. -1.
          1   -1    0    0  502    0 -0.00000000000E+00 -0.00000000000E+00 -0.37641585722E+04  0.37641585722E+04  0.00000000000E+00 0.  1.
         25    1    1    2    0    0 -0.19934284856E+03  0.16592070463E+03 -0.91313619275E+02  0.30204375273E+03  0.12500000000E+03 0.  0.
          1    1    1    2  501    0  0.19934284856E+03 -0.16592070463E+03 -0.35627659668E+04  0.35721938057E+04  0.00000000000E+00 0.  1.
<mgrwt>
<rscale>  3 0.28791014E+03</rscale>
<asrwt>0</asrwt>
<pdfrwt beam="1">  1       21 0.16935226E-01 0.28791014E+03</pdfrwt>
<pdfrwt beam="2">  1        1 0.57910140E+00 0.28791014E+03</pdfrwt>
<totfact> 0.66635758E+01</totfact>
</mgrwt>
</event>
<event>
 4    0  0.1002184E-001  0.2439396E+03  0.7546771E-02  0.1117196E+00
         21   -1    0    0  501  502  0.00000000000E+00  0.00000000000E+00  0.21184991430E+03  0.21184991430E+03  0.00000000000E+00 0.  1.
         -3   -1    0    0    0  501 -0.00000000000E+00 -0.00000000000E+00 -0.27061816760E+03  0.27061816760E+03  0.00000000000E+00 0. -1.
         25    1    1    2    0    0  0.15714968071E+03  0.13851182425E+03  0.46018148407E+02  0.24824225585E+03  0.12500000000E+03 0.  0.
         -3    1    1    2    0  502 -0.15714968071E+03 -0.13851182425E+03 -0.10478640170E+03  0.23422582605E+03  0.00000000000E+00 0. -1.
<mgrwt>
<rscale>  3 0.24393964E+03</rscale>
<asrwt>0</asrwt>
<pdfrwt beam="1">  1       21 0.32592294E-01 0.24393964E+03</pdfrwt>
<pdfrwt beam="2">  1       -3 0.41633565E-01 0.24393964E+03</pdfrwt>
<totfact> 0.25665601E+03</totfact>
</mgrwt>
</event>
<event>
 4    0  0.1570351E-001  0.3303900E+03  0.7546771E-02  0.1070964E+00
          2   -1    0    0  502    0 -0.00000000000E+00  0.00000000000E+00  0.13457990159E+04  0.13457990159E+04  0.00000000000E+00 0.  1.
         21   -1    0    0  501  502  0.00000000000E+00 -0.00000000000E+00 -0.13279054907E+03  0.13279054907E+03  0.00000000000E+00 0.  1.
         25    1    1    2    0    0  0.16781850059E+03  0.25567459782E+03  0.13306962383E+03  0.35618123743E+03  0.12500000000E+03 0.  0.
          2    1    1    2  501    0 -0.16781850059E+03 -0.25567459782E+03  0.10799388430E+04  0.11224083276E+04  0.00000000000E+00 0.  1.
<mgrwt>
<rscale>  3 0.33039000E+03</rscale>
<asrwt>0</asrwt>
<pdfrwt beam="1">  1       21 0.20429316E-01 0.33039000E+03</pdfrwt>
<pdfrwt beam="2">  1        2 0.20704599E+00 0.33039000E+03</pdfrwt>
<totfact> 0.44871026E+03</totfact>
</mgrwt>
</event>
<event>
 4    0  0.1323103E-001  0.2547055E+03  0.7546771E-02  0.1110367E+00
         21   -1    0    0  501  502  0.00000000000E+00  0.00000000000E+00  0.15875896504E+02  0.15875896504E+02  0.00000000000E+00 0. -1.
          1   -1    0    0  502    0 -0.00000000000E+00 -0.00000000000E+00 -0.44617703020E+04  0.44617703020E+04  0.00000000000E+00 0. -1.
         25    1    1    2    0    0 -0.22156553590E+03 -0.12594503269E+02 -0.13506583636E+04  0.13744645952E+04  0.12500000000E+03 0.  0.
          1    1    1    2  501    0  0.22156553590E+03  0.12594503269E+02 -0.30952360419E+04  0.31031816034E+04  0.00000000000E+00 0. -1.
<mgrwt>
<rscale>  3 0.25470553E+03</rscale>
<asrwt>0</asrwt>
<pdfrwt beam="1">  1       21 0.24424451E-02 0.25470553E+03</pdfrwt>
<pdfrwt beam="2">  1        1 0.68642635E+00 0.25470553E+03</pdfrwt>
<totfact> 0.48563497E+02</totfact>
</mgrwt>
</event>
<event>
 4    0  0.1527592E-001  0.2759244E+03  0.7546771E-02  0.1097936E+00
         21   -1    0    0  501  502  0.00000000000E+00  0.00000000000E+00  0.25550908199E+02  0.25550908199E+02  0.00000000000E+00 0.  1.
          2   -1    0    0  502    0 -0.00000000000E+00 -0.00000000000E+00 -0.27036520607E+04  0.27036520607E+04  0.00000000000E+00 0.  1.
         25    1    1    2    0    0  0.77675866166E+02  0.23340035240E+03 -0.12522457707E+04  0.12822845765E+04  0.12500000000E+03 0.  0.
          2    1    1    2  501    0 -0.77675866166E+02 -0.23340035240E+03 -0.14258553817E+04  0.14469183924E+04  0.00000000000E+00 0.  1.
<mgrwt>
<rscale>  3 0.27592438E+03</rscale>
<asrwt>0</asrwt>
<pdfrwt beam="1">  1       21 0.39309083E-02 0.27592438E+03</pdfrwt>
<pdfrwt beam="2">  1        2 0.41594654E+00 0.27592438E+03</pdfrwt>
<totfact> 0.15844463E+04</totfact>
</mgrwt>
</event>
<event>
 4    0  0.1578492E-001  0.3388804E+03  0.7546771E-02  0.1067274E+00
          2   -1    0    0  502    0 -0.00000000000E+00  0.00000000000E+00  0.11413404576E+04  0.11413404576E+04  0.00000000000E+00 0. -1.
         21   -1    0    0  501  502  0.00000000000E+00 -0.00000000000E+00 -0.10951890352E+03  0.10951890352E+03  0.00000000000E+00 0. -1.
         25    1    1    2    0    0  0.75036679030E+02  0.30591575356E+03  0.76998080719E+03  0.84125524956E+03  0.12500000000E+03 0.  0.
          2    1    1    2  501    0 -0.75036679030E+02 -0.30591575356E+03  0.26184074689E+03  0.40960411156E+03  0.00000000000E+00 0. -1.
<mgrwt>
<rscale>  3 0.33888044E+03</rscale>
<asrwt>0</asrwt>
<pdfrwt beam="1">  1       21 0.16849063E-01 0.33888044E+03</pdfrwt>
<pdfrwt beam="2">  1        2 0.17559083E+00 0.33888044E+03</pdfrwt>
<totfact> 0.84038556E+03</totfact>
</mgrwt>
</event>
<event>
 4    0  0.1002184E-001  0.2435353E+03  0.7546771E-02  0.1117460E+00
         21   -1    0    0  501  502  0.00000000000E+00  0.00000000000E+00  0.22088033620E+04  0.22088033620E+04  0.00000000000E+00 0.  1.
          2   -1    0    0  502    0 -0.00000000000E+00 -0.00000000000E+00 -0.24590156156E+02  0.24590156156E+02  0.00000000000E+00 0.  1.
         25    1    1    2    0    0 -0.19041229238E+03  0.86183545070E+02  0.90391853711E+03  0.93615071771E+03  0.12500000000E+03 0.  0.
          2    1    1    2  501    0  0.19041229238E+03 -0.86183545070E+02  0.12802946688E+04  0.12972428005E+04  0.00000000000E+00 0.  1.
<mgrwt>
<rscale>  3 0.24353530E+03</rscale>
<asrwt>0</asrwt>
<pdfrwt beam="1">  1       21 0.33981575E+00 0.24353530E+03</pdfrwt>
<pdfrwt beam="2">  1        2 0.37831027E-02 0.24353530E+03</pdfrwt>
<totfact> 0.52360127E+02</totfact>
</mgrwt>
</event>
<event>
 4    0  0.1002184E-001  0.2836504E+03  0.7546771E-02  0.1093712E+00
         21   -1    0    0  501  502  0.00000000000E+00  0.00000000000E+00  0.52348964911E+02  0.52348964911E+02  0.00000000000E+00 0. -1.
          2   -1    0    0  502    0 -0.00000000000E+00 -0.00000000000E+00 -0.35821928546E+04  0.35821928546E+04  0.00000000000E+00 0. -1.
         25    1    1    2    0    0 -0.25269720292E+03  0.31251897894E+02 -0.37881625025E+03  0.47324339292E+03  0.12500000000E+03 0.  0.
          2    1    1    2  501    0  0.25269720292E+03 -0.31251897894E+02 -0.31510276394E+04  0.31612984266E+04  0.00000000000E+00 0. -1.
<mgrwt>
<rscale>  3 0.28365041E+03</rscale>
<asrwt>0</asrwt>
<pdfrwt beam="1">  1       21 0.80536875E-02 0.28365041E+03</pdfrwt>
<pdfrwt beam="2">  1        2 0.55110655E+00 0.28365041E+03</pdfrwt>
<totfact> 0.13275396E+03</totfact>
</mgrwt>
</event>
<event>
 4    0  0.1153543E-001  0.2388162E+03  0.7546771E-02  0.1120584E+00
         21   -1    0    0  501  502  0.00000000000E+00  0.00000000000E+00  0.70567672485E+02  0.70567672485E+02  0.00000000000E+00 0. -1.
          1   -1    0    0  502    0 -0.00000000000E+00 -0.00000000000E+00 -0.20039375465E+04  0.20039375465E+04  0.00000000000E+00 0.  1.
         25    1    1    2    0    0  0.20156081110E+03  0.27953715342E+02 -0.15539261510E+03  0.28492110417E+03  0.12500000000E+03 0.  0.
          1    1    1    2  501    0 -0.20156081110E+03 -0.27953715342E+02 -0.17779772590E+04  0.17895841149E+04  0.00000000000E+00 0.  1.
<mgrwt>
<rscale>  3 0.23881619E+03</rscale>
<asrwt>0</asrwt>
<pdfrwt beam="1">  1       21 0.10856564E-01 0.23881619E+03</pdfrwt>
<pdfrwt beam="2">  1        1 0.30829812E+00 0.23881619E+03</pdfrwt>
<totfact> 0.26323577E+03</totfact>
</mgrwt>
</event>
<event>
 4    0  0.1377999E-001  0.2398479E+03  0.7546771E-02  0.1119894E+00
          2   -1    0    0  502    0 -0.00000000000E+00  0.00000000000E+00  0.93452434546E+03  0.93452434546E+03  0.00000000000E+00 0.  1.
         21   -1    0    0  501  502  0.00000000000E+00 -0.00000000000E+00 -0.43314512921E+03  0.43314512921E+03  0.00000000000E+00 0.  1.
         25    1    1    2    0    0  0.14888452467E+03 -0.14048277241E+03 -0.38739138842E+03  0.45563044109E+03  0.12500000000E+03 0.  0.
          2    1    1    2  501    0 -0.14888452467E+03  0.14048277241E+03  0.88877060468E+03  0.91203903358E+03  0.00000000000E+00 0.  1.
<mgrwt>
<rscale>  3 0.23984789E+03</rscale>
<asrwt>0</asrwt>
<pdfrwt beam="1">  1       21 0.66637712E-01 0.23984789E+03</pdfrwt>
<pdfrwt beam="2">  1        2 0.14377298E+00 0.23984789E+03</pdfrwt>
<totfact> 0.73608359E+02</totfact>
</mgrwt>
</event>
<event>
 4    0  0.2074538E-001  0.2733837E+03  0.7546771E-02  0.1099358E+00
         -2   -1    0    0    0  501 -0.00000000000E+00  0.00000000000E+00  0.44286561605E+03  0.44286561605E+03  0.00000000000E+00 0. -1.
         21   -1    0    0  501  502  0.00000000000E+00 -0.00000000000E+00 -0.15526417753E+03  0.15526417753E+03  0.00000000000E+00 0. -1.
         25    1    1    2    0    0  0.24291081234E+03 -0.10391757047E+02  0.10024459318E+03  0.29118315512E+03  0.12500000000E+03 0.  0.
         -2    1    1    2    0  502 -0.24291081234E+03  0.10391757047E+02  0.18735684534E+03  0.30694663846E+03  0.00000000000E+00 0. -1.
<mgrwt>
<rscale>  3 0.27338371E+03</rscale>
<asrwt>0</asrwt>
<pdfrwt beam="1">  1       21 0.23886797E-01 0.27338371E+03</pdfrwt>
<pdfrwt beam="2">  1       -2 0.68133171E-01 0.27338371E+03</pdfrwt>
<totfact> 0.26816689E+03</totfact>
</mgrwt>
</event>
<event>
 4    0  0.1002184E-001  0.2361178E+03  0.7546771E-02  0.1122406E+00
          3   -1    0    0  502    0 -0.00000000000E+00  0.00000000000E+00  0.49160194443E+02  0.49160194443E+02  0.00000000000E+00 0.  1.
         21   -1    0    0  501  502  0.00000000000E+00 -0.00000000000E+00 -0.10700779538E+04  0.10700779538E+04  0.00000000000E+00 0. -1.
         25    1    1    2    0    0  0.63488694450E+02 -0.18998894203E+03 -0.72013531260E+03  0.75785650414E+03  0.12500000000E+03 0.  0.
          3    1    1    2  501    0 -0.63488694450E+02  0.18998894203E+03 -0.30078244676E+03  0.36138164411E+03  0.00000000000E+00 0.  1.
<mgrwt>
<rscale>  3 0.23611779E+03</rscale>
<asrwt>0</asrwt>
<pdfrwt beam="1">  1       21 0.16462738E+00 0.23611779E+03</pdfrwt>
<pdfrwt beam="2">  1        3 0.75631067E-02 0.23611779E+03</pdfrwt>
<totfact> 0.13281244E+03</totfact>
</mgrwt>
</event>
<event>
 4    0  0.1002184E-001  0.2681727E+03  0.7546771E-02  0.1102330E+00
         21   -1    0    0  501  502  0.00000000000E+00  0.00000000000E+00  0.11946109388E+03  0.11946109388E+03  0.00000000000E+00 0.  1.
         -1   -1    0    0    0  501 -0.00000000000E+00 -0.00000000000E+00 -0.53466680623E+03  0.53466680623E+03  0.00000000000E+00 0. -1.
         25    1    1    2    0    0  0.23409133223E+03 -0.38637314630E+02 -0.22364522578E+03  0.34919017873E+03  0.12500000000E+03 0.  0.
         -1    1    1    2    0  502 -0.23409133223E+03  0.38637314630E+02 -0.19156048657E+03  0.30493772138E+03  0.00000000000E+00 0. -1.
<mgrwt>
<rscale>  3 0.26817269E+03</rscale>
<asrwt>0</asrwt>
<pdfrwt beam="1">  1       21 0.18378629E-01 0.26817269E+03</pdfrwt>
<pdfrwt beam="2">  1       -1 0.82256433E-01 0.26817269E+03</pdfrwt>
<totfact> 0.38230637E+03</totfact>
</mgrwt>
</event>
<event>
 4    0  0.1265298E-001  0.2426572E+03  0.7546771E-02  0.1118035E+00
         21   -1    0    0  501  502  0.00000000000E+00  0.00000000000E+00  0.22080086624E+03  0.22080086624E+03  0.00000000000E+00 0.  1.
          2   -1    0    0  502    0 -0.00000000000E+00 -0.00000000000E+00 -0.70406085426E+03  0.70406085426E+03  0.00000000000E+00 0.  1.
         25    1    1    2    0    0  0.13684878482E+03  0.15662025300E+03  0.13141185841E+03  0.27595573936E+03  0.12500000000E+03 0.  0.
          2    1    1    2  501    0 -0.13684878482E+03 -0.15662025300E+03 -0.61467184644E+03  0.64890598114E+03  0.00000000000E+00 0.  1.
<mgrwt>
<rscale>  3 0.24265715E+03</rscale>
<asrwt>0</asrwt>
<pdfrwt beam="1">  1       21 0.33969364E-01 0.24265715E+03</pdfrwt>
<pdfrwt beam="2">  1        2 0.10831705E+00 0.24265715E+03</pdfrwt>
<totfact> 0.43103717E+03</totfact>
</mgrwt>
</event>
<event>
 4    0  0.1127349E-001  0.4496266E+03  0.7546771E-02  0.1027833E+00
         21   -1    0    0  501  502  0.00000000000E+00  0.00000000000E+00  0.21303418559E+03  0.21303418559E+03  0.00000000000E+00 0. -1.
          1   -1    0    0  502    0 -0.00000000000E+00 -0.00000000000E+00 -0.18947492557E+04  0.18947492557E+04  0.00000000000E+00 0.  1.
         25    1    1    2    0    0  0.16303892388E+03 -0.39994673920E+03 -0.90043597270E+02  0.45855417816E+03  0.12500000000E+03 0.  0.
          1    1    1    2  501    0 -0.16303892388E+03  0.39994673920E+03 -0.15916714728E+04  0.16492292631E+04  0.00000000000E+00 0.  1.
<mgrwt>
<rscale>  3 0.44962661E+03</rscale>
<asrwt>0</asrwt>
<pdfrwt beam="1">  1       21 0.32774490E-01 0.44962661E+03</pdfrwt>
<pdfrwt beam="2">  1        1 0.29149989E+00 0.44962661E+03</pdfrwt>
<totfact> 0.35675098E+02</totfact>
</mgrwt>
</event>
<event>
 4    0  0.1086590E-001  0.4671372E+03  0.7546771E-02  0.1022731E+00
         21   -1    0    0  501  502  0.00000000000E+00  0.00000000000E+00  0.99915609240E+02  0.99915609240E+02  0.00000000000E+00 0.  1.
          1   -1    0    0  502    0 -0.00000000000E+00 -0.00000000000E+00 -0.24396054887E+04  0.24396054887E+04  0.00000000000E+00 0.  1.
         25    1    1    2    0    0 -0.45009223161E+03  0.30269357358E+01 -0.16587031014E+04  0.17232275410E+04  0.12500000000E+03 0.  0.
          1    1    1    2  501    0  0.45009223161E+03 -0.30269357358E+01 -0.68098677809E+03  0.81629355702E+03  0.00000000000E+00 0.  1.
<mgrwt>
<rscale>  3 0.46713722E+03</rscale>
<asrwt>0</asrwt>
<pdfrwt beam="1">  1       21 0.15371634E-01 0.46713722E+03</pdfrwt>
<pdfrwt beam="2">  1        1 0.37532388E+00 0.46713722E+03</pdfrwt>
<totfact> 0.66473080E+02</totfact>
</mgrwt>
</event>
<event>
 4    0  0.1002184E-001  0.2535547E+03  0.7546771E-02  0.1111079E+00
          2   -1    0    0  502    0 -0.00000000000E+00  0.00000000000E+00  0.31229483798E+03  0.31229483798E+03  0.00000000000E+00 0.  1.
         21   -1    0    0  501  502  0.00000000000E+00 -0.00000000000E+00 -0.23791371724E+03  0.23791371724E+03  0.00000000000E+00 0. -1.
         25    1    1    2    0    0 -0.20886673179E+03 -0.70990713358E+02 -0.96363167714E+02  0.27124869239E+03  0.12500000000E+03 0.  0.
          2    1    1    2  501    0  0.20886673179E+03  0.70990713358E+02  0.17074428845E+03  0.27895986283E+03  0.00000000000E+00 0.  1.
<mgrwt>
<rscale>  3 0.25355471E+03</rscale>
<asrwt>0</asrwt>
<pdfrwt beam="1">  1       21 0.36602110E-01 0.25355471E+03</pdfrwt>
<pdfrwt beam="2">  1        2 0.48045360E-01 0.25355471E+03</pdfrwt>
<totfact> 0.92292105E+03</totfact>
</mgrwt>
</event>
<event>
 4    0  0.1002184E-001  0.3714520E+03  0.7546771E-02  0.1054139E+00
         21   -1    0    0  501  502  0.00000000000E+00  0.00000000000E+00  0.87513261920E+02  0.87513261920E+02  0.00000000000E+00 0. -1.
          2   -1    0    0  502    0 -0.00000000000E+00 -0.00000000000E+00 -0.14860378417E+04  0.14860378417E+04  0.00000000000E+00 0.  1.
         25    1    1    2    0    0 -0.54952368199E+02  0.34544437640E+03 -0.72272553062E+03  0.81259385462E+03  0.12500000000E+03 0.  0.
          2    1    1    2  501    0  0.54952368199E+02 -0.34544437640E+03 -0.67579904919E+03  0.76095724902E+03  0.00000000000E+00 0.  1.
<mgrwt>
<rscale>  3 0.37145199E+03</rscale>
<asrwt>0</asrwt>
<pdfrwt beam="1">  1       21 0.13463578E-01 0.37145199E+03</pdfrwt>
<pdfrwt beam="2">  1        2 0.22862121E+00 0.37145199E+03</pdfrwt>
<totfact> 0.80891497E+03</totfact>
</mgrwt>
</event>
<event>
 4    0  0.1286440E-001  0.3110437E+03  0.7546771E-02  0.1079847E+00
         21   -1    0    0  501  502  0.00000000000E+00  0.00000000000E+00  0.67526748890E+03  0.67526748890E+03  0.00000000000E+00 0. -1.
          1   -1    0    0  502    0 -0.00000000000E+00 -0.00000000000E+00 -0.36114577618E+03  0.36114577618E+03  0.00000000000E+00 0.  1.
         25    1    1    2    0    0 -0.23999161283E+03 -0.15338583301E+03  0.57270521635E+03  0.65172037933E+03  0.12500000000E+03 0.  0.
          1    1    1    2  501    0  0.23999161283E+03  0.15338583301E+03 -0.25858350363E+03  0.38469288575E+03  0.00000000000E+00 0.  1.
<mgrwt>
<rscale>  3 0.31104371E+03</rscale>
<asrwt>0</asrwt>
<pdfrwt beam="1">  1       21 0.10388731E+00 0.31104371E+03</pdfrwt>
<pdfrwt beam="2">  1        1 0.55560889E-01 0.31104371E+03</pdfrwt>
<totfact> 0.53728674E+02</totfact>
</mgrwt>
</event>
<event>
 4    0  0.1225642E-001  0.2658392E+03  0.7546771E-02  0.1103685E+00
         21   -1    0    0  501  502  0.00000000000E+00  0.00000000000E+00  0.96448739924E+02  0.96448739924E+02  0.00000000000E+00 0.  1.
          1   -1    0    0  502    0 -0.00000000000E+00 -0.00000000000E+00 -0.10263492520E+04  0.10263492520E+04  0.00000000000E+00 0. -1.
         25    1    1    2    0    0  0.22055034658E+03 -0.80019000339E+02 -0.14340111679E+03  0.30205028735E+03  0.12500000000E+03 0.  0.
          1    1    1    2  501    0 -0.22055034658E+03  0.80019000339E+02 -0.78649939532E+03  0.82074770461E+03  0.00000000000E+00 0. -1.
<mgrwt>
<rscale>  3 0.26583923E+03</rscale>
<asrwt>0</asrwt>
<pdfrwt beam="1">  1       21 0.14838268E-01 0.26583923E+03</pdfrwt>
<pdfrwt beam="2">  1        1 0.15789988E+00 0.26583923E+03</pdfrwt>
<totfact> 0.67244562E+03</totfact>
</mgrwt>
</event>
<event>
 4    0  0.1576916E-001  0.2936920E+03  0.7546771E-02  0.1088437E+00
          2   -1    0    0  502    0 -0.00000000000E+00  0.00000000000E+00  0.16334258777E+04  0.16334258777E+04  0.00000000000E+00 0.  1.
         21   -1    0    0  501  502  0.00000000000E+00 -0.00000000000E+00 -0.99136883492E+02  0.99136883492E+02  0.00000000000E+00 0.  1.
         25    1    1    2    0    0 -0.13224039426E+03  0.23052654832E+03  0.16327179163E+03  0.33602483434E+03  0.12500000000E+03 0.  0.
          2    1    1    2  501    0  0.13224039426E+03 -0.23052654832E+03  0.13710172026E+04  0.13965379269E+04  0.00000000000E+00 0.  1.
<mgrwt>
<rscale>  3 0.29369203E+03</rscale>
<asrwt>0</asrwt>
<pdfrwt beam="1">  1       21 0.15251829E-01 0.29369203E+03</pdfrwt>
<pdfrwt beam="2">  1        2 0.25129627E+00 0.29369203E+03</pdfrwt>
<totfact> 0.54696701E+03</totfact>
</mgrwt>
</event>
<event>
 4    0  0.1131719E-001  0.3477771E+03  0.7546771E-02  0.1063531E+00
          2   -1    0    0  502    0 -0.00000000000E+00  0.00000000000E+00  0.24182630715E+03  0.24182630715E+03  0.00000000000E+00 0. -1.
         21   -1    0    0  501  502  0.00000000000E+00 -0.00000000000E+00 -0.59014951234E+03  0.59014951234E+03  0.00000000000E+00 0. -1.
         25    1    1    2    0    0  0.31912413041E+03  0.59022812068E+02 -0.36864749368E+03  0.50680358873E+03  0.12500000000E+03 0.  0.
          2    1    1    2  501    0 -0.31912413041E+03 -0.59022812068E+02  0.20324288488E+02  0.32517223076E+03  0.00000000000E+00 0. -1.
<mgrwt>
<rscale>  3 0.34777709E+03</rscale>
<asrwt>0</asrwt>
<pdfrwt beam="1">  1       21 0.90792232E-01 0.34777709E+03</pdfrwt>
<pdfrwt beam="2">  1        2 0.37204047E-01 0.34777709E+03</pdfrwt>
<totfact> 0.16690872E+03</totfact>
</mgrwt>
</event>
<event>
 4    0  0.1002184E-001  0.2425841E+03  0.7546771E-02  0.1118083E+00
         21   -1    0    0  501  502  0.00000000000E+00  0.00000000000E+00  0.14685776659E+02  0.14685776659E+02  0.00000000000E+00 0. -1.
          1   -1    0    0  502    0 -0.00000000000E+00 -0.00000000000E+00 -0.34553244649E+04  0.34553244649E+04  0.00000000000E+00 0.  1.
         25    1    1    2    0    0 -0.11662386819E+03 -0.17210733070E+03 -0.18774240264E+04  0.18930314406E+04  0.12500000000E+03 0.  0.
          1    1    1    2  501    0  0.11662386819E+03  0.17210733070E+03 -0.15632146618E+04  0.15769788010E+04  0.00000000000E+00 0.  1.
<mgrwt>
<rscale>  3 0.24258413E+03</rscale>
<asrwt>0</asrwt>
<pdfrwt beam="1">  1       21 0.22593465E-02 0.24258413E+03</pdfrwt>
<pdfrwt beam="2">  1        1 0.53158926E+00 0.24258413E+03</pdfrwt>
<totfact> 0.38977700E+03</totfact>
</mgrwt>
</event>
<event>
 4    0  0.1419608E-001  0.2594611E+03  0.7546771E-02  0.1107467E+00
          1   -1    0    0  502    0 -0.00000000000E+00  0.00000000000E+00  0.13583738406E+04  0.13583738406E+04  0.00000000000E+00 0.  1.
         21   -1    0    0  501  502  0.00000000000E+00 -0.00000000000E+00 -0.12504498686E+03  0.12504498686E+03  0.00000000000E+00 0. -1.
         25    1    1    2    0    0  0.21104318725E+03  0.84592189952E+02  0.32772682593E+02  0.26152268393E+03  0.12500000000E+03 0.  0.
          1    1    1    2  501    0 -0.21104318725E+03 -0.84592189952E+02  0.12005561711E+04  0.12218961435E+04  0.00000000000E+00 0.  1.
<mgrwt>
<rscale>  3 0.25946111E+03</rscale>
<asrwt>0</asrwt>
<pdfrwt beam="1">  1       21 0.19237691E-01 0.25946111E+03</pdfrwt>
<pdfrwt beam="2">  1        1 0.20898058E+00 0.25946111E+03</pdfrwt>
<totfact> 0.24309665E+03</totfact>
</mgrwt>
</event>
<event>
 4    0  0.1163020E-001  0.2812146E+03  0.7546771E-02  0.1095027E+00
          2   -1    0    0  502    0 -0.00000000000E+00  0.00000000000E+00  0.38474606033E+03  0.38474606033E+03  0.00000000000E+00 0. -1.
         21   -1    0    0  501  502  0.00000000000E+00 -0.00000000000E+00 -0.37386201572E+03  0.37386201572E+03  0.00000000000E+00 0.  1.
         25    1    1    2    0    0 -0.93962991104E+02 -0.23372548726E+03 -0.26402813321E+03  0.38573631177E+03  0.12500000000E+03 0.  0.
          2    1    1    2  501    0  0.93962991104E+02  0.23372548726E+03  0.27491217782E+03  0.37287176429E+03  0.00000000000E+00 0. -1.
<mgrwt>
<rscale>  3 0.28121459E+03</rscale>
<asrwt>0</asrwt>
<pdfrwt beam="1">  1       21 0.57517233E-01 0.28121459E+03</pdfrwt>
<pdfrwt beam="2">  1        2 0.59191702E-01 0.28121459E+03</pdfrwt>
<totfact> 0.28589647E+03</totfact>
</mgrwt>
</event>
<event>
 4    0  0.1028958E-001  0.2518945E+03  0.7546771E-02  0.1112113E+00
         21   -1    0    0  501  502  0.00000000000E+00  0.00000000000E+00  0.10226788366E+03  0.10226788366E+03  0.00000000000E+00 0.  1.
          1   -1    0    0  502    0 -0.00000000000E+00 -0.00000000000E+00 -0.71055774019E+03  0.71055774019E+03  0.00000000000E+00 0. -1.
         25    1    1    2    0    0 -0.21552957665E+03 -0.37051579020E+02 -0.12254554689E+03  0.28012181097E+03  0.12500000000E+03 0.  0.
          1    1    1    2  501    0  0.21552957665E+03  0.37051579020E+02 -0.48574430963E+03  0.53270381288E+03  0.00000000000E+00 0. -1.
<mgrwt>
<rscale>  3 0.25189446E+03</rscale>
<asrwt>0</asrwt>
<pdfrwt beam="1">  1       21 0.15733520E-01 0.25189446E+03</pdfrwt>
<pdfrwt beam="2">  1        1 0.10931658E+00 0.25189446E+03</pdfrwt>
<totfact> 0.10897389E+04</totfact>
</mgrwt>
</event>
<event>
 4    0  0.1152348E-001  0.4610383E+03  0.7546771E-02  0.1024481E+00
          2   -1    0    0  502    0 -0.00000000000E+00  0.00000000000E+00  0.40445849950E+03  0.40445849950E+03  0.00000000000E+00 0. -1.
         21   -1    0    0  501  502  0.00000000000E+00 -0.00000000000E+00 -0.74907469765E+03  0.74907469765E+03  0.00000000000E+00 0. -1.
         25    1    1    2    0    0  0.43868422616E+03  0.66988869744E+02 -0.50302154259E+03  0.68233938129E+03  0.12500000000E+03 0.  0.
          2    1    1    2  501    0 -0.43868422616E+03 -0.66988869744E+02  0.15840534444E+03  0.47119381585E+03  0.00000000000E+00 0. -1.
<mgrwt>
<rscale>  3 0.46103835E+03</rscale>
<asrwt>0</asrwt>
<pdfrwt beam="1">  1       21 0.11524226E+00 0.46103835E+03</pdfrwt>
<pdfrwt beam="2">  1        2 0.62224385E-01 0.46103835E+03</pdfrwt>
<totfact> 0.51572890E+02</totfact>
</mgrwt>
</event>
<event>
 4    0  0.1024225E-001  0.3300885E+03  0.7546771E-02  0.1071098E+00
         21   -1    0    0  501  502  0.00000000000E+00  0.00000000000E+00  0.38734972347E+03  0.38734972347E+03  0.00000000000E+00 0.  1.
          1   -1    0    0  502    0 -0.00000000000E+00 -0.00000000000E+00 -0.39420874303E+03  0.39420874303E+03  0.00000000000E+00 0. -1.
         25    1    1    2    0    0 -0.19551898004E+03 -0.23474617038E+03  0.22375928212E+03  0.39878145945E+03  0.12500000000E+03 0.  0.
          1    1    1    2  501    0  0.19551898004E+03  0.23474617038E+03 -0.23061830167E+03  0.38277700706E+03  0.00000000000E+00 0. -1.
<mgrwt>
<rscale>  3 0.33008853E+03</rscale>
<asrwt>0</asrwt>
<pdfrwt beam="1">  1       21 0.59592265E-01 0.33008853E+03</pdfrwt>
<pdfrwt beam="2">  1        1 0.60647499E-01 0.33008853E+03</pdfrwt>
<totfact> 0.17025654E+03</totfact>
</mgrwt>
</event>
<event>
 4    0  0.1458781E-001  0.2878664E+03  0.7546771E-02  0.1091468E+00
         21   -1    0    0  501  502  0.00000000000E+00  0.00000000000E+00  0.17142295325E+03  0.17142295325E+03  0.00000000000E+00 0.  1.
          1   -1    0    0  502    0 -0.00000000000E+00 -0.00000000000E+00 -0.44078543138E+03  0.44078543138E+03  0.00000000000E+00 0.  1.
         25    1    1    2    0    0  0.15503932382E+03  0.20785782934E+03 -0.11201106857E+03  0.30889083611E+03  0.12500000000E+03 0.  0.
          1    1    1    2  501    0 -0.15503932382E+03 -0.20785782934E+03 -0.15735140956E+03  0.30331754852E+03  0.00000000000E+00 0.  1.
<mgrwt>
<rscale>  3 0.28786641E+03</rscale>
<asrwt>0</asrwt>
<pdfrwt beam="1">  1       21 0.26372763E-01 0.28786641E+03</pdfrwt>
<pdfrwt beam="2">  1        1 0.67813142E-01 0.28786641E+03</pdfrwt>
<totfact> 0.78766535E+03</totfact>
</mgrwt>
</event>
<event>
 4    0  0.1143985E-001  0.2482757E+03  0.7546771E-02  0.1114399E+00
          1   -1    0    0  502    0 -0.00000000000E+00  0.00000000000E+00  0.21640814843E+03  0.21640814843E+03  0.00000000000E+00 0.  1.
         21   -1    0    0  501  502  0.00000000000E+00 -0.00000000000E+00 -0.50732523133E+03  0.50732523133E+03  0.00000000000E+00 0.  1.
         25    1    1    2    0    0  0.15037303817E+03 -0.15298299009E+03 -0.40930611763E+03  0.47871948341E+03  0.12500000000E+03 0.  0.
          1    1    1    2  501    0 -0.15037303817E+03  0.15298299009E+03  0.11838903472E+03  0.24501389636E+03  0.00000000000E+00 0.  1.
<mgrwt>
<rscale>  3 0.24827575E+03</rscale>
<asrwt>0</asrwt>
<pdfrwt beam="1">  1       21 0.78050036E-01 0.24827575E+03</pdfrwt>
<pdfrwt beam="2">  1        1 0.33293561E-01 0.24827575E+03</pdfrwt>
<totfact> 0.20525113E+03</totfact>
</mgrwt>
</event>
<event>
 4    0  0.1222557E-001  0.2469004E+03  0.7546771E-02  0.1115279E+00
          1   -1    0    0  502    0 -0.00000000000E+00  0.00000000000E+00  0.17857901548E+03  0.17857901548E+03  0.00000000000E+00 0. -1.
         21   -1    0    0  501  502  0.00000000000E+00 -0.00000000000E+00 -0.42163891124E+03  0.42163891124E+03  0.00000000000E+00 0. -1.
         25    1    1    2    0    0 -0.21263155138E+03  0.11074990293E+02 -0.29134450877E+03  0.38189194132E+03  0.12500000000E+03 0.  0.
          1    1    1    2  501    0  0.21263155138E+03 -0.11074990293E+02  0.48284613009E+02  0.21832598541E+03  0.00000000000E+00 0. -1.
<mgrwt>
<rscale>  3 0.24690045E+03</rscale>
<asrwt>0</asrwt>
<pdfrwt beam="1">  1       21 0.64867525E-01 0.24690045E+03</pdfrwt>
<pdfrwt beam="2">  1        1 0.27473695E-01 0.24690045E+03</pdfrwt>
<totfact> 0.39528228E+03</totfact>
</mgrwt>
</event>
<event>
 4    0  0.1713644E-001  0.4139275E+03  0.7546771E-02  0.1039061E+00
         -3   -1    0    0    0  501 -0.00000000000E+00  0.00000000000E+00  0.15610529768E+04  0.15610529768E+04  0.00000000000E+00 0.  1.
         21   -1    0    0  501  502  0.00000000000E+00 -0.00000000000E+00 -0.12987211747E+03  0.12987211747E+03  0.00000000000E+00 0.  1.
         25    1    1    2    0    0  0.29793048219E+03  0.25874381869E+03  0.35718909669E+03  0.54673575585E+03  0.12500000000E+03 0.  0.
         -3    1    1    2    0  502 -0.29793048219E+03 -0.25874381869E+03  0.10739917626E+04  0.11441893384E+04  0.00000000000E+00 0.  1.
<mgrwt>
<rscale>  3 0.41392745E+03</rscale>
<asrwt>0</asrwt>
<pdfrwt beam="1">  1       21 0.19980327E-01 0.41392745E+03</pdfrwt>
<pdfrwt beam="2">  1       -3 0.24016198E+00 0.41392745E+03</pdfrwt>
<totfact> 0.10075242E+02</totfact>
</mgrwt>
</event>
<event>
 4    0  0.1807914E-001  0.3166040E+03  0.7546771E-02  0.1077223E+00
         21   -1    0    0  501  502  0.00000000000E+00  0.00000000000E+00  0.51224376491E+03  0.51224376491E+03  0.00000000000E+00 0. -1.
          2   -1    0    0  502    0 -0.00000000000E+00 -0.00000000000E+00 -0.10694523187E+04  0.10694523187E+04  0.00000000000E+00 0.  1.
         25    1    1    2    0    0  0.29004668706E+03 -0.22045865059E+02  0.44048547048E+03  0.54246248768E+03  0.12500000000E+03 0.  0.
          2    1    1    2  501    0 -0.29004668706E+03  0.22045865059E+02 -0.99769402426E+03  0.10392335959E+04  0.00000000000E+00 0.  1.
<mgrwt>
<rscale>  3 0.31660401E+03</rscale>
<asrwt>0</asrwt>
<pdfrwt beam="1">  1       21 0.78806735E-01 0.31660401E+03</pdfrwt>
<pdfrwt beam="2">  1        2 0.16453112E+00 0.31660401E+03</pdfrwt>
<totfact> 0.40259592E+02</totfact>
</mgrwt>
</event>
<event>
 4    0  0.1002184E-001  0.3042219E+03  0.7546771E-02  0.1083149E+00
          2   -1    0    0  502    0 -0.00000000000E+00  0.00000000000E+00  0.12395966053E+04  0.12395966053E+04  0.00000000000E+00 0.  1.
         21   -1    0    0  501  502  0.00000000000E+00 -0.00000000000E+00 -0.68359861224E+02  0.68359861224E+02  0.00000000000E+00 0. -1.
         25    1    1    2    0    0 -0.22273701312E+03 -0.16527008384E+03  0.58245255933E+03  0.65711639874E+03  0.12500000000E+03 0.  0.
          2    1    1    2  501    0  0.22273701312E+03  0.16527008384E+03  0.58878418476E+03  0.65084006780E+03  0.00000000000E+00 0.  1.
<mgrwt>
<rscale>  3 0.30422192E+03</rscale>
<asrwt>0</asrwt>
<pdfrwt beam="1">  1       21 0.10516903E-01 0.30422192E+03</pdfrwt>
<pdfrwt beam="2">  1        2 0.19070715E+00 0.30422192E+03</pdfrwt>
<totfact> 0.17558334E+04</totfact>
</mgrwt>
</event>
<event>
 4    0  0.1536983E-001  0.3026543E+03  0.7546771E-02  0.1083921E+00
          2   -1    0    0  502    0 -0.00000000000E+00  0.00000000000E+00  0.23451677458E+04  0.23451677458E+04  0.00000000000E+00 0. -1.
         21   -1    0    0  501  502  0.00000000000E+00 -0.00000000000E+00 -0.35875690520E+02  0.35875690520E+02  0.00000000000E+00 0. -1.
         25    1    1    2    0    0 -0.12695030952E+03  0.24465944801E+03  0.11138758706E+04  0.11542612710E+04  0.12500000000E+03 0.  0.
          2    1    1    2  501    0  0.12695030952E+03 -0.24465944801E+03  0.11954161847E+04  0.12267821653E+04  0.00000000000E+00 0. -1.
<mgrwt>
<rscale>  3 0.30265430E+03</rscale>
<asrwt>0</asrwt>
<pdfrwt beam="1">  1       21 0.55193388E-02 0.30265430E+03</pdfrwt>
<pdfrwt beam="2">  1        2 0.36079492E+00 0.30265430E+03</pdfrwt>
<totfact> 0.13896701E+04</totfact>
</mgrwt>
</event>
<event>
 4    0  0.1002184E-001  0.3782212E+03  0.7546771E-02  0.1051593E+00
          2   -1    0    0  502    0 -0.00000000000E+00  0.00000000000E+00  0.50711421351E+03  0.50711421351E+03  0.00000000000E+00 0.  1.
         21   -1    0    0  501  502  0.00000000000E+00 -0.00000000000E+00 -0.27909685825E+03  0.27909685825E+03  0.00000000000E+00 0. -1.
         25    1    1    2    0    0 -0.33279371239E+03 -0.12913017900E+03  0.33542640940E+02  0.37970563190E+03  0.12500000000E+03 0.  0.
          2    1    1    2  501    0  0.33279371239E+03  0.12913017900E+03  0.19447471432E+03  0.40650543987E+03  0.00000000000E+00 0.  1.
<mgrwt>
<rscale>  3 0.37822118E+03</rscale>
<asrwt>0</asrwt>
<pdfrwt beam="1">  1       21 0.42937978E-01 0.37822118E+03</pdfrwt>
<pdfrwt beam="2">  1        2 0.78017571E-01 0.37822118E+03</pdfrwt>
<totfact> 0.38101133E+03</totfact>
</mgrwt>
</event>
<event>
 4    0  0.1095819E-001  0.3247418E+03  0.7546771E-02  0.1073487E+00
         21   -1    0    0  501  502  0.00000000000E+00  0.00000000000E+00  0.63722742787E+02  0.63722742787E+02  0.00000000000E+00 0.  1.
          2   -1    0    0  502    0 -0.00000000000E+00 -0.00000000000E+00 -0.22825828142E+04  0.22825828142E+04  0.00000000000E+00 0. -1.
         25    1    1    2    0    0  0.74394047616E+02  0.29034079517E+03 -0.46590878046E+03  0.56791570094E+03  0.12500000000E+03 0.  0.
          2    1    1    2  501    0 -0.74394047616E+02 -0.29034079517E+03 -0.17529512910E+04  0.17783898561E+04  0.00000000000E+00 0. -1.
<mgrwt>
<rscale>  3 0.32474182E+03</rscale>
<asrwt>0</asrwt>
<pdfrwt beam="1">  1       21 0.98034985E-02 0.32474182E+03</pdfrwt>
<pdfrwt beam="2">  1        2 0.35116660E+00 0.32474182E+03</pdfrwt>
<totfact> 0.54560426E+03</totfact>
</mgrwt>
</event>
<event>
 4    0  0.1325326E-001  0.2498891E+03  0.7546771E-02  0.1113375E+00
          4   -1    0    0  502    0 -0.00000000000E+00  0.00000000000E+00  0.46073257234E+03  0.46073257234E+03  0.00000000000E+00 0. -1.
         21   -1    0    0  501  502  0.00000000000E+00 -0.00000000000E+00 -0.40116849984E+03  0.40116849984E+03  0.00000000000E+00 0. -1.
         25    1    1    2    0    0  0.14865441634E+03 -0.15723053328E+03 -0.33139936880E+03  0.41505435515E+03  0.12500000000E+03 0.  0.
          4    1    1    2  501    0 -0.14865441634E+03  0.15723053328E+03  0.39096344129E+03  0.44684671703E+03  0.00000000000E+00 0. -1.
<mgrwt>
<rscale>  3 0.24988913E+03</rscale>
<asrwt>0</asrwt>
<pdfrwt beam="1">  1       21 0.61718231E-01 0.24988913E+03</pdfrwt>
<pdfrwt beam="2">  1        4 0.70881934E-01 0.24988913E+03</pdfrwt>
<totfact> 0.18833174E+02</totfact>
</mgrwt>
</event>
<event>
 4    0  0.1673698E-001  0.3119694E+03  0.7546771E-02  0.1079406E+00
          1   -1    0    0  502    0 -0.00000000000E+00  0.00000000000E+00  0.12361929817E+04  0.12361929817E+04  0.00000000000E+00 0.  1.
         21   -1    0    0  501  502  0.00000000000E+00 -0.00000000000E+00 -0.13001518039E+03  0.13001518039E+03  0.00000000000E+00 0.  1.
         25    1    1    2    0    0 -0.28380323403E+03 -0.33994380973E+02  0.11153169018E+03  0.33130682380E+03  0.12500000000E+03 0.  0.
          1    1    1    2  501    0  0.28380323403E+03  0.33994380973E+02  0.99464611109E+03  0.10349013382E+04  0.00000000000E+00 0.  1.
<mgrwt>
<rscale>  3 0.31196938E+03</rscale>
<asrwt>0</asrwt>
<pdfrwt beam="1">  1       21 0.20002336E-01 0.31196938E+03</pdfrwt>
<pdfrwt beam="2">  1        1 0.19018353E+00 0.31196938E+03</pdfrwt>
<totfact> 0.26921589E+03</totfact>
</mgrwt>
</event>
<event>
 4    0  0.1002184E-001  0.2473424E+03  0.7546771E-02  0.1114996E+00
         21   -1    0    0  501  502  0.00000000000E+00  0.00000000000E+00  0.12020740225E+03  0.12020740225E+03  0.00000000000E+00 0.  1.
          2   -1    0    0  502    0 -0.00000000000E+00 -0.00000000000E+00 -0.50136246854E+03  0.50136246854E+03  0.00000000000E+00 0. -1.
         25    1    1    2    0    0  0.17375882117E+03 -0.12394000807E+03 -0.95846851336E+02  0.26526377899E+03  0.12500000000E+03 0.  0.
          2    1    1    2  501    0 -0.17375882117E+03  0.12394000807E+03 -0.28530821495E+03  0.35630609180E+03  0.00000000000E+00 0. -1.
<mgrwt>
<rscale>  3 0.24734238E+03</rscale>
<asrwt>0</asrwt>
<pdfrwt beam="1">  1       21 0.18493447E-01 0.24734238E+03</pdfrwt>
<pdfrwt beam="2">  1        2 0.77132685E-01 0.24734238E+03</pdfrwt>
<totfact> 0.20583188E+04</totfact>
</mgrwt>
</event>
<event>
 4    0  0.1002184E-001  0.6243419E+03  0.7546771E-02  0.9856153E-01
          1   -1    0    0  502    0 -0.00000000000E+00  0.00000000000E+00  0.13256320485E+04  0.13256320485E+04  0.00000000000E+00 0. -1.
         21   -1    0    0  501  502  0.00000000000E+00 -0.00000000000E+00 -0.65531601241E+03  0.65531601241E+03  0.00000000000E+00 0.  1.
         25    1    1    2    0    0 -0.38093941788E+03  0.47860519870E+03 -0.40473490326E+03  0.74405182497E+03  0.12500000000E+03 0.  0.
          1    1    1    2  501    0  0.38093941788E+03 -0.47860519870E+03  0.10750509393E+04  0.12368962359E+04  0.00000000000E+00 0. -1.
<mgrwt>
<rscale>  3 0.62434187E+03</rscale>
<asrwt>0</asrwt>
<pdfrwt beam="1">  1       21 0.10081785E+00 0.62434187E+03</pdfrwt>
<pdfrwt beam="2">  1        1 0.20394339E+00 0.62434187E+03</pdfrwt>
<totfact> 0.69300349E+01</totfact>
</mgrwt>
</event>
<event>
 4    0  0.1002184E-001  0.3524086E+03  0.7546771E-02  0.1061631E+00
          2   -1    0    0  502    0 -0.00000000000E+00  0.00000000000E+00  0.34326518506E+04  0.34326518506E+04  0.00000000000E+00 0. -1.
         21   -1    0    0  501  502  0.00000000000E+00 -0.00000000000E+00 -0.38328383369E+03  0.38328383369E+03  0.00000000000E+00 0. -1.
         25    1    1    2    0    0  0.25545764522E+02 -0.32850301768E+03 -0.29242711000E+03  0.45793605817E+03  0.12500000000E+03 0.  0.
          2    1    1    2  501    0 -0.25545764522E+02  0.32850301768E+03  0.33417951269E+04  0.33579996261E+04  0.00000000000E+00 0. -1.
<mgrwt>
<rscale>  3 0.35240860E+03</rscale>
<asrwt>0</asrwt>
<pdfrwt beam="1">  1       21 0.58966746E-01 0.35240860E+03</pdfrwt>
<pdfrwt beam="2">  1        2 0.52810026E+00 0.35240860E+03</pdfrwt>
<totfact> 0.34760454E+01</totfact>
</mgrwt>
</event>
<event>
 4    0  0.1488157E-001  0.2961583E+03  0.7546771E-02  0.1087177E+00
         21   -1    0    0  501  502  0.00000000000E+00  0.00000000000E+00  0.95899148436E+02  0.95899148436E+02  0.00000000000E+00 0. -1.
          1   -1    0    0  502    0 -0.00000000000E+00 -0.00000000000E+00 -0.85135909623E+03  0.85135909623E+03  0.00000000000E+00 0. -1.
         25    1    1    2    0    0  0.23110114831E+03  0.13666374854E+03 -0.32290107908E+03  0.43814932134E+03  0.12500000000E+03 0.  0.
          1    1    1    2  501    0 -0.23110114831E+03 -0.13666374854E+03 -0.43255886871E+03  0.50910892333E+03  0.00000000000E+00 0. -1.
<mgrwt>
<rscale>  3 0.29615827E+03</rscale>
<asrwt>0</asrwt>
<pdfrwt beam="1">  1       21 0.14753715E-01 0.29615827E+03</pdfrwt>
<pdfrwt beam="2">  1        1 0.13097832E+00 0.29615827E+03</pdfrwt>
<totfact> 0.92197941E+03</totfact>
</mgrwt>
</event>
<event>
 4    0  0.1242810E-001  0.3400106E+03  0.7546771E-02  0.1066791E+00
         21   -1    0    0  501  502  0.00000000000E+00  0.00000000000E+00  0.16410850215E+03  0.16410850215E+03  0.00000000000E+00 0.  1.
          2   -1    0    0  502    0 -0.00000000000E+00 -0.00000000000E+00 -0.22646980648E+04  0.22646980648E+04  0.00000000000E+00 0.  1.
         25    1    1    2    0    0  0.31506137416E+03  0.26805644620E+02 -0.38007729169E+02  0.34212833783E+03  0.12500000000E+03 0.  0.
          2    1    1    2  501    0 -0.31506137416E+03 -0.26805644620E+02 -0.20625818335E+04  0.20866782291E+04  0.00000000000E+00 0.  1.
<mgrwt>
<rscale>  3 0.34001061E+03</rscale>
<asrwt>0</asrwt>
<pdfrwt beam="1">  1       21 0.25247463E-01 0.34001061E+03</pdfrwt>
<pdfrwt beam="2">  1        2 0.34841508E+00 0.34001061E+03</pdfrwt>
<totfact> 0.96027613E+02</totfact>
</mgrwt>
</event>
<event>
 4    0  0.1002184E-001  0.2412742E+03  0.7546771E-02  0.1118947E+00
         21   -1    0    0  501  502  0.00000000000E+00  0.00000000000E+00  0.20080475723E+02  0.20080475723E+02  0.00000000000E+00 0. -1.
          2   -1    0    0  502    0 -0.00000000000E+00 -0.00000000000E+00 -0.43112809443E+04  0.43112809443E+04  0.00000000000E+00 0. -1.
         25    1    1    2    0    0  0.19450394366E+03  0.68967217063E+02 -0.83913020137E+03  0.87312814407E+03  0.12500000000E+03 0.  0.
          2    1    1    2  501    0 -0.19450394366E+03 -0.68967217063E+02 -0.34520702672E+04  0.34582332759E+04  0.00000000000E+00 0. -1.
<mgrwt>
<rscale>  3 0.24127424E+03</rscale>
<asrwt>0</asrwt>
<pdfrwt beam="1">  1       21 0.30893080E-02 0.24127424E+03</pdfrwt>
<pdfrwt beam="2">  1        2 0.66327312E+00 0.24127424E+03</pdfrwt>
<totfact> 0.19630847E+03</totfact>
</mgrwt>
</event>
<event>
 4    0  0.1361870E-001  0.2833340E+03  0.7546771E-02  0.1093882E+00
         21   -1    0    0  501  502  0.00000000000E+00  0.00000000000E+00  0.26234720817E+03  0.26234720817E+03  0.00000000000E+00 0. -1.
          2   -1    0    0  502    0 -0.00000000000E+00 -0.00000000000E+00 -0.31834198416E+03  0.31834198416E+03  0.00000000000E+00 0. -1.
         25    1    1    2    0    0  0.23303076919E+03  0.10173416428E+03  0.77175905783E+02  0.29365677245E+03  0.12500000000E+03 0.  0.
          2    1    1    2  501    0 -0.23303076919E+03 -0.10173416428E+03 -0.13317068178E+03  0.28703241987E+03  0.00000000000E+00 0. -1.
<mgrwt>
<rscale>  3 0.28333404E+03</rscale>
<asrwt>0</asrwt>
<pdfrwt beam="1">  1       21 0.40361109E-01 0.28333404E+03</pdfrwt>
<pdfrwt beam="2">  1        2 0.48975690E-01 0.28333404E+03</pdfrwt>
<totfact> 0.73738461E+03</totfact>
</mgrwt>
</event>
<event>
 4    0  0.1418691E-001  0.2659340E+03  0.7546771E-02  0.1103630E+00
         21   -1    0    0  501  502  0.00000000000E+00  0.00000000000E+00  0.49503184263E+03  0.49503184263E+03  0.00000000000E+00 0. -1.
         -1   -1    0    0    0  501 -0.00000000000E+00 -0.00000000000E+00 -0.16654369934E+03  0.16654369934E+03  0.00000000000E+00 0. -1.
         25    1    1    2    0    0 -0.23364061484E+03  0.22537482536E+02  0.33380972386E+03  0.42679012027E+03  0.12500000000E+03 0.  0.
         -1    1    1    2    0  502  0.23364061484E+03 -0.22537482536E+02 -0.53215805662E+01  0.23478542170E+03  0.00000000000E+00 0. -1.
<mgrwt>
<rscale>  3 0.26593397E+03</rscale>
<asrwt>0</asrwt>
<pdfrwt beam="1">  1       21 0.76158745E-01 0.26593397E+03</pdfrwt>
<pdfrwt beam="2">  1       -1 0.25622108E-01 0.26593397E+03</pdfrwt>
<totfact> 0.18280283E+03</totfact>
</mgrwt>
</event>
<event>
 4    0  0.1657039E-001  0.3037951E+03  0.7546771E-02  0.1083359E+00
         21   -1    0    0  501  502  0.00000000000E+00  0.00000000000E+00  0.12535460649E+03  0.12535460649E+03  0.00000000000E+00 0.  1.
          2   -1    0    0  502    0 -0.00000000000E+00 -0.00000000000E+00 -0.82817789591E+03  0.82817789591E+03  0.00000000000E+00 0.  1.
         25    1    1    2    0    0 -0.24101917951E+03  0.13629453335E+03 -0.15809036800E+03  0.34246753009E+03  0.12500000000E+03 0.  0.
          2    1    1    2  501    0  0.24101917951E+03 -0.13629453335E+03 -0.54473292141E+03  0.61106497231E+03  0.00000000000E+00 0.  1.
<mgrwt>
<rscale>  3 0.30379507E+03</rscale>
<asrwt>0</asrwt>
<pdfrwt beam="1">  1       21 0.19285324E-01 0.30379507E+03</pdfrwt>
<pdfrwt beam="2">  1        2 0.12741198E+00 0.30379507E+03</pdfrwt>
<totfact> 0.10332801E+04</totfact>
</mgrwt>
</event>
<event>
 4    0  0.1284550E-001  0.2722508E+03  0.7546771E-02  0.1099998E+00
          4   -1    0    0  502    0 -0.00000000000E+00  0.00000000000E+00  0.33400139442E+03  0.33400139442E+03  0.00000000000E+00 0. -1.
         21   -1    0    0  501  502  0.00000000000E+00 -0.00000000000E+00 -0.29283485887E+03  0.29283485887E+03  0.00000000000E+00 0. -1.
         25    1    1    2    0    0  0.35556158711E+02  0.23923050478E+03 -0.15689892406E+03  0.31422563106E+03  0.12500000000E+03 0.  0.
          4    1    1    2  501    0 -0.35556158711E+02 -0.23923050478E+03  0.19806545962E+03  0.31261062224E+03  0.00000000000E+00 0. -1.
<mgrwt>
<rscale>  3 0.27225076E+03</rscale>
<asrwt>0</asrwt>
<pdfrwt beam="1">  1       21 0.45051517E-01 0.27225076E+03</pdfrwt>
<pdfrwt beam="2">  1        4 0.51384830E-01 0.27225076E+03</pdfrwt>
<totfact> 0.72663077E+02</totfact>
</mgrwt>
</event>
<event>
 4    0  0.1898281E-001  0.3605616E+03  0.7546771E-02  0.1058362E+00
         21   -1    0    0  501  502  0.00000000000E+00  0.00000000000E+00  0.18394923726E+03  0.18394923726E+03  0.00000000000E+00 0.  1.
         -3   -1    0    0    0  501 -0.00000000000E+00 -0.00000000000E+00 -0.13019004864E+04  0.13019004864E+04  0.00000000000E+00 0.  1.
         25    1    1    2    0    0 -0.13921492852E+03 -0.30821886136E+03 -0.48027603688E+02  0.36374622133E+03  0.12500000000E+03 0.  0.
         -3    1    1    2    0  502  0.13921492852E+03  0.30821886136E+03 -0.10699236455E+04  0.11221035023E+04  0.00000000000E+00 0.  1.
<mgrwt>
<rscale>  3 0.36056159E+03</rscale>
<asrwt>0</asrwt>
<pdfrwt beam="1">  1       21 0.28299882E-01 0.36056159E+03</pdfrwt>
<pdfrwt beam="2">  1       -3 0.20029239E+00 0.36056159E+03</pdfrwt>
<totfact> 0.89594442E+01</totfact>
</mgrwt>
</event>
<event>
 4    0  0.1233824E-001  0.3901157E+03  0.7546771E-02  0.1047257E+00
         21   -1    0    0  501  502  0.00000000000E+00  0.00000000000E+00  0.21323131290E+03  0.21323131290E+03  0.00000000000E+00 0. -1.
          2   -1    0    0  502    0 -0.00000000000E+00 -0.00000000000E+00 -0.23240035078E+04  0.23240035078E+04  0.00000000000E+00 0.  1.
         25    1    1    2    0    0 -0.35829284176E+03 -0.90506904621E+02  0.42820221523E+01  0.39013920074E+03  0.12500000000E+03 0.  0.
          2    1    1    2  501    0  0.35829284176E+03  0.90506904621E+02 -0.21150542171E+04  0.21470956200E+04  0.00000000000E+00 0.  1.
<mgrwt>
<rscale>  3 0.39011570E+03</rscale>
<asrwt>0</asrwt>
<pdfrwt beam="1">  1       21 0.32804816E-01 0.39011570E+03</pdfrwt>
<pdfrwt beam="2">  1        2 0.35753901E+00 0.39011570E+03</pdfrwt>
<totfact> 0.52196699E+02</totfact>
</mgrwt>
</event>
<event>
 4    0  0.1174109E-001  0.2554493E+03  0.7546771E-02  0.1109909E+00
          2   -1    0    0  502    0 -0.00000000000E+00  0.00000000000E+00  0.21464009506E+04  0.21464009506E+04  0.00000000000E+00 0.  1.
         21   -1    0    0  501  502  0.00000000000E+00 -0.00000000000E+00 -0.45668935540E+02  0.45668935540E+02  0.00000000000E+00 0. -1.
         25    1    1    2    0    0 -0.22260596045E+03  0.87135156045E+01  0.38565075051E+03  0.46258063119E+03  0.12500000000E+03 0.  0.
          2    1    1    2  501    0  0.22260596045E+03 -0.87135156045E+01  0.17150812646E+04  0.17294892550E+04  0.00000000000E+00 0.  1.
<mgrwt>
<rscale>  3 0.25544929E+03</rscale>
<asrwt>0</asrwt>
<pdfrwt beam="1">  1       21 0.70259917E-02 0.25544929E+03</pdfrwt>
<pdfrwt beam="2">  1        2 0.33021545E+00 0.25544929E+03</pdfrwt>
<totfact> 0.11863374E+04</totfact>
</mgrwt>
</event>
<event>
 4    0  0.1261258E-001  0.2733563E+03  0.7546771E-02  0.1099374E+00
          1   -1    0    0  502    0 -0.00000000000E+00  0.00000000000E+00  0.44371801142E+03  0.44371801142E+03  0.00000000000E+00 0. -1.
         21   -1    0    0  501  502  0.00000000000E+00 -0.00000000000E+00 -0.62835582856E+03  0.62835582856E+03  0.00000000000E+00 0. -1.
         25    1    1    2    0    0  0.23519548865E+03 -0.61496022098E+02 -0.56098311157E+03  0.62403984655E+03  0.12500000000E+03 0.  0.
          1    1    1    2  501    0 -0.23519548865E+03  0.61496022098E+02  0.37634529444E+03  0.44803399343E+03  0.00000000000E+00 0. -1.
<mgrwt>
<rscale>  3 0.27335632E+03</rscale>
<asrwt>0</asrwt>
<pdfrwt beam="1">  1       21 0.96670127E-01 0.27335632E+03</pdfrwt>
<pdfrwt beam="2">  1        1 0.68264310E-01 0.27335632E+03</pdfrwt>
<totfact> 0.49703571E+02</totfact>
</mgrwt>
</event>
<event>
 4    0  0.1013022E-001  0.2458633E+03  0.7546771E-02  0.1115947E+00
         21   -1    0    0  501  502  0.00000000000E+00  0.00000000000E+00  0.85333308197E+03  0.85333308197E+03  0.00000000000E+00 0.  1.
          2   -1    0    0  502    0 -0.00000000000E+00 -0.00000000000E+00 -0.98682484745E+02  0.98682484745E+02  0.00000000000E+00 0.  1.
         25    1    1    2    0    0 -0.71189193598E+02  0.19938875947E+03  0.68713172156E+03  0.72979365677E+03  0.12500000000E+03 0.  0.
          2    1    1    2  501    0  0.71189193598E+02 -0.19938875947E+03  0.67518875670E+02  0.22222190995E+03  0.00000000000E+00 0.  1.
<mgrwt>
<rscale>  3 0.24586333E+03</rscale>
<asrwt>0</asrwt>
<pdfrwt beam="1">  1       21 0.13128201E+00 0.24586333E+03</pdfrwt>
<pdfrwt beam="2">  1        2 0.15181921E-01 0.24586333E+03</pdfrwt>
<totfact> 0.19295667E+03</totfact>
</mgrwt>
</event>
<event>
 4    0  0.1002184E-001  0.2396376E+03  0.7546771E-02  0.1120035E+00
          2   -1    0    0  502    0 -0.00000000000E+00  0.00000000000E+00  0.29011659747E+04  0.29011659747E+04  0.00000000000E+00 0.  1.
         21   -1    0    0  501  502  0.00000000000E+00 -0.00000000000E+00 -0.28494283565E+03  0.28494283565E+03  0.00000000000E+00 0. -1.
         25    1    1    2    0    0 -0.19804900540E+03  0.50771529832E+02 -0.23023551590E+03  0.33231694143E+03  0.12500000000E+03 0.  0.
          2    1    1    2  501    0  0.19804900540E+03 -0.50771529832E+02  0.28464586549E+04  0.28537918689E+04  0.00000000000E+00 0.  1.
<mgrwt>
<rscale>  3 0.23963755E+03</rscale>
<asrwt>0</asrwt>
<pdfrwt beam="1">  1       21 0.43837361E-01 0.23963755E+03</pdfrwt>
<pdfrwt beam="2">  1        2 0.44633320E+00 0.23963755E+03</pdfrwt>
<totfact> 0.15005441E+02</totfact>
</mgrwt>
</event>
<event>
 4    0  0.1390660E-001  0.3054743E+03  0.7546771E-02  0.1082536E+00
          1   -1    0    0  502    0 -0.00000000000E+00  0.00000000000E+00  0.33873271354E+03  0.33873271354E+03  0.00000000000E+00 0. -1.
         21   -1    0    0  501  502  0.00000000000E+00 -0.00000000000E+00 -0.10039199732E+04  0.10039199732E+04  0.00000000000E+00 0.  1.
         25    1    1    2    0    0  0.18380923339E+03 -0.20953213974E+03 -0.91729572581E+03  0.96682263133E+03  0.12500000000E+03 0.  0.
          1    1    1    2  501    0 -0.18380923339E+03  0.20953213974E+03  0.25210846614E+03  0.37583005542E+03  0.00000000000E+00 0. -1.
<mgrwt>
<rscale>  3 0.30547431E+03</rscale>
<asrwt>0</asrwt>
<pdfrwt beam="1">  1       21 0.15444923E+00 0.30547431E+03</pdfrwt>
<pdfrwt beam="2">  1        1 0.52112725E-01 0.30547431E+03</pdfrwt>
<totfact> 0.21239392E+02</totfact>
</mgrwt>
</event>
<event>
 4    0  0.1502573E-001  0.3530142E+03  0.7546771E-02  0.1061385E+00
         21   -1    0    0  501  502  0.00000000000E+00  0.00000000000E+00  0.17689225049E+03  0.17689225049E+03  0.00000000000E+00 0. -1.
          2   -1    0    0  502    0 -0.00000000000E+00 -0.00000000000E+00 -0.71199941786E+03  0.71199941786E+03  0.00000000000E+00 0. -1.
         25    1    1    2    0    0  0.33013101081E+03 -0.27410812474E+01 -0.15532787286E+03  0.38567570045E+03  0.12500000000E+03 0.  0.
          2    1    1    2  501    0 -0.33013101081E+03  0.27410812474E+01 -0.37977929451E+03  0.50321596791E+03  0.00000000000E+00 0. -1.
<mgrwt>
<rscale>  3 0.35301416E+03</rscale>
<asrwt>0</asrwt>
<pdfrwt beam="1">  1       21 0.27214193E-01 0.35301416E+03</pdfrwt>
<pdfrwt beam="2">  1        2 0.10953837E+00 0.35301416E+03</pdfrwt>
<totfact> 0.64092377E+03</totfact>
</mgrwt>
</event>
<event>
 4    0  0.1002184E-001  0.2404274E+03  0.7546771E-02  0.1119508E+00
         -1   -1    0    0    0  501 -0.00000000000E+00  0.00000000000E+00  0.39736572835E+02  0.39736572835E+02  0.00000000000E+00 0. -1.
         21   -1    0    0  501  502  0.00000000000E+00 -0.00000000000E+00 -0.19393129392E+04  0.19393129392E+04  0.00000000000E+00 0. -1.
         25    1    1    2    0    0 -0.33587514665E+02 -0.20261340451E+03 -0.15865392488E+04  0.16046532650E+04  0.12500000000E+03 0.  0.
         -1    1    1    2    0  502  0.33587514665E+02  0.20261340451E+03 -0.31303711752E+03  0.37439624701E+03  0.00000000000E+00 0. -1.
<mgrwt>
<rscale>  3 0.24042735E+03</rscale>
<asrwt>0</asrwt>
<pdfrwt beam="1">  1       21 0.29835569E+00 0.24042735E+03</pdfrwt>
<pdfrwt beam="2">  1       -1 0.61133219E-02 0.24042735E+03</pdfrwt>
<totfact> 0.38611536E+02</totfact>
</mgrwt>
</event>
<event>
 4    0  0.1321199E-001  0.2613171E+03  0.7546771E-02  0.1106354E+00
          2   -1    0    0  502    0 -0.00000000000E+00  0.00000000000E+00  0.66247040193E+03  0.66247040193E+03  0.00000000000E+00 0.  1.
         21   -1    0    0  501  502  0.00000000000E+00 -0.00000000000E+00 -0.38478186346E+03  0.38478186346E+03  0.00000000000E+00 0.  1.
         25    1    1    2    0    0  0.15754801895E+03 -0.16685401573E+03 -0.31641313373E+03  0.41037045707E+03  0.12500000000E+03 0.  0.
          2    1    1    2  501    0 -0.15754801895E+03  0.16685401573E+03  0.59410167220E+03  0.63688180831E+03  0.00000000000E+00 0.  1.
<mgrwt>
<rscale>  3 0.26131713E+03</rscale>
<asrwt>0</asrwt>
<pdfrwt beam="1">  1       21 0.59197210E-01 0.26131713E+03</pdfrwt>
<pdfrwt beam="2">  1        2 0.10191852E+00 0.26131713E+03</pdfrwt>
<totfact> 0.14612476E+03</totfact>
</mgrwt>
</event>
<event>
 4    0  0.1219017E-001  0.2914680E+03  0.7546771E-02  0.1089585E+00
          2   -1    0    0  502    0 -0.00000000000E+00  0.00000000000E+00  0.29852875359E+03  0.29852875359E+03  0.00000000000E+00 0.  1.
         21   -1    0    0  501  502  0.00000000000E+00 -0.00000000000E+00 -0.86278222710E+03  0.86278222710E+03  0.00000000000E+00 0. -1.
         25    1    1    2    0    0  0.14958572601E+03 -0.21668572995E+03 -0.77246959172E+03  0.82562876956E+03  0.12500000000E+03 0.  0.
          2    1    1    2  501    0 -0.14958572601E+03  0.21668572995E+03  0.20821611821E+03  0.33568221114E+03  0.00000000000E+00 0.  1.
<mgrwt>
<rscale>  3 0.29146800E+03</rscale>
<asrwt>0</asrwt>
<pdfrwt beam="1">  1       21 0.13273573E+00 0.29146800E+03</pdfrwt>
<pdfrwt beam="2">  1        2 0.45927501E-01 0.29146800E+03</pdfrwt>
<totfact> 0.53088882E+02</totfact>
</mgrwt>
</event>
<event>
 4    0  0.1395367E-001  0.3326034E+03  0.7546771E-02  0.1069991E+00
          2   -1    0    0  502    0 -0.00000000000E+00  0.00000000000E+00  0.52811496395E+03  0.52811496395E+03  0.00000000000E+00 0.  1.
         21   -1    0    0  501  502  0.00000000000E+00 -0.00000000000E+00 -0.19439843100E+03  0.19439843100E+03  0.00000000000E+00 0.  1.
         25    1    1    2    0    0 -0.55136862214E+01 -0.30817141084E+03  0.17423328257E+03  0.37547603912E+03  0.12500000000E+03 0.  0.
          2    1    1    2  501    0  0.55136862214E+01  0.30817141084E+03  0.15948325038E+03  0.34703735584E+03  0.00000000000E+00 0.  1.
<mgrwt>
<rscale>  3 0.33260340E+03</rscale>
<asrwt>0</asrwt>
<pdfrwt beam="1">  1       21 0.29907451E-01 0.33260340E+03</pdfrwt>
<pdfrwt beam="2">  1        2 0.81248455E-01 0.33260340E+03</pdfrwt>
<totfact> 0.76183634E+03</totfact>
</mgrwt>
</event>
<event>
 4    0  0.1002184E-001  0.2588597E+03  0.7546771E-02  0.1107830E+00
         21   -1    0    0  501  502  0.00000000000E+00  0.00000000000E+00  0.13803621696E+04  0.13803621696E+04  0.00000000000E+00 0. -1.
          4   -1    0    0  502    0 -0.00000000000E+00 -0.00000000000E+00 -0.53403278066E+02  0.53403278066E+02  0.00000000000E+00 0. -1.
         25    1    1    2    0    0 -0.15839123954E+03 -0.16215912527E+03  0.10190613662E+04  0.10514249544E+04  0.12500000000E+03 0.  0.
          4    1    1    2  501    0  0.15839123954E+03  0.16215912527E+03  0.30789752528E+03  0.38234049320E+03  0.00000000000E+00 0. -1.
<mgrwt>
<rscale>  3 0.25885974E+03</rscale>
<asrwt>0</asrwt>
<pdfrwt beam="1">  1       21 0.21236338E+00 0.25885974E+03</pdfrwt>
<pdfrwt beam="2">  1        4 0.82158900E-02 0.25885974E+03</pdfrwt>
<totfact> 0.48868690E+02</totfact>
</mgrwt>
</event>
<event>
 4    0  0.1002184E-001  0.3619438E+03  0.7546771E-02  0.1057817E+00
          1   -1    0    0  502    0 -0.00000000000E+00  0.00000000000E+00  0.43979666336E+04  0.43979666336E+04  0.00000000000E+00 0. -1.
         21   -1    0    0  501  502  0.00000000000E+00 -0.00000000000E+00 -0.98746135169E+02  0.98746135169E+02  0.00000000000E+00 0. -1.
         25    1    1    2    0    0 -0.21858245065E+03 -0.25999999220E+03  0.26590645892E+03  0.44912083961E+03  0.12500000000E+03 0.  0.
          1    1    1    2  501    0  0.21858245065E+03  0.25999999220E+03  0.40333140395E+04  0.40475919292E+04  0.00000000000E+00 0. -1.
<mgrwt>
<rscale>  3 0.36194376E+03</rscale>
<asrwt>0</asrwt>
<pdfrwt beam="1">  1       21 0.15191716E-01 0.36194376E+03</pdfrwt>
<pdfrwt beam="2">  1        1 0.67661010E+00 0.36194376E+03</pdfrwt>
<totfact> 0.21883548E+01</totfact>
</mgrwt>
</event>
<event>
 4    0  0.1430877E-001  0.2709932E+03  0.7546771E-02  0.1100713E+00
         -2   -1    0    0    0  501 -0.00000000000E+00  0.00000000000E+00  0.92632078580E+02  0.92632078580E+02  0.00000000000E+00 0. -1.
         21   -1    0    0  501  502  0.00000000000E+00 -0.00000000000E+00 -0.78011936132E+03  0.78011936132E+03  0.00000000000E+00 0. -1.
         25    1    1    2    0    0  0.15646313056E+03  0.18256944675E+03 -0.49668101945E+03  0.56579974301E+03  0.12500000000E+03 0.  0.
         -2    1    1    2    0  502 -0.15646313056E+03 -0.18256944675E+03 -0.19080626329E+03  0.30695169689E+03  0.00000000000E+00 0. -1.
<mgrwt>
<rscale>  3 0.27099320E+03</rscale>
<asrwt>0</asrwt>
<pdfrwt beam="1">  1       21 0.12001836E+00 0.27099320E+03</pdfrwt>
<pdfrwt beam="2">  1       -2 0.14251090E-01 0.27099320E+03</pdfrwt>
<totfact> 0.15133617E+03</totfact>
</mgrwt>
</event>
<event>
 4    0  0.1420045E-001  0.4859531E+03  0.7546771E-02  0.1017512E+00
          1   -1    0    0  502    0 -0.00000000000E+00  0.00000000000E+00  0.11271325012E+04  0.11271325012E+04  0.00000000000E+00 0. -1.
         21   -1    0    0  501  502  0.00000000000E+00 -0.00000000000E+00 -0.32754266814E+03  0.32754266814E+03  0.00000000000E+00 0. -1.
         25    1    1    2    0    0 -0.46806877263E+03  0.37908854604E+02 -0.45289637711E+02  0.48805902149E+03  0.12500000000E+03 0.  0.
          1    1    1    2  501    0  0.46806877263E+03 -0.37908854604E+02  0.84487947078E+03  0.96661614786E+03  0.00000000000E+00 0. -1.
<mgrwt>
<rscale>  3 0.48595314E+03</rscale>
<asrwt>0</asrwt>
<pdfrwt beam="1">  1       21 0.50391180E-01 0.48595314E+03</pdfrwt>
<pdfrwt beam="2">  1        1 0.17340500E+00 0.48595314E+03</pdfrwt>
<totfact> 0.48342445E+02</totfact>
</mgrwt>
</event>
<event>
 4    0  0.1082422E-001  0.2577413E+03  0.7546771E-02  0.1108508E+00
         21   -1    0    0  501  502  0.00000000000E+00  0.00000000000E+00  0.85815936404E+02  0.85815936404E+02  0.00000000000E+00 0.  1.
          2   -1    0    0  502    0 -0.00000000000E+00 -0.00000000000E+00 -0.10846702086E+04  0.10846702086E+04  0.00000000000E+00 0. -1.
         25    1    1    2    0    0 -0.25918174339E+02  0.22390580545E+03 -0.16342864890E+03  0.30518762222E+03  0.12500000000E+03 0.  0.
          2    1    1    2  501    0  0.25918174339E+02 -0.22390580545E+03 -0.83542562325E+03  0.86529852274E+03  0.00000000000E+00 0. -1.
<mgrwt>
<rscale>  3 0.25774127E+03</rscale>
<asrwt>0</asrwt>
<pdfrwt beam="1">  1       21 0.13202452E-01 0.25774127E+03</pdfrwt>
<pdfrwt beam="2">  1        2 0.16687234E+00 0.25774127E+03</pdfrwt>
<totfact> 0.14459519E+04</totfact>
</mgrwt>
</event>
<event>
 4    0  0.1002184E-001  0.5375884E+03  0.7546771E-02  0.1004408E+00
         21   -1    0    0  501  502  0.00000000000E+00  0.00000000000E+00  0.25272962615E+03  0.25272962615E+03  0.00000000000E+00 0. -1.
          1   -1    0    0  502    0 -0.00000000000E+00 -0.00000000000E+00 -0.13131353567E+04  0.13131353567E+04  0.00000000000E+00 0.  1.
         25    1    1    2    0    0 -0.51261463556E+03  0.10296861602E+03 -0.23035006582E+03  0.58486105470E+03  0.12500000000E+03 0.  0.
          1    1    1    2  501    0  0.51261463556E+03 -0.10296861602E+03 -0.83005566470E+03  0.98100392812E+03  0.00000000000E+00 0.  1.
<mgrwt>
<rscale>  3 0.53758841E+03</rscale>
<asrwt>0</asrwt>
<pdfrwt beam="1">  1       21 0.38881481E-01 0.53758841E+03</pdfrwt>
<pdfrwt beam="2">  1        1 0.20202083E+00 0.53758841E+03</pdfrwt>
<totfact> 0.60576140E+02</totfact>
</mgrwt>
</event>
<event>
 4    0  0.1002184E-001  0.2545074E+03  0.7546771E-02  0.1110489E+00
          1   -1    0    0  502    0 -0.00000000000E+00  0.00000000000E+00  0.28240229842E+03  0.28240229842E+03  0.00000000000E+00 0. -1.
         21   -1    0    0  501  502  0.00000000000E+00 -0.00000000000E+00 -0.21559466596E+03  0.21559466596E+03  0.00000000000E+00 0.  1.
         25    1    1    2    0    0  0.18053010282E+03 -0.12867750559E+03 -0.29645201077E+02  0.25622813354E+03  0.12500000000E+03 0.  0.
          1    1    1    2  501    0 -0.18053010282E+03  0.12867750559E+03  0.96452833541E+02  0.24176883084E+03  0.00000000000E+00 0. -1.
<mgrwt>
<rscale>  3 0.25450740E+03</rscale>
<asrwt>0</asrwt>
<pdfrwt beam="1">  1       21 0.33168410E-01 0.25450740E+03</pdfrwt>
<pdfrwt beam="2">  1        1 0.43446507E-01 0.25450740E+03</pdfrwt>
<totfact> 0.89279206E+03</totfact>
</mgrwt>
</event>
<event>
 4    0  0.1002184E-001  0.3242864E+03  0.7546771E-02  0.1073693E+00
         21   -1    0    0  501  502  0.00000000000E+00  0.00000000000E+00  0.52713892284E+03  0.52713892284E+03  0.00000000000E+00 0. -1.
         -1   -1    0    0    0  501 -0.00000000000E+00 -0.00000000000E+00 -0.21115576618E+03  0.21115576618E+03  0.00000000000E+00 0.  1.
         25    1    1    2    0    0  0.29632319517E+03 -0.41584084046E+02  0.29490390548E+03  0.43832634590E+03  0.12500000000E+03 0.  0.
         -1    1    1    2    0  502 -0.29632319517E+03  0.41584084046E+02  0.21079251182E+02  0.29996834312E+03  0.00000000000E+00 0.  1.
<mgrwt>
<rscale>  3 0.32428640E+03</rscale>
<asrwt>0</asrwt>
<pdfrwt beam="1">  1       21 0.81098296E-01 0.32428640E+03</pdfrwt>
<pdfrwt beam="2">  1       -1 0.32485503E-01 0.32428640E+03</pdfrwt>
<totfact> 0.10413438E+03</totfact>
</mgrwt>
</event>
<event>
 4    0  0.1133557E-001  0.4008344E+03  0.7546771E-02  0.1043491E+00
          1   -1    0    0  502    0 -0.00000000000E+00  0.00000000000E+00  0.25979746412E+04  0.25979746412E+04  0.00000000000E+00 0. -1.
         21   -1    0    0  501  502  0.00000000000E+00 -0.00000000000E+00 -0.64015519587E+02  0.64015519587E+02  0.00000000000E+00 0. -1.
         25    1    1    2    0    0 -0.54499405239E+02 -0.37692576036E+03  0.91686916036E+03  0.10006584188E+04  0.12500000000E+03 0.  0.
          1    1    1    2  501    0  0.54499405239E+02  0.37692576036E+03  0.16170899613E+04  0.16613317420E+04  0.00000000000E+00 0. -1.
<mgrwt>
<rscale>  3 0.40083440E+03</rscale>
<asrwt>0</asrwt>
<pdfrwt beam="1">  1       21 0.98485435E-02 0.40083440E+03</pdfrwt>
<pdfrwt beam="2">  1        1 0.39968832E+00 0.40083440E+03</pdfrwt>
<totfact> 0.11952130E+03</totfact>
</mgrwt>
</event>
<event>
 4    0  0.1002184E-001  0.2802897E+03  0.7546771E-02  0.1095531E+00
         21   -1    0    0  501  502  0.00000000000E+00  0.00000000000E+00  0.56910011586E+03  0.56910011586E+03  0.00000000000E+00 0. -1.
          2   -1    0    0  502    0 -0.00000000000E+00 -0.00000000000E+00 -0.31018269928E+04  0.31018269928E+04  0.00000000000E+00 0. -1.
         25    1    1    2    0    0 -0.52251520729E+02 -0.24537130857E+03  0.52914434541E+03  0.59879548994E+03  0.12500000000E+03 0.  0.
          2    1    1    2  501    0  0.52251520729E+02  0.24537130857E+03 -0.30618712224E+04  0.30721316188E+04  0.00000000000E+00 0. -1.
<mgrwt>
<rscale>  3 0.28028967E+03</rscale>
<asrwt>0</asrwt>
<pdfrwt beam="1">  1       21 0.87553864E-01 0.28028967E+03</pdfrwt>
<pdfrwt beam="2">  1        2 0.47720415E+00 0.28028967E+03</pdfrwt>
<totfact> 0.24404015E+01</totfact>
</mgrwt>
</event>
<event>
 4    0  0.1598047E-001  0.2496202E+03  0.7546771E-02  0.1113545E+00
          2   -1    0    0  502    0 -0.00000000000E+00  0.00000000000E+00  0.18695513596E+04  0.18695513596E+04  0.00000000000E+00 0. -1.
         21   -1    0    0  501  502  0.00000000000E+00 -0.00000000000E+00 -0.31092896261E+02  0.31092896261E+02  0.00000000000E+00 0. -1.
         25    1    1    2    0    0  0.11750807110E+02  0.21574792065E+03  0.73502120371E+03  0.77625151635E+03  0.12500000000E+03 0.  0.
          2    1    1    2  501    0 -0.11750807110E+02 -0.21574792065E+03  0.11034372597E+04  0.11243927396E+04  0.00000000000E+00 0. -1.
<mgrwt>
<rscale>  3 0.24962020E+03</rscale>
<asrwt>0</asrwt>
<pdfrwt beam="1">  1       21 0.47835240E-02 0.24962020E+03</pdfrwt>
<pdfrwt beam="2">  1        2 0.28762320E+00 0.24962020E+03</pdfrwt>
<totfact> 0.32171025E+04</totfact>
</mgrwt>
</event>
<event>
 4    0  0.1703835E-001  0.2793880E+03  0.7546771E-02  0.1096024E+00
         21   -1    0    0  501  502  0.00000000000E+00  0.00000000000E+00  0.65156781536E+03  0.65156781536E+03  0.00000000000E+00 0.  1.
          2   -1    0    0  502    0 -0.00000000000E+00 -0.00000000000E+00 -0.92551282547E+03  0.92551282547E+03  0.00000000000E+00 0. -1.
         25    1    1    2    0    0 -0.26419377271E+02 -0.24846458962E+03  0.60334961139E+03  0.66489727729E+03  0.12500000000E+03 0.  0.
          2    1    1    2  501    0  0.26419377271E+02  0.24846458962E+03 -0.87729462150E+03  0.91218336353E+03  0.00000000000E+00 0. -1.
<mgrwt>
<rscale>  3 0.27938797E+03</rscale>
<asrwt>0</asrwt>
<pdfrwt beam="1">  1       21 0.10024120E+00 0.27938797E+03</pdfrwt>
<pdfrwt beam="2">  1        2 0.14238659E+00 0.27938797E+03</pdfrwt>
<totfact> 0.28668968E+02</totfact>
</mgrwt>
</event>
<event>
 4    0  0.1462318E-001  0.2616729E+03  0.7546771E-02  0.1106142E+00
         21   -1    0    0  501  502  0.00000000000E+00  0.00000000000E+00  0.21798727208E+03  0.21798727208E+03  0.00000000000E+00 0.  1.
          2   -1    0    0  502    0 -0.00000000000E+00 -0.00000000000E+00 -0.28554680601E+03  0.28554680601E+03  0.00000000000E+00 0.  1.
         25    1    1    2    0    0 -0.17520369959E+03  0.14883330476E+03  0.72753094329E+01  0.26177398473E+03  0.12500000000E+03 0.  0.
          2    1    1    2  501    0  0.17520369959E+03 -0.14883330476E+03 -0.74834843361E+02  0.24176009335E+03  0.00000000000E+00 0.  1.
<mgrwt>
<rscale>  3 0.26167287E+03</rscale>
<asrwt>0</asrwt>
<pdfrwt beam="1">  1       21 0.33536503E-01 0.26167287E+03</pdfrwt>
<pdfrwt beam="2">  1        2 0.43930278E-01 0.26167287E+03</pdfrwt>
<totfact> 0.12092556E+04</totfact>
</mgrwt>
</event>
<event>
 4    0  0.1002184E-001  0.2511631E+03  0.7546771E-02  0.1112572E+00
          4   -1    0    0  502    0 -0.00000000000E+00  0.00000000000E+00  0.12658911277E+03  0.12658911277E+03  0.00000000000E+00 0. -1.
         21   -1    0    0  501  502  0.00000000000E+00 -0.00000000000E+00 -0.16114803892E+04  0.16114803892E+04  0.00000000000E+00 0. -1.
         25    1    1    2    0    0 -0.11509815815E+03  0.18496025386E+03 -0.14988751203E+04  0.15197728474E+04  0.12500000000E+03 0.  0.
          4    1    1    2  501    0  0.11509815815E+03 -0.18496025386E+03  0.13983843816E+02  0.21829665459E+03  0.00000000000E+00 0. -1.
<mgrwt>
<rscale>  3 0.25116306E+03</rscale>
<asrwt>0</asrwt>
<pdfrwt beam="1">  1       21 0.24792006E+00 0.25116306E+03</pdfrwt>
<pdfrwt beam="2">  1        4 0.19475248E-01 0.25116306E+03</pdfrwt>
<totfact> 0.65919010E+01</totfact>
</mgrwt>
</event>
<event>
 4    0  0.1002184E-001  0.2790264E+03  0.7546771E-02  0.1096222E+00
         21   -1    0    0  501  502  0.00000000000E+00  0.00000000000E+00  0.71942556093E+02  0.71942556093E+02  0.00000000000E+00 0.  1.
          3   -1    0    0  502    0 -0.00000000000E+00 -0.00000000000E+00 -0.97981828764E+03  0.97981828764E+03  0.00000000000E+00 0. -1.
         25    1    1    2    0    0 -0.24837097856E+03  0.23294093735E+02 -0.42805969020E+03  0.51097050420E+03  0.12500000000E+03 0.  0.
          3    1    1    2  501    0  0.24837097856E+03 -0.23294093735E+02 -0.47981604135E+03  0.54079033953E+03  0.00000000000E+00 0. -1.
<mgrwt>
<rscale>  3 0.27902645E+03</rscale>
<asrwt>0</asrwt>
<pdfrwt beam="1">  1       21 0.11068086E-01 0.27902645E+03</pdfrwt>
<pdfrwt beam="2">  1        3 0.15074127E+00 0.27902645E+03</pdfrwt>
<totfact> 0.11318575E+03</totfact>
</mgrwt>
</event>
<event>
 4    0  0.1240794E-001  0.4072134E+03  0.7546771E-02  0.1041310E+00
         21   -1    0    0  501  502  0.00000000000E+00  0.00000000000E+00  0.73090773325E+03  0.73090773325E+03  0.00000000000E+00 0.  1.
         -2   -1    0    0    0  501 -0.00000000000E+00 -0.00000000000E+00 -0.26540455869E+03  0.26540455869E+03  0.00000000000E+00 0.  1.
         25    1    1    2    0    0  0.31799068346E+03 -0.22153933209E+03  0.22674839584E+02  0.40784420896E+03  0.12500000000E+03 0.  0.
         -2    1    1    2    0  502 -0.31799068346E+03  0.22153933209E+03  0.44282833498E+03  0.58846808298E+03  0.00000000000E+00 0.  1.
<mgrwt>
<rscale>  3 0.40721340E+03</rscale>
<asrwt>0</asrwt>
<pdfrwt beam="1">  1       21 0.11244734E+00 0.40721340E+03</pdfrwt>
<pdfrwt beam="2">  1       -2 0.40831471E-01 0.40721340E+03</pdfrwt>
<totfact> 0.26353717E+02</totfact>
</mgrwt>
</event>
<event>
 4    0  0.1171863E-001  0.2508805E+03  0.7546771E-02  0.1112750E+00
         21   -1    0    0  501  502  0.00000000000E+00  0.00000000000E+00  0.50609129346E+02  0.50609129346E+02  0.00000000000E+00 0.  1.
          2   -1    0    0  502    0 -0.00000000000E+00 -0.00000000000E+00 -0.22330237219E+04  0.22330237219E+04  0.00000000000E+00 0. -1.
         25    1    1    2    0    0  0.16375689979E+03  0.14317714752E+03 -0.31080661674E+03  0.39942680282E+03  0.12500000000E+03 0.  0.
          2    1    1    2  501    0 -0.16375689979E+03 -0.14317714752E+03 -0.18716079759E+04  0.18842060485E+04  0.00000000000E+00 0. -1.
<mgrwt>
<rscale>  3 0.25088049E+03</rscale>
<asrwt>0</asrwt>
<pdfrwt beam="1">  1       21 0.77860206E-02 0.25088049E+03</pdfrwt>
<pdfrwt beam="2">  1        2 0.34354208E+00 0.25088049E+03</pdfrwt>
<totfact> 0.89369856E+03</totfact>
</mgrwt>
</event>
<event>
 4    0  0.1475773E-001  0.2542939E+03  0.7546771E-02  0.1110621E+00
         21   -1    0    0  501  502  0.00000000000E+00  0.00000000000E+00  0.86933375270E+02  0.86933375270E+02  0.00000000000E+00 0. -1.
          2   -1    0    0  502    0 -0.00000000000E+00 -0.00000000000E+00 -0.14755081992E+04  0.14755081992E+04  0.00000000000E+00 0. -1.
         25    1    1    2    0    0  0.10699921307E+02 -0.22119204074E+03 -0.13201919253E+03  0.28652133323E+03  0.12500000000E+03 0.  0.
          2    1    1    2  501    0 -0.10699921307E+02  0.22119204074E+03 -0.12565556314E+04  0.12759202413E+04  0.00000000000E+00 0. -1.
<mgrwt>
<rscale>  3 0.25429394E+03</rscale>
<asrwt>0</asrwt>
<pdfrwt beam="1">  1       21 0.13374366E-01 0.25429394E+03</pdfrwt>
<pdfrwt beam="2">  1        2 0.22700126E+00 0.25429394E+03</pdfrwt>
<totfact> 0.85472047E+03</totfact>
</mgrwt>
</event>
<event>
 4    0  0.1078290E-001  0.3268475E+03  0.7546771E-02  0.1072540E+00
         21   -1    0    0  501  502  0.00000000000E+00  0.00000000000E+00  0.61823670413E+02  0.61823670413E+02  0.00000000000E+00 0.  1.
          1   -1    0    0  502    0 -0.00000000000E+00 -0.00000000000E+00 -0.30107914276E+04  0.30107914276E+04  0.00000000000E+00 0. -1.
         25    1    1    2    0    0  0.29465767849E+03  0.66189958050E+02 -0.45388380422E+03  0.55932080756E+03  0.12500000000E+03 0.  0.
          1    1    1    2  501    0 -0.29465767849E+03 -0.66189958050E+02 -0.24950839530E+04  0.25132942905E+04  0.00000000000E+00 0. -1.
<mgrwt>
<rscale>  3 0.32684745E+03</rscale>
<asrwt>0</asrwt>
<pdfrwt beam="1">  1       21 0.95113318E-02 0.32684745E+03</pdfrwt>
<pdfrwt beam="2">  1        1 0.46319878E+00 0.32684745E+03</pdfrwt>
<totfact> 0.67863525E+02</totfact>
</mgrwt>
</event>
<event>
 4    0  0.1327442E-001  0.4980578E+03  0.7546771E-02  0.1014287E+00
         -1   -1    0    0    0  501 -0.00000000000E+00  0.00000000000E+00  0.33329847521E+03  0.33329847521E+03  0.00000000000E+00 0.  1.
         21   -1    0    0  501  502  0.00000000000E+00 -0.00000000000E+00 -0.75929366491E+03  0.75929366491E+03  0.00000000000E+00 0.  1.
         25    1    1    2    0    0 -0.47940297077E+03  0.51081755417E+02 -0.33954164400E+03  0.60278527033E+03  0.12500000000E+03 0.  0.
         -1    1    1    2    0  502  0.47940297077E+03 -0.51081755417E+02 -0.86453545700E+02  0.48980686978E+03  0.00000000000E+00 0.  1.
<mgrwt>
<rscale>  3 0.49805778E+03</rscale>
<asrwt>0</asrwt>
<pdfrwt beam="1">  1       21 0.11681441E+00 0.49805778E+03</pdfrwt>
<pdfrwt beam="2">  1       -1 0.51276689E-01 0.49805778E+03</pdfrwt>
<totfact> 0.18146206E+02</totfact>
</mgrwt>
</event>
<event>
 4    0  0.1203536E-001  0.4041853E+03  0.7546771E-02  0.1042340E+00
         21   -1    0    0  501  502  0.00000000000E+00  0.00000000000E+00  0.15477999919E+03  0.15477999919E+03  0.00000000000E+00 0. -1.
          2   -1    0    0  502    0 -0.00000000000E+00 -0.00000000000E+00 -0.19078997148E+04  0.19078997148E+04  0.00000000000E+00 0.  1.
         25    1    1    2    0    0  0.32830455583E+03  0.19989208526E+03 -0.17853608331E+03  0.44186067960E+03  0.12500000000E+03 0.  0.
          2    1    1    2  501    0 -0.32830455583E+03 -0.19989208526E+03 -0.15745836323E+04  0.16208190344E+04  0.00000000000E+00 0.  1.
<mgrwt>
<rscale>  3 0.40418526E+03</rscale>
<asrwt>0</asrwt>
<pdfrwt beam="1">  1       21 0.23812308E-01 0.40418526E+03</pdfrwt>
<pdfrwt beam="2">  1        2 0.29352303E+00 0.40418526E+03</pdfrwt>
<totfact> 0.16318960E+03</totfact>
</mgrwt>
</event>
<event>
 4    0  0.1002184E-001  0.2955283E+03  0.7546771E-02  0.1087498E+00
          2   -1    0    0  502    0 -0.00000000000E+00  0.00000000000E+00  0.46082468132E+03  0.46082468132E+03  0.00000000000E+00 0. -1.
         21   -1    0    0  501  502  0.00000000000E+00 -0.00000000000E+00 -0.17492548095E+03  0.17492548095E+03  0.00000000000E+00 0.  1.
         25    1    1    2    0    0  0.11823531048E+03  0.24027561886E+03  0.10990209758E+03  0.31530212926E+03  0.12500000000E+03 0.  0.
          2    1    1    2  501    0 -0.11823531048E+03 -0.24027561886E+03  0.17599710279E+03  0.32044803300E+03  0.00000000000E+00 0. -1.
<mgrwt>
<rscale>  3 0.29552828E+03</rscale>
<asrwt>0</asrwt>
<pdfrwt beam="1">  1       21 0.26911613E-01 0.29552828E+03</pdfrwt>
<pdfrwt beam="2">  1        2 0.70896104E-01 0.29552828E+03</pdfrwt>
<totfact> 0.10995465E+04</totfact>
</mgrwt>
</event>
<event>
 4    0  0.1378032E-001  0.2364950E+03  0.7546771E-02  0.1122150E+00
          2   -1    0    0  502    0 -0.00000000000E+00  0.00000000000E+00  0.15006205626E+04  0.15006205626E+04  0.00000000000E+00 0.  1.
         21   -1    0    0  501  502  0.00000000000E+00 -0.00000000000E+00 -0.14464796133E+03  0.14464796133E+03  0.00000000000E+00 0. -1.
         25    1    1    2    0    0 -0.10986945302E+03  0.16802853031E+03 -0.35713514497E+02  0.23917637597E+03  0.12500000000E+03 0.  0.
          2    1    1    2  501    0  0.10986945302E+03 -0.16802853031E+03  0.13916861158E+04  0.14060921480E+04  0.00000000000E+00 0.  1.
<mgrwt>
<rscale>  3 0.23649500E+03</rscale>
<asrwt>0</asrwt>
<pdfrwt beam="1">  1       21 0.22253534E-01 0.23649500E+03</pdfrwt>
<pdfrwt beam="2">  1        2 0.23086469E+00 0.23649500E+03</pdfrwt>
<totfact> 0.32451353E+03</totfact>
</mgrwt>
</event>
<event>
 4    0  0.1002184E-001  0.3200501E+03  0.7546771E-02  0.1075626E+00
         21   -1    0    0  501  502  0.00000000000E+00  0.00000000000E+00  0.26187360977E+03  0.26187360977E+03  0.00000000000E+00 0. -1.
          2   -1    0    0  502    0 -0.00000000000E+00 -0.00000000000E+00 -0.36591880348E+03  0.36591880348E+03  0.00000000000E+00 0.  1.
         25    1    1    2    0    0  0.29450475429E+03  0.86025602348E+01 -0.16690800335E+02  0.32048500301E+03  0.12500000000E+03 0.  0.
          2    1    1    2  501    0 -0.29450475429E+03 -0.86025602348E+01 -0.87354393376E+02  0.30730741023E+03  0.00000000000E+00 0.  1.
<mgrwt>
<rscale>  3 0.32005008E+03</rscale>
<asrwt>0</asrwt>
<pdfrwt beam="1">  1       21 0.40288248E-01 0.32005008E+03</pdfrwt>
<pdfrwt beam="2">  1        2 0.56295200E-01 0.32005008E+03</pdfrwt>
<totfact> 0.63158175E+03</totfact>
</mgrwt>
</event>
<event>
 4    0  0.1002184E-001  0.4781346E+03  0.7546771E-02  0.1019649E+00
         21   -1    0    0  501  502  0.00000000000E+00  0.00000000000E+00  0.13173198957E+03  0.13173198957E+03  0.00000000000E+00 0. -1.
          2   -1    0    0  502    0 -0.00000000000E+00 -0.00000000000E+00 -0.36295529174E+04  0.36295529174E+04  0.00000000000E+00 0. -1.
         25    1    1    2    0    0  0.42824888487E+01  0.46148601325E+03 -0.38343572538E+03  0.61289121028E+03  0.12500000000E+03 0.  0.
          2    1    1    2  501    0 -0.42824888487E+01 -0.46148601325E+03 -0.31143852025E+04  0.31483936967E+04  0.00000000000E+00 0. -1.
<mgrwt>
<rscale>  3 0.47813458E+03</rscale>
<asrwt>0</asrwt>
<pdfrwt beam="1">  1       21 0.20266462E-01 0.47813458E+03</pdfrwt>
<pdfrwt beam="2">  1        2 0.55839269E+00 0.47813458E+03</pdfrwt>
<totfact> 0.20863479E+02</totfact>
</mgrwt>
</event>
<event>
 4    0  0.1011624E-001  0.2370113E+03  0.7546771E-02  0.1121800E+00
          2   -1    0    0  502    0 -0.00000000000E+00  0.00000000000E+00  0.84096179657E+03  0.84096179657E+03  0.00000000000E+00 0.  1.
         21   -1    0    0  501  502  0.00000000000E+00 -0.00000000000E+00 -0.83868015162E+02  0.83868015162E+02  0.00000000000E+00 0. -1.
         25    1    1    2    0    0 -0.18708254610E+03 -0.74494734070E+02  0.13900677240E+03  0.27476758767E+03  0.12500000000E+03 0.  0.
          2    1    1    2  501    0  0.18708254610E+03  0.74494734070E+02  0.61808700900E+03  0.65006222407E+03  0.00000000000E+00 0.  1.
<mgrwt>
<rscale>  3 0.23701127E+03</rscale>
<asrwt>0</asrwt>
<pdfrwt beam="1">  1       21 0.12902772E-01 0.23701127E+03</pdfrwt>
<pdfrwt beam="2">  1        2 0.12937873E+00 0.23701127E+03</pdfrwt>
<totfact> 0.21512337E+04</totfact>
</mgrwt>
</event>
<event>
 4    0  0.1002184E-001  0.5081678E+03  0.7546771E-02  0.1011669E+00
          1   -1    0    0  502    0 -0.00000000000E+00  0.00000000000E+00  0.29378137147E+04  0.29378137147E+04  0.00000000000E+00 0.  1.
         21   -1    0    0  501  502  0.00000000000E+00 -0.00000000000E+00 -0.14649573771E+03  0.14649573771E+03  0.00000000000E+00 0. -1.
         25    1    1    2    0    0  0.32505730391E+03 -0.37006389190E+03  0.41102088637E+03  0.65358450406E+03  0.12500000000E+03 0.  0.
          1    1    1    2  501    0 -0.32505730391E+03  0.37006389190E+03  0.23802970906E+04  0.24307249483E+04  0.00000000000E+00 0.  1.
<mgrwt>
<rscale>  3 0.50816782E+03</rscale>
<asrwt>0</asrwt>
<pdfrwt beam="1">  1       21 0.22537808E-01 0.50816782E+03</pdfrwt>
<pdfrwt beam="2">  1        1 0.45197130E+00 0.50816782E+03</pdfrwt>
<totfact> 0.14451336E+02</totfact>
</mgrwt>
</event>
<event>
 4    0  0.1441871E-001  0.2808490E+03  0.7546771E-02  0.1095226E+00
          2   -1    0    0  502    0 -0.00000000000E+00  0.00000000000E+00  0.26185721021E+04  0.26185721021E+04  0.00000000000E+00 0. -1.
         21   -1    0    0  501  502  0.00000000000E+00 -0.00000000000E+00 -0.61657854075E+02  0.61657854075E+02  0.00000000000E+00 0. -1.
         25    1    1    2    0    0  0.23242523543E+03 -0.96071199649E+02  0.30614263455E+03  0.41545093351E+03  0.12500000000E+03 0.  0.
          2    1    1    2  501    0 -0.23242523543E+03  0.96071199649E+02  0.22507716135E+04  0.22647790227E+04  0.00000000000E+00 0. -1.
<mgrwt>
<rscale>  3 0.28084901E+03</rscale>
<asrwt>0</asrwt>
<pdfrwt beam="1">  1       21 0.94858257E-02 0.28084901E+03</pdfrwt>
<pdfrwt beam="2">  1        2 0.40285716E+00 0.28084901E+03</pdfrwt>
<totfact> 0.38490855E+03</totfact>
</mgrwt>
</event>
<event>
 4    0  0.1571967E-001  0.3054318E+03  0.7546771E-02  0.1082556E+00
         21   -1    0    0  501  502  0.00000000000E+00  0.00000000000E+00  0.41654858546E+02  0.41654858546E+02  0.00000000000E+00 0.  1.
          2   -1    0    0  502    0 -0.00000000000E+00 -0.00000000000E+00 -0.21764571290E+04  0.21764571290E+04  0.00000000000E+00 0.  1.
         25    1    1    2    0    0  0.27843622459E+03 -0.11697444511E+02 -0.84391969470E+03  0.89749039688E+03  0.12500000000E+03 0.  0.
          2    1    1    2  501    0 -0.27843622459E+03  0.11697444511E+02 -0.12908825758E+04  0.13206215907E+04  0.00000000000E+00 0.  1.
<mgrwt>
<rscale>  3 0.30543176E+03</rscale>
<asrwt>0</asrwt>
<pdfrwt beam="1">  1       21 0.64084393E-02 0.30543176E+03</pdfrwt>
<pdfrwt beam="2">  1        2 0.33483958E+00 0.30543176E+03</pdfrwt>
<totfact> 0.13216245E+04</totfact>
</mgrwt>
</event>
<event>
 4    0  0.1528089E-001  0.2566998E+03  0.7546771E-02  0.1109142E+00
          3   -1    0    0  502    0 -0.00000000000E+00  0.00000000000E+00  0.59694514456E+03  0.59694514456E+03  0.00000000000E+00 0.  1.
         21   -1    0    0  501  502  0.00000000000E+00 -0.00000000000E+00 -0.97946146727E+02  0.97946146727E+02  0.00000000000E+00 0.  1.
         25    1    1    2    0    0  0.21829462713E+03  0.51159000388E+02  0.22961458999E+03  0.34440912806E+03  0.12500000000E+03 0.  0.
          3    1    1    2  501    0 -0.21829462713E+03 -0.51159000388E+02  0.26938440784E+03  0.35048216323E+03  0.00000000000E+00 0.  1.
<mgrwt>
<rscale>  3 0.25669980E+03</rscale>
<asrwt>0</asrwt>
<pdfrwt beam="1">  1       21 0.15068638E-01 0.25669980E+03</pdfrwt>
<pdfrwt beam="2">  1        3 0.91837712E-01 0.25669980E+03</pdfrwt>
<totfact> 0.21129437E+03</totfact>
</mgrwt>
</event>
<event>
 4    0  0.1629278E-001  0.2626913E+03  0.7546771E-02  0.1105537E+00
         21   -1    0    0  501  502  0.00000000000E+00  0.00000000000E+00  0.20251437699E+03  0.20251437699E+03  0.00000000000E+00 0. -1.
          2   -1    0    0  502    0 -0.00000000000E+00 -0.00000000000E+00 -0.18695528134E+04  0.18695528134E+04  0.00000000000E+00 0.  1.
         25    1    1    2    0    0 -0.95746760907E+02 -0.21027191937E+03  0.10656115848E+03  0.28348192675E+03  0.12500000000E+03 0.  0.
          2    1    1    2  501    0  0.95746760907E+02  0.21027191937E+03 -0.17735995949E+04  0.17885852637E+04  0.00000000000E+00 0.  1.
<mgrwt>
<rscale>  3 0.26269131E+03</rscale>
<asrwt>0</asrwt>
<pdfrwt beam="1">  1       21 0.31156059E-01 0.26269131E+03</pdfrwt>
<pdfrwt beam="2">  1        2 0.28762350E+00 0.26269131E+03</pdfrwt>
<totfact> 0.10690771E+03</totfact>
</mgrwt>
</event>
<event>
 4    0  0.1488715E-001  0.3334411E+03  0.7546771E-02  0.1069624E+00
          3   -1    0    0  502    0 -0.00000000000E+00  0.00000000000E+00  0.87405170727E+03  0.87405170727E+03  0.00000000000E+00 0.  1.
         21   -1    0    0  501  502  0.00000000000E+00 -0.00000000000E+00 -0.11879138597E+03  0.11879138597E+03  0.00000000000E+00 0.  1.
         25    1    1    2    0    0 -0.25499067080E+03 -0.17475042399E+03  0.42977228708E+03  0.54395511913E+03  0.12500000000E+03 0.  0.
          3    1    1    2  501    0  0.25499067080E+03  0.17475042399E+03  0.32548803423E+03  0.44888797412E+03  0.00000000000E+00 0.  1.
<mgrwt>
<rscale>  3 0.33344108E+03</rscale>
<asrwt>0</asrwt>
<pdfrwt beam="1">  1       21 0.18275598E-01 0.33344108E+03</pdfrwt>
<pdfrwt beam="2">  1        3 0.13446949E+00 0.33344108E+03</pdfrwt>
<totfact> 0.59789253E+02</totfact>
</mgrwt>
</event>
<event>
 4    0  0.1211836E-001  0.3763687E+03  0.7546771E-02  0.1052284E+00
          2   -1    0    0  502    0 -0.00000000000E+00  0.00000000000E+00  0.39075420559E+03  0.39075420559E+03  0.00000000000E+00 0. -1.
         21   -1    0    0  501  502  0.00000000000E+00 -0.00000000000E+00 -0.61230222178E+03  0.61230222178E+03  0.00000000000E+00 0. -1.
         25    1    1    2    0    0  0.30145408715E+03 -0.18749363045E+03 -0.44558763004E+03  0.58326817516E+03  0.12500000000E+03 0.  0.
          2    1    1    2  501    0 -0.30145408715E+03  0.18749363045E+03  0.22403961384E+03  0.41978825220E+03  0.00000000000E+00 0. -1.
<mgrwt>
<rscale>  3 0.37636874E+03</rscale>
<asrwt>0</asrwt>
<pdfrwt beam="1">  1       21 0.94200342E-01 0.37636874E+03</pdfrwt>
<pdfrwt beam="2">  1        2 0.60116031E-01 0.37636874E+03</pdfrwt>
<totfact> 0.89779898E+02</totfact>
</mgrwt>
</event>
<event>
 4    0  0.1848994E-001  0.2528412E+03  0.7546771E-02  0.1111522E+00
         -4   -1    0    0    0  501 -0.00000000000E+00  0.00000000000E+00  0.82142157950E+03  0.82142157950E+03  0.00000000000E+00 0.  1.
         21   -1    0    0  501  502  0.00000000000E+00 -0.00000000000E+00 -0.17777052945E+03  0.17777052945E+03  0.00000000000E+00 0.  1.
         25    1    1    2    0    0 -0.74366250667E+02 -0.20681712315E+03 -0.61811322060E+02  0.26028695934E+03  0.12500000000E+03 0.  0.
         -4    1    1    2    0  502  0.74366250667E+02  0.20681712315E+03  0.70546237210E+03  0.73890514961E+03  0.00000000000E+00 0.  1.
<mgrwt>
<rscale>  3 0.25284118E+03</rscale>
<asrwt>0</asrwt>
<pdfrwt beam="1">  1       21 0.27349313E-01 0.25284118E+03</pdfrwt>
<pdfrwt beam="2">  1       -4 0.12637255E+00 0.25284118E+03</pdfrwt>
<totfact> 0.25994890E+02</totfact>
</mgrwt>
</event>
<event>
 4    0  0.1483610E-001  0.2583455E+03  0.7546771E-02  0.1108141E+00
         21   -1    0    0  501  502  0.00000000000E+00  0.00000000000E+00  0.45292500799E+02  0.45292500799E+02  0.00000000000E+00 0.  1.
          2   -1    0    0  502    0 -0.00000000000E+00 -0.00000000000E+00 -0.18877811310E+04  0.18877811310E+04  0.00000000000E+00 0.  1.
         25    1    1    2    0    0 -0.22325711628E+03 -0.35688302807E+02 -0.42270412507E+03  0.49540001239E+03  0.12500000000E+03 0.  0.
          2    1    1    2  501    0  0.22325711628E+03  0.35688302807E+02 -0.14197845051E+04  0.14376736194E+04  0.00000000000E+00 0.  1.
<mgrwt>
<rscale>  3 0.25834550E+03</rscale>
<asrwt>0</asrwt>
<pdfrwt beam="1">  1       21 0.69680781E-02 0.25834550E+03</pdfrwt>
<pdfrwt beam="2">  1        2 0.29042782E+00 0.25834550E+03</pdfrwt>
<totfact> 0.16448373E+04</totfact>
</mgrwt>
</event>
<event>
 4    0  0.1035193E-001  0.2877298E+03  0.7546771E-02  0.1091540E+00
         21   -1    0    0  501  502  0.00000000000E+00  0.00000000000E+00  0.10433775340E+04  0.10433775340E+04  0.00000000000E+00 0. -1.
          1   -1    0    0  502    0 -0.00000000000E+00 -0.00000000000E+00 -0.11830021676E+03  0.11830021676E+03  0.00000000000E+00 0. -1.
         25    1    1    2    0    0 -0.74748681840E+02  0.24814524618E+03  0.84156843958E+03  0.88939634985E+03  0.12500000000E+03 0.  0.
          1    1    1    2  501    0  0.74748681840E+02 -0.24814524618E+03  0.83508877680E+02  0.27228140092E+03  0.00000000000E+00 0. -1.
<mgrwt>
<rscale>  3 0.28772978E+03</rscale>
<asrwt>0</asrwt>
<pdfrwt beam="1">  1       21 0.16051961E+00 0.28772978E+03</pdfrwt>
<pdfrwt beam="2">  1        1 0.18200034E-01 0.28772978E+03</pdfrwt>
<totfact> 0.73830402E+02</totfact>
</mgrwt>
</event>
<event>
 4    0  0.1002184E-001  0.7741511E+03  0.7546771E-02  0.9598205E-01
         21   -1    0    0  501  502  0.00000000000E+00  0.00000000000E+00  0.87489322168E+03  0.87489322168E+03  0.00000000000E+00 0.  1.
         -3   -1    0    0    0  501 -0.00000000000E+00 -0.00000000000E+00 -0.74923682266E+03  0.74923682266E+03  0.00000000000E+00 0. -1.
         25    1    1    2    0    0  0.11132992336E+03  0.75583768404E+03  0.31700097023E+03  0.83654023906E+03  0.12500000000E+03 0.  0.
         -3    1    1    2    0  502 -0.11132992336E+03 -0.75583768404E+03 -0.19134457121E+03  0.78758980528E+03  0.00000000000E+00 0. -1.
<mgrwt>
<rscale>  3 0.77415112E+03</rscale>
<asrwt>0</asrwt>
<pdfrwt beam="1">  1       21 0.13459896E+00 0.77415112E+03</pdfrwt>
<pdfrwt beam="2">  1       -3 0.11526720E+00 0.77415112E+03</pdfrwt>
<totfact> 0.10574995E+01</totfact>
</mgrwt>
</event>
<event>
 4    0  0.1002184E-001  0.3484621E+03  0.7546771E-02  0.1063248E+00
         -1   -1    0    0    0  501 -0.00000000000E+00  0.00000000000E+00  0.30946636293E+03  0.30946636293E+03  0.00000000000E+00 0. -1.
         21   -1    0    0  501  502  0.00000000000E+00 -0.00000000000E+00 -0.57403383109E+03  0.57403383109E+03  0.00000000000E+00 0.  1.
         25    1    1    2    0    0  0.32108148603E+03  0.52034115833E+02 -0.40058386963E+03  0.53093625464E+03  0.12500000000E+03 0.  0.
         -1    1    1    2    0  502 -0.32108148603E+03 -0.52034115833E+02  0.13601640147E+03  0.35256393938E+03  0.00000000000E+00 0. -1.
<mgrwt>
<rscale>  3 0.34846215E+03</rscale>
<asrwt>0</asrwt>
<pdfrwt beam="1">  1       21 0.88312896E-01 0.34846215E+03</pdfrwt>
<pdfrwt beam="2">  1       -1 0.47610210E-01 0.34846215E+03</pdfrwt>
<totfact> 0.42867446E+02</totfact>
</mgrwt>
</event>
<event>
 4    0  0.1002184E-001  0.2413879E+03  0.7546771E-02  0.1118872E+00
          1   -1    0    0  502    0 -0.00000000000E+00  0.00000000000E+00  0.92505856653E+03  0.92505856653E+03  0.00000000000E+00 0.  1.
         21   -1    0    0  501  502  0.00000000000E+00 -0.00000000000E+00 -0.70714322789E+02  0.70714322789E+02  0.00000000000E+00 0. -1.
         25    1    1    2    0    0 -0.40299326078E+02 -0.20253172106E+03  0.21273837223E+03  0.32175417439E+03  0.12500000000E+03 0.  0.
          1    1    1    2  501    0  0.40299326078E+02  0.20253172106E+03  0.64160587152E+03  0.67401871493E+03  0.00000000000E+00 0.  1.
<mgrwt>
<rscale>  3 0.24138793E+03</rscale>
<asrwt>0</asrwt>
<pdfrwt beam="1">  1       21 0.10879127E-01 0.24138793E+03</pdfrwt>
<pdfrwt beam="2">  1        1 0.14231669E+00 0.24138793E+03</pdfrwt>
<totfact> 0.14148395E+04</totfact>
</mgrwt>
</event>
<event>
 4    0  0.1002184E-001  0.4414284E+03  0.7546771E-02  0.1030309E+00
         -1   -1    0    0    0  501 -0.00000000000E+00  0.00000000000E+00  0.98831630159E+03  0.98831630159E+03  0.00000000000E+00 0.  1.
         21   -1    0    0  501  502  0.00000000000E+00 -0.00000000000E+00 -0.28474162765E+03  0.28474162765E+03  0.00000000000E+00 0. -1.
         25    1    1    2    0    0 -0.17504203264E+03 -0.38547932250E+03 -0.12037486777E+02  0.44159248448E+03  0.12500000000E+03 0.  0.
         -1    1    1    2    0  502  0.17504203264E+03  0.38547932250E+03  0.71561216072E+03  0.83146544476E+03  0.00000000000E+00 0.  1.
<mgrwt>
<rscale>  3 0.44142839E+03</rscale>
<asrwt>0</asrwt>
<pdfrwt beam="1">  1       21 0.43806405E-01 0.44142839E+03</pdfrwt>
<pdfrwt beam="2">  1       -1 0.15204866E+00 0.44142839E+03</pdfrwt>
<totfact> 0.15648822E+02</totfact>
</mgrwt>
</event>
<event>
 4    0  0.1145933E-001  0.2520117E+03  0.7546771E-02  0.1112040E+00
         21   -1    0    0  501  502  0.00000000000E+00  0.00000000000E+00  0.80347241064E+03  0.80347241064E+03  0.00000000000E+00 0.  1.
          2   -1    0    0  502    0 -0.00000000000E+00 -0.00000000000E+00 -0.26304973348E+03  0.26304973348E+03  0.00000000000E+00 0.  1.
         25    1    1    2    0    0  0.53383340391E+02 -0.21221483184E+03  0.73294533482E+03  0.77506050069E+03  0.12500000000E+03 0.  0.
          2    1    1    2  501    0 -0.53383340391E+02  0.21221483184E+03 -0.19252265766E+03  0.29146164344E+03  0.00000000000E+00 0.  1.
<mgrwt>
<rscale>  3 0.25201174E+03</rscale>
<asrwt>0</asrwt>
<pdfrwt beam="1">  1       21 0.12361114E+00 0.25201174E+03</pdfrwt>
<pdfrwt beam="2">  1        2 0.40469190E-01 0.25201174E+03</pdfrwt>
<totfact> 0.74262094E+02</totfact>
</mgrwt>
</event>
<event>
 4    0  0.1639976E-001  0.2520858E+03  0.7546771E-02  0.1111994E+00
         21   -1    0    0  501  502  0.00000000000E+00  0.00000000000E+00  0.52507028953E+02  0.52507028953E+02  0.00000000000E+00 0.  1.
          1   -1    0    0  502    0 -0.00000000000E+00 -0.00000000000E+00 -0.11096824264E+04  0.11096824264E+04  0.00000000000E+00 0.  1.
         25    1    1    2    0    0 -0.14245200646E+03 -0.16622181251E+03 -0.43679393932E+03  0.50431756912E+03  0.12500000000E+03 0.  0.
          1    1    1    2  501    0  0.14245200646E+03  0.16622181251E+03 -0.62038145810E+03  0.65787188620E+03  0.00000000000E+00 0.  1.
<mgrwt>
<rscale>  3 0.25208583E+03</rscale>
<asrwt>0</asrwt>
<pdfrwt beam="1">  1       21 0.80780041E-02 0.25208583E+03</pdfrwt>
<pdfrwt beam="2">  1        1 0.17072038E+00 0.25208583E+03</pdfrwt>
<totfact> 0.17421204E+04</totfact>
</mgrwt>
</event>
<event>
 4    0  0.1002184E-001  0.2635374E+03  0.7546771E-02  0.1105036E+00
         21   -1    0    0  501  502  0.00000000000E+00  0.00000000000E+00  0.95393026645E+03  0.95393026645E+03  0.00000000000E+00 0.  1.
          4   -1    0    0  502    0 -0.00000000000E+00 -0.00000000000E+00 -0.11877271781E+03  0.11877271781E+03  0.00000000000E+00 0. -1.
         25    1    1    2    0    0 -0.11351819134E+03 -0.20233779193E+03  0.79462028141E+03  0.83718179234E+03  0.12500000000E+03 0.  0.
          4    1    1    2  501    0  0.11351819134E+03  0.20233779193E+03  0.40537267228E+02  0.23552119191E+03  0.00000000000E+00 0. -1.
<mgrwt>
<rscale>  3 0.26353740E+03</rscale>
<asrwt>0</asrwt>
<pdfrwt beam="1">  1       21 0.14675850E+00 0.26353740E+03</pdfrwt>
<pdfrwt beam="2">  1        4 0.18272726E-01 0.26353740E+03</pdfrwt>
<totfact> 0.34810274E+02</totfact>
</mgrwt>
</event>
<event>
 4    0  0.1268049E-001  0.3869373E+03  0.7546771E-02  0.1048399E+00
          2   -1    0    0  502    0 -0.00000000000E+00  0.00000000000E+00  0.22058163805E+04  0.22058163805E+04  0.00000000000E+00 0.  1.
         21   -1    0    0  501  502  0.00000000000E+00 -0.00000000000E+00 -0.74031564460E+02  0.74031564460E+02  0.00000000000E+00 0.  1.
         25    1    1    2    0    0  0.41113305908E+02  0.36387520721E+03  0.67790829829E+03  0.78056398279E+03  0.12500000000E+03 0.  0.
          2    1    1    2  501    0 -0.41113305908E+02 -0.36387520721E+03  0.14538765178E+04  0.14992839622E+04  0.00000000000E+00 0.  1.
<mgrwt>
<rscale>  3 0.38693730E+03</rscale>
<asrwt>0</asrwt>
<pdfrwt beam="1">  1       21 0.11389473E-01 0.38693730E+03</pdfrwt>
<pdfrwt beam="2">  1        2 0.33935632E+00 0.38693730E+03</pdfrwt>
<totfact> 0.45004726E+03</totfact>
</mgrwt>
</event>
<event>
 4    0  0.1569436E-001  0.2541708E+03  0.7546771E-02  0.1110697E+00
         21   -1    0    0  501  502  0.00000000000E+00  0.00000000000E+00  0.61002706559E+03  0.61002706559E+03  0.00000000000E+00 0. -1.
          2   -1    0    0  502    0 -0.00000000000E+00 -0.00000000000E+00 -0.14805905104E+04  0.14805905104E+04  0.00000000000E+00 0. -1.
         25    1    1    2    0    0 -0.22072888511E+03 -0.16018038785E+02  0.57475830862E+03  0.62845042097E+03  0.12500000000E+03 0.  0.
          2    1    1    2  501    0  0.22072888511E+03  0.16018038785E+02 -0.14453217534E+04  0.14621671550E+04  0.00000000000E+00 0. -1.
<mgrwt>
<rscale>  3 0.25417084E+03</rscale>
<asrwt>0</asrwt>
<pdfrwt beam="1">  1       21 0.93850320E-01 0.25417084E+03</pdfrwt>
<pdfrwt beam="2">  1        2 0.22778315E+00 0.25417084E+03</pdfrwt>
<totfact> 0.16317905E+02</totfact>
</mgrwt>
</event>
<event>
 4    0  0.1502912E-001  0.3639151E+03  0.7546771E-02  0.1057044E+00
         21   -1    0    0  501  502  0.00000000000E+00  0.00000000000E+00  0.22535646073E+03  0.22535646073E+03  0.00000000000E+00 0.  1.
          1   -1    0    0  502    0 -0.00000000000E+00 -0.00000000000E+00 -0.67599752808E+03  0.67599752808E+03  0.00000000000E+00 0.  1.
         25    1    1    2    0    0 -0.55653482166E+02  0.33721196747E+03 -0.38510905591E+02  0.36594714227E+03  0.12500000000E+03 0.  0.
          1    1    1    2  501    0  0.55653482166E+02 -0.33721196747E+03 -0.41213016176E+03  0.53540684654E+03  0.00000000000E+00 0.  1.
<mgrwt>
<rscale>  3 0.36391513E+03</rscale>
<asrwt>0</asrwt>
<pdfrwt beam="1">  1       21 0.34670225E-01 0.36391513E+03</pdfrwt>
<pdfrwt beam="2">  1        1 0.10399962E+00 0.36391513E+03</pdfrwt>
<totfact> 0.25094086E+03</totfact>
</mgrwt>
</event>
<event>
 4    0  0.1326779E-001  0.2389030E+03  0.7546771E-02  0.1120526E+00
          2   -1    0    0  502    0 -0.00000000000E+00  0.00000000000E+00  0.59331795676E+03  0.59331795676E+03  0.00000000000E+00 0. -1.
         21   -1    0    0  501  502  0.00000000000E+00 -0.00000000000E+00 -0.13566110455E+03  0.13566110455E+03  0.00000000000E+00 0. -1.
         25    1    1    2    0    0  0.19789097922E+03  0.47841449897E+02  0.12214193103E+02  0.23921502983E+03  0.12500000000E+03 0.  0.
          2    1    1    2  501    0 -0.19789097922E+03 -0.47841449897E+02  0.44544265910E+03  0.48976403148E+03  0.00000000000E+00 0. -1.
<mgrwt>
<rscale>  3 0.23890300E+03</rscale>
<asrwt>0</asrwt>
<pdfrwt beam="1">  1       21 0.20870940E-01 0.23890300E+03</pdfrwt>
<pdfrwt beam="2">  1        2 0.91279684E-01 0.23890300E+03</pdfrwt>
<totfact> 0.13560861E+04</totfact>
</mgrwt>
</event>
<event>
 4    0  0.1002184E-001  0.2472285E+03  0.7546771E-02  0.1115069E+00
          1   -1    0    0  502    0 -0.00000000000E+00  0.00000000000E+00  0.20722622315E+04  0.20722622315E+04  0.00000000000E+00 0.  1.
         21   -1    0    0  501  502  0.00000000000E+00 -0.00000000000E+00 -0.28304388242E+02  0.28304388242E+02  0.00000000000E+00 0. -1.
         25    1    1    2    0    0 -0.14136546402E+03  0.15972701711E+03  0.76537295966E+03  0.80431193066E+03  0.12500000000E+03 0.  0.
          1    1    1    2  501    0  0.14136546402E+03 -0.15972701711E+03  0.12785848836E+04  0.12962546891E+04  0.00000000000E+00 0.  1.
<mgrwt>
<rscale>  3 0.24722847E+03</rscale>
<asrwt>0</asrwt>
<pdfrwt beam="1">  1       21 0.43545229E-02 0.24722847E+03</pdfrwt>
<pdfrwt beam="2">  1        1 0.31880945E+00 0.24722847E+03</pdfrwt>
<totfact> 0.11571183E+04</totfact>
</mgrwt>
</event>
<event>
 4    0  0.1002184E-001  0.3131138E+03  0.7546771E-02  0.1078863E+00
         21   -1    0    0  501  502  0.00000000000E+00  0.00000000000E+00  0.60478637498E+02  0.60478637498E+02  0.00000000000E+00 0.  1.
          2   -1    0    0  502    0 -0.00000000000E+00 -0.00000000000E+00 -0.38553907233E+04  0.38553907233E+04  0.00000000000E+00 0. -1.
         25    1    1    2    0    0 -0.29783957296E+02  0.28553137112E+03 -0.39589550436E+03  0.50475092707E+03  0.12500000000E+03 0.  0.
          2    1    1    2  501    0  0.29783957296E+02 -0.28553137112E+03 -0.33990165815E+04  0.34111184338E+04  0.00000000000E+00 0. -1.
<mgrwt>
<rscale>  3 0.31311379E+03</rscale>
<asrwt>0</asrwt>
<pdfrwt beam="1">  1       21 0.93044028E-02 0.31311379E+03</pdfrwt>
<pdfrwt beam="2">  1        2 0.59313722E+00 0.31311379E+03</pdfrwt>
<totfact> 0.64953110E+02</totfact>
</mgrwt>
</event>
<event>
 4    0  0.1358562E-001  0.2539377E+03  0.7546771E-02  0.1110841E+00
          2   -1    0    0  502    0 -0.00000000000E+00  0.00000000000E+00  0.11007548296E+04  0.11007548296E+04  0.00000000000E+00 0. -1.
         21   -1    0    0  501  502  0.00000000000E+00 -0.00000000000E+00 -0.92093215993E+02  0.92093215993E+02  0.00000000000E+00 0.  1.
         25    1    1    2    0    0 -0.20676047509E+03 -0.78162894189E+02  0.12704757153E+03  0.28394615249E+03  0.12500000000E+03 0.  0.
          2    1    1    2  501    0  0.20676047509E+03  0.78162894189E+02  0.88161404204E+03  0.90890189306E+03  0.00000000000E+00 0. -1.
<mgrwt>
<rscale>  3 0.25393765E+03</rscale>
<asrwt>0</asrwt>
<pdfrwt beam="1">  1       21 0.14168188E-01 0.25393765E+03</pdfrwt>
<pdfrwt beam="2">  1        2 0.16934689E+00 0.25393765E+03</pdfrwt>
<totfact> 0.12452701E+04</totfact>
</mgrwt>
</event>
<event>
 4    0  0.1129157E-001  0.3554917E+03  0.7546771E-02  0.1060383E+00
         21   -1    0    0  501  502  0.00000000000E+00  0.00000000000E+00  0.13444644207E+03  0.13444644207E+03  0.00000000000E+00 0.  1.
          2   -1    0    0  502    0 -0.00000000000E+00 -0.00000000000E+00 -0.31147832556E+04  0.31147832556E+04  0.00000000000E+00 0. -1.
         25    1    1    2    0    0  0.28336509734E+03 -0.17450951528E+03 -0.12844198498E+03  0.37798372031E+03  0.12500000000E+03 0.  0.
          2    1    1    2  501    0 -0.28336509734E+03  0.17450951528E+03 -0.28518948285E+04  0.28712459773E+04  0.00000000000E+00 0. -1.
<mgrwt>
<rscale>  3 0.35549170E+03</rscale>
<asrwt>0</asrwt>
<pdfrwt beam="1">  1       21 0.20684069E-01 0.35549170E+03</pdfrwt>
<pdfrwt beam="2">  1        2 0.47919741E+00 0.35549170E+03</pdfrwt>
<totfact> 0.45807284E+02</totfact>
</mgrwt>
</event>
<event>
 4    0  0.1927405E-001  0.2863818E+03  0.7546771E-02  0.1092254E+00
         21   -1    0    0  501  502  0.00000000000E+00  0.00000000000E+00  0.50117173995E+02  0.50117173995E+02  0.00000000000E+00 0.  1.
         -4   -1    0    0    0  501 -0.00000000000E+00 -0.00000000000E+00 -0.16347585551E+04  0.16347585551E+04  0.00000000000E+00 0.  1.
         25    1    1    2    0    0 -0.22388635738E+03 -0.12753207985E+03 -0.56827442121E+03  0.63635709331E+03  0.12500000000E+03 0.  0.
         -4    1    1    2    0  502  0.22388635738E+03  0.12753207985E+03 -0.10163669599E+04  0.10485186358E+04  0.00000000000E+00 0.  1.
<mgrwt>
<rscale>  3 0.28638179E+03</rscale>
<asrwt>0</asrwt>
<pdfrwt beam="1">  1       21 0.77103355E-02 0.28638179E+03</pdfrwt>
<pdfrwt beam="2">  1       -4 0.25150128E+00 0.28638179E+03</pdfrwt>
<totfact> 0.37687277E+02</totfact>
</mgrwt>
</event>
<event>
 4    0  0.1358457E-001  0.2370628E+03  0.7546771E-02  0.1121765E+00
          1   -1    0    0  502    0 -0.00000000000E+00  0.00000000000E+00  0.39252016754E+03  0.39252016754E+03  0.00000000000E+00 0.  1.
         21   -1    0    0  501  502  0.00000000000E+00 -0.00000000000E+00 -0.15249326016E+03  0.15249326016E+03  0.00000000000E+00 0.  1.
         25    1    1    2    0    0 -0.20142679992E+03 -0.10188171527E+01  0.72356173412E+01  0.23717324443E+03  0.12500000000E+03 0.  0.
          1    1    1    2  501    0  0.20142679992E+03  0.10188171527E+01  0.23279129005E+03  0.30784018327E+03  0.00000000000E+00 0.  1.
<mgrwt>
<rscale>  3 0.23706285E+03</rscale>
<asrwt>0</asrwt>
<pdfrwt beam="1">  1       21 0.23460502E-01 0.23706285E+03</pdfrwt>
<pdfrwt beam="2">  1        1 0.60387718E-01 0.23706285E+03</pdfrwt>
<totfact> 0.11567566E+04</totfact>
</mgrwt>
</event>
<event>
 4    0  0.1549523E-001  0.3678826E+03  0.7546771E-02  0.1055506E+00
          1   -1    0    0  502    0 -0.00000000000E+00  0.00000000000E+00  0.11218260707E+04  0.11218260707E+04  0.00000000000E+00 0.  1.
         21   -1    0    0  501  502  0.00000000000E+00 -0.00000000000E+00 -0.35138060297E+03  0.35138060297E+03  0.00000000000E+00 0. -1.
         25    1    1    2    0    0 -0.31571871944E+03  0.14154258672E+03 -0.21685123042E+03  0.42703872166E+03  0.12500000000E+03 0.  0.
          1    1    1    2  501    0  0.31571871944E+03 -0.14154258672E+03  0.98729669816E+03  0.10461679520E+04  0.00000000000E+00 0.  1.
<mgrwt>
<rscale>  3 0.36788261E+03</rscale>
<asrwt>0</asrwt>
<pdfrwt beam="1">  1       21 0.54058555E-01 0.36788261E+03</pdfrwt>
<pdfrwt beam="2">  1        1 0.17258863E+00 0.36788261E+03</pdfrwt>
<totfact> 0.43510716E+02</totfact>
</mgrwt>
</event>
<event>
 4    0  0.1131600E-001  0.3453532E+03  0.7546771E-02  0.1064539E+00
         21   -1    0    0  501  502  0.00000000000E+00  0.00000000000E+00  0.68160261706E+03  0.68160261706E+03  0.00000000000E+00 0. -1.
          1   -1    0    0  502    0 -0.00000000000E+00 -0.00000000000E+00 -0.20957011340E+03  0.20957011340E+03  0.00000000000E+00 0. -1.
         25    1    1    2    0    0 -0.31065157581E+03  0.84495340658E+02  0.45169634977E+03  0.56859340177E+03  0.12500000000E+03 0.  0.
          1    1    1    2  501    0  0.31065157581E+03 -0.84495340658E+02  0.20336153898E+02  0.32257932869E+03  0.00000000000E+00 0. -1.
<mgrwt>
<rscale>  3 0.34535325E+03</rscale>
<asrwt>0</asrwt>
<pdfrwt beam="1">  1       21 0.10486194E+00 0.34535325E+03</pdfrwt>
<pdfrwt beam="2">  1        1 0.32241556E-01 0.34535325E+03</pdfrwt>
<totfact> 0.10374117E+03</totfact>
</mgrwt>
</event>
<event>
 4    0  0.1151355E-001  0.2444574E+03  0.7546771E-02  0.1116859E+00
          1   -1    0    0  502    0 -0.00000000000E+00  0.00000000000E+00  0.27447648144E+03  0.27447648144E+03  0.00000000000E+00 0. -1.
         21   -1    0    0  501  502  0.00000000000E+00 -0.00000000000E+00 -0.75174299229E+03  0.75174299229E+03  0.00000000000E+00 0.  1.
         25    1    1    2    0    0  0.10395831787E+03 -0.18255708883E+03 -0.68710185004E+03  0.72929306515E+03  0.12500000000E+03 0.  0.
          1    1    1    2  501    0 -0.10395831787E+03  0.18255708883E+03  0.20983533919E+03  0.29692640858E+03  0.00000000000E+00 0. -1.
<mgrwt>
<rscale>  3 0.24445740E+03</rscale>
<asrwt>0</asrwt>
<pdfrwt beam="1">  1       21 0.11565277E+00 0.24445740E+03</pdfrwt>
<pdfrwt beam="2">  1        1 0.42227152E-01 0.24445740E+03</pdfrwt>
<totfact> 0.60202709E+02</totfact>
</mgrwt>
</event>
<event>
 4    0  0.1432682E-001  0.4246213E+03  0.7546771E-02  0.1035573E+00
         21   -1    0    0  501  502  0.00000000000E+00  0.00000000000E+00  0.15372431821E+03  0.15372431821E+03  0.00000000000E+00 0. -1.
          1   -1    0    0  502    0 -0.00000000000E+00 -0.00000000000E+00 -0.11362230096E+04  0.11362230096E+04  0.00000000000E+00 0. -1.
         25    1    1    2    0    0 -0.11372294585E+03  0.38954503962E+03 -0.42884211160E+03  0.60349714415E+03  0.12500000000E+03 0.  0.
          1    1    1    2  501    0  0.11372294585E+03 -0.38954503962E+03 -0.55365657973E+03  0.68645018362E+03  0.00000000000E+00 0. -1.
<mgrwt>
<rscale>  3 0.42462130E+03</rscale>
<asrwt>0</asrwt>
<pdfrwt beam="1">  1       21 0.23649896E-01 0.42462130E+03</pdfrwt>
<pdfrwt beam="2">  1        1 0.17480353E+00 0.42462130E+03</pdfrwt>
<totfact> 0.22361351E+03</totfact>
</mgrwt>
</event>
<event>
 4    0  0.1002184E-001  0.2369098E+03  0.7546771E-02  0.1121869E+00
          1   -1    0    0  502    0 -0.00000000000E+00  0.00000000000E+00  0.41554060593E+04  0.41554060593E+04  0.00000000000E+00 0. -1.
         21   -1    0    0  501  502  0.00000000000E+00 -0.00000000000E+00 -0.13033779792E+02  0.13033779792E+02  0.00000000000E+00 0. -1.
         25    1    1    2    0    0  0.16310328437E+03  0.11789224849E+03  0.15194625174E+04  0.15378207325E+04  0.12500000000E+03 0.  0.
          1    1    1    2  501    0 -0.16310328437E+03 -0.11789224849E+03  0.26229097622E+04  0.26306191066E+04  0.00000000000E+00 0. -1.
<mgrwt>
<rscale>  3 0.23690982E+03</rscale>
<asrwt>0</asrwt>
<pdfrwt beam="1">  1       21 0.20052002E-02 0.23690982E+03</pdfrwt>
<pdfrwt beam="2">  1        1 0.63929218E+00 0.23690982E+03</pdfrwt>
<totfact> 0.12980147E+03</totfact>
</mgrwt>
</event>
<event>
 4    0  0.1569556E-001  0.3141672E+03  0.7546771E-02  0.1078365E+00
         21   -1    0    0  501  502  0.00000000000E+00  0.00000000000E+00  0.22299842255E+03  0.22299842255E+03  0.00000000000E+00 0. -1.
          2   -1    0    0  502    0 -0.00000000000E+00 -0.00000000000E+00 -0.75099565892E+03  0.75099565892E+03  0.00000000000E+00 0. -1.
         25    1    1    2    0    0  0.21967980846E+03 -0.18659259545E+03  0.59361671561E+02  0.31972616873E+03  0.12500000000E+03 0.  0.
          2    1    1    2  501    0 -0.21967980846E+03  0.18659259545E+03 -0.58735890793E+03  0.65426791275E+03  0.00000000000E+00 0. -1.
<mgrwt>
<rscale>  3 0.31416718E+03</rscale>
<asrwt>0</asrwt>
<pdfrwt beam="1">  1       21 0.34307450E-01 0.31416718E+03</pdfrwt>
<pdfrwt beam="2">  1        2 0.11553779E+00 0.31416718E+03</pdfrwt>
<totfact> 0.38247378E+03</totfact>
</mgrwt>
</event>
<event>
 4    0  0.1002184E-001  0.2480086E+03  0.7546771E-02  0.1114570E+00
         21   -1    0    0  501  502  0.00000000000E+00  0.00000000000E+00  0.61724912623E+02  0.61724912623E+02  0.00000000000E+00 0. -1.
          2   -1    0    0  502    0 -0.00000000000E+00 -0.00000000000E+00 -0.88247947775E+03  0.88247947775E+03  0.00000000000E+00 0.  1.
         25    1    1    2    0    0 -0.39236011453E+02  0.21057970359E+03 -0.37409435255E+03  0.44883723194E+03  0.12500000000E+03 0.  0.
          2    1    1    2  501    0  0.39236011453E+02 -0.21057970359E+03 -0.44666021257E+03  0.49536715843E+03  0.00000000000E+00 0.  1.
<mgrwt>
<rscale>  3 0.24800862E+03</rscale>
<asrwt>0</asrwt>
<pdfrwt beam="1">  1       21 0.94961414E-02 0.24800862E+03</pdfrwt>
<pdfrwt beam="2">  1        2 0.13576606E+00 0.24800862E+03</pdfrwt>
<totfact> 0.34880828E+04</totfact>
</mgrwt>
</event>
<event>
 4    0  0.1352015E-001  0.4335250E+03  0.7546771E-02  0.1032752E+00
         -4   -1    0    0    0  501 -0.00000000000E+00  0.00000000000E+00  0.37761054110E+03  0.37761054110E+03  0.00000000000E+00 0. -1.
         21   -1    0    0  501  502  0.00000000000E+00 -0.00000000000E+00 -0.48187449509E+03  0.48187449509E+03  0.00000000000E+00 0. -1.
         25    1    1    2    0    0  0.38633704844E+03 -0.15186369754E+03 -0.91838293502E+01  0.43362223231E+03  0.12500000000E+03 0.  0.
         -4    1    1    2    0  502 -0.38633704844E+03  0.15186369754E+03 -0.95080124639E+02  0.42586280388E+03  0.00000000000E+00 0. -1.
<mgrwt>
<rscale>  3 0.43352497E+03</rscale>
<asrwt>0</asrwt>
<pdfrwt beam="1">  1       21 0.74134538E-01 0.43352497E+03</pdfrwt>
<pdfrwt beam="2">  1       -4 0.58093929E-01 0.43352497E+03</pdfrwt>
<totfact> 0.18789590E+02</totfact>
</mgrwt>
</event>
<event>
 4    0  0.1002184E-001  0.2392159E+03  0.7546771E-02  0.1120316E+00
          2   -1    0    0  502    0 -0.00000000000E+00  0.00000000000E+00  0.16774690452E+04  0.16774690452E+04  0.00000000000E+00 0.  1.
         21   -1    0    0  501  502  0.00000000000E+00 -0.00000000000E+00 -0.30541167859E+02  0.30541167859E+02  0.00000000000E+00 0. -1.
         25    1    1    2    0    0  0.19912445094E+03  0.44143866297E+02  0.71260982104E+03  0.75168942053E+03  0.12500000000E+03 0.  0.
          2    1    1    2  501    0 -0.19912445094E+03 -0.44143866297E+02  0.93431805634E+03  0.95632079257E+03  0.00000000000E+00 0.  1.
<mgrwt>
<rscale>  3 0.23921586E+03</rscale>
<asrwt>0</asrwt>
<pdfrwt beam="1">  1       21 0.46986425E-02 0.23921586E+03</pdfrwt>
<pdfrwt beam="2">  1        2 0.25807209E+00 0.23921586E+03</pdfrwt>
<totfact> 0.41909778E+04</totfact>
</mgrwt>
</event>
<event>
 4    0  0.1002184E-001  0.2869110E+03  0.7546771E-02  0.1091973E+00
          1   -1    0    0  502    0 -0.00000000000E+00  0.00000000000E+00  0.10082472470E+04  0.10082472470E+04  0.00000000000E+00 0. -1.
         21   -1    0    0  501  502  0.00000000000E+00 -0.00000000000E+00 -0.87759860090E+02  0.87759860090E+02  0.00000000000E+00 0.  1.
         25    1    1    2    0    0  0.24738007554E+03  0.74135181715E+02  0.26141251791E+03  0.38814228250E+03  0.12500000000E+03 0.  0.
          1    1    1    2  501    0 -0.24738007554E+03 -0.74135181715E+02  0.65907486896E+03  0.70786482455E+03  0.00000000000E+00 0. -1.
<mgrwt>
<rscale>  3 0.28691101E+03</rscale>
<asrwt>0</asrwt>
<pdfrwt beam="1">  1       21 0.13501518E-01 0.28691101E+03</pdfrwt>
<pdfrwt beam="2">  1        1 0.15511495E+00 0.28691101E+03</pdfrwt>
<totfact> 0.82005522E+03</totfact>
</mgrwt>
</event>
<event>
 4    0  0.1286720E-001  0.2481056E+03  0.7546771E-02  0.1114508E+00
          1   -1    0    0  502    0 -0.00000000000E+00  0.00000000000E+00  0.31177455813E+03  0.31177455813E+03  0.00000000000E+00 0. -1.
         21   -1    0    0  501  502  0.00000000000E+00 -0.00000000000E+00 -0.28058337068E+03  0.28058337068E+03  0.00000000000E+00 0. -1.
         25    1    1    2    0    0  0.18787606512E+03  0.10312110400E+03 -0.16810862115E+03  0.29969465534E+03  0.12500000000E+03 0.  0.
          1    1    1    2  501    0 -0.18787606512E+03 -0.10312110400E+03  0.19929980860E+03  0.29266327347E+03  0.00000000000E+00 0. -1.
<mgrwt>
<rscale>  3 0.24810558E+03</rscale>
<asrwt>0</asrwt>
<pdfrwt beam="1">  1       21 0.43166672E-01 0.24810558E+03</pdfrwt>
<pdfrwt beam="2">  1        1 0.47965317E-01 0.24810558E+03</pdfrwt>
<totfact> 0.46366796E+03</totfact>
</mgrwt>
</event>
<event>
 4    0  0.1461732E-001  0.2828361E+03  0.7546771E-02  0.1094150E+00
         21   -1    0    0  501  502  0.00000000000E+00  0.00000000000E+00  0.33348230324E+03  0.33348230324E+03  0.00000000000E+00 0. -1.
          1   -1    0    0  502    0 -0.00000000000E+00 -0.00000000000E+00 -0.58060991166E+03  0.58060991166E+03  0.00000000000E+00 0. -1.
         25    1    1    2    0    0 -0.11545196727E+03 -0.22592505591E+03  0.23602121752E+03  0.36837793468E+03  0.12500000000E+03 0.  0.
          1    1    1    2  501    0  0.11545196727E+03  0.22592505591E+03 -0.48314882594E+03  0.54571428022E+03  0.00000000000E+00 0. -1.
<mgrwt>
<rscale>  3 0.28283615E+03</rscale>
<asrwt>0</asrwt>
<pdfrwt beam="1">  1       21 0.51304970E-01 0.28283615E+03</pdfrwt>
<pdfrwt beam="2">  1        1 0.89324601E-01 0.28283615E+03</pdfrwt>
<totfact> 0.14208543E+03</totfact>
</mgrwt>
</event>
<event>
 4    0  0.1002184E-001  0.3001000E+03  0.7546771E-02  0.1085191E+00
          2   -1    0    0  502    0 -0.00000000000E+00  0.00000000000E+00  0.28928073072E+04  0.28928073072E+04  0.00000000000E+00 0.  1.
         21   -1    0    0  501  502  0.00000000000E+00 -0.00000000000E+00 -0.37721479346E+02  0.37721479346E+02  0.00000000000E+00 0. -1.
         25    1    1    2    0    0 -0.27268244021E+03 -0.89037578664E+01  0.74960617246E+03  0.80744622353E+03  0.12500000000E+03 0.  0.
          2    1    1    2  501    0  0.27268244021E+03  0.89037578664E+01  0.21054796554E+04  0.21230825630E+04  0.00000000000E+00 0.  1.
<mgrwt>
<rscale>  3 0.30009997E+03</rscale>
<asrwt>0</asrwt>
<pdfrwt beam="1">  1       21 0.58033068E-02 0.30009997E+03</pdfrwt>
<pdfrwt beam="2">  1        2 0.44504710E+00 0.30009997E+03</pdfrwt>
<totfact> 0.62964927E+03</totfact>
</mgrwt>
</event>
<event>
 4    0  0.1002184E-001  0.3181679E+03  0.7546771E-02  0.1076496E+00
          1   -1    0    0  502    0 -0.00000000000E+00  0.00000000000E+00  0.77354327106E+03  0.77354327106E+03  0.00000000000E+00 0.  1.
         21   -1    0    0  501  502  0.00000000000E+00 -0.00000000000E+00 -0.14247256640E+03  0.14247256640E+03  0.00000000000E+00 0. -1.
         25    1    1    2    0    0 -0.85432177609E+02  0.27983416482E+03  0.14721339691E+03  0.35057467250E+03  0.12500000000E+03 0.  0.
          1    1    1    2  501    0  0.85432177609E+02 -0.27983416482E+03  0.48385730775E+03  0.56544116496E+03  0.00000000000E+00 0.  1.
<mgrwt>
<rscale>  3 0.31816791E+03</rscale>
<asrwt>0</asrwt>
<pdfrwt beam="1">  1       21 0.21918857E-01 0.31816791E+03</pdfrwt>
<pdfrwt beam="2">  1        1 0.11900665E+00 0.31816791E+03</pdfrwt>
<totfact> 0.50847450E+03</totfact>
</mgrwt>
</event>
<event>
 4    0  0.1002184E-001  0.2393594E+03  0.7546771E-02  0.1120220E+00
          3   -1    0    0  502    0 -0.00000000000E+00  0.00000000000E+00  0.40273373563E+02  0.40273373563E+02  0.00000000000E+00 0. -1.
         21   -1    0    0  501  502  0.00000000000E+00 -0.00000000000E+00 -0.15283374754E+04  0.15283374754E+04  0.00000000000E+00 0.  1.
         25    1    1    2    0    0 -0.11792963064E+03 -0.16661496535E+03 -0.11421239707E+04  0.11669362060E+04  0.12500000000E+03 0.  0.
          3    1    1    2  501    0  0.11792963064E+03  0.16661496535E+03 -0.34594013120E+03  0.40167464301E+03  0.00000000000E+00 0. -1.
<mgrwt>
<rscale>  3 0.23935945E+03</rscale>
<asrwt>0</asrwt>
<pdfrwt beam="1">  1       21 0.23512880E+00 0.23935945E+03</pdfrwt>
<pdfrwt beam="2">  1        3 0.61959047E-02 0.23935945E+03</pdfrwt>
<totfact> 0.63524556E+02</totfact>
</mgrwt>
</event>
<event>
 4    0  0.1578653E-001  0.2895246E+03  0.7546771E-02  0.1090598E+00
         21   -1    0    0  501  502  0.00000000000E+00  0.00000000000E+00  0.11718896325E+03  0.11718896325E+03  0.00000000000E+00 0. -1.
          1   -1    0    0  502    0 -0.00000000000E+00 -0.00000000000E+00 -0.82645800449E+03  0.82645800449E+03  0.00000000000E+00 0. -1.
         25    1    1    2    0    0  0.24119337708E+03 -0.10012604593E+03 -0.14924894794E+03  0.32572951767E+03  0.12500000000E+03 0.  0.
          1    1    1    2  501    0 -0.24119337708E+03  0.10012604593E+03 -0.56002009329E+03  0.61791745007E+03  0.00000000000E+00 0. -1.
<mgrwt>
<rscale>  3 0.28952456E+03</rscale>
<asrwt>0</asrwt>
<pdfrwt beam="1">  1       21 0.18029071E-01 0.28952456E+03</pdfrwt>
<pdfrwt beam="2">  1        1 0.12714739E+00 0.28952456E+03</pdfrwt>
<totfact> 0.66766133E+03</totfact>
</mgrwt>
</event>
<event>
 4    0  0.1646987E-001  0.2761215E+03  0.7546771E-02  0.1097826E+00
         21   -1    0    0  501  502  0.00000000000E+00  0.00000000000E+00  0.13071265591E+03  0.13071265591E+03  0.00000000000E+00 0. -1.
          2   -1    0    0  502    0 -0.00000000000E+00 -0.00000000000E+00 -0.11384972920E+04  0.11384972920E+04  0.00000000000E+00 0. -1.
         25    1    1    2    0    0 -0.21404573091E+03  0.12166555372E+03 -0.98382568944E+03  0.10218395515E+04  0.12500000000E+03 0.  0.
          2    1    1    2  501    0  0.21404573091E+03 -0.12166555372E+03 -0.23958946664E+02  0.24737039639E+03  0.00000000000E+00 0. -1.
<mgrwt>
<rscale>  3 0.27612150E+03</rscale>
<asrwt>0</asrwt>
<pdfrwt beam="1">  1       21 0.20109638E-01 0.27612150E+03</pdfrwt>
<pdfrwt beam="2">  1        2 0.17515344E+00 0.27612150E+03</pdfrwt>
<totfact> 0.61496617E+03</totfact>
</mgrwt>
</event>
<event>
 4    0  0.1406531E-001  0.3699895E+03  0.7546771E-02  0.1054697E+00
          2   -1    0    0  502    0 -0.00000000000E+00  0.00000000000E+00  0.10043917504E+04  0.10043917504E+04  0.00000000000E+00 0. -1.
         21   -1    0    0  501  502  0.00000000000E+00 -0.00000000000E+00 -0.13830116228E+03  0.13830116228E+03  0.00000000000E+00 0. -1.
         25    1    1    2    0    0  0.19395643668E+02 -0.34769389482E+03  0.29239637222E+03  0.47158018827E+03  0.12500000000E+03 0.  0.
          2    1    1    2  501    0 -0.19395643668E+02  0.34769389482E+03  0.57369421585E+03  0.67111272435E+03  0.00000000000E+00 0. -1.
<mgrwt>
<rscale>  3 0.36998951E+03</rscale>
<asrwt>0</asrwt>
<pdfrwt beam="1">  1       21 0.21277103E-01 0.36998951E+03</pdfrwt>
<pdfrwt beam="2">  1        2 0.15452180E+00 0.36998951E+03</pdfrwt>
<totfact> 0.65058600E+03</totfact>
</mgrwt>
</event>
<event>
 4    0  0.1180272E-001  0.4459873E+03  0.7546771E-02  0.1028925E+00
          2   -1    0    0  502    0 -0.00000000000E+00  0.00000000000E+00  0.94050496642E+03  0.94050496642E+03  0.00000000000E+00 0.  1.
         21   -1    0    0  501  502  0.00000000000E+00 -0.00000000000E+00 -0.33029279119E+03  0.33029279119E+03  0.00000000000E+00 0. -1.
         25    1    1    2    0    0 -0.19963669071E+03  0.37871475379E+03 -0.85314851206E+02  0.45407410942E+03  0.12500000000E+03 0.  0.
          2    1    1    2  501    0  0.19963669071E+03 -0.37871475379E+03  0.69552702643E+03  0.81672364819E+03  0.00000000000E+00 0.  1.
<mgrwt>
<rscale>  3 0.44598730E+03</rscale>
<asrwt>0</asrwt>
<pdfrwt beam="1">  1       21 0.50814276E-01 0.44598730E+03</pdfrwt>
<pdfrwt beam="2">  1        2 0.14469307E+00 0.44598730E+03</pdfrwt>
<totfact> 0.12213611E+03</totfact>
</mgrwt>
</event>
<event>
 4    0  0.1264565E-001  0.2376847E+03  0.7546771E-02  0.1121345E+00
          3   -1    0    0  502    0 -0.00000000000E+00  0.00000000000E+00  0.21298625968E+03  0.21298625968E+03  0.00000000000E+00 0. -1.
         21   -1    0    0  501  502  0.00000000000E+00 -0.00000000000E+00 -0.28497840048E+03  0.28497840048E+03  0.00000000000E+00 0. -1.
         25    1    1    2    0    0  0.25537598663E+02  0.20054137648E+03 -0.15024221341E+03  0.28118807819E+03  0.12500000000E+03 0.  0.
          3    1    1    2  501    0 -0.25537598663E+02 -0.20054137648E+03  0.78250072616E+02  0.21677658197E+03  0.00000000000E+00 0. -1.
<mgrwt>
<rscale>  3 0.23768469E+03</rscale>
<asrwt>0</asrwt>
<pdfrwt beam="1">  1       21 0.43842831E-01 0.23768469E+03</pdfrwt>
<pdfrwt beam="2">  1        3 0.32767117E-01 0.23768469E+03</pdfrwt>
<totfact> 0.22397696E+03</totfact>
</mgrwt>
</event>
<event>
 4    0  0.1249269E-001  0.2584626E+03  0.7546771E-02  0.1108070E+00
         21   -1    0    0  501  502  0.00000000000E+00  0.00000000000E+00  0.39044160480E+03  0.39044160480E+03  0.00000000000E+00 0.  1.
          1   -1    0    0  502    0 -0.00000000000E+00 -0.00000000000E+00 -0.19336058210E+03  0.19336058210E+03  0.00000000000E+00 0.  1.
         25    1    1    2    0    0  0.16421314399E+03 -0.15560194502E+03  0.24095858703E+03  0.35336095231E+03  0.12500000000E+03 0.  0.
          1    1    1    2  501    0 -0.16421314399E+03  0.15560194502E+03 -0.43877564323E+02  0.23044123459E+03  0.00000000000E+00 0.  1.
<mgrwt>
<rscale>  3 0.25846261E+03</rscale>
<asrwt>0</asrwt>
<pdfrwt beam="1">  1       21 0.60067939E-01 0.25846261E+03</pdfrwt>
<pdfrwt beam="2">  1        1 0.29747782E-01 0.25846261E+03</pdfrwt>
<totfact> 0.42121334E+03</totfact>
</mgrwt>
</event>
<event>
 4    0  0.1002184E-001  0.3829663E+03  0.7546771E-02  0.1049843E+00
          2   -1    0    0  502    0 -0.00000000000E+00  0.00000000000E+00  0.25004888045E+04  0.25004888045E+04  0.00000000000E+00 0. -1.
         21   -1    0    0  501  502  0.00000000000E+00 -0.00000000000E+00 -0.60794703195E+02  0.60794703195E+02  0.00000000000E+00 0.  1.
         25    1    1    2    0    0 -0.22445716155E+03 -0.28400207156E+03  0.87287636252E+03  0.95319270784E+03  0.12500000000E+03 0.  0.
          2    1    1    2  501    0  0.22445716155E+03  0.28400207156E+03  0.15668177388E+04  0.16080907999E+04  0.00000000000E+00 0. -1.
<mgrwt>
<rscale>  3 0.38296631E+03</rscale>
<asrwt>0</asrwt>
<pdfrwt beam="1">  1       21 0.93530332E-02 0.38296631E+03</pdfrwt>
<pdfrwt beam="2">  1        2 0.38469051E+00 0.38296631E+03</pdfrwt>
<totfact> 0.44310536E+03</totfact>
</mgrwt>
</event>
<event>
 4    0  0.1545872E-001  0.2595712E+03  0.7546771E-02  0.1107401E+00
          2   -1    0    0  502    0 -0.00000000000E+00  0.00000000000E+00  0.10667896908E+04  0.10667896908E+04  0.00000000000E+00 0.  1.
         21   -1    0    0  501  502  0.00000000000E+00 -0.00000000000E+00 -0.21745540981E+03  0.21745540981E+03  0.00000000000E+00 0. -1.
         25    1    1    2    0    0 -0.66719040212E+02  0.21748737734E+03 -0.12186744850E+03  0.28675575781E+03  0.12500000000E+03 0.  0.
          2    1    1    2  501    0  0.66719040212E+02 -0.21748737734E+03  0.97120172945E+03  0.99748934276E+03  0.00000000000E+00 0.  1.
<mgrwt>
<rscale>  3 0.25957116E+03</rscale>
<asrwt>0</asrwt>
<pdfrwt beam="1">  1       21 0.33454679E-01 0.25957116E+03</pdfrwt>
<pdfrwt beam="2">  1        2 0.16412149E+00 0.25957116E+03</pdfrwt>
<totfact> 0.25467957E+03</totfact>
</mgrwt>
</event>
<event>
 4    0  0.1002184E-001  0.2463980E+03  0.7546771E-02  0.1115603E+00
          1   -1    0    0  502    0 -0.00000000000E+00  0.00000000000E+00  0.41906451373E+02  0.41906451373E+02  0.00000000000E+00 0.  1.
         21   -1    0    0  501  502  0.00000000000E+00 -0.00000000000E+00 -0.12739453887E+04  0.12739453887E+04  0.00000000000E+00 0.  1.
         25    1    1    2    0    0 -0.18759558412E+03 -0.99473016313E+02 -0.74025435750E+03  0.78018491266E+03  0.12500000000E+03 0.  0.
          1    1    1    2  501    0  0.18759558412E+03  0.99473016313E+02 -0.49178457979E+03  0.53566692737E+03  0.00000000000E+00 0.  1.
<mgrwt>
<rscale>  3 0.24639802E+03</rscale>
<asrwt>0</asrwt>
<pdfrwt beam="1">  1       21 0.19599161E+00 0.24639802E+03</pdfrwt>
<pdfrwt beam="2">  1        1 0.64471461E-02 0.24639802E+03</pdfrwt>
<totfact> 0.17152882E+03</totfact>
</mgrwt>
</event>
<event>
 4    0  0.1369635E-001  0.2462898E+03  0.7546771E-02  0.1115672E+00
          2   -1    0    0  502    0 -0.00000000000E+00  0.00000000000E+00  0.16911141587E+04  0.16911141587E+04  0.00000000000E+00 0.  1.
         21   -1    0    0  501  502  0.00000000000E+00 -0.00000000000E+00 -0.25743373024E+03  0.25743373024E+03  0.00000000000E+00 0.  1.
         25    1    1    2    0    0  0.54078000824E+02 -0.20520537741E+03 -0.18999864984E+03  0.31105974351E+03  0.12500000000E+03 0.  0.
          2    1    1    2  501    0 -0.54078000824E+02  0.20520537741E+03  0.16236790783E+04  0.16374881454E+04  0.00000000000E+00 0.  1.
<mgrwt>
<rscale>  3 0.24628982E+03</rscale>
<asrwt>0</asrwt>
<pdfrwt beam="1">  1       21 0.39605190E-01 0.24628982E+03</pdfrwt>
<pdfrwt beam="2">  1        2 0.26017140E+00 0.24628982E+03</pdfrwt>
<totfact> 0.82805991E+02</totfact>
</mgrwt>
</event>
<event>
 4    0  0.1002184E-001  0.3434485E+03  0.7546771E-02  0.1065337E+00
         21   -1    0    0  501  502  0.00000000000E+00  0.00000000000E+00  0.16932293442E+03  0.16932293442E+03  0.00000000000E+00 0.  1.
          2   -1    0    0  502    0 -0.00000000000E+00 -0.00000000000E+00 -0.68895218372E+03  0.68895218372E+03  0.00000000000E+00 0. -1.
         25    1    1    2    0    0 -0.31944803047E+03 -0.16876749715E+02 -0.16611737290E+03  0.38151258227E+03  0.12500000000E+03 0.  0.
          2    1    1    2  501    0  0.31944803047E+03  0.16876749715E+02 -0.35351187641E+03  0.47676253587E+03  0.00000000000E+00 0. -1.
<mgrwt>
<rscale>  3 0.34344850E+03</rscale>
<asrwt>0</asrwt>
<pdfrwt beam="1">  1       21 0.26049682E-01 0.34344850E+03</pdfrwt>
<pdfrwt beam="2">  1        2 0.10599264E+00 0.34344850E+03</pdfrwt>
<totfact> 0.72807794E+03</totfact>
</mgrwt>
</event>
<event>
 4    0  0.1257261E-001  0.2555865E+03  0.7546771E-02  0.1109824E+00
         21   -1    0    0  501  502  0.00000000000E+00  0.00000000000E+00  0.31600406451E+03  0.31600406451E+03  0.00000000000E+00 0. -1.
          1   -1    0    0  502    0 -0.00000000000E+00 -0.00000000000E+00 -0.21538447357E+03  0.21538447357E+03  0.00000000000E+00 0. -1.
         25    1    1    2    0    0  0.19519804015E+03 -0.10769018476E+03  0.15891042216E+03  0.30096008547E+03  0.12500000000E+03 0.  0.
          1    1    1    2  501    0 -0.19519804015E+03  0.10769018476E+03 -0.58290831226E+02  0.23042845262E+03  0.00000000000E+00 0. -1.
<mgrwt>
<rscale>  3 0.25558648E+03</rscale>
<asrwt>0</asrwt>
<pdfrwt beam="1">  1       21 0.48616010E-01 0.25558648E+03</pdfrwt>
<pdfrwt beam="2">  1        1 0.33136073E-01 0.25558648E+03</pdfrwt>
<totfact> 0.57654563E+03</totfact>
</mgrwt>
</event>
<event>
 4    0  0.1002184E-001  0.6013914E+03  0.7546771E-02  0.9902524E-01
          2   -1    0    0  502    0 -0.00000000000E+00  0.00000000000E+00  0.22284739271E+04  0.22284739271E+04  0.00000000000E+00 0. -1.
         21   -1    0    0  501  502  0.00000000000E+00 -0.00000000000E+00 -0.28873143665E+03  0.28873143665E+03  0.00000000000E+00 0. -1.
         25    1    1    2    0    0 -0.58823849526E+03 -0.46972966401E+01  0.18201305711E+04  0.19169107668E+04  0.12500000000E+03 0.  0.
          2    1    1    2  501    0  0.58823849526E+03  0.46972966401E+01  0.11961191933E+03  0.60029459697E+03  0.00000000000E+00 0. -1.
<mgrwt>
<rscale>  3 0.60139138E+03</rscale>
<asrwt>0</asrwt>
<pdfrwt beam="1">  1       21 0.44420222E-01 0.60139138E+03</pdfrwt>
<pdfrwt beam="2">  1        2 0.34284213E+00 0.60139138E+03</pdfrwt>
<totfact> 0.29551825E+02</totfact>
</mgrwt>
</event>
<event>
 4    0  0.1325590E-001  0.2442400E+03  0.7546771E-02  0.1117000E+00
          2   -1    0    0  502    0 -0.00000000000E+00  0.00000000000E+00  0.74089284655E+03  0.74089284655E+03  0.00000000000E+00 0.  1.
         21   -1    0    0  501  502  0.00000000000E+00 -0.00000000000E+00 -0.21359050326E+03  0.21359050326E+03  0.00000000000E+00 0.  1.
         25    1    1    2    0    0 -0.11041934724E+03  0.17842577750E+03 -0.12135849608E+03  0.27272894033E+03  0.12500000000E+03 0.  0.
          2    1    1    2  501    0  0.11041934724E+03 -0.17842577750E+03  0.64866083937E+03  0.68175440949E+03  0.00000000000E+00 0.  1.
<mgrwt>
<rscale>  3 0.24424003E+03</rscale>
<asrwt>0</asrwt>
<pdfrwt beam="1">  1       21 0.32860078E-01 0.24424003E+03</pdfrwt>
<pdfrwt beam="2">  1        2 0.11398351E+00 0.24424003E+03</pdfrwt>
<totfact> 0.43225475E+03</totfact>
</mgrwt>
</event>
<event>
 4    0  0.1150633E-001  0.2407532E+03  0.7546771E-02  0.1119292E+00
          4   -1    0    0  502    0 -0.00000000000E+00  0.00000000000E+00  0.21266319107E+03  0.21266319107E+03  0.00000000000E+00 0. -1.
         21   -1    0    0  501  502  0.00000000000E+00 -0.00000000000E+00 -0.41708313384E+03  0.41708313384E+03  0.00000000000E+00 0. -1.
         25    1    1    2    0    0  0.10049772423E+03  0.17954748837E+03 -0.31475258839E+03  0.39627173133E+03  0.12500000000E+03 0.  0.
          4    1    1    2  501    0 -0.10049772423E+03 -0.17954748837E+03  0.11033264562E+03  0.23347459357E+03  0.00000000000E+00 0. -1.
<mgrwt>
<rscale>  3 0.24075318E+03</rscale>
<asrwt>0</asrwt>
<pdfrwt beam="1">  1       21 0.64166635E-01 0.24075318E+03</pdfrwt>
<pdfrwt beam="2">  1        4 0.32717414E-01 0.24075318E+03</pdfrwt>
<totfact> 0.84714933E+02</totfact>
</mgrwt>
</event>
<event>
 4    0  0.1002184E-001  0.5239303E+03  0.7546771E-02  0.1007715E+00
         21   -1    0    0  501  502  0.00000000000E+00  0.00000000000E+00  0.54670349610E+03  0.54670349610E+03  0.00000000000E+00 0. -1.
          2   -1    0    0  502    0 -0.00000000000E+00 -0.00000000000E+00 -0.21721173286E+04  0.21721173286E+04  0.00000000000E+00 0. -1.
         25    1    1    2    0    0  0.43900030796E+03  0.25720946649E+03  0.38169629044E+03  0.64822452759E+03  0.12500000000E+03 0.  0.
          2    1    1    2  501    0 -0.43900030796E+03 -0.25720946649E+03 -0.20071101229E+04  0.20705962971E+04  0.00000000000E+00 0. -1.
<mgrwt>
<rscale>  3 0.52393032E+03</rscale>
<asrwt>0</asrwt>
<pdfrwt beam="1">  1       21 0.84108229E-01 0.52393032E+03</pdfrwt>
<pdfrwt beam="2">  1        2 0.33417190E+00 0.52393032E+03</pdfrwt>
<totfact> 0.79067545E+01</totfact>
</mgrwt>
</event>
<event>
 4    0  0.1130490E-001  0.3206549E+03  0.7546771E-02  0.1075348E+00
         -1   -1    0    0    0  501 -0.00000000000E+00  0.00000000000E+00  0.12725215695E+03  0.12725215695E+03  0.00000000000E+00 0.  1.
         21   -1    0    0  501  502  0.00000000000E+00 -0.00000000000E+00 -0.15008401963E+04  0.15008401963E+04  0.00000000000E+00 0.  1.
         25    1    1    2    0    0 -0.95472043136E+02 -0.27942741536E+03 -0.12781602051E+04  0.13177682275E+04  0.12500000000E+03 0.  0.
         -1    1    1    2    0  502  0.95472043136E+02  0.27942741536E+03 -0.95427834243E+02  0.31032412575E+03  0.00000000000E+00 0.  1.
<mgrwt>
<rscale>  3 0.32065494E+03</rscale>
<asrwt>0</asrwt>
<pdfrwt beam="1">  1       21 0.23089848E+00 0.32065494E+03</pdfrwt>
<pdfrwt beam="2">  1       -1 0.19577256E-01 0.32065494E+03</pdfrwt>
<totfact> 0.14996816E+02</totfact>
</mgrwt>
</event>
<event>
 4    0  0.1002184E-001  0.2360989E+03  0.7546771E-02  0.1122419E+00
         21   -1    0    0  501  502  0.00000000000E+00  0.00000000000E+00  0.12076578200E+03  0.12076578200E+03  0.00000000000E+00 0. -1.
          2   -1    0    0  502    0 -0.00000000000E+00 -0.00000000000E+00 -0.39749391304E+03  0.39749391304E+03  0.00000000000E+00 0. -1.
         25    1    1    2    0    0  0.15253219483E+03 -0.12981378935E+03 -0.12622645192E+03  0.26772337875E+03  0.12500000000E+03 0.  0.
          2    1    1    2  501    0 -0.15253219483E+03  0.12981378935E+03 -0.15050167912E+03  0.25053631629E+03  0.00000000000E+00 0. -1.
<mgrwt>
<rscale>  3 0.23609890E+03</rscale>
<asrwt>0</asrwt>
<pdfrwt beam="1">  1       21 0.18579351E-01 0.23609890E+03</pdfrwt>
<pdfrwt beam="2">  1        2 0.61152911E-01 0.23609890E+03</pdfrwt>
<totfact> 0.26402369E+04</totfact>
</mgrwt>
</event>
<event>
 4    0  0.1835362E-001  0.2437087E+03  0.7546771E-02  0.1117347E+00
         -4   -1    0    0    0  501 -0.00000000000E+00  0.00000000000E+00  0.11652745562E+04  0.11652745562E+04  0.00000000000E+00 0.  1.
         21   -1    0    0  501  502  0.00000000000E+00 -0.00000000000E+00 -0.91215193223E+02  0.91215193223E+02  0.00000000000E+00 0.  1.
         25    1    1    2    0    0 -0.10733676457E+03 -0.17957660161E+03  0.10544969055E+03  0.26554392124E+03  0.12500000000E+03 0.  0.
         -4    1    1    2    0  502  0.10733676457E+03  0.17957660161E+03  0.96860967238E+03  0.99094582813E+03  0.00000000000E+00 0.  1.
<mgrwt>
<rscale>  3 0.24370871E+03</rscale>
<asrwt>0</asrwt>
<pdfrwt beam="1">  1       21 0.14033107E-01 0.24370871E+03</pdfrwt>
<pdfrwt beam="2">  1       -4 0.17927300E+00 0.24370871E+03</pdfrwt>
<totfact> 0.36605349E+02</totfact>
</mgrwt>
</event>
<event>
 4    0  0.1404631E-001  0.4000387E+03  0.7546771E-02  0.1043766E+00
          2   -1    0    0  502    0 -0.00000000000E+00  0.00000000000E+00  0.16853383773E+04  0.16853383773E+04  0.00000000000E+00 0. -1.
         21   -1    0    0  501  502  0.00000000000E+00 -0.00000000000E+00 -0.91442993086E+02  0.91442993086E+02  0.00000000000E+00 0. -1.
         25    1    1    2    0    0 -0.71199424587E+02  0.37327818895E+03  0.71612213048E+03  0.82028157980E+03  0.12500000000E+03 0.  0.
          2    1    1    2  501    0  0.71199424587E+02 -0.37327818895E+03  0.87777325374E+03  0.95649979059E+03  0.00000000000E+00 0. -1.
<mgrwt>
<rscale>  3 0.40003870E+03</rscale>
<asrwt>0</asrwt>
<pdfrwt beam="1">  1       21 0.14068154E-01 0.40003870E+03</pdfrwt>
<pdfrwt beam="2">  1        2 0.25928280E+00 0.40003870E+03</pdfrwt>
<totfact> 0.57898003E+03</totfact>
</mgrwt>
</event>
<event>
 4    0  0.1314647E-001  0.2448955E+03  0.7546771E-02  0.1116574E+00
         21   -1    0    0  501  502  0.00000000000E+00  0.00000000000E+00  0.28412914578E+03  0.28412914578E+03  0.00000000000E+00 0.  1.
          1   -1    0    0  502    0 -0.00000000000E+00 -0.00000000000E+00 -0.54960592961E+03  0.54960592961E+03  0.00000000000E+00 0. -1.
         25    1    1    2    0    0 -0.17895832292E+03 -0.11100772627E+03  0.20429486791E+03  0.31892035007E+03  0.12500000000E+03 0.  0.
          1    1    1    2  501    0  0.17895832292E+03  0.11100772627E+03 -0.46977165174E+03  0.51481472532E+03  0.00000000000E+00 0. -1.
<mgrwt>
<rscale>  3 0.24489548E+03</rscale>
<asrwt>0</asrwt>
<pdfrwt beam="1">  1       21 0.43712176E-01 0.24489548E+03</pdfrwt>
<pdfrwt beam="2">  1        1 0.84554758E-01 0.24489548E+03</pdfrwt>
<totfact> 0.21674332E+03</totfact>
</mgrwt>
</event>
<event>
 4    0  0.1653782E-001  0.2647321E+03  0.7546771E-02  0.1104333E+00
          2   -1    0    0  502    0 -0.00000000000E+00  0.00000000000E+00  0.74246505633E+03  0.74246505633E+03  0.00000000000E+00 0. -1.
         21   -1    0    0  501  502  0.00000000000E+00 -0.00000000000E+00 -0.83674029192E+02  0.83674029192E+02  0.00000000000E+00 0. -1.
         25    1    1    2    0    0  0.23282375863E+03  0.15849062729E+02  0.33352931841E+03  0.42582261754E+03  0.12500000000E+03 0.  0.
          2    1    1    2  501    0 -0.23282375863E+03 -0.15849062729E+02  0.32526170873E+03  0.40031646798E+03  0.00000000000E+00 0. -1.
<mgrwt>
<rscale>  3 0.26473212E+03</rscale>
<asrwt>0</asrwt>
<pdfrwt beam="1">  1       21 0.12872928E-01 0.26473212E+03</pdfrwt>
<pdfrwt beam="2">  1        2 0.11422539E+00 0.26473212E+03</pdfrwt>
<totfact> 0.25194581E+04</totfact>
</mgrwt>
</event>
<event>
 4    0  0.1031289E-001  0.2458044E+03  0.7546771E-02  0.1115985E+00
         21   -1    0    0  501  502  0.00000000000E+00  0.00000000000E+00  0.18623451719E+04  0.18623451719E+04  0.00000000000E+00 0.  1.
          2   -1    0    0  502    0 -0.00000000000E+00 -0.00000000000E+00 -0.28107848267E+02  0.28107848267E+02  0.00000000000E+00 0.  1.
         25    1    1    2    0    0  0.77052668259E+02 -0.19712353921E+03  0.96266297609E+03  0.99354909739E+03  0.12500000000E+03 0.  0.
          2    1    1    2  501    0 -0.77052668259E+02  0.19712353921E+03  0.87157434757E+03  0.89690392280E+03  0.00000000000E+00 0.  1.
<mgrwt>
<rscale>  3 0.24580440E+03</rscale>
<asrwt>0</asrwt>
<pdfrwt beam="1">  1       21 0.28651455E+00 0.24580440E+03</pdfrwt>
<pdfrwt beam="2">  1        2 0.43242858E-02 0.24580440E+03</pdfrwt>
<totfact> 0.89642065E+02</totfact>
</mgrwt>
</event>
<event>
 4    0  0.1382762E-001  0.4315191E+03  0.7546771E-02  0.1033381E+00
         21   -1    0    0  501  502  0.00000000000E+00  0.00000000000E+00  0.41095826077E+03  0.41095826077E+03  0.00000000000E+00 0.  1.
          2   -1    0    0  502    0 -0.00000000000E+00 -0.00000000000E+00 -0.14958449431E+04  0.14958449431E+04  0.00000000000E+00 0. -1.
         25    1    1    2    0    0 -0.96695469304E+02  0.40153923754E+03  0.25736836603E+03  0.50244128901E+03  0.12500000000E+03 0.  0.
          2    1    1    2  501    0  0.96695469304E+02 -0.40153923754E+03 -0.13422550483E+04  0.14043619148E+04  0.00000000000E+00 0. -1.
<mgrwt>
<rscale>  3 0.43151915E+03</rscale>
<asrwt>0</asrwt>
<pdfrwt beam="1">  1       21 0.63224348E-01 0.43151915E+03</pdfrwt>
<pdfrwt beam="2">  1        2 0.23012999E+00 0.43151915E+03</pdfrwt>
<totfact> 0.36194072E+02</totfact>
</mgrwt>
</event>
<event>
 4    0  0.1247471E-001  0.2504442E+03  0.7546771E-02  0.1113024E+00
         21   -1    0    0  501  502  0.00000000000E+00  0.00000000000E+00  0.23443133476E+03  0.23443133476E+03  0.00000000000E+00 0. -1.
          1   -1    0    0  502    0 -0.00000000000E+00 -0.00000000000E+00 -0.31834345421E+03  0.31834345421E+03  0.00000000000E+00 0. -1.
         25    1    1    2    0    0 -0.18972945537E+03  0.10535673431E+03  0.98656477823E+02  0.26917542294E+03  0.12500000000E+03 0.  0.
          1    1    1    2  501    0  0.18972945537E+03 -0.10535673431E+03 -0.18256859727E+03  0.28359936602E+03  0.00000000000E+00 0. -1.
<mgrwt>
<rscale>  3 0.25044422E+03</rscale>
<asrwt>0</asrwt>
<pdfrwt beam="1">  1       21 0.36066359E-01 0.25044422E+03</pdfrwt>
<pdfrwt beam="2">  1        1 0.48975916E-01 0.25044422E+03</pdfrwt>
<totfact> 0.64997082E+03</totfact>
</mgrwt>
</event>
<event>
 4    0  0.1744721E-001  0.2552526E+03  0.7546771E-02  0.1110030E+00
         -1   -1    0    0    0  501 -0.00000000000E+00  0.00000000000E+00  0.68728610891E+03  0.68728610891E+03  0.00000000000E+00 0. -1.
         21   -1    0    0  501  502  0.00000000000E+00 -0.00000000000E+00 -0.14335295555E+03  0.14335295555E+03  0.00000000000E+00 0. -1.
         25    1    1    2    0    0 -0.18722580341E+03  0.12031375111E+03  0.13729222541E+02  0.25562157914E+03  0.12500000000E+03 0.  0.
         -1    1    1    2    0  502  0.18722580341E+03 -0.12031375111E+03  0.53020393083E+03  0.57501748533E+03  0.00000000000E+00 0. -1.
<mgrwt>
<rscale>  3 0.25525262E+03</rscale>
<asrwt>0</asrwt>
<pdfrwt beam="1">  1       21 0.22054301E-01 0.25525262E+03</pdfrwt>
<pdfrwt beam="2">  1       -1 0.10573632E+00 0.25525262E+03</pdfrwt>
<totfact> 0.15730343E+03</totfact>
</mgrwt>
</event>
<event>
 4    0  0.1590059E-001  0.2791675E+03  0.7546771E-02  0.1096144E+00
          2   -1    0    0  502    0 -0.00000000000E+00  0.00000000000E+00  0.14645967633E+04  0.14645967633E+04  0.00000000000E+00 0.  1.
         21   -1    0    0  501  502  0.00000000000E+00 -0.00000000000E+00 -0.53539005329E+02  0.53539005329E+02  0.00000000000E+00 0.  1.
         25    1    1    2    0    0 -0.34114111657E+02  0.24727662070E+03  0.99038172823E+03  0.10289754455E+04  0.12500000000E+03 0.  0.
          2    1    1    2  501    0  0.34114111657E+02 -0.24727662070E+03  0.42067602974E+03  0.48916032316E+03  0.00000000000E+00 0.  1.
<mgrwt>
<rscale>  3 0.27916751E+03</rscale>
<asrwt>0</asrwt>
<pdfrwt beam="1">  1       21 0.82367712E-02 0.27916751E+03</pdfrwt>
<pdfrwt beam="2">  1        2 0.22532255E+00 0.27916751E+03</pdfrwt>
<totfact> 0.20458984E+04</totfact>
</mgrwt>
</event>
<event>
 4    0  0.1523085E-001  0.2518548E+03  0.7546771E-02  0.1112138E+00
         21   -1    0    0  501  502  0.00000000000E+00  0.00000000000E+00  0.25529986682E+03  0.25529986682E+03  0.00000000000E+00 0.  1.
          2   -1    0    0  502    0 -0.00000000000E+00 -0.00000000000E+00 -0.81831956430E+03  0.81831956430E+03  0.00000000000E+00 0. -1.
         25    1    1    2    0    0  0.21292887835E+03 -0.49670298343E+02  0.17317172497E+03  0.30564569701E+03  0.12500000000E+03 0.  0.
          2    1    1    2  501    0 -0.21292887835E+03  0.49670298343E+02 -0.73619142246E+03  0.76797373411E+03  0.00000000000E+00 0. -1.
<mgrwt>
<rscale>  3 0.25185481E+03</rscale>
<asrwt>0</asrwt>
<pdfrwt beam="1">  1       21 0.39276902E-01 0.25185481E+03</pdfrwt>
<pdfrwt beam="2">  1        2 0.12589532E+00 0.25185481E+03</pdfrwt>
<totfact> 0.26603869E+03</totfact>
</mgrwt>
</event>
<event>
 4    0  0.1166346E-001  0.5058669E+03  0.7546771E-02  0.1012259E+00
         21   -1    0    0  501  502  0.00000000000E+00  0.00000000000E+00  0.75516254652E+03  0.75516254652E+03  0.00000000000E+00 0.  1.
          1   -1    0    0  502    0 -0.00000000000E+00 -0.00000000000E+00 -0.11765339412E+04  0.11765339412E+04  0.00000000000E+00 0.  1.
         25    1    1    2    0    0  0.76362570612E+02  0.48419527533E+03  0.60838645672E+03  0.79122398066E+03  0.12500000000E+03 0.  0.
          1    1    1    2  501    0 -0.76362570612E+02 -0.48419527533E+03 -0.10297578514E+04  0.11404725071E+04  0.00000000000E+00 0.  1.
<mgrwt>
<rscale>  3 0.50586689E+03</rscale>
<asrwt>0</asrwt>
<pdfrwt beam="1">  1       21 0.11617885E+00 0.50586689E+03</pdfrwt>
<pdfrwt beam="2">  1        1 0.18100522E+00 0.50586689E+03</pdfrwt>
<totfact> 0.64409358E+01</totfact>
</mgrwt>
</event>
<event>
 4    0  0.1666399E-001  0.2881428E+03  0.7546771E-02  0.1091323E+00
         21   -1    0    0  501  502  0.00000000000E+00  0.00000000000E+00  0.11938683077E+03  0.11938683077E+03  0.00000000000E+00 0.  1.
          1   -1    0    0  502    0 -0.00000000000E+00 -0.00000000000E+00 -0.12239805606E+04  0.12239805606E+04  0.00000000000E+00 0.  1.
         25    1    1    2    0    0  0.11104068605E+03  0.23467256807E+03 -0.98805116145E+02  0.30461237522E+03  0.12500000000E+03 0.  0.
          1    1    1    2  501    0 -0.11104068605E+03 -0.23467256807E+03 -0.10057886137E+04  0.10387550162E+04  0.00000000000E+00 0.  1.
<mgrwt>
<rscale>  3 0.28814276E+03</rscale>
<asrwt>0</asrwt>
<pdfrwt beam="1">  1       21 0.18367205E-01 0.28814276E+03</pdfrwt>
<pdfrwt beam="2">  1        1 0.18830470E+00 0.28814276E+03</pdfrwt>
<totfact> 0.32464917E+03</totfact>
</mgrwt>
</event>
<event>
 4    0  0.1002184E-001  0.2358496E+03  0.7546771E-02  0.1122589E+00
         21   -1    0    0  501  502  0.00000000000E+00  0.00000000000E+00  0.28333504515E+03  0.28333504515E+03  0.00000000000E+00 0.  1.
          1   -1    0    0  502    0 -0.00000000000E+00 -0.00000000000E+00 -0.20511169088E+03  0.20511169088E+03  0.00000000000E+00 0. -1.
         25    1    1    2    0    0  0.19869785025E+03 -0.22785824568E+02  0.14587254563E+03  0.27731539637E+03  0.12500000000E+03 0.  0.
          1    1    1    2  501    0 -0.19869785025E+03  0.22785824568E+02 -0.67649191362E+02  0.21113133966E+03  0.00000000000E+00 0. -1.
<mgrwt>
<rscale>  3 0.23584959E+03</rscale>
<asrwt>0</asrwt>
<pdfrwt beam="1">  1       21 0.43590007E-01 0.23584959E+03</pdfrwt>
<pdfrwt beam="2">  1        1 0.31555645E-01 0.23584959E+03</pdfrwt>
<totfact> 0.77207762E+03</totfact>
</mgrwt>
</event>
<event>
 4    0  0.1438352E-001  0.3022280E+03  0.7546771E-02  0.1084132E+00
         21   -1    0    0  501  502  0.00000000000E+00  0.00000000000E+00  0.14234030341E+03  0.14234030341E+03  0.00000000000E+00 0.  1.
          1   -1    0    0  502    0 -0.00000000000E+00 -0.00000000000E+00 -0.65723848675E+03  0.65723848675E+03  0.00000000000E+00 0.  1.
         25    1    1    2    0    0  0.16457533034E+03 -0.22052604251E+03 -0.13628396520E+03  0.33153445364E+03  0.12500000000E+03 0.  0.
          1    1    1    2  501    0 -0.16457533034E+03  0.22052604251E+03 -0.37861421813E+03  0.46804433652E+03  0.00000000000E+00 0.  1.
<mgrwt>
<rscale>  3 0.30222802E+03</rscale>
<asrwt>0</asrwt>
<pdfrwt beam="1">  1       21 0.21898508E-01 0.30222802E+03</pdfrwt>
<pdfrwt beam="2">  1        1 0.10111362E+00 0.30222802E+03</pdfrwt>
<totfact> 0.65080135E+03</totfact>
</mgrwt>
</event>
<event>
 4    0  0.1002184E-001  0.3100475E+03  0.7546771E-02  0.1080323E+00
         21   -1    0    0  501  502  0.00000000000E+00  0.00000000000E+00  0.43967923503E+03  0.43967923503E+03  0.00000000000E+00 0.  1.
          2   -1    0    0  502    0 -0.00000000000E+00 -0.00000000000E+00 -0.30585318961E+03  0.30585318961E+03  0.00000000000E+00 0. -1.
         25    1    1    2    0    0  0.27608838985E+03  0.65419032638E+02  0.28752190790E+03  0.42284547575E+03  0.12500000000E+03 0.  0.
          2    1    1    2  501    0 -0.27608838985E+03 -0.65419032638E+02 -0.15369586248E+03  0.32268694889E+03  0.00000000000E+00 0. -1.
<mgrwt>
<rscale>  3 0.31004749E+03</rscale>
<asrwt>0</asrwt>
<pdfrwt beam="1">  1       21 0.67642959E-01 0.31004749E+03</pdfrwt>
<pdfrwt beam="2">  1        2 0.47054337E-01 0.31004749E+03</pdfrwt>
<totfact> 0.25556901E+03</totfact>
</mgrwt>
</event>
<event>
 4    0  0.1452105E-001  0.2569242E+03  0.7546771E-02  0.1109005E+00
          2   -1    0    0  502    0 -0.00000000000E+00  0.00000000000E+00  0.15822584515E+04  0.15822584515E+04  0.00000000000E+00 0.  1.
         21   -1    0    0  501  502  0.00000000000E+00 -0.00000000000E+00 -0.15001673071E+03  0.15001673071E+03  0.00000000000E+00 0.  1.
         25    1    1    2    0    0  0.26196744964E+01  0.22445082440E+03 -0.24732058201E+02  0.25811181680E+03  0.12500000000E+03 0.  0.
          2    1    1    2  501    0 -0.26196744964E+01 -0.22445082440E+03  0.14569737790E+04  0.14741633654E+04  0.00000000000E+00 0.  1.
<mgrwt>
<rscale>  3 0.25692418E+03</rscale>
<asrwt>0</asrwt>
<pdfrwt beam="1">  1       21 0.23079498E-01 0.25692418E+03</pdfrwt>
<pdfrwt beam="2">  1        2 0.24342437E+00 0.25692418E+03</pdfrwt>
<totfact> 0.27164495E+03</totfact>
</mgrwt>
</event>
<event>
 4    0  0.1098515E-001  0.2445506E+03  0.7546771E-02  0.1116798E+00
         21   -1    0    0  501  502  0.00000000000E+00  0.00000000000E+00  0.12329999300E+03  0.12329999300E+03  0.00000000000E+00 0. -1.
          4   -1    0    0  502    0 -0.00000000000E+00 -0.00000000000E+00 -0.31145583027E+04  0.31145583027E+04  0.00000000000E+00 0.  1.
         25    1    1    2    0    0 -0.13249784760E+03 -0.16316961870E+03 -0.53992910868E+01  0.24461021326E+03  0.12500000000E+03 0.  0.
          4    1    1    2  501    0  0.13249784760E+03  0.16316961870E+03 -0.29858590186E+04  0.29932480825E+04  0.00000000000E+00 0.  1.
<mgrwt>
<rscale>  3 0.24455062E+03</rscale>
<asrwt>0</asrwt>
<pdfrwt beam="1">  1       21 0.18969232E-01 0.24455062E+03</pdfrwt>
<pdfrwt beam="2">  1        4 0.47916277E+00 0.24455062E+03</pdfrwt>
<totfact> 0.25101416E+00</totfact>
</mgrwt>
</event>
<event>
 4    0  0.1601416E-001  0.2763906E+03  0.7546771E-02  0.1097677E+00
          2   -1    0    0  502    0 -0.00000000000E+00  0.00000000000E+00  0.15784540005E+04  0.15784540005E+04  0.00000000000E+00 0. -1.
         21   -1    0    0  501  502  0.00000000000E+00 -0.00000000000E+00 -0.44810057894E+02  0.44810057894E+02  0.00000000000E+00 0. -1.
         25    1    1    2    0    0  0.50696891037E+02  0.24123966852E+03  0.66069299084E+03  0.71617524432E+03  0.12500000000E+03 0.  0.
          2    1    1    2  501    0 -0.50696891037E+02 -0.24123966852E+03  0.87295095176E+03  0.90708881407E+03  0.00000000000E+00 0. -1.
<mgrwt>
<rscale>  3 0.27639058E+03</rscale>
<asrwt>0</asrwt>
<pdfrwt beam="1">  1       21 0.68938563E-02 0.27639058E+03</pdfrwt>
<pdfrwt beam="2">  1        2 0.24283903E+00 0.27639058E+03</pdfrwt>
<totfact> 0.24283673E+04</totfact>
</mgrwt>
</event>
<event>
 4    0  0.1553572E-001  0.2531564E+03  0.7546771E-02  0.1111326E+00
         21   -1    0    0  501  502  0.00000000000E+00  0.00000000000E+00  0.59633656517E+02  0.59633656517E+02  0.00000000000E+00 0. -1.
          2   -1    0    0  502    0 -0.00000000000E+00 -0.00000000000E+00 -0.11824950857E+04  0.11824950857E+04  0.00000000000E+00 0. -1.
         25    1    1    2    0    0  0.21573151782E+03 -0.43852700736E+02 -0.31131898395E+03  0.40125759421E+03  0.12500000000E+03 0.  0.
          2    1    1    2  501    0 -0.21573151782E+03  0.43852700736E+02 -0.81154244528E+03  0.84087114805E+03  0.00000000000E+00 0. -1.
<mgrwt>
<rscale>  3 0.25315637E+03</rscale>
<asrwt>0</asrwt>
<pdfrwt beam="1">  1       21 0.91744090E-02 0.25315637E+03</pdfrwt>
<pdfrwt beam="2">  1        2 0.18192232E+00 0.25315637E+03</pdfrwt>
<totfact> 0.24359771E+04</totfact>
</mgrwt>
</event>
<event>
 4    0  0.1725181E-001  0.4036434E+03  0.7546771E-02  0.1042525E+00
         -3   -1    0    0    0  501 -0.00000000000E+00  0.00000000000E+00  0.57649867189E+03  0.57649867189E+03  0.00000000000E+00 0. -1.
         21   -1    0    0  501  502  0.00000000000E+00 -0.00000000000E+00 -0.50821597722E+03  0.50821597722E+03  0.00000000000E+00 0. -1.
         25    1    1    2    0    0 -0.32600840669E+03 -0.20253778059E+03 -0.33752051365E+03  0.52616359712E+03  0.12500000000E+03 0.  0.
         -3    1    1    2    0  502  0.32600840669E+03  0.20253778059E+03  0.40580320831E+03  0.55855105199E+03  0.00000000000E+00 0. -1.
<mgrwt>
<rscale>  3 0.40364345E+03</rscale>
<asrwt>0</asrwt>
<pdfrwt beam="1">  1       21 0.78187073E-01 0.40364345E+03</pdfrwt>
<pdfrwt beam="2">  1       -3 0.88692104E-01 0.40364345E+03</pdfrwt>
<totfact> 0.79922378E+01</totfact>
</mgrwt>
</event>
<event>
 4    0  0.1002184E-001  0.2390873E+03  0.7546771E-02  0.1120402E+00
          3   -1    0    0  502    0 -0.00000000000E+00  0.00000000000E+00  0.11965955422E+03  0.11965955422E+03  0.00000000000E+00 0.  1.
         21   -1    0    0  501  502  0.00000000000E+00 -0.00000000000E+00 -0.58753737618E+03  0.58753737618E+03  0.00000000000E+00 0.  1.
         25    1    1    2    0    0  0.14911974839E+03 -0.13892810492E+03 -0.44097755690E+03  0.50162129479E+03  0.12500000000E+03 0.  0.
          3    1    1    2  501    0 -0.14911974839E+03  0.13892810492E+03 -0.26900265064E+02  0.20557563561E+03  0.00000000000E+00 0.  1.
<mgrwt>
<rscale>  3 0.23908726E+03</rscale>
<asrwt>0</asrwt>
<pdfrwt beam="1">  1       21 0.90390365E-01 0.23908726E+03</pdfrwt>
<pdfrwt beam="2">  1        3 0.18409162E-01 0.23908726E+03</pdfrwt>
<totfact> 0.13237173E+03</totfact>
</mgrwt>
</event>
<event>
 4    0  0.1141480E-001  0.2394500E+03  0.7546771E-02  0.1120160E+00
          2   -1    0    0  502    0 -0.00000000000E+00  0.00000000000E+00  0.21575588285E+04  0.21575588285E+04  0.00000000000E+00 0.  1.
         21   -1    0    0  501  502  0.00000000000E+00 -0.00000000000E+00 -0.41176917713E+02  0.41176917713E+02  0.00000000000E+00 0. -1.
         25    1    1    2    0    0 -0.16057314609E+03 -0.12620452200E+03  0.37176554389E+03  0.44220576234E+03  0.12500000000E+03 0.  0.
          2    1    1    2  501    0  0.16057314609E+03  0.12620452200E+03  0.17446163669E+04  0.17565299839E+04  0.00000000000E+00 0.  1.
<mgrwt>
<rscale>  3 0.23945003E+03</rscale>
<asrwt>0</asrwt>
<pdfrwt beam="1">  1       21 0.63349121E-02 0.23945003E+03</pdfrwt>
<pdfrwt beam="2">  1        2 0.33193204E+00 0.23945003E+03</pdfrwt>
<totfact> 0.14077476E+04</totfact>
</mgrwt>
</event>
<event>
 4    0  0.1059011E-001  0.4672729E+03  0.7546771E-02  0.1022693E+00
          1   -1    0    0  502    0 -0.00000000000E+00  0.00000000000E+00  0.23594126657E+04  0.23594126657E+04  0.00000000000E+00 0. -1.
         21   -1    0    0  501  502  0.00000000000E+00 -0.00000000000E+00 -0.31594470522E+03  0.31594470522E+03  0.00000000000E+00 0.  1.
         25    1    1    2    0    0 -0.11772495815E+02 -0.45008928037E+03 -0.10607915209E+03  0.47916253868E+03  0.12500000000E+03 0.  0.
          1    1    1    2  501    0  0.11772495815E+02  0.45008928037E+03  0.21495471126E+04  0.21961948322E+04  0.00000000000E+00 0. -1.
<mgrwt>
<rscale>  3 0.46727289E+03</rscale>
<asrwt>0</asrwt>
<pdfrwt beam="1">  1       21 0.48606879E-01 0.46727289E+03</pdfrwt>
<pdfrwt beam="2">  1        1 0.36298655E+00 0.46727289E+03</pdfrwt>
<totfact> 0.77464781E+01</totfact>
</mgrwt>
</event>
<event>
 4    0  0.1394635E-001  0.2580241E+03  0.7546771E-02  0.1108336E+00
         21   -1    0    0  501  502  0.00000000000E+00  0.00000000000E+00  0.36283310031E+03  0.36283310031E+03  0.00000000000E+00 0. -1.
          2   -1    0    0  502    0 -0.00000000000E+00 -0.00000000000E+00 -0.25452850908E+04  0.25452850908E+04  0.00000000000E+00 0.  1.
         25    1    1    2    0    0 -0.20414974683E+03  0.96303296223E+02  0.31120911016E+03  0.40426173977E+03  0.12500000000E+03 0.  0.
          2    1    1    2  501    0  0.20414974683E+03 -0.96303296223E+02 -0.24936611006E+04  0.25038564513E+04  0.00000000000E+00 0.  1.
<mgrwt>
<rscale>  3 0.25802412E+03</rscale>
<asrwt>0</asrwt>
<pdfrwt beam="1">  1       21 0.55820476E-01 0.25802412E+03</pdfrwt>
<pdfrwt beam="2">  1        2 0.39158233E+00 0.25802412E+03</pdfrwt>
<totfact> 0.14151827E+02</totfact>
</mgrwt>
</event>
<event>
 4    0  0.1167318E-001  0.4584192E+03  0.7546771E-02  0.1025241E+00
          2   -1    0    0  502    0 -0.00000000000E+00  0.00000000000E+00  0.23588913902E+04  0.23588913902E+04  0.00000000000E+00 0. -1.
         21   -1    0    0  501  502  0.00000000000E+00 -0.00000000000E+00 -0.99809641830E+02  0.99809641830E+02  0.00000000000E+00 0. -1.
         25    1    1    2    0    0  0.22591652950E+03 -0.37879394024E+03  0.68685378332E+03  0.82578220320E+03  0.12500000000E+03 0.  0.
          2    1    1    2  501    0 -0.22591652950E+03  0.37879394024E+03  0.15722279650E+04  0.16329188288E+04  0.00000000000E+00 0. -1.
<mgrwt>
<rscale>  3 0.45841916E+03</rscale>
<asrwt>0</asrwt>
<pdfrwt beam="1">  1       21 0.15355331E-01 0.45841916E+03</pdfrwt>
<pdfrwt beam="2">  1        2 0.36290632E+00 0.45841916E+03</pdfrwt>
<totfact> 0.21063505E+03</totfact>
</mgrwt>
</event>
<event>
 4    0  0.1066437E-001  0.3805058E+03  0.7546771E-02  0.1050747E+00
          1   -1    0    0  502    0 -0.00000000000E+00  0.00000000000E+00  0.27585301257E+03  0.27585301257E+03  0.00000000000E+00 0. -1.
         21   -1    0    0  501  502  0.00000000000E+00 -0.00000000000E+00 -0.52322908439E+03  0.52322908439E+03  0.00000000000E+00 0. -1.
         25    1    1    2    0    0  0.33949169407E+03  0.11791956507E+03 -0.36153920610E+02  0.38221949211E+03  0.12500000000E+03 0.  0.
          1    1    1    2  501    0 -0.33949169407E+03 -0.11791956507E+03 -0.21122215121E+03  0.41686260486E+03  0.00000000000E+00 0. -1.
<mgrwt>
<rscale>  3 0.38050576E+03</rscale>
<asrwt>0</asrwt>
<pdfrwt beam="1">  1       21 0.80496781E-01 0.38050576E+03</pdfrwt>
<pdfrwt beam="2">  1        1 0.42438926E-01 0.38050576E+03</pdfrwt>
<totfact> 0.13556948E+03</totfact>
</mgrwt>
</event>
<event>
 4    0  0.1643091E-001  0.3025786E+03  0.7546771E-02  0.1083959E+00
          1   -1    0    0  502    0 -0.00000000000E+00  0.00000000000E+00  0.57552459476E+03  0.57552459476E+03  0.00000000000E+00 0.  1.
         21   -1    0    0  501  502  0.00000000000E+00 -0.00000000000E+00 -0.52278176456E+03  0.52278176456E+03  0.00000000000E+00 0. -1.
         25    1    1    2    0    0  0.23416273748E+03  0.14524671078E+03 -0.43985365849E+03  0.53387735998E+03  0.12500000000E+03 0.  0.
          1    1    1    2  501    0 -0.23416273748E+03 -0.14524671078E+03  0.49259648869E+03  0.56442899933E+03  0.00000000000E+00 0.  1.
<mgrwt>
<rscale>  3 0.30257858E+03</rscale>
<asrwt>0</asrwt>
<pdfrwt beam="1">  1       21 0.80427964E-01 0.30257858E+03</pdfrwt>
<pdfrwt beam="2">  1        1 0.88542245E-01 0.30257858E+03</pdfrwt>
<totfact> 0.53177653E+02</totfact>
</mgrwt>
</event>
<event>
 4    0  0.1442918E-001  0.3746306E+03  0.7546771E-02  0.1052936E+00
         -2   -1    0    0    0  501 -0.00000000000E+00  0.00000000000E+00  0.26001317064E+03  0.26001317064E+03  0.00000000000E+00 0. -1.
         21   -1    0    0  501  502  0.00000000000E+00 -0.00000000000E+00 -0.60994897176E+03  0.60994897176E+03  0.00000000000E+00 0. -1.
         25    1    1    2    0    0 -0.26775353753E+03 -0.23028487611E+03 -0.35592456101E+03  0.51674981776E+03  0.12500000000E+03 0.  0.
         -2    1    1    2    0  502  0.26775353753E+03  0.23028487611E+03  0.59887598894E+01  0.35321232463E+03  0.00000000000E+00 0. -1.
<mgrwt>
<rscale>  3 0.37463059E+03</rscale>
<asrwt>0</asrwt>
<pdfrwt beam="1">  1       21 0.93838303E-01 0.37463059E+03</pdfrwt>
<pdfrwt beam="2">  1       -2 0.40002026E-01 0.37463059E+03</pdfrwt>
<totfact> 0.42974004E+02</totfact>
</mgrwt>
</event>
<event>
 4    0  0.1142083E-001  0.2926811E+03  0.7546771E-02  0.1088958E+00
         21   -1    0    0  501  502  0.00000000000E+00  0.00000000000E+00  0.88070004726E+02  0.88070004726E+02  0.00000000000E+00 0. -1.
          2   -1    0    0  502    0 -0.00000000000E+00 -0.00000000000E+00 -0.34816103103E+04  0.34816103103E+04  0.00000000000E+00 0. -1.
         25    1    1    2    0    0 -0.26085833229E+03 -0.44611413704E+02 -0.17651738943E+03  0.34179034002E+03  0.12500000000E+03 0.  0.
          2    1    1    2  501    0  0.26085833229E+03  0.44611413704E+02 -0.32170229162E+04  0.32278899750E+04  0.00000000000E+00 0. -1.
<mgrwt>
<rscale>  3 0.29268114E+03</rscale>
<asrwt>0</asrwt>
<pdfrwt beam="1">  1       21 0.13549230E-01 0.29268114E+03</pdfrwt>
<pdfrwt beam="2">  1        2 0.53563240E+00 0.29268114E+03</pdfrwt>
<totfact> 0.60828699E+02</totfact>
</mgrwt>
</event>
<event>
 4    0  0.1107568E-001  0.2371335E+03  0.7546771E-02  0.1121717E+00
         21   -1    0    0  501  502  0.00000000000E+00  0.00000000000E+00  0.95594601456E+03  0.95594601456E+03  0.00000000000E+00 0.  1.
          3   -1    0    0  502    0 -0.00000000000E+00 -0.00000000000E+00 -0.51108602341E+02  0.51108602341E+02  0.00000000000E+00 0.  1.
         25    1    1    2    0    0  0.13578745948E+03  0.14889272128E+03  0.42622087009E+03  0.48774635488E+03  0.12500000000E+03 0.  0.
          3    1    1    2  501    0 -0.13578745948E+03 -0.14889272128E+03  0.47861654213E+03  0.51930826202E+03  0.00000000000E+00 0.  1.
<mgrwt>
<rscale>  3 0.23713346E+03</rscale>
<asrwt>0</asrwt>
<pdfrwt beam="1">  1       21 0.14706860E+00 0.23713346E+03</pdfrwt>
<pdfrwt beam="2">  1        3 0.78628626E-02 0.23713346E+03</pdfrwt>
<totfact> 0.16874406E+03</totfact>
</mgrwt>
</event>
<event>
 4    0  0.1002184E-001  0.2873812E+03  0.7546771E-02  0.1091724E+00
         21   -1    0    0  501  502  0.00000000000E+00  0.00000000000E+00  0.10955502618E+04  0.10955502618E+04  0.00000000000E+00 0. -1.
          4   -1    0    0  502    0 -0.00000000000E+00 -0.00000000000E+00 -0.79268340360E+02  0.79268340360E+02  0.00000000000E+00 0. -1.
         25    1    1    2    0    0 -0.23156835764E+03  0.11549472407E+03  0.75155099939E+03  0.80462217235E+03  0.12500000000E+03 0.  0.
          4    1    1    2  501    0  0.23156835764E+03 -0.11549472407E+03  0.26473092200E+03  0.37019642977E+03  0.00000000000E+00 0. -1.
<mgrwt>
<rscale>  3 0.28738117E+03</rscale>
<asrwt>0</asrwt>
<pdfrwt beam="1">  1       21 0.16854618E+00 0.28738117E+03</pdfrwt>
<pdfrwt beam="2">  1        4 0.12195130E-01 0.28738117E+03</pdfrwt>
<totfact> 0.48671162E+02</totfact>
</mgrwt>
</event>
<event>
 4    0  0.1446961E-001  0.2460502E+03  0.7546771E-02  0.1115827E+00
          2   -1    0    0  502    0 -0.00000000000E+00  0.00000000000E+00  0.23079183514E+04  0.23079183514E+04  0.00000000000E+00 0. -1.
         21   -1    0    0  501  502  0.00000000000E+00 -0.00000000000E+00 -0.27506977557E+02  0.27506977557E+02  0.00000000000E+00 0. -1.
         25    1    1    2    0    0 -0.11449415964E+03 -0.17834462756E+03  0.72438050842E+03  0.76502799932E+03  0.12500000000E+03 0.  0.
          2    1    1    2  501    0  0.11449415964E+03  0.17834462756E+03  0.15560308654E+04  0.15703973296E+04  0.00000000000E+00 0. -1.
<mgrwt>
<rscale>  3 0.24605024E+03</rscale>
<asrwt>0</asrwt>
<pdfrwt beam="1">  1       21 0.42318445E-02 0.24605024E+03</pdfrwt>
<pdfrwt beam="2">  1        2 0.35506421E+00 0.24605024E+03</pdfrwt>
<totfact> 0.23273031E+04</totfact>
</mgrwt>
</event>
<event>
 4    0  0.1355854E-001  0.2964488E+03  0.7546771E-02  0.1087029E+00
         -1   -1    0    0    0  501 -0.00000000000E+00  0.00000000000E+00  0.15458007377E+03  0.15458007377E+03  0.00000000000E+00 0.  1.
         21   -1    0    0  501  502  0.00000000000E+00 -0.00000000000E+00 -0.12196565169E+04  0.12196565169E+04  0.00000000000E+00 0.  1.
         25    1    1    2    0    0 -0.14494890592E+03  0.22637733657E+03 -0.10649384636E+04  0.11054301494E+04  0.12500000000E+03 0.  0.
         -1    1    1    2    0  502  0.14494890592E+03 -0.22637733657E+03 -0.13797950083E+00  0.26880644128E+03  0.00000000000E+00 0.  1.
<mgrwt>
<rscale>  3 0.29644879E+03</rscale>
<asrwt>0</asrwt>
<pdfrwt beam="1">  1       21 0.18763946E+00 0.29644879E+03</pdfrwt>
<pdfrwt beam="2">  1       -1 0.23781551E-01 0.29644879E+03</pdfrwt>
<totfact> 0.20916742E+02</totfact>
</mgrwt>
</event>
<event>
 4    0  0.1002184E-001  0.5677512E+03  0.7546771E-02  0.9974667E-01
          2   -1    0    0  502    0 -0.00000000000E+00  0.00000000000E+00  0.22542027123E+04  0.22542027123E+04  0.00000000000E+00 0.  1.
         21   -1    0    0  501  502  0.00000000000E+00 -0.00000000000E+00 -0.14880244350E+03  0.14880244350E+03  0.00000000000E+00 0.  1.
         25    1    1    2    0    0 -0.20873073810E+03 -0.51297938496E+03  0.13652135986E+04  0.14785633365E+04  0.12500000000E+03 0.  0.
          2    1    1    2  501    0  0.20873073810E+03  0.51297938496E+03  0.74018667026E+03  0.92444181929E+03  0.00000000000E+00 0.  1.
<mgrwt>
<rscale>  3 0.56775115E+03</rscale>
<asrwt>0</asrwt>
<pdfrwt beam="1">  1       21 0.22892685E-01 0.56775115E+03</pdfrwt>
<pdfrwt beam="2">  1        2 0.34680039E+00 0.56775115E+03</pdfrwt>
<totfact> 0.10967332E+03</totfact>
</mgrwt>
</event>
<event>
 4    0  0.1061874E-001  0.4934115E+03  0.7546771E-02  0.1015513E+00
          2   -1    0    0  502    0 -0.00000000000E+00  0.00000000000E+00  0.18865991596E+04  0.18865991596E+04  0.00000000000E+00 0. -1.
         21   -1    0    0  501  502  0.00000000000E+00 -0.00000000000E+00 -0.22740190649E+03  0.22740190649E+03  0.00000000000E+00 0.  1.
         25    1    1    2    0    0 -0.29953810181E+03  0.37162726244E+03  0.12744841043E+03  0.50960572401E+03  0.12500000000E+03 0.  0.
          2    1    1    2  501    0  0.29953810181E+03 -0.37162726244E+03  0.15317488427E+04  0.16043953421E+04  0.00000000000E+00 0. -1.
<mgrwt>
<rscale>  3 0.49341149E+03</rscale>
<asrwt>0</asrwt>
<pdfrwt beam="1">  1       21 0.34984910E-01 0.49341149E+03</pdfrwt>
<pdfrwt beam="2">  1        2 0.29024601E+00 0.49341149E+03</pdfrwt>
<totfact> 0.76291526E+02</totfact>
</mgrwt>
</event>
<event>
 4    0  0.1508839E-001  0.3478143E+03  0.7546771E-02  0.1063516E+00
         21   -1    0    0  501  502  0.00000000000E+00  0.00000000000E+00  0.12986212771E+03  0.12986212771E+03  0.00000000000E+00 0. -1.
          2   -1    0    0  502    0 -0.00000000000E+00 -0.00000000000E+00 -0.14038445518E+04  0.14038445518E+04  0.00000000000E+00 0. -1.
         25    1    1    2    0    0  0.25001232725E+03  0.20698709171E+03 -0.17808614990E+03  0.39075503413E+03  0.12500000000E+03 0.  0.
          2    1    1    2  501    0 -0.25001232725E+03 -0.20698709171E+03 -0.10958962742E+04  0.11429516454E+04  0.00000000000E+00 0. -1.
<mgrwt>
<rscale>  3 0.34781435E+03</rscale>
<asrwt>0</asrwt>
<pdfrwt beam="1">  1       21 0.19978789E-01 0.34781435E+03</pdfrwt>
<pdfrwt beam="2">  1        2 0.21597608E+00 0.34781435E+03</pdfrwt>
<totfact> 0.43278597E+03</totfact>
</mgrwt>
</event>
<event>
 4    0  0.1457597E-001  0.2703614E+03  0.7546771E-02  0.1101073E+00
         21   -1    0    0  501  502  0.00000000000E+00  0.00000000000E+00  0.62481163698E+03  0.62481163698E+03  0.00000000000E+00 0.  1.
         -1   -1    0    0    0  501 -0.00000000000E+00 -0.00000000000E+00 -0.22377301645E+03  0.22377301645E+03  0.00000000000E+00 0.  1.
         25    1    1    2    0    0  0.23496374980E+03  0.47563845272E+02  0.51613414335E+03  0.58265747831E+03  0.12500000000E+03 0.  0.
         -1    1    1    2    0  502 -0.23496374980E+03 -0.47563845272E+02 -0.11509552282E+03  0.26592717513E+03  0.00000000000E+00 0.  1.
<mgrwt>
<rscale>  3 0.27036139E+03</rscale>
<asrwt>0</asrwt>
<pdfrwt beam="1">  1       21 0.96124866E-01 0.27036139E+03</pdfrwt>
<pdfrwt beam="2">  1       -1 0.34426618E-01 0.27036139E+03</pdfrwt>
<totfact> 0.64377544E+02</totfact>
</mgrwt>
</event>
<event>
 4    0  0.1002184E-001  0.2370079E+03  0.7546771E-02  0.1121802E+00
         21   -1    0    0  501  502  0.00000000000E+00  0.00000000000E+00  0.17674338566E+03  0.17674338566E+03  0.00000000000E+00 0. -1.
          2   -1    0    0  502    0 -0.00000000000E+00 -0.00000000000E+00 -0.30126516077E+03  0.30126516077E+03  0.00000000000E+00 0.  1.
         25    1    1    2    0    0 -0.16812105507E+03  0.11082890264E+03  0.76669011464E+01  0.23713185402E+03  0.12500000000E+03 0.  0.
          2    1    1    2  501    0  0.16812105507E+03 -0.11082890264E+03 -0.13218867626E+03  0.24087669241E+03  0.00000000000E+00 0.  1.
<mgrwt>
<rscale>  3 0.23700788E+03</rscale>
<asrwt>0</asrwt>
<pdfrwt beam="1">  1       21 0.27191291E-01 0.23700788E+03</pdfrwt>
<pdfrwt beam="2">  1        2 0.46348485E-01 0.23700788E+03</pdfrwt>
<totfact> 0.17289882E+04</totfact>
</mgrwt>
</event>
<event>
 4    0  0.1690189E-001  0.3246913E+03  0.7546771E-02  0.1073510E+00
         -2   -1    0    0    0  501 -0.00000000000E+00  0.00000000000E+00  0.31053334527E+03  0.31053334527E+03  0.00000000000E+00 0. -1.
         21   -1    0    0  501  502  0.00000000000E+00 -0.00000000000E+00 -0.31694442227E+03  0.31694442227E+03  0.00000000000E+00 0. -1.
         25    1    1    2    0    0 -0.21310336578E+03 -0.21068078794E+03 -0.34397343240E+02  0.32650821756E+03  0.12500000000E+03 0.  0.
         -2    1    1    2    0  502  0.21310336578E+03  0.21068078794E+03  0.27986266240E+02  0.30096954998E+03  0.00000000000E+00 0. -1.
<mgrwt>
<rscale>  3 0.32469130E+03</rscale>
<asrwt>0</asrwt>
<pdfrwt beam="1">  1       21 0.48760680E-01 0.32469130E+03</pdfrwt>
<pdfrwt beam="2">  1       -2 0.47774361E-01 0.32469130E+03</pdfrwt>
<totfact> 0.13219673E+03</totfact>
</mgrwt>
</event>
<event>
 4    0  0.1078314E-001  0.2946912E+03  0.7546771E-02  0.1087925E+00
         21   -1    0    0  501  502  0.00000000000E+00  0.00000000000E+00  0.80815013203E+02  0.80815013203E+02  0.00000000000E+00 0.  1.
          2   -1    0    0  502    0 -0.00000000000E+00 -0.00000000000E+00 -0.12542093202E+04  0.12542093202E+04  0.00000000000E+00 0. -1.
         25    1    1    2    0    0  0.26679359920E+03 -0.62504963768E+01 -0.29495480458E+03  0.41694271792E+03  0.12500000000E+03 0.  0.
          2    1    1    2  501    0 -0.26679359920E+03  0.62504963768E+01 -0.87843950241E+03  0.91808161548E+03  0.00000000000E+00 0. -1.
<mgrwt>
<rscale>  3 0.29469118E+03</rscale>
<asrwt>0</asrwt>
<pdfrwt beam="1">  1       21 0.12433079E-01 0.29469118E+03</pdfrwt>
<pdfrwt beam="2">  1        2 0.19295528E+00 0.29469118E+03</pdfrwt>
<totfact> 0.12769523E+04</totfact>
</mgrwt>
</event>
<event>
 4    0  0.1263428E-001  0.2498535E+03  0.7546771E-02  0.1113397E+00
         21   -1    0    0  501  502  0.00000000000E+00  0.00000000000E+00  0.17543269939E+02  0.17543269939E+02  0.00000000000E+00 0. -1.
          1   -1    0    0  502    0 -0.00000000000E+00 -0.00000000000E+00 -0.32167124887E+04  0.32167124887E+04  0.00000000000E+00 0. -1.
         25    1    1    2    0    0  0.88889929229E+02  0.19723168213E+03 -0.13992617643E+04  0.14213937671E+04  0.12500000000E+03 0.  0.
          1    1    1    2  501    0 -0.88889929229E+02 -0.19723168213E+03 -0.17999074545E+04  0.18128619916E+04  0.00000000000E+00 0. -1.
<mgrwt>
<rscale>  3 0.24985347E+03</rscale>
<asrwt>0</asrwt>
<pdfrwt beam="1">  1       21 0.26989672E-02 0.24985347E+03</pdfrwt>
<pdfrwt beam="2">  1        1 0.49487837E+00 0.24985347E+03</pdfrwt>
<totfact> 0.43356000E+03</totfact>
</mgrwt>
</event>
<event>
 4    0  0.1377705E-001  0.2991322E+03  0.7546771E-02  0.1085675E+00
         21   -1    0    0  501  502  0.00000000000E+00  0.00000000000E+00  0.10558856248E+03  0.10558856248E+03  0.00000000000E+00 0.  1.
          2   -1    0    0  502    0 -0.00000000000E+00 -0.00000000000E+00 -0.17451288049E+04  0.17451288049E+04  0.00000000000E+00 0. -1.
         25    1    1    2    0    0 -0.15934578521E+03 -0.22014541961E+03 -0.14637968852E+03  0.33302717345E+03  0.12500000000E+03 0.  0.
          2    1    1    2  501    0  0.15934578521E+03  0.22014541961E+03 -0.14931605539E+04  0.15176901939E+04  0.00000000000E+00 0. -1.
<mgrwt>
<rscale>  3 0.29913222E+03</rscale>
<asrwt>0</asrwt>
<pdfrwt beam="1">  1       21 0.16244394E-01 0.29913222E+03</pdfrwt>
<pdfrwt beam="2">  1        2 0.26848135E+00 0.29913222E+03</pdfrwt>
<totfact> 0.42412423E+03</totfact>
</mgrwt>
</event>
<event>
 4    0  0.1475584E-001  0.2513452E+03  0.7546771E-02  0.1112458E+00
          2   -1    0    0  502    0 -0.00000000000E+00  0.00000000000E+00  0.49502015950E+03  0.49502015950E+03  0.00000000000E+00 0.  1.
         21   -1    0    0  501  502  0.00000000000E+00 -0.00000000000E+00 -0.12212725395E+03  0.12212725395E+03  0.00000000000E+00 0.  1.
         25    1    1    2    0    0 -0.17761956327E+03 -0.12649377773E+03  0.10673327206E+03  0.27306844641E+03  0.12500000000E+03 0.  0.
          2    1    1    2  501    0  0.17761956327E+03  0.12649377773E+03  0.26615963349E+03  0.34407896704E+03  0.00000000000E+00 0.  1.
<mgrwt>
<rscale>  3 0.25134515E+03</rscale>
<asrwt>0</asrwt>
<pdfrwt beam="1">  1       21 0.18788808E-01 0.25134515E+03</pdfrwt>
<pdfrwt beam="2">  1        2 0.76156947E-01 0.25134515E+03</pdfrwt>
<totfact> 0.20259644E+04</totfact>
</mgrwt>
</event>
<event>
 4    0  0.1612191E-001  0.2899266E+03  0.7546771E-02  0.1090387E+00
          2   -1    0    0  502    0 -0.00000000000E+00  0.00000000000E+00  0.99702052670E+03  0.99702052670E+03  0.00000000000E+00 0. -1.
         21   -1    0    0  501  502  0.00000000000E+00 -0.00000000000E+00 -0.49218425809E+03  0.49218425809E+03  0.00000000000E+00 0. -1.
         25    1    1    2    0    0  0.25852962300E+03  0.39935523050E+02 -0.42991404525E+03  0.51853977501E+03  0.12500000000E+03 0.  0.
          2    1    1    2  501    0 -0.25852962300E+03 -0.39935523050E+02  0.93475031385E+03  0.97066500978E+03  0.00000000000E+00 0. -1.
<mgrwt>
<rscale>  3 0.28992656E+03</rscale>
<asrwt>0</asrwt>
<pdfrwt beam="1">  1       21 0.75720655E-01 0.28992656E+03</pdfrwt>
<pdfrwt beam="2">  1        2 0.15338777E+00 0.28992656E+03</pdfrwt>
<totfact> 0.49380765E+02</totfact>
</mgrwt>
</event>
<event>
 4    0  0.1540640E-001  0.3245339E+03  0.7546771E-02  0.1073581E+00
         21   -1    0    0  501  502  0.00000000000E+00  0.00000000000E+00  0.11619778930E+03  0.11619778930E+03  0.00000000000E+00 0.  1.
          2   -1    0    0  502    0 -0.00000000000E+00 -0.00000000000E+00 -0.86461301032E+03  0.86461301032E+03  0.00000000000E+00 0.  1.
         25    1    1    2    0    0 -0.28607670260E+03 -0.88641987824E+02 -0.30249891510E+03  0.44365287716E+03  0.12500000000E+03 0.  0.
          2    1    1    2  501    0  0.28607670260E+03  0.88641987824E+02 -0.44591630592E+03  0.53715792246E+03  0.00000000000E+00 0.  1.
<mgrwt>
<rscale>  3 0.32453395E+03</rscale>
<asrwt>0</asrwt>
<pdfrwt beam="1">  1       21 0.17876582E-01 0.32453395E+03</pdfrwt>
<pdfrwt beam="2">  1        2 0.13301739E+00 0.32453395E+03</pdfrwt>
<totfact> 0.11212859E+04</totfact>
</mgrwt>
</event>
<event>
 4    0  0.1002184E-001  0.2522224E+03  0.7546771E-02  0.1111908E+00
         21   -1    0    0  501  502  0.00000000000E+00  0.00000000000E+00  0.63991175891E+03  0.63991175891E+03  0.00000000000E+00 0. -1.
          4   -1    0    0  502    0 -0.00000000000E+00 -0.00000000000E+00 -0.14455571312E+03  0.14455571312E+03  0.00000000000E+00 0.  1.
         25    1    1    2    0    0 -0.21678015751E+03 -0.31583191638E+02  0.50574799300E+03  0.56515233973E+03  0.12500000000E+03 0.  0.
          4    1    1    2  501    0  0.21678015751E+03  0.31583191638E+02 -0.10391947213E+02  0.21931513229E+03  0.00000000000E+00 0.  1.
<mgrwt>
<rscale>  3 0.25222239E+03</rscale>
<asrwt>0</asrwt>
<pdfrwt beam="1">  1       21 0.98447961E-01 0.25222239E+03</pdfrwt>
<pdfrwt beam="2">  1        4 0.22239341E-01 0.25222239E+03</pdfrwt>
<totfact> 0.66213175E+02</totfact>
</mgrwt>
</event>
<event>
 4    0  0.1162197E-001  0.2836145E+03  0.7546771E-02  0.1093731E+00
         21   -1    0    0  501  502  0.00000000000E+00  0.00000000000E+00  0.29665900423E+03  0.29665900423E+03  0.00000000000E+00 0.  1.
          2   -1    0    0  502    0 -0.00000000000E+00 -0.00000000000E+00 -0.45043605180E+03  0.45043605180E+03  0.00000000000E+00 0. -1.
         25    1    1    2    0    0 -0.11339262662E+03  0.22793489256E+03  0.17348853756E+03  0.33246875896E+03  0.12500000000E+03 0.  0.
          2    1    1    2  501    0  0.11339262662E+03 -0.22793489256E+03 -0.32726558513E+03  0.41462629708E+03  0.00000000000E+00 0. -1.
<mgrwt>
<rscale>  3 0.28361453E+03</rscale>
<asrwt>0</asrwt>
<pdfrwt beam="1">  1       21 0.45639847E-01 0.28361453E+03</pdfrwt>
<pdfrwt beam="2">  1        2 0.69297854E-01 0.28361453E+03</pdfrwt>
<totfact> 0.39165480E+03</totfact>
</mgrwt>
</event>
<event>
 4    0  0.1511053E-001  0.2665717E+03  0.7546771E-02  0.1103258E+00
         21   -1    0    0  501  502  0.00000000000E+00  0.00000000000E+00  0.17005204085E+03  0.17005204085E+03  0.00000000000E+00 0.  1.
          4   -1    0    0  502    0 -0.00000000000E+00 -0.00000000000E+00 -0.44863054368E+03  0.44863054368E+03  0.00000000000E+00 0.  1.
         25    1    1    2    0    0 -0.16535252471E+03  0.16761274001E+03 -0.27530207168E+03  0.38321236764E+03  0.12500000000E+03 0.  0.
          4    1    1    2  501    0  0.16535252471E+03 -0.16761274001E+03 -0.32764311551E+01  0.23547021689E+03  0.00000000000E+00 0.  1.
<mgrwt>
<rscale>  3 0.26657173E+03</rscale>
<asrwt>0</asrwt>
<pdfrwt beam="1">  1       21 0.26161853E-01 0.26657173E+03</pdfrwt>
<pdfrwt beam="2">  1        4 0.69020083E-01 0.26657173E+03</pdfrwt>
<totfact> 0.11494859E+03</totfact>
</mgrwt>
</event>
<event>
 4    0  0.1002184E-001  0.3774823E+03  0.7546771E-02  0.1051868E+00
         21   -1    0    0  501  502  0.00000000000E+00  0.00000000000E+00  0.10586604506E+04  0.10586604506E+04  0.00000000000E+00 0.  1.
          2   -1    0    0  502    0 -0.00000000000E+00 -0.00000000000E+00 -0.12792407549E+03  0.12792407549E+03  0.00000000000E+00 0. -1.
         25    1    1    2    0    0 -0.35030411634E+03  0.64458479566E+02  0.52608226117E+03  0.64749935523E+03  0.12500000000E+03 0.  0.
          2    1    1    2  501    0  0.35030411634E+03 -0.64458479566E+02  0.40465411397E+03  0.53908517088E+03  0.00000000000E+00 0. -1.
<mgrwt>
<rscale>  3 0.37748228E+03</rscale>
<asrwt>0</asrwt>
<pdfrwt beam="1">  1       21 0.16287083E+00 0.37748228E+03</pdfrwt>
<pdfrwt beam="2">  1        2 0.19680628E-01 0.37748228E+03</pdfrwt>
<totfact> 0.76616163E+02</totfact>
</mgrwt>
</event>
<event>
 4    0  0.1464900E-001  0.2723134E+03  0.7546771E-02  0.1099963E+00
          2   -1    0    0  502    0 -0.00000000000E+00  0.00000000000E+00  0.27804278238E+04  0.27804278238E+04  0.00000000000E+00 0.  1.
         21   -1    0    0  501  502  0.00000000000E+00 -0.00000000000E+00 -0.24980222679E+02  0.24980222679E+02  0.00000000000E+00 0.  1.
         25    1    1    2    0    0 -0.23551773673E+03 -0.55326043505E+02  0.17624998017E+04  0.17834124947E+04  0.12500000000E+03 0.  0.
          2    1    1    2  501    0  0.23551773673E+03  0.55326043505E+02  0.99294779947E+03  0.10219955518E+04  0.00000000000E+00 0.  1.
<mgrwt>
<rscale>  3 0.27231338E+03</rscale>
<asrwt>0</asrwt>
<pdfrwt beam="1">  1       21 0.38431134E-02 0.27231338E+03</pdfrwt>
<pdfrwt beam="2">  1        2 0.42775788E+00 0.27231338E+03</pdfrwt>
<totfact> 0.14907511E+04</totfact>
</mgrwt>
</event>
<event>
 4    0  0.1534403E-001  0.3722256E+03  0.7546771E-02  0.1053845E+00
          2   -1    0    0  502    0 -0.00000000000E+00  0.00000000000E+00  0.10581498479E+04  0.10581498479E+04  0.00000000000E+00 0. -1.
         21   -1    0    0  501  502  0.00000000000E+00 -0.00000000000E+00 -0.25093820210E+03  0.25093820210E+03  0.00000000000E+00 0. -1.
         25    1    1    2    0    0 -0.35018727272E+03  0.17197408790E+02 -0.56906184268E+02  0.37655038262E+03  0.12500000000E+03 0.  0.
          2    1    1    2  501    0  0.35018727272E+03 -0.17197408790E+02  0.86411783006E+03  0.93253766738E+03  0.00000000000E+00 0. -1.
<mgrwt>
<rscale>  3 0.37222557E+03</rscale>
<asrwt>0</asrwt>
<pdfrwt beam="1">  1       21 0.38605878E-01 0.37222557E+03</pdfrwt>
<pdfrwt beam="2">  1        2 0.16279228E+00 0.37222557E+03</pdfrwt>
<totfact> 0.18638371E+03</totfact>
</mgrwt>
</event>
<event>
 4    0  0.1002184E-001  0.2652815E+03  0.7546771E-02  0.1104011E+00
         -2   -1    0    0    0  501 -0.00000000000E+00  0.00000000000E+00  0.26690552733E+03  0.26690552733E+03  0.00000000000E+00 0.  1.
         21   -1    0    0  501  502  0.00000000000E+00 -0.00000000000E+00 -0.27725831079E+03  0.27725831079E+03  0.00000000000E+00 0. -1.
         25    1    1    2    0    0  0.11636389124E+03  0.20299934329E+03 -0.11338664586E+03  0.28849752168E+03  0.12500000000E+03 0.  0.
         -2    1    1    2    0  502 -0.11636389124E+03 -0.20299934329E+03  0.10303386240E+03  0.25566631643E+03  0.00000000000E+00 0.  1.
<mgrwt>
<rscale>  3 0.26528153E+03</rscale>
<asrwt>0</asrwt>
<pdfrwt beam="1">  1       21 0.42655125E-01 0.26528153E+03</pdfrwt>
<pdfrwt beam="2">  1       -2 0.41062389E-01 0.26528153E+03</pdfrwt>
<totfact> 0.23775323E+03</totfact>
</mgrwt>
</event>
<event>
 4    0  0.1002184E-001  0.2497119E+03  0.7546771E-02  0.1113487E+00
         21   -1    0    0  501  502  0.00000000000E+00  0.00000000000E+00  0.22454381373E+04  0.22454381373E+04  0.00000000000E+00 0. -1.
          4   -1    0    0  502    0 -0.00000000000E+00 -0.00000000000E+00 -0.33424740090E+03  0.33424740090E+03  0.00000000000E+00 0.  1.
         25    1    1    2    0    0 -0.18235522120E+03  0.11609300549E+03  0.22026774020E+04  0.22167868075E+04  0.12500000000E+03 0.  0.
          4    1    1    2  501    0  0.18235522120E+03 -0.11609300549E+03 -0.29148666552E+03  0.36289873078E+03  0.00000000000E+00 0.  1.
<mgrwt>
<rscale>  3 0.24971186E+03</rscale>
<asrwt>0</asrwt>
<pdfrwt beam="1">  1       21 0.34545201E+00 0.24971186E+03</pdfrwt>
<pdfrwt beam="2">  1        4 0.51422678E-01 0.24971186E+03</pdfrwt>
<totfact> 0.26978342E+00</totfact>
</mgrwt>
</event>
<event>
 4    0  0.1967095E-001  0.2671303E+03  0.7546771E-02  0.1102933E+00
         21   -1    0    0  501  502  0.00000000000E+00  0.00000000000E+00  0.40341485978E+02  0.40341485978E+02  0.00000000000E+00 0. -1.
         -2   -1    0    0    0  501 -0.00000000000E+00 -0.00000000000E+00 -0.19236417911E+04  0.19236417911E+04  0.00000000000E+00 0. -1.
         25    1    1    2    0    0  0.93800981042E+02 -0.21664477291E+03 -0.14098970012E+04  0.14349801865E+04  0.12500000000E+03 0.  0.
         -2    1    1    2    0  502 -0.93800981042E+02  0.21664477291E+03 -0.47340330395E+03  0.52900309060E+03  0.00000000000E+00 0. -1.
<mgrwt>
<rscale>  3 0.26713027E+03</rscale>
<asrwt>0</asrwt>
<pdfrwt beam="1">  1       21 0.62063822E-02 0.26713027E+03</pdfrwt>
<pdfrwt beam="2">  1       -2 0.29594490E+00 0.26713027E+03</pdfrwt>
<totfact> 0.58999964E+02</totfact>
</mgrwt>
</event>
<event>
 4    0  0.1698019E-001  0.2913211E+03  0.7546771E-02  0.1089661E+00
         21   -1    0    0  501  502  0.00000000000E+00  0.00000000000E+00  0.58638907608E+03  0.58638907608E+03  0.00000000000E+00 0.  1.
          2   -1    0    0  502    0 -0.00000000000E+00 -0.00000000000E+00 -0.10510827982E+04  0.10510827982E+04  0.00000000000E+00 0.  1.
         25    1    1    2    0    0 -0.15305759848E+03  0.21404759074E+03  0.53204657347E+03  0.60658186248E+03  0.12500000000E+03 0.  0.
          2    1    1    2  501    0  0.15305759848E+03 -0.21404759074E+03 -0.99674029555E+03  0.10308900117E+04  0.00000000000E+00 0.  1.
<mgrwt>
<rscale>  3 0.29132113E+03</rscale>
<asrwt>0</asrwt>
<pdfrwt beam="1">  1       21 0.90213705E-01 0.29132113E+03</pdfrwt>
<pdfrwt beam="2">  1        2 0.16170504E+00 0.29132113E+03</pdfrwt>
<totfact> 0.30570442E+02</totfact>
</mgrwt>
</event>
<event>
 4    0  0.1546629E-001  0.2920786E+03  0.7546771E-02  0.1089269E+00
          2   -1    0    0  502    0 -0.00000000000E+00  0.00000000000E+00  0.59804524006E+03  0.59804524006E+03  0.00000000000E+00 0. -1.
         21   -1    0    0  501  502  0.00000000000E+00 -0.00000000000E+00 -0.17318691663E+03  0.17318691663E+03  0.00000000000E+00 0. -1.
         25    1    1    2    0    0  0.60212844707E+02 -0.25702003405E+03  0.26407549007E+02  0.29326991529E+03  0.12500000000E+03 0.  0.
          2    1    1    2  501    0 -0.60212844707E+02  0.25702003405E+03  0.39845077442E+03  0.47796224140E+03  0.00000000000E+00 0. -1.
<mgrwt>
<rscale>  3 0.29207856E+03</rscale>
<asrwt>0</asrwt>
<pdfrwt beam="1">  1       21 0.26644141E-01 0.29207856E+03</pdfrwt>
<pdfrwt beam="2">  1        2 0.92006959E-01 0.29207856E+03</pdfrwt>
<totfact> 0.83351769E+03</totfact>
</mgrwt>
</event>
<event>
 4    0  0.1424578E-001  0.2508573E+03  0.7546771E-02  0.1112764E+00
         21   -1    0    0  501  502  0.00000000000E+00  0.00000000000E+00  0.89314029085E+02  0.89314029085E+02  0.00000000000E+00 0.  1.
          1   -1    0    0  502    0 -0.00000000000E+00 -0.00000000000E+00 -0.91357993886E+03  0.91357993886E+03  0.00000000000E+00 0.  1.
         25    1    1    2    0    0 -0.66193081747E+00 -0.21749467924E+03 -0.14520261826E+03  0.28985026134E+03  0.12500000000E+03 0.  0.
          1    1    1    2  501    0  0.66193081747E+00  0.21749467924E+03 -0.67906329151E+03  0.71304370660E+03  0.00000000000E+00 0.  1.
<mgrwt>
<rscale>  3 0.25085728E+03</rscale>
<asrwt>0</asrwt>
<pdfrwt beam="1">  1       21 0.13740619E-01 0.25085728E+03</pdfrwt>
<pdfrwt beam="2">  1        1 0.14055077E+00 0.25085728E+03</pdfrwt>
<totfact> 0.94614402E+03</totfact>
</mgrwt>
</event>
<event>
 4    0  0.1471870E-001  0.3623535E+03  0.7546771E-02  0.1057656E+00
          2   -1    0    0  502    0 -0.00000000000E+00  0.00000000000E+00  0.16383727038E+04  0.16383727038E+04  0.00000000000E+00 0. -1.
         21   -1    0    0  501  502  0.00000000000E+00 -0.00000000000E+00 -0.90667390035E+02  0.90667390035E+02  0.00000000000E+00 0. -1.
         25    1    1    2    0    0  0.33622698321E+03 -0.51248802630E+02  0.43839294281E+03  0.56876040326E+03  0.12500000000E+03 0.  0.
          2    1    1    2  501    0 -0.33622698321E+03  0.51248802630E+02  0.11093123709E+04  0.11602796906E+04  0.00000000000E+00 0. -1.
<mgrwt>
<rscale>  3 0.36235345E+03</rscale>
<asrwt>0</asrwt>
<pdfrwt beam="1">  1       21 0.13948830E-01 0.36235345E+03</pdfrwt>
<pdfrwt beam="2">  1        2 0.25205732E+00 0.36235345E+03</pdfrwt>
<totfact> 0.62871888E+03</totfact>
</mgrwt>
</event>
<event>
 4    0  0.1157667E-001  0.3084820E+03  0.7546771E-02  0.1081076E+00
         21   -1    0    0  501  502  0.00000000000E+00  0.00000000000E+00  0.12327159883E+04  0.12327159883E+04  0.00000000000E+00 0. -1.
         -4   -1    0    0    0  501 -0.00000000000E+00 -0.00000000000E+00 -0.10267465142E+03  0.10267465142E+03  0.00000000000E+00 0. -1.
         25    1    1    2    0    0 -0.28184363798E+03 -0.10013917970E+02  0.95470969538E+03  0.10033103793E+04  0.12500000000E+03 0.  0.
         -4    1    1    2    0  502  0.28184363798E+03  0.10013917970E+02  0.17533164149E+03  0.33208026038E+03  0.00000000000E+00 0. -1.
<mgrwt>
<rscale>  3 0.30848195E+03</rscale>
<asrwt>0</asrwt>
<pdfrwt beam="1">  1       21 0.18964860E+00 0.30848195E+03</pdfrwt>
<pdfrwt beam="2">  1       -4 0.15796101E-01 0.30848195E+03</pdfrwt>
<totfact> 0.21911908E+02</totfact>
</mgrwt>
</event>
<event>
 4    0  0.1429684E-001  0.3157697E+03  0.7546771E-02  0.1077613E+00
         21   -1    0    0  501  502  0.00000000000E+00  0.00000000000E+00  0.25509324239E+03  0.25509324239E+03  0.00000000000E+00 0.  1.
          2   -1    0    0  502    0 -0.00000000000E+00 -0.00000000000E+00 -0.74255722283E+03  0.74255722283E+03  0.00000000000E+00 0. -1.
         25    1    1    2    0    0 -0.23779414388E+03  0.16595006143E+03  0.10931146551E+03  0.33415486565E+03  0.12500000000E+03 0.  0.
          2    1    1    2  501    0  0.23779414388E+03 -0.16595006143E+03 -0.59677544595E+03  0.66349559956E+03  0.00000000000E+00 0. -1.
<mgrwt>
<rscale>  3 0.31576966E+03</rscale>
<asrwt>0</asrwt>
<pdfrwt beam="1">  1       21 0.39245115E-01 0.31576966E+03</pdfrwt>
<pdfrwt beam="2">  1        2 0.11423957E+00 0.31576966E+03</pdfrwt>
<totfact> 0.29553325E+03</totfact>
</mgrwt>
</event>
<event>
 4    0  0.1446424E-001  0.2506166E+03  0.7546771E-02  0.1112916E+00
         21   -1    0    0  501  502  0.00000000000E+00  0.00000000000E+00  0.11922383940E+03  0.11922383940E+03  0.00000000000E+00 0.  1.
          1   -1    0    0  502    0 -0.00000000000E+00 -0.00000000000E+00 -0.10340160114E+04  0.10340160114E+04  0.00000000000E+00 0.  1.
         25    1    1    2    0    0 -0.12284239077E+03 -0.17914644384E+03 -0.42358209164E+02  0.25417104319E+03  0.12500000000E+03 0.  0.
          1    1    1    2  501    0  0.12284239077E+03  0.17914644384E+03 -0.87243396280E+03  0.89906880758E+03  0.00000000000E+00 0.  1.
<mgrwt>
<rscale>  3 0.25061664E+03</rscale>
<asrwt>0</asrwt>
<pdfrwt beam="1">  1       21 0.18342129E-01 0.25061664E+03</pdfrwt>
<pdfrwt beam="2">  1        1 0.15907938E+00 0.25061664E+03</pdfrwt>
<totfact> 0.45058648E+03</totfact>
</mgrwt>
</event>
<event>
 4    0  0.1272025E-001  0.2407583E+03  0.7546771E-02  0.1119289E+00
          1   -1    0    0  502    0 -0.00000000000E+00  0.00000000000E+00  0.11024588634E+04  0.11024588634E+04  0.00000000000E+00 0. -1.
         21   -1    0    0  501  502  0.00000000000E+00 -0.00000000000E+00 -0.88373950547E+02  0.88373950547E+02  0.00000000000E+00 0.  1.
         25    1    1    2    0    0  0.16063481022E+03  0.12859253706E+03  0.11192171591E+03  0.26550151287E+03  0.12500000000E+03 0.  0.
          1    1    1    2  501    0 -0.16063481022E+03 -0.12859253706E+03  0.90216319697E+03  0.92533130111E+03  0.00000000000E+00 0. -1.
<mgrwt>
<rscale>  3 0.24075835E+03</rscale>
<asrwt>0</asrwt>
<pdfrwt beam="1">  1       21 0.13595993E-01 0.24075835E+03</pdfrwt>
<pdfrwt beam="2">  1        1 0.16960905E+00 0.24075835E+03</pdfrwt>
<totfact> 0.69886802E+03</totfact>
</mgrwt>
</event>
