<event>
 5    0  0.2257501E-001  0.2614236E+03  0.7546771E-02  0.1106291E+00
         21   -1    0    0  501  502  0.00000000000E+00  0.00000000000E+00  0.53285474587E+03  0.53285474587E+03  0.00000000000E+00 0. -1.
         21   -1    0    0  502  503 -0.00000000000E+00 -0.00000000000E+00 -0.12251263350E+03  0.12251263350E+03  0.00000000000E+00 0. -1.
         25    1    1    2    0    0  0.22121219163E+03 -0.61501783000E+02  0.18710213000E+03  0.32148018615E+03  0.12500000000E+03 0.  0.
          2    1    1    2  501    0 -0.15618714927E+03  0.91654942380E+01  0.18437803713E+03  0.24181334218E+03  0.00000000000E+00 0. -1.
         -2    1    1    2    0  503 -0.65025042365E+02  0.52336288762E+02  0.38861945246E+02  0.92073851034E+02  0.00000000000E+00 0.  1.
<mgrwt>
<rscale>  4 0.26142361E+03</rscale>
<asrwt>0</asrwt>
<pdfrwt beam="1">  1       21 0.81977652E-01 0.26142361E+03</pdfrwt>
<pdfrwt beam="2">  1       21 0.18848098E-01 0.26142361E+03</pdfrwt>
<totfact> 0.32436675E+04</totfact>
</mgrwt>
</event>
<event>
 5    0  0.2257501E-001  0.2619663E+03  0.7546771E-02  0.1105968E+00
         21   -1    0    0  503  502  0.00000000000E+00  0.00000000000E+00  0.35270197909E+03  0.35270197909E+03  0.00000000000E+00 0. -1.
         21   -1    0    0  501  503 -0.00000000000E+00 -0.00000000000E+00 -0.42306505391E+03  0.42306505391E+03  0.00000000000E+00 0.  1.
         25    1    1    2    0    0  0.87129292116E+02  0.21309578461E+03 -0.33237601737E+03  0.42320224939E+03  0.12500000000E+03 0.  0.
          1    1    1    2  501    0 -0.63178503160E+02 -0.18524728046E+03  0.19582168359E+03  0.27686496698E+03  0.00000000000E+00 0. -1.
         -1    1    1    2    0  502 -0.23950788956E+02 -0.27848504157E+02  0.66191258954E+02  0.75699816627E+02  0.00000000000E+00 0.  1.
<mgrwt>
<rscale>  4 0.26196627E+03</rscale>
<asrwt>0</asrwt>
<pdfrwt beam="1">  1       21 0.54261843E-01 0.26196627E+03</pdfrwt>
<pdfrwt beam="2">  1       21 0.65086931E-01 0.26196627E+03</pdfrwt>
<totfact> 0.66667358E+03</totfact>
</mgrwt>
</event>
<event>
 5    0  0.2257501E-001  0.5037834E+03  0.7546771E-02  0.1012796E+00
         21   -1    0    0  503  502  0.00000000000E+00  0.00000000000E+00  0.92307940276E+03  0.92307940276E+03  0.00000000000E+00 0.  1.
         21   -1    0    0  501  503 -0.00000000000E+00 -0.00000000000E+00 -0.34739575208E+03  0.34739575208E+03  0.00000000000E+00 0. -1.
         25    1    1    2    0    0 -0.15017877709E+03  0.44460312486E+03  0.55040820599E+02  0.48875361447E+03  0.12500000000E+03 0.  0.
          1    1    1    2  501    0 -0.97261218526E+01  0.25198822371E+02 -0.30051755657E+02  0.40406510778E+02  0.00000000000E+00 0. -1.
         -1    1    1    2    0  502  0.15990489894E+03 -0.46980194723E+03  0.55069458574E+03  0.74131502959E+03  0.00000000000E+00 0.  1.
<mgrwt>
<rscale>  4 0.50378345E+03</rscale>
<asrwt>0</asrwt>
<pdfrwt beam="1">  1       21 0.14201222E+00 0.50378345E+03</pdfrwt>
<pdfrwt beam="2">  1       21 0.53445501E-01 0.50378345E+03</pdfrwt>
<totfact> 0.94525140E+02</totfact>
</mgrwt>
</event>
<event>
 5    0  0.2257501E-001  0.2990135E+03  0.7546771E-02  0.1085735E+00
         21   -1    0    0  503  502  0.00000000000E+00  0.00000000000E+00  0.12845827729E+04  0.12845827729E+04  0.00000000000E+00 0. -1.
         21   -1    0    0  501  503 -0.00000000000E+00 -0.00000000000E+00 -0.14516878465E+03  0.14516878465E+03  0.00000000000E+00 0. -1.
         25    1    1    2    0    0 -0.19383063709E+03 -0.19029905995E+03  0.10957068513E+04  0.11357739881E+04  0.12500000000E+03 0.  0.
          2    1    1    2  501    0  0.29867049568E+02  0.56384672509E+02 -0.29070311544E+02  0.70116723805E+02  0.00000000000E+00 0.  1.
         -2    1    1    2    0  502  0.16396358752E+03  0.13391438744E+03  0.72777448495E+02  0.22386084563E+03  0.00000000000E+00 0. -1.
<mgrwt>
<rscale>  4 0.29901346E+03</rscale>
<asrwt>0</asrwt>
<pdfrwt beam="1">  1       21 0.19762811E+00 0.29901346E+03</pdfrwt>
<pdfrwt beam="2">  1       21 0.22333660E-01 0.29901346E+03</pdfrwt>
<totfact> 0.23928642E+03</totfact>
</mgrwt>
</event>
<event>
 5    0  0.2257501E-001  0.3782607E+03  0.7546771E-02  0.1052010E+00
         21   -1    0    0  501  502  0.00000000000E+00  0.00000000000E+00  0.41000210986E+02  0.41000210986E+02  0.00000000000E+00 0.  1.
         21   -1    0    0  502  503 -0.00000000000E+00 -0.00000000000E+00 -0.34871974687E+04  0.34871974687E+04  0.00000000000E+00 0.  1.
         25    1    1    2    0    0 -0.96819204151E+02  0.33854828512E+03 -0.19012171878E+04  0.19375863064E+04  0.12500000000E+03 0.  0.
          3    1    1    2  501    0  0.11004465234E+03 -0.27113099547E+03 -0.10195645260E+04  0.10607231802E+04  0.00000000000E+00 0.  1.
         -3    1    1    2    0  503 -0.13225448191E+02 -0.67417289652E+02 -0.52541554390E+03  0.52988819310E+03  0.00000000000E+00 0. -1.
<mgrwt>
<rscale>  4 0.37710254E+03</rscale>
<asrwt>0</asrwt>
<pdfrwt beam="1">  1       21 0.63077245E-02 0.37826066E+03</pdfrwt>
<pdfrwt beam="2">  1       21 0.53649194E+00 0.37826066E+03</pdfrwt>
<totfact> 0.14983566E+02</totfact>
</mgrwt>
</event>
<event>
 5    0  0.2257501E-001  0.2674246E+03  0.7546771E-02  0.1102763E+00
         21   -1    0    0  503  502  0.00000000000E+00  0.00000000000E+00  0.60352800030E+03  0.60352800030E+03  0.00000000000E+00 0.  1.
         21   -1    0    0  501  503 -0.00000000000E+00 -0.00000000000E+00 -0.14665428437E+03  0.14665428437E+03  0.00000000000E+00 0.  1.
         25    1    1    2    0    0 -0.26696795825E+03  0.14867494607E+02  0.17395335496E+03  0.34260429482E+03  0.12500000000E+03 0.  0.
          2    1    1    2  501    0  0.45308768561E+02 -0.34502957123E+02  0.14224153179E+02  0.58699787839E+02  0.00000000000E+00 0. -1.
         -2    1    1    2    0  502  0.22165918968E+03  0.19635462516E+02  0.26869620779E+03  0.34887820201E+03  0.00000000000E+00 0.  1.
<mgrwt>
<rscale>  4 0.26742462E+03</rscale>
<asrwt>0</asrwt>
<pdfrwt beam="1">  1       21 0.92850460E-01 0.26742462E+03</pdfrwt>
<pdfrwt beam="2">  1       21 0.22562198E-01 0.26742462E+03</pdfrwt>
<totfact> 0.17255550E+04</totfact>
</mgrwt>
</event>
<event>
 5    0  0.2257501E-001  0.3016260E+03  0.7546771E-02  0.1084431E+00
         21   -1    0    0  503  502  0.00000000000E+00  0.00000000000E+00  0.10385704243E+03  0.10385704243E+03  0.00000000000E+00 0.  1.
         21   -1    0    0  501  503 -0.00000000000E+00 -0.00000000000E+00 -0.18358084198E+04  0.18358084198E+04  0.00000000000E+00 0.  1.
         25    1    1    2    0    0 -0.29899225768E+03 -0.76215325134E+02 -0.68238731492E+03  0.75926450826E+03  0.12500000000E+03 0.  0.
          2    1    1    2  501    0  0.34679208037E+02  0.81054787655E+02 -0.83578263327E+03  0.84041961909E+03  0.00000000000E+00 0. -1.
         -2    1    1    2    0  502  0.26431304965E+03 -0.48394625210E+01 -0.21378142921E+03  0.33998133491E+03  0.00000000000E+00 0.  1.
<mgrwt>
<rscale>  4 0.30162600E+03</rscale>
<asrwt>0</asrwt>
<pdfrwt beam="1">  1       21 0.15978008E-01 0.30162600E+03</pdfrwt>
<pdfrwt beam="2">  1       21 0.28243204E+00 0.30162600E+03</pdfrwt>
<totfact> 0.13498773E+03</totfact>
</mgrwt>
</event>
<event>
 5    0  0.2257501E-001  0.3833460E+03  0.7546771E-02  0.1049704E+00
         21   -1    0    0  503  502  0.00000000000E+00  0.00000000000E+00  0.62969600014E+03  0.62969600014E+03  0.00000000000E+00 0. -1.
         21   -1    0    0  501  503 -0.00000000000E+00 -0.00000000000E+00 -0.61495825537E+03  0.61495825537E+03  0.00000000000E+00 0.  1.
         25    1    1    2    0    0  0.22725109016E+03  0.28456197713E+03 -0.48456619197E+03  0.61890869376E+03  0.12500000000E+03 0.  0.
          1    1    1    2  501    0  0.77578834893E+01 -0.26437201852E+02  0.28446493159E+02  0.39601936456E+02  0.00000000000E+00 0.  1.
         -1    1    1    2    0  502 -0.23500897365E+03 -0.25812477528E+03  0.47085744358E+03  0.58614362530E+03  0.00000000000E+00 0. -1.
<mgrwt>
<rscale>  4 0.38334601E+03</rscale>
<asrwt>0</asrwt>
<pdfrwt beam="1">  1       21 0.96876308E-01 0.38334601E+03</pdfrwt>
<pdfrwt beam="2">  1       21 0.94608962E-01 0.38334601E+03</pdfrwt>
<totfact> 0.72026706E+02</totfact>
</mgrwt>
</event>
<event>
 5    0  0.2257501E-001  0.3330220E+03  0.7546771E-02  0.1069807E+00
         21   -1    0    0  501  502  0.00000000000E+00  0.00000000000E+00  0.10067260926E+04  0.10067260926E+04  0.00000000000E+00 0.  1.
         21   -1    0    0  502  503 -0.00000000000E+00 -0.00000000000E+00 -0.24800193129E+03  0.24800193129E+03  0.00000000000E+00 0. -1.
         25    1    1    2    0    0 -0.23330915404E+03 -0.10310007809E+03 -0.97420000107E+02  0.30029725920E+03  0.12500000000E+03 0.  0.
          4    1    1    2  501    0  0.30369597264E+03  0.90920337662E+02  0.80886335477E+03  0.86876790818E+03  0.00000000000E+00 0.  1.
         -4    1    1    2    0  503 -0.70386818594E+02  0.12179740433E+02  0.47280806647E+02  0.85662856513E+02  0.00000000000E+00 0. -1.
<mgrwt>
<rscale>  4 0.33302200E+03</rscale>
<asrwt>0</asrwt>
<pdfrwt beam="1">  1       21 0.15488094E+00 0.33302200E+03</pdfrwt>
<pdfrwt beam="2">  1       21 0.38154144E-01 0.33302200E+03</pdfrwt>
<totfact> 0.16379015E+03</totfact>
</mgrwt>
</event>
<event>
 5    0  0.2257501E-001  0.2720672E+03  0.7546771E-02  0.1100102E+00
         21   -1    0    0  503  502  0.00000000000E+00  0.00000000000E+00  0.63329436903E+03  0.63329436903E+03  0.00000000000E+00 0.  1.
         21   -1    0    0  501  503 -0.00000000000E+00 -0.00000000000E+00 -0.44843795153E+03  0.44843795153E+03  0.00000000000E+00 0.  1.
         25    1    1    2    0    0 -0.23867430144E+03 -0.37817167407E+02  0.56572585899E+03  0.62774700943E+03  0.12500000000E+03 0.  0.
          4    1    1    2  501    0  0.56593387158E+02  0.12441720568E+02 -0.13563034579E+03  0.14748965584E+03  0.00000000000E+00 0.  1.
         -4    1    1    2    0  502  0.18208091429E+03  0.25375446839E+02 -0.24523909570E+03  0.30649565529E+03  0.00000000000E+00 0. -1.
<mgrwt>
<rscale>  4 0.27206720E+03</rscale>
<asrwt>0</asrwt>
<pdfrwt beam="1">  1       21 0.97429903E-01 0.27206720E+03</pdfrwt>
<pdfrwt beam="2">  1       21 0.68990454E-01 0.27206720E+03</pdfrwt>
<totfact> 0.15668725E+03</totfact>
</mgrwt>
</event>
<event>
 5    0  0.2257501E-001  0.2531985E+03  0.7546771E-02  0.1111300E+00
         21   -1    0    0  501  502  0.00000000000E+00  0.00000000000E+00  0.15255501035E+03  0.15255501035E+03  0.00000000000E+00 0. -1.
         21   -1    0    0  502  503 -0.00000000000E+00 -0.00000000000E+00 -0.73246006581E+03  0.73246006581E+03  0.00000000000E+00 0. -1.
         25    1    1    2    0    0 -0.21978398049E+03 -0.13397477092E+02  0.10728374814E+02  0.25342570607E+03  0.12500000000E+03 0.  0.
          2    1    1    2  501    0  0.17539917391E+03  0.24333749736E+02 -0.44453068275E+03  0.47850238191E+03  0.00000000000E+00 0. -1.
         -2    1    1    2    0  503  0.44384806580E+02 -0.10936272645E+02 -0.14610274753E+03  0.15308698818E+03  0.00000000000E+00 0.  1.
<mgrwt>
<rscale>  4 0.25319852E+03</rscale>
<asrwt>0</asrwt>
<pdfrwt beam="1">  1       21 0.23470001E-01 0.25319852E+03</pdfrwt>
<pdfrwt beam="2">  1       21 0.11268617E+00 0.25319852E+03</pdfrwt>
<totfact> 0.10121236E+04</totfact>
</mgrwt>
</event>
<event>
 5    0  0.2257501E-001  0.2483847E+03  0.7546771E-02  0.1114330E+00
         21   -1    0    0  503  502  0.00000000000E+00  0.00000000000E+00  0.13879936455E+03  0.13879936455E+03  0.00000000000E+00 0. -1.
         21   -1    0    0  501  503 -0.00000000000E+00 -0.00000000000E+00 -0.13493085880E+04  0.13493085880E+04  0.00000000000E+00 0.  1.
         25    1    1    2    0    0  0.22441529901E+03 -0.23786131461E+02 -0.90417035373E+03  0.94025370780E+03  0.12500000000E+03 0.  0.
          2    1    1    2  501    0 -0.20047288555E+03  0.52263416251E+01 -0.40106170720E+03  0.44840515772E+03  0.00000000000E+00 0.  1.
         -2    1    1    2    0  502 -0.23942413457E+02  0.18559789836E+02  0.94722837506E+02  0.99449087005E+02  0.00000000000E+00 0. -1.
<mgrwt>
<rscale>  4 0.24838469E+03</rscale>
<asrwt>0</asrwt>
<pdfrwt beam="1">  1       21 0.21353749E-01 0.24838469E+03</pdfrwt>
<pdfrwt beam="2">  1       21 0.20758593E+00 0.24838469E+03</pdfrwt>
<totfact> 0.23300278E+03</totfact>
</mgrwt>
</event>
<event>
 5    0  0.2257501E-001  0.2624908E+03  0.7546771E-02  0.1105656E+00
         21   -1    0    0  501  502  0.00000000000E+00  0.00000000000E+00  0.10744068724E+03  0.10744068724E+03  0.00000000000E+00 0. -1.
         21   -1    0    0  502  503 -0.00000000000E+00 -0.00000000000E+00 -0.60190110586E+03  0.60190110586E+03  0.00000000000E+00 0. -1.
         25    1    1    2    0    0  0.22770140278E+03 -0.37795159572E+02 -0.33190675079E+03  0.42315894666E+03  0.12500000000E+03 0.  0.
          4    1    1    2  501    0 -0.48598082599E+02 -0.56644403066E+01 -0.51371922234E+02  0.70943173811E+02  0.00000000000E+00 0.  1.
         -4    1    1    2    0  503 -0.17910332018E+03  0.43459599879E+02 -0.11118174559E+03  0.21523967263E+03  0.00000000000E+00 0. -1.
<mgrwt>
<rscale>  4 0.26249077E+03</rscale>
<asrwt>0</asrwt>
<pdfrwt beam="1">  1       21 0.16529337E-01 0.26249077E+03</pdfrwt>
<pdfrwt beam="2">  1       21 0.92600168E-01 0.26249077E+03</pdfrwt>
<totfact> 0.31196408E+04</totfact>
</mgrwt>
</event>
<event>
 5    0  0.2257501E-001  0.2366598E+03  0.7546771E-02  0.1122038E+00
         21   -1    0    0  501  502  0.00000000000E+00  0.00000000000E+00  0.68369163304E+02  0.68369163304E+02  0.00000000000E+00 0. -1.
         21   -1    0    0  502  503 -0.00000000000E+00 -0.00000000000E+00 -0.83002450685E+03  0.83002450685E+03  0.00000000000E+00 0. -1.
         25    1    1    2    0    0  0.99387234421E+02 -0.17465686018E+03 -0.53009286405E+03  0.58052242480E+03  0.12500000000E+03 0.  0.
          2    1    1    2  501    0 -0.34914617770E+02  0.12882422995E+03 -0.11060440628E+03  0.17334372629E+03  0.00000000000E+00 0. -1.
         -2    1    1    2    0  503 -0.64472616650E+02  0.45832630234E+02 -0.12095807321E+03  0.14452751906E+03  0.00000000000E+00 0.  1.
<mgrwt>
<rscale>  4 0.23665976E+03</rscale>
<asrwt>0</asrwt>
<pdfrwt beam="1">  1       21 0.10518332E-01 0.23665976E+03</pdfrwt>
<pdfrwt beam="2">  1       21 0.12769609E+00 0.23665976E+03</pdfrwt>
<totfact> 0.32747307E+04</totfact>
</mgrwt>
</event>
<event>
 5    0  0.2257501E-001  0.2863511E+03  0.7546771E-02  0.1092270E+00
         21   -1    0    0  503  502  0.00000000000E+00  0.00000000000E+00  0.20199508148E+03  0.20199508148E+03  0.00000000000E+00 0.  1.
         21   -1    0    0  501  503 -0.00000000000E+00 -0.00000000000E+00 -0.44027381715E+03  0.44027381715E+03  0.00000000000E+00 0.  1.
         25    1    1    2    0    0  0.21872714120E+03 -0.13612645049E+03  0.44628090650E+00  0.28635148330E+03  0.12500000000E+03 0.  0.
          2    1    1    2  501    0 -0.16163349805E+03  0.11819153449E+03 -0.20772345128E+03  0.28851977182E+03  0.00000000000E+00 0. -1.
         -2    1    1    2    0  502 -0.57093643149E+02  0.17934915993E+02 -0.31001565297E+02  0.67397643509E+02  0.00000000000E+00 0.  1.
<mgrwt>
<rscale>  4 0.28635114E+03</rscale>
<asrwt>0</asrwt>
<pdfrwt beam="1">  1       21 0.31076167E-01 0.28635114E+03</pdfrwt>
<pdfrwt beam="2">  1       21 0.67734432E-01 0.28635114E+03</pdfrwt>
<totfact> 0.18881068E+04</totfact>
</mgrwt>
</event>
<event>
 5    0  0.2257501E-001  0.2820837E+03  0.7546771E-02  0.1094556E+00
         21   -1    0    0  503  502  0.00000000000E+00  0.00000000000E+00  0.43325339905E+03  0.43325339905E+03  0.00000000000E+00 0.  1.
         21   -1    0    0  501  503 -0.00000000000E+00 -0.00000000000E+00 -0.37472910287E+03  0.37472910287E+03  0.00000000000E+00 0.  1.
         25    1    1    2    0    0 -0.15171291189E+03  0.20231016633E+03  0.32490907100E+03  0.43027562730E+03  0.12500000000E+03 0.  0.
          4    1    1    2  501    0  0.51191218594E+02 -0.13581735470E+03 -0.12181640112E+03  0.18948912972E+03  0.00000000000E+00 0.  1.
         -4    1    1    2    0  502  0.10052169329E+03 -0.66492811625E+02 -0.14456837370E+03  0.18821774490E+03  0.00000000000E+00 0. -1.
<mgrwt>
<rscale>  4 0.28208370E+03</rscale>
<asrwt>0</asrwt>
<pdfrwt beam="1">  1       21 0.66654369E-01 0.28208370E+03</pdfrwt>
<pdfrwt beam="2">  1       21 0.57650631E-01 0.28208370E+03</pdfrwt>
<totfact> 0.54963158E+03</totfact>
</mgrwt>
</event>
<event>
 5    0  0.2257501E-001  0.3070470E+03  0.7546771E-02  0.1081770E+00
         21   -1    0    0  501  502  0.00000000000E+00  0.00000000000E+00  0.11776861545E+04  0.11776861545E+04  0.00000000000E+00 0.  1.
         21   -1    0    0  502  503 -0.00000000000E+00 -0.00000000000E+00 -0.12484988964E+03  0.12484988964E+03  0.00000000000E+00 0. -1.
         25    1    1    2    0    0 -0.23837221403E+03 -0.55803780839E+02  0.17133092080E+03  0.32390532382E+03  0.12500000000E+03 0.  0.
          1    1    1    2  501    0  0.28857621156E+03  0.42332539083E+02  0.87951271207E+03  0.92661258595E+03  0.00000000000E+00 0.  1.
         -1    1    1    2    0  503 -0.50203997531E+02  0.13471241756E+02  0.19926320039E+01  0.52018134384E+02  0.00000000000E+00 0. -1.
<mgrwt>
<rscale>  4 0.30704696E+03</rscale>
<asrwt>0</asrwt>
<pdfrwt beam="1">  1       21 0.18118248E+00 0.30704696E+03</pdfrwt>
<pdfrwt beam="2">  1       21 0.19207676E-01 0.30704696E+03</pdfrwt>
<totfact> 0.40901847E+03</totfact>
</mgrwt>
</event>
<event>
 5    0  0.2257501E-001  0.2662921E+03  0.7546771E-02  0.1103421E+00
         21   -1    0    0  501  502  0.00000000000E+00  0.00000000000E+00  0.12709518278E+04  0.12709518278E+04  0.00000000000E+00 0.  1.
         21   -1    0    0  502  503 -0.00000000000E+00 -0.00000000000E+00 -0.96697067936E+02  0.96697067936E+02  0.00000000000E+00 0.  1.
         25    1    1    2    0    0 -0.21886672859E+03  0.17848634383E+03  0.78234528551E+03  0.84109997359E+03  0.12500000000E+03 0.  0.
          4    1    1    2  501    0  0.13489324657E+03 -0.14479525456E+03  0.38850803225E+03  0.43600498258E+03  0.00000000000E+00 0.  1.
         -4    1    1    2    0  503  0.83973482018E+02 -0.33691089272E+02  0.34014420758E+01  0.90543939536E+02  0.00000000000E+00 0. -1.
<mgrwt>
<rscale>  4 0.26629212E+03</rscale>
<asrwt>0</asrwt>
<pdfrwt beam="1">  1       21 0.19553104E+00 0.26629212E+03</pdfrwt>
<pdfrwt beam="2">  1       21 0.14876473E-01 0.26629212E+03</pdfrwt>
<totfact> 0.53934088E+03</totfact>
</mgrwt>
</event>
<event>
 5    0  0.2257501E-001  0.2408862E+03  0.7546771E-02  0.1119204E+00
         21   -1    0    0  503  502  0.00000000000E+00  0.00000000000E+00  0.16988720207E+03  0.16988720207E+03  0.00000000000E+00 0.  1.
         21   -1    0    0  501  503 -0.00000000000E+00 -0.00000000000E+00 -0.51888662350E+03  0.51888662350E+03  0.00000000000E+00 0.  1.
         25    1    1    2    0    0 -0.19270899205E+03 -0.72556214306E+02 -0.39829689796E+03  0.46547457372E+03  0.12500000000E+03 0.  0.
          3    1    1    2  501    0  0.76787572521E+02  0.11866989972E+02 -0.12320025667E+02  0.78669814905E+02  0.00000000000E+00 0. -1.
         -3    1    1    2    0  502  0.11592141953E+03  0.60689224334E+02  0.61617502197E+02  0.14462943695E+03  0.00000000000E+00 0.  1.
<mgrwt>
<rscale>  4 0.24088620E+03</rscale>
<asrwt>0</asrwt>
<pdfrwt beam="1">  1       21 0.26136493E-01 0.24088620E+03</pdfrwt>
<pdfrwt beam="2">  1       21 0.79828711E-01 0.24088620E+03</pdfrwt>
<totfact> 0.18703632E+04</totfact>
</mgrwt>
</event>
<event>
 5    0  0.2257501E-001  0.2839051E+03  0.7546771E-02  0.1093575E+00
         21   -1    0    0  501  502  0.00000000000E+00  0.00000000000E+00  0.24908144842E+03  0.24908144842E+03  0.00000000000E+00 0. -1.
         21   -1    0    0  502  503 -0.00000000000E+00 -0.00000000000E+00 -0.63412634922E+03  0.63412634922E+03  0.00000000000E+00 0. -1.
         25    1    1    2    0    0 -0.22850464768E+03  0.11297237473E+03 -0.51020221619E+03  0.58387364461E+03  0.12500000000E+03 0.  0.
          3    1    1    2  501    0  0.16349083884E+03 -0.11503275587E+03  0.12204090907E+03  0.23421309271E+03  0.00000000000E+00 0. -1.
         -3    1    1    2    0  503  0.65013808834E+02  0.20603811364E+01  0.31164063238E+01  0.65121060325E+02  0.00000000000E+00 0.  1.
<mgrwt>
<rscale>  4 0.28390515E+03</rscale>
<asrwt>0</asrwt>
<pdfrwt beam="1">  1       21 0.38320223E-01 0.28390515E+03</pdfrwt>
<pdfrwt beam="2">  1       21 0.97557899E-01 0.28390515E+03</pdfrwt>
<totfact> 0.53834686E+03</totfact>
</mgrwt>
</event>
<event>
 5    0  0.2257501E-001  0.3153887E+03  0.7546771E-02  0.1077791E+00
         21   -1    0    0  501  502  0.00000000000E+00  0.00000000000E+00  0.82140019505E+03  0.82140019505E+03  0.00000000000E+00 0.  1.
         21   -1    0    0  502  503 -0.00000000000E+00 -0.00000000000E+00 -0.59570053491E+03  0.59570053491E+03  0.00000000000E+00 0. -1.
         25    1    1    2    0    0 -0.18121823484E+03 -0.23876312195E+03 -0.50863612329E+03  0.60347624888E+03  0.12500000000E+03 0.  0.
          3    1    1    2  501    0  0.10340465931E+03  0.12197306478E+03  0.59404159677E+03  0.61518726482E+03  0.00000000000E+00 0.  1.
         -3    1    1    2    0  503  0.77813575522E+02  0.11679005717E+03  0.14029418666E+03  0.19843721626E+03  0.00000000000E+00 0. -1.
<mgrwt>
<rscale>  4 0.31538867E+03</rscale>
<asrwt>0</asrwt>
<pdfrwt beam="1">  1       21 0.12636926E+00 0.31538867E+03</pdfrwt>
<pdfrwt beam="2">  1       21 0.91646236E-01 0.31538867E+03</pdfrwt>
<totfact> 0.41933210E+02</totfact>
</mgrwt>
</event>
<event>
 5    0  0.2257501E-001  0.2596680E+03  0.7546771E-02  0.1107343E+00
         21   -1    0    0  501  502  0.00000000000E+00  0.00000000000E+00  0.39860233251E+03  0.39860233251E+03  0.00000000000E+00 0. -1.
         21   -1    0    0  502  503 -0.00000000000E+00 -0.00000000000E+00 -0.25993262575E+03  0.25993262575E+03  0.00000000000E+00 0.  1.
         25    1    1    2    0    0  0.17588347738E+03  0.14445570991E+03 -0.14131894992E+03  0.29563236519E+03  0.12500000000E+03 0.  0.
          4    1    1    2  501    0 -0.13227096577E+03 -0.12856781491E+03  0.22306325038E+03  0.28945207735E+03  0.00000000000E+00 0. -1.
         -4    1    1    2    0  503 -0.43612511615E+02 -0.15887894997E+02  0.56925406305E+02  0.73450515721E+02  0.00000000000E+00 0.  1.
<mgrwt>
<rscale>  4 0.25966796E+03</rscale>
<asrwt>0</asrwt>
<pdfrwt beam="1">  1       21 0.61323436E-01 0.25966796E+03</pdfrwt>
<pdfrwt beam="2">  1       21 0.39989635E-01 0.25966796E+03</pdfrwt>
<totfact> 0.14341067E+04</totfact>
</mgrwt>
</event>
<event>
 5    0  0.2257501E-001  0.2321332E+03  0.7546771E-02  0.1125147E+00
         21   -1    0    0  503  502  0.00000000000E+00  0.00000000000E+00  0.94066655648E+02  0.94066655648E+02  0.00000000000E+00 0.  1.
         21   -1    0    0  501  503 -0.00000000000E+00 -0.00000000000E+00 -0.10333154416E+04  0.10333154416E+04  0.00000000000E+00 0.  1.
         25    1    1    2    0    0  0.22361310561E+03  0.11613608846E+03 -0.55152346874E+03  0.61910705748E+03  0.12500000000E+03 0.  0.
          4    1    1    2  501    0 -0.13569504606E+03  0.29880554331E+02 -0.91036782552E+02  0.16611348179E+03  0.00000000000E+00 0.  1.
         -4    1    1    2    0  502 -0.87918059549E+02 -0.14601664279E+03 -0.29668853468E+03  0.34216155801E+03  0.00000000000E+00 0. -1.
<mgrwt>
<rscale>  4 0.23213317E+03</rscale>
<asrwt>0</asrwt>
<pdfrwt beam="1">  1       21 0.14471792E-01 0.23213317E+03</pdfrwt>
<pdfrwt beam="2">  1       21 0.15897162E+00 0.23213317E+03</pdfrwt>
<totfact> 0.10422424E+04</totfact>
</mgrwt>
</event>
<event>
 5    0  0.2257501E-001  0.3089835E+03  0.7546771E-02  0.1080834E+00
         21   -1    0    0  503  502  0.00000000000E+00  0.00000000000E+00  0.71930388960E+03  0.71930388960E+03  0.00000000000E+00 0. -1.
         21   -1    0    0  501  503 -0.00000000000E+00 -0.00000000000E+00 -0.12537810891E+03  0.12537810891E+03  0.00000000000E+00 0. -1.
         25    1    1    2    0    0 -0.28136448734E+03  0.26074002818E+02  0.33895946873E+03  0.45865493543E+03  0.12500000000E+03 0.  0.
          2    1    1    2  501    0  0.18739827509E+03 -0.45694945768E+02  0.15515622355E+03  0.24754715769E+03  0.00000000000E+00 0. -1.
         -2    1    1    2    0  502  0.93966212250E+02  0.19620942950E+02  0.99810088409E+02  0.13847990538E+03  0.00000000000E+00 0.  1.
<mgrwt>
<rscale>  4 0.30898354E+03</rscale>
<asrwt>0</asrwt>
<pdfrwt beam="1">  1       21 0.11066213E+00 0.30898354E+03</pdfrwt>
<pdfrwt beam="2">  1       21 0.19288940E-01 0.30898354E+03</pdfrwt>
<totfact> 0.14935893E+04</totfact>
</mgrwt>
</event>
<event>
 5    0  0.2257501E-001  0.2668875E+03  0.7546771E-02  0.1103074E+00
         21   -1    0    0  503  502  0.00000000000E+00  0.00000000000E+00  0.24098125424E+03  0.24098125424E+03  0.00000000000E+00 0. -1.
         21   -1    0    0  501  503 -0.00000000000E+00 -0.00000000000E+00 -0.56898663397E+03  0.56898663397E+03  0.00000000000E+00 0.  1.
         25    1    1    2    0    0  0.17889710665E+03  0.15362206900E+03 -0.45511511655E+03  0.52759708506E+03  0.12500000000E+03 0.  0.
          2    1    1    2  501    0 -0.10701686849E+03 -0.11895131914E+03  0.41432610513E+02  0.16528365824E+03  0.00000000000E+00 0. -1.
         -2    1    1    2    0  502 -0.71880238162E+02 -0.34670749860E+02  0.85677126307E+02  0.11708714492E+03  0.00000000000E+00 0.  1.
<mgrwt>
<rscale>  4 0.26688746E+03</rscale>
<asrwt>0</asrwt>
<pdfrwt beam="1">  1       21 0.37074039E-01 0.26688746E+03</pdfrwt>
<pdfrwt beam="2">  1       21 0.87536405E-01 0.26688746E+03</pdfrwt>
<totfact> 0.74953080E+03</totfact>
</mgrwt>
</event>
<event>
 5    0  0.2257501E-001  0.2987757E+03  0.7546771E-02  0.1085854E+00
         21   -1    0    0  501  502  0.00000000000E+00  0.00000000000E+00  0.11129456590E+03  0.11129456590E+03  0.00000000000E+00 0.  1.
         21   -1    0    0  502  503 -0.00000000000E+00 -0.00000000000E+00 -0.78807184085E+03  0.78807184085E+03  0.00000000000E+00 0.  1.
         25    1    1    2    0    0 -0.19341645610E+03 -0.19034709252E+03 -0.26323128806E+03  0.39819298353E+03  0.12500000000E+03 0.  0.
          4    1    1    2  501    0  0.10796746798E+03  0.13183909901E+03 -0.31541770821E+03  0.35850641950E+03  0.00000000000E+00 0. -1.
         -4    1    1    2    0  503  0.85448988118E+02  0.58507993515E+02 -0.98128278683E+02  0.14266700373E+03  0.00000000000E+00 0.  1.
<mgrwt>
<rscale>  4 0.29877574E+03</rscale>
<asrwt>0</asrwt>
<pdfrwt beam="1">  1       21 0.17122241E-01 0.29877574E+03</pdfrwt>
<pdfrwt beam="2">  1       21 0.12124182E+00 0.29877574E+03</pdfrwt>
<totfact> 0.14944793E+04</totfact>
</mgrwt>
</event>
<event>
 5    0  0.2257501E-001  0.2582821E+03  0.7546771E-02  0.1108180E+00
         21   -1    0    0  503  502  0.00000000000E+00  0.00000000000E+00  0.14853832131E+03  0.14853832131E+03  0.00000000000E+00 0.  1.
         21   -1    0    0  501  503 -0.00000000000E+00 -0.00000000000E+00 -0.50023035646E+03  0.50023035646E+03  0.00000000000E+00 0.  1.
         25    1    1    2    0    0 -0.23449825383E+03 -0.47282856164E+02 -0.90373010783E+02  0.28463552241E+03  0.12500000000E+03 0.  0.
          3    1    1    2  501    0  0.20770003532E+03  0.32097914653E+02 -0.17838569009E+03  0.27566471524E+03  0.00000000000E+00 0.  1.
         -3    1    1    2    0  502  0.26798218509E+02  0.15184941511E+02 -0.82933334272E+02  0.88468440121E+02  0.00000000000E+00 0. -1.
<mgrwt>
<rscale>  4 0.25828214E+03</rscale>
<asrwt>0</asrwt>
<pdfrwt beam="1">  1       21 0.22852049E-01 0.25828214E+03</pdfrwt>
<pdfrwt beam="2">  1       21 0.76958516E-01 0.25828214E+03</pdfrwt>
<totfact> 0.26069879E+04</totfact>
</mgrwt>
</event>
<event>
 5    0  0.2257501E-001  0.2007993E+03  0.7546771E-02  0.1149066E+00
         21   -1    0    0  503  502  0.00000000000E+00  0.00000000000E+00  0.30600916712E+03  0.30600916712E+03  0.00000000000E+00 0. -1.
         21   -1    0    0  501  503 -0.00000000000E+00 -0.00000000000E+00 -0.21773867058E+03  0.21773867058E+03  0.00000000000E+00 0. -1.
         25    1    1    2    0    0  0.16995357507E+03 -0.10578149379E+03  0.15263493454E+02  0.23649929459E+03  0.12500000000E+03 0.  0.
          1    1    1    2  501    0 -0.12944871791E+03 -0.32709120006E+02  0.34120570914E+02  0.13780809287E+03  0.00000000000E+00 0.  1.
         -1    1    1    2    0  502 -0.40504857165E+02  0.13849061380E+03  0.38886432167E+02  0.14944045025E+03  0.00000000000E+00 0. -1.
<mgrwt>
<rscale>  4 0.20079931E+03</rscale>
<asrwt>0</asrwt>
<pdfrwt beam="1">  1       21 0.47078334E-01 0.20079931E+03</pdfrwt>
<pdfrwt beam="2">  1       21 0.33498257E-01 0.20079931E+03</pdfrwt>
<totfact> 0.36901120E+04</totfact>
</mgrwt>
</event>
<event>
 5    0  0.2257501E-001  0.2410152E+03  0.7546771E-02  0.1119118E+00
         21   -1    0    0  503  502  0.00000000000E+00  0.00000000000E+00  0.59798972310E+02  0.59798972310E+02  0.00000000000E+00 0. -1.
         21   -1    0    0  501  503 -0.00000000000E+00 -0.00000000000E+00 -0.18149885632E+04  0.18149885632E+04  0.00000000000E+00 0. -1.
         25    1    1    2    0    0 -0.95736185569E+02 -0.18247708993E+03 -0.15860015261E+04  0.16042098199E+04  0.12500000000E+03 0.  0.
          1    1    1    2  501    0  0.40099776783E+02  0.38619463872E+02 -0.58304990581E+02  0.80615922835E+02  0.00000000000E+00 0.  1.
         -1    1    1    2    0  502  0.55636408786E+02  0.14385762606E+03 -0.11088307423E+03  0.18996179276E+03  0.00000000000E+00 0. -1.
<mgrwt>
<rscale>  4 0.24101516E+03</rscale>
<asrwt>0</asrwt>
<pdfrwt beam="1">  1       21 0.91998428E-02 0.24101516E+03</pdfrwt>
<pdfrwt beam="2">  1       21 0.27922898E+00 0.24101516E+03</pdfrwt>
<totfact> 0.40211838E+03</totfact>
</mgrwt>
</event>
<event>
 5    0  0.2257501E-001  0.3642452E+03  0.7546771E-02  0.1056915E+00
         21   -1    0    0  503  502  0.00000000000E+00  0.00000000000E+00  0.11535979528E+03  0.11535979528E+03  0.00000000000E+00 0. -1.
         21   -1    0    0  501  503 -0.00000000000E+00 -0.00000000000E+00 -0.19953632695E+04  0.19953632695E+04  0.00000000000E+00 0. -1.
         25    1    1    2    0    0 -0.31690794713E+03  0.10596786133E+03 -0.14551420622E+04  0.14982400528E+04  0.12500000000E+03 0.  0.
          1    1    1    2  501    0  0.36805113486E+03 -0.76020015555E+02 -0.32746442959E+03  0.49847129635E+03  0.00000000000E+00 0. -1.
         -1    1    1    2    0  502 -0.51143187729E+02 -0.29947845774E+02 -0.97396982463E+02  0.11401171567E+03  0.00000000000E+00 0.  1.
<mgrwt>
<rscale>  4 0.36424519E+03</rscale>
<asrwt>0</asrwt>
<pdfrwt beam="1">  1       21 0.17747662E-01 0.36424519E+03</pdfrwt>
<pdfrwt beam="2">  1       21 0.30697894E+00 0.36424519E+03</pdfrwt>
<totfact> 0.75772590E+02</totfact>
</mgrwt>
</event>
<event>
 5    0  0.2257501E-001  0.2373918E+03  0.7546771E-02  0.1121543E+00
         21   -1    0    0  503  502  0.00000000000E+00  0.00000000000E+00  0.56775555093E+03  0.56775555093E+03  0.00000000000E+00 0. -1.
         21   -1    0    0  501  503 -0.00000000000E+00 -0.00000000000E+00 -0.11310515163E+03  0.11310515163E+03  0.00000000000E+00 0. -1.
         25    1    1    2    0    0  0.17822726665E+03 -0.98406082067E+02  0.12318771252E+03  0.26879160716E+03  0.12500000000E+03 0.  0.
          1    1    1    2  501    0 -0.17076021144E+02 -0.22866267527E+02  0.59701798557E+01  0.29156469886E+02  0.00000000000E+00 0.  1.
         -1    1    1    2    0  502 -0.16115124551E+03  0.12127234959E+03  0.32549250693E+03  0.38291262551E+03  0.00000000000E+00 0. -1.
<mgrwt>
<rscale>  4 0.23739176E+03</rscale>
<asrwt>0</asrwt>
<pdfrwt beam="1">  1       21 0.87347006E-01 0.23739176E+03</pdfrwt>
<pdfrwt beam="2">  1       21 0.17400793E-01 0.23739176E+03</pdfrwt>
<totfact> 0.32872363E+04</totfact>
</mgrwt>
</event>
<event>
 5    0  0.2257501E-001  0.2768049E+03  0.7546771E-02  0.1097447E+00
         21   -1    0    0  501  502  0.00000000000E+00  0.00000000000E+00  0.36227496147E+03  0.36227496147E+03  0.00000000000E+00 0.  1.
         21   -1    0    0  502  503 -0.00000000000E+00 -0.00000000000E+00 -0.21928556916E+03  0.21928556916E+03  0.00000000000E+00 0.  1.
         25    1    1    2    0    0  0.24697360700E+03 -0.10258899648E+00  0.16167404514E+03  0.32056117973E+03  0.12500000000E+03 0.  0.
          3    1    1    2  501    0 -0.17549120129E+03 -0.32693478369E+02 -0.31639278946E+02  0.18129277214E+03  0.00000000000E+00 0.  1.
         -3    1    1    2    0  503 -0.71482405709E+02  0.32796067365E+02  0.12954626114E+02  0.79706578765E+02  0.00000000000E+00 0. -1.
<mgrwt>
<rscale>  4 0.27680494E+03</rscale>
<asrwt>0</asrwt>
<pdfrwt beam="1">  1       21 0.55734610E-01 0.27680494E+03</pdfrwt>
<pdfrwt beam="2">  1       21 0.33736241E-01 0.27680494E+03</pdfrwt>
<totfact> 0.24621981E+04</totfact>
</mgrwt>
</event>
<event>
 5    0  0.2257501E-001  0.2820212E+03  0.7546771E-02  0.1094590E+00
         21   -1    0    0  501  502  0.00000000000E+00  0.00000000000E+00  0.17593923041E+04  0.17593923041E+04  0.00000000000E+00 0.  1.
         21   -1    0    0  502  503 -0.00000000000E+00 -0.00000000000E+00 -0.66972091590E+02  0.66972091590E+02  0.00000000000E+00 0.  1.
         25    1    1    2    0    0  0.38301818340E+02  0.25437427559E+03  0.33524015822E+03  0.44066343739E+03  0.12500000000E+03 0.  0.
          1    1    1    2  501    0 -0.62463617165E+02 -0.23110703134E+03  0.12684178416E+04  0.12908121414E+04  0.00000000000E+00 0.  1.
         -1    1    1    2    0  503  0.24161798825E+02 -0.23267244251E+02  0.88762212701E+02  0.94888816944E+02  0.00000000000E+00 0. -1.
<mgrwt>
<rscale>  4 0.28202116E+03</rscale>
<asrwt>0</asrwt>
<pdfrwt beam="1">  1       21 0.27067570E+00 0.28202116E+03</pdfrwt>
<pdfrwt beam="2">  1       21 0.10303400E-01 0.28202116E+03</pdfrwt>
<totfact> 0.35670647E+03</totfact>
</mgrwt>
</event>
<event>
 5    0  0.2257501E-001  0.2544704E+03  0.7546771E-02  0.1110512E+00
         21   -1    0    0  503  502  0.00000000000E+00  0.00000000000E+00  0.58771293658E+03  0.58771293658E+03  0.00000000000E+00 0. -1.
         21   -1    0    0  501  503 -0.00000000000E+00 -0.00000000000E+00 -0.15157125337E+03  0.15157125337E+03  0.00000000000E+00 0. -1.
         25    1    1    2    0    0 -0.20687956684E+03  0.79567804669E+02  0.44617355436E+03  0.51363998221E+03  0.12500000000E+03 0.  0.
          2    1    1    2  501    0  0.64206531322E+02 -0.75084965820E+01 -0.12232223372E+02  0.65791211221E+02  0.00000000000E+00 0.  1.
         -2    1    1    2    0  502  0.14267303552E+03 -0.72059308087E+02  0.22003522253E+01  0.15985299652E+03  0.00000000000E+00 0. -1.
<mgrwt>
<rscale>  4 0.25447041E+03</rscale>
<asrwt>0</asrwt>
<pdfrwt beam="1">  1       21 0.90417373E-01 0.25447041E+03</pdfrwt>
<pdfrwt beam="2">  1       21 0.23318655E-01 0.25447041E+03</pdfrwt>
<totfact> 0.17353295E+04</totfact>
</mgrwt>
</event>
<event>
 5    0  0.2257501E-001  0.2387333E+03  0.7546771E-02  0.1120640E+00
         21   -1    0    0  503  502  0.00000000000E+00  0.00000000000E+00  0.55075681317E+03  0.55075681317E+03  0.00000000000E+00 0. -1.
         21   -1    0    0  501  503 -0.00000000000E+00 -0.00000000000E+00 -0.12874844671E+03  0.12874844671E+03  0.00000000000E+00 0. -1.
         25    1    1    2    0    0  0.13167424537E+03  0.15501770609E+03  0.39954083493E+03  0.46543149321E+03  0.12500000000E+03 0.  0.
          2    1    1    2  501    0 -0.13386676407E+03 -0.12762927690E+03  0.24243831965E+02  0.18654036086E+03  0.00000000000E+00 0. -1.
         -2    1    1    2    0  502  0.21925186965E+01 -0.27388429191E+02 -0.17763004312E+01  0.27533405801E+02  0.00000000000E+00 0.  1.
<mgrwt>
<rscale>  4 0.23873332E+03</rscale>
<asrwt>0</asrwt>
<pdfrwt beam="1">  1       21 0.84731816E-01 0.23873332E+03</pdfrwt>
<pdfrwt beam="2">  1       21 0.19807454E-01 0.23873332E+03</pdfrwt>
<totfact> 0.27679121E+04</totfact>
</mgrwt>
</event>
<event>
 5    0  0.2257501E-001  0.2662392E+03  0.7546771E-02  0.1103451E+00
         21   -1    0    0  501  502  0.00000000000E+00  0.00000000000E+00  0.87077352709E+03  0.87077352709E+03  0.00000000000E+00 0.  1.
         21   -1    0    0  502  503 -0.00000000000E+00 -0.00000000000E+00 -0.10510812651E+03  0.10510812651E+03  0.00000000000E+00 0. -1.
         25    1    1    2    0    0  0.53382930053E+02 -0.22892919377E+03  0.13060827660E+03  0.29654988602E+03  0.12500000000E+03 0.  0.
          3    1    1    2  501    0 -0.49628977322E+02  0.17628025122E+03  0.54500703416E+03  0.57495254556E+03  0.00000000000E+00 0.  1.
         -3    1    1    2    0  503 -0.37539527312E+01  0.52648942550E+02  0.90050089822E+02  0.10437922202E+03  0.00000000000E+00 0. -1.
<mgrwt>
<rscale>  4 0.26623920E+03</rscale>
<asrwt>0</asrwt>
<pdfrwt beam="1">  1       21 0.13396515E+00 0.26623920E+03</pdfrwt>
<pdfrwt beam="2">  1       21 0.16170482E-01 0.26623920E+03</pdfrwt>
<totfact> 0.13092849E+04</totfact>
</mgrwt>
</event>
<event>
 5    0  0.2257501E-001  0.2413126E+03  0.7546771E-02  0.1118922E+00
         21   -1    0    0  503  502  0.00000000000E+00  0.00000000000E+00  0.20046126356E+03  0.20046126356E+03  0.00000000000E+00 0.  1.
         21   -1    0    0  501  503 -0.00000000000E+00 -0.00000000000E+00 -0.51457242192E+03  0.51457242192E+03  0.00000000000E+00 0. -1.
         25    1    1    2    0    0 -0.13834208705E+03  0.15319340680E+03 -0.40931666369E+03  0.47515458969E+03  0.12500000000E+03 0.  0.
          2    1    1    2  501    0  0.61402379759E+02 -0.11983432358E+03  0.72834487546E+02  0.15308618462E+03  0.00000000000E+00 0. -1.
         -2    1    1    2    0  502  0.76939707293E+02 -0.33359083222E+02  0.22371017777E+02  0.86792911163E+02  0.00000000000E+00 0.  1.
<mgrwt>
<rscale>  4 0.24131256E+03</rscale>
<asrwt>0</asrwt>
<pdfrwt beam="1">  1       21 0.30840194E-01 0.24131256E+03</pdfrwt>
<pdfrwt beam="2">  1       21 0.79164988E-01 0.24131256E+03</pdfrwt>
<totfact> 0.13807809E+04</totfact>
</mgrwt>
</event>
<event>
 5    0  0.2257501E-001  0.5247979E+03  0.7546771E-02  0.1007502E+00
         21   -1    0    0  503  502  0.00000000000E+00  0.00000000000E+00  0.97122221827E+03  0.97122221827E+03  0.00000000000E+00 0. -1.
         21   -1    0    0  501  503 -0.00000000000E+00 -0.00000000000E+00 -0.56079999834E+03  0.56079999834E+03  0.00000000000E+00 0.  1.
         25    1    1    2    0    0  0.19717037549E+03  0.47001240323E+03 -0.33646228945E+03  0.62339368651E+03  0.12500000000E+03 0.  0.
          1    1    1    2  501    0 -0.15003125202E+03 -0.40466593480E+03  0.67184376979E+03  0.79852235183E+03  0.00000000000E+00 0. -1.
         -1    1    1    2    0  502 -0.47139123469E+02 -0.65346468431E+02  0.75040739573E+02  0.11010617827E+03  0.00000000000E+00 0.  1.
<mgrwt>
<rscale>  4 0.52479788E+03</rscale>
<asrwt>0</asrwt>
<pdfrwt beam="1">  1       21 0.14941880E+00 0.52479788E+03</pdfrwt>
<pdfrwt beam="2">  1       21 0.86276923E-01 0.52479788E+03</pdfrwt>
<totfact> 0.27825132E+02</totfact>
</mgrwt>
</event>
<event>
 5    0  0.2257501E-001  0.2511070E+03  0.7546771E-02  0.1112607E+00
         21   -1    0    0  503  502  0.00000000000E+00  0.00000000000E+00  0.10087590974E+03  0.10087590974E+03  0.00000000000E+00 0. -1.
         21   -1    0    0  501  503 -0.00000000000E+00 -0.00000000000E+00 -0.66390426862E+03  0.66390426862E+03  0.00000000000E+00 0. -1.
         25    1    1    2    0    0 -0.18890948313E+03 -0.10836488947E+03 -0.15753674172E+03  0.29643307352E+03  0.12500000000E+03 0.  0.
          1    1    1    2  501    0  0.77989655501E+02  0.53600248986E+02 -0.26376849675E+03  0.28023060670E+03  0.00000000000E+00 0. -1.
         -1    1    1    2    0  502  0.11091982763E+03  0.54764640488E+02 -0.14172312042E+03  0.18811649813E+03  0.00000000000E+00 0.  1.
<mgrwt>
<rscale>  4 0.25110703E+03</rscale>
<asrwt>0</asrwt>
<pdfrwt beam="1">  1       21 0.15519371E-01 0.25110703E+03</pdfrwt>
<pdfrwt beam="2">  1       21 0.10213912E+00 0.25110703E+03</pdfrwt>
<totfact> 0.27902044E+04</totfact>
</mgrwt>
</event>
<event>
 5    0  0.2257501E-001  0.3126298E+03  0.7546771E-02  0.1079092E+00
         21   -1    0    0  501  502  0.00000000000E+00  0.00000000000E+00  0.36380199651E+04  0.36380199651E+04  0.00000000000E+00 0. -1.
         21   -1    0    0  502  503 -0.00000000000E+00 -0.00000000000E+00 -0.15591604100E+03  0.15591604100E+03  0.00000000000E+00 0.  1.
         25    1    1    2    0    0 -0.26753422776E+03 -0.10265380550E+03  0.14048999256E+02  0.31294526868E+03  0.12500000000E+03 0.  0.
          1    1    1    2  501    0  0.15950131455E+03  0.10291736151E+03  0.23952784930E+04  0.24027883202E+04  0.00000000000E+00 0.  1.
         -1    1    1    2    0  503  0.10803291321E+03 -0.26355600481E+00  0.10727764319E+04  0.10782024173E+04  0.00000000000E+00 0. -1.
<mgrwt>
<rscale>  4 0.31262976E+03</rscale>
<asrwt>0</asrwt>
<pdfrwt beam="1">  1       21 0.55969531E+00 0.31262976E+03</pdfrwt>
<pdfrwt beam="2">  1       21 0.23987086E-01 0.31262976E+03</pdfrwt>
<totfact> 0.94250697E+00</totfact>
</mgrwt>
</event>
<event>
 5    0  0.2257501E-001  0.2281143E+03  0.7546771E-02  0.1127974E+00
         21   -1    0    0  501  502  0.00000000000E+00  0.00000000000E+00  0.19148799804E+03  0.19148799804E+03  0.00000000000E+00 0.  1.
         21   -1    0    0  502  503 -0.00000000000E+00 -0.00000000000E+00 -0.69368458756E+03  0.69368458756E+03  0.00000000000E+00 0. -1.
         25    1    1    2    0    0 -0.72097717013E+02  0.18946243352E+03 -0.59439959702E+03  0.64033583021E+03  0.12500000000E+03 0.  0.
          2    1    1    2  501    0  0.15465970504E+02 -0.51993066817E+02  0.78651010603E+02  0.95542957404E+02  0.00000000000E+00 0. -1.
         -2    1    1    2    0  503  0.56631746508E+02 -0.13746936670E+03  0.13551996897E+02  0.14929379798E+03  0.00000000000E+00 0.  1.
<mgrwt>
<rscale>  4 0.22811433E+03</rscale>
<asrwt>0</asrwt>
<pdfrwt beam="1">  1       21 0.29459692E-01 0.22811433E+03</pdfrwt>
<pdfrwt beam="2">  1       21 0.10672071E+00 0.22811433E+03</pdfrwt>
<totfact> 0.75645504E+03</totfact>
</mgrwt>
</event>
<event>
 5    0  0.2257501E-001  0.2731198E+03  0.7546771E-02  0.1099507E+00
         21   -1    0    0  501  502  0.00000000000E+00  0.00000000000E+00  0.24848251505E+03  0.24848251505E+03  0.00000000000E+00 0.  1.
         21   -1    0    0  502  503 -0.00000000000E+00 -0.00000000000E+00 -0.32871049283E+03  0.32871049283E+03  0.00000000000E+00 0.  1.
         25    1    1    2    0    0  0.66472171872E+02 -0.23356124424E+03  0.73155953391E+02  0.28274758701E+03  0.12500000000E+03 0.  0.
          3    1    1    2  501    0 -0.54424500862E+02  0.77120994165E+02 -0.60313772892E+02  0.11201529019E+03  0.00000000000E+00 0. -1.
         -3    1    1    2    0  503 -0.12047671011E+02  0.15644025007E+03 -0.93070158282E+02  0.18243013069E+03  0.00000000000E+00 0.  1.
<mgrwt>
<rscale>  4 0.27311976E+03</rscale>
<asrwt>0</asrwt>
<pdfrwt beam="1">  1       21 0.38228079E-01 0.27311976E+03</pdfrwt>
<pdfrwt beam="2">  1       21 0.50570845E-01 0.27311976E+03</pdfrwt>
<totfact> 0.23583416E+04</totfact>
</mgrwt>
</event>
<event>
 5    0  0.2257501E-001  0.2802483E+03  0.7546771E-02  0.1095553E+00
         21   -1    0    0  503  502  0.00000000000E+00  0.00000000000E+00  0.19130525402E+03  0.19130525402E+03  0.00000000000E+00 0. -1.
         21   -1    0    0  501  503 -0.00000000000E+00 -0.00000000000E+00 -0.37222717946E+03  0.37222717946E+03  0.00000000000E+00 0. -1.
         25    1    1    2    0    0 -0.44831842111E+02 -0.24678783800E+03 -0.81029807292E+02  0.29172754536E+03  0.12500000000E+03 0.  0.
          2    1    1    2  501    0  0.48607055158E+02  0.22183679514E+03 -0.84888047355E+02  0.24244626224E+03  0.00000000000E+00 0. -1.
         -2    1    1    2    0  502 -0.37752130462E+01  0.24951042859E+02 -0.15004070797E+02  0.29358625883E+02  0.00000000000E+00 0.  1.
<mgrwt>
<rscale>  4 0.28024834E+03</rscale>
<asrwt>0</asrwt>
<pdfrwt beam="1">  1       21 0.29431578E-01 0.28024834E+03</pdfrwt>
<pdfrwt beam="2">  1       21 0.57265719E-01 0.28024834E+03</pdfrwt>
<totfact> 0.30388475E+04</totfact>
</mgrwt>
</event>
<event>
 5    0  0.2257501E-001  0.2435908E+03  0.7546771E-02  0.1117424E+00
         21   -1    0    0  501  502  0.00000000000E+00  0.00000000000E+00  0.28819838320E+03  0.28819838320E+03  0.00000000000E+00 0. -1.
         21   -1    0    0  502  503 -0.00000000000E+00 -0.00000000000E+00 -0.22718029270E+03  0.22718029270E+03  0.00000000000E+00 0.  1.
         25    1    1    2    0    0  0.17706067254E+03 -0.11118008355E+03 -0.78195096417E+02  0.25583386375E+03  0.12500000000E+03 0.  0.
          2    1    1    2  501    0 -0.14728744156E+03  0.90664778626E+02  0.14128665889E+03  0.22332848566E+03  0.00000000000E+00 0. -1.
         -2    1    1    2    0  503 -0.29773230972E+02  0.20515304919E+02 -0.20734719685E+01  0.36216326490E+02  0.00000000000E+00 0.  1.
<mgrwt>
<rscale>  4 0.24359083E+03</rscale>
<asrwt>0</asrwt>
<pdfrwt beam="1">  1       21 0.44338213E-01 0.24359083E+03</pdfrwt>
<pdfrwt beam="2">  1       21 0.34950814E-01 0.24359083E+03</pdfrwt>
<totfact> 0.37614254E+04</totfact>
</mgrwt>
</event>
<event>
 5    0  0.2257501E-001  0.2400643E+03  0.7546771E-02  0.1119750E+00
         21   -1    0    0  501  502  0.00000000000E+00  0.00000000000E+00  0.22396993073E+03  0.22396993073E+03  0.00000000000E+00 0. -1.
         21   -1    0    0  502  503 -0.00000000000E+00 -0.00000000000E+00 -0.50687342915E+03  0.50687342915E+03  0.00000000000E+00 0. -1.
         25    1    1    2    0    0 -0.14691485380E+03 -0.14290527509E+03 -0.41524069992E+03  0.47964125218E+03  0.12500000000E+03 0.  0.
          2    1    1    2  501    0  0.41673362030E+02  0.33712082702E+02  0.67692688711E+02  0.86345085140E+02  0.00000000000E+00 0.  1.
         -2    1    1    2    0  503  0.10524149177E+03  0.10919319239E+03  0.64644512789E+02  0.16485702256E+03  0.00000000000E+00 0. -1.
<mgrwt>
<rscale>  4 0.24006435E+03</rscale>
<asrwt>0</asrwt>
<pdfrwt beam="1">  1       21 0.34456913E-01 0.24006435E+03</pdfrwt>
<pdfrwt beam="2">  1       21 0.77980527E-01 0.24006435E+03</pdfrwt>
<totfact> 0.11480731E+04</totfact>
</mgrwt>
</event>
<event>
 5    0  0.2257501E-001  0.3873994E+03  0.7546771E-02  0.1048232E+00
         21   -1    0    0  501  502  0.00000000000E+00  0.00000000000E+00  0.37650555226E+03  0.37650555226E+03  0.00000000000E+00 0. -1.
         21   -1    0    0  502  503 -0.00000000000E+00 -0.00000000000E+00 -0.66921993776E+03  0.66921993776E+03  0.00000000000E+00 0. -1.
         25    1    1    2    0    0 -0.34518114250E+03 -0.14324696674E+03 -0.44761375564E+03  0.59636632103E+03  0.12500000000E+03 0.  0.
          3    1    1    2  501    0  0.33455384240E+03  0.79902680266E+02  0.16954786824E+03  0.38348036638E+03  0.00000000000E+00 0. -1.
         -3    1    1    2    0  503  0.10627300107E+02  0.63344286476E+02 -0.14648498098E+02  0.65878802610E+02  0.00000000000E+00 0.  1.
<mgrwt>
<rscale>  4 0.38739937E+03</rscale>
<asrwt>0</asrwt>
<pdfrwt beam="1">  1       21 0.57923931E-01 0.38739937E+03</pdfrwt>
<pdfrwt beam="2">  1       21 0.10295691E+00 0.38739937E+03</pdfrwt>
<totfact> 0.18903639E+03</totfact>
</mgrwt>
</event>
<event>
 5    0  0.2257501E-001  0.2442461E+03  0.7546771E-02  0.1116996E+00
         21   -1    0    0  503  502  0.00000000000E+00  0.00000000000E+00  0.31054817709E+03  0.31054817709E+03  0.00000000000E+00 0. -1.
         21   -1    0    0  501  503 -0.00000000000E+00 -0.00000000000E+00 -0.18087240135E+03  0.18087240135E+03  0.00000000000E+00 0. -1.
         25    1    1    2    0    0 -0.15604705984E+03 -0.14028706626E+03  0.11118188256E+03  0.26836087058E+03  0.12500000000E+03 0.  0.
          2    1    1    2  501    0  0.11756138442E+03  0.13690668798E+03  0.53581890729E+00  0.18045610940E+03  0.00000000000E+00 0. -1.
         -2    1    1    2    0  502  0.38485675426E+02  0.33803782895E+01  0.17958074268E+02  0.42603598460E+02  0.00000000000E+00 0.  1.
<mgrwt>
<rscale>  4 0.24424608E+03</rscale>
<asrwt>0</asrwt>
<pdfrwt beam="1">  1       21 0.47776643E-01 0.24424608E+03</pdfrwt>
<pdfrwt beam="2">  1       21 0.27826523E-01 0.24424608E+03</pdfrwt>
<totfact> 0.50460976E+04</totfact>
</mgrwt>
</event>
<event>
 5    0  0.2257501E-001  0.2361768E+03  0.7546771E-02  0.1122366E+00
         21   -1    0    0  503  502  0.00000000000E+00  0.00000000000E+00  0.85493327392E+03  0.85493327392E+03  0.00000000000E+00 0.  1.
         21   -1    0    0  501  503 -0.00000000000E+00 -0.00000000000E+00 -0.77260674998E+02  0.77260674998E+02  0.00000000000E+00 0.  1.
         25    1    1    2    0    0 -0.10777563435E+02 -0.20009583664E+03  0.64381209896E+03  0.68576491488E+03  0.12500000000E+03 0.  0.
          1    1    1    2  501    0 -0.73544910936E+01  0.17794907629E+03  0.11170041358E+03  0.21023069397E+03  0.00000000000E+00 0.  1.
         -1    1    1    2    0  502  0.18132054529E+02  0.22146760352E+02  0.22160086378E+02  0.36198340070E+02  0.00000000000E+00 0. -1.
<mgrwt>
<rscale>  4 0.23617684E+03</rscale>
<asrwt>0</asrwt>
<pdfrwt beam="1">  1       21 0.13152819E+00 0.23617684E+03</pdfrwt>
<pdfrwt beam="2">  1       21 0.11886258E-01 0.23617684E+03</pdfrwt>
<totfact> 0.24417714E+04</totfact>
</mgrwt>
</event>
<event>
 5    0  0.2257501E-001  0.3380425E+03  0.7546771E-02  0.1068796E+00
         21   -1    0    0  503  502  0.00000000000E+00  0.00000000000E+00  0.10267144335E+04  0.10267144335E+04  0.00000000000E+00 0.  1.
         21   -1    0    0  501  503 -0.00000000000E+00 -0.00000000000E+00 -0.13618587512E+03  0.13618587512E+03  0.00000000000E+00 0.  1.
         25    1    1    2    0    0 -0.15973213322E+03 -0.25698646846E+03  0.70496490820E+03  0.77727531876E+03  0.12500000000E+03 0.  0.
          2    1    1    2  501    0  0.39200460551E+02  0.19885474184E+03  0.93580386454E+02  0.22324240903E+03  0.00000000000E+00 0.  1.
         -2    1    1    2    0  502  0.12053167267E+03  0.58131726613E+02  0.91983263732E+02  0.16238258084E+03  0.00000000000E+00 0. -1.
<mgrwt>
<rscale>  4 0.33534625E+03</rscale>
<asrwt>0</asrwt>
<pdfrwt beam="1">  1       21 0.15795606E+00 0.33804255E+03</pdfrwt>
<pdfrwt beam="2">  1       21 0.20951674E-01 0.33804255E+03</pdfrwt>
<totfact> 0.50195470E+03</totfact>
</mgrwt>
</event>
<event>
 5    0  0.2257501E-001  0.2060500E+03  0.7546771E-02  0.1144733E+00
         21   -1    0    0  503  502  0.00000000000E+00  0.00000000000E+00  0.94636282479E+02  0.94636282479E+02  0.00000000000E+00 0. -1.
         21   -1    0    0  501  503 -0.00000000000E+00 -0.00000000000E+00 -0.97035471724E+03  0.97035471724E+03  0.00000000000E+00 0. -1.
         25    1    1    2    0    0  0.22435935871E+03  0.33860781673E+02 -0.53701275981E+03  0.59623097753E+03  0.12500000000E+03 0.  0.
          4    1    1    2  501    0 -0.71416135943E+02 -0.47880218358E+02 -0.29759739692E+03  0.30976925353E+03  0.00000000000E+00 0.  1.
         -4    1    1    2    0  502 -0.15294322276E+03  0.14019436685E+02 -0.41108278044E+02  0.15899076866E+03  0.00000000000E+00 0. -1.
<mgrwt>
<rscale>  4 0.20604995E+03</rscale>
<asrwt>0</asrwt>
<pdfrwt beam="1">  1       21 0.14559428E-01 0.20604995E+03</pdfrwt>
<pdfrwt beam="2">  1       21 0.14928534E+00 0.20604995E+03</pdfrwt>
<totfact> 0.12413997E+04</totfact>
</mgrwt>
</event>
<event>
 5    0  0.2257501E-001  0.3200822E+03  0.7546771E-02  0.1075611E+00
         21   -1    0    0  501  502  0.00000000000E+00  0.00000000000E+00  0.68419837984E+03  0.68419837984E+03  0.00000000000E+00 0. -1.
         21   -1    0    0  502  503 -0.00000000000E+00 -0.00000000000E+00 -0.55824898511E+03  0.55824898511E+03  0.00000000000E+00 0. -1.
         25    1    1    2    0    0 -0.17474341465E+02  0.29414668355E+03 -0.47211800010E+03  0.57039287344E+03  0.12500000000E+03 0.  0.
          2    1    1    2  501    0  0.15032831624E+02 -0.74206600748E+02  0.85025057226E+02  0.11385019094E+03  0.00000000000E+00 0.  1.
         -2    1    1    2    0  503  0.24415098411E+01 -0.21994008280E+03  0.51304233761E+03  0.55820430057E+03  0.00000000000E+00 0. -1.
<mgrwt>
<rscale>  4 0.32008221E+03</rscale>
<asrwt>0</asrwt>
<pdfrwt beam="1">  1       21 0.10526129E+00 0.32008221E+03</pdfrwt>
<pdfrwt beam="2">  1       21 0.85884459E-01 0.32008221E+03</pdfrwt>
<totfact> 0.76678821E+02</totfact>
</mgrwt>
</event>
<event>
 5    0  0.2257501E-001  0.2599078E+03  0.7546771E-02  0.1107199E+00
         21   -1    0    0  503  502  0.00000000000E+00  0.00000000000E+00  0.71260496060E+02  0.71260496060E+02  0.00000000000E+00 0. -1.
         21   -1    0    0  501  503 -0.00000000000E+00 -0.00000000000E+00 -0.18184902383E+04  0.18184902383E+04  0.00000000000E+00 0.  1.
         25    1    1    2    0    0 -0.22089993882E+03  0.62315994588E+02 -0.15530802388E+04  0.15749169166E+04  0.12500000000E+03 0.  0.
          4    1    1    2  501    0  0.31558292997E+01 -0.26287475301E+02 -0.28347408499E+02  0.38788737861E+02  0.00000000000E+00 0.  1.
         -4    1    1    2    0  502  0.21774410952E+03 -0.36028519286E+02 -0.16580209497E+03  0.27604507989E+03  0.00000000000E+00 0. -1.
<mgrwt>
<rscale>  4 0.25990778E+03</rscale>
<asrwt>0</asrwt>
<pdfrwt beam="1">  1       21 0.10963154E-01 0.25990778E+03</pdfrwt>
<pdfrwt beam="2">  1       21 0.27976771E+00 0.25990778E+03</pdfrwt>
<totfact> 0.28744479E+03</totfact>
</mgrwt>
</event>
<event>
 5    0  0.2257501E-001  0.3502885E+03  0.7546771E-02  0.1062497E+00
         21   -1    0    0  503  502  0.00000000000E+00  0.00000000000E+00  0.55764135071E+03  0.55764135071E+03  0.00000000000E+00 0.  1.
         21   -1    0    0  501  503 -0.00000000000E+00 -0.00000000000E+00 -0.33782872059E+03  0.33782872059E+03  0.00000000000E+00 0.  1.
         25    1    1    2    0    0 -0.37169471400E+02 -0.32510840103E+03  0.38876114812E+03  0.52329463242E+03  0.12500000000E+03 0.  0.
          3    1    1    2  501    0  0.99741617699E+01  0.26696027129E+03 -0.14216286522E+03  0.30261782928E+03  0.00000000000E+00 0. -1.
         -3    1    1    2    0  502  0.27195309630E+02  0.58148129741E+02 -0.26785652790E+02  0.69557609603E+02  0.00000000000E+00 0.  1.
<mgrwt>
<rscale>  4 0.35028851E+03</rscale>
<asrwt>0</asrwt>
<pdfrwt beam="1">  1       21 0.85790977E-01 0.35028851E+03</pdfrwt>
<pdfrwt beam="2">  1       21 0.51973649E-01 0.35028851E+03</pdfrwt>
<totfact> 0.37457606E+03</totfact>
</mgrwt>
</event>
<event>
 5    0  0.2257501E-001  0.2930192E+03  0.7546771E-02  0.1088783E+00
         21   -1    0    0  501  502  0.00000000000E+00  0.00000000000E+00  0.41069144752E+03  0.41069144752E+03  0.00000000000E+00 0.  1.
         21   -1    0    0  502  503 -0.00000000000E+00 -0.00000000000E+00 -0.73074886930E+03  0.73074886930E+03  0.00000000000E+00 0. -1.
         25    1    1    2    0    0 -0.13402032592E+03 -0.22863470760E+03 -0.65022788915E+03  0.71320164407E+03  0.12500000000E+03 0.  0.
          1    1    1    2  501    0  0.17675739860E+02  0.24572884895E+02  0.77724693917E+02  0.83410949498E+02  0.00000000000E+00 0. -1.
         -1    1    1    2    0  503  0.11634458606E+03  0.20406182271E+03  0.25244577345E+03  0.34482772325E+03  0.00000000000E+00 0.  1.
<mgrwt>
<rscale>  4 0.29301924E+03</rscale>
<asrwt>0</asrwt>
<pdfrwt beam="1">  1       21 0.63183301E-01 0.29301924E+03</pdfrwt>
<pdfrwt beam="2">  1       21 0.11242290E+00 0.29301924E+03</pdfrwt>
<totfact> 0.13258987E+03</totfact>
</mgrwt>
</event>
<event>
 5    0  0.2257501E-001  0.2393933E+03  0.7546771E-02  0.1120198E+00
         21   -1    0    0  503  502  0.00000000000E+00  0.00000000000E+00  0.63456927111E+03  0.63456927111E+03  0.00000000000E+00 0.  1.
         21   -1    0    0  501  503 -0.00000000000E+00 -0.00000000000E+00 -0.18869531699E+03  0.18869531699E+03  0.00000000000E+00 0.  1.
         25    1    1    2    0    0 -0.19490224217E+03  0.60805327693E+02  0.54175060828E+03  0.59228615841E+03  0.12500000000E+03 0.  0.
          4    1    1    2  501    0  0.16382465524E+03 -0.30334228365E+02 -0.76766268336E+02  0.18344411419E+03  0.00000000000E+00 0.  1.
         -4    1    1    2    0  502  0.31077586929E+02 -0.30471099329E+02 -0.19110385822E+02  0.47534315499E+02  0.00000000000E+00 0. -1.
<mgrwt>
<rscale>  4 0.23939334E+03</rscale>
<asrwt>0</asrwt>
<pdfrwt beam="1">  1       21 0.97626041E-01 0.23939334E+03</pdfrwt>
<pdfrwt beam="2">  1       21 0.29030049E-01 0.23939334E+03</pdfrwt>
<totfact> 0.95719011E+03</totfact>
</mgrwt>
</event>
<event>
 5    0  0.2257501E-001  0.2664885E+03  0.7546771E-02  0.1103306E+00
         21   -1    0    0  503  502  0.00000000000E+00  0.00000000000E+00  0.13699183197E+04  0.13699183197E+04  0.00000000000E+00 0. -1.
         21   -1    0    0  501  503 -0.00000000000E+00 -0.00000000000E+00 -0.50732540369E+02  0.50732540369E+02  0.00000000000E+00 0. -1.
         25    1    1    2    0    0  0.18213242472E+03 -0.14906007845E+03  0.75567811309E+03  0.80128992114E+03  0.12500000000E+03 0.  0.
          1    1    1    2  501    0 -0.94498788637E+02  0.13814063354E+03  0.33776009500E+03  0.37695455623E+03  0.00000000000E+00 0. -1.
         -1    1    1    2    0  502 -0.87633636081E+02  0.10919444902E+02  0.22574757121E+03  0.24240638266E+03  0.00000000000E+00 0.  1.
<mgrwt>
<rscale>  4 0.26648851E+03</rscale>
<asrwt>0</asrwt>
<pdfrwt beam="1">  1       21 0.21075664E+00 0.26648851E+03</pdfrwt>
<pdfrwt beam="2">  1       21 0.78050072E-02 0.26648851E+03</pdfrwt>
<totfact> 0.13635553E+04</totfact>
</mgrwt>
</event>
<event>
 5    0  0.2257501E-001  0.2394475E+03  0.7546771E-02  0.1120161E+00
         21   -1    0    0  503  502  0.00000000000E+00  0.00000000000E+00  0.99898403759E+02  0.99898403759E+02  0.00000000000E+00 0. -1.
         21   -1    0    0  501  503 -0.00000000000E+00 -0.00000000000E+00 -0.90434039509E+03  0.90434039509E+03  0.00000000000E+00 0. -1.
         25    1    1    2    0    0  0.20879525793E+03 -0.14220311213E+03 -0.34166082206E+03  0.44291568290E+03  0.12500000000E+03 0.  0.
          4    1    1    2  501    0 -0.11633916270E+03 -0.17062854484E+02 -0.27115430712E+03  0.29555134926E+03  0.00000000000E+00 0.  1.
         -4    1    1    2    0  502 -0.92456095221E+02  0.15926596662E+03 -0.19162686215E+03  0.26577176668E+03  0.00000000000E+00 0. -1.
<mgrwt>
<rscale>  4 0.23944746E+03</rscale>
<asrwt>0</asrwt>
<pdfrwt beam="1">  1       21 0.15368986E-01 0.23944746E+03</pdfrwt>
<pdfrwt beam="2">  1       21 0.13912929E+00 0.23944746E+03</pdfrwt>
<totfact> 0.13233651E+04</totfact>
</mgrwt>
</event>
<event>
 5    0  0.2257501E-001  0.2654372E+03  0.7546771E-02  0.1103920E+00
         21   -1    0    0  503  502  0.00000000000E+00  0.00000000000E+00  0.36960212468E+03  0.36960212468E+03  0.00000000000E+00 0. -1.
         21   -1    0    0  501  503 -0.00000000000E+00 -0.00000000000E+00 -0.26850334260E+03  0.26850334260E+03  0.00000000000E+00 0. -1.
         25    1    1    2    0    0 -0.12932401341E+03 -0.19521071035E+03 -0.13704618586E+03  0.29872826940E+03  0.12500000000E+03 0.  0.
          4    1    1    2  501    0  0.43426376441E+02  0.83820519058E+02  0.57909012463E+02  0.11074828807E+03  0.00000000000E+00 0.  1.
         -4    1    1    2    0  502  0.85897636973E+02  0.11139019129E+03  0.18023595548E+03  0.22862890981E+03  0.00000000000E+00 0. -1.
<mgrwt>
<rscale>  4 0.26543723E+03</rscale>
<asrwt>0</asrwt>
<pdfrwt beam="1">  1       21 0.56861866E-01 0.26543723E+03</pdfrwt>
<pdfrwt beam="2">  1       21 0.41308206E-01 0.26543723E+03</pdfrwt>
<totfact> 0.15755294E+04</totfact>
</mgrwt>
</event>
<event>
 5    0  0.2257501E-001  0.2390170E+03  0.7546771E-02  0.1120449E+00
         21   -1    0    0  501  502  0.00000000000E+00  0.00000000000E+00  0.17403702606E+03  0.17403702606E+03  0.00000000000E+00 0.  1.
         21   -1    0    0  502  503 -0.00000000000E+00 -0.00000000000E+00 -0.29023427386E+03  0.29023427386E+03  0.00000000000E+00 0.  1.
         25    1    1    2    0    0  0.15680580921E+03 -0.13006182632E+03 -0.60307092277E+02  0.24650778050E+03  0.12500000000E+03 0.  0.
          2    1    1    2  501    0 -0.15263228560E+03  0.10763888523E+03 -0.55900757121E+02  0.19495547920E+03  0.00000000000E+00 0.  1.
         -2    1    1    2    0  503 -0.41735236025E+01  0.22422941095E+02  0.10601591154E-01  0.22808040227E+02  0.00000000000E+00 0. -1.
<mgrwt>
<rscale>  4 0.23901703E+03</rscale>
<asrwt>0</asrwt>
<pdfrwt beam="1">  1       21 0.26774927E-01 0.23901703E+03</pdfrwt>
<pdfrwt beam="2">  1       21 0.44651427E-01 0.23901703E+03</pdfrwt>
<totfact> 0.62687888E+04</totfact>
</mgrwt>
</event>
<event>
 5    0  0.2257501E-001  0.2728538E+03  0.7546771E-02  0.1099657E+00
         21   -1    0    0  503  502  0.00000000000E+00  0.00000000000E+00  0.19893674407E+03  0.19893674407E+03  0.00000000000E+00 0.  1.
         21   -1    0    0  501  503 -0.00000000000E+00 -0.00000000000E+00 -0.41669281447E+03  0.41669281447E+03  0.00000000000E+00 0. -1.
         25    1    1    2    0    0  0.23494786394E+03  0.60197307171E+02 -0.24054789801E+03  0.36374786020E+03  0.12500000000E+03 0.  0.
          3    1    1    2  501    0 -0.49157942244E+02 -0.28441573786E+02 -0.16919371284E+02  0.59259526911E+02  0.00000000000E+00 0. -1.
         -3    1    1    2    0  502 -0.18578992170E+03 -0.31755733385E+02  0.39711198895E+02  0.19262217143E+03  0.00000000000E+00 0.  1.
<mgrwt>
<rscale>  4 0.27285383E+03</rscale>
<asrwt>0</asrwt>
<pdfrwt beam="1">  1       21 0.30605653E-01 0.27285383E+03</pdfrwt>
<pdfrwt beam="2">  1       21 0.64106586E-01 0.27285383E+03</pdfrwt>
<totfact> 0.22093537E+04</totfact>
</mgrwt>
</event>
<event>
 5    0  0.2257501E-001  0.2594536E+03  0.7546771E-02  0.1107472E+00
         21   -1    0    0  503  502  0.00000000000E+00  0.00000000000E+00  0.15071539953E+03  0.15071539953E+03  0.00000000000E+00 0. -1.
         21   -1    0    0  501  503 -0.00000000000E+00 -0.00000000000E+00 -0.14307252247E+04  0.14307252247E+04  0.00000000000E+00 0.  1.
         25    1    1    2    0    0 -0.22087355621E+03 -0.53907693094E+02 -0.13138006161E+04  0.13391744569E+04  0.12500000000E+03 0.  0.
          4    1    1    2  501    0  0.15823554220E+03  0.26278969138E+02 -0.10469489089E+02  0.16074414838E+03  0.00000000000E+00 0. -1.
         -4    1    1    2    0  502  0.62638014006E+02  0.27628723956E+02  0.44260280005E+02  0.81522018941E+02  0.00000000000E+00 0.  1.
<mgrwt>
<rscale>  4 0.25945359E+03</rscale>
<asrwt>0</asrwt>
<pdfrwt beam="1">  1       21 0.23186984E-01 0.25945359E+03</pdfrwt>
<pdfrwt beam="2">  1       21 0.22011158E+00 0.25945359E+03</pdfrwt>
<totfact> 0.16464090E+03</totfact>
</mgrwt>
</event>
<event>
 5    0  0.2257501E-001  0.2485706E+03  0.7546771E-02  0.1114212E+00
         21   -1    0    0  501  502  0.00000000000E+00  0.00000000000E+00  0.22773648914E+03  0.22773648914E+03  0.00000000000E+00 0. -1.
         21   -1    0    0  502  503 -0.00000000000E+00 -0.00000000000E+00 -0.30496308817E+03  0.30496308817E+03  0.00000000000E+00 0. -1.
         25    1    1    2    0    0  0.16357014024E+03  0.13930954650E+03  0.71295185483E+02  0.25859300841E+03  0.12500000000E+03 0.  0.
          2    1    1    2  501    0 -0.35072521211E+02 -0.58407494308E+02 -0.10549804242E+02  0.68940666555E+02  0.00000000000E+00 0. -1.
         -2    1    1    2    0  503 -0.12849761903E+03 -0.80902052188E+02 -0.13797198027E+03  0.20516590234E+03  0.00000000000E+00 0.  1.
<mgrwt>
<rscale>  4 0.24857059E+03</rscale>
<asrwt>0</asrwt>
<pdfrwt beam="1">  1       21 0.35036383E-01 0.24857059E+03</pdfrwt>
<pdfrwt beam="2">  1       21 0.46917398E-01 0.24857059E+03</pdfrwt>
<totfact> 0.33225143E+04</totfact>
</mgrwt>
</event>
<event>
 5    0  0.2257501E-001  0.3110949E+03  0.7546771E-02  0.1079822E+00
         21   -1    0    0  501  502  0.00000000000E+00  0.00000000000E+00  0.10739708544E+04  0.10739708544E+04  0.00000000000E+00 0.  1.
         21   -1    0    0  502  503 -0.00000000000E+00 -0.00000000000E+00 -0.14765799704E+03  0.14765799704E+03  0.00000000000E+00 0. -1.
         25    1    1    2    0    0  0.14198660662E+03 -0.25954717282E+03  0.10303907547E+03  0.33729361461E+03  0.12500000000E+03 0.  0.
          3    1    1    2  501    0 -0.43451968919E+02  0.22229407319E+02  0.26903563670E+03  0.27342712735E+03  0.00000000000E+00 0. -1.
         -3    1    1    2    0  503 -0.98534637703E+02  0.23731776551E+03  0.55423814524E+03  0.61090810953E+03  0.00000000000E+00 0.  1.
<mgrwt>
<rscale>  4 0.31109491E+03</rscale>
<asrwt>0</asrwt>
<pdfrwt beam="1">  1       21 0.16522628E+00 0.31109491E+03</pdfrwt>
<pdfrwt beam="2">  1       21 0.22716616E-01 0.31109491E+03</pdfrwt>
<totfact> 0.38537068E+03</totfact>
</mgrwt>
</event>
<event>
 5    0  0.2257501E-001  0.2874169E+03  0.7546771E-02  0.1091706E+00
         21   -1    0    0  501  502  0.00000000000E+00  0.00000000000E+00  0.13837681475E+04  0.13837681475E+04  0.00000000000E+00 0. -1.
         21   -1    0    0  502  503 -0.00000000000E+00 -0.00000000000E+00 -0.60241828731E+02  0.60241828731E+02  0.00000000000E+00 0. -1.
         25    1    1    2    0    0  0.32540048950E+02 -0.25675784956E+03  0.83243127965E+03  0.88065332762E+03  0.12500000000E+03 0.  0.
          3    1    1    2  501    0 -0.43510262849E+02  0.16692820166E+03  0.39672562512E+03  0.43260766188E+03  0.00000000000E+00 0. -1.
         -3    1    1    2    0  503  0.10970213899E+02  0.89829647900E+02  0.94369413984E+02  0.13074898673E+03  0.00000000000E+00 0.  1.
<mgrwt>
<rscale>  4 0.28741685E+03</rscale>
<asrwt>0</asrwt>
<pdfrwt beam="1">  1       21 0.21288738E+00 0.28741685E+03</pdfrwt>
<pdfrwt beam="2">  1       21 0.92679747E-02 0.28741685E+03</pdfrwt>
<totfact> 0.96421008E+03</totfact>
</mgrwt>
</event>
<event>
 5    0  0.2257501E-001  0.2412574E+03  0.7546771E-02  0.1118958E+00
         21   -1    0    0  501  502  0.00000000000E+00  0.00000000000E+00  0.13761951244E+03  0.13761951244E+03  0.00000000000E+00 0.  1.
         21   -1    0    0  502  503 -0.00000000000E+00 -0.00000000000E+00 -0.90824181268E+03  0.90824181268E+03  0.00000000000E+00 0.  1.
         25    1    1    2    0    0  0.22875845512E+03 -0.69089403530E+02 -0.59177373748E+03  0.65032678926E+03  0.12500000000E+03 0.  0.
          4    1    1    2  501    0 -0.10584897734E+03 -0.66188711645E+02  0.18891911874E+02  0.12626106243E+03  0.00000000000E+00 0.  1.
         -4    1    1    2    0  503 -0.12290947779E+03  0.13527811517E+03 -0.19774047465E+03  0.26927347342E+03  0.00000000000E+00 0. -1.
<mgrwt>
<rscale>  4 0.24125739E+03</rscale>
<asrwt>0</asrwt>
<pdfrwt beam="1">  1       21 0.21172232E-01 0.24125739E+03</pdfrwt>
<pdfrwt beam="2">  1       21 0.13972951E+00 0.24125739E+03</pdfrwt>
<totfact> 0.72043427E+03</totfact>
</mgrwt>
</event>
<event>
 5    0  0.2257501E-001  0.3262875E+03  0.7546771E-02  0.1072791E+00
         21   -1    0    0  501  502  0.00000000000E+00  0.00000000000E+00  0.26918380449E+03  0.26918380449E+03  0.00000000000E+00 0.  1.
         21   -1    0    0  502  503 -0.00000000000E+00 -0.00000000000E+00 -0.10976830437E+04  0.10976830437E+04  0.00000000000E+00 0.  1.
         25    1    1    2    0    0 -0.87651159678E+02 -0.28836744619E+03 -0.97537108599E+03  0.10285000074E+04  0.12500000000E+03 0.  0.
          4    1    1    2  501    0  0.35563863150E+01  0.41261847464E+02  0.35612722622E+02  0.54621002850E+02  0.00000000000E+00 0. -1.
         -4    1    1    2    0  503  0.84094773363E+02  0.24710559873E+03  0.11125912418E+03  0.28374583793E+03  0.00000000000E+00 0.  1.
<mgrwt>
<rscale>  4 0.32628746E+03</rscale>
<asrwt>0</asrwt>
<pdfrwt beam="1">  1       21 0.41412894E-01 0.32628746E+03</pdfrwt>
<pdfrwt beam="2">  1       21 0.16887431E+00 0.32628746E+03</pdfrwt>
<totfact> 0.10949750E+03</totfact>
</mgrwt>
</event>
<event>
 5    0  0.2257501E-001  0.2798805E+03  0.7546771E-02  0.1095754E+00
         21   -1    0    0  501  502  0.00000000000E+00  0.00000000000E+00  0.13597921470E+04  0.13597921470E+04  0.00000000000E+00 0.  1.
         21   -1    0    0  502  503 -0.00000000000E+00 -0.00000000000E+00 -0.19921841085E+03  0.19921841085E+03  0.00000000000E+00 0.  1.
         25    1    1    2    0    0 -0.37529794583E+02  0.24758759730E+03 -0.78380695649E+02  0.29064864918E+03  0.12500000000E+03 0.  0.
          1    1    1    2  501    0  0.15879001934E+02 -0.14960741994E+03  0.96400595861E+03  0.97567515651E+03  0.00000000000E+00 0.  1.
         -1    1    1    2    0  503  0.21650792649E+02 -0.97980177357E+02  0.27494847319E+03  0.29268675216E+03  0.00000000000E+00 0. -1.
<mgrwt>
<rscale>  4 0.27988052E+03</rscale>
<asrwt>0</asrwt>
<pdfrwt beam="1">  1       21 0.20919879E+00 0.27988052E+03</pdfrwt>
<pdfrwt beam="2">  1       21 0.30648987E-01 0.27988052E+03</pdfrwt>
<totfact> 0.11049418E+03</totfact>
</mgrwt>
</event>
<event>
 5    0  0.2257501E-001  0.4378088E+03  0.7546771E-02  0.1031421E+00
         21   -1    0    0  501  502  0.00000000000E+00  0.00000000000E+00  0.25824789054E+03  0.25824789054E+03  0.00000000000E+00 0. -1.
         21   -1    0    0  502  503 -0.00000000000E+00 -0.00000000000E+00 -0.88161718893E+03  0.88161718893E+03  0.00000000000E+00 0. -1.
         25    1    1    2    0    0 -0.34942253084E+03  0.27817205045E+03 -0.27072359460E+03  0.53702147014E+03  0.12500000000E+03 0.  0.
          2    1    1    2  501    0  0.35072611873E+03 -0.18668161506E+03 -0.28126459181E+03  0.48679421357E+03  0.00000000000E+00 0. -1.
         -2    1    1    2    0  503 -0.13035878846E+01 -0.91490435395E+02 -0.71381111978E+02  0.11604939576E+03  0.00000000000E+00 0.  1.
<mgrwt>
<rscale>  4 0.43780879E+03</rscale>
<asrwt>0</asrwt>
<pdfrwt beam="1">  1       21 0.39730444E-01 0.43780879E+03</pdfrwt>
<pdfrwt beam="2">  1       21 0.13563342E+00 0.43780879E+03</pdfrwt>
<totfact> 0.20455045E+03</totfact>
</mgrwt>
</event>
<event>
 5    0  0.2257501E-001  0.2001024E+03  0.7546771E-02  0.1149653E+00
         21   -1    0    0  501  502  0.00000000000E+00  0.00000000000E+00  0.38622684761E+03  0.38622684761E+03  0.00000000000E+00 0.  1.
         21   -1    0    0  502  503 -0.00000000000E+00 -0.00000000000E+00 -0.20126276868E+03  0.20126276868E+03  0.00000000000E+00 0.  1.
         25    1    1    2    0    0 -0.13059713882E+03 -0.19072623593E+03 -0.13105468643E+01  0.26279046268E+03  0.12500000000E+03 0.  0.
          3    1    1    2  501    0  0.96405514042E+02  0.52104302832E+02  0.31271052370E+02  0.11395946748E+03  0.00000000000E+00 0. -1.
         -3    1    1    2    0  503  0.34191624781E+02  0.13862193310E+03  0.15500357342E+03  0.21073968614E+03  0.00000000000E+00 0.  1.
<mgrwt>
<rscale>  4 0.20010243E+03</rscale>
<asrwt>0</asrwt>
<pdfrwt beam="1">  1       21 0.59419515E-01 0.20010243E+03</pdfrwt>
<pdfrwt beam="2">  1       21 0.30963503E-01 0.20010243E+03</pdfrwt>
<totfact> 0.26394553E+04</totfact>
</mgrwt>
</event>
<event>
 5    0  0.2257501E-001  0.4041700E+03  0.7546771E-02  0.1042345E+00
         21   -1    0    0  503  502  0.00000000000E+00  0.00000000000E+00  0.67304776740E+03  0.67304776740E+03  0.00000000000E+00 0.  1.
         21   -1    0    0  501  503 -0.00000000000E+00 -0.00000000000E+00 -0.25049528187E+03  0.25049528187E+03  0.00000000000E+00 0.  1.
         25    1    1    2    0    0 -0.18749806594E+03  0.33551878865E+03  0.99612237132E+02  0.41626431513E+03  0.12500000000E+03 0.  0.
          3    1    1    2  501    0  0.11709318706E+03 -0.25882737316E+03  0.26309004216E+03  0.38719348372E+03  0.00000000000E+00 0.  1.
         -3    1    1    2    0  502  0.70404878880E+02 -0.76691415487E+02  0.59850206237E+02  0.12008525041E+03  0.00000000000E+00 0. -1.
<mgrwt>
<rscale>  4 0.40416999E+03</rscale>
<asrwt>0</asrwt>
<pdfrwt beam="1">  1       21 0.10354581E+00 0.40416999E+03</pdfrwt>
<pdfrwt beam="2">  1       21 0.38537736E-01 0.40416999E+03</pdfrwt>
<totfact> 0.43646252E+03</totfact>
</mgrwt>
</event>
<event>
 5    0  0.2257501E-001  0.2526736E+03  0.7546771E-02  0.1111627E+00
         21   -1    0    0  501  502  0.00000000000E+00  0.00000000000E+00  0.19232878941E+03  0.19232878941E+03  0.00000000000E+00 0. -1.
         21   -1    0    0  502  503 -0.00000000000E+00 -0.00000000000E+00 -0.40362753938E+03  0.40362753938E+03  0.00000000000E+00 0. -1.
         25    1    1    2    0    0  0.59654235868E+02  0.21132988610E+03  0.44228069827E+02  0.25651524473E+03  0.12500000000E+03 0.  0.
          4    1    1    2  501    0 -0.35779184368E+02 -0.18162901002E+03 -0.20613610150E+03  0.27705836868E+03  0.00000000000E+00 0. -1.
         -4    1    1    2    0  503 -0.23875051500E+02 -0.29700876084E+02 -0.49390718300E+02  0.62382715382E+02  0.00000000000E+00 0.  1.
<mgrwt>
<rscale>  4 0.25267360E+03</rscale>
<asrwt>0</asrwt>
<pdfrwt beam="1">  1       21 0.29589045E-01 0.25267360E+03</pdfrwt>
<pdfrwt beam="2">  1       21 0.62096544E-01 0.25267360E+03</pdfrwt>
<totfact> 0.25536888E+04</totfact>
</mgrwt>
</event>
<event>
 5    0  0.2257501E-001  0.4572046E+03  0.7546771E-02  0.1025595E+00
         21   -1    0    0  501  502  0.00000000000E+00  0.00000000000E+00  0.41434361228E+03  0.41434361228E+03  0.00000000000E+00 0.  1.
         21   -1    0    0  502  503 -0.00000000000E+00 -0.00000000000E+00 -0.49796819707E+03  0.49796819707E+03  0.00000000000E+00 0.  1.
         25    1    1    2    0    0 -0.23912820229E+03 -0.36909174456E+03  0.31091482754E+01  0.45721513518E+03  0.12500000000E+03 0.  0.
          3    1    1    2  501    0  0.14491610467E+02  0.31524757377E+02 -0.29611147472E+02  0.45614001756E+02  0.00000000000E+00 0. -1.
         -3    1    1    2    0  503  0.22463659183E+03  0.33756698718E+03 -0.57122585597E+02  0.40948267241E+03  0.00000000000E+00 0.  1.
<mgrwt>
<rscale>  4 0.45720456E+03</rscale>
<asrwt>0</asrwt>
<pdfrwt beam="1">  1       21 0.63745171E-01 0.45720456E+03</pdfrwt>
<pdfrwt beam="2">  1       21 0.76610492E-01 0.45720456E+03</pdfrwt>
<totfact> 0.29945125E+03</totfact>
</mgrwt>
</event>
<event>
 5    0  0.2257501E-001  0.2629602E+03  0.7546771E-02  0.1105378E+00
         21   -1    0    0  501  502  0.00000000000E+00  0.00000000000E+00  0.25608026663E+03  0.25608026663E+03  0.00000000000E+00 0.  1.
         21   -1    0    0  502  503 -0.00000000000E+00 -0.00000000000E+00 -0.39442715232E+03  0.39442715232E+03  0.00000000000E+00 0. -1.
         25    1    1    2    0    0 -0.15134519196E+03  0.17497916545E+03 -0.26652144558E+03  0.37440854214E+03  0.12500000000E+03 0.  0.
          4    1    1    2  501    0  0.12116852677E+03 -0.82057547829E+02  0.68110337441E+02  0.16141335478E+03  0.00000000000E+00 0.  1.
         -4    1    1    2    0  503  0.30176665191E+02 -0.92921617625E+02  0.60064222452E+02  0.11468552203E+03  0.00000000000E+00 0. -1.
<mgrwt>
<rscale>  4 0.26296022E+03</rscale>
<asrwt>0</asrwt>
<pdfrwt beam="1">  1       21 0.39396964E-01 0.26296022E+03</pdfrwt>
<pdfrwt beam="2">  1       21 0.60681100E-01 0.26296022E+03</pdfrwt>
<totfact> 0.15100524E+04</totfact>
</mgrwt>
</event>
<event>
 5    0  0.2257501E-001  0.2518785E+03  0.7546771E-02  0.1112123E+00
         21   -1    0    0  501  502  0.00000000000E+00  0.00000000000E+00  0.57238485941E+03  0.57238485941E+03  0.00000000000E+00 0.  1.
         21   -1    0    0  502  503 -0.00000000000E+00 -0.00000000000E+00 -0.12343309198E+03  0.12343309198E+03  0.00000000000E+00 0.  1.
         25    1    1    2    0    0  0.13151992884E+03  0.17944943455E+03  0.35863459941E+03  0.44016288705E+03  0.12500000000E+03 0.  0.
          3    1    1    2  501    0 -0.10617930184E+03 -0.18397236532E+03  0.72902778212E+02  0.22457669161E+03  0.00000000000E+00 0.  1.
         -3    1    1    2    0  503 -0.25340627004E+02  0.45229307769E+01  0.17414389800E+02  0.31078372735E+02  0.00000000000E+00 0. -1.
<mgrwt>
<rscale>  4 0.25187847E+03</rscale>
<asrwt>0</asrwt>
<pdfrwt beam="1">  1       21 0.88059208E-01 0.25187847E+03</pdfrwt>
<pdfrwt beam="2">  1       21 0.18989707E-01 0.25187847E+03</pdfrwt>
<totfact> 0.27234702E+04</totfact>
</mgrwt>
</event>
<event>
 5    0  0.2257501E-001  0.3818684E+03  0.7546771E-02  0.1050245E+00
         21   -1    0    0  501  502  0.00000000000E+00  0.00000000000E+00  0.30752102649E+03  0.30752102649E+03  0.00000000000E+00 0. -1.
         21   -1    0    0  502  503 -0.00000000000E+00 -0.00000000000E+00 -0.93902477951E+03  0.93902477951E+03  0.00000000000E+00 0. -1.
         25    1    1    2    0    0  0.23675296271E+03 -0.27229862505E+03 -0.75942897307E+03  0.85003286507E+03  0.12500000000E+03 0.  0.
          4    1    1    2  501    0 -0.28058693308E+02  0.61322006662E+02  0.63953818988E+02  0.92939602616E+02  0.00000000000E+00 0.  1.
         -4    1    1    2    0  503 -0.20869426940E+03  0.21097661839E+03  0.63971401068E+02  0.30357333832E+03  0.00000000000E+00 0. -1.
<mgrwt>
<rscale>  4 0.38186844E+03</rscale>
<asrwt>0</asrwt>
<pdfrwt beam="1">  1       21 0.47310928E-01 0.38186844E+03</pdfrwt>
<pdfrwt beam="2">  1       21 0.14446535E+00 0.38186844E+03</pdfrwt>
<totfact> 0.12339426E+03</totfact>
</mgrwt>
</event>
<event>
 5    0  0.2257501E-001  0.3017580E+03  0.7546771E-02  0.1084365E+00
         21   -1    0    0  503  502  0.00000000000E+00  0.00000000000E+00  0.25395791727E+03  0.25395791727E+03  0.00000000000E+00 0.  1.
         21   -1    0    0  501  503 -0.00000000000E+00 -0.00000000000E+00 -0.34230390629E+03  0.34230390629E+03  0.00000000000E+00 0.  1.
         25    1    1    2    0    0  0.24279623385E+03  0.12838558597E+03  0.21573331240E+01  0.30176567721E+03  0.12500000000E+03 0.  0.
          1    1    1    2  501    0 -0.96634147697E+02 -0.36804431584E+02 -0.59333759532E+02  0.11921920863E+03  0.00000000000E+00 0. -1.
         -1    1    1    2    0  502 -0.14616208615E+03 -0.91581154383E+02 -0.31169562607E+02  0.17527693773E+03  0.00000000000E+00 0.  1.
<mgrwt>
<rscale>  4 0.30175797E+03</rscale>
<asrwt>0</asrwt>
<pdfrwt beam="1">  1       21 0.39070449E-01 0.30175797E+03</pdfrwt>
<pdfrwt beam="2">  1       21 0.52662139E-01 0.30175797E+03</pdfrwt>
<totfact> 0.20469046E+04</totfact>
</mgrwt>
</event>
<event>
 5    0  0.2257501E-001  0.3420375E+03  0.7546771E-02  0.1065931E+00
         21   -1    0    0  501  502  0.00000000000E+00  0.00000000000E+00  0.50035535297E+03  0.50035535297E+03  0.00000000000E+00 0. -1.
         21   -1    0    0  502  503 -0.00000000000E+00 -0.00000000000E+00 -0.58281421802E+03  0.58281421802E+03  0.00000000000E+00 0.  1.
         25    1    1    2    0    0  0.30250382109E+03 -0.99278008793E+02 -0.46457587126E+03  0.57690590651E+03  0.12500000000E+03 0.  0.
          2    1    1    2  501    0 -0.65188211492E+02  0.61063845090E+02  0.13186606735E+03  0.15927007194E+03  0.00000000000E+00 0.  1.
         -2    1    1    2    0  503 -0.23731560960E+03  0.38214163703E+02  0.25025093886E+03  0.34699359254E+03  0.00000000000E+00 0. -1.
<mgrwt>
<rscale>  4 0.34203755E+03</rscale>
<asrwt>0</asrwt>
<pdfrwt beam="1">  1       21 0.76977747E-01 0.34203755E+03</pdfrwt>
<pdfrwt beam="2">  1       21 0.89663726E-01 0.34203755E+03</pdfrwt>
<totfact> 0.14295941E+03</totfact>
</mgrwt>
</event>
<event>
 5    0  0.2257501E-001  0.2833563E+03  0.7546771E-02  0.1093870E+00
         21   -1    0    0  501  502  0.00000000000E+00  0.00000000000E+00  0.22706364172E+03  0.22706364172E+03  0.00000000000E+00 0. -1.
         21   -1    0    0  502  503 -0.00000000000E+00 -0.00000000000E+00 -0.33327876223E+03  0.33327876223E+03  0.00000000000E+00 0. -1.
         25    1    1    2    0    0 -0.25366008319E+03  0.17953880612E+02 -0.17752195475E+02  0.28391181744E+03  0.12500000000E+03 0.  0.
          3    1    1    2  501    0  0.19486266922E+03 -0.40036965748E+02 -0.71238990395E+02  0.21130407529E+03  0.00000000000E+00 0. -1.
         -3    1    1    2    0  503  0.58797413972E+02  0.22083085136E+02 -0.17223934637E+02  0.65126511217E+02  0.00000000000E+00 0.  1.
<mgrwt>
<rscale>  4 0.28335628E+03</rscale>
<asrwt>0</asrwt>
<pdfrwt beam="1">  1       21 0.34932868E-01 0.28335628E+03</pdfrwt>
<pdfrwt beam="2">  1       21 0.51273656E-01 0.28335628E+03</pdfrwt>
<totfact> 0.27349329E+04</totfact>
</mgrwt>
</event>
<event>
 5    0  0.2257501E-001  0.3008322E+03  0.7546771E-02  0.1084825E+00
         21   -1    0    0  503  502  0.00000000000E+00  0.00000000000E+00  0.14755431415E+03  0.14755431415E+03  0.00000000000E+00 0. -1.
         21   -1    0    0  501  503 -0.00000000000E+00 -0.00000000000E+00 -0.62599511497E+03  0.62599511497E+03  0.00000000000E+00 0. -1.
         25    1    1    2    0    0  0.24337523023E+03 -0.14466463224E+03 -0.24462618429E+03  0.39449502982E+03  0.12500000000E+03 0.  0.
          1    1    1    2  501    0 -0.24101506616E+03  0.11317969115E+03 -0.20187089289E+03  0.33414033280E+03  0.00000000000E+00 0. -1.
         -1    1    1    2    0  502 -0.23601640690E+01  0.31484941091E+02 -0.31943723641E+02  0.44914066505E+02  0.00000000000E+00 0.  1.
<mgrwt>
<rscale>  4 0.30083221E+03</rscale>
<asrwt>0</asrwt>
<pdfrwt beam="1">  1       21 0.22700664E-01 0.30083221E+03</pdfrwt>
<pdfrwt beam="2">  1       21 0.96306940E-01 0.30083221E+03</pdfrwt>
<totfact> 0.15410064E+04</totfact>
</mgrwt>
</event>
<event>
 5    0  0.2257501E-001  0.2685350E+03  0.7546771E-02  0.1102121E+00
         21   -1    0    0  503  502  0.00000000000E+00  0.00000000000E+00  0.86630182521E+03  0.86630182521E+03  0.00000000000E+00 0.  1.
         21   -1    0    0  501  503 -0.00000000000E+00 -0.00000000000E+00 -0.11785375057E+03  0.11785375057E+03  0.00000000000E+00 0.  1.
         25    1    1    2    0    0 -0.14075182152E+03 -0.19150708929E+03  0.67779106226E+03  0.72904853377E+03  0.12500000000E+03 0.  0.
          4    1    1    2  501    0  0.79278273150E+02  0.62443352615E+02  0.16606444855E+02  0.10227409687E+03  0.00000000000E+00 0. -1.
         -4    1    1    2    0  502  0.61473548373E+02  0.12906373667E+03  0.54050567531E+02  0.15283294515E+03  0.00000000000E+00 0.  1.
<mgrwt>
<rscale>  4 0.26853499E+03</rscale>
<asrwt>0</asrwt>
<pdfrwt beam="1">  1       21 0.13327720E+00 0.26853499E+03</pdfrwt>
<pdfrwt beam="2">  1       21 0.18131347E-01 0.26853499E+03</pdfrwt>
<totfact> 0.10716100E+04</totfact>
</mgrwt>
</event>
<event>
 5    0  0.2257501E-001  0.2507074E+03  0.7546771E-02  0.1112859E+00
         21   -1    0    0  503  502  0.00000000000E+00  0.00000000000E+00  0.49734682594E+03  0.49734682594E+03  0.00000000000E+00 0.  1.
         21   -1    0    0  501  503 -0.00000000000E+00 -0.00000000000E+00 -0.11283023767E+03  0.11283023767E+03  0.00000000000E+00 0.  1.
         25    1    1    2    0    0  0.16313815131E+03 -0.14357979669E+03  0.17263113661E+03  0.30439402714E+03  0.12500000000E+03 0.  0.
          2    1    1    2  501    0 -0.26629597130E+02  0.34275902174E+02  0.60651040950E+02  0.74582314803E+02  0.00000000000E+00 0.  1.
         -2    1    1    2    0  502 -0.13650855418E+03  0.10930389452E+03  0.15123441070E+03  0.23120072167E+03  0.00000000000E+00 0. -1.
<mgrwt>
<rscale>  4 0.25070743E+03</rscale>
<asrwt>0</asrwt>
<pdfrwt beam="1">  1       21 0.76514895E-01 0.25070743E+03</pdfrwt>
<pdfrwt beam="2">  1       21 0.17358498E-01 0.25070743E+03</pdfrwt>
<totfact> 0.44426257E+04</totfact>
</mgrwt>
</event>
<event>
 5    0  0.2257501E-001  0.4418884E+03  0.7546771E-02  0.1030169E+00
         21   -1    0    0  501  502  0.00000000000E+00  0.00000000000E+00  0.61906244394E+03  0.61906244394E+03  0.00000000000E+00 0.  1.
         21   -1    0    0  502  503 -0.00000000000E+00 -0.00000000000E+00 -0.54791261887E+03  0.54791261887E+03  0.00000000000E+00 0. -1.
         25    1    1    2    0    0  0.42890869757E+03  0.52795374765E+02 -0.31779101734E+03  0.55078684911E+03  0.12500000000E+03 0.  0.
          4    1    1    2  501    0 -0.29395204618E+02 -0.55145480908E+02  0.11779950241E+03  0.13334850913E+03  0.00000000000E+00 0. -1.
         -4    1    1    2    0  503 -0.39951349295E+03  0.23501061434E+01  0.27114134000E+03  0.48283970457E+03  0.00000000000E+00 0.  1.
<mgrwt>
<rscale>  4 0.44188841E+03</rscale>
<asrwt>0</asrwt>
<pdfrwt beam="1">  1       21 0.95240376E-01 0.44188841E+03</pdfrwt>
<pdfrwt beam="2">  1       21 0.84294249E-01 0.44188841E+03</pdfrwt>
<totfact> 0.95864024E+02</totfact>
</mgrwt>
</event>
<event>
 5    0  0.2257501E-001  0.2441916E+03  0.7546771E-02  0.1117032E+00
         21   -1    0    0  501  502  0.00000000000E+00  0.00000000000E+00  0.56267363220E+03  0.56267363220E+03  0.00000000000E+00 0.  1.
         21   -1    0    0  502  503 -0.00000000000E+00 -0.00000000000E+00 -0.15705581068E+03  0.15705581068E+03  0.00000000000E+00 0. -1.
         25    1    1    2    0    0 -0.40723821292E+01  0.20973310636E+03 -0.73578067779E+01  0.24430247138E+03  0.12500000000E+03 0.  0.
          3    1    1    2  501    0 -0.40846823576E+02 -0.11850366301E+03  0.28948277274E+03  0.31545499974E+03  0.00000000000E+00 0. -1.
         -3    1    1    2    0  503  0.44919205705E+02 -0.91229443352E+02  0.12349285555E+03  0.15997197176E+03  0.00000000000E+00 0.  1.
<mgrwt>
<rscale>  4 0.24419165E+03</rscale>
<asrwt>0</asrwt>
<pdfrwt beam="1">  1       21 0.86565173E-01 0.24419165E+03</pdfrwt>
<pdfrwt beam="2">  1       21 0.24162433E-01 0.24419165E+03</pdfrwt>
<totfact> 0.18032638E+04</totfact>
</mgrwt>
</event>
<event>
 5    0  0.2257501E-001  0.2956512E+03  0.7546771E-02  0.1087435E+00
         21   -1    0    0  501  502  0.00000000000E+00  0.00000000000E+00  0.61508656592E+03  0.61508656592E+03  0.00000000000E+00 0. -1.
         21   -1    0    0  502  503 -0.00000000000E+00 -0.00000000000E+00 -0.19740511916E+03  0.19740511916E+03  0.00000000000E+00 0. -1.
         25    1    1    2    0    0  0.14702613932E+03 -0.22398199732E+03  0.44716636960E+03  0.53606658436E+03  0.12500000000E+03 0.  0.
          1    1    1    2  501    0 -0.36154691889E+02  0.59052130069E+02  0.19126818362E+02  0.71834190968E+02  0.00000000000E+00 0.  1.
         -1    1    1    2    0  503 -0.11087144744E+03  0.16492986725E+03 -0.48611741208E+02  0.20459090975E+03  0.00000000000E+00 0. -1.
<mgrwt>
<rscale>  4 0.29565118E+03</rscale>
<asrwt>0</asrwt>
<pdfrwt beam="1">  1       21 0.94628701E-01 0.29565118E+03</pdfrwt>
<pdfrwt beam="2">  1       21 0.30370019E-01 0.29565118E+03</pdfrwt>
<totfact> 0.91566057E+03</totfact>
</mgrwt>
</event>
<event>
 5    0  0.2257501E-001  0.2571797E+03  0.7546771E-02  0.1108850E+00
         21   -1    0    0  503  502  0.00000000000E+00  0.00000000000E+00  0.78395682513E+03  0.78395682513E+03  0.00000000000E+00 0.  1.
         21   -1    0    0  501  503 -0.00000000000E+00 -0.00000000000E+00 -0.17218989179E+04  0.17218989179E+04  0.00000000000E+00 0.  1.
         25    1    1    2    0    0 -0.10213076697E+03  0.20021410196E+03 -0.16931915344E+04  0.17126117343E+04  0.12500000000E+03 0.  0.
          1    1    1    2  501    0  0.99525502151E+02 -0.10314088376E+03  0.39758810327E+03  0.42263420039E+03  0.00000000000E+00 0.  1.
         -1    1    1    2    0  502  0.26052648200E+01 -0.97073218203E+02  0.35766133837E+03  0.37060980837E+03  0.00000000000E+00 0. -1.
<mgrwt>
<rscale>  4 0.25717967E+03</rscale>
<asrwt>0</asrwt>
<pdfrwt beam="1">  1       21 0.12060874E+00 0.25717967E+03</pdfrwt>
<pdfrwt beam="2">  1       21 0.26490753E+00 0.25717967E+03</pdfrwt>
<totfact> 0.25718042E+01</totfact>
</mgrwt>
</event>
<event>
 5    0  0.2257501E-001  0.2742880E+03  0.7546771E-02  0.1098850E+00
         21   -1    0    0  501  502  0.00000000000E+00  0.00000000000E+00  0.14449678666E+04  0.14449678666E+04  0.00000000000E+00 0. -1.
         21   -1    0    0  502  503 -0.00000000000E+00 -0.00000000000E+00 -0.37459670736E+03  0.37459670736E+03  0.00000000000E+00 0.  1.
         25    1    1    2    0    0  0.16301792572E+03  0.18175276498E+03 -0.31054077905E+03  0.41433016683E+03  0.12500000000E+03 0.  0.
          2    1    1    2  501    0 -0.12785699190E+03 -0.12891977973E+03  0.11967195710E+04  0.12104154045E+04  0.00000000000E+00 0. -1.
         -2    1    1    2    0  503 -0.35160933819E+02 -0.52832985257E+02  0.18419236731E+03  0.19481900260E+03  0.00000000000E+00 0.  1.
<mgrwt>
<rscale>  4 0.27428801E+03</rscale>
<asrwt>0</asrwt>
<pdfrwt beam="1">  1       21 0.22230275E+00 0.27428801E+03</pdfrwt>
<pdfrwt beam="2">  1       21 0.57630263E-01 0.27428801E+03</pdfrwt>
<totfact> 0.25081362E+02</totfact>
</mgrwt>
</event>
<event>
 5    0  0.2257501E-001  0.2689105E+03  0.7546771E-02  0.1101905E+00
         21   -1    0    0  501  502  0.00000000000E+00  0.00000000000E+00  0.22601954051E+03  0.22601954051E+03  0.00000000000E+00 0.  1.
         21   -1    0    0  502  503 -0.00000000000E+00 -0.00000000000E+00 -0.30934069653E+03  0.30934069653E+03  0.00000000000E+00 0.  1.
         25    1    1    2    0    0 -0.52991328846E+02  0.23212023316E+03 -0.21780053338E+02  0.26979113087E+03  0.12500000000E+03 0.  0.
          4    1    1    2  501    0  0.42724860320E+02 -0.12674790099E+03  0.15476557850E+02  0.13464756937E+03  0.00000000000E+00 0.  1.
         -4    1    1    2    0  503  0.10266468526E+02 -0.10537233217E+03 -0.77017660529E+02  0.13092153679E+03  0.00000000000E+00 0. -1.
<mgrwt>
<rscale>  4 0.26891055E+03</rscale>
<asrwt>0</asrwt>
<pdfrwt beam="1">  1       21 0.34772237E-01 0.26891055E+03</pdfrwt>
<pdfrwt beam="2">  1       21 0.47590876E-01 0.26891055E+03</pdfrwt>
<totfact> 0.32467028E+04</totfact>
</mgrwt>
</event>
<event>
 5    0  0.2257501E-001  0.2869463E+03  0.7546771E-02  0.1091954E+00
         21   -1    0    0  501  502  0.00000000000E+00  0.00000000000E+00  0.26373485521E+03  0.26373485521E+03  0.00000000000E+00 0. -1.
         21   -1    0    0  502  503 -0.00000000000E+00 -0.00000000000E+00 -0.41047733156E+03  0.41047733156E+03  0.00000000000E+00 0. -1.
         25    1    1    2    0    0  0.28886256095E+02  0.25666864149E+03  0.10550882376E+03  0.30572915989E+03  0.12500000000E+03 0.  0.
          3    1    1    2  501    0 -0.58876386115E+01 -0.18280661251E+03 -0.13224219919E+03  0.22570095505E+03  0.00000000000E+00 0. -1.
         -3    1    1    2    0  503 -0.22998617484E+02 -0.73862028979E+02 -0.12000910092E+03  0.14278207182E+03  0.00000000000E+00 0.  1.
<mgrwt>
<rscale>  4 0.28694635E+03</rscale>
<asrwt>0</asrwt>
<pdfrwt beam="1">  1       21 0.40574593E-01 0.28694635E+03</pdfrwt>
<pdfrwt beam="2">  1       21 0.63150359E-01 0.28694635E+03</pdfrwt>
<totfact> 0.12891856E+04</totfact>
</mgrwt>
</event>
<event>
 5    0  0.2257501E-001  0.2473918E+03  0.7546771E-02  0.1114964E+00
         21   -1    0    0  501  502  0.00000000000E+00  0.00000000000E+00  0.72087007950E+02  0.72087007950E+02  0.00000000000E+00 0. -1.
         21   -1    0    0  502  503 -0.00000000000E+00 -0.00000000000E+00 -0.78206488782E+03  0.78206488782E+03  0.00000000000E+00 0. -1.
         25    1    1    2    0    0  0.19343317107E+03  0.90339868915E+02 -0.29116512662E+03  0.38207304871E+03  0.12500000000E+03 0.  0.
          2    1    1    2  501    0 -0.82401057681E+02 -0.15255251401E+02 -0.16213579727E+03  0.18251211948E+03  0.00000000000E+00 0. -1.
         -2    1    1    2    0  503 -0.11103211339E+03 -0.75084617514E+02 -0.25667695598E+03  0.28956672758E+03  0.00000000000E+00 0.  1.
<mgrwt>
<rscale>  4 0.24739176E+03</rscale>
<asrwt>0</asrwt>
<pdfrwt beam="1">  1       21 0.11090308E-01 0.24739176E+03</pdfrwt>
<pdfrwt beam="2">  1       21 0.12031768E+00 0.24739176E+03</pdfrwt>
<totfact> 0.34431197E+04</totfact>
</mgrwt>
</event>
<event>
 5    0  0.2257501E-001  0.2618180E+03  0.7546771E-02  0.1106056E+00
         21   -1    0    0  503  502  0.00000000000E+00  0.00000000000E+00  0.58415096145E+03  0.58415096145E+03  0.00000000000E+00 0. -1.
         21   -1    0    0  501  503 -0.00000000000E+00 -0.00000000000E+00 -0.10866872906E+03  0.10866872906E+03  0.00000000000E+00 0. -1.
         25    1    1    2    0    0  0.30769788471E+02  0.22798434911E+03  0.22273753484E+03  0.34374504032E+03  0.12500000000E+03 0.  0.
          3    1    1    2  501    0 -0.45492203608E+02 -0.15041130258E+03  0.19899272420E+03  0.25355710367E+03  0.00000000000E+00 0. -1.
         -3    1    1    2    0  502  0.14722415137E+02 -0.77573046526E+02  0.53751973348E+02  0.95517546522E+02  0.00000000000E+00 0.  1.
<mgrwt>
<rscale>  4 0.26181796E+03</rscale>
<asrwt>0</asrwt>
<pdfrwt beam="1">  1       21 0.89869377E-01 0.26181796E+03</pdfrwt>
<pdfrwt beam="2">  1       21 0.16718266E-01 0.26181796E+03</pdfrwt>
<totfact> 0.32774863E+04</totfact>
</mgrwt>
</event>
<event>
 5    0  0.2257501E-001  0.3484964E+03  0.7546771E-02  0.1063234E+00
         21   -1    0    0  501  502  0.00000000000E+00  0.00000000000E+00  0.11467663278E+04  0.11467663278E+04  0.00000000000E+00 0. -1.
         21   -1    0    0  502  503 -0.00000000000E+00 -0.00000000000E+00 -0.15970121786E+03  0.15970121786E+03  0.00000000000E+00 0. -1.
         25    1    1    2    0    0 -0.31834775459E+03 -0.66928628238E+02  0.10748553100E+03  0.36469559019E+03  0.12500000000E+03 0.  0.
          1    1    1    2  501    0  0.14213351050E+03  0.74397549688E+01  0.48688228086E+03  0.50725894785E+03  0.00000000000E+00 0. -1.
         -1    1    1    2    0  503  0.17621424409E+03  0.59488873269E+02  0.39269729811E+03  0.43451300764E+03  0.00000000000E+00 0.  1.
<mgrwt>
<rscale>  4 0.34849639E+03</rscale>
<asrwt>0</asrwt>
<pdfrwt beam="1">  1       21 0.17642558E+00 0.34849639E+03</pdfrwt>
<pdfrwt beam="2">  1       21 0.24569419E-01 0.34849639E+03</pdfrwt>
<totfact> 0.26994758E+03</totfact>
</mgrwt>
</event>
<event>
 5    0  0.2257501E-001  0.3045589E+03  0.7546771E-02  0.1082984E+00
         21   -1    0    0  503  502  0.00000000000E+00  0.00000000000E+00  0.20896553459E+03  0.20896553459E+03  0.00000000000E+00 0.  1.
         21   -1    0    0  501  503 -0.00000000000E+00 -0.00000000000E+00 -0.66295587813E+03  0.66295587813E+03  0.00000000000E+00 0. -1.
         25    1    1    2    0    0 -0.28509777859E+03 -0.56782381001E+01 -0.37059492958E+03  0.48402333371E+03  0.12500000000E+03 0.  0.
          3    1    1    2  501    0  0.26530139901E+02  0.98517616940E+02 -0.40814871357E+02  0.10988822910E+03  0.00000000000E+00 0. -1.
         -3    1    1    2    0  502  0.25856763869E+03 -0.92839378840E+02 -0.42580542608E+02  0.27800984992E+03  0.00000000000E+00 0.  1.
<mgrwt>
<rscale>  4 0.30455892E+03</rscale>
<asrwt>0</asrwt>
<pdfrwt beam="1">  1       21 0.32148544E-01 0.30455892E+03</pdfrwt>
<pdfrwt beam="2">  1       21 0.10199321E+00 0.30455892E+03</pdfrwt>
<totfact> 0.68097053E+03</totfact>
</mgrwt>
</event>
<event>
 5    0  0.2257501E-001  0.2970993E+03  0.7546771E-02  0.1086700E+00
         21   -1    0    0  503  502  0.00000000000E+00  0.00000000000E+00  0.15168785912E+03  0.15168785912E+03  0.00000000000E+00 0. -1.
         21   -1    0    0  501  503 -0.00000000000E+00 -0.00000000000E+00 -0.59645677380E+03  0.59645677380E+03  0.00000000000E+00 0. -1.
         25    1    1    2    0    0  0.16636347636E+03  0.21205236237E+03 -0.32836275488E+03  0.44282062898E+03  0.12500000000E+03 0.  0.
          3    1    1    2  501    0 -0.47013769236E+02 -0.20369332631E+02 -0.45846430609E+02  0.68753904683E+02  0.00000000000E+00 0.  1.
         -3    1    1    2    0  502 -0.11934970712E+03 -0.19168302974E+03 -0.70559729185E+02  0.23657009926E+03  0.00000000000E+00 0. -1.
<mgrwt>
<rscale>  4 0.29709933E+03</rscale>
<asrwt>0</asrwt>
<pdfrwt beam="1">  1       21 0.23336594E-01 0.29709933E+03</pdfrwt>
<pdfrwt beam="2">  1       21 0.91762580E-01 0.29709933E+03</pdfrwt>
<totfact> 0.16413367E+04</totfact>
</mgrwt>
</event>
<event>
 5    0  0.2257501E-001  0.3196150E+03  0.7546771E-02  0.1075827E+00
         21   -1    0    0  501  502  0.00000000000E+00  0.00000000000E+00  0.34664006485E+03  0.34664006485E+03  0.00000000000E+00 0.  1.
         21   -1    0    0  502  503 -0.00000000000E+00 -0.00000000000E+00 -0.10268429186E+04  0.10268429186E+04  0.00000000000E+00 0. -1.
         25    1    1    2    0    0 -0.10106582649E+03  0.27625065022E+03 -0.92893789236E+03  0.98238451275E+03  0.12500000000E+03 0.  0.
          4    1    1    2  501    0  0.10338889927E+03 -0.20031104182E+03  0.17695703246E+03  0.28657908037E+03  0.00000000000E+00 0.  1.
         -4    1    1    2    0  503 -0.23230727828E+01 -0.75939608400E+02  0.71778006145E+02  0.10451939034E+03  0.00000000000E+00 0. -1.
<mgrwt>
<rscale>  4 0.31961496E+03</rscale>
<asrwt>0</asrwt>
<pdfrwt beam="1">  1       21 0.53329242E-01 0.31961496E+03</pdfrwt>
<pdfrwt beam="2">  1       21 0.15797583E+00 0.31961496E+03</pdfrwt>
<totfact> 0.77934256E+02</totfact>
</mgrwt>
</event>
<event>
 5    0  0.2257501E-001  0.3359639E+03  0.7546771E-02  0.1068528E+00
         21   -1    0    0  503  502  0.00000000000E+00  0.00000000000E+00  0.57346220647E+03  0.57346220647E+03  0.00000000000E+00 0. -1.
         21   -1    0    0  501  503 -0.00000000000E+00 -0.00000000000E+00 -0.49945856706E+03  0.49945856706E+03  0.00000000000E+00 0. -1.
         25    1    1    2    0    0  0.73631397920E+02 -0.30302671679E+03 -0.38372420765E+03  0.51001572660E+03  0.12500000000E+03 0.  0.
          3    1    1    2  501    0 -0.64022828597E+02  0.72031722784E+02  0.14010777739E+03  0.17005199485E+03  0.00000000000E+00 0.  1.
         -3    1    1    2    0  502 -0.96085693234E+01  0.23099499401E+03  0.31762006967E+03  0.39285305207E+03  0.00000000000E+00 0. -1.
<mgrwt>
<rscale>  4 0.33596395E+03</rscale>
<asrwt>0</asrwt>
<pdfrwt beam="1">  1       21 0.88224955E-01 0.33596395E+03</pdfrwt>
<pdfrwt beam="2">  1       21 0.76839779E-01 0.33596395E+03</pdfrwt>
<totfact> 0.14957992E+03</totfact>
</mgrwt>
</event>
<event>
 5    0  0.2257501E-001  0.2895569E+03  0.7546771E-02  0.1090581E+00
         21   -1    0    0  503  502  0.00000000000E+00  0.00000000000E+00  0.10185041920E+03  0.10185041920E+03  0.00000000000E+00 0.  1.
         21   -1    0    0  501  503 -0.00000000000E+00 -0.00000000000E+00 -0.76738960751E+03  0.76738960751E+03  0.00000000000E+00 0.  1.
         25    1    1    2    0    0 -0.25665341857E+03  0.48448020679E+02 -0.35970065030E+03  0.46176589934E+03  0.12500000000E+03 0.  0.
          4    1    1    2  501    0  0.94862454201E+02 -0.36232458981E+02 -0.79383494753E+02  0.12889303915E+03  0.00000000000E+00 0.  1.
         -4    1    1    2    0  502  0.16179096437E+03 -0.12215561698E+02 -0.22645504325E+03  0.27858108822E+03  0.00000000000E+00 0. -1.
<mgrwt>
<rscale>  4 0.28955688E+03</rscale>
<asrwt>0</asrwt>
<pdfrwt beam="1">  1       21 0.15669295E-01 0.28955688E+03</pdfrwt>
<pdfrwt beam="2">  1       21 0.11805994E+00 0.28955688E+03</pdfrwt>
<totfact> 0.18904962E+04</totfact>
</mgrwt>
</event>
<event>
 5    0  0.2257501E-001  0.2520913E+03  0.7546771E-02  0.1111990E+00
         21   -1    0    0  501  502  0.00000000000E+00  0.00000000000E+00  0.28747936646E+04  0.28747936646E+04  0.00000000000E+00 0. -1.
         21   -1    0    0  502  503 -0.00000000000E+00 -0.00000000000E+00 -0.21693093423E+02  0.21693093423E+02  0.00000000000E+00 0. -1.
         25    1    1    2    0    0 -0.15466426321E+03  0.15493222571E+03  0.19610713513E+04  0.19772078479E+04  0.12500000000E+03 0.  0.
          2    1    1    2  501    0  0.25563864138E+02 -0.14301646218E+02  0.16635990279E+03  0.16891910931E+03  0.00000000000E+00 0.  1.
         -2    1    1    2    0  503  0.12910039907E+03 -0.14063057949E+03  0.72566931715E+03  0.75035980088E+03  0.00000000000E+00 0. -1.
<mgrwt>
<rscale>  4 0.25209131E+03</rscale>
<asrwt>0</asrwt>
<pdfrwt beam="1">  1       21 0.44227565E+00 0.25209131E+03</pdfrwt>
<pdfrwt beam="2">  1       21 0.33374013E-02 0.25209131E+03</pdfrwt>
<totfact> 0.22964323E+03</totfact>
</mgrwt>
</event>
<event>
 5    0  0.2257501E-001  0.2346615E+03  0.7546771E-02  0.1123401E+00
         21   -1    0    0  503  502  0.00000000000E+00  0.00000000000E+00  0.71048629580E+02  0.71048629580E+02  0.00000000000E+00 0. -1.
         21   -1    0    0  501  503 -0.00000000000E+00 -0.00000000000E+00 -0.14654077435E+04  0.14654077435E+04  0.00000000000E+00 0. -1.
         25    1    1    2    0    0  0.16262577954E+03 -0.12311102709E+03 -0.12576855760E+04  0.12802349304E+04  0.12500000000E+03 0.  0.
          2    1    1    2  501    0 -0.15016961232E+03  0.96196686050E+02 -0.13951740128E+03  0.22642839957E+03  0.00000000000E+00 0. -1.
         -2    1    1    2    0  502 -0.12456167219E+02  0.26914341041E+02  0.28438633327E+01  0.29793043049E+02  0.00000000000E+00 0.  1.
<mgrwt>
<rscale>  4 0.23466149E+03</rscale>
<asrwt>0</asrwt>
<pdfrwt beam="1">  1       21 0.10930560E-01 0.23466149E+03</pdfrwt>
<pdfrwt beam="2">  1       21 0.22544731E+00 0.23466149E+03</pdfrwt>
<totfact> 0.62227169E+03</totfact>
</mgrwt>
</event>
<event>
 5    0  0.2257501E-001  0.4343761E+03  0.7546771E-02  0.1032486E+00
         21   -1    0    0  503  502  0.00000000000E+00  0.00000000000E+00  0.10211609824E+04  0.10211609824E+04  0.00000000000E+00 0.  1.
         21   -1    0    0  501  503 -0.00000000000E+00 -0.00000000000E+00 -0.85474973021E+03  0.85474973021E+03  0.00000000000E+00 0.  1.
         25    1    1    2    0    0 -0.39540943505E+03  0.13458813601E+03 -0.72866549984E+03  0.84914133001E+03  0.12500000000E+03 0.  0.
          2    1    1    2  501    0  0.10664964424E+02 -0.55055285438E+02  0.80804277530E+01  0.56657914130E+02  0.00000000000E+00 0. -1.
         -2    1    1    2    0  502  0.38474447062E+03 -0.79532850572E+02  0.88699632431E+03  0.97011146851E+03  0.00000000000E+00 0.  1.
<mgrwt>
<rscale>  4 0.43437614E+03</rscale>
<asrwt>0</asrwt>
<pdfrwt beam="1">  1       21 0.15710169E+00 0.43437614E+03</pdfrwt>
<pdfrwt beam="2">  1       21 0.13149996E+00 0.43437614E+03</pdfrwt>
<totfact> 0.89492463E+01</totfact>
</mgrwt>
</event>
<event>
 5    0  0.2257501E-001  0.2560043E+03  0.7546771E-02  0.1109568E+00
         21   -1    0    0  503  502  0.00000000000E+00  0.00000000000E+00  0.18462892349E+03  0.18462892349E+03  0.00000000000E+00 0. -1.
         21   -1    0    0  501  503 -0.00000000000E+00 -0.00000000000E+00 -0.33607254247E+03  0.33607254247E+03  0.00000000000E+00 0. -1.
         25    1    1    2    0    0 -0.15931278651E+03  0.15662895927E+03 -0.13798886795E+03  0.29082490008E+03  0.12500000000E+03 0.  0.
          1    1    1    2  501    0  0.69668548014E+01 -0.30613509250E+02 -0.63939100925E+01  0.32040694448E+02  0.00000000000E+00 0.  1.
         -1    1    1    2    0  502  0.15234593171E+03 -0.12601545002E+03 -0.70608409426E+01  0.19783587144E+03  0.00000000000E+00 0. -1.
<mgrwt>
<rscale>  4 0.25600429E+03</rscale>
<asrwt>0</asrwt>
<pdfrwt beam="1">  1       21 0.28404450E-01 0.25600429E+03</pdfrwt>
<pdfrwt beam="2">  1       21 0.51703467E-01 0.25600429E+03</pdfrwt>
<totfact> 0.40887435E+04</totfact>
</mgrwt>
</event>
<event>
 5    0  0.2257501E-001  0.2673696E+03  0.7546771E-02  0.1102795E+00
         21   -1    0    0  503  502  0.00000000000E+00  0.00000000000E+00  0.31728910790E+03  0.31728910790E+03  0.00000000000E+00 0. -1.
         21   -1    0    0  501  503 -0.00000000000E+00 -0.00000000000E+00 -0.11066770739E+04  0.11066770739E+04  0.00000000000E+00 0. -1.
         25    1    1    2    0    0 -0.27617688924E+03 -0.24401969626E+03 -0.58773958685E+03  0.70489865106E+03  0.12500000000E+03 0.  0.
          3    1    1    2  501    0  0.83740951157E+02  0.12539473922E+03 -0.39423949674E+03  0.42209142175E+03  0.00000000000E+00 0.  1.
         -3    1    1    2    0  502  0.19243593809E+03  0.11862495703E+03  0.19259111763E+03  0.29697610895E+03  0.00000000000E+00 0. -1.
<mgrwt>
<rscale>  4 0.26736957E+03</rscale>
<asrwt>0</asrwt>
<pdfrwt beam="1">  1       21 0.48813709E-01 0.26736957E+03</pdfrwt>
<pdfrwt beam="2">  1       21 0.17025801E+00 0.26736957E+03</pdfrwt>
<totfact> 0.79306313E+02</totfact>
</mgrwt>
</event>
<event>
 5    0  0.2257501E-001  0.3516483E+03  0.7546771E-02  0.1061941E+00
         21   -1    0    0  501  502  0.00000000000E+00  0.00000000000E+00  0.16639056419E+03  0.16639056419E+03  0.00000000000E+00 0. -1.
         21   -1    0    0  502  503 -0.00000000000E+00 -0.00000000000E+00 -0.11088367419E+04  0.11088367419E+04  0.00000000000E+00 0. -1.
         25    1    1    2    0    0  0.33003415605E+02  0.32702030903E+03 -0.95497536826E+02  0.36438480690E+03  0.12500000000E+03 0.  0.
          4    1    1    2  501    0  0.58793829937E+00 -0.25890326778E+03 -0.63896813093E+03  0.68942840098E+03  0.00000000000E+00 0. -1.
         -4    1    1    2    0  503 -0.33591353905E+02 -0.68117041257E+02 -0.20798050999E+03  0.22141409825E+03  0.00000000000E+00 0.  1.
<mgrwt>
<rscale>  4 0.35164827E+03</rscale>
<asrwt>0</asrwt>
<pdfrwt beam="1">  1       21 0.25598549E-01 0.35164827E+03</pdfrwt>
<pdfrwt beam="2">  1       21 0.17059027E+00 0.35164827E+03</pdfrwt>
<totfact> 0.27393953E+03</totfact>
</mgrwt>
</event>
<event>
 5    0  0.2257501E-001  0.2247718E+03  0.7546771E-02  0.1130375E+00
         21   -1    0    0  501  502  0.00000000000E+00  0.00000000000E+00  0.37469740513E+03  0.37469740513E+03  0.00000000000E+00 0.  1.
         21   -1    0    0  502  503 -0.00000000000E+00 -0.00000000000E+00 -0.87689632161E+03  0.87689632161E+03  0.00000000000E+00 0. -1.
         25    1    1    2    0    0  0.70459570537E+02  0.26868664705E+03 -0.62612960304E+03  0.69629041727E+03  0.12500000000E+03 0.  0.
          2    1    1    2  501    0  0.39463483216E+02 -0.17998161628E+03  0.28606494755E+03  0.34027033800E+03  0.00000000000E+00 0.  1.
         -2    1    1    2    0  503 -0.10992305375E+03 -0.88705030778E+02 -0.16213426100E+03  0.21503297147E+03  0.00000000000E+00 0. -1.
<mgrwt>
<rscale>  4 0.22477177E+03</rscale>
<asrwt>0</asrwt>
<pdfrwt beam="1">  1       21 0.57645755E-01 0.22477177E+03</pdfrwt>
<pdfrwt beam="2">  1       21 0.13490713E+00 0.22477177E+03</pdfrwt>
<totfact> 0.10769708E+03</totfact>
</mgrwt>
</event>
<event>
 5    0  0.2257501E-001  0.2310803E+03  0.7546771E-02  0.1125882E+00
         21   -1    0    0  501  502  0.00000000000E+00  0.00000000000E+00  0.16747233852E+03  0.16747233852E+03  0.00000000000E+00 0.  1.
         21   -1    0    0  502  503 -0.00000000000E+00 -0.00000000000E+00 -0.46327828960E+03  0.46327828960E+03  0.00000000000E+00 0.  1.
         25    1    1    2    0    0  0.18179751873E+03 -0.10508027938E+03 -0.30341590831E+03  0.38958749511E+03  0.12500000000E+03 0.  0.
          3    1    1    2  501    0 -0.15902142401E+02  0.68340315800E+02  0.12034103489E+02  0.71190564989E+02  0.00000000000E+00 0. -1.
         -3    1    1    2    0  503 -0.16589537632E+03  0.36739963583E+02 -0.44241462571E+01  0.16997256802E+03  0.00000000000E+00 0.  1.
<mgrwt>
<rscale>  4 0.23108033E+03</rscale>
<asrwt>0</asrwt>
<pdfrwt beam="1">  1       21 0.25764975E-01 0.23108033E+03</pdfrwt>
<pdfrwt beam="2">  1       21 0.71273583E-01 0.23108033E+03</pdfrwt>
<totfact> 0.24928637E+04</totfact>
</mgrwt>
</event>
<event>
 5    0  0.2257501E-001  0.2462233E+03  0.7546771E-02  0.1115715E+00
         21   -1    0    0  501  502  0.00000000000E+00  0.00000000000E+00  0.59164798903E+02  0.59164798903E+02  0.00000000000E+00 0. -1.
         21   -1    0    0  502  503 -0.00000000000E+00 -0.00000000000E+00 -0.10463674863E+04  0.10463674863E+04  0.00000000000E+00 0. -1.
         25    1    1    2    0    0  0.20277539256E+03  0.75783586095E+02 -0.39340976661E+03  0.46610863134E+03  0.12500000000E+03 0.  0.
          1    1    1    2  501    0 -0.19272319091E+01 -0.22916581424E+02 -0.11886229797E+03  0.12106663374E+03  0.00000000000E+00 0.  1.
         -1    1    1    2    0  503 -0.20084816065E+03 -0.52867004671E+02 -0.47493062285E+03  0.51835702016E+03  0.00000000000E+00 0. -1.
<mgrwt>
<rscale>  4 0.24622334E+03</rscale>
<asrwt>0</asrwt>
<pdfrwt beam="1">  1       21 0.91022766E-02 0.24622334E+03</pdfrwt>
<pdfrwt beam="2">  1       21 0.16097962E+00 0.24622334E+03</pdfrwt>
<totfact> 0.22938938E+04</totfact>
</mgrwt>
</event>
<event>
 5    0  0.2257501E-001  0.2771036E+03  0.7546771E-02  0.1097281E+00
         21   -1    0    0  503  502  0.00000000000E+00  0.00000000000E+00  0.27668270319E+02  0.27668270319E+02  0.00000000000E+00 0. -1.
         21   -1    0    0  501  503 -0.00000000000E+00 -0.00000000000E+00 -0.25784850058E+04  0.25784850058E+04  0.00000000000E+00 0. -1.
         25    1    1    2    0    0  0.54549263479E+02 -0.24121729669E+03 -0.12485444365E+04  0.12789251801E+04  0.12500000000E+03 0.  0.
          4    1    1    2  501    0 -0.32467238612E+02  0.64097099589E+02 -0.51416659091E+03  0.51916263634E+03  0.00000000000E+00 0.  1.
         -4    1    1    2    0  502 -0.22082024867E+02  0.17712019710E+03 -0.78810570806E+03  0.80806545967E+03  0.00000000000E+00 0. -1.
<mgrwt>
<rscale>  4 0.27710360E+03</rscale>
<asrwt>0</asrwt>
<pdfrwt beam="1">  1       21 0.42566579E-02 0.27710360E+03</pdfrwt>
<pdfrwt beam="2">  1       21 0.39668992E+00 0.27710360E+03</pdfrwt>
<totfact> 0.29209897E+03</totfact>
</mgrwt>
</event>
<event>
 5    0  0.2257501E-001  0.2373289E+03  0.7546771E-02  0.1121585E+00
         21   -1    0    0  503  502  0.00000000000E+00  0.00000000000E+00  0.20514645277E+03  0.20514645277E+03  0.00000000000E+00 0.  1.
         21   -1    0    0  501  503 -0.00000000000E+00 -0.00000000000E+00 -0.24991806258E+03  0.24991806258E+03  0.00000000000E+00 0.  1.
         25    1    1    2    0    0 -0.16034229610E+03 -0.12243513413E+03 -0.29496444699E+02  0.23915487500E+03  0.12500000000E+03 0.  0.
          3    1    1    2  501    0  0.79438756175E+02  0.10633479776E+03 -0.13299559296E+02  0.13339596499E+03  0.00000000000E+00 0.  1.
         -3    1    1    2    0  502  0.80903539922E+02  0.16100336370E+02 -0.19756058208E+01  0.82513675360E+02  0.00000000000E+00 0. -1.
<mgrwt>
<rscale>  4 0.23732892E+03</rscale>
<asrwt>0</asrwt>
<pdfrwt beam="1">  1       21 0.31560993E-01 0.23732892E+03</pdfrwt>
<pdfrwt beam="2">  1       21 0.38448933E-01 0.23732892E+03</pdfrwt>
<totfact> 0.61745838E+04</totfact>
</mgrwt>
</event>
<event>
 5    0  0.2257501E-001  0.2752288E+03  0.7546771E-02  0.1098324E+00
         21   -1    0    0  503  502  0.00000000000E+00  0.00000000000E+00  0.26763391181E+03  0.26763391181E+03  0.00000000000E+00 0. -1.
         21   -1    0    0  501  503 -0.00000000000E+00 -0.00000000000E+00 -0.39135829066E+03  0.39135829066E+03  0.00000000000E+00 0. -1.
         25    1    1    2    0    0  0.12627222173E+03  0.21019323639E+03  0.12793130329E+03  0.30350830131E+03  0.12500000000E+03 0.  0.
          1    1    1    2  501    0 -0.84229642582E+02 -0.11335319265E+03 -0.17573621781E+03  0.22544799228E+03  0.00000000000E+00 0. -1.
         -1    1    1    2    0  502 -0.42042579151E+02 -0.96840043742E+02 -0.75919464329E+02  0.13003590888E+03  0.00000000000E+00 0.  1.
<mgrwt>
<rscale>  4 0.27522876E+03</rscale>
<asrwt>0</asrwt>
<pdfrwt beam="1">  1       21 0.41174448E-01 0.27522876E+03</pdfrwt>
<pdfrwt beam="2">  1       21 0.60208968E-01 0.27522876E+03</pdfrwt>
<totfact> 0.13955064E+04</totfact>
</mgrwt>
</event>
<event>
 5    0  0.2257501E-001  0.3086418E+03  0.7546771E-02  0.1080999E+00
         21   -1    0    0  503  502  0.00000000000E+00  0.00000000000E+00  0.42499542138E+02  0.42499542138E+02  0.00000000000E+00 0. -1.
         21   -1    0    0  501  503 -0.00000000000E+00 -0.00000000000E+00 -0.23226401071E+04  0.23226401071E+04  0.00000000000E+00 0. -1.
         25    1    1    2    0    0 -0.15327914126E+03  0.23693936794E+03 -0.80888310944E+03  0.86576650661E+03  0.12500000000E+03 0.  0.
          4    1    1    2  501    0  0.11881779775E+03 -0.20328709462E+03 -0.10939755084E+04  0.11190289205E+04  0.00000000000E+00 0. -1.
         -4    1    1    2    0  502  0.34461343511E+02 -0.33652273326E+02 -0.37728194709E+03  0.38034422211E+03  0.00000000000E+00 0.  1.
<mgrwt>
<rscale>  4 0.30864180E+03</rscale>
<asrwt>0</asrwt>
<pdfrwt beam="1">  1       21 0.65383912E-02 0.30864180E+03</pdfrwt>
<pdfrwt beam="2">  1       21 0.35732924E+00 0.30864180E+03</pdfrwt>
<totfact> 0.23804608E+03</totfact>
</mgrwt>
</event>
<event>
 5    0  0.2257501E-001  0.2953525E+03  0.7546771E-02  0.1087587E+00
         21   -1    0    0  501  502  0.00000000000E+00  0.00000000000E+00  0.39494397712E+02  0.39494397712E+02  0.00000000000E+00 0.  1.
         21   -1    0    0  502  503 -0.00000000000E+00 -0.00000000000E+00 -0.22762344770E+04  0.22762344770E+04  0.00000000000E+00 0.  1.
         25    1    1    2    0    0 -0.19967117952E+03 -0.17815591006E+03 -0.15200458480E+04  0.15484742453E+04  0.12500000000E+03 0.  0.
          4    1    1    2  501    0  0.14936089469E+03  0.16210383335E+03 -0.55568025739E+03  0.59780170467E+03  0.00000000000E+00 0.  1.
         -4    1    1    2    0  503  0.50310284831E+02  0.16052076707E+02 -0.16101397386E+03  0.16945292474E+03  0.00000000000E+00 0. -1.
<mgrwt>
<rscale>  4 0.29535252E+03</rscale>
<asrwt>0</asrwt>
<pdfrwt beam="1">  1       21 0.60760627E-02 0.29535252E+03</pdfrwt>
<pdfrwt beam="2">  1       21 0.35018983E+00 0.29535252E+03</pdfrwt>
<totfact> 0.30189012E+03</totfact>
</mgrwt>
</event>
<event>
 5    0  0.2257501E-001  0.2778656E+03  0.7546771E-02  0.1096860E+00
         21   -1    0    0  501  502  0.00000000000E+00  0.00000000000E+00  0.50212649174E+03  0.50212649174E+03  0.00000000000E+00 0. -1.
         21   -1    0    0  502  503 -0.00000000000E+00 -0.00000000000E+00 -0.25216197503E+03  0.25216197503E+03  0.00000000000E+00 0.  1.
         25    1    1    2    0    0  0.24761226678E+03  0.42669820859E+02 -0.11320003065E+03  0.30260831980E+03  0.12500000000E+03 0.  0.
          1    1    1    2  501    0 -0.19207204444E+02  0.23425858159E+02  0.50251220585E+02  0.58675997677E+02  0.00000000000E+00 0.  1.
         -1    1    1    2    0  503 -0.22840506234E+03 -0.66095679018E+02  0.31291332678E+03  0.39300414929E+03  0.00000000000E+00 0. -1.
<mgrwt>
<rscale>  4 0.27786559E+03</rscale>
<asrwt>0</asrwt>
<pdfrwt beam="1">  1       21 0.77250229E-01 0.27786559E+03</pdfrwt>
<pdfrwt beam="2">  1       21 0.38794150E-01 0.27786559E+03</pdfrwt>
<totfact> 0.90576379E+03</totfact>
</mgrwt>
</event>
<event>
 5    0  0.2257501E-001  0.3276953E+03  0.7546771E-02  0.1072161E+00
         21   -1    0    0  503  502  0.00000000000E+00  0.00000000000E+00  0.35001981614E+03  0.35001981614E+03  0.00000000000E+00 0. -1.
         21   -1    0    0  501  503 -0.00000000000E+00 -0.00000000000E+00 -0.32841985764E+03  0.32841985764E+03  0.00000000000E+00 0. -1.
         25    1    1    2    0    0  0.64883081518E+02 -0.29588751613E+03  0.12759271694E+03  0.35165912172E+03  0.12500000000E+03 0.  0.
          4    1    1    2  501    0  0.57927374227E+00  0.82975062550E+02 -0.50811435033E+02  0.97298502010E+02  0.00000000000E+00 0.  1.
         -4    1    1    2    0  502 -0.65462355260E+02  0.21291245358E+03 -0.55181323407E+02  0.22948205006E+03  0.00000000000E+00 0. -1.
<mgrwt>
<rscale>  4 0.32769534E+03</rscale>
<asrwt>0</asrwt>
<pdfrwt beam="1">  1       21 0.53849202E-01 0.32769534E+03</pdfrwt>
<pdfrwt beam="2">  1       21 0.50526132E-01 0.32769534E+03</pdfrwt>
<totfact> 0.11331870E+04</totfact>
</mgrwt>
</event>
<event>
 5    0  0.2257501E-001  0.2711130E+03  0.7546771E-02  0.1100644E+00
         21   -1    0    0  503  502  0.00000000000E+00  0.00000000000E+00  0.11031351250E+04  0.11031351250E+04  0.00000000000E+00 0.  1.
         21   -1    0    0  501  503 -0.00000000000E+00 -0.00000000000E+00 -0.67974554112E+02  0.67974554112E+02  0.00000000000E+00 0.  1.
         25    1    1    2    0    0 -0.19445974214E+03  0.14164283065E+03  0.38783513409E+03  0.47320014161E+03  0.12500000000E+03 0.  0.
          3    1    1    2  501    0  0.13165663907E+03 -0.56348872865E+02  0.47024722674E+03  0.49157005639E+03  0.00000000000E+00 0.  1.
         -3    1    1    2    0  502  0.62803103065E+02 -0.85293957781E+02  0.17707821008E+03  0.20633948113E+03  0.00000000000E+00 0. -1.
<mgrwt>
<rscale>  4 0.27111304E+03</rscale>
<asrwt>0</asrwt>
<pdfrwt beam="1">  1       21 0.16971308E+00 0.27111304E+03</pdfrwt>
<pdfrwt beam="2">  1       21 0.10457625E-01 0.27111304E+03</pdfrwt>
<totfact> 0.15287897E+04</totfact>
</mgrwt>
</event>
<event>
 5    0  0.2257501E-001  0.2622407E+03  0.7546771E-02  0.1105804E+00
         21   -1    0    0  503  502  0.00000000000E+00  0.00000000000E+00  0.94284659284E+03  0.94284659284E+03  0.00000000000E+00 0. -1.
         21   -1    0    0  501  503 -0.00000000000E+00 -0.00000000000E+00 -0.17974879874E+03  0.17974879874E+03  0.00000000000E+00 0. -1.
         25    1    1    2    0    0  0.21923344720E+03 -0.21576454713E+03  0.16388081932E+03  0.37026958707E+03  0.12500000000E+03 0.  0.
          1    1    1    2  501    0  0.75075444569E+00  0.18011605497E+03  0.10091601165E+03  0.20646161459E+03  0.00000000000E+00 0.  1.
         -1    1    1    2    0  502 -0.21998420165E+03  0.35648492156E+02  0.49830096313E+03  0.54586418991E+03  0.00000000000E+00 0. -1.
<mgrwt>
<rscale>  4 0.26224069E+03</rscale>
<asrwt>0</asrwt>
<pdfrwt beam="1">  1       21 0.14505332E+00 0.26224069E+03</pdfrwt>
<pdfrwt beam="2">  1       21 0.27653662E-01 0.26224069E+03</pdfrwt>
<totfact> 0.38635593E+03</totfact>
</mgrwt>
</event>
<event>
 5    0  0.2257501E-001  0.2525476E+03  0.7546771E-02  0.1111705E+00
         21   -1    0    0  503  502  0.00000000000E+00  0.00000000000E+00  0.76795160658E+03  0.76795160658E+03  0.00000000000E+00 0. -1.
         21   -1    0    0  501  503 -0.00000000000E+00 -0.00000000000E+00 -0.82048852580E+02  0.82048852580E+02  0.00000000000E+00 0. -1.
         25    1    1    2    0    0  0.10791788188E+03  0.19107340508E+03  0.45683113589E+03  0.52199138123E+03  0.12500000000E+03 0.  0.
          3    1    1    2  501    0 -0.45974382576E+02 -0.12968525997E+03  0.91898416492E+02  0.16546065835E+03  0.00000000000E+00 0.  1.
         -3    1    1    2    0  502 -0.61943499309E+02 -0.61388145111E+02  0.13717320162E+03  0.16254841958E+03  0.00000000000E+00 0. -1.
<mgrwt>
<rscale>  4 0.25254765E+03</rscale>
<asrwt>0</asrwt>
<pdfrwt beam="1">  1       21 0.11814640E+00 0.25254765E+03</pdfrwt>
<pdfrwt beam="2">  1       21 0.12622901E-01 0.25254765E+03</pdfrwt>
<totfact> 0.28481895E+04</totfact>
</mgrwt>
</event>
<event>
 5    0  0.2257501E-001  0.2786818E+03  0.7546771E-02  0.1096411E+00
         21   -1    0    0  501  502  0.00000000000E+00  0.00000000000E+00  0.12318440261E+04  0.12318440261E+04  0.00000000000E+00 0. -1.
         21   -1    0    0  502  503 -0.00000000000E+00 -0.00000000000E+00 -0.42103574398E+03  0.42103574398E+03  0.00000000000E+00 0.  1.
         25    1    1    2    0    0  0.81835857556E+02 -0.23524764662E+03 -0.35826180503E+03  0.45388884517E+03  0.12500000000E+03 0.  0.
          3    1    1    2  501    0 -0.25133000031E+02  0.40243905286E+02  0.42721214478E+03  0.42983887243E+03  0.00000000000E+00 0.  1.
         -3    1    1    2    0  503 -0.56702857526E+02  0.19500374133E+03  0.74185794238E+03  0.76915205249E+03  0.00000000000E+00 0. -1.
<mgrwt>
<rscale>  4 0.27868183E+03</rscale>
<asrwt>0</asrwt>
<pdfrwt beam="1">  1       21 0.18951446E+00 0.27868183E+03</pdfrwt>
<pdfrwt beam="2">  1       21 0.64774730E-01 0.27868183E+03</pdfrwt>
<totfact> 0.31529352E+02</totfact>
</mgrwt>
</event>
<event>
 5    0  0.2257501E-001  0.3758374E+03  0.7546771E-02  0.1052483E+00
         21   -1    0    0  501  502  0.00000000000E+00  0.00000000000E+00  0.23366398597E+03  0.23366398597E+03  0.00000000000E+00 0. -1.
         21   -1    0    0  502  503 -0.00000000000E+00 -0.00000000000E+00 -0.60557489445E+03  0.60557489445E+03  0.00000000000E+00 0. -1.
         25    1    1    2    0    0  0.34162158087E+03  0.94463952408E+02 -0.15377410818E+03  0.40607907994E+03  0.12500000000E+03 0.  0.
          1    1    1    2  501    0 -0.12106447745E+03 -0.18535634341E+02 -0.14155362049E+02  0.12329051754E+03  0.00000000000E+00 0.  1.
         -1    1    1    2    0  503 -0.22055710342E+03 -0.75928318067E+02 -0.20398143825E+03  0.30986928293E+03  0.00000000000E+00 0. -1.
<mgrwt>
<rscale>  4 0.37583739E+03</rscale>
<asrwt>0</asrwt>
<pdfrwt beam="1">  1       21 0.35948306E-01 0.37583739E+03</pdfrwt>
<pdfrwt beam="2">  1       21 0.93165367E-01 0.37583739E+03</pdfrwt>
<totfact> 0.65566047E+03</totfact>
</mgrwt>
</event>
<event>
 5    0  0.2257501E-001  0.3876534E+03  0.7546771E-02  0.1048141E+00
         21   -1    0    0  501  502  0.00000000000E+00  0.00000000000E+00  0.54431780732E+03  0.54431780732E+03  0.00000000000E+00 0. -1.
         21   -1    0    0  502  503 -0.00000000000E+00 -0.00000000000E+00 -0.73775827854E+03  0.73775827854E+03  0.00000000000E+00 0.  1.
         25    1    1    2    0    0 -0.28871807197E+03 -0.22647740806E+03 -0.60868435642E+03  0.72164519481E+03  0.12500000000E+03 0.  0.
          2    1    1    2  501    0  0.81035850487E+02  0.85053405087E+02  0.18779439041E+03  0.22151213025E+03  0.00000000000E+00 0. -1.
         -2    1    1    2    0  503  0.20768222148E+03  0.14142400298E+03  0.22744949480E+03  0.33891876080E+03  0.00000000000E+00 0.  1.
<mgrwt>
<rscale>  4 0.38765338E+03</rscale>
<asrwt>0</asrwt>
<pdfrwt beam="1">  1       21 0.83741201E-01 0.38765338E+03</pdfrwt>
<pdfrwt beam="2">  1       21 0.11350127E+00 0.38765338E+03</pdfrwt>
<totfact> 0.65010558E+02</totfact>
</mgrwt>
</event>
<event>
 5    0  0.2257501E-001  0.2407636E+03  0.7546771E-02  0.1119285E+00
         21   -1    0    0  503  502  0.00000000000E+00  0.00000000000E+00  0.67213277186E+03  0.67213277186E+03  0.00000000000E+00 0.  1.
         21   -1    0    0  501  503 -0.00000000000E+00 -0.00000000000E+00 -0.81253709318E+03  0.81253709318E+03  0.00000000000E+00 0.  1.
         25    1    1    2    0    0  0.11069023962E+03 -0.17711602332E+03 -0.76669521641E+03  0.80440597321E+03  0.12500000000E+03 0.  0.
          3    1    1    2  501    0 -0.54199270373E+02  0.75826042701E+02  0.83232489550E+02  0.12495918124E+03  0.00000000000E+00 0. -1.
         -3    1    1    2    0  502 -0.56490969250E+02  0.10128998061E+03  0.54305840554E+03  0.55530471059E+03  0.00000000000E+00 0.  1.
<mgrwt>
<rscale>  4 0.24076361E+03</rscale>
<asrwt>0</asrwt>
<pdfrwt beam="1">  1       21 0.10340504E+00 0.24076361E+03</pdfrwt>
<pdfrwt beam="2">  1       21 0.12500571E+00 0.24076361E+03</pdfrwt>
<totfact> 0.34340273E+02</totfact>
</mgrwt>
</event>
