<LesHouchesEvents version="3.0">
  <!--
  <scalesfunctionalform>
    muR  H_T/2 := sum_i mT(i)/2, i=final state
    muF1 H_T/2 := sum_i mT(i)/2, i=final state
    muF2 H_T/2 := sum_i mT(i)/2, i=final state
    QES  H_T/2 := sum_i mT(i)/2, i=final state
  </scalesfunctionalform>
HERWIG6   
  -->
  <header>
       79
  </header>
  <init>
   2212   2212 0.65000000D+04 0.65000000D+04 -1 -1   244800   244800 -4   1
 0.79700163D-04 0.59231762D-05 0.19199499D-05     66
  </init>
  <event>
  6     66 0.19199499E-05 0.12905430E+03 0.75467711E-02 0.93904358E-01
        1 -1    0    0  503    0 0.00000000E+00 0.00000000E+00 0.20638794E+04 0.20638794E+04 0.32000000E+00 0.0000E+00 0.9000E+01
       -3 -1    0    0    0  501 0.00000000E+00 0.00000000E+00 -.71505873E+03 0.71505891E+03 0.50000000E+00 0.0000E+00 0.9000E+01
       25  1    1    2    0    0 0.50806762E+02 -.48779314E+03 0.12600338E+02 0.50626796E+03 0.12500000E+03 0.0000E+00 0.9000E+01
        2  1    1    2  502    0 -.15126938E+03 0.39404497E+03 0.15194433E+04 0.15769787E+04 0.32000000E+00 0.0000E+00 0.9000E+01
       -4  1    1    2    0  501 0.98275460E+02 0.88209213E+02 -.42949783E+03 0.44934365E+03 0.15500000E+01 0.0000E+00 0.9000E+01
       21  1    1    2  503  502 0.21871569E+01 0.55389612E+01 0.24627488E+03 0.24634801E+03 0.75000000E+00 0.0000E+00 0.9000E+01
#aMCatNLO 2  0  0  1  4 0.59551445D+01 0.00000000D+00  -5  6  0 0.00000000D+00 0.00000000D+00 0.00000000D+00 0.00000000D+00 0.00000000D+00
  <mgrwgt>
 0.2026389553D-02    2    2    0
 0.113999682050953D+04 0.000000000000000D+00 0.000000000000000D+00 0.113999682050953D+04
 0.113999682050953D+04 0.000000000000000D+00 0.000000000000000D+00 -.113999682050953D+04
 0.555184499077614D+03 0.513636197869980D+02 -.486442086281966D+03 -.230956063510110D+03
 0.101778144580013D+04 -.150299845977894D+03 0.396533254854788D+03 0.925229920348605D+03
 0.707027696141315D+03 0.989362261908964D+02 0.899088314271781D+02 -.694273856838495D+03
 0.000000000000000D+00 0.000000000000000D+00 0.000000000000000D+00 0.000000000000000D+00
 0.129448919843778D+04 0.000000000000000D+00 0.000000000000000D+00 0.129448919843778D+04
 0.114005809806113D+04 0.000000000000000D+00 0.000000000000000D+00 -.114005809806113D+04
 0.556318871233728D+03 0.508304981028621D+02 -.487792213633324D+03 -.230956063510110D+03
 0.101696576916580D+04 -.151275792512118D+03 0.394061676323042D+03 0.925229920348605D+03
 0.706716777765347D+03 0.982581375273812D+02 0.881915761016115D+02 -.694273856838495D+03
 0.154545878334035D+03 0.218715688187511D+01 0.553896120867013D+01 0.154431100376645D+03
-.690998077142D-01 0.000000000000D+00 0.000000000000D+00 0.297506628339D-04 0.000000000000D+00  6 1 -3 25 2 -4 21 2 0.31771535D+00 0.11000305D+00 0.28419577D+06 0.28419577D+06 0.28419577D+06 0.10862951D+01  1  2 13  1  6  1        1 -.103453555496D-01 0.100000000000D+01
0.824853647294D-01 0.000000000000D+00 0.000000000000D+00 0.297506628339D-04 0.632555793922D-05  6 1 -3 25 2 -4 21 2 0.31751967D+00 0.11000896D+00 0.28419577D+06 0.28419577D+06 0.28419577D+06 0.10862951D+01  1  2  1  1  6  1        1 0.123717451028D-01 0.100000000000D+01
  </mgrwgt>
  </event>
  <event>
  5     66 0.19199499E-05 0.20716855E+03 0.75467711E-02 0.94418762E-01
        1 -1    0    0  502    0 0.00000000E+00 0.00000000E+00 0.61328117E+03 0.61328125E+03 0.32000000E+00 0.0000E+00 0.9000E+01
       -3 -1    0    0    0  501 0.00000000E+00 0.00000000E+00 -.77781946E+03 0.77781962E+03 0.50000000E+00 0.0000E+00 0.9000E+01
       25  1    1    2    0    0 0.17145602E+03 -.45405215E+03 -.44471966E+03 0.67004560E+03 0.12500000E+03 0.0000E+00 0.9000E+01
        2  1    1    2  502    0 -.16904319E+02 0.20648114E+03 0.36275244E+03 0.41774352E+03 0.32000000E+00 0.0000E+00 0.9000E+01
       -4  1    1    2    0  501 -.15455170E+03 0.24757100E+03 -.82571064E+02 0.30331175E+03 0.15500000E+01 0.0000E+00 0.9000E+01
#aMCatNLO 1  0  0  1  4 0.18252990D+02 0.00000000D+00  -5  6  0 0.00000000D+00 0.00000000D+00 0.00000000D+00 0.00000000D+00 0.00000000D+00
  <mgrwgt>
 0.1286637046D-03    9    2    0
 0.690667932167942D+03 0.000000000000000D+00 0.000000000000000D+00 0.690667932167942D+03
 0.690667932167942D+03 0.000000000000000D+00 0.000000000000000D+00 -.690667932167942D+03
 0.621811216504568D+03 0.171459489432180D+03 -.454058425371624D+03 -.368044533723283D+03
 0.463898294708498D+03 -.169040406446833D+02 0.206477748352802D+03 0.415069657622057D+03
 0.295626353122819D+03 -.154555448787497D+03 0.247580677018822D+03 -.470251238987743D+02
 0.000000000000000D+00 0.000000000000000D+00 -.000000000000000D+00 0.000000000000000D+00
 0.732358900277336D+03 0.000000000000000D+00 0.000000000000000D+00 0.732358900277336D+03
 0.692728986567027D+03 0.000000000000000D+00 0.000000000000000D+00 -.692728986567027D+03
 0.619479332246152D+03 0.163260299577614D+03 -.453893091882194D+03 -.368044533723283D+03
 0.464217124363375D+03 -.230345912523386D+02 0.206601368532609D+03 0.415069657622057D+03
 0.297760000082825D+03 -.158474988311856D+03 0.247659713016038D+03 -.470251238987743D+02
 0.436314301520100D+02 0.182492799865804D+02 -.367989666453107D+00 0.396299137103086D+02
0.907143307879D-05 0.000000000000D+00 0.000000000000D+00 0.107944452410D-06 0.000000000000D+00  6 1 -3 25 2 -4 21 0 0.94350967D-01 0.11966455D+00 0.25011091D+06 0.25011091D+06 0.25011091D+06 0.10904446D+01  1  2  2  1  6  1        1 0.107162420611D-04 0.100000000000D+01
0.426602216722D-06 0.000000000000D+00 -.348366915857D-07 0.107944452410D-06 0.000000000000D+00  6 1 -3 25 2 -4 21 2 0.94350967D-01 0.11966455D+00 0.25011091D+06 0.25011091D+06 0.25011091D+06 0.10904446D+01  1  2  3  1  6  1        1 0.599234690097D-06 0.100000000000D+01
-.648815942850D-05 0.000000000000D+00 0.000000000000D+00 0.107944452410D-06 0.000000000000D+00  6 1 -3 25 2 -4 21 2 0.94350967D-01 0.11966455D+00 0.25011091D+06 0.25011091D+06 0.25011091D+06 0.10904446D+01  1  2 15  1  6  1        1 -.911371308455D-05 0.100000000000D+01
0.151121964641D-03 0.000000000000D+00 0.000000000000D+00 0.107944452410D-06 0.000000000000D+00  6 1 -3 25 2 -4 21 2 0.10398149D+00 0.11966455D+00 0.25931146D+06 0.25931146D+06 0.25931146D+06 0.10892663D+01  1  2 12  1  6  1        1 0.183103431916D-03 0.100000000000D+01
-.811716620620D-04 0.000000000000D+00 0.000000000000D+00 0.107944452410D-06 0.000000000000D+00  6 1 -3 25 2 -4 21 2 0.94350967D-01 0.11966455D+00 0.25011091D+06 0.25011091D+06 0.25011091D+06 0.10904446D+01  1  2  4  1  6  1        1 -.114019275695D-03 0.100000000000D+01
-.518308693627D-03 0.000000000000D+00 -.354525553758D-04 0.107944452410D-06 0.000000000000D+00  6 1 -3 25 2 -4 21 2 0.10019472D+00 0.11966455D+00 0.25011091D+06 0.25011091D+06 0.25011091D+06 0.10904446D+01  1  2  5  1  6  1        1 -.666294024953D-03 0.100000000000D+01
0.519564666680D-03 0.000000000000D+00 0.353886368275D-04 0.107944452410D-06 0.000000000000D+00  6 1 -3 25 2 -4 21 2 0.94350967D-01 0.11966455D+00 0.25011091D+06 0.25011091D+06 0.25011091D+06 0.10904446D+01  1  2  6  1  6  1        1 0.729816113980D-03 0.100000000000D+01
0.348306449522D-05 0.000000000000D+00 0.000000000000D+00 0.107944452410D-06 0.000000000000D+00  6 21 -3 25 2 -4 -1 2 0.10398149D+00 0.11966455D+00 0.25931146D+06 0.25931146D+06 0.25931146D+06 0.10892663D+01  1  2 12  5  6  1        1 0.894914244954D-05 0.100000000000D+01
-.530521082639D-05 0.000000000000D+00 -.365827803051D-06 0.107944452410D-06 0.000000000000D+00  6 21 -3 25 2 -4 -1 2 0.10019472D+00 0.11966455D+00 0.25011091D+06 0.25011091D+06 0.25011091D+06 0.10904446D+01  1  2  5  5  6  1        1 -.150934468103D-04 0.100000000000D+01
  </mgrwgt>
  </event>
  <event>
  5     66 0.19199499E-05 0.12064214E+03 0.75467711E-02 0.88134775E-01
        1 -1    0    0  502    0 0.00000000E+00 0.00000000E+00 0.12527600E+04 0.12527601E+04 0.32000000E+00 0.0000E+00 0.9000E+01
       -3 -1    0    0    0  501 0.00000000E+00 0.00000000E+00 -.89257758E+03 0.89257772E+03 0.50000000E+00 0.0000E+00 0.9000E+01
       25  1    1    2    0    0 -.63828414E+03 0.21251256E+03 0.57072399E+02 0.68662253E+03 0.12500000E+03 0.0000E+00 0.9000E+01
        2  1    1    2  502    0 0.92880915E+02 0.77016672E+02 0.70937504E+03 0.71956340E+03 0.32000000E+00 0.0000E+00 0.9000E+01
       -4  1    1    2    0  501 0.54540323E+03 -.28952923E+03 -.40626498E+03 0.73915187E+03 0.15500000E+01 0.0000E+00 0.9000E+01
#aMCatNLO 1  0  0  2  5 0.65739356D+03 0.00000000D+00  -5  6  0 0.00000000D+00 0.00000000D+00 0.00000000D+00 0.00000000D+00 0.00000000D+00
  <mgrwgt>
 0.1945846117D-03    4    2    0
 0.105744300737299D+04 0.000000000000000D+00 0.000000000000000D+00 0.105744300737299D+04
 0.105744300737299D+04 0.000000000000000D+00 0.000000000000000D+00 -.105744300737299D+04
 0.686835627135466D+03 -.638329539594838D+03 0.212544641364539D+03 -.589775636189718D+02
 0.609030048048916D+03 0.928684564828376D+02 0.770063410517004D+02 0.596961533647512D+03
 0.819020339561598D+03 0.545461083112001D+03 -.289550982416239D+03 -.537983970028540D+03
 0.000000000000000D+00 -.000000000000000D+00 -.000000000000000D+00 0.000000000000000D+00
 0.163193769533369D+04 0.000000000000000D+00 0.000000000000000D+00 0.163193769533369D+04
 0.111444597828297D+04 0.000000000000000D+00 0.000000000000000D+00 -.111444597828297D+04
 0.622377621509493D+03 -.550322645695341D+03 0.255725509834792D+03 -.589775636189718D+02
 0.633561820169069D+03 0.176396980823561D+03 0.117989882945476D+03 0.596961533647512D+03
 0.882794591318002D+03 0.659859135693209D+03 -.233421206180716D+03 -.537983970028540D+03
 0.607649640620090D+03 -.285933470821428D+03 -.140294186599552D+03 0.517491717050723D+03
0.133204502832D-02 0.000000000000D+00 0.000000000000D+00 0.248889089110D-05 0.000000000000D+00  6 1 -3 25 2 -4 21 0 0.19273233D+00 0.13731964D+00 0.50586986D+06 0.50586986D+06 0.50586986D+06 0.10681523D+01  1  2  2  2  6  2       -3 0.301451344803D-03 0.100000000000D+01
0.286791314478D-03 0.000000000000D+00 -.511540364427D-05 0.248889089110D-05 0.000000000000D+00  6 1 -3 25 2 -4 21 2 0.19273233D+00 0.13731964D+00 0.50586986D+06 0.50586986D+06 0.50586986D+06 0.10681523D+01  1  2  3  2  6  2       -3 0.740509630283D-04 0.100000000000D+01
-.696088658593D-03 0.000000000000D+00 0.000000000000D+00 0.248889089110D-05 0.000000000000D+00  6 1 -3 25 2 -4 21 2 0.19273233D+00 0.13731964D+00 0.50586986D+06 0.50586986D+06 0.50586986D+06 0.10681523D+01  1  2 15  2  6  2       -3 -.179733600426D-03 0.100000000000D+01
-.458587358113D-05 0.000000000000D+00 0.000000000000D+00 0.248889089110D-05 0.000000000000D+00  6 1 -3 25 2 -4 21 2 0.19273233D+00 0.13731964D+00 0.50586986D+06 0.50586986D+06 0.50586986D+06 0.10681523D+01  1  2  4  2  6  2       -3 -.118409567468D-05 0.100000000000D+01
  </mgrwgt>
  </event>
  <event>
  5     66 0.19199499E-05 0.12342448E+03 0.75467711E-02 0.91451810E-01
        1 -1    0    0  502    0 0.00000000E+00 0.00000000E+00 0.15314800E+04 0.15314800E+04 0.32000000E+00 0.0000E+00 0.9000E+01
       -3 -1    0    0    0  501 0.00000000E+00 0.00000000E+00 -.11325495E+04 0.11325497E+04 0.50000000E+00 0.0000E+00 0.9000E+01
       25  1    1    2    0    0 -.31655842E+03 0.47688122E+03 -.11146757E+03 0.59638490E+03 0.12500000E+03 0.0000E+00 0.9000E+01
        2  1    1    2  502    0 0.43678825E+03 -.44889746E+03 0.12071904E+04 0.13600006E+04 0.32000000E+00 0.0000E+00 0.9000E+01
       -4  1    1    2    0  501 -.12022983E+03 -.27983757E+02 -.69679235E+03 0.70764418E+03 0.15500000E+01 0.0000E+00 0.9000E+01
#aMCatNLO 1  0  0  5  4 0.59496746D+01 0.00000000D+00  -5  6  0 0.00000000D+00 0.00000000D+00 0.00000000D+00 0.00000000D+00 0.00000000D+00
  <mgrwgt>
 0.3201104261D-04    7    2    0
 0.131699549757836D+04 0.000000000000000D+00 0.000000000000000D+00 0.131699549757836D+04
 0.131699549757836D+04 -.000000000000000D+00 -.000000000000000D+00 -.131699549757836D+04
 0.620136570225448D+03 -.316590725745821D+03 0.476890951540751D+03 -.203198667420023D+03
 0.119271326591214D+04 0.436802042619099D+03 -.448911638147912D+03 0.101501096121270D+04
 0.821141159019128D+03 -.120211316873278D+03 -.279793133928397D+02 -.811812293792681D+03
 0.000000000000000D+00 -.000000000000000D+00 0.000000000000000D+00 0.000000000000000D+00
 0.131699549757836D+04 0.000000000000000D+00 0.000000000000000D+00 0.131699549757836D+04
 0.131699549757836D+04 -.000000000000000D+00 -.000000000000000D+00 -.131699549757836D+04
 0.620219601475106D+03 -.316623345928583D+03 0.476883359158103D+03 -.203418958371663D+03
 0.119233532568131D+04 0.436739318118888D+03 -.448926237342850D+03 0.101458736947677D+04
 0.801821324589745D+03 -.111720357488307D+03 -.289816804491282D+02 -.793470894543639D+03
 0.196147434105560D+02 -.839561470199732D+01 0.102455863387564D+01 -.176975165614644D+02
0.123662216249D-03 0.000000000000D+00 0.000000000000D+00 0.144824283902D-04 0.000000000000D+00  6 1 -3 25 2 -4 21 0 0.23561232D+00 0.17423840D+00 0.44600886D+06 0.44600886D+06 0.44600886D+06 0.10720355D+01  1  2  2  4  6  5       -4 0.795826271385D-05 0.100000000000D+01
0.265934234455D-04 0.000000000000D+00 -.474895471407D-06 0.144824283902D-04 0.000000000000D+00  6 1 -3 25 2 -4 21 2 0.23561232D+00 0.17423840D+00 0.44600886D+06 0.44600886D+06 0.44600886D+06 0.10720355D+01  1  2  3  4  6  5       -4 0.196686173865D-05 0.100000000000D+01
-.824035349288D-04 0.000000000000D+00 0.000000000000D+00 0.144824283902D-04 0.000000000000D+00  6 1 -3 25 2 -4 21 2 0.23561232D+00 0.17423840D+00 0.44600886D+06 0.44600886D+06 0.44600886D+06 0.10720355D+01  1  2 15  4  6  5       -4 -.609460306277D-05 0.100000000000D+01
-.872410620150D-03 0.000000000000D+00 0.000000000000D+00 0.144824283902D-04 0.000000000000D+00  6 1 -3 25 2 -4 21 2 0.23561232D+00 0.17423840D+00 0.44600886D+06 0.44600886D+06 0.44600886D+06 0.10720355D+01  1  2  4  4  6  5       -4 -.645238877454D-04 0.100000000000D+01
-.210490135770D-01 0.000000000000D+00 0.000000000000D+00 0.144824283902D-04 0.000000000000D+00  6 1 -3 25 2 -4 21 2 0.23561232D+00 0.17423840D+00 0.44600886D+06 0.44600886D+06 0.44600886D+06 0.10720355D+01  1  2  5  4  6  5       -4 -.155679465360D-02 0.100000000000D+01
0.215578185688D-01 0.000000000000D+00 -.000000000000D+00 0.144824283902D-04 0.000000000000D+00  6 1 -3 25 2 -4 21 2 0.23561232D+00 0.17423840D+00 0.44600886D+06 0.44600886D+06 0.44600886D+06 0.10720355D+01  1  2  6  4  6  5       -4 0.159442610307D-02 0.100000000000D+01
0.744691723964D-03 0.000000000000D+00 0.000000000000D+00 0.144824283902D-04 0.257014479937D-06  6 1 -3 25 2 -4 21 2 0.23561232D+00 0.17423840D+00 0.44629598D+06 0.44629598D+06 0.44629598D+06 0.10720156D+01  1  2 11  4  6  5       -4 0.550729594897D-04 0.100000000000D+01
  </mgrwgt>
  </event>
  <event>
  6     66 0.19199499E-05 0.68782546E+02 0.75467711E-02 0.93122047E-01
        1 -1    0    0  502    0 0.00000000E+00 0.00000000E+00 0.27285112E+04 0.27285112E+04 0.32000000E+00 0.0000E+00 0.9000E+01
       21 -1    0    0  503  501 0.00000000E+00 0.00000000E+00 -.26150028E+03 0.26150135E+03 0.75000000E+00 0.0000E+00 0.9000E+01
       25  1    1    2    0    0 -.28191540E+03 0.43701311E+03 0.16896858E+03 0.56092079E+03 0.12500000E+03 0.0000E+00 0.9000E+01
        2  1    1    2  502    0 0.24022371E+03 -.40972330E+03 0.22237299E+04 0.22738855E+04 0.32000000E+00 0.0000E+00 0.9000E+01
        3  1    1    2  503    0 -.43622670E+02 0.38196517E+01 0.13204994E+02 0.45740015E+02 0.50000000E+00 0.0000E+00 0.9000E+01
       -4  1    1    2    0  501 0.85314353E+02 -.31109463E+02 0.61107474E+02 0.10946627E+03 0.15500000E+01 0.0000E+00 0.9000E+01
#aMCatNLO 2  0  0  2  1 0.43789577D+02 0.00000000D+00  -5  6  0 0.00000000D+00 0.00000000D+00 0.00000000D+00 0.00000000D+00 0.00000000D+00
  <mgrwgt>
 0.2982117258D-05    1    2    0
 0.813274216672453D+03 0.000000000000000D+00 0.000000000000000D+00 0.813274216672453D+03
 0.813274216672453D+03 0.000000000000000D+00 0.000000000000000D+00 -.813274216672453D+03
 0.769143616595614D+03 -.302340065910271D+03 0.438772139063692D+03 -.540394668253329D+03
 0.754013594506410D+03 0.219938528887017D+03 -.407993644035278D+03 0.594730805186940D+03
 0.000000000000000D+00 -.000000000000000D+00 0.000000000000000D+00 -.000000000000000D+00
 0.103391222242882D+03 0.824015370232540D+02 -.307784950284146D+02 -.543361369336113D+02
 0.822451769350839D+03 0.000000000000000D+00 0.000000000000000D+00 0.822451769350839D+03
 0.867535800634205D+03 0.000000000000000D+00 0.000000000000000D+00 -.867535800634205D+03
 0.760283412777782D+03 -.281834803166505D+03 0.436976674426111D+03 -.540394668253329D+03
 0.761143458899589D+03 0.240252471874470D+03 -.409772356492640D+03 0.594730805186940D+03
 0.628497967490459D+02 -.436226699740253D+02 0.381965168230115D+01 -.450840312833662D+02
 0.105710901558627D+03 0.852050012660601D+02 -.310239696157720D+02 -.543361369336113D+02
0.377733380793D-06 0.000000000000D+00 0.000000000000D+00 0.134757133175D-06 0.340259725838D-11  6 1 21 25 2 3 -4 2 0.41977053D+00 0.40230848D-01 0.32733898D+06 0.32733898D+06 0.32733898D+06 0.10817607D+01  1  2  1  6  5  2       -3 0.298211725768D-05 0.100000000000D+01
  </mgrwgt>
  </event>
  <event>
  5     66 0.19199499E-05 0.10727046E+02 0.75467711E-02 0.91308465E-01
        1 -1    0    0  502    0 0.00000000E+00 0.00000000E+00 0.30271693E+04 0.30271693E+04 0.32000000E+00 0.0000E+00 0.9000E+01
       -3 -1    0    0    0  501 0.00000000E+00 0.00000000E+00 -.21673885E+03 0.21673943E+03 0.50000000E+00 0.0000E+00 0.9000E+01
       25  1    1    2    0    0 0.28805529E+03 -.35866897E+03 0.38822471E+03 0.61478672E+03 0.12500000E+03 0.0000E+00 0.9000E+01
        2  1    1    2  502    0 -.28028020E+03 0.36607549E+03 0.25042629E+04 0.25463506E+04 0.32000000E+00 0.0000E+00 0.9000E+01
       -4  1    1    2    0  501 -.77750896E+01 -.74065224E+01 -.82057261E+02 0.82771403E+02 0.15500000E+01 0.0000E+00 0.9000E+01
#aMCatNLO 1  0  0  2  4 0.16164312D+03 0.00000000D+00  -5  6  0 0.00000000D+00 0.00000000D+00 0.00000000D+00 0.00000000D+00 0.00000000D+00
  <mgrwgt>
 0.9062531022D-02    7    4    0
 0.810003800666463D+03 0.000000000000000D+00 0.000000000000000D+00 0.810003800666463D+03
 0.810003800666463D+03 0.000000000000000D+00 0.000000000000000D+00 -.810003800666463D+03
 0.557833006066257D+03 0.288086044402337D+03 -.358726225361954D+03 -.289611099433525D+03
 0.754454512127917D+03 -.280314622208268D+03 0.366120447430776D+03 0.597144154638977D+03
 0.307720083138752D+03 -.777142219406898D+01 -.739422206882159D+01 -.307533055205451D+03
 0.000000000000000D+00 -.000000000000000D+00 0.000000000000000D+00 -.000000000000000D+00
 0.975540881331916D+03 0.000000000000000D+00 0.000000000000000D+00 0.975540881331916D+03
 0.104129086176240D+04 0.000000000000000D+00 0.000000000000000D+00 -.104129086176240D+04
 0.644869718467193D+03 0.415994871449454D+03 -.378557303203378D+03 -.289611099433525D+03
 0.699598693432804D+03 -.125674380531324D+03 0.342144911567388D+03 0.597144154638977D+03
 0.313506248430893D+03 0.582967173228515D+02 -.176374746092851D+02 -.307533055205451D+03
 0.358857082763426D+03 -.348617208240981D+03 0.540498662452749D+02 -.657499804304830D+02
 0.810003800666463D+03 0.000000000000000D+00 0.000000000000000D+00 0.810003800666463D+03
 0.810003800666463D+03 0.000000000000000D+00 0.000000000000000D+00 -.810003800666463D+03
 0.557833006066257D+03 0.288086044402337D+03 -.358726225361954D+03 -.289611099433525D+03
 0.754454512127917D+03 -.280314622208268D+03 0.366120447430776D+03 0.597144154638977D+03
 0.000000000000000D+00 -.000000000000000D+00 0.000000000000000D+00 -.000000000000000D+00
 0.307720083138752D+03 -.777142219406898D+01 -.739422206882159D+01 -.307533055205451D+03
 0.975540881331916D+03 0.000000000000000D+00 0.000000000000000D+00 0.975540881331916D+03
 0.104129086176240D+04 0.000000000000000D+00 0.000000000000000D+00 -.104129086176240D+04
 0.644869718467193D+03 0.415994871449454D+03 -.378557303203378D+03 -.289611099433525D+03
 0.699598693432804D+03 -.125674380531324D+03 0.342144911567388D+03 0.597144154638977D+03
 0.358857082763426D+03 -.348617208240981D+03 0.540498662452749D+02 -.657499804304830D+02
 0.313506248430893D+03 0.582967173228515D+02 -.176374746092851D+02 -.307533055205451D+03
0.129048634707D-01 0.000000000000D+00 0.000000000000D+00 0.875437458727D-04 0.000000000000D+00  6 1 -3 25 2 -4 21 0 0.46571839D+00 0.33344485D-01 0.22495956D+06 0.22495956D+06 0.22495956D+06 0.10939241D+01  1  2  2  2  6  2       -3 0.512212925371D-02 0.100000000000D+01
0.106678027370D-01 0.000000000000D+00 -.495580736559D-04 0.875437458727D-04 0.000000000000D+00  6 1 -3 25 2 -4 21 2 0.46571839D+00 0.33344485D-01 0.22495956D+06 0.22495956D+06 0.22495956D+06 0.10939241D+01  1  2  3  2  6  2       -3 0.506694874944D-02 0.100000000000D+01
-.935526514064D-02 0.000000000000D+00 0.000000000000D+00 0.875437458727D-04 0.000000000000D+00  6 1 -3 25 2 -4 21 2 0.46571839D+00 0.33344485D-01 0.22495956D+06 0.22495956D+06 0.22495956D+06 0.10939241D+01  1  2 15  2  6  2       -3 -.444352507948D-02 0.100000000000D+01
-.232670140503D-03 0.000000000000D+00 0.000000000000D+00 0.875437458727D-04 0.000000000000D+00  6 1 -3 25 2 -4 21 2 0.46571839D+00 0.33344485D-01 0.22495956D+06 0.22495956D+06 0.22495956D+06 0.10939241D+01  1  2  4  2  6  2       -3 -.110512699429D-03 0.100000000000D+01
-.389082995296D-02 0.000000000000D+00 -.763760395334D-02 0.875437458727D-04 0.000000000000D+00  6 1 -3 25 2 -4 21 2 0.46571839D+00 0.57000492D-01 0.22495956D+06 0.22495956D+06 0.22495956D+06 0.10939241D+01  1  2  5  2  6  2       -3 -.619573269463D-03 0.100000000000D+01
0.781540750426D-02 0.000000000000D+00 0.665752103761D-02 0.875437458727D-04 0.000000000000D+00  6 1 -3 25 2 -4 21 2 0.46571839D+00 0.33344485D-01 0.22495956D+06 0.22495956D+06 0.22495956D+06 0.10939241D+01  1  2  6  2  6  2       -3 0.371212987868D-02 0.100000000000D+01
0.139449202244D-03 0.000000000000D+00 -.455586008055D-03 0.875437458727D-04 0.000000000000D+00  6 1 21 25 2 3 -4 2 0.46571839D+00 0.57000492D-01 0.22495956D+06 0.22495956D+06 0.22495956D+06 0.10939241D+01  3  4  5  6  5  2       -3 0.334934188358D-03 0.100000000000D+01
  </mgrwgt>
  </event>
  <event>
  5     66 0.19199499E-05 0.13328253E+03 0.75467711E-02 0.94677704E-01
        1 -1    0    0  502    0 0.00000000E+00 0.00000000E+00 0.22875481E+04 0.22875481E+04 0.32000000E+00 0.0000E+00 0.9000E+01
       -3 -1    0    0    0  501 0.00000000E+00 0.00000000E+00 -.26826183E+03 0.26826230E+03 0.50000000E+00 0.0000E+00 0.9000E+01
       25  1    1    2    0    0 -.15392903E+02 -.45440420E+03 0.28985595E+03 0.55349940E+03 0.12500000E+03 0.0000E+00 0.9000E+01
        2  1    1    2  502    0 0.99112129E+02 0.35062914E+03 0.18101370E+04 0.18464453E+04 0.32000000E+00 0.0000E+00 0.9000E+01
       -4  1    1    2    0  501 -.83719226E+02 0.10377506E+03 -.80706660E+02 0.15586578E+03 0.15500000E+01 0.0000E+00 0.9000E+01
#aMCatNLO 1  0  0  1  4 0.22137785D+02 0.00000000D+00  -5  6  0 0.00000000D+00 0.00000000D+00 0.00000000D+00 0.00000000D+00 0.00000000D+00
  <mgrwgt>
 0.1130409858D-02    9    2    0
 0.783366113682193D+03 0.000000000000000D+00 0.000000000000000D+00 0.783366113682193D+03
 0.783366113682193D+03 0.000000000000000D+00 0.000000000000000D+00 -.783366113682193D+03
 0.529420347439261D+03 -.154293686729296D+02 -.454393486762056D+03 -.240726812078097D+03
 0.679175015404748D+03 0.991220289006504D+02 0.350664162431183D+03 0.573138875075749D+03
 0.358136864520377D+03 -.836926602277208D+02 0.103729324330873D+03 -.332412062997652D+03
 0.000000000000000D+00 0.000000000000000D+00 -.000000000000000D+00 0.000000000000000D+00
 0.823936564140624D+03 0.000000000000000D+00 0.000000000000000D+00 0.823936564140624D+03
 0.786470084417185D+03 0.000000000000000D+00 0.000000000000000D+00 -.786470084417185D+03
 0.526222797205686D+03 -.217303085467365D+02 -.450404071846777D+03 -.240726812078097D+03
 0.680710015432037D+03 0.910051251362874D+02 0.355803347630847D+03 0.573138875075749D+03
 0.359955809375234D+03 -.879788233927923D+02 0.106443091419992D+03 -.332412062997652D+03
 0.435180265448518D+02 0.187040068032415D+02 -.118423672040631D+02 0.374664797234389D+02
0.121503144731D-03 0.000000000000D+00 0.000000000000D+00 0.409197938583D-05 0.000000000000D+00  6 1 -3 25 2 -4 21 0 0.35193052D+00 0.41271088D-01 0.23484327D+06 0.23484327D+06 0.23484327D+06 0.10925084D+01  1  2  2  1  6  1        1 0.105293863467D-03 0.100000000000D+01
0.118184777269D-04 0.000000000000D+00 -.466604068281D-06 0.409197938583D-05 0.000000000000D+00  6 1 -3 25 2 -4 21 2 0.35193052D+00 0.41271088D-01 0.23484327D+06 0.23484327D+06 0.23484327D+06 0.10925084D+01  1  2  3  1  6  1        1 0.122243744429D-04 0.100000000000D+01
-.729440271238D-04 0.000000000000D+00 0.000000000000D+00 0.409197938583D-05 0.000000000000D+00  6 1 -3 25 2 -4 21 2 0.35193052D+00 0.41271088D-01 0.23484327D+06 0.23484327D+06 0.23484327D+06 0.10925084D+01  1  2 15  1  6  1        1 -.754492347946D-04 0.100000000000D+01
0.101691614769D-02 0.000000000000D+00 0.000000000000D+00 0.409197938583D-05 0.000000000000D+00  6 1 -3 25 2 -4 21 2 0.38039719D+00 0.41271088D-01 0.24771698D+06 0.24771698D+06 0.24771698D+06 0.10907590D+01  1  2 12  1  6  1        1 0.781660431958D-03 0.100000000000D+01
-.471703404888D-03 0.000000000000D+00 0.000000000000D+00 0.409197938583D-05 0.000000000000D+00  6 1 -3 25 2 -4 21 2 0.35193052D+00 0.41271088D-01 0.23484327D+06 0.23484327D+06 0.23484327D+06 0.10925084D+01  1  2  4  1  6  1        1 -.487903703046D-03 0.100000000000D+01
-.437928444490D-02 0.000000000000D+00 -.392632895006D-03 0.409197938583D-05 0.000000000000D+00  6 1 -3 25 2 -4 21 2 0.37062956D+00 0.41271088D-01 0.23484327D+06 0.23484327D+06 0.23484327D+06 0.10925084D+01  1  2  5  1  6  1        1 -.374462850547D-02 0.100000000000D+01
0.439424659365D-02 0.000000000000D+00 0.392107341525D-03 0.409197938583D-05 0.000000000000D+00  6 1 -3 25 2 -4 21 2 0.35193052D+00 0.41271088D-01 0.23484327D+06 0.23484327D+06 0.23484327D+06 0.10925084D+01  1  2  6  1  6  1        1 0.454516368321D-02 0.100000000000D+01
0.236714388929D-04 0.000000000000D+00 0.000000000000D+00 0.409197938583D-05 0.000000000000D+00  6 21 -3 25 2 -4 -1 2 0.38039719D+00 0.41271088D-01 0.24771698D+06 0.24771698D+06 0.24771698D+06 0.10907590D+01  1  2 12  5  6  1        1 0.637082095522D-05 0.100000000000D+01
-.390256498830D-04 0.000000000000D+00 -.353205002210D-05 0.409197938583D-05 0.000000000000D+00  6 21 -3 25 2 -4 -1 2 0.37062956D+00 0.41271088D-01 0.23484327D+06 0.23484327D+06 0.23484327D+06 0.10925084D+01  1  2  5  5  6  1        1 -.123218728145D-04 0.100000000000D+01
  </mgrwgt>
  </event>
  <event>
  5     66 0.19199499E-05 0.10649695E+03 0.75467711E-02 0.94007913E-01
        1 -1    0    0  502    0 0.00000000E+00 0.00000000E+00 0.51374772E+03 0.51374782E+03 0.32000000E+00 0.0000E+00 0.9000E+01
       -3 -1    0    0    0  501 0.00000000E+00 0.00000000E+00 -.71740993E+03 0.71741011E+03 0.50000000E+00 0.0000E+00 0.9000E+01
       25  1    1    2    0    0 -.23298505E+03 -.39837976E+03 0.11290272E+03 0.49128453E+03 0.12500000E+03 0.0000E+00 0.9000E+01
        2  1    1    2  502    0 0.19676358E+03 0.29824033E+03 0.47598308E+02 0.36045652E+03 0.32000000E+00 0.0000E+00 0.9000E+01
       -4  1    1    2    0  501 0.36221477E+02 0.10013943E+03 -.36416324E+03 0.37941688E+03 0.15500000E+01 0.0000E+00 0.9000E+01
#aMCatNLO 1  0  0  2  5 0.13189279D+02 0.00000000D+00  -5  6  0 0.00000000D+00 0.00000000D+00 0.00000000D+00 0.00000000D+00 0.00000000D+00
  <mgrwgt>
 0.7651191877D-03    7    4    0
 0.607097921559936D+03 0.000000000000000D+00 0.000000000000000D+00 0.607097921559936D+03
 0.607097921559936D+03 0.000000000000000D+00 0.000000000000000D+00 -.607097921559936D+03
 0.517085650542123D+03 -.232977187901373D+03 -.398370210119955D+03 0.196914640398122D+03
 0.373454648182925D+03 0.196752456926675D+03 0.298223475112051D+03 0.108718001429576D+03
 0.323655544394824D+03 0.362247309746983D+02 0.100146735007904D+03 -.305632641827698D+03
 0.000000000000000D+00 0.000000000000000D+00 -.000000000000000D+00 -.000000000000000D+00
 0.622813706962878D+03 0.000000000000000D+00 0.000000000000000D+00 0.622813706962878D+03
 0.831653935837849D+03 0.000000000000000D+00 0.000000000000000D+00 -.831653935837849D+03
 0.531539571891565D+03 -.278630896313449D+03 -.387941702454262D+03 0.196914640398122D+03
 0.363724549766288D+03 0.164658088575975D+03 0.305554672905446D+03 0.108718001429576D+03
 0.323784457992530D+03 0.803731334353870D+01 0.106585482506561D+03 -.305632641827698D+03
 0.235419063150344D+03 0.105935494393936D+03 -.241984529577451D+02 -.208840228874971D+03
 0.607097921559936D+03 0.000000000000000D+00 0.000000000000000D+00 0.607097921559936D+03
 0.607097921559936D+03 0.000000000000000D+00 0.000000000000000D+00 -.607097921559936D+03
 0.517085650542123D+03 -.232977187901373D+03 -.398370210119955D+03 0.196914640398122D+03
 0.373454648182925D+03 0.196752456926675D+03 0.298223475112051D+03 0.108718001429576D+03
 0.000000000000000D+00 0.000000000000000D+00 -.000000000000000D+00 -.000000000000000D+00
 0.323655544394824D+03 0.362247309746983D+02 0.100146735007904D+03 -.305632641827698D+03
 0.622813706962878D+03 0.000000000000000D+00 0.000000000000000D+00 0.622813706962878D+03
 0.831653935837849D+03 0.000000000000000D+00 0.000000000000000D+00 -.831653935837849D+03
 0.531539571891565D+03 -.278630896313449D+03 -.387941702454262D+03 0.196914640398122D+03
 0.363724549766288D+03 0.164658088575975D+03 0.305554672905446D+03 0.108718001429576D+03
 0.235419063150344D+03 0.105935494393936D+03 -.241984529577451D+02 -.208840228874971D+03
 0.323784457992530D+03 0.803731334353870D+01 0.106585482506561D+03 -.305632641827698D+03
0.160667454851D-03 0.000000000000D+00 0.000000000000D+00 0.650204698032D-06 0.000000000000D+00  6 1 -3 25 2 -4 21 0 0.79038132D-01 0.11037078D+00 0.22179402D+06 0.22179402D+06 0.22179402D+06 0.10943920D+01  1  2  2  2  6  2       -3 0.307336412142D-03 0.100000000000D+01
0.199440047343D-04 0.000000000000D+00 -.617005331340D-06 0.650204698032D-06 0.000000000000D+00  6 1 -3 25 2 -4 21 2 0.79038132D-01 0.11037078D+00 0.22179402D+06 0.22179402D+06 0.22179402D+06 0.10943920D+01  1  2  3  2  6  2       -3 0.456924336429D-04 0.100000000000D+01
-.964764855385D-04 0.000000000000D+00 0.000000000000D+00 0.650204698032D-06 0.000000000000D+00  6 1 -3 25 2 -4 21 2 0.79038132D-01 0.11037078D+00 0.22179402D+06 0.22179402D+06 0.22179402D+06 0.10943920D+01  1  2 15  2  6  2       -3 -.221031105452D-03 0.100000000000D+01
-.912421595422D-04 0.000000000000D+00 0.000000000000D+00 0.650204698032D-06 0.000000000000D+00  6 1 -3 25 2 -4 21 2 0.79038132D-01 0.11037078D+00 0.22179402D+06 0.22179402D+06 0.22179402D+06 0.10943920D+01  1  2  4  2  6  2       -3 -.209039075946D-03 0.100000000000D+01
-.927842662079D-03 0.000000000000D+00 -.119886112568D-03 0.650204698032D-06 0.000000000000D+00  6 1 -3 25 2 -4 21 2 0.79038132D-01 0.15291699D+00 0.22179402D+06 0.22179402D+06 0.22179402D+06 0.10943920D+01  1  2  5  2  6  2       -3 -.798687547255D-03 0.100000000000D+01
0.923508578888D-03 0.000000000000D+00 0.113784228690D-03 0.650204698032D-06 0.000000000000D+00  6 1 -3 25 2 -4 21 2 0.79038132D-01 0.11037078D+00 0.22179402D+06 0.22179402D+06 0.22179402D+06 0.10943920D+01  1  2  6  2  6  2       -3 0.211579143816D-02 0.100000000000D+01
-.350329194024D-04 0.000000000000D+00 -.492101811740D-05 0.650204698032D-06 0.000000000000D+00  6 1 21 25 2 3 -4 2 0.79038132D-01 0.15291699D+00 0.22179402D+06 0.22179402D+06 0.22179402D+06 0.10943920D+01  3  4  5  6  5  2       -3 -.474943367554D-03 0.100000000000D+01
  </mgrwgt>
  </event>
  <event>
  5     66 -.19199499E-05 0.15603814E+03 0.75467711E-02 0.93075830E-01
        3 -1    0    0  502    0 0.00000000E+00 0.00000000E+00 0.23118104E+04 0.23118105E+04 0.50000000E+00 0.0000E+00 0.9000E+01
       -1 -1    0    0    0  501 0.00000000E+00 0.00000000E+00 -.45304412E+03 0.45304423E+03 0.32000000E+00 0.0000E+00 0.9000E+01
       25  1    1    2    0    0 -.48279351E+03 0.24841521E+03 0.59761877E+03 0.81705133E+03 0.12500000E+03 0.0000E+00 0.9000E+01
        4  1    1    2  502    0 0.32996554E+03 -.27928148E+03 0.15556381E+04 0.16145859E+04 0.15500000E+01 0.0000E+00 0.9000E+01
       -2  1    1    2    0  501 0.15282797E+03 0.30866272E+02 -.29449054E+03 0.33321749E+03 0.32000000E+00 0.0000E+00 0.9000E+01
#aMCatNLO 1  0  0  4  1 0.25288798D+02 0.00000000D+00  -5  6  0 0.00000000D+00 0.00000000D+00 0.00000000D+00 0.00000000D+00 0.00000000D+00
  <mgrwgt>
 -.3443019996D-04    7    2    0
 0.102340233988452D+04 0.000000000000000D+00 0.000000000000000D+00 0.102340233988452D+04
 0.102340233988452D+04 -.000000000000000D+00 -.000000000000000D+00 -.102340233988452D+04
 0.560953537862305D+03 -.482760021973704D+03 0.248267919154753D+03 0.659520518464311D+02
 0.767915944341328D+03 0.329808031342303D+03 -.279148164826793D+03 0.634821126073780D+03
 0.717935197565397D+03 0.152951990631401D+03 0.308802456720398D+02 -.700773177920211D+03
 0.000000000000000D+00 0.000000000000000D+00 0.000000000000000D+00 0.000000000000000D+00
 0.102340233988452D+04 0.000000000000000D+00 0.000000000000000D+00 0.102340233988452D+04
 0.102340233988452D+04 -.000000000000000D+00 -.000000000000000D+00 -.102340233988452D+04
 0.560334456776469D+03 -.482144929822799D+03 0.247747307681389D+03 0.671359935784964D+02
 0.700387152039250D+03 0.302627939957279D+03 -.277106988198392D+03 0.567600396221216D+03
 0.716596808835556D+03 0.153738915472814D+03 0.302141957143027D+02 -.699258489172555D+03
 0.694862621177544D+02 0.257780743927066D+02 -.854515197300284D+00 0.645220993728423D+02
0.264897307885D-03 0.000000000000D+00 0.000000000000D+00 0.778313294520D-05 0.000000000000D+00  6 3 -1 25 4 -2 21 0 0.35566315D+00 0.69699108D-01 0.32786256D+06 0.32786256D+06 0.32786256D+06 0.10817097D+01  1  2  2  3  6  4        4 0.202808073666D-05 0.100000000000D+01
0.403469418604D-04 0.000000000000D+00 -.101727541134D-05 0.778313294520D-05 0.000000000000D+00  6 3 -1 25 4 -2 21 2 0.35566315D+00 0.69699108D-01 0.32786256D+06 0.32786256D+06 0.32786256D+06 0.10817097D+01  1  2  3  3  6  4        4 0.361442976586D-06 0.100000000000D+01
-.173851791324D-03 0.000000000000D+00 0.000000000000D+00 0.778313294520D-05 0.000000000000D+00  6 3 -1 25 4 -2 21 2 0.35566315D+00 0.69699108D-01 0.32786256D+06 0.32786256D+06 0.32786256D+06 0.10817097D+01  1  2 15  3  6  4        4 -.155742928816D-05 0.100000000000D+01
0.706690203059D-02 0.000000000000D+00 0.000000000000D+00 0.778313294520D-05 0.000000000000D+00  6 3 -1 25 4 -2 21 2 0.35566315D+00 0.69699108D-01 0.33010858D+06 0.33010858D+06 0.33010858D+06 0.10814922D+01  1  2 12  3  6  4        4 0.632537424507D-04 0.100000000000D+01
-.119209803897D-01 0.000000000000D+00 0.000000000000D+00 0.778313294520D-05 0.000000000000D+00  6 3 -1 25 4 -2 21 2 0.35566315D+00 0.69699108D-01 0.32786256D+06 0.32786256D+06 0.32786256D+06 0.10817097D+01  1  2  4  3  6  4        4 -.106792595354D-03 0.100000000000D+01
-.977017104736D-02 0.000000000000D+00 0.000000000000D+00 0.778313294520D-05 0.000000000000D+00  6 3 -1 25 4 -2 21 2 0.35566315D+00 0.69699108D-01 0.32786256D+06 0.32786256D+06 0.32786256D+06 0.10817097D+01  1  2  5  3  6  4        4 -.875248418412D-04 0.100000000000D+01
0.106940618049D-01 0.000000000000D+00 -.000000000000D+00 0.778313294520D-05 0.000000000000D+00  6 3 -1 25 4 -2 21 2 0.35566315D+00 0.69699108D-01 0.32786256D+06 0.32786256D+06 0.32786256D+06 0.10817097D+01  1  2  6  3  6  4        4 0.958014003625D-04 0.100000000000D+01
  </mgrwgt>
  </event>
  <event>
  5     66 -.19199499E-05 0.15724449E+02 0.75467711E-02 0.94885534E-01
        1 -1    0    0  502    0 0.00000000E+00 0.00000000E+00 0.11018052E+04 0.11018053E+04 0.32000000E+00 0.0000E+00 0.9000E+01
       -3 -1    0    0    0  501 0.00000000E+00 0.00000000E+00 -.54050398E+03 0.54050421E+03 0.50000000E+00 0.0000E+00 0.9000E+01
       25  1    1    2    0    0 -.40550321E+03 0.22943393E+03 0.45510689E+03 0.66318931E+03 0.12500000E+03 0.0000E+00 0.9000E+01
        2  1    1    2  502    0 -.54416820E+01 0.14761671E+02 0.41157462E+03 0.41187533E+03 0.32000000E+00 0.0000E+00 0.9000E+01
       -4  1    1    2    0  501 0.41094489E+03 -.24419560E+03 -.30538027E+03 0.56724484E+03 0.15500000E+01 0.0000E+00 0.9000E+01
#aMCatNLO 1  0  0  5  1 0.18618066D+02 0.00000000D+00  -5  6  0 0.00000000D+00 0.00000000D+00 0.00000000D+00 0.00000000D+00 0.00000000D+00
  <mgrwgt>
 -.3616657918D-02    6    2    0
 0.771706119035257D+03 0.000000000000000D+00 0.000000000000000D+00 0.771706119035257D+03
 0.771706119035257D+03 -.000000000000000D+00 -.000000000000000D+00 -.771706119035257D+03
 0.540298841983605D+03 -.405572079002429D+03 0.229479412158146D+03 0.243204290213031D+03
 0.288435363121429D+03 -.543881734782016D+01 0.147538999412017D+02 0.288006424236288D+03
 0.714678032965480D+03 0.411010896350250D+03 -.244233312099347D+03 -.531210714449318D+03
 0.000000000000000D+00 0.000000000000000D+00 -.000000000000000D+00 0.000000000000000D+00
 0.771706119035257D+03 0.000000000000000D+00 0.000000000000000D+00 0.771706119035257D+03
 0.771706119035257D+03 -.000000000000000D+00 -.000000000000000D+00 -.771706119035257D+03
 0.539801665519583D+03 -.405258333328918D+03 0.229292976358806D+03 0.242798789860458D+03
 0.288211005632689D+03 -.527131413669710D+01 0.146543651979549D+02 0.287789934840889D+03
 0.576986705269981D+03 0.338591441716771D+03 -.179980214602668D+03 -.431134104433927D+03
 0.138412861648262D+03 0.719382057488448D+02 -.639671269540927D+02 -.994546202674199D+02
0.300805520293D-04 0.000000000000D+00 0.000000000000D+00 0.503790110536D-04 0.000000000000D+00  6 1 -3 25 2 -4 21 0 0.16950852D+00 0.83154480D-01 0.23828643D+06 0.23828643D+06 0.23828643D+06 0.10920304D+01  1  2  2  4  6  5       -4 0.355113069911D-04 0.100000000000D+01
0.199432557081D-04 0.000000000000D+00 -.115517240184D-06 0.503790110536D-04 0.000000000000D+00  6 1 -3 25 2 -4 21 2 0.16950852D+00 0.83154480D-01 0.23828643D+06 0.23828643D+06 0.23828643D+06 0.10920304D+01  1  2  3  4  6  5       -4 0.280767207615D-04 0.100000000000D+01
-.205327720660D-04 0.000000000000D+00 0.000000000000D+00 0.503790110536D-04 0.000000000000D+00  6 1 -3 25 2 -4 21 2 0.16950852D+00 0.83154480D-01 0.23828643D+06 0.23828643D+06 0.23828643D+06 0.10920304D+01  1  2 15  4  6  5       -4 -.289066597848D-04 0.100000000000D+01
-.324071964122D-02 0.000000000000D+00 0.000000000000D+00 0.503790110536D-04 0.000000000000D+00  6 1 -3 25 2 -4 21 2 0.16950852D+00 0.83154480D-01 0.23828643D+06 0.23828643D+06 0.23828643D+06 0.10920304D+01  1  2  4  4  6  5       -4 -.456238348264D-02 0.100000000000D+01
-.305248747629D-02 0.000000000000D+00 0.000000000000D+00 0.503790110536D-04 0.000000000000D+00  6 1 -3 25 2 -4 21 2 0.16950852D+00 0.83154480D-01 0.23828643D+06 0.23828643D+06 0.23828643D+06 0.10920304D+01  1  2  5  4  6  5       -4 -.429738452708D-02 0.100000000000D+01
0.369961388171D-02 0.000000000000D+00 -.000000000000D+00 0.503790110536D-04 0.000000000000D+00  6 1 -3 25 2 -4 21 2 0.16950852D+00 0.83154480D-01 0.23828643D+06 0.23828643D+06 0.23828643D+06 0.10920304D+01  1  2  6  4  6  5       -4 0.520842872409D-02 0.100000000000D+01
  </mgrwgt>
  </event>
  <event>
  6     66 0.19199499E-05 0.45348261E+02 0.75467711E-02 0.91562627E-01
        1 -1    0    0  503    0 0.00000000E+00 0.00000000E+00 0.29797809E+04 0.29797809E+04 0.32000000E+00 0.0000E+00 0.9000E+01
       -3 -1    0    0    0  501 0.00000000E+00 0.00000000E+00 -.33802236E+03 0.33802273E+03 0.50000000E+00 0.0000E+00 0.9000E+01
       25  1    1    2    0    0 0.34036653E+03 -.37446125E+03 0.30787287E+03 0.60537700E+03 0.12500000E+03 0.0000E+00 0.9000E+01
        2  1    1    2  502    0 -.48563699E+03 0.38518475E+03 0.22307274E+04 0.23152441E+04 0.32000000E+00 0.0000E+00 0.9000E+01
       -4  1    1    2    0  501 0.68631532E+02 -.58932515E+02 -.12350791E+03 0.15310106E+03 0.15500000E+01 0.0000E+00 0.9000E+01
       21  1    1    2  503  502 0.76638931E+02 0.48209012E+02 0.22666618E+03 0.24408145E+03 0.75000000E+00 0.0000E+00 0.9000E+01
#aMCatNLO 2  0  0  1  2 0.90540789D+02 0.00000000D+00  -5  6  0 0.00000000D+00 0.00000000D+00 0.00000000D+00 0.00000000D+00 0.00000000D+00
  <mgrwgt>
 0.2485408080D-03    1    2    0
 0.949591935041305D+03 0.000000000000000D+00 0.000000000000000D+00 0.949591935041305D+03
 0.949591935041305D+03 0.000000000000000D+00 0.000000000000000D+00 -.949591935041305D+03
 0.592821935929628D+03 0.364279225006426D+03 -.359569240923603D+03 -.271704720109339D+03
 0.900656401735319D+03 -.449180238995735D+03 0.408180919634814D+03 0.665437753459048D+03
 0.405705532417661D+03 0.849010139893089D+02 -.486116787112114D+02 -.393733033349709D+03
 0.000000000000000D+00 0.000000000000000D+00 0.000000000000000D+00 0.000000000000000D+00
 0.103220319975234D+04 0.000000000000000D+00 0.000000000000000D+00 0.103220319975234D+04
 0.975806431111500D+03 0.000000000000000D+00 0.000000000000000D+00 -.975806431111500D+03
 0.587922573154781D+03 0.340469092670540D+03 -.374546784836480D+03 -.271704720109339D+03
 0.909444064410602D+03 -.485681557704897D+03 0.385220102108386D+03 0.665437753459048D+03
 0.403974206907025D+03 0.685735345094714D+02 -.588823289304581D+02 -.393733033349709D+03
 0.106668786391433D+03 0.766389305248859D+02 0.482090116585519D+02 0.563967686408400D+02
0.128910668278D-02 0.000000000000D+00 0.000000000000D+00 0.323822348615D-05 0.716569325494D-09  6 1 -3 25 2 -4 21 2 0.45842725D+00 0.52003400D-01 0.43705497D+06 0.43705497D+06 0.43705497D+06 0.10726649D+01  1  2  1  1  6  1        1 0.248540807964D-03 0.100000000000D+01
  </mgrwgt>
  </event>
  <event>
  5     66 0.19199499E-05 0.36760647E+02 0.75467711E-02 0.91462691E-01
        1 -1    0    0  502    0 0.00000000E+00 0.00000000E+00 0.16732514E+04 0.16732514E+04 0.32000000E+00 0.0000E+00 0.9000E+01
       -3 -1    0    0    0  501 0.00000000E+00 0.00000000E+00 -.32370082E+03 0.32370121E+03 0.50000000E+00 0.0000E+00 0.9000E+01
       25  1    1    2    0    0 -.14440273E+03 -.57384002E+03 0.32583585E+03 0.68697782E+03 0.12500000E+03 0.0000E+00 0.9000E+01
        2  1    1    2  502    0 0.17283488E+03 0.55048738E+03 0.10904863E+04 0.12337215E+04 0.32000000E+00 0.0000E+00 0.9000E+01
       -4  1    1    2    0  501 -.28432146E+02 0.23352642E+02 -.66771541E+02 0.76253354E+02 0.15500000E+01 0.0000E+00 0.9000E+01
#aMCatNLO 1  0  0  5  1 0.95174252D+02 0.00000000D+00  -5  6  0 0.00000000D+00 0.00000000D+00 0.00000000D+00 0.00000000D+00 0.00000000D+00
  <mgrwgt>
 0.1269390805D-03    4    2    0
 0.735957381586537D+03 0.000000000000000D+00 0.000000000000000D+00 0.735957381586537D+03
 0.735957381586537D+03 -.000000000000000D+00 -.000000000000000D+00 -.735957381586537D+03
 0.633432054995352D+03 -.144454767245200D+03 -.573901401362289D+03 -.188098830485919D+03
 0.674060963972459D+03 0.172859870061540D+03 0.550566977930312D+03 0.348358509708708D+03
 0.164421744205262D+03 -.284051028163398D+02 0.233344234319778D+02 -.160259679222789D+03
 0.000000000000000D+00 0.000000000000000D+00 -.000000000000000D+00 0.000000000000000D+00
 0.735957381586537D+03 0.000000000000000D+00 0.000000000000000D+00 0.735957381586537D+03
 0.735957381586537D+03 -.000000000000000D+00 -.000000000000000D+00 -.735957381586537D+03
 0.644358264614783D+03 -.152489225631581D+03 -.567301198038027D+03 -.233428704208104D+03
 0.654618803632973D+03 0.164505430261972D+03 0.557430041834025D+03 0.301223322379105D+03
 0.848389212008628D+02 -.456748082763695D+02 0.702659778026287D+02 -.131964693340149D+02
 0.880987737244548D+02 0.336586036459790D+02 -.603948215986268D+02 -.545981488369854D+02
0.298141034110D-03 0.000000000000D+00 0.000000000000D+00 0.241273471680D-05 0.000000000000D+00  6 1 -3 25 2 -4 21 0 0.25742332D+00 0.49800159D-01 0.37129864D+06 0.37129864D+06 0.37129864D+06 0.10777665D+01  1  2  2  4  6  5       -4 0.441598860430D-03 0.100000000000D+01
0.963155852957D-04 0.000000000000D+00 -.114494007332D-05 0.241273471680D-05 0.000000000000D+00  6 1 -3 25 2 -4 21 2 0.25742332D+00 0.49800159D-01 0.37129864D+06 0.37129864D+06 0.37129864D+06 0.10777665D+01  1  2  3  4  6  5       -4 0.165711306194D-03 0.100000000000D+01
-.168798966723D-03 0.000000000000D+00 0.000000000000D+00 0.241273471680D-05 0.000000000000D+00  6 1 -3 25 2 -4 21 2 0.25742332D+00 0.49800159D-01 0.37129864D+06 0.37129864D+06 0.37129864D+06 0.10777665D+01  1  2 15  4  6  5       -4 -.290419221086D-03 0.100000000000D+01
-.110404808687D-03 0.000000000000D+00 0.000000000000D+00 0.241273471680D-05 0.000000000000D+00  6 1 -3 25 2 -4 21 2 0.25742332D+00 0.49800159D-01 0.37129864D+06 0.37129864D+06 0.37129864D+06 0.10777665D+01  1  2  4  4  6  5       -4 -.189951865022D-03 0.100000000000D+01
  </mgrwgt>
  </event>
  <event>
  5     66 -.19199499E-05 0.11010008E+02 0.75467711E-02 0.91895560E-01
        1 -1    0    0  502    0 0.00000000E+00 0.00000000E+00 0.13410773E+04 0.13410773E+04 0.32000000E+00 0.0000E+00 0.9000E+01
       -3 -1    0    0    0  501 0.00000000E+00 0.00000000E+00 -.84531310E+03 0.84531325E+03 0.50000000E+00 0.0000E+00 0.9000E+01
       25  1    1    2    0    0 -.47762736E+03 -.41604738E+03 0.26636781E+03 0.69842689E+03 0.12500000E+03 0.0000E+00 0.9000E+01
        2  1    1    2  502    0 0.46752377E+03 0.41167635E+03 0.74563194E+03 0.97160845E+03 0.32000000E+00 0.0000E+00 0.9000E+01
       -4  1    1    2    0  501 0.10103592E+02 0.43710237E+01 -.51623555E+03 0.51635524E+03 0.15500000E+01 0.0000E+00 0.9000E+01
#aMCatNLO 1  0  0  4  1 0.15789589D+00 0.00000000D+00  -5  6  0 0.00000000D+00 0.00000000D+00 0.00000000D+00 0.00000000D+00 0.00000000D+00
  <mgrwgt>
 -.2310366091D-02    6    2    0
 0.106472081649313D+04 0.000000000000000D+00 0.000000000000000D+00 0.106472081649313D+04
 0.106472081649313D+04 -.000000000000000D+00 -.000000000000000D+00 -.106472081649313D+04
 0.655092536983832D+03 -.477628303398624D+03 -.416048195809919D+03 0.110888838788116D+03
 0.823998672162775D+03 0.467523565622733D+03 0.411676178000817D+03 0.539368382258418D+03
 0.650350423839643D+03 0.101047377758912D+02 0.437201780910254D+01 -.650257221046534D+03
 0.000000000000000D+00 0.000000000000000D+00 0.000000000000000D+00 0.000000000000000D+00
 0.106472081649313D+04 0.000000000000000D+00 0.000000000000000D+00 0.106472081649313D+04
 0.106472081649313D+04 -.000000000000000D+00 -.000000000000000D+00 -.106472081649313D+04
 0.654536930393257D+03 -.477119649194327D+03 -.415600302197390D+03 0.111475658395669D+03
 0.756884480110820D+03 0.438501112960758D+03 0.362036011312868D+03 0.499520586840494D+03
 0.649779137460074D+03 0.106097022593269D+02 0.481666245132515D+01 -.649674658162959D+03
 0.682410850220992D+02 0.280088339742413D+02 0.487476284331975D+02 0.386784129267952D+02
0.221900657176D-03 0.000000000000D+00 0.000000000000D+00 0.605465095139D-04 0.000000000000D+00  6 1 -3 25 2 -4 21 0 0.20631960D+00 0.13004818D+00 0.40933777D+06 0.40933777D+06 0.40933777D+06 0.10747059D+01  1  2  2  3  6  4        2 0.521207616767D-04 0.100000000000D+01
0.262378817259D-03 0.000000000000D+00 -.852156951342D-06 0.605465095139D-04 0.000000000000D+00  6 1 -3 25 2 -4 21 2 0.20631960D+00 0.13004818D+00 0.40933777D+06 0.40933777D+06 0.40933777D+06 0.10747059D+01  1  2  3  3  6  4        2 0.711803639591D-04 0.100000000000D+01
-.141413055480D-03 0.000000000000D+00 0.000000000000D+00 0.605465095139D-04 0.000000000000D+00  6 1 -3 25 2 -4 21 2 0.20631960D+00 0.13004818D+00 0.40933777D+06 0.40933777D+06 0.40933777D+06 0.10747059D+01  1  2 15  3  6  4        2 -.383637401174D-04 0.100000000000D+01
-.100282773704D-01 0.000000000000D+00 0.000000000000D+00 0.605465095139D-04 0.000000000000D+00  6 1 -3 25 2 -4 21 2 0.20631960D+00 0.13004818D+00 0.40933777D+06 0.40933777D+06 0.40933777D+06 0.10747059D+01  1  2  4  3  6  4        2 -.272055663855D-02 0.100000000000D+01
-.139031720525D-01 0.000000000000D+00 0.000000000000D+00 0.605465095139D-04 0.000000000000D+00  6 1 -3 25 2 -4 21 2 0.20631960D+00 0.13004818D+00 0.40933777D+06 0.40933777D+06 0.40933777D+06 0.10747059D+01  1  2  5  3  6  4        2 -.377177112552D-02 0.100000000000D+01
0.151020917435D-01 0.000000000000D+00 -.000000000000D+00 0.605465095139D-04 0.000000000000D+00  6 1 -3 25 2 -4 21 2 0.20631960D+00 0.13004818D+00 0.40933777D+06 0.40933777D+06 0.40933777D+06 0.10747059D+01  1  2  6  3  6  4        2 0.409702428755D-02 0.100000000000D+01
  </mgrwgt>
  </event>
  <event>
  5     66 0.19199499E-05 0.10684898E+03 0.75467711E-02 0.93400609E-01
        1 -1    0    0  502    0 0.00000000E+00 0.00000000E+00 0.10449456E+04 0.10449456E+04 0.32000000E+00 0.0000E+00 0.9000E+01
       -3 -1    0    0    0  501 0.00000000E+00 0.00000000E+00 -.98468336E+03 0.98468349E+03 0.50000000E+00 0.0000E+00 0.9000E+01
       25  1    1    2    0    0 -.35517853E+03 -.39087997E+03 0.17113211E+03 0.56907832E+03 0.12500000E+03 0.0000E+00 0.9000E+01
        2  1    1    2  502    0 0.10677362E+03 0.43578183E+01 0.60256416E+03 0.61196672E+03 0.32000000E+00 0.0000E+00 0.9000E+01
       -4  1    1    2    0  501 0.24840491E+03 0.38652215E+03 -.71343406E+03 0.84858407E+03 0.15500000E+01 0.0000E+00 0.9000E+01
#aMCatNLO 1  0  0  2  2 0.58665126D+01 0.00000000D+00  -5  6  0 0.00000000D+00 0.00000000D+00 0.00000000D+00 0.00000000D+00 0.00000000D+00
  <mgrwgt>
 0.8991766659D-03   10    4    0
 0.101436714042735D+04 0.000000000000000D+00 0.000000000000000D+00 0.101436714042735D+04
 0.101436714042735D+04 0.000000000000000D+00 0.000000000000000D+00 -.101436714042735D+04
 0.564299073110316D+03 -.355191761057235D+03 -.390915410147130D+03 0.154377455930984D+03
 0.594262553044402D+03 0.106760102592690D+03 0.435726672196990D+01 0.584577861941387D+03
 0.870172654699978D+03 0.248431658464545D+03 0.386558143425160D+03 -.738955317872371D+03
 0.000000000000000D+00 0.000000000000000D+00 -.000000000000000D+00 -.000000000000000D+00
 0.101539264876958D+04 0.000000000000000D+00 0.000000000000000D+00 0.101539264876958D+04
 0.102279620107972D+04 0.000000000000000D+00 0.000000000000000D+00 -.102279620107972D+04
 0.563353817732638D+03 -.355457871671672D+03 -.389306853935119D+03 0.154377455930984D+03
 0.594227080697175D+03 0.106479635341414D+03 0.605260435537653D+01 0.584577861941387D+03
 0.871161864535869D+03 0.248020727403561D+03 0.389042094365074D+03 -.738955317872371D+03
 0.944608688361356D+01 0.957508926696546D+00 -.578784478533189D+01 -.740355231013998D+01
 0.101436714042735D+04 0.000000000000000D+00 0.000000000000000D+00 0.101436714042735D+04
 0.101436714042735D+04 0.000000000000000D+00 0.000000000000000D+00 -.101436714042735D+04
 0.564299073110316D+03 -.355191761057235D+03 -.390915410147130D+03 0.154377455930984D+03
 0.594262553044402D+03 0.106760102592690D+03 0.435726672196990D+01 0.584577861941387D+03
 0.000000000000000D+00 0.000000000000000D+00 -.000000000000000D+00 -.000000000000000D+00
 0.870172654699978D+03 0.248431658464545D+03 0.386558143425160D+03 -.738955317872371D+03
 0.101539264876958D+04 0.000000000000000D+00 0.000000000000000D+00 0.101539264876958D+04
 0.102279620107972D+04 0.000000000000000D+00 0.000000000000000D+00 -.102279620107972D+04
 0.563353817732638D+03 -.355457871671672D+03 -.389306853935119D+03 0.154377455930984D+03
 0.594227080697175D+03 0.106479635341414D+03 0.605260435537653D+01 0.584577861941387D+03
 0.944608688361356D+01 0.957508926696546D+00 -.578784478533189D+01 -.740355231013998D+01
 0.871161864535869D+03 0.248020727403561D+03 0.389042094365074D+03 -.738955317872371D+03
0.754225697523D-03 0.000000000000D+00 0.000000000000D+00 0.193413188367D-04 0.000000000000D+00  6 1 -3 25 2 -4 21 0 0.16076087D+00 0.15148976D+00 0.30754030D+06 0.30754030D+06 0.30754030D+06 0.10837552D+01  1  2  2  2  6  2       -3 0.181099237585D-03 0.100000000000D+01
0.149944105926D-03 0.000000000000D+00 -.289642527067D-05 0.193413188367D-04 0.000000000000D+00  6 1 -3 25 2 -4 21 2 0.16076087D+00 0.15148976D+00 0.30754030D+06 0.30754030D+06 0.30754030D+06 0.10837552D+01  1  2  3  2  6  2       -3 0.422870169850D-04 0.100000000000D+01
-.407137087724D-03 0.000000000000D+00 0.000000000000D+00 0.193413188367D-04 0.000000000000D+00  6 1 -3 25 2 -4 21 2 0.16076087D+00 0.15148976D+00 0.30754030D+06 0.30754030D+06 0.30754030D+06 0.10837552D+01  1  2 15  2  6  2       -3 -.114820204752D-03 0.100000000000D+01
-.354424764174D-02 0.000000000000D+00 0.000000000000D+00 0.193413188367D-04 0.000000000000D+00  6 1 -3 25 2 -4 21 2 0.16076087D+00 0.15148976D+00 0.30754030D+06 0.30754030D+06 0.30754030D+06 0.10837552D+01  1  2  4  2  6  2       -3 -.999543525233D-03 0.100000000000D+01
-.197172945333D+00 0.000000000000D+00 -.162098286085D-01 0.193413188367D-04 0.000000000000D+00  6 1 -3 25 2 -4 21 2 0.16076087D+00 0.15282619D+00 0.30754030D+06 0.30754030D+06 0.30754030D+06 0.10837552D+01  1  2  5  2  6  2       -3 -.539869026358D-01 0.100000000000D+01
0.197308334062D+00 0.000000000000D+00 0.162092033780D-01 0.193413188367D-04 0.000000000000D+00  6 1 -3 25 2 -4 21 2 0.16076087D+00 0.15148976D+00 0.30754030D+06 0.30754030D+06 0.30754030D+06 0.10837552D+01  1  2  6  2  6  2       -3 0.556446071838D-01 0.100000000000D+01
0.354661246260D-02 0.000000000000D+00 0.000000000000D+00 0.193413188367D-04 0.819817056485D-06  6 1 -3 25 2 -4 21 2 0.16092340D+00 0.15274859D+00 0.31118719D+06 0.31118719D+06 0.31118719D+06 0.10833774D+01  1  2 11  2  6  2       -3 0.969607514542D-03 0.100000000000D+01
0.925538407723D-04 0.000000000000D+00 0.000000000000D+00 0.193413188367D-04 0.000000000000D+00  6 1 21 25 2 3 -4 2 0.16076087D+00 0.15392769D+00 0.31118719D+06 0.31118719D+06 0.31118719D+06 0.10833774D+01  3  4 12  6  5  2       -3 0.385273788646D-03 0.100000000000D+01
-.320014123118D-03 0.000000000000D+00 -.263468818970D-04 0.193413188367D-04 0.000000000000D+00  6 1 21 25 2 3 -4 2 0.16076087D+00 0.15282619D+00 0.30754030D+06 0.30754030D+06 0.30754030D+06 0.10837552D+01  3  4  5  6  5  2       -3 -.136366335080D-02 0.100000000000D+01
0.332130750203D-04 0.000000000000D+00 0.000000000000D+00 0.193413188367D-04 0.538096570756D-08  6 1 21 25 2 3 -4 2 0.16092340D+00 0.15274859D+00 0.31118719D+06 0.31118719D+06 0.31118719D+06 0.10833774D+01  3  4 11  6  5  2       -3 0.141231640894D-03 0.100000000000D+01
  </mgrwgt>
  </event>
  <event>
  5     66 0.19199499E-05 0.10000680E+02 0.75467711E-02 0.92339679E-01
        1 -1    0    0  502    0 0.00000000E+00 0.00000000E+00 0.12417789E+04 0.12417790E+04 0.32000000E+00 0.0000E+00 0.9000E+01
       -3 -1    0    0    0  501 0.00000000E+00 0.00000000E+00 -.63736209E+03 0.63736229E+03 0.50000000E+00 0.0000E+00 0.9000E+01
       25  1    1    2    0    0 0.51054622E+03 0.65818897E+02 0.12258769E+03 0.54372999E+03 0.12500000E+03 0.0000E+00 0.9000E+01
        2  1    1    2  502    0 -.52042154E+03 -.67426029E+02 0.83277101E+03 0.98432338E+03 0.32000000E+00 0.0000E+00 0.9000E+01
       -4  1    1    2    0  501 0.98753283E+01 0.16071324E+01 -.35094187E+03 0.35108788E+03 0.15500000E+01 0.0000E+00 0.9000E+01
#aMCatNLO 1  0  0  4  4 0.23617679D+02 0.00000000D+00  -5  6  0 0.00000000D+00 0.00000000D+00 0.00000000D+00 0.00000000D+00 0.00000000D+00
  <mgrwgt>
 0.4737612903D-01    4    2    0
 0.889642084706781D+03 0.000000000000000D+00 0.000000000000000D+00 0.889642084706781D+03
 0.889642084706781D+03 -.000000000000000D+00 -.000000000000000D+00 -.889642084706781D+03
 0.532651993825539D+03 0.510583230782068D+03 0.658237527531653D+02 -.553637475606402D+02
 0.756723301748650D+03 -.520454036189399D+03 -.674302388544154D+02 0.545170537090532D+03
 0.489908873839372D+03 0.987080540733146D+01 0.160648610125025D+01 -.489806789529891D+03
 0.000000000000000D+00 0.000000000000000D+00 0.000000000000000D+00 0.000000000000000D+00
 0.889642084706781D+03 0.000000000000000D+00 0.000000000000000D+00 0.889642084706781D+03
 0.889642084706781D+03 -.000000000000000D+00 -.000000000000000D+00 -.889642084706781D+03
 0.482325552735279D+03 0.462005472375304D+03 0.595299984067428D+02 -.447901845916012D+01
 0.627359419765434D+03 -.470700058010014D+03 0.156389701518911D+03 0.384140024231553D+03
 0.444356501401549D+03 -.348439942845832D+02 -.418678172625855D+01 -.442968472082266D+03
 0.225242695511300D+03 0.435385799192929D+02 -.211732918199395D+03 0.633074663098737D+02
0.528166056125D-01 0.000000000000D+00 0.000000000000D+00 0.782253522437D-04 0.000000000000D+00  6 1 -3 25 2 -4 21 0 0.19104293D+00 0.98055725D-01 0.28332818D+06 0.28332818D+06 0.28332818D+06 0.10863938D+01  1  2  2  3  6  4        2 0.325228517091D-01 0.100000000000D+01
0.573049666637D-01 0.000000000000D+00 -.202829672484D-03 0.782253522437D-04 0.000000000000D+00  6 1 -3 25 2 -4 21 2 0.19104293D+00 0.98055725D-01 0.28332818D+06 0.28332818D+06 0.28332818D+06 0.10863938D+01  1  2  3  3  6  4        2 0.416471181212D-01 0.100000000000D+01
-.345873484212D-01 0.000000000000D+00 0.000000000000D+00 0.782253522437D-04 0.000000000000D+00  6 1 -3 25 2 -4 21 2 0.19104293D+00 0.98055725D-01 0.28332818D+06 0.28332818D+06 0.28332818D+06 0.10863938D+01  1  2 15  3  6  4        2 -.251367982403D-01 0.100000000000D+01
-.228003216412D-02 0.000000000000D+00 0.000000000000D+00 0.782253522437D-04 0.000000000000D+00  6 1 -3 25 2 -4 21 2 0.19104293D+00 0.98055725D-01 0.28332818D+06 0.28332818D+06 0.28332818D+06 0.10863938D+01  1  2  4  3  6  4        2 -.165704256345D-02 0.100000000000D+01
  </mgrwgt>
  </event>
  <event>
  6     66 0.19199499E-05 0.51498032E+02 0.75467711E-02 0.92079824E-01
        1 -1    0    0  502    0 0.00000000E+00 0.00000000E+00 0.27240070E+04 0.27240070E+04 0.32000000E+00 0.0000E+00 0.9000E+01
       -3 -1    0    0    0  501 0.00000000E+00 0.00000000E+00 -.46408569E+03 0.46408596E+03 0.50000000E+00 0.0000E+00 0.9000E+01
       25  1    1    2    0    0 -.45583100E+03 0.38589131E+03 0.86387384E+03 0.10576375E+04 0.12500000E+03 0.0000E+00 0.9000E+01
        2  1    1    2  502    0 -.13777868E+02 0.87558676E+01 0.14899561E+04 0.14900456E+04 0.32000000E+00 0.0000E+00 0.9000E+01
       -4  1    1    2    0  503 0.45643855E+03 -.32053755E+03 -.74743521E+02 0.56273392E+03 0.15500000E+01 0.0000E+00 0.9000E+01
       21  1    1    2  503  501 0.13170323E+02 -.74109621E+02 -.19165147E+02 0.77675986E+02 0.75000000E+00 0.0000E+00 0.9000E+01
#aMCatNLO 2  0  0  5  1 0.52259406D+02 0.00000000D+00  -5  6  0 0.00000000D+00 0.00000000D+00 0.00000000D+00 0.00000000D+00 0.00000000D+00
  <mgrwgt>
 0.2104455837D-01    1    2    0
 0.112435453566737D+04 0.000000000000000D+00 0.000000000000000D+00 0.112435453566737D+04
 0.112435453566737D+04 -.000000000000000D+00 -.000000000000000D+00 -.112435453566737D+04
 0.634131968137620D+03 -.457549059383901D+03 0.387334905261574D+03 0.164678117662932D+03
 0.617813868237179D+03 -.154145468945179D+02 0.101316211377873D+02 0.617538434255993D+03
 0.996763234959935D+03 0.472963606278419D+03 -.397466526399362D+03 -.782216551918925D+03
 0.000000000000000D+00 0.000000000000000D+00 0.000000000000000D+00 -.000000000000000D+00
 0.112435453566737D+04 0.000000000000000D+00 0.000000000000000D+00 0.112435453566737D+04
 0.112435453566737D+04 -.000000000000000D+00 -.000000000000000D+00 -.112435453566737D+04
 0.631333717876875D+03 -.455865506351900D+03 0.385920090322844D+03 0.161893753220968D+03
 0.615042389749148D+03 -.137743768653400D+02 0.875326416581782D+01 0.614825819315323D+03
 0.872785703094809D+03 0.456441717534025D+03 -.320469077651678D+03 -.671353418320315D+03
 0.129547260613902D+03 0.131981656832153D+02 -.742042768369837D+02 -.105366154215976D+03
0.141551923900D+00 0.000000000000D+00 0.000000000000D+00 0.116227623980D-03 0.229020272775D-06  6 1 -3 25 2 -4 21 2 0.41907802D+00 0.71397820D-01 0.39666176D+06 0.39666176D+06 0.39666176D+06 0.10756901D+01  1  2  1  4  6  5       -4 0.210445583695D-01 0.100000000000D+01
  </mgrwgt>
  </event>
  <event>
  6     66 0.19199499E-05 0.44301598E+02 0.75467711E-02 0.94772941E-01
        3 -1    0    0  502    0 0.00000000E+00 0.00000000E+00 0.13283988E+04 0.13283989E+04 0.50000000E+00 0.0000E+00 0.9000E+01
       -1 -1    0    0    0  501 0.00000000E+00 0.00000000E+00 -.82926737E+03 0.82926743E+03 0.32000000E+00 0.0000E+00 0.9000E+01
       25  1    1    2    0    0 -.34265073E+02 0.46245090E+03 -.54773947E+02 0.48338402E+03 0.12500000E+03 0.0000E+00 0.9000E+01
        4  1    1    2  502    0 0.70627040E+02 -.37476298E+03 0.10737707E+04 0.11394829E+04 0.15500000E+01 0.0000E+00 0.9000E+01
       -2  1    1    2    0  503 0.23444967E+02 -.48847452E+02 -.22568256E+03 0.23209580E+03 0.32000000E+00 0.0000E+00 0.9000E+01
       21  1    1    2  503  501 -.59806934E+02 -.38840462E+02 -.29418270E+03 0.30270361E+03 0.75000000E+00 0.0000E+00 0.9000E+01
#aMCatNLO 2  0  0  5  1 0.40676849D+02 0.00000000D+00  -5  6  0 0.00000000D+00 0.00000000D+00 0.00000000D+00 0.00000000D+00 0.00000000D+00
  <mgrwgt>
 0.1592599904D-03    1    2    0
 0.104957038036367D+04 0.000000000000000D+00 0.000000000000000D+00 0.104957038036367D+04
 0.104957038036367D+04 -.000000000000000D+00 -.000000000000000D+00 -.104957038036367D+04
 0.509491651901111D+03 -.341697347775836D+02 0.462609961047980D+03 -.169650218158829D+03
 0.917666809377187D+03 0.707362847417872D+02 -.374420536680779D+03 0.834816155069554D+03
 0.671982299449044D+03 -.365665499642036D+02 -.881894243672009D+02 -.665165936910725D+03
 0.000000000000000D+00 -.000000000000000D+00 0.000000000000000D+00 0.000000000000000D+00
 0.104957038036367D+04 0.000000000000000D+00 0.000000000000000D+00 0.104957038036367D+04
 0.104957038036367D+04 -.000000000000000D+00 -.000000000000000D+00 -.104957038036367D+04
 0.509754356295232D+03 -.342361529390867D+02 0.462449776960714D+03 -.170858401557792D+03
 0.915798775487823D+03 0.706168087641069D+02 -.374708683025120D+03 0.832642820404134D+03
 0.291965796211097D+03 0.234568709609899D+02 -.488188979972601D+02 -.286898094382365D+03
 0.381621832733190D+03 -.598375267860101D+02 -.389221959383341D+02 -.374886324463977D+03
0.310733590355D-02 0.000000000000D+00 0.000000000000D+00 0.923536618771D-04 0.369915268677D-07  6 3 -1 25 4 -2 21 2 0.20436906D+00 0.12757961D+00 0.24359986D+06 0.24359986D+06 0.24359986D+06 0.10913074D+01  1  2  1  4  6  5       -2 0.159259990449D-03 0.100000000000D+01
  </mgrwgt>
  </event>
  <event>
  5     66 -.19199499E-05 0.46451401E+02 0.75467711E-02 0.94360919E-01
        1 -1    0    0  502    0 0.00000000E+00 0.00000000E+00 0.65043997E+03 0.65044005E+03 0.32000000E+00 0.0000E+00 0.9000E+01
       -3 -1    0    0    0  501 -.00000000E+00 -.00000000E+00 -.80025708E+03 0.80025724E+03 0.50000000E+00 0.0000E+00 0.9000E+01
       25  1    1    2    0    0 0.41928388E+03 0.26531762E+03 -.39855402E+03 0.64858517E+03 0.12500000E+03 0.0000E+00 0.9000E+01
        2  1    1    2  502    0 -.38180133E+03 -.23778425E+03 0.42559821E+03 0.61923141E+03 0.32000000E+00 0.0000E+00 0.9000E+01
       -4  1    1    2    0  501 -.37482555E+02 -.27533368E+02 -.17686130E+03 0.18288070E+03 0.15500000E+01 0.0000E+00 0.9000E+01
#aMCatNLO 1  0  0  4  1 0.52071456D+01 0.00000000D+00  -5  6  0 0.00000000D+00 0.00000000D+00 0.00000000D+00 0.00000000D+00 0.00000000D+00
  <mgrwgt>
 -.4332487120D-03    4    2    0
 0.721470276917199D+03 0.000000000000000D+00 0.000000000000000D+00 0.721470276917199D+03
 0.721470276917199D+03 -.000000000000000D+00 -.000000000000000D+00 -.721470276917199D+03
 0.610919227879500D+03 0.419297271441604D+03 0.265321188415078D+03 -.333754053357441D+03
 0.666852838938992D+03 -.381860813186297D+03 -.237821293051988D+03 0.492256092623316D+03
 0.165168487015905D+03 -.374364582553064D+02 -.274998953630902D+02 -.158502039265875D+03
 0.000000000000000D+00 0.000000000000000D+00 0.000000000000000D+00 0.000000000000000D+00
 0.721470276917199D+03 0.000000000000000D+00 0.000000000000000D+00 0.721470276917199D+03
 0.721470276917199D+03 -.000000000000000D+00 -.000000000000000D+00 -.721470276917199D+03
 0.590141720321354D+03 0.406765497188627D+03 0.257516452620875D+03 -.317599365538248D+03
 0.223699531182778D+03 -.203611705336076D+03 -.962775692872084D+01 0.921469478498953D+02
 0.162151961657098D+03 -.408516937413138D+02 -.296268895225120D+02 -.154099465297359D+03
 0.466947340673167D+03 -.162302098111237D+03 -.218261806169642D+03 0.379551882985711D+03
0.112805165961D-02 0.000000000000D+00 0.000000000000D+00 0.567853418035D-05 0.000000000000D+00  6 1 -3 25 2 -4 21 0 0.10006771D+00 0.12311649D+00 0.25402009D+06 0.25402009D+06 0.25402009D+06 0.10899383D+01  1  2  2  3  6  4        2 0.112525600900D-02 0.100000000000D+01
0.249044628393D-03 0.000000000000D+00 -.433201539572D-05 0.567853418035D-05 0.000000000000D+00  6 1 -3 25 2 -4 21 2 0.10006771D+00 0.12311649D+00 0.25402009D+06 0.25402009D+06 0.25402009D+06 0.10899383D+01  1  2  3  3  6  4        2 0.295123202299D-03 0.100000000000D+01
-.754475339737D-03 0.000000000000D+00 0.000000000000D+00 0.567853418035D-05 0.000000000000D+00  6 1 -3 25 2 -4 21 2 0.10006771D+00 0.12311649D+00 0.25402009D+06 0.25402009D+06 0.25402009D+06 0.10899383D+01  1  2 15  3  6  4        2 -.894069387306D-03 0.100000000000D+01
-.809739448354D-03 0.000000000000D+00 0.000000000000D+00 0.567853418035D-05 0.000000000000D+00  6 1 -3 25 2 -4 21 2 0.10006771D+00 0.12311649D+00 0.25402009D+06 0.25402009D+06 0.25402009D+06 0.10899383D+01  1  2  5  3  6  4        2 -.959558536028D-03 0.100000000000D+01
  </mgrwgt>
  </event>
  <event>
  5     66 0.19199499E-05 0.18214381E+03 0.75467711E-02 0.90880209E-01
        1 -1    0    0  502    0 0.00000000E+00 0.00000000E+00 0.25468986E+04 0.25468986E+04 0.32000000E+00 0.0000E+00 0.9000E+01
       -3 -1    0    0    0  501 0.00000000E+00 0.00000000E+00 -.36796424E+03 0.36796458E+03 0.50000000E+00 0.0000E+00 0.9000E+01
       25  1    1    2    0    0 0.97839819E+02 -.61014182E+03 0.59029485E+03 0.86366584E+03 0.12500000E+03 0.0000E+00 0.9000E+01
        2  1    1    2  502    0 0.15983901E+03 0.87387426E+02 0.14376452E+04 0.14491407E+04 0.32000000E+00 0.0000E+00 0.9000E+01
       -4  1    1    2    0  501 -.25767883E+03 0.52275440E+03 0.15099437E+03 0.60205668E+03 0.15500000E+01 0.0000E+00 0.9000E+01
#aMCatNLO 1  0  0  2  5 0.15715303D+02 0.00000000D+00  -5  6  0 0.00000000D+00 0.00000000D+00 0.00000000D+00 0.00000000D+00 0.00000000D+00
  <mgrwgt>
 0.2248639147D-03    9    4    0
 0.968074454760725D+03 0.000000000000000D+00 0.000000000000000D+00 0.968074454760725D+03
 0.968074454760725D+03 0.000000000000000D+00 0.000000000000000D+00 -.968074454760725D+03
 0.635970552424503D+03 0.978728572265786D+02 -.610186769990789D+03 -.832259160216425D+02
 0.563680375230553D+03 0.159818048283566D+03 0.873759635911002D+02 0.533440903802301D+03
 0.736497981866393D+03 -.257690905510145D+03 0.522810806399689D+03 -.450214987780659D+03
 0.000000000000000D+00 0.000000000000000D+00 -.000000000000000D+00 -.000000000000000D+00
 0.970158159362305D+03 0.000000000000000D+00 0.000000000000000D+00 0.970158159362305D+03
 0.998198074996707D+03 0.000000000000000D+00 0.000000000000000D+00 -.998198074996707D+03
 0.632764297456878D+03 0.934561818393361D+02 -.607540159260660D+03 -.832259160216425D+02
 0.562950761478623D+03 0.155896059372747D+03 0.897261426340979D+02 0.533440903802301D+03
 0.740497628397105D+03 -.262832570972811D+03 0.525891853973059D+03 -.450214987780659D+03
 0.321435470264056D+02 0.134803297607275D+02 -.807783734649667D+01 -.280399156344012D+02
 0.968074454760725D+03 0.000000000000000D+00 0.000000000000000D+00 0.968074454760725D+03
 0.968074454760725D+03 0.000000000000000D+00 0.000000000000000D+00 -.968074454760725D+03
 0.635970552424503D+03 0.978728572265786D+02 -.610186769990789D+03 -.832259160216425D+02
 0.563680375230553D+03 0.159818048283566D+03 0.873759635911002D+02 0.533440903802301D+03
 0.000000000000000D+00 0.000000000000000D+00 -.000000000000000D+00 -.000000000000000D+00
 0.736497981866393D+03 -.257690905510145D+03 0.522810806399689D+03 -.450214987780659D+03
 0.970158159362305D+03 0.000000000000000D+00 0.000000000000000D+00 0.970158159362305D+03
 0.998198074996707D+03 0.000000000000000D+00 0.000000000000000D+00 -.998198074996707D+03
 0.632764297456878D+03 0.934561818393361D+02 -.607540159260660D+03 -.832259160216425D+02
 0.562950761478623D+03 0.155896059372747D+03 0.897261426340979D+02 0.533440903802301D+03
 0.321435470264056D+02 0.134803297607275D+02 -.807783734649667D+01 -.280399156344012D+02
 0.740497628397105D+03 -.262832570972811D+03 0.525891853973059D+03 -.450214987780659D+03
0.971550563209D-04 0.000000000000D+00 0.000000000000D+00 0.461280249003D-06 0.000000000000D+00  6 1 -3 25 2 -4 21 0 0.39183058D+00 0.56609911D-01 0.48686465D+06 0.48686465D+06 0.48686465D+06 0.10693285D+01  1  2  2  2  6  2       -3 0.276454848625D-04 0.100000000000D+01
0.114444036603D-04 0.000000000000D+00 -.373100997786D-06 0.461280249003D-06 0.000000000000D+00  6 1 -3 25 2 -4 21 2 0.39183058D+00 0.56609911D-01 0.48686465D+06 0.48686465D+06 0.48686465D+06 0.10693285D+01  1  2  3  2  6  2       -3 0.372369616854D-05 0.100000000000D+01
-.528061710882D-04 0.000000000000D+00 0.000000000000D+00 0.461280249003D-06 0.000000000000D+00  6 1 -3 25 2 -4 21 2 0.39183058D+00 0.56609911D-01 0.48686465D+06 0.48686465D+06 0.48686465D+06 0.10693285D+01  1  2 15  2  6  2       -3 -.171816848472D-04 0.100000000000D+01
0.783623991944D-03 0.000000000000D+00 0.000000000000D+00 0.461280249003D-06 0.000000000000D+00  6 1 -3 25 2 -4 21 2 0.39183058D+00 0.58784919D-01 0.49756795D+06 0.49756795D+06 0.49756795D+06 0.10686601D+01  1  2 12  2  6  2       -3 0.234186684619D-03 0.100000000000D+01
-.382372093787D-03 0.000000000000D+00 0.000000000000D+00 0.461280249003D-06 0.000000000000D+00  6 1 -3 25 2 -4 21 2 0.39183058D+00 0.56609911D-01 0.48686465D+06 0.48686465D+06 0.48686465D+06 0.10693285D+01  1  2  4  2  6  2       -3 -.124413428856D-03 0.100000000000D+01
-.850948088590D-02 0.000000000000D+00 -.646288913463D-03 0.461280249003D-06 0.000000000000D+00  6 1 -3 25 2 -4 21 2 0.39183058D+00 0.58446711D-01 0.48686465D+06 0.48686465D+06 0.48686465D+06 0.10693285D+01  1  2  5  2  6  2       -3 -.258225551229D-02 0.100000000000D+01
0.852610007351D-02 0.000000000000D+00 0.645959572178D-03 0.461280249003D-06 0.000000000000D+00  6 1 -3 25 2 -4 21 2 0.39183058D+00 0.56609911D-01 0.48686465D+06 0.48686465D+06 0.48686465D+06 0.10693285D+01  1  2  6  2  6  2       -3 0.277415994040D-02 0.100000000000D+01
0.283377415936D-04 0.000000000000D+00 0.000000000000D+00 0.461280249003D-06 0.000000000000D+00  6 1 21 25 2 3 -4 2 0.39183058D+00 0.58784919D-01 0.49756795D+06 0.49756795D+06 0.49756795D+06 0.10686601D+01  3  4 12  6  5  2       -3 0.123866267090D-03 0.100000000000D+01
-.483556657552D-04 0.000000000000D+00 -.369060533129D-05 0.461280249003D-06 0.000000000000D+00  6 1 21 25 2 3 -4 2 0.39183058D+00 0.58446711D-01 0.48686465D+06 0.48686465D+06 0.48686465D+06 0.10693285D+01  3  4  5  6  5  2       -3 -.214867532402D-03 0.100000000000D+01
  </mgrwgt>
  </event>
  <event>
  5     66 0.19199499E-05 0.70572741E+02 0.75467711E-02 0.95151159E-01
        1 -1    0    0  502    0 0.00000000E+00 0.00000000E+00 0.19127186E+04 0.19127186E+04 0.32000000E+00 0.0000E+00 0.9000E+01
       -3 -1    0    0    0  501 0.00000000E+00 0.00000000E+00 -.19477803E+03 0.19477867E+03 0.50000000E+00 0.0000E+00 0.9000E+01
       25  1    1    2    0    0 -.24575479E+03 0.39887893E+03 0.30758618E+03 0.57422476E+03 0.12500000E+03 0.0000E+00 0.9000E+01
        2  1    1    2  502    0 0.25242655E+02 -.65936080E+02 0.80481402E+03 0.80790499E+03 0.32000000E+00 0.0000E+00 0.9000E+01
       -4  1    1    2    0  501 0.22051214E+03 -.33294285E+03 0.60554034E+03 0.72536752E+03 0.15500000E+01 0.0000E+00 0.9000E+01
#aMCatNLO 1  0  0  5  2 0.68991485D+02 0.00000000D+00  -5  6  0 0.00000000D+00 0.00000000D+00 0.00000000D+00 0.00000000D+00 0.00000000D+00
  <mgrwgt>
 0.3226915451D-02    5    2    0
 0.610373869972230D+03 0.000000000000000D+00 0.000000000000000D+00 0.610373869972230D+03
 0.610373869972230D+03 -.000000000000000D+00 -.000000000000000D+00 -.610373869972230D+03
 0.558499533118296D+03 -.245790413170186D+03 0.398930752411579D+03 -.277016346209598D+03
 0.262051138861099D+03 0.252319008267250D+02 -.659079884736831D+02 0.252369347612626D+03
 0.400197067965065D+03 0.220558512343461D+03 -.333022763937895D+03 0.246469985969725D+02
 0.000000000000000D+00 -.000000000000000D+00 0.000000000000000D+00 0.000000000000000D+00
 0.610373869972230D+03 0.000000000000000D+00 0.000000000000000D+00 0.610373869972230D+03
 0.610373869972230D+03 -.000000000000000D+00 -.000000000000000D+00 -.610373869972230D+03
 0.529972092897320D+03 -.227503232823637D+03 0.371318817243305D+03 -.274972788227841D+03
 0.267682738671022D+03 0.341318470656245D+02 -.793460764616976D+02 0.253363899852449D+03
 0.354004951442680D+03 0.224341171613865D+03 -.271384962495375D+03 -.366162053773544D+02
 0.690879569334380D+02 -.309697858558534D+02 -.205877782862326D+02 0.582250937527464D+02
0.419464161656D-03 0.000000000000D+00 0.000000000000D+00 0.392233281636D-06 0.000000000000D+00  6 1 -3 25 2 -4 21 0 0.29426445D+00 0.29965902D-01 0.22799074D+06 0.22799074D+06 0.22799074D+06 0.10934828D+01  1  2  2  4  6  5       -4 0.120959333663D-02 0.100000000000D+01
0.716371661114D-04 0.000000000000D+00 -.161085282821D-05 0.392233281636D-06 0.000000000000D+00  6 1 -3 25 2 -4 21 2 0.29426445D+00 0.29965902D-01 0.22799074D+06 0.22799074D+06 0.22799074D+06 0.10934828D+01  1  2  3  4  6  5       -4 0.247005639059D-03 0.100000000000D+01
-.267437995571D-03 0.000000000000D+00 0.000000000000D+00 0.392233281636D-06 0.000000000000D+00  6 1 -3 25 2 -4 21 2 0.29426445D+00 0.29965902D-01 0.22799074D+06 0.22799074D+06 0.22799074D+06 0.10934828D+01  1  2 15  4  6  5       -4 -.922128785803D-03 0.100000000000D+01
0.813247069518D-03 0.000000000000D+00 0.000000000000D+00 0.392233281636D-06 0.000000000000D+00  6 1 -3 25 2 -4 21 2 0.29426445D+00 0.29965902D-01 0.21563356D+06 0.21563356D+06 0.21563356D+06 0.10953238D+01  1  2 12  4  6  5       -4 0.281953719349D-02 0.100000000000D+01
-.368595062059D-04 0.000000000000D+00 0.000000000000D+00 0.392233281636D-06 0.000000000000D+00  6 1 -3 25 2 -4 21 2 0.29426445D+00 0.29965902D-01 0.22799074D+06 0.22799074D+06 0.22799074D+06 0.10934828D+01  1  2  4  4  6  5       -4 -.127091932582D-03 0.100000000000D+01
  </mgrwgt>
  </event>
  <event>
  6     66 -.19199499E-05 0.14185390E+02 0.75467711E-02 0.95026224E-01
        1 -1    0    0  502    0 0.00000000E+00 0.00000000E+00 0.10639389E+04 0.10639390E+04 0.32000000E+00 0.0000E+00 0.9000E+01
       -3 -1    0    0    0  501 0.00000000E+00 0.00000000E+00 -.55173393E+03 0.55173416E+03 0.50000000E+00 0.0000E+00 0.9000E+01
       25  1    1    2    0    0 0.90439542E+02 0.45824982E+03 0.49136104E+03 0.68937136E+03 0.12500000E+03 0.0000E+00 0.9000E+01
        2  1    1    2  502    0 -.17189496E+02 0.48092622E+00 0.35384003E+03 0.35425778E+03 0.32000000E+00 0.0000E+00 0.9000E+01
       -4  1    1    2    0  503 -.67047115E+02 -.43018754E+03 -.31837050E+03 0.53936891E+03 0.15500000E+01 0.0000E+00 0.9000E+01
       21  1    1    2  503  501 -.62029305E+01 -.28543198E+02 -.14625575E+02 0.32675073E+02 0.75000000E+00 0.0000E+00 0.9000E+01
#aMCatNLO 2  0  0  5  2 0.52811700D+01 0.00000000D+00  -5  6  0 0.00000000D+00 0.00000000D+00 0.00000000D+00 0.00000000D+00 0.00000000D+00
  <mgrwgt>
 -.1526625844D-02    5    2    0
 0.766166705725579D+03 0.000000000000000D+00 0.000000000000000D+00 0.766166705725579D+03
 0.766166705725579D+03 -.000000000000000D+00 -.000000000000000D+00 -.766166705725579D+03
 0.562872310011915D+03 0.904571712649061D+02 0.458409718591508D+03 0.287885858363614D+03
 0.255147118413605D+03 -.171729657425811D+02 0.521318673682268D+00 0.254568005666876D+03
 0.714313983025638D+03 -.732842055223250D+02 -.458931037265190D+03 -.542453864030491D+03
 0.000000000000000D+00 -.000000000000000D+00 0.000000000000000D+00 0.000000000000000D+00
 0.766166705725579D+03 0.000000000000000D+00 0.000000000000000D+00 0.766166705725579D+03
 0.766166705725579D+03 -.000000000000000D+00 -.000000000000000D+00 -.766166705725579D+03
 0.562742535762470D+03 0.904428260380578D+02 0.458319883820286D+03 0.287779674177284D+03
 0.255099451757844D+03 -.171794685022285D+02 0.480596144062084D+00 0.254519871869526D+03
 0.675575046818464D+03 -.670980286885371D+02 -.430518253532824D+03 -.516288225514517D+03
 0.389163771123801D+02 -.616532884729233D+01 -.282822264315242D+02 -.260113205322936D+02
-.441222735387D-02 0.000000000000D+00 0.000000000000D+00 0.479609933083D-04 0.000000000000D+00  6 1 -3 25 2 -4 21 2 0.16368293D+00 0.84882164D-01 0.23301912D+06 0.23301912D+06 0.23301912D+06 0.10927647D+01  1  2 13  4  6  5       -4 -.631526160230D-02 0.100000000000D+01
-.314103954842D-02 0.000000000000D+00 0.000000000000D+00 0.479609933083D-04 0.000000000000D+00  6 1 -3 25 2 -4 21 2 0.16368293D+00 0.84882164D-01 0.23309918D+06 0.23309918D+06 0.23309918D+06 0.10927534D+01  1  2  8  4  6  5       -4 -.449564205414D-02 0.100000000000D+01
-.414577424963D-02 0.000000000000D+00 0.000000000000D+00 0.479609933083D-04 0.000000000000D+00  6 1 -3 25 2 -4 21 2 0.16368293D+00 0.84882164D-01 0.23309918D+06 0.23309918D+06 0.23309918D+06 0.10927534D+01  1  2  9  4  6  5       -4 -.593367793569D-02 0.100000000000D+01
0.437778223775D-02 0.000000000000D+00 0.000000000000D+00 0.479609933083D-04 0.000000000000D+00  6 1 -3 25 2 -4 21 2 0.16368293D+00 0.84882164D-01 0.23309918D+06 0.23309918D+06 0.23309918D+06 0.10927534D+01  1  2 10  4  6  5       -4 0.626574152554D-02 0.100000000000D+01
0.625456346215D-02 0.000000000000D+00 0.000000000000D+00 0.479609933083D-04 0.708564634235D-05  6 1 -3 25 2 -4 21 2 0.16368293D+00 0.84882164D-01 0.23301912D+06 0.23301912D+06 0.23301912D+06 0.10927647D+01  1  2  1  4  6  5       -4 0.895221422283D-02 0.100000000000D+01
  </mgrwgt>
  </event>
  <event>
  5     66 0.19199499E-05 0.38369705E+02 0.75467711E-02 0.88182207E-01
        1 -1    0    0  502    0 0.00000000E+00 0.00000000E+00 0.22103713E+04 0.22103713E+04 0.32000000E+00 0.0000E+00 0.9000E+01
       -3 -1    0    0    0  501 0.00000000E+00 0.00000000E+00 -.73030913E+03 0.73030930E+03 0.50000000E+00 0.0000E+00 0.9000E+01
       25  1    1    2    0    0 0.47241550E+03 -.41992682E+03 -.39328184E+03 0.75485796E+03 0.12500000E+03 0.0000E+00 0.9000E+01
        2  1    1    2  502    0 -.43487385E+03 0.41172284E+03 0.19820341E+04 0.20705290E+04 0.32000000E+00 0.0000E+00 0.9000E+01
       -4  1    1    2    0  501 -.37541656E+02 0.82039749E+01 -.10869013E+03 0.11529366E+03 0.15500000E+01 0.0000E+00 0.9000E+01
#aMCatNLO 1  0  0  1  1 0.57419497D+03 0.00000000D+00  -5  6  0 0.00000000D+00 0.00000000D+00 0.00000000D+00 0.00000000D+00 0.00000000D+00
  <mgrwgt>
 0.3482965003D-03    7    2    0
 0.127053320257908D+04 0.000000000000000D+00 0.000000000000000D+00 0.127053320257908D+04
 0.127053320257908D+04 0.000000000000000D+00 0.000000000000000D+00 -.127053320257908D+04
 0.110310791603654D+04 0.472383260045520D+03 -.419936021151180D+03 -.895393694522673D+03
 0.124176418001983D+04 -.434897908482501D+03 0.411745620731109D+03 0.108779944465266D+04
 0.196194309101782D+03 -.374853515630186D+02 0.819040042007100D+01 -.192405750129983D+03
 0.000000000000000D+00 -.000000000000000D+00 0.000000000000000D+00 0.000000000000000D+00
 0.172117520617771D+04 0.000000000000000D+00 0.000000000000000D+00 0.172117520617771D+04
 0.149946873125781D+04 0.000000000000000D+00 0.000000000000000D+00 -.149946873125781D+04
 0.127222131447328D+04 0.642717160628450D+03 -.622982227870794D+03 -.895393694522673D+03
 0.113863269504703D+04 -.264200609153375D+03 0.208266225217665D+03 0.108779944465266D+04
 0.194279065125595D+03 -.948466346823511D+01 -.251877673065395D+02 -.192405750129983D+03
 0.615510862789626D+03 -.369031888006840D+03 0.439903769959668D+03 0.221706474919900D+03
0.271856934554D-02 0.000000000000D+00 0.000000000000D+00 0.179215667898D-04 0.000000000000D+00  6 1 -3 25 2 -4 21 0 0.34005714D+00 0.11235527D+00 0.41059695D+06 0.41059695D+06 0.41059695D+06 0.10746100D+01  1  2  2  1  6  1        1 0.253106233071D-03 0.100000000000D+01
0.661392691461D-03 0.000000000000D+00 -.104400221026D-04 0.179215667898D-04 0.000000000000D+00  6 1 -3 25 2 -4 21 2 0.34005714D+00 0.11235527D+00 0.41059695D+06 0.41059695D+06 0.41059695D+06 0.10746100D+01  1  2  3  1  6  1        1 0.711088304427D-04 0.100000000000D+01
-.190666999413D-02 0.000000000000D+00 0.000000000000D+00 0.179215667898D-04 0.000000000000D+00  6 1 -3 25 2 -4 21 2 0.34005714D+00 0.11235527D+00 0.41059695D+06 0.41059695D+06 0.41059695D+06 0.10746100D+01  1  2 15  1  6  1        1 -.204993304392D-03 0.100000000000D+01
-.720975571361D-04 0.000000000000D+00 0.000000000000D+00 0.179215667898D-04 0.000000000000D+00  6 1 -3 25 2 -4 21 2 0.34005714D+00 0.11235527D+00 0.41059695D+06 0.41059695D+06 0.41059695D+06 0.10746100D+01  1  2  4  1  6  1        1 -.775148112750D-05 0.100000000000D+01
-.216171212169D-02 0.000000000000D+00 -.159798171929D-02 0.179215667898D-04 0.000000000000D+00  6 1 -3 25 2 -4 21 2 0.48595741D+00 0.11235527D+00 0.41059695D+06 0.41059695D+06 0.41059695D+06 0.10746100D+01  1  2  5  1  6  1        1 -.487124614092D-04 0.100000000000D+01
0.265772112300D-02 0.000000000000D+00 0.150128844600D-02 0.179215667898D-04 0.000000000000D+00  6 1 -3 25 2 -4 21 2 0.34005714D+00 0.11235527D+00 0.41059695D+06 0.41059695D+06 0.41059695D+06 0.10746100D+01  1  2  6  1  6  1        1 0.285741652636D-03 0.100000000000D+01
-.482194505221D-04 0.000000000000D+00 -.700258400180D-04 0.179215667898D-04 0.000000000000D+00  6 21 -3 25 2 -4 -1 2 0.48595741D+00 0.11235527D+00 0.41059695D+06 0.41059695D+06 0.41059695D+06 0.10746100D+01  1  2  5  5  6  1        1 -.202968907107D-06 0.100000000000D+01
  </mgrwgt>
  </event>
  <event>
  5     66 -.19199499E-05 0.10737906E+03 0.75467711E-02 0.91368281E-01
        1 -1    0    0  502    0 0.00000000E+00 0.00000000E+00 0.21614205E+04 0.21614206E+04 0.32000000E+00 0.0000E+00 0.9000E+01
       -3 -1    0    0    0  501 0.00000000E+00 0.00000000E+00 -.80727954E+03 0.80727969E+03 0.50000000E+00 0.0000E+00 0.9000E+01
       25  1    1    2    0    0 0.59223798E+03 -.16316252E+03 0.14892849E+04 0.16158472E+04 0.12500000E+03 0.0000E+00 0.9000E+01
        2  1    1    2  502    0 -.39417551E+02 -.99969459E+02 0.47588266E+03 0.48786478E+03 0.32000000E+00 0.0000E+00 0.9000E+01
       -4  1    1    2    0  501 -.55282043E+03 0.26313198E+03 -.61102653E+03 0.86498825E+03 0.15500000E+01 0.0000E+00 0.9000E+01
#aMCatNLO 1  0  0  4  1 0.26174976D+01 0.00000000D+00  -5  6  0 0.00000000D+00 0.00000000D+00 0.00000000D+00 0.00000000D+00 0.00000000D+00
  <mgrwgt>
 -.1742408828D-03    8    2    0
 0.132093559455531D+04 0.000000000000000D+00 0.000000000000000D+00 0.132093559455531D+04
 0.132093559455531D+04 -.000000000000000D+00 -.000000000000000D+00 -.132093559455531D+04
 0.105258709579585D+04 0.592273817985102D+03 -.163261104608171D+03 0.845501112055693D+03
 0.304067318447845D+03 -.393878889574084D+02 -.998942308933578D+02 0.284476134299112D+03
 0.128521677486692D+04 -.552885929027694D+03 0.263155335501529D+03 -.112997724635480D+04
 0.000000000000000D+00 0.000000000000000D+00 0.000000000000000D+00 0.000000000000000D+00
 0.132093559455531D+04 0.000000000000000D+00 0.000000000000000D+00 0.132093559455531D+04
 0.132093559455531D+04 -.000000000000000D+00 -.000000000000000D+00 -.132093559455531D+04
 0.105263766989055D+04 0.592264838675911D+03 -.163283877628238D+03 0.845565964456645D+03
 0.282842151511475D+03 -.384706906315301D+02 -.945855340227749D+02 0.263767445655448D+03
 0.128514618182305D+04 -.552896892267390D+03 0.263127530904061D+03 -.112989806516153D+04
 0.212451858855328D+02 -.897255776990566D+00 -.525811925304828D+01 0.205646550494343D+02
0.177110965942D-04 0.000000000000D+00 0.000000000000D+00 0.211828919490D-05 0.000000000000D+00  6 1 -3 25 2 -4 21 0 0.33252625D+00 0.12419687D+00 0.45336534D+06 0.45336534D+06 0.45336534D+06 0.10715286D+01  1  2  2  3  6  4        2 0.132886977087D-05 0.100000000000D+01
0.175778995965D-05 0.000000000000D+00 -.680152743607D-07 0.211828919490D-05 0.000000000000D+00  6 1 -3 25 2 -4 21 2 0.33252625D+00 0.12419687D+00 0.45336534D+06 0.45336534D+06 0.45336534D+06 0.10715286D+01  1  2  3  3  6  4        2 0.151429857834D-06 0.100000000000D+01
-.123956830545D-04 0.000000000000D+00 0.000000000000D+00 0.211828919490D-05 0.000000000000D+00  6 1 -3 25 2 -4 21 2 0.33252625D+00 0.12419687D+00 0.45336534D+06 0.45336534D+06 0.45336534D+06 0.10715286D+01  1  2 15  3  6  4        2 -.106786167049D-05 0.100000000000D+01
0.191831061743D-05 0.000000000000D+00 0.000000000000D+00 0.211828919490D-05 0.000000000000D+00  6 1 -3 25 2 -4 21 2 0.33252625D+00 0.12419687D+00 0.45340593D+06 0.45340593D+06 0.45340593D+06 0.10715259D+01  1  2 12  3  6  4        2 0.165256398751D-06 0.100000000000D+01
-.191892512975D-01 0.000000000000D+00 0.000000000000D+00 0.211828919490D-05 0.000000000000D+00  6 1 -3 25 2 -4 21 2 0.33252625D+00 0.12419687D+00 0.45336534D+06 0.45336534D+06 0.45336534D+06 0.10715286D+01  1  2  4  3  6  4        2 -.165311309236D-02 0.100000000000D+01
-.809017659575D-02 0.000000000000D+00 0.000000000000D+00 0.211828919490D-05 0.000000000000D+00  6 1 -3 25 2 -4 21 2 0.33252625D+00 0.12419687D+00 0.45336534D+06 0.45336534D+06 0.45336534D+06 0.10715286D+01  1  2  5  3  6  4        2 -.696951467393D-03 0.100000000000D+01
0.914837761279D-02 0.000000000000D+00 -.000000000000D+00 0.211828919490D-05 0.000000000000D+00  6 1 -3 25 2 -4 21 2 0.33252625D+00 0.12419687D+00 0.45336534D+06 0.45336534D+06 0.45336534D+06 0.10715286D+01  1  2  6  3  6  4        2 0.788113229178D-03 0.100000000000D+01
0.161019573752D-01 0.000000000000D+00 0.000000000000D+00 0.211828919490D-05 0.330500461336D-05  6 1 -3 25 2 -4 21 2 0.33252625D+00 0.12419687D+00 0.45340593D+06 0.45340593D+06 0.45340593D+06 0.10715259D+01  1  2 11  3  6  4        2 0.138713275342D-02 0.100000000000D+01
  </mgrwgt>
  </event>
  <event>
  6     66 0.19199499E-05 0.73343621E+02 0.75467711E-02 0.92729629E-01
        1 -1    0    0  502    0 0.00000000E+00 0.00000000E+00 0.17432064E+04 0.17432064E+04 0.32000000E+00 0.0000E+00 0.9000E+01
       -3 -1    0    0    0  501 0.00000000E+00 0.00000000E+00 -.66702338E+03 0.66702357E+03 0.50000000E+00 0.0000E+00 0.9000E+01
       25  1    1    2    0    0 0.43755908E+02 0.54859172E+03 0.49707720E+02 0.56653624E+03 0.12500000E+03 0.0000E+00 0.9000E+01
        2  1    1    2  503    0 0.82943354E+02 -.32421768E+02 0.93478530E+03 0.93901780E+03 0.32000000E+00 0.0000E+00 0.9000E+01
       -4  1    1    2    0  501 -.12621399E+03 -.48483055E+03 -.25114064E+03 0.56041472E+03 0.15500000E+01 0.0000E+00 0.9000E+01
       21  1    1    2  502  503 -.48527362E+00 -.31339397E+02 0.34283062E+03 0.34426122E+03 0.75000000E+00 0.0000E+00 0.9000E+01
#aMCatNLO 2  0  0  4  1 0.26700185D+02 0.00000000D+00  -5  6  0 0.00000000D+00 0.00000000D+00 0.00000000D+00 0.00000000D+00 0.00000000D+00
  <mgrwgt>
 0.1994659608D-02    1    2    0
 0.107831334779939D+04 0.000000000000000D+00 0.000000000000000D+00 0.107831334779939D+04
 0.107831334779939D+04 -.000000000000000D+00 -.000000000000000D+00 -.107831334779939D+04
 0.608736803622862D+03 0.437416208474318D+02 0.548826952746650D+03 -.227620611170089D+03
 0.795582894875194D+03 0.825859897327730D+02 -.638600712587641D+02 0.788703739192784D+03
 0.752306997100732D+03 -.126327610580205D+03 -.484966881487886D+03 -.561083128022695D+03
 0.000000000000000D+00 0.000000000000000D+00 0.000000000000000D+00 0.000000000000000D+00
 0.107831334779939D+04 0.000000000000000D+00 0.000000000000000D+00 0.107831334779939D+04
 0.107831334779939D+04 -.000000000000000D+00 -.000000000000000D+00 -.107831334779939D+04
 0.608455907059602D+03 0.438086261357343D+02 0.548775140538556D+03 -.226980704551534D+03
 0.582663870455961D+03 0.829187951366610D+02 -.323924963723342D+02 0.575823224198689D+03
 0.751744849804350D+03 -.126244813972290D+03 -.485030904420814D+03 -.560292412860637D+03
 0.213762068278875D+03 -.482607300105805D+00 -.313517397454075D+02 0.211449893213482D+03
0.693323689006D-02 0.000000000000D+00 0.000000000000D+00 0.152681567389D-04 0.542430920708D-07  6 1 -3 25 2 -4 21 2 0.26818561D+00 0.10261900D+00 0.35170941D+06 0.35170941D+06 0.35170941D+06 0.10794790D+01  1  2  1  3  6  4        2 0.199465960768D-02 0.100000000000D+01
  </mgrwgt>
  </event>
  <event>
  5     66 0.19199499E-05 0.18757791E+02 0.75467711E-02 0.95233677E-01
        1 -1    0    0  502    0 0.00000000E+00 0.00000000E+00 0.64940215E+03 0.64940223E+03 0.32000000E+00 0.0000E+00 0.9000E+01
       -3 -1    0    0    0  501 0.00000000E+00 0.00000000E+00 -.54614410E+03 0.54614433E+03 0.50000000E+00 0.0000E+00 0.9000E+01
       25  1    1    2    0    0 -.44278991E+03 -.10685459E+03 -.19488969E+03 0.51096751E+03 0.12500000E+03 0.0000E+00 0.9000E+01
        2  1    1    2  502    0 0.43924968E+03 0.12534771E+03 0.38395333E+03 0.59671819E+03 0.32000000E+00 0.0000E+00 0.9000E+01
       -4  1    1    2    0  501 0.35402255E+01 -.18493128E+02 -.85805596E+02 0.87860866E+02 0.15500000E+01 0.0000E+00 0.9000E+01
#aMCatNLO 1  0  0  4  1 0.15790025D+03 0.00000000D+00  -5  6  0 0.00000000D+00 0.00000000D+00 0.00000000D+00 0.00000000D+00 0.00000000D+00
  <mgrwgt>
 0.1948096207D-02    6    2    0
 0.595539535378168D+03 0.000000000000000D+00 0.000000000000000D+00 0.595539535378168D+03
 0.595539535378168D+03 -.000000000000000D+00 -.000000000000000D+00 -.595539535378168D+03
 0.530163948639797D+03 -.442900477411100D+03 -.106958752253683D+03 -.240515706062403D+03
 0.565814952098248D+03 0.439362043264910D+03 0.125379778391877D+03 0.333747608420539D+03
 0.951001700182916D+02 0.353843414618996D+01 -.184210261381936D+02 -.932319023581362D+02
 0.000000000000000D+00 0.000000000000000D+00 0.000000000000000D+00 0.000000000000000D+00
 0.595539535378168D+03 0.000000000000000D+00 0.000000000000000D+00 0.595539535378168D+03
 0.595539535378168D+03 -.000000000000000D+00 -.000000000000000D+00 -.595539535378168D+03
 0.462110453266959D+03 -.387571940104936D+03 -.911697694488784D+02 -.198487116459807D+03
 0.411086778499242D+03 0.160351605338001D+03 0.898554109764733D+02 0.367703286959281D+03
 0.879546038660708D+02 0.137454422746574D+02 -.155082747141483D+02 -.854784684777519D+02
 0.229927235124065D+03 0.213474892492277D+03 0.168226331865534D+02 -.837377020217223D+02
0.691843130747D-03 0.000000000000D+00 0.000000000000D+00 0.499186204194D-05 0.000000000000D+00  6 1 -3 25 2 -4 21 0 0.99908046D-01 0.84022194D-01 0.22473640D+06 0.22473640D+06 0.22473640D+06 0.10939569D+01  1  2  2  3  6  4        2 0.190074141165D-02 0.100000000000D+01
0.269637712811D-03 0.000000000000D+00 -.265685978855D-05 0.499186204194D-05 0.000000000000D+00  6 1 -3 25 2 -4 21 2 0.99908046D-01 0.84022194D-01 0.22473640D+06 0.22473640D+06 0.22473640D+06 0.10939569D+01  1  2  3  3  6  4        2 0.886536160859D-03 0.100000000000D+01
-.429261838967D-03 0.000000000000D+00 0.000000000000D+00 0.499186204194D-05 0.000000000000D+00  6 1 -3 25 2 -4 21 2 0.99908046D-01 0.84022194D-01 0.22473640D+06 0.22473640D+06 0.22473640D+06 0.10939569D+01  1  2 15  3  6  4        2 -.141136096562D-02 0.100000000000D+01
-.234623342792D-05 0.000000000000D+00 0.000000000000D+00 0.499186204194D-05 0.000000000000D+00  6 1 -3 25 2 -4 21 2 0.99908046D-01 0.84022194D-01 0.22473640D+06 0.22473640D+06 0.22473640D+06 0.10939569D+01  1  2  4  3  6  4        2 -.771413150624D-05 0.100000000000D+01
-.368327153736D-03 0.000000000000D+00 0.000000000000D+00 0.499186204194D-05 0.000000000000D+00  6 1 -3 25 2 -4 21 2 0.99908046D-01 0.84022194D-01 0.22473640D+06 0.22473640D+06 0.22473640D+06 0.10939569D+01  1  2  5  3  6  4        2 -.121101509655D-02 0.100000000000D+01
0.544700353489D-03 0.000000000000D+00 -.000000000000D+00 0.499186204194D-05 0.000000000000D+00  6 1 -3 25 2 -4 21 2 0.99908046D-01 0.84022194D-01 0.22473640D+06 0.22473640D+06 0.22473640D+06 0.10939569D+01  1  2  6  3  6  4        2 0.179090882788D-02 0.100000000000D+01
  </mgrwgt>
  </event>
  <event>
  5     66 0.19199499E-05 0.19328383E+02 0.75467711E-02 0.86498842E-01
        3 -1    0    0  502    0 0.00000000E+00 0.00000000E+00 0.91895004E+03 0.91895017E+03 0.50000000E+00 0.0000E+00 0.9000E+01
       -1 -1    0    0    0  501 0.00000000E+00 0.00000000E+00 -.43104037E+03 0.43104049E+03 0.32000000E+00 0.0000E+00 0.9000E+01
       25  1    1    2    0    0 0.52650103E+03 0.21989374E+03 0.42746454E+03 0.72381456E+03 0.12500000E+03 0.0000E+00 0.9000E+01
        4  1    1    2  502    0 0.15826152E+02 0.12930628E+02 0.28521392E+02 0.35121796E+02 0.15500000E+01 0.0000E+00 0.9000E+01
       -2  1    1    2    0  501 -.54232718E+03 -.23282437E+03 0.31923744E+02 0.59105430E+03 0.32000000E+00 0.0000E+00 0.9000E+01
#aMCatNLO 1  0  0  2  4 0.23340060D+02 0.00000000D+00  -5  6  0 0.00000000D+00 0.00000000D+00 0.00000000D+00 0.00000000D+00 0.00000000D+00
  <mgrwgt>
 0.5531959611D-04    3    2    0
 0.629368520115695D+03 0.000000000000000D+00 0.000000000000000D+00 0.629368520115695D+03
 0.629368520115695D+03 0.000000000000000D+00 0.000000000000000D+00 -.629368520115695D+03
 0.611974822263173D+03 0.527732920311658D+03 0.220635923532093D+03 0.178061610546775D+03
 0.251263160925907D+02 0.149677021604814D+02 0.122292388382183D+02 0.160544501574398D+02
 0.621635901875625D+03 -.542700622472140D+03 -.232865162370312D+03 -.194116060704215D+03
 0.000000000000000D+00 -.000000000000000D+00 -.000000000000000D+00 0.000000000000000D+00
 0.119832598693748D+04 0.000000000000000D+00 0.000000000000000D+00 0.119832598693748D+04
 0.107770550879374D+04 0.000000000000000D+00 0.000000000000000D+00 -.107770550879374D+04
 0.107649892859205D+04 0.983839832583294D+03 0.378917128052815D+03 0.178061610546775D+03
 0.409040353876522D+02 0.328044613725272D+02 0.184190677069974D+02 0.160544501574398D+02
 0.365482712014584D+03 -.276050564809547D+03 -.140330514951464D+03 -.194116060704215D+03
 0.793145819736933D+03 -.740593729146274D+03 -.257005680808348D+03 0.120620478143739D+03
0.120541091497D-03 0.000000000000D+00 0.000000000000D+00 0.704613772159D-07 0.000000000000D+00  6 3 -1 25 4 -2 21 0 0.14137695D+00 0.66313922D-01 0.35723126D+06 0.35723126D+06 0.35723126D+06 0.10789860D+01  1  2  2  2  6  2       -1 0.704826586089D-04 0.100000000000D+01
0.485144285187D-04 0.000000000000D+00 -.462909530549D-06 0.704613772159D-07 0.000000000000D+00  6 3 -1 25 4 -2 21 2 0.14137695D+00 0.66313922D-01 0.35723126D+06 0.35723126D+06 0.35723126D+06 0.10789860D+01  1  2  3  2  6  2       -1 0.330255194352D-04 0.100000000000D+01
-.707889399993D-04 0.000000000000D+00 0.000000000000D+00 0.704613772159D-07 0.000000000000D+00  6 3 -1 25 4 -2 21 2 0.14137695D+00 0.66313922D-01 0.35723126D+06 0.35723126D+06 0.35723126D+06 0.10789860D+01  1  2 15  2  6  2       -1 -.481885819359D-04 0.100000000000D+01
  </mgrwgt>
  </event>
  <event>
  5     66 0.19199499E-05 0.10682789E+02 0.75467711E-02 0.94772809E-01
        1 -1    0    0  502    0 0.00000000E+00 0.00000000E+00 0.36518451E+04 0.36518451E+04 0.32000000E+00 0.0000E+00 0.9000E+01
       -3 -1    0    0    0  501 0.00000000E+00 0.00000000E+00 -.77621913E+02 0.77623524E+02 0.50000000E+00 0.0000E+00 0.9000E+01
       25  1    1    2    0    0 0.28833279E+03 0.37122718E+03 0.11025525E+04 0.12050695E+04 0.12500000E+03 0.0000E+00 0.9000E+01
        2  1    1    2  502    0 -.29137194E+03 -.38213206E+03 0.24644925E+04 0.25109054E+04 0.32000000E+00 0.0000E+00 0.9000E+01
       -4  1    1    2    0  501 0.30391520E+01 0.10904882E+02 0.71781735E+01 0.13493760E+02 0.15500000E+01 0.0000E+00 0.9000E+01
#aMCatNLO 1  0  0  1  4 0.85587707D+01 0.00000000D+00  -5  6  0 0.00000000D+00 0.00000000D+00 0.00000000D+00 0.00000000D+00 0.00000000D+00
  <mgrwgt>
 0.5888143065D-03   11    2    0
 0.532415469064120D+03 0.000000000000000D+00 0.000000000000000D+00 0.532415469064120D+03
 0.532415469064120D+03 0.000000000000000D+00 0.000000000000000D+00 -.532415469064120D+03
 0.520893893803619D+03 0.288649550622647D+03 0.371960990881292D+03 -.184477388288774D+03
 0.522043892255150D+03 -.291472564775152D+03 -.382264028002505D+03 0.203587284277781D+03
 0.218931520694708D+02 0.282301415250402D+01 0.103030371212131D+02 -.191098959890064D+02
 0.000000000000000D+00 -.000000000000000D+00 -.000000000000000D+00 0.000000000000000D+00
 0.560168944834820D+03 0.000000000000000D+00 0.000000000000000D+00 0.560168944834820D+03
 0.533092926372907D+03 0.000000000000000D+00 0.000000000000000D+00 -.533092926372907D+03
 0.524690463875054D+03 0.291385726651299D+03 0.375150015854279D+03 -.184477388288774D+03
 0.518203386121301D+03 -.288750355279513D+03 -.379091281084036D+03 0.203587284277781D+03
 0.219714839075000D+02 0.293780294461276D+01 0.104368239539390D+02 -.191098959890064D+02
 0.283965373038710D+02 -.557317431639920D+01 -.649555872418274D+01 0.270760184619131D+02
0.177589846968D-03 0.000000000000D+00 0.000000000000D+00 0.398885270504D-06 0.000000000000D+00  6 1 -3 25 2 -4 21 0 0.56182245D+00 0.11941958D-01 0.23937814D+06 0.23937814D+06 0.23937814D+06 0.10918804D+01  1  2  2  1  6  1        1 0.140775412115D-03 0.100000000000D+01
0.836577884433D-04 0.000000000000D+00 -.681991772838D-06 0.398885270504D-06 0.000000000000D+00  6 1 -3 25 2 -4 21 2 0.56182245D+00 0.11941958D-01 0.23937814D+06 0.23937814D+06 0.23937814D+06 0.10918804D+01  1  2  3  1  6  1        1 0.790615324532D-04 0.100000000000D+01
-.109008956614D-03 0.000000000000D+00 0.000000000000D+00 0.398885270504D-06 0.000000000000D+00  6 1 -3 25 2 -4 21 2 0.56182245D+00 0.11941958D-01 0.23937814D+06 0.23937814D+06 0.23937814D+06 0.10918804D+01  1  2 15  1  6  1        1 -.103019878023D-03 0.100000000000D+01
0.407011155623D-02 0.000000000000D+00 0.000000000000D+00 0.398885270504D-06 0.000000000000D+00  6 1 -3 25 2 -4 21 2 0.59231276D+00 0.11941958D-01 0.24360551D+06 0.24360551D+06 0.24360551D+06 0.10913067D+01  1  2 12  1  6  1        1 0.258091523856D-02 0.100000000000D+01
-.491947713242D-02 0.000000000000D+00 0.000000000000D+00 0.398885270504D-06 0.000000000000D+00  6 1 -3 25 2 -4 21 2 0.56182245D+00 0.11941958D-01 0.23937814D+06 0.23937814D+06 0.23937814D+06 0.10918804D+01  1  2  4  1  6  1        1 -.464919534923D-02 0.100000000000D+01
-.801084344980D-02 0.000000000000D+00 -.393177728361D-03 0.398885270504D-06 0.000000000000D+00  6 1 -3 25 2 -4 21 2 0.59125982D+00 0.11941958D-01 0.23937814D+06 0.23937814D+06 0.23937814D+06 0.10918804D+01  1  2  5  1  6  1        1 -.516252521269D-02 0.100000000000D+01
0.814548762830D-02 0.000000000000D+00 0.398554190391D-03 0.398885270504D-06 0.000000000000D+00  6 1 -3 25 2 -4 21 2 0.56182245D+00 0.11941958D-01 0.23937814D+06 0.23937814D+06 0.23937814D+06 0.10918804D+01  1  2  6  1  6  1        1 0.769796508437D-02 0.100000000000D+01
0.922509894216D-05 0.000000000000D+00 0.000000000000D+00 0.398885270504D-06 0.578398005375D-07  6 1 -3 25 2 -4 21 2 0.59110883D+00 0.11957153D-01 0.24360551D+06 0.24360551D+06 0.24360551D+06 0.10913067D+01  1  2 11  1  6  1        1 0.593173853230D-05 0.100000000000D+01
0.724582727182D-04 0.000000000000D+00 0.000000000000D+00 0.398885270504D-06 0.000000000000D+00  6 21 -3 25 2 -4 -1 2 0.59231276D+00 0.11941958D-01 0.24360551D+06 0.24360551D+06 0.24360551D+06 0.10913067D+01  1  2 12  5  6  1        1 0.429074898875D-05 0.100000000000D+01
-.889616746235D-04 0.000000000000D+00 -.349265912025D-05 0.398885270504D-06 0.000000000000D+00  6 21 -3 25 2 -4 -1 2 0.59125982D+00 0.11941958D-01 0.23937814D+06 0.23937814D+06 0.23937814D+06 0.10918804D+01  1  2  5  5  6  1        1 -.538938280903D-05 0.100000000000D+01
0.723514268703D-07 0.000000000000D+00 0.000000000000D+00 0.398885270504D-06 0.298740925043D-09  6 21 -3 25 2 -4 -1 2 0.59110883D+00 0.11957153D-01 0.24360551D+06 0.24360551D+06 0.24360551D+06 0.10913067D+01  1  2 11  5  6  1        1 0.437423168009D-08 0.100000000000D+01
  </mgrwgt>
  </event>
  <event>
  5     66 0.19199499E-05 0.39963162E+02 0.75467711E-02 0.88539458E-01
        1 -1    0    0  502    0 0.00000000E+00 0.00000000E+00 0.98807828E+03 0.98807833E+03 0.32000000E+00 0.0000E+00 0.9000E+01
       -3 -1    0    0    0  501 0.00000000E+00 0.00000000E+00 -.82660689E+03 0.82660704E+03 0.50000000E+00 0.0000E+00 0.9000E+01
       25  1    1    2    0    0 -.41317357E+03 0.18411057E+03 0.53075648E+03 0.70847480E+03 0.12500000E+03 0.0000E+00 0.9000E+01
        2  1    1    2  502    0 0.39374558E+03 -.21902843E+03 0.22980593E+03 0.50578642E+03 0.32000000E+00 0.0000E+00 0.9000E+01
       -4  1    1    2    0  501 0.19427988E+02 0.34917860E+02 -.59909102E+03 0.60042415E+03 0.15500000E+01 0.0000E+00 0.9000E+01
#aMCatNLO 1  0  0  2  5 0.11357483D+02 0.00000000D+00  -5  6  0 0.00000000D+00 0.00000000D+00 0.00000000D+00 0.00000000D+00 0.00000000D+00
  <mgrwgt>
 0.1605444172D-02    5    4    0
 0.903743601450530D+03 0.000000000000000D+00 0.000000000000000D+00 0.903743601450530D+03
 0.903743601450530D+03 0.000000000000000D+00 0.000000000000000D+00 -.903743601450530D+03
 0.663900530770778D+03 -.413105224465669D+03 0.184067529461492D+03 0.469683013185311D+03
 0.487182761149712D+03 0.393674346809450D+03 -.218988802223108D+03 0.185503250447259D+03
 0.656403910980570D+03 0.194308776562189D+02 0.349212727616163D+02 -.655186263632569D+03
 0.000000000000000D+00 0.000000000000000D+00 0.000000000000000D+00 -.000000000000000D+00
 0.995071962846251D+03 0.000000000000000D+00 0.000000000000000D+00 0.995071962846251D+03
 0.264589234728431D+04 0.000000000000000D+00 0.000000000000000D+00 -.264589234728431D+04
 0.823262074560782D+03 -.641363568210755D+03 0.173741428298660D+03 0.469683013185311D+03
 0.390085904722468D+03 0.259026062907233D+03 -.225080109897402D+03 0.185503250447259D+03
 0.681537822841598D+03 -.185924181094461D+03 0.256312854771779D+02 -.655186263632569D+03
 0.174607850800571D+04 0.568261686397984D+03 0.257073961215641D+02 -.165082038443806D+04
 0.903743601450530D+03 0.000000000000000D+00 0.000000000000000D+00 0.903743601450530D+03
 0.903743601450530D+03 0.000000000000000D+00 0.000000000000000D+00 -.903743601450530D+03
 0.663900530770778D+03 -.413105224465669D+03 0.184067529461492D+03 0.469683013185311D+03
 0.487182761149712D+03 0.393674346809450D+03 -.218988802223108D+03 0.185503250447259D+03
 0.000000000000000D+00 0.000000000000000D+00 0.000000000000000D+00 -.000000000000000D+00
 0.656403910980570D+03 0.194308776562189D+02 0.349212727616163D+02 -.655186263632569D+03
 0.995071962846251D+03 0.000000000000000D+00 0.000000000000000D+00 0.995071962846251D+03
 0.264589234728431D+04 0.000000000000000D+00 0.000000000000000D+00 -.264589234728431D+04
 0.823262074560782D+03 -.641363568210755D+03 0.173741428298660D+03 0.469683013185311D+03
 0.390085904722468D+03 0.259026062907233D+03 -.225080109897402D+03 0.185503250447259D+03
 0.174607850800571D+04 0.568261686397984D+03 0.257073961215641D+02 -.165082038443806D+04
 0.681537822841598D+03 -.185924181094461D+03 0.256312854771779D+02 -.655186263632569D+03
0.378858045504D-02 0.000000000000D+00 0.000000000000D+00 0.158248362923D-04 0.000000000000D+00  6 1 -3 25 2 -4 21 0 0.15201206D+00 0.12717031D+00 0.23023726D+06 0.23023726D+06 0.23023726D+06 0.10931599D+01  1  2  2  2  6  2       -3 0.176770554651D-02 0.100000000000D+01
0.183687047490D-02 0.000000000000D+00 -.145491465035D-04 0.158248362923D-04 0.000000000000D+00  6 1 -3 25 2 -4 21 2 0.15201206D+00 0.12717031D+00 0.23023726D+06 0.23023726D+06 0.23023726D+06 0.10931599D+01  1  2  3  2  6  2       -3 0.102418715162D-02 0.100000000000D+01
-.191299786781D-02 0.000000000000D+00 0.000000000000D+00 0.158248362923D-04 0.000000000000D+00  6 1 -3 25 2 -4 21 2 0.15201206D+00 0.12717031D+00 0.23023726D+06 0.23023726D+06 0.23023726D+06 0.10931599D+01  1  2 15  2  6  2       -3 -.106663363806D-02 0.100000000000D+01
-.835228208738D-02 0.000000000000D+00 -.182955047122D-02 0.158248362923D-04 0.000000000000D+00  6 1 -3 25 2 -4 21 2 0.15201206D+00 0.38047674D+00 0.23023726D+06 0.23023726D+06 0.23023726D+06 0.10931599D+01  1  2  5  2  6  2       -3 -.719876078207D-06 0.100000000000D+01
-.948972007505D-03 0.000000000000D+00 -.228011247699D-03 0.158248362923D-04 0.000000000000D+00  6 1 21 25 2 3 -4 2 0.15201206D+00 0.38047674D+00 0.23023726D+06 0.23023726D+06 0.23023726D+06 0.10931599D+01  3  4  5  6  5  2       -3 -.119095011508D-03 0.100000000000D+01
  </mgrwgt>
  </event>
  <event>
  5     66 0.19199499E-05 0.58534448E+02 0.75467711E-02 0.93308687E-01
        1 -1    0    0  502    0 0.00000000E+00 0.00000000E+00 0.10926757E+04 0.10926758E+04 0.32000000E+00 0.0000E+00 0.9000E+01
       -3 -1    0    0    0  501 0.00000000E+00 0.00000000E+00 -.72074569E+03 0.72074586E+03 0.50000000E+00 0.0000E+00 0.9000E+01
       25  1    1    2    0    0 -.28783669E+03 -.41957971E+03 0.59470441E+03 0.79258781E+03 0.12500000E+03 0.0000E+00 0.9000E+01
        2  1    1    2  502    0 0.29225174E+03 0.47794438E+03 0.19938018E+03 0.59463810E+03 0.32000000E+00 0.0000E+00 0.9000E+01
       -4  1    1    2    0  501 -.44150485E+01 -.58364675E+02 -.42215456E+03 0.42619573E+03 0.15500000E+01 0.0000E+00 0.9000E+01
#aMCatNLO 1  0  0  4  1 0.21396184D+02 0.00000000D+00  -5  6  0 0.00000000D+00 0.00000000D+00 0.00000000D+00 0.00000000D+00 0.00000000D+00
  <mgrwgt>
 0.4291572784D-03    7    2    0
 0.887435361886659D+03 0.000000000000000D+00 0.000000000000000D+00 0.887435361886659D+03
 0.887435361886659D+03 -.000000000000000D+00 -.000000000000000D+00 -.887435361886659D+03
 0.685180749210439D+03 -.287814107971303D+03 -.419539013726109D+03 0.441585455266572D+03
 0.565728469484103D+03 0.292228731657409D+03 0.477906750400460D+03 0.790961914405505D+02
 0.523961505078777D+03 -.441462368610559D+01 -.583677366743512D+02 -.520681646707122D+03
 0.000000000000000D+00 0.000000000000000D+00 0.000000000000000D+00 0.000000000000000D+00
 0.887435361886659D+03 0.000000000000000D+00 0.000000000000000D+00 0.887435361886659D+03
 0.887435361886659D+03 -.000000000000000D+00 -.000000000000000D+00 -.887435361886659D+03
 0.681754383609558D+03 -.285056549712673D+03 -.415029341802517D+03 0.442331830733132D+03
 0.546320663457734D+03 0.283345831025578D+03 0.456864927228393D+03 0.972411725038207D+02
 0.523005932069010D+03 -.230254562657967D+01 -.549136739738928D+02 -.520109980363480D+03
 0.237897446370169D+02 0.401326431367443D+01 0.130780885480164D+02 -.194630228734722D+02
0.259125329470D-03 0.000000000000D+00 0.000000000000D+00 0.233085597377D-05 0.000000000000D+00  6 1 -3 25 2 -4 21 0 0.16810398D+00 0.11088397D+00 0.32638932D+06 0.32638932D+06 0.32638932D+06 0.10818533D+01  1  2  2  3  6  4        2 0.146154540894D-03 0.100000000000D+01
0.887549674092D-04 0.000000000000D+00 -.995109494431D-06 0.233085597377D-05 0.000000000000D+00  6 1 -3 25 2 -4 21 2 0.16810398D+00 0.11088397D+00 0.32638932D+06 0.32638932D+06 0.32638932D+06 0.10818533D+01  1  2  3  3  6  4        2 0.585911287129D-04 0.100000000000D+01
-.154488309142D-03 0.000000000000D+00 0.000000000000D+00 0.233085597377D-05 0.000000000000D+00  6 1 -3 25 2 -4 21 2 0.16810398D+00 0.11088397D+00 0.32638932D+06 0.32638932D+06 0.32638932D+06 0.10818533D+01  1  2 15  3  6  4        2 -.101984651336D-03 0.100000000000D+01
0.386580325845D-03 0.000000000000D+00 0.000000000000D+00 0.233085597377D-05 0.000000000000D+00  6 1 -3 25 2 -4 21 2 0.16810398D+00 0.11088397D+00 0.31641625D+06 0.31641625D+06 0.31641625D+06 0.10828442D+01  1  2 12  3  6  4        2 0.256059464806D-03 0.100000000000D+01
-.219754053893D-04 0.000000000000D+00 0.000000000000D+00 0.233085597377D-05 0.000000000000D+00  6 1 -3 25 2 -4 21 2 0.16810398D+00 0.11088397D+00 0.32638932D+06 0.32638932D+06 0.32638932D+06 0.10818533D+01  1  2  4  3  6  4        2 -.145069492251D-04 0.100000000000D+01
-.299343914220D-02 0.000000000000D+00 0.000000000000D+00 0.233085597377D-05 0.000000000000D+00  6 1 -3 25 2 -4 21 2 0.16810398D+00 0.11088397D+00 0.32638932D+06 0.32638932D+06 0.32638932D+06 0.10818533D+01  1  2  5  3  6  4        2 -.197610323337D-02 0.100000000000D+01
0.312196207646D-02 0.000000000000D+00 -.000000000000D+00 0.233085597377D-05 0.000000000000D+00  6 1 -3 25 2 -4 21 2 0.16810398D+00 0.11088397D+00 0.32638932D+06 0.32638932D+06 0.32638932D+06 0.10818533D+01  1  2  6  3  6  4        2 0.206094697793D-02 0.100000000000D+01
  </mgrwgt>
  </event>
  <event>
  6     66 0.19199499E-05 0.25692455E+02 0.75467711E-02 0.93138892E-01
        1 -1    0    0  502    0 0.00000000E+00 0.00000000E+00 0.20130152E+04 0.20130152E+04 0.32000000E+00 0.0000E+00 0.9000E+01
       -3 -1    0    0    0  501 0.00000000E+00 0.00000000E+00 -.39463522E+03 0.39463553E+03 0.50000000E+00 0.0000E+00 0.9000E+01
       25  1    1    2    0    0 -.35887091E+02 -.53909103E+03 0.10085247E+03 0.56365170E+03 0.12500000E+03 0.0000E+00 0.9000E+01
        2  1    1    2  502    0 0.57720702E+02 0.55673450E+03 0.16322012E+04 0.17255045E+04 0.32000000E+00 0.0000E+00 0.9000E+01
       -4  1    1    2    0  503 -.17858156E+02 -.14399331E+02 -.73949580E+02 0.77441574E+02 0.15500000E+01 0.0000E+00 0.9000E+01
       21  1    1    2  503  501 -.39754560E+01 -.32441394E+01 -.40724121E+02 0.41052956E+02 0.75000000E+00 0.0000E+00 0.9000E+01
#aMCatNLO 2  0  0  5  2 0.46638049D+01 0.00000000D+00  -5  6  0 0.00000000D+00 0.00000000D+00 0.00000000D+00 0.00000000D+00 0.00000000D+00
  <mgrwgt>
 0.2144417594D-02    2    2    0
 0.891295187624338D+03 0.000000000000000D+00 0.000000000000000D+00 0.891295187624338D+03
 0.891295187624338D+03 -.000000000000000D+00 -.000000000000000D+00 -.891295187624338D+03
 0.670263668265917D+03 -.359366066196373D+02 -.539231511068833D+03 -.376253003672226D+03
 0.848915603805529D+03 0.577376475639310D+02 0.556833601794969D+03 0.638169574917460D+03
 0.263411103177230D+03 -.218010409442936D+02 -.176020907261360D+02 -.261916571245234D+03
 0.000000000000000D+00 0.000000000000000D+00 0.000000000000000D+00 -.000000000000000D+00
 0.891295187624338D+03 0.000000000000000D+00 0.000000000000000D+00 0.891295187624338D+03
 0.891295187624338D+03 -.000000000000000D+00 -.000000000000000D+00 -.891295187624338D+03
 0.670305246434169D+03 -.359421893899226D+02 -.539236018579704D+03 -.376320074783872D+03
 0.848847525050816D+03 0.577305772660573D+02 0.556827893259081D+03 0.638084632726785D+03
 0.168743471143201D+03 -.175839515374672D+02 -.141659324943524D+02 -.167225865398716D+03
 0.946941326204918D+02 -.420443633866739D+01 -.342594218502379D+01 -.945386925441973D+02
-.142233028520D-02 0.000000000000D+00 0.000000000000D+00 0.256021220422D-04 0.000000000000D+00  6 1 -3 25 2 -4 21 2 0.30969468D+00 0.60713137D-01 0.32633603D+06 0.32633603D+06 0.32633603D+06 0.10818585D+01  1  2 13  4  6  5       -4 -.961826350068D-03 0.100000000000D+01
0.459345372974D-02 0.000000000000D+00 0.000000000000D+00 0.256021220422D-04 0.121688256823D-04  6 1 -3 25 2 -4 21 2 0.30969468D+00 0.60713137D-01 0.32633603D+06 0.32633603D+06 0.32633603D+06 0.10818585D+01  1  2  1  4  6  5       -4 0.310624394421D-02 0.100000000000D+01
  </mgrwgt>
  </event>
  <event>
  5     66 0.19199499E-05 0.52006479E+02 0.75467711E-02 0.93945313E-01
        1 -1    0    0  502    0 0.00000000E+00 0.00000000E+00 0.13403072E+04 0.13403072E+04 0.32000000E+00 0.0000E+00 0.9000E+01
       -3 -1    0    0    0  501 0.00000000E+00 0.00000000E+00 -.68301708E+03 0.68301726E+03 0.50000000E+00 0.0000E+00 0.9000E+01
       25  1    1    2    0    0 -.58685470E+02 0.48980121E+03 0.28464626E+03 0.58309322E+03 0.12500000E+03 0.0000E+00 0.9000E+01
        2  1    1    2  502    0 0.10986244E+03 -.49906290E+03 0.83283286E+03 0.97711013E+03 0.32000000E+00 0.0000E+00 0.9000E+01
       -4  1    1    2    0  501 -.51176974E+02 0.92616987E+01 -.46018901E+03 0.46312114E+03 0.15500000E+01 0.0000E+00 0.9000E+01
#aMCatNLO 1  0  0  4  1 0.48946082D+02 0.00000000D+00  -5  6  0 0.00000000D+00 0.00000000D+00 0.00000000D+00 0.00000000D+00 0.00000000D+00
  <mgrwgt>
 0.8770945927D-02    7    2    0
 0.956793042666413D+03 0.000000000000000D+00 0.000000000000000D+00 0.956793042666413D+03
 0.956793042666413D+03 -.000000000000000D+00 -.000000000000000D+00 -.956793042666413D+03
 0.518764478937914D+03 -.586886005774915D+02 0.489810143691999D+03 0.100664074556936D+03
 0.747088800345599D+03 0.109864042570413D+03 -.499070167445786D+03 0.544977555242000D+03
 0.647732806049314D+03 -.511754419929216D+02 0.926002375378636D+01 -.645641629798936D+03
 0.000000000000000D+00 0.000000000000000D+00 -.000000000000000D+00 0.000000000000000D+00
 0.956793042666413D+03 0.000000000000000D+00 0.000000000000000D+00 0.956793042666413D+03
 0.956793042666413D+03 -.000000000000000D+00 -.000000000000000D+00 -.956793042666413D+03
 0.516105166684991D+03 -.579095835383637D+02 0.486271368356006D+03 0.104528367109284D+03
 0.678226179655710D+03 0.113295277822619D+03 -.415904178943378D+03 0.523620706934810D+03
 0.642804482776040D+03 -.502039664627646D+02 0.484698337987000D+01 -.640822652206126D+03
 0.764502562160846D+02 -.518172782149115D+01 -.752141727924986D+02 0.126735781620319D+02
0.260931600484D-02 0.000000000000D+00 0.000000000000D+00 0.453506332222D-04 0.000000000000D+00  6 1 -3 25 2 -4 21 0 0.20620112D+00 0.10507957D+00 0.28725861D+06 0.28725861D+06 0.28725861D+06 0.10859491D+01  1  2  2  3  6  4        2 0.114309525709D-02 0.100000000000D+01
0.110462072647D-02 0.000000000000D+00 -.100204605073D-04 0.453506332222D-04 0.000000000000D+00  6 1 -3 25 2 -4 21 2 0.20620112D+00 0.10507957D+00 0.28725861D+06 0.28725861D+06 0.28725861D+06 0.10859491D+01  1  2  3  3  6  4        2 0.570673716826D-03 0.100000000000D+01
-.149771565439D-02 0.000000000000D+00 0.000000000000D+00 0.453506332222D-04 0.000000000000D+00  6 1 -3 25 2 -4 21 2 0.20620112D+00 0.10507957D+00 0.28725861D+06 0.28725861D+06 0.28725861D+06 0.10859491D+01  1  2 15  3  6  4        2 -.773756040207D-03 0.100000000000D+01
0.181501478177D-01 0.000000000000D+00 0.000000000000D+00 0.453506332222D-04 0.000000000000D+00  6 1 -3 25 2 -4 21 2 0.20620112D+00 0.10507957D+00 0.28211939D+06 0.28211939D+06 0.28211939D+06 0.10865319D+01  1  2 12  3  6  4        2 0.939610219599D-02 0.100000000000D+01
-.571008141864D-02 0.000000000000D+00 0.000000000000D+00 0.453506332222D-04 0.000000000000D+00  6 1 -3 25 2 -4 21 2 0.20620112D+00 0.10507957D+00 0.28725861D+06 0.28725861D+06 0.28725861D+06 0.10859491D+01  1  2  4  3  6  4        2 -.294996581947D-02 0.100000000000D+01
-.249262024338D-01 0.000000000000D+00 0.000000000000D+00 0.453506332222D-04 0.000000000000D+00  6 1 -3 25 2 -4 21 2 0.20620112D+00 0.10507957D+00 0.28725861D+06 0.28725861D+06 0.28725861D+06 0.10859491D+01  1  2  5  3  6  4        2 -.128774775345D-01 0.100000000000D+01
0.276066746546D-01 0.000000000000D+00 -.000000000000D+00 0.453506332222D-04 0.000000000000D+00  6 1 -3 25 2 -4 21 2 0.20620112D+00 0.10507957D+00 0.28725861D+06 0.28725861D+06 0.28725861D+06 0.10859491D+01  1  2  6  3  6  4        2 0.142622741516D-01 0.100000000000D+01
  </mgrwgt>
  </event>
  <event>
  5     66 0.19199499E-05 0.36153325E+02 0.75467711E-02 0.92978727E-01
        1 -1    0    0  502    0 0.00000000E+00 0.00000000E+00 0.30318905E+04 0.30318905E+04 0.32000000E+00 0.0000E+00 0.9000E+01
       -3 -1    0    0    0  501 0.00000000E+00 0.00000000E+00 -.20139980E+03 0.20140042E+03 0.50000000E+00 0.0000E+00 0.9000E+01
       25  1    1    2    0    0 0.39055742E+03 -.35446999E+03 0.74763540E+03 0.92345426E+03 0.12500000E+03 0.0000E+00 0.9000E+01
        2  1    1    2  502    0 -.21757451E+02 0.28881268E+02 0.16620880E+04 0.16624813E+04 0.32000000E+00 0.0000E+00 0.9000E+01
       -4  1    1    2    0  501 -.36879997E+03 0.32558872E+03 0.42076730E+03 0.64735536E+03 0.15500000E+01 0.0000E+00 0.9000E+01
#aMCatNLO 1  0  0  4  1 0.95012355D+01 0.00000000D+00  -5  6  0 0.00000000D+00 0.00000000D+00 0.00000000D+00 0.00000000D+00 0.00000000D+00
  <mgrwgt>
 0.2931440274D-02    6    2    0
 0.781423805055134D+03 0.000000000000000D+00 0.000000000000000D+00 0.781423805055134D+03
 0.781423805055134D+03 -.000000000000000D+00 -.000000000000000D+00 -.781423805055134D+03
 0.556471335014577D+03 0.390596864531144D+03 -.354504210270748D+03 -.125682938427051D+03
 0.429117436305714D+03 -.217536944488649D+02 0.288762819753056D+02 0.427591757706690D+03
 0.577258838789977D+03 -.368843170082279D+03 0.325627928295443D+03 -.301908819279638D+03
 0.000000000000000D+00 0.000000000000000D+00 0.000000000000000D+00 0.000000000000000D+00
 0.781423805055134D+03 0.000000000000000D+00 0.000000000000000D+00 0.781423805055134D+03
 0.781423805055134D+03 -.000000000000000D+00 -.000000000000000D+00 -.781423805055134D+03
 0.554423244573913D+03 0.390248310561905D+03 -.354041532874823D+03 -.118831743347851D+03
 0.194770039832430D+03 -.126798128659541D+02 0.756716124574433D+02 0.179020663137251D+03
 0.574081730891255D+03 -.369204414373935D+03 0.326107451075003D+03 -.294808182558190D+03
 0.239572594812670D+03 -.836408332201573D+01 -.477375306576236D+02 0.234619262768790D+03
0.308277767957D-02 0.000000000000D+00 0.000000000000D+00 0.154542687545D-04 0.000000000000D+00  6 1 -3 25 2 -4 21 0 0.46644474D+00 0.30984633D-01 0.28636453D+06 0.28636453D+06 0.28636453D+06 0.10860497D+01  1  2  2  3  6  4        2 0.137664000885D-02 0.100000000000D+01
0.149952399833D-02 0.000000000000D+00 -.118386780036D-04 0.154542687545D-04 0.000000000000D+00  6 1 -3 25 2 -4 21 2 0.46644474D+00 0.30984633D-01 0.28636453D+06 0.28636453D+06 0.28636453D+06 0.10860497D+01  1  2  3  3  6  4        2 0.789825187408D-03 0.100000000000D+01
-.209082007141D-02 0.000000000000D+00 0.000000000000D+00 0.154542687545D-04 0.000000000000D+00  6 1 -3 25 2 -4 21 2 0.46644474D+00 0.30984633D-01 0.28636453D+06 0.28636453D+06 0.28636453D+06 0.10860497D+01  1  2 15  3  6  4        2 -.110127104106D-02 0.100000000000D+01
-.306515502491D-03 0.000000000000D+00 0.000000000000D+00 0.154542687545D-04 0.000000000000D+00  6 1 -3 25 2 -4 21 2 0.46644474D+00 0.30984633D-01 0.28636453D+06 0.28636453D+06 0.28636453D+06 0.10860497D+01  1  2  4  3  6  4        2 -.161447008829D-03 0.100000000000D+01
-.571600775445D-02 0.000000000000D+00 0.000000000000D+00 0.154542687545D-04 0.000000000000D+00  6 1 -3 25 2 -4 21 2 0.46644474D+00 0.30984633D-01 0.28636453D+06 0.28636453D+06 0.28636453D+06 0.10860497D+01  1  2  5  3  6  4        2 -.301072000242D-02 0.100000000000D+01
0.956568810780D-02 0.000000000000D+00 -.000000000000D+00 0.154542687545D-04 0.000000000000D+00  6 1 -3 25 2 -4 21 2 0.46644474D+00 0.30984633D-01 0.28636453D+06 0.28636453D+06 0.28636453D+06 0.10860497D+01  1  2  6  3  6  4        2 0.503841313033D-02 0.100000000000D+01
  </mgrwgt>
  </event>
  <event>
  6     66 0.19199499E-05 0.34345463E+02 0.75467711E-02 0.93116605E-01
        1 -1    0    0  502    0 0.00000000E+00 0.00000000E+00 0.11674012E+04 0.11674012E+04 0.32000000E+00 0.0000E+00 0.9000E+01
       -3 -1    0    0    0  503 0.00000000E+00 0.00000000E+00 -.14988020E+04 0.14988021E+04 0.50000000E+00 0.0000E+00 0.9000E+01
       25  1    1    2    0    0 0.40502788E+03 0.27698023E+03 0.49301902E+03 0.70672370E+03 0.12500000E+03 0.0000E+00 0.9000E+01
        2  1    1    2  502    0 0.24937045E+02 0.10599328E+02 0.40255596E+03 0.40346699E+03 0.32000000E+00 0.0000E+00 0.9000E+01
       -4  1    1    2    0  501 -.47569520E+03 -.30178455E+03 -.32023264E+03 0.64800554E+03 0.15500000E+01 0.0000E+00 0.9000E+01
       21  1    1    2  501  503 0.45730276E+02 0.14204997E+02 -.90674319E+03 0.90800705E+03 0.75000000E+00 0.0000E+00 0.9000E+01
#aMCatNLO 2  0  0  2  1 0.47885698D+02 0.00000000D+00  -5  6  0 0.00000000D+00 0.00000000D+00 0.00000000D+00 0.00000000D+00 0.00000000D+00
  <mgrwgt>
 0.4146257280D-03    1    2    0
 0.830352651568242D+03 0.000000000000000D+00 0.000000000000000D+00 0.830352651568242D+03
 0.830352651568242D+03 0.000000000000000D+00 0.000000000000000D+00 -.830352651568242D+03
 0.591074024703515D+03 0.421193351568786D+03 0.282027263757805D+03 0.277128644803726D+03
 0.288299055955919D+03 0.328474085090831D+02 0.130548372286856D+02 0.286124037166129D+03
 0.781332222477049D+03 -.454040760077869D+03 -.295082100986491D+03 -.563252681969855D+03
 0.000000000000000D+00 0.000000000000000D+00 0.000000000000000D+00 -.000000000000000D+00
 0.831147574145111D+03 0.000000000000000D+00 0.000000000000000D+00 0.831147574145111D+03
 0.210516512270947D+04 0.000000000000000D+00 0.000000000000000D+00 -.210516512270947D+04
 0.577309088400444D+03 0.405110010219767D+03 0.277031365369956D+03 0.277128644803726D+03
 0.287402707870018D+03 0.249226038118919D+02 0.105931896051257D+02 0.286124037166129D+03
 0.796683744806735D+03 -.475762889721290D+03 -.301829551663015D+03 -.563252681969855D+03
 0.127491715577739D+04 0.457302756896315D+02 0.142049966879331D+02 -.127401754856436D+04
0.117041414853D-01 0.000000000000D+00 0.000000000000D+00 0.193779297322D-04 0.955100831948D-07  6 1 -3 25 2 -4 21 2 0.17960016D+00 0.23058490D+00 0.32766374D+06 0.32766374D+06 0.32766374D+06 0.10817291D+01  1  2  1  2  6  2       -3 0.414625727986D-03 0.100000000000D+01
  </mgrwgt>
  </event>
  <event>
  6     66 0.19199499E-05 0.33375302E+02 0.75467711E-02 0.92276124E-01
        3 -1    0    0  502    0 0.00000000E+00 0.00000000E+00 0.14469898E+04 0.14469899E+04 0.50000000E+00 0.0000E+00 0.9000E+01
       -1 -1    0    0    0  501 0.00000000E+00 0.00000000E+00 -.48721865E+03 0.48721875E+03 0.32000000E+00 0.0000E+00 0.9000E+01
       25  1    1    2    0    0 0.14687507E+03 0.59136619E+03 0.57658955E+02 0.62468858E+03 0.12500000E+03 0.0000E+00 0.9000E+01
        4  1    1    2  502    0 -.12117058E+02 -.11607911E+02 0.66713908E+03 0.66735187E+03 0.15500000E+01 0.0000E+00 0.9000E+01
       -2  1    1    2    0  503 -.72348500E+02 -.21286449E+03 0.74081630E+02 0.23671457E+03 0.32000000E+00 0.0000E+00 0.9000E+01
       21  1    1    2  503  501 -.62409508E+02 -.36689380E+03 0.16089148E+03 0.40545362E+03 0.75000000E+00 0.0000E+00 0.9000E+01
#aMCatNLO 2  0  0  5  2 0.12659226D+01 0.00000000D+00  -5  6  0 0.00000000D+00 0.00000000D+00 0.00000000D+00 0.00000000D+00 0.00000000D+00
  <mgrwgt>
 0.2018142016D-03    1    2    0
 0.839643135045371D+03 0.000000000000000D+00 0.000000000000000D+00 0.839643135045371D+03
 0.839643135045371D+03 -.000000000000000D+00 -.000000000000000D+00 -.839643135045371D+03
 0.687667935423139D+03 0.147210082903166D+03 0.592823856073277D+03 -.290088359937409D+03
 0.386638257947106D+03 -.119692480865058D+02 -.110548885450847D+02 0.386294795522632D+03
 0.604980076720498D+03 -.135240834816661D+03 -.581768967528192D+03 -.962064355852233D+02
 0.000000000000000D+00 0.000000000000000D+00 -.000000000000000D+00 0.000000000000000D+00
 0.839643135045371D+03 0.000000000000000D+00 0.000000000000000D+00 0.839643135045371D+03
 0.839643135045371D+03 -.000000000000000D+00 -.000000000000000D+00 -.839643135045371D+03
 0.686876199125253D+03 0.146991450551243D+03 0.591883359677945D+03 -.290243888696978D+03
 0.386570167050688D+03 -.120922331345921D+02 -.115839364805221D+02 0.386207307500818D+03
 0.230157628129894D+03 -.723261429537287D+02 -.212758565682460D+03 -.497519402692778D+02
 0.375682275784907D+03 -.625730744629222D+02 -.367540857514963D+03 -.462114785345616D+02
0.178830870407D-02 0.000000000000D+00 0.000000000000D+00 0.521876237789D-05 0.979246256485D-08  6 3 -1 25 4 -2 21 2 0.22261383D+00 0.74956730D-01 0.38243822D+06 0.38243822D+06 0.38243822D+06 0.10768361D+01  1  2  1  4  6  5       -2 0.201814201596D-03 0.100000000000D+01
  </mgrwgt>
  </event>
  <event>
  5     66 0.19199499E-05 0.47168423E+02 0.75467711E-02 0.94134899E-01
        1 -1    0    0  502    0 0.00000000E+00 0.00000000E+00 0.37714342E+04 0.37714342E+04 0.32000000E+00 0.0000E+00 0.9000E+01
       -3 -1    0    0    0  501 0.00000000E+00 0.00000000E+00 -.13075522E+03 0.13075618E+03 0.50000000E+00 0.0000E+00 0.9000E+01
       25  1    1    2    0    0 -.46697211E+03 -.33466019E+02 0.12506251E+04 0.13412200E+04 0.12500000E+03 0.0000E+00 0.9000E+01
        2  1    1    2  502    0 -.38427187E+02 -.27380955E+02 0.17142272E+04 0.17148764E+04 0.32000000E+00 0.0000E+00 0.9000E+01
       -4  1    1    2    0  501 0.50539930E+03 0.60846974E+02 0.67582669E+03 0.84609392E+03 0.15500000E+01 0.0000E+00 0.9000E+01
#aMCatNLO 1  0  0  5  5 0.17632149D+02 0.00000000D+00  -5  6  0 0.00000000D+00 0.00000000D+00 0.00000000D+00 0.00000000D+00 0.00000000D+00
  <mgrwgt>
 0.5545019857D-02    6    2    0
 0.702236854867671D+03 0.000000000000000D+00 0.000000000000000D+00 0.702236854867671D+03
 0.702236854867671D+03 -.000000000000000D+00 -.000000000000000D+00 -.702236854867671D+03
 0.484653012515170D+03 -.467053520555642D+03 -.334794155488494D+02 -.191838763478293D+01
 0.320882432804409D+03 -.384141943210779D+02 -.273716970095378D+02 0.317396716366059D+03
 0.598938264415763D+03 0.505467714876720D+03 0.608511125583872D+02 -.315478328731276D+03
 0.000000000000000D+00 0.000000000000000D+00 0.000000000000000D+00 -.000000000000000D+00
 0.702236854867671D+03 0.000000000000000D+00 0.000000000000000D+00 0.702236854867671D+03
 0.702236854867671D+03 -.000000000000000D+00 -.000000000000000D+00 -.702236854867671D+03
 0.479838613389395D+03 -.462075467762298D+03 -.328801289041558D+02 -.502534724735366D+01
 0.318430905514637D+03 -.351144916962296D+02 -.269744598172814D+02 0.315337267980416D+03
 0.588551947754465D+03 0.497936359663645D+03 0.764412907897149D+02 -.304318100008681D+03
 0.176522430768453D+02 -.746400205117947D+00 -.165867020682776D+02 -.599382072438157D+01
0.258595177468D-01 0.000000000000D+00 0.000000000000D+00 0.684191365863D-05 0.000000000000D+00  6 1 -3 25 2 -4 21 0 0.58022072D+00 0.20116262D-01 0.27088641D+06 0.27088641D+06 0.27088641D+06 0.10878472D+01  1  2  2  4  6  5       -4 0.651450434915D-02 0.100000000000D+01
0.871803594391D-02 0.000000000000D+00 -.993073571153D-04 0.684191365863D-05 0.000000000000D+00  6 1 -3 25 2 -4 21 2 0.58022072D+00 0.20116262D-01 0.27088641D+06 0.27088641D+06 0.27088641D+06 0.10878472D+01  1  2  3  4  6  5       -4 0.259905468126D-02 0.100000000000D+01
-.160638211189D-01 0.000000000000D+00 0.000000000000D+00 0.684191365863D-05 0.000000000000D+00  6 1 -3 25 2 -4 21 2 0.58022072D+00 0.20116262D-01 0.27088641D+06 0.27088641D+06 0.27088641D+06 0.10878472D+01  1  2 15  4  6  5       -4 -.478900864217D-02 0.100000000000D+01
-.452177751026D-02 0.000000000000D+00 0.000000000000D+00 0.684191365863D-05 0.000000000000D+00  6 1 -3 25 2 -4 21 2 0.58022072D+00 0.20116262D-01 0.27088641D+06 0.27088641D+06 0.27088641D+06 0.10878472D+01  1  2  4  4  6  5       -4 -.134804984532D-02 0.100000000000D+01
-.288083157464D+00 0.000000000000D+00 0.000000000000D+00 0.684191365863D-05 0.000000000000D+00  6 1 -3 25 2 -4 21 2 0.58022072D+00 0.20116262D-01 0.27088641D+06 0.27088641D+06 0.27088641D+06 0.10878472D+01  1  2  5  4  6  5       -4 -.858844679945D-01 0.100000000000D+01
0.296698768311D+00 0.000000000000D+00 -.000000000000D+00 0.684191365863D-05 0.000000000000D+00  6 1 -3 25 2 -4 21 2 0.58022072D+00 0.20116262D-01 0.27088641D+06 0.27088641D+06 0.27088641D+06 0.10878472D+01  1  2  6  4  6  5       -4 0.884529873087D-01 0.100000000000D+01
  </mgrwgt>
  </event>
  <event>
  5     66 0.19199499E-05 0.16980842E+03 0.75467711E-02 0.93471672E-01
        1 -1    0    0  502    0 0.00000000E+00 0.00000000E+00 0.18420323E+04 0.18420324E+04 0.32000000E+00 0.0000E+00 0.9000E+01
       -3 -1    0    0    0  501 0.00000000E+00 0.00000000E+00 -.58574728E+03 0.58574750E+03 0.50000000E+00 0.0000E+00 0.9000E+01
       25  1    1    2    0    0 -.40385681E+03 0.35722914E+03 0.84304151E+02 0.55986174E+03 0.12500000E+03 0.0000E+00 0.9000E+01
        2  1    1    2  502    0 0.89442235E+02 -.14434263E+03 0.14097285E+04 0.14199187E+04 0.32000000E+00 0.0000E+00 0.9000E+01
       -4  1    1    2    0  501 0.31441457E+03 -.21288652E+03 -.23774754E+03 0.44799943E+03 0.15500000E+01 0.0000E+00 0.9000E+01
#aMCatNLO 1  0  0  5  2 0.84758353D+02 0.00000000D+00  -5  6  0 0.00000000D+00 0.00000000D+00 0.00000000D+00 0.00000000D+00 0.00000000D+00
  <mgrwgt>
 0.4848543310D-03    4    2    0
 0.103873275618549D+04 0.000000000000000D+00 0.000000000000000D+00 0.103873275618549D+04
 0.103873275618549D+04 -.000000000000000D+00 -.000000000000000D+00 -.103873275618549D+04
 0.603289535577258D+03 -.403856111425980D+03 0.357228975689007D+03 -.240043670879058D+03
 0.806865222265241D+03 0.894425312550057D+02 -.144343106850317D+03 0.788794388930748D+03
 0.667310754528487D+03 0.314413580170974D+03 -.212885868838689D+03 -.548750718051690D+03
 0.000000000000000D+00 0.000000000000000D+00 0.000000000000000D+00 0.000000000000000D+00
 0.103873275618549D+04 0.000000000000000D+00 0.000000000000000D+00 0.103873275618549D+04
 0.103873275618549D+04 -.000000000000000D+00 -.000000000000000D+00 -.103873275618549D+04
 0.598266229001400D+03 -.388075202816211D+03 0.346543901467251D+03 -.267586326404337D+03
 0.776850151532893D+03 0.110242620867625D+03 -.158426611598099D+03 0.752491681826757D+03
 0.615314014519896D+03 0.285145604745277D+03 -.115822123139520D+03 -.532811933378463D+03
 0.870351173167971D+02 -.731302279669034D+01 -.722951667296318D+02 0.479065779560435D+02
0.417996047269D-02 0.000000000000D+00 0.000000000000D+00 0.850135875249D-05 0.000000000000D+00  6 1 -3 25 2 -4 21 0 0.28338961D+00 0.90114985D-01 0.30414751D+06 0.30414751D+06 0.30414751D+06 0.10841110D+01  1  2  2  4  6  5       -4 0.125019777358D-02 0.100000000000D+01
0.588464173341D-03 0.000000000000D+00 -.160521488240D-04 0.850135875249D-05 0.000000000000D+00  6 1 -3 25 2 -4 21 2 0.28338961D+00 0.90114985D-01 0.30414751D+06 0.30414751D+06 0.30414751D+06 0.10841110D+01  1  2  3  4  6  5       -4 0.206858824761D-03 0.100000000000D+01
-.253507238647D-02 0.000000000000D+00 0.000000000000D+00 0.850135875249D-05 0.000000000000D+00  6 1 -3 25 2 -4 21 2 0.28338961D+00 0.90114985D-01 0.30414751D+06 0.30414751D+06 0.30414751D+06 0.10841110D+01  1  2 15  4  6  5       -4 -.891136824137D-03 0.100000000000D+01
-.230611911566D-03 0.000000000000D+00 0.000000000000D+00 0.850135875249D-05 0.000000000000D+00  6 1 -3 25 2 -4 21 2 0.28338961D+00 0.90114985D-01 0.30414751D+06 0.30414751D+06 0.30414751D+06 0.10841110D+01  1  2  4  4  6  5       -4 -.810654431714D-04 0.100000000000D+01
  </mgrwgt>
  </event>
  <event>
  5     66 0.19199499E-05 0.22906216E+02 0.75467711E-02 0.95454291E-01
        1 -1    0    0  502    0 0.00000000E+00 0.00000000E+00 0.78290708E+03 0.78290715E+03 0.32000000E+00 0.0000E+00 0.9000E+01
       -3 -1    0    0    0  501 0.00000000E+00 0.00000000E+00 -.59771661E+03 0.59771682E+03 0.50000000E+00 0.0000E+00 0.9000E+01
       25  1    1    2    0    0 -.13423179E+03 0.43308234E+03 0.50802717E+03 0.69231141E+03 0.12500000E+03 0.0000E+00 0.9000E+01
        2  1    1    2  502    0 -.67164532E+01 -.21979603E+02 0.87584430E+02 0.90550254E+02 0.32000000E+00 0.0000E+00 0.9000E+01
       -4  1    1    2    0  501 0.14094824E+03 -.41110273E+03 -.41042112E+03 0.59776230E+03 0.15500000E+01 0.0000E+00 0.9000E+01
#aMCatNLO 1  0  0  1  5 0.20065925D+01 0.00000000D+00  -5  6  0 0.00000000D+00 0.00000000D+00 0.00000000D+00 0.00000000D+00 0.00000000D+00
  <mgrwgt>
 0.5945558157D-03    9    2    0
 0.684073648015180D+03 0.000000000000000D+00 0.000000000000000D+00 0.684073648015180D+03
 0.684073648015180D+03 0.000000000000000D+00 0.000000000000000D+00 -.684073648015180D+03
 0.630057959152324D+03 -.134282763726916D+03 0.433112333090452D+03 0.419201476836614D+03
 0.792547425079058D+02 -.669404310215401D+01 -.219062661684224D+02 0.758723895728821D+02
 0.658834594370130D+03 0.140976806829070D+03 -.411206066922030D+03 -.495073866409496D+03
 0.000000000000000D+00 0.000000000000000D+00 0.000000000000000D+00 0.000000000000000D+00
 0.691981608671079D+03 0.000000000000000D+00 0.000000000000000D+00 0.691981608671079D+03
 0.684201685486743D+03 0.000000000000000D+00 0.000000000000000D+00 -.684201685486743D+03
 0.629533817441979D+03 -.134608803147534D+03 0.432248099170212D+03 0.419201476836614D+03
 0.792883539625056D+02 -.673508123869688D+01 -.220150461115244D+02 0.758723895728821D+02
 0.659326596109059D+03 0.140635606990511D+03 -.412110486619208D+03 -.495073866409496D+03
 0.803452664427875D+01 0.708277395719858D+00 0.187743356052089D+01 0.777992318433591D+01
0.486407538129D-04 0.000000000000D+00 0.000000000000D+00 0.643362450734D-05 0.000000000000D+00  6 1 -3 25 2 -4 21 0 0.12044726D+00 0.91956422D-01 0.21528303D+06 0.21528303D+06 0.21528303D+06 0.10953777D+01  1  2  2  1  6  1        1 0.804638841126D-04 0.100000000000D+01
0.140754162217D-04 0.000000000000D+00 -.186793302046D-06 0.643362450734D-05 0.000000000000D+00  6 1 -3 25 2 -4 21 2 0.12044726D+00 0.91956422D-01 0.21528303D+06 0.21528303D+06 0.21528303D+06 0.10953777D+01  1  2  3  1  6  1        1 0.279376392525D-04 0.100000000000D+01
-.305545711829D-04 0.000000000000D+00 0.000000000000D+00 0.643362450734D-05 0.000000000000D+00  6 1 -3 25 2 -4 21 2 0.12044726D+00 0.91956422D-01 0.21528303D+06 0.21528303D+06 0.21528303D+06 0.10953777D+01  1  2 15  1  6  1        1 -.606463477722D-04 0.100000000000D+01
-.237258382390D-02 0.000000000000D+00 0.000000000000D+00 0.643362450734D-05 0.000000000000D+00  6 1 -3 25 2 -4 21 2 0.12044726D+00 0.91956422D-01 0.21528303D+06 0.21528303D+06 0.21528303D+06 0.10953777D+01  1  2  4  1  6  1        1 -.470923132391D-02 0.100000000000D+01
-.360654049794D-01 0.000000000000D+00 -.933760667371D-03 0.643362450734D-05 0.000000000000D+00  6 1 -3 25 2 -4 21 2 0.12184994D+00 0.91956422D-01 0.21528303D+06 0.21528303D+06 0.21528303D+06 0.10953777D+01  1  2  5  1  6  1        1 -.702861460866D-01 0.100000000000D+01
0.360738608927D-01 0.000000000000D+00 0.933698082863D-03 0.643362450734D-05 0.000000000000D+00  6 1 -3 25 2 -4 21 2 0.12044726D+00 0.91956422D-01 0.21528303D+06 0.21528303D+06 0.21528303D+06 0.10953777D+01  1  2  6  1  6  1        1 0.716013293098D-01 0.100000000000D+01
0.205893664866D-02 0.000000000000D+00 0.000000000000D+00 0.643362450734D-05 0.257435147494D-05  6 1 -3 25 2 -4 21 2 0.12183965D+00 0.91973634D-01 0.21628902D+06 0.21628902D+06 0.21628902D+06 0.10952233D+01  1  2 11  1  6  1        1 0.400940703288D-02 0.100000000000D+01
-.769695749890D-04 0.000000000000D+00 -.199236666901D-05 0.643362450734D-05 0.000000000000D+00  6 21 -3 25 2 -4 -1 2 0.12184994D+00 0.91956422D-01 0.21528303D+06 0.21528303D+06 0.21528303D+06 0.10953777D+01  1  2  5  5  6  1        1 -.267310549372D-03 0.100000000000D+01
0.572780263369D-04 0.000000000000D+00 0.000000000000D+00 0.643362450734D-05 0.201995745696D-07  6 21 -3 25 2 -4 -1 2 0.12183965D+00 0.91973634D-01 0.21628902D+06 0.21628902D+06 0.21628902D+06 0.10952233D+01  1  2 11  5  6  1        1 0.198752257334D-03 0.100000000000D+01
  </mgrwgt>
  </event>
  <event>
  5     66 0.19199499E-05 0.36897933E+02 0.75467711E-02 0.90966934E-01
        1 -1    0    0  502    0 0.00000000E+00 0.00000000E+00 0.30194943E+04 0.30194943E+04 0.32000000E+00 0.0000E+00 0.9000E+01
       -3 -1    0    0    0  501 0.00000000E+00 0.00000000E+00 -.22273618E+03 0.22273674E+03 0.50000000E+00 0.0000E+00 0.9000E+01
       25  1    1    2    0    0 -.30425657E+03 -.41439711E+03 0.61393159E+03 0.81045297E+03 0.12500000E+03 0.0000E+00 0.9000E+01
        2  1    1    2  502    0 0.27758515E+03 0.38888561E+03 0.22791088E+04 0.23286525E+04 0.32000000E+00 0.0000E+00 0.9000E+01
       -4  1    1    2    0  501 0.26671416E+02 0.25511491E+02 -.96282281E+02 0.10312556E+03 0.15500000E+01 0.0000E+00 0.9000E+01
#aMCatNLO 1  0  0  1  1 0.15102808D+03 0.00000000D+00  -5  6  0 0.00000000D+00 0.00000000D+00 0.00000000D+00 0.00000000D+00 0.00000000D+00
  <mgrwgt>
 0.4932329875D-02    7    2    0
 0.820092416358734D+03 0.000000000000000D+00 0.000000000000000D+00 0.820092416358734D+03
 0.820092416358734D+03 0.000000000000000D+00 0.000000000000000D+00 -.820092416358734D+03
 0.555310452535896D+03 -.304274500775479D+03 -.414426287003758D+03 -.168560314171910D+03
 0.717005534521738D+03 0.277610698634153D+03 0.388921402895634D+03 0.534574016304901D+03
 0.367868845659835D+03 0.266638021413265D+02 0.255048841081243D+02 -.366013702132992D+03
 0.000000000000000D+00 -.000000000000000D+00 0.000000000000000D+00 0.000000000000000D+00
 0.105722027202171D+04 0.000000000000000D+00 0.000000000000000D+00 0.105722027202171D+04
 0.913738219334443D+03 0.000000000000000D+00 0.000000000000000D+00 -.913738219334443D+03
 0.527290926519112D+03 -.216696844156279D+03 -.432481929574358D+03 -.168560314171910D+03
 0.759017408991615D+03 0.397014417315824D+03 0.364304269378453D+03 0.534574016304901D+03
 0.376409725124888D+03 0.868726420359426D+02 0.130917945748595D+02 -.366013702132992D+03
 0.308240430720538D+03 -.267190215195488D+03 0.550858656210458D+02 0.143482052687267D+03
0.584135296086D-02 0.000000000000D+00 0.000000000000D+00 0.367186763165D-04 0.000000000000D+00  6 1 -3 25 2 -4 21 0 0.46453763D+00 0.34267149D-01 0.27240258D+06 0.27240258D+06 0.27240258D+06 0.10876662D+01  1  2  2  1  6  1        1 0.220163265480D-02 0.100000000000D+01
0.246355598065D-02 0.000000000000D+00 -.224323334333D-04 0.367186763165D-04 0.000000000000D+00  6 1 -3 25 2 -4 21 2 0.46453763D+00 0.34267149D-01 0.27240258D+06 0.27240258D+06 0.27240258D+06 0.10876662D+01  1  2  3  1  6  1        1 0.109846226183D-02 0.100000000000D+01
-.388986176292D-02 0.000000000000D+00 0.000000000000D+00 0.367186763165D-04 0.000000000000D+00  6 1 -3 25 2 -4 21 2 0.46453763D+00 0.34267149D-01 0.27240258D+06 0.27240258D+06 0.27240258D+06 0.10876662D+01  1  2 15  1  6  1        1 -.173443038594D-02 0.100000000000D+01
-.539494756668D-03 0.000000000000D+00 0.000000000000D+00 0.367186763165D-04 0.000000000000D+00  6 1 -3 25 2 -4 21 2 0.46453763D+00 0.34267149D-01 0.27240258D+06 0.27240258D+06 0.27240258D+06 0.10876662D+01  1  2  4  1  6  1        1 -.240552532724D-03 0.100000000000D+01
-.881030061365D-02 0.000000000000D+00 -.337328814258D-02 0.367186763165D-04 0.000000000000D+00  6 1 -3 25 2 -4 21 2 0.61280212D+00 0.34267149D-01 0.27240258D+06 0.27240258D+06 0.27240258D+06 0.10876662D+01  1  2  5  1  6  1        1 -.628598268317D-03 0.100000000000D+01
0.950318097912D-02 0.000000000000D+00 0.324788629727D-02 0.367186763165D-04 0.000000000000D+00  6 1 -3 25 2 -4 21 2 0.46453763D+00 0.34267149D-01 0.27240258D+06 0.27240258D+06 0.27240258D+06 0.10876662D+01  1  2  6  1  6  1        1 0.423732432097D-02 0.100000000000D+01
-.254708654969D-03 0.000000000000D+00 -.123069004774D-03 0.367186763165D-04 0.000000000000D+00  6 21 -3 25 2 -4 -1 2 0.61280212D+00 0.34267149D-01 0.27240258D+06 0.27240258D+06 0.27240258D+06 0.10876662D+01  1  2  5  5  6  1        1 -.150817515613D-05 0.100000000000D+01
  </mgrwgt>
  </event>
  <event>
  6     66 0.19199499E-05 0.20217593E+03 0.75467711E-02 0.90173247E-01
        1 -1    0    0  502    0 0.00000000E+00 0.00000000E+00 0.16113989E+04 0.16113990E+04 0.32000000E+00 0.0000E+00 0.9000E+01
       21 -1    0    0  503  501 0.00000000E+00 0.00000000E+00 -.77204069E+03 0.77204105E+03 0.75000000E+00 0.0000E+00 0.9000E+01
       25  1    1    2    0    0 0.27081284E+03 -.67640436E+03 0.85474976E+03 0.11300817E+04 0.12500000E+03 0.0000E+00 0.9000E+01
        2  1    1    2  502    0 0.10537718E+02 0.11606234E+03 0.31261750E+03 0.33363351E+03 0.32000000E+00 0.0000E+00 0.9000E+01
        3  1    1    2  503    0 -.29986235E+03 0.43785292E+03 -.48555429E+03 0.71930232E+03 0.50000000E+00 0.0000E+00 0.9000E+01
       -4  1    1    2    0  501 0.18511793E+02 0.12248910E+03 0.15754528E+03 0.20042252E+03 0.15500000E+01 0.0000E+00 0.9000E+01
#aMCatNLO 2  0  0  2  1 0.40174636D+02 0.00000000D+00  -5  6  0 0.00000000D+00 0.00000000D+00 0.00000000D+00 0.00000000D+00 0.00000000D+00
  <mgrwgt>
 0.6962070936D-03    1    2    0
 0.427880951935179D+03 0.000000000000000D+00 0.000000000000000D+00 0.427880951935179D+03
 0.427880951935179D+03 0.000000000000000D+00 0.000000000000000D+00 -.427880951935179D+03
 0.433265277102757D+03 0.814611103997561D+02 -.399922842897695D+03 -.742940614315387D+02
 0.220449798168173D+03 -.474937688966662D+02 0.200780018218784D+03 0.776520425516502D+02
 0.000000000000000D+00 -.000000000000000D+00 0.000000000000000D+00 -.000000000000000D+00
 0.202046828599427D+03 -.339673415030899D+02 0.199142824678912D+03 -.335798112011150D+01
 0.542850846445594D+03 0.000000000000000D+00 0.000000000000000D+00 0.542850846445594D+03
 0.229172686207623D+04 0.000000000000000D+00 0.000000000000000D+00 -.229172686207623D+04
 0.742979690154835D+03 0.270814267036372D+03 -.676412481543720D+03 -.742940614315387D+02
 0.140026809306677D+03 0.105361359437879D+02 0.116045928198878D+03 0.776520425516502D+02
 0.182762138367767D+04 -.299862347002429D+03 0.437852916945871D+03 -.174887601563064D+04
 0.123949825382637D+03 0.185119440222696D+02 0.122513636398971D+03 -.335798112011150D+01
0.216823547929D-03 0.000000000000D+00 0.000000000000D+00 0.109226168748D-07 0.603401602822D-12  6 1 21 25 2 3 -4 2 0.24790754D+00 0.11877551D+00 0.57030749D+06 0.57030749D+06 0.57030749D+06 0.10644954D+01  1  2  1  6  5  2       -3 0.696207093645D-03 0.100000000000D+01
  </mgrwgt>
  </event>
  <event>
  6     66 -.19199499E-05 0.21169060E+02 0.75467711E-02 0.95559971E-01
        3 -1    0    0  503    0 0.00000000E+00 0.00000000E+00 0.53868157E+03 0.53868180E+03 0.50000000E+00 0.0000E+00 0.9000E+01
       -1 -1    0    0    0  501 0.00000000E+00 0.00000000E+00 -.14640404E+04 0.14640404E+04 0.32000000E+00 0.0000E+00 0.9000E+01
       25  1    1    2    0    0 -.13264240E+03 -.42937413E+03 -.98724716E+03 0.10918966E+04 0.12500000E+03 0.0000E+00 0.9000E+01
        4  1    1    2  502    0 0.13358274E+03 0.41072142E+03 0.28985614E+03 0.52014942E+03 0.15500000E+01 0.0000E+00 0.9000E+01
       -2  1    1    2    0  501 0.25648092E+01 0.24371147E+02 -.30869556E+03 0.30966689E+03 0.32000000E+00 0.0000E+00 0.9000E+01
       21  1    1    2  503  502 -.35051472E+01 -.57184371E+01 0.80727742E+02 0.81009367E+02 0.75000000E+00 0.0000E+00 0.9000E+01
#aMCatNLO 2  0  0  1  4 0.67072035D+01 0.00000000D+00  -5  6  0 0.00000000D+00 0.00000000D+00 0.00000000D+00 0.00000000D+00 0.00000000D+00
  <mgrwgt>
 -.4322540155D-02    1    2    0
 0.818646009969638D+03 0.000000000000000D+00 0.000000000000000D+00 0.818646009969638D+03
 0.818646009969638D+03 0.000000000000000D+00 0.000000000000000D+00 -.818646009969638D+03
 0.676585108896885D+03 -.134086673885176D+03 -.431736743285626D+03 -.487613123248894D+03
 0.786869189328763D+03 0.131891789096485D+03 0.407956122521855D+03 0.659802606224594D+03
 0.173837721713628D+03 0.219488478869175D+01 0.237806207637711D+02 -.172189482975699D+03
 0.000000000000000D+00 -.000000000000000D+00 -.000000000000000D+00 0.000000000000000D+00
 0.963259367929370D+03 0.000000000000000D+00 0.000000000000000D+00 0.963259367929370D+03
 0.818730653129796D+03 0.000000000000000D+00 0.000000000000000D+00 -.818730653129796D+03
 0.674795838610618D+03 -.132640148396981D+03 -.429376823867908D+03 -.487613123248894D+03
 0.788582983541574D+03 0.133578161638360D+03 0.410707337996145D+03 0.659802606224594D+03
 0.173926935834407D+03 0.256713396237192D+01 0.243879229235785D+02 -.172189482975699D+03
 0.144684263072568D+03 -.350514720375071D+01 -.571843705181569D+01 0.144528714799574D+03
-.417307528968D-01 0.000000000000D+00 0.000000000000D+00 0.435919845435D-04 0.000000000000D+00  6 3 -1 25 4 -2 21 2 0.82924008D-01 0.22521345D+00 0.21602578D+06 0.21602578D+06 0.21602578D+06 0.10952636D+01  1  2 13  1  6  1        3 -.432254015516D-02 0.100000000000D+01
  </mgrwgt>
  </event>
  <event>
  6     66 -.19199499E-05 0.15464650E+02 0.75467711E-02 0.95416085E-01
        1 -1    0    0  502    0 0.00000000E+00 0.00000000E+00 0.16249514E+04 0.16249515E+04 0.32000000E+00 0.0000E+00 0.9000E+01
       -3 -1    0    0    0  501 0.00000000E+00 0.00000000E+00 -.19605770E+03 0.19605834E+03 0.50000000E+00 0.0000E+00 0.9000E+01
       25  1    1    2    0    0 -.43411565E+03 -.13377919E+03 0.31795528E+03 0.56839584E+03 0.12500000E+03 0.0000E+00 0.9000E+01
        2  1    1    2  502    0 0.42073296E+03 0.11500874E+03 0.11355949E+04 0.12164781E+04 0.32000000E+00 0.0000E+00 0.9000E+01
       -4  1    1    2    0  503 -.12951217E+01 0.67802445E+01 -.95648511E+01 0.11896972E+02 0.15500000E+01 0.0000E+00 0.9000E+01
       21  1    1    2  503  501 0.14677806E+02 0.11990208E+02 -.15091586E+02 0.24238844E+02 0.75000000E+00 0.0000E+00 0.9000E+01
#aMCatNLO 2  0  0  5  2 0.57546233D+01 0.00000000D+00  -5  6  0 0.00000000D+00 0.00000000D+00 0.00000000D+00 0.00000000D+00 0.00000000D+00
  <mgrwgt>
 -.7209706272D-03    2    2    0
 0.564433210989234D+03 0.000000000000000D+00 0.000000000000000D+00 0.564433210989234D+03
 0.564433210989234D+03 -.000000000000000D+00 -.000000000000000D+00 -.564433210989234D+03
 0.514757213920563D+03 -.434320375005106D+03 -.133845105613314D+03 -.206884723558906D+03
 0.525308020653958D+03 0.420848586887117D+03 0.114968460921500D+03 0.292604231807809D+03
 0.888011874039460D+02 0.134717881179889D+02 0.188766446918144D+02 -.857195082489030D+02
 0.000000000000000D+00 0.000000000000000D+00 0.000000000000000D+00 0.000000000000000D+00
 0.564433210989234D+03 0.000000000000000D+00 0.000000000000000D+00 0.564433210989234D+03
 0.564433210989234D+03 -.000000000000000D+00 -.000000000000000D+00 -.564433210989234D+03
 0.514834921092107D+03 -.434262879929439D+03 -.133764543619213D+03 -.207250558410947D+03
 0.525165220915079D+03 0.420907248017536D+03 0.115050656789370D+03 0.292230977477444D+03
 0.306072497953911D+02 -.112686886292702D+01 0.666044057731484D+01 -.298525114172877D+02
 0.582590301758903D+02 0.144825007748308D+02 0.120534462525280D+02 -.551279076492092D+02
-.295286137374D-03 0.000000000000D+00 0.000000000000D+00 0.318764410879D-05 0.000000000000D+00  6 1 -3 25 2 -4 21 2 0.24999258D+00 0.30162775D-01 0.21772605D+06 0.21772605D+06 0.21772605D+06 0.10950041D+01  1  2 13  4  6  5       -4 -.156602364066D-02 0.100000000000D+01
0.159341426114D-03 0.000000000000D+00 0.000000000000D+00 0.318764410879D-05 0.628758013206D-07  6 1 -3 25 2 -4 21 2 0.24999258D+00 0.30162775D-01 0.21772605D+06 0.21772605D+06 0.21772605D+06 0.10950041D+01  1  2  1  4  6  5       -4 0.845053013496D-03 0.100000000000D+01
  </mgrwgt>
  </event>
  <event>
  5     66 -.19199499E-05 0.13870226E+02 0.75467711E-02 0.91945920E-01
        1 -1    0    0  502    0 0.00000000E+00 0.00000000E+00 0.63192792E+03 0.63192800E+03 0.32000000E+00 0.0000E+00 0.9000E+01
       -3 -1    0    0    0  501 -.00000000E+00 -.00000000E+00 -.14821266E+04 0.14821266E+04 0.50000000E+00 0.0000E+00 0.9000E+01
       25  1    1    2    0    0 -.38765251E+03 0.48618366E+03 -.11017257E+03 0.64374841E+03 0.12500000E+03 0.0000E+00 0.9000E+01
        2  1    1    2  502    0 0.38782031E+03 -.47231579E+03 0.10932780E+03 0.62083772E+03 0.32000000E+00 0.0000E+00 0.9000E+01
       -4  1    1    2    0  501 -.16779688E+00 -.13867862E+02 -.84935387E+03 0.84946851E+03 0.15500000E+01 0.0000E+00 0.9000E+01
#aMCatNLO 1  0  0  5  2 0.17823096D+02 0.00000000D+00  -5  6  0 0.00000000D+00 0.00000000D+00 0.00000000D+00 0.00000000D+00 0.00000000D+00
  <mgrwgt>
 -.7183302421D-03    4    2    0
 0.967779582774824D+03 0.000000000000000D+00 0.000000000000000D+00 0.967779582774824D+03
 0.967779582774824D+03 -.000000000000000D+00 -.000000000000000D+00 -.967779582774824D+03
 0.654721481423932D+03 -.387651941560182D+03 0.486183087515400D+03 0.162441361286351D+03
 0.726110241115482D+03 0.387818726235931D+03 -.472313864430468D+03 0.392112651288226D+03
 0.554727443010233D+03 -.166784675748432D+00 -.138692230849314D+02 -.554554012574577D+03
 0.000000000000000D+00 0.000000000000000D+00 0.000000000000000D+00 -.000000000000000D+00
 0.967779582774824D+03 0.000000000000000D+00 0.000000000000000D+00 0.967779582774824D+03
 0.967779582774824D+03 -.000000000000000D+00 -.000000000000000D+00 -.967779582774824D+03
 0.654378014578997D+03 -.387652330513506D+03 0.486150743534191D+03 0.161148103224803D+03
 0.725360031683500D+03 0.387818294982089D+03 -.472349725972981D+03 0.390678745280985D+03
 0.470131239929154D+02 0.111859361348240D+02 -.149486603251861D+02 -.431467984309740D+02
 0.508807995294235D+03 -.113519006034067D+02 0.114764276397576D+01 -.508680050074813D+03
0.834371509764D-02 0.000000000000D+00 0.000000000000D+00 0.295706252876D-04 0.000000000000D+00  6 1 -3 25 2 -4 21 0 0.97219692D-01 0.22801948D+00 0.39642976D+06 0.39642976D+06 0.39642976D+06 0.10757084D+01  1  2  2  4  6  5       -4 0.742284299480D-03 0.100000000000D+01
0.843181020973D-02 0.000000000000D+00 -.320420629256D-04 0.295706252876D-04 0.000000000000D+00  6 1 -3 25 2 -4 21 2 0.97219692D-01 0.22801948D+00 0.39642976D+06 0.39642976D+06 0.39642976D+06 0.10757084D+01  1  2  3  4  6  5       -4 0.868002099697D-03 0.100000000000D+01
-.543202761146D-02 0.000000000000D+00 0.000000000000D+00 0.295706252876D-04 0.000000000000D+00  6 1 -3 25 2 -4 21 2 0.97219692D-01 0.22801948D+00 0.39642976D+06 0.39642976D+06 0.39642976D+06 0.10757084D+01  1  2 15  4  6  5       -4 -.559193252110D-03 0.100000000000D+01
-.171882558850D-01 0.000000000000D+00 0.000000000000D+00 0.295706252876D-04 0.000000000000D+00  6 1 -3 25 2 -4 21 2 0.97219692D-01 0.22801948D+00 0.39642976D+06 0.39642976D+06 0.39642976D+06 0.10757084D+01  1  2  5  4  6  5       -4 -.176942338919D-02 0.100000000000D+01
  </mgrwgt>
  </event>
  <event>
  6     66 0.19199499E-05 0.11920753E+03 0.75467711E-02 0.93225707E-01
        1 -1    0    0  502    0 0.00000000E+00 0.00000000E+00 0.27241813E+04 0.27241813E+04 0.32000000E+00 0.0000E+00 0.9000E+01
       -3 -1    0    0    0  501 0.00000000E+00 0.00000000E+00 -.83247543E+03 0.83247558E+03 0.50000000E+00 0.0000E+00 0.9000E+01
       25  1    1    2    0    0 -.48071286E+03 0.25048312E+03 0.10901301E+03 0.56686461E+03 0.12500000E+03 0.0000E+00 0.9000E+01
        2  1    1    2  502    0 -.17508351E+01 -.42457521E+02 0.22618353E+04 0.22622345E+04 0.32000000E+00 0.0000E+00 0.9000E+01
       -4  1    1    2    0  503 0.19966963E+03 -.14027734E+03 -.14201323E+03 0.28233996E+03 0.15500000E+01 0.0000E+00 0.9000E+01
       21  1    1    2  503  501 0.28279407E+03 -.67748259E+02 -.33712920E+03 0.44521790E+03 0.75000000E+00 0.0000E+00 0.9000E+01
#aMCatNLO 2  0  0  5  5 0.68022791D+02 0.00000000D+00  -5  6  0 0.00000000D+00 0.00000000D+00 0.00000000D+00 0.00000000D+00 0.00000000D+00
  <mgrwgt>
 0.1112086334D-01    1    2    0
 0.150592639954184D+04 0.000000000000000D+00 0.000000000000000D+00 0.150592639954184D+04
 0.150592639954184D+04 -.000000000000000D+00 -.000000000000000D+00 -.150592639954184D+04
 0.601073894746021D+03 -.481548491950758D+03 0.250843678753596D+03 -.225506819574186D+03
 0.125462032053860D+04 -.354542245407378D+01 -.416846885655962D+02 0.125392263135617D+04
 0.115615858379907D+04 0.485093914404832D+03 -.209158990187999D+03 -.102841581178198D+04
 0.000000000000000D+00 0.000000000000000D+00 0.000000000000000D+00 -.000000000000000D+00
 0.150592639954184D+04 0.000000000000000D+00 0.000000000000000D+00 0.150592639954184D+04
 0.150592639954184D+04 -.000000000000000D+00 -.000000000000000D+00 -.150592639954184D+04
 0.600917704783474D+03 -.480688732734429D+03 0.250472974516432D+03 -.227329538734625D+03
 0.125084530554023D+04 -.175331578372736D+01 -.424573950670553D+02 0.125012330347046D+04
 0.421773300876610D+03 0.199287580896220D+03 -.140055853419238D+03 -.344327656972096D+03
 0.738316487883372D+03 0.283154467621937D+03 -.679597260301382D+02 -.678466107763744D+03
0.330078163809D+00 0.000000000000D+00 0.000000000000D+00 0.555555100452D-03 0.169124270557D-06  6 1 -3 25 2 -4 21 2 0.41910483D+00 0.12807316D+00 0.32122123D+06 0.32122123D+06 0.32122123D+06 0.10823626D+01  1  2  1  4  6  5       -4 0.111208633423D-01 0.100000000000D+01
  </mgrwgt>
  </event>
  <event>
  5     66 -.19199499E-05 0.14752339E+02 0.75467711E-02 0.90541870E-01
        1 -1    0    0  502    0 0.00000000E+00 0.00000000E+00 0.32184704E+04 0.32184704E+04 0.32000000E+00 0.0000E+00 0.9000E+01
       -3 -1    0    0    0  501 0.00000000E+00 0.00000000E+00 -.41625013E+03 0.41625043E+03 0.50000000E+00 0.0000E+00 0.9000E+01
       25  1    1    2    0    0 0.57132698E+03 -.36835583E+03 0.85901578E+03 0.11025578E+04 0.12500000E+03 0.0000E+00 0.9000E+01
        2  1    1    2  502    0 -.10949498E+02 -.98892317E+01 0.18495622E+04 0.18496211E+04 0.32000000E+00 0.0000E+00 0.9000E+01
       -4  1    1    2    0  501 -.56037748E+03 0.37824506E+03 0.93642262E+02 0.68254196E+03 0.15500000E+01 0.0000E+00 0.9000E+01
#aMCatNLO 1  0  0  2  5 0.79798713D+01 0.00000000D+00  -5  6  0 0.00000000D+00 0.00000000D+00 0.00000000D+00 0.00000000D+00 0.00000000D+00
  <mgrwgt>
 -.8616802191D-02    7    4    0
 0.115744947245459D+04 0.000000000000000D+00 0.000000000000000D+00 0.115744947245459D+04
 0.115744947245459D+04 0.000000000000000D+00 0.000000000000000D+00 -.115744947245459D+04
 0.691382341593192D+03 0.571377063250779D+03 -.368390800187771D+03 0.141778769501945D+02
 0.665158239733835D+03 -.109480668015752D+02 -.988793891031305D+01 0.664994625830335D+03
 0.958358363582156D+03 -.560428996449204D+03 0.378278739098084D+03 -.679172502780530D+03
 0.000000000000000D+00 -.000000000000000D+00 -.000000000000000D+00 -.000000000000000D+00
 0.116159463769884D+04 0.000000000000000D+00 0.000000000000000D+00 0.116159463769884D+04
 0.164139856422029D+04 0.000000000000000D+00 0.000000000000000D+00 -.164139856422029D+04
 0.711148749390972D+03 0.595995290622167D+03 -.367009734369168D+03 0.141778769501945D+02
 0.665165589671609D+03 0.124027271454577D+02 -.857797524514001D+01 0.664994625830335D+03
 0.940015967830500D+03 -.527107374399508D+03 0.380148059441056D+03 -.679172502780530D+03
 0.486662895026055D+03 -.812906433681172D+02 -.456034982674775D+01 -.479803926521445D+03
 0.115744947245459D+04 0.000000000000000D+00 0.000000000000000D+00 0.115744947245459D+04
 0.115744947245459D+04 0.000000000000000D+00 0.000000000000000D+00 -.115744947245459D+04
 0.691382341593192D+03 0.571377063250779D+03 -.368390800187771D+03 0.141778769501945D+02
 0.665158239733835D+03 -.109480668015752D+02 -.988793891031305D+01 0.664994625830335D+03
 0.000000000000000D+00 -.000000000000000D+00 -.000000000000000D+00 -.000000000000000D+00
 0.958358363582156D+03 -.560428996449204D+03 0.378278739098084D+03 -.679172502780530D+03
 0.116159463769884D+04 0.000000000000000D+00 0.000000000000000D+00 0.116159463769884D+04
 0.164139856422029D+04 0.000000000000000D+00 0.000000000000000D+00 -.164139856422029D+04
 0.711148749390972D+03 0.595995290622167D+03 -.367009734369168D+03 0.141778769501945D+02
 0.665165589671609D+03 0.124027271454577D+02 -.857797524514001D+01 0.664994625830335D+03
 0.486662895026055D+03 -.812906433681172D+02 -.456034982674775D+01 -.479803926521445D+03
 0.940015967830500D+03 -.527107374399508D+03 0.380148059441056D+03 -.679172502780530D+03
0.270653898659D-02 0.000000000000D+00 0.000000000000D+00 0.733839071462D-04 0.000000000000D+00  6 1 -3 25 2 -4 21 0 0.49514932D+00 0.64038505D-01 0.47757554D+06 0.47757554D+06 0.47757554D+06 0.10699217D+01  1  2  2  2  6  2       -3 0.188123190630D-03 0.100000000000D+01
0.280258967309D-02 0.000000000000D+00 -.103938223566D-04 0.733839071462D-04 0.000000000000D+00  6 1 -3 25 2 -4 21 2 0.49514932D+00 0.64038505D-01 0.47757554D+06 0.47757554D+06 0.47757554D+06 0.10699217D+01  1  2  3  2  6  2       -3 0.222993147363D-03 0.100000000000D+01
-.167795323601D-02 0.000000000000D+00 0.000000000000D+00 0.733839071462D-04 0.000000000000D+00  6 1 -3 25 2 -4 21 2 0.49514932D+00 0.64038505D-01 0.47757554D+06 0.47757554D+06 0.47757554D+06 0.10699217D+01  1  2 15  2  6  2       -3 -.133509402685D-03 0.100000000000D+01
-.137010761846D+00 0.000000000000D+00 0.000000000000D+00 0.733839071462D-04 0.000000000000D+00  6 1 -3 25 2 -4 21 2 0.49514932D+00 0.64038505D-01 0.47757554D+06 0.47757554D+06 0.47757554D+06 0.10699217D+01  1  2  4  2  6  2       -3 -.109015105922D-01 0.100000000000D+01
-.102051683761D+00 0.000000000000D+00 -.201442528549D-02 0.733839071462D-04 0.000000000000D+00  6 1 -3 25 2 -4 21 2 0.49514932D+00 0.90942976D-01 0.47757554D+06 0.47757554D+06 0.47757554D+06 0.10699217D+01  1  2  5  2  6  2       -3 -.353207598363D-02 0.100000000000D+01
0.968568974582D-01 0.000000000000D+00 0.189656275036D-02 0.733839071462D-04 0.000000000000D+00  6 1 -3 25 2 -4 21 2 0.49514932D+00 0.64038505D-01 0.47757554D+06 0.47757554D+06 0.47757554D+06 0.10699217D+01  1  2  6  2  6  2       -3 0.770659530199D-02 0.100000000000D+01
-.435815169595D-02 0.000000000000D+00 -.871547396035D-04 0.733839071462D-04 0.000000000000D+00  6 1 21 25 2 3 -4 2 0.49514932D+00 0.90942976D-01 0.47757554D+06 0.47757554D+06 0.47757554D+06 0.10699217D+01  3  4  5  6  5  2       -3 -.216741785216D-02 0.100000000000D+01
  </mgrwgt>
  </event>
  <event>
  5     66 -.19199499E-05 0.55459154E+02 0.75467711E-02 0.93954865E-01
        1 -1    0    0  502    0 0.00000000E+00 0.00000000E+00 0.70067887E+03 0.70067895E+03 0.32000000E+00 0.0000E+00 0.9000E+01
       -3 -1    0    0    0  501 0.00000000E+00 0.00000000E+00 -.69356081E+03 0.69356099E+03 0.50000000E+00 0.0000E+00 0.9000E+01
       25  1    1    2    0    0 0.49801588E+03 0.12902895E+03 -.21277521E+03 0.57058442E+03 0.12500000E+03 0.0000E+00 0.9000E+01
        2  1    1    2  502    0 -.46943529E+03 -.81450018E+02 0.40815845E+03 0.62737311E+03 0.32000000E+00 0.0000E+00 0.9000E+01
       -4  1    1    2    0  501 -.28580594E+02 -.47578928E+02 -.18826518E+03 0.19628241E+03 0.15500000E+01 0.0000E+00 0.9000E+01
#aMCatNLO 1  0  0  5  2 0.47547965D+01 0.00000000D+00  -5  6  0 0.00000000D+00 0.00000000D+00 0.00000000D+00 0.00000000D+00 0.00000000D+00
  <mgrwgt>
 -.3476991067D-02    8    2    0
 0.697110885764186D+03 0.000000000000000D+00 0.000000000000000D+00 0.697110885764186D+03
 0.697110885764186D+03 -.000000000000000D+00 -.000000000000000D+00 -.697110885764186D+03
 0.571826549833534D+03 0.498063672283463D+03 0.129004609537577D+03 -.215988407476167D+03
 0.625393305382284D+03 -.469507295678800D+03 -.814625110591077D+02 0.405022894431048D+03
 0.197001916312555D+03 -.285563766046638D+02 -.475420984784689D+02 -.189034486954881D+03
 0.000000000000000D+00 0.000000000000000D+00 0.000000000000000D+00 -.000000000000000D+00
 0.697110885764186D+03 0.000000000000000D+00 0.000000000000000D+00 0.697110885764186D+03
 0.697110885764186D+03 -.000000000000000D+00 -.000000000000000D+00 -.697110885764186D+03
 0.571847147452582D+03 0.498047252417499D+03 0.128977272915166D+03 -.216097101971317D+03
 0.625333706938939D+03 -.469525252522564D+03 -.814924065198111D+02 0.404904025612523D+03
 0.138899239903233D+03 -.228179154689974D+02 -.371835389875984D+02 -.131870110365099D+03
 0.581416772336185D+02 -.570408442593792D+01 -.103013274077564D+02 -.569368132761068D+02
0.927919050584D-05 0.000000000000D+00 0.000000000000D+00 0.319484228957D-05 0.000000000000D+00  6 1 -3 25 2 -4 21 0 0.10779677D+00 0.10670168D+00 0.28166771D+06 0.28166771D+06 0.28166771D+06 0.10865837D+01  1  2  2  4  6  5       -4 0.122660070834D-04 0.100000000000D+01
0.203830584666D-05 0.000000000000D+00 -.356345348094D-07 0.319484228957D-05 0.000000000000D+00  6 1 -3 25 2 -4 21 2 0.10779677D+00 0.10670168D+00 0.28166771D+06 0.28166771D+06 0.28166771D+06 0.10865837D+01  1  2  3  4  6  5       -4 0.318118438578D-05 0.100000000000D+01
-.592544773776D-05 0.000000000000D+00 0.000000000000D+00 0.319484228957D-05 0.000000000000D+00  6 1 -3 25 2 -4 21 2 0.10779677D+00 0.10670168D+00 0.28166771D+06 0.28166771D+06 0.28166771D+06 0.10865837D+01  1  2 15  4  6  5       -4 -.924784759509D-05 0.100000000000D+01
0.332144296952D-03 0.000000000000D+00 0.000000000000D+00 0.319484228957D-05 0.000000000000D+00  6 1 -3 25 2 -4 21 2 0.10779677D+00 0.10670168D+00 0.28163757D+06 0.28163757D+06 0.28163757D+06 0.10865872D+01  1  2 12  4  6  5       -4 0.518383092409D-03 0.100000000000D+01
-.480476767422D-02 0.000000000000D+00 0.000000000000D+00 0.319484228957D-05 0.000000000000D+00  6 1 -3 25 2 -4 21 2 0.10779677D+00 0.10670168D+00 0.28166771D+06 0.28166771D+06 0.28166771D+06 0.10865837D+01  1  2  4  4  6  5       -4 -.749880197201D-02 0.100000000000D+01
-.114742874524D-02 0.000000000000D+00 0.000000000000D+00 0.319484228957D-05 0.000000000000D+00  6 1 -3 25 2 -4 21 2 0.10779677D+00 0.10670168D+00 0.28166771D+06 0.28166771D+06 0.28166771D+06 0.10865837D+01  1  2  5  4  6  5       -4 -.179079229652D-02 0.100000000000D+01
0.179431942157D-02 0.000000000000D+00 -.000000000000D+00 0.319484228957D-05 0.000000000000D+00  6 1 -3 25 2 -4 21 2 0.10779677D+00 0.10670168D+00 0.28166771D+06 0.28166771D+06 0.28166771D+06 0.10865837D+01  1  2  6  4  6  5       -4 0.280039471817D-02 0.100000000000D+01
0.159389998728D-02 0.000000000000D+00 0.000000000000D+00 0.319484228957D-05 0.938018251704D-06  6 1 -3 25 2 -4 21 2 0.10779677D+00 0.10670168D+00 0.28163757D+06 0.28163757D+06 0.28163757D+06 0.10865872D+01  1  2 11  4  6  5       -4 0.248762604681D-02 0.100000000000D+01
  </mgrwgt>
  </event>
  <event>
  6     66 -.19199499E-05 0.20446879E+03 0.75467711E-02 0.95487927E-01
        1 -1    0    0  502    0 0.00000000E+00 0.00000000E+00 0.21736109E+04 0.21736110E+04 0.32000000E+00 0.0000E+00 0.9000E+01
       -3 -1    0    0    0  501 0.00000000E+00 0.00000000E+00 -.36359795E+03 0.36359829E+03 0.50000000E+00 0.0000E+00 0.9000E+01
       25  1    1    2    0    0 -.97783776E+02 -.44294456E+03 0.40330124E+03 0.61970835E+03 0.12500000E+03 0.0000E+00 0.9000E+01
        2  1    1    2  503    0 0.69914646E+02 0.21075381E+03 0.15287236E+04 0.15447657E+04 0.32000000E+00 0.0000E+00 0.9000E+01
       -4  1    1    2    0  501 0.31304556E+02 0.21075264E+03 -.19972474E+03 0.29204285E+03 0.15500000E+01 0.0000E+00 0.9000E+01
       21  1    1    2  502  503 -.34354266E+01 0.21438111E+02 0.77712895E+02 0.80692325E+02 0.75000000E+00 0.0000E+00 0.9000E+01
#aMCatNLO 2  0  0  4  1 0.12340834D+02 0.00000000D+00  -5  6  0 0.00000000D+00 0.00000000D+00 0.00000000D+00 0.00000000D+00 0.00000000D+00
  <mgrwgt>
 -.1535748654D-02    5    2    0
 0.888999969352317D+03 0.000000000000000D+00 0.000000000000000D+00 0.888999969352317D+03
 0.888999969352317D+03 -.000000000000000D+00 -.000000000000000D+00 -.888999969352317D+03
 0.474046662047223D+03 -.978444567977745D+02 -.443197738497722D+03 -.556548709689231D+02
 0.683128328268271D+03 0.666018734844780D+02 0.232620311831723D+03 0.638839802966497D+03
 0.620824948389139D+03 0.312425833132966D+02 0.210577426666000D+03 -.583184931997574D+03
 0.000000000000000D+00 0.000000000000000D+00 0.000000000000000D+00 0.000000000000000D+00
 0.888999969352317D+03 0.000000000000000D+00 0.000000000000000D+00 0.888999969352317D+03
 0.888999969352317D+03 -.000000000000000D+00 -.000000000000000D+00 -.888999969352317D+03
 0.473771799646988D+03 -.977846082139323D+02 -.442988705395383D+03 -.550808081759521D+02
 0.648054886785074D+03 0.699124796943936D+02 0.210718063037134D+03 0.608839288629499D+03
 0.620215864256019D+03 0.313209469853804D+02 0.210851127402672D+03 -.582433273970334D+03
 0.359573880165527D+02 -.344881846584175D+01 0.214195149555776D+02 0.286747935167873D+02
-.372732723519D-02 0.000000000000D+00 0.000000000000D+00 0.161616350627D-04 0.000000000000D+00  6 1 -3 25 2 -4 21 2 0.33440171D+00 0.55938174D-01 0.21503270D+06 0.21503270D+06 0.21503270D+06 0.10954162D+01  1  2 13  3  6  4        2 -.246924412016D-02 0.100000000000D+01
-.319279563330D-02 0.000000000000D+00 0.000000000000D+00 0.161616350627D-04 0.000000000000D+00  6 1 -3 25 2 -4 21 2 0.33440171D+00 0.55938174D-01 0.21419205D+06 0.21419205D+06 0.21419205D+06 0.10955460D+01  1  2  8  3  6  4        2 -.211609674934D-02 0.100000000000D+01
-.212497170422D-02 0.000000000000D+00 0.000000000000D+00 0.161616350627D-04 0.000000000000D+00  6 1 -3 25 2 -4 21 2 0.33440171D+00 0.55938174D-01 0.21419205D+06 0.21419205D+06 0.21419205D+06 0.10955460D+01  1  2  9  3  6  4        2 -.140837254625D-02 0.100000000000D+01
0.223976188854D-02 0.000000000000D+00 0.000000000000D+00 0.161616350627D-04 0.000000000000D+00  6 1 -3 25 2 -4 21 2 0.33440171D+00 0.55938174D-01 0.21419205D+06 0.21419205D+06 0.21419205D+06 0.10955460D+01  1  2 10  3  6  4        2 0.148445230951D-02 0.100000000000D+01
0.448852094320D-02 0.000000000000D+00 0.000000000000D+00 0.161616350627D-04 0.183409523696D-06  6 1 -3 25 2 -4 21 2 0.33440171D+00 0.55938174D-01 0.21503270D+06 0.21503270D+06 0.21503270D+06 0.10954162D+01  1  2  1  3  6  4        2 0.297351245219D-02 0.100000000000D+01
  </mgrwgt>
  </event>
  <event>
  5     66 0.19199499E-05 0.41688819E+02 0.75467711E-02 0.94452336E-01
        1 -1    0    0  502    0 0.00000000E+00 0.00000000E+00 0.86482885E+03 0.86482891E+03 0.32000000E+00 0.0000E+00 0.9000E+01
       -3 -1    0    0    0  501 0.00000000E+00 0.00000000E+00 -.11987904E+04 0.11987905E+04 0.50000000E+00 0.0000E+00 0.9000E+01
       25  1    1    2    0    0 -.24398513E+03 0.39613187E+03 -.90766632E+03 0.10275857E+04 0.12500000E+03 0.0000E+00 0.9000E+01
        2  1    1    2  502    0 0.21412226E+03 -.42555104E+03 0.73139582E+03 0.87285851E+03 0.32000000E+00 0.0000E+00 0.9000E+01
       -4  1    1    2    0  501 0.29862878E+02 0.29419177E+02 -.15769109E+03 0.16317525E+03 0.15500000E+01 0.0000E+00 0.9000E+01
#aMCatNLO 1  0  0  2  5 0.14894230D+02 0.00000000D+00  -5  6  0 0.00000000D+00 0.00000000D+00 0.00000000D+00 0.00000000D+00 0.00000000D+00
  <mgrwgt>
 0.1938506993D-02    9    4    0
 0.101820858680195D+04 0.000000000000000D+00 0.000000000000000D+00 0.101820858680195D+04
 0.101820858680195D+04 0.000000000000000D+00 0.000000000000000D+00 -.101820858680195D+04
 0.893387898611632D+03 -.243811290794136D+03 0.396303738762207D+03 -.752340573483912D+03
 0.100455478947273D+04 0.214141811876470D+03 -.425589906870196D+03 0.884390660641036D+03
 0.138474485519533D+03 0.296694789176660D+02 0.292861681079895D+02 -.132050087157124D+03
 0.000000000000000D+00 -.000000000000000D+00 -.000000000000000D+00 -.000000000000000D+00
 0.101839327420535D+04 0.000000000000000D+00 0.000000000000000D+00 0.101839327420535D+04
 0.137046288954845D+04 0.000000000000000D+00 0.000000000000000D+00 -.137046288954845D+04
 0.892667293252909D+03 -.237634326015763D+03 0.398426260470376D+03 -.752340573483912D+03
 0.100505132773484D+04 0.221091914124673D+03 -.423201720531906D+03 0.884390660641036D+03
 0.138753019631364D+03 0.306282536199895D+02 0.296156211957019D+02 -.132050087157124D+03
 0.352384523134680D+03 -.140858417288995D+02 -.484016113417212D+01 -.352069615343101D+03
 0.101820858680195D+04 0.000000000000000D+00 0.000000000000000D+00 0.101820858680195D+04
 0.101820858680195D+04 0.000000000000000D+00 0.000000000000000D+00 -.101820858680195D+04
 0.893387898611632D+03 -.243811290794136D+03 0.396303738762207D+03 -.752340573483912D+03
 0.100455478947273D+04 0.214141811876470D+03 -.425589906870196D+03 0.884390660641036D+03
 0.000000000000000D+00 -.000000000000000D+00 -.000000000000000D+00 -.000000000000000D+00
 0.138474485519533D+03 0.296694789176660D+02 0.292861681079895D+02 -.132050087157124D+03
 0.101839327420535D+04 0.000000000000000D+00 0.000000000000000D+00 0.101839327420535D+04
 0.137046288954845D+04 0.000000000000000D+00 0.000000000000000D+00 -.137046288954845D+04
 0.892667293252909D+03 -.237634326015763D+03 0.398426260470376D+03 -.752340573483912D+03
 0.100505132773484D+04 0.221091914124673D+03 -.423201720531906D+03 0.884390660641036D+03
 0.352384523134680D+03 -.140858417288995D+02 -.484016113417212D+01 -.352069615343101D+03
 0.138753019631364D+03 0.306282536199895D+02 0.296156211957019D+02 -.132050087157124D+03
0.894090811284D-04 0.000000000000D+00 0.000000000000D+00 0.110398058347D-04 0.000000000000D+00  6 1 -3 25 2 -4 21 0 0.13305060D+00 0.18442931D+00 0.24995540D+06 0.24995540D+06 0.24995540D+06 0.10904649D+01  1  2  2  2  6  2       -3 0.145455825691D-04 0.100000000000D+01
0.145814566532D-04 0.000000000000D+00 -.343354413485D-06 0.110398058347D-04 0.000000000000D+00  6 1 -3 25 2 -4 21 2 0.13305060D+00 0.18442931D+00 0.24995540D+06 0.24995540D+06 0.24995540D+06 0.10904649D+01  1  2  3  2  6  2       -3 0.282080984363D-05 0.100000000000D+01
-.580196193431D-04 0.000000000000D+00 0.000000000000D+00 0.110398058347D-04 0.000000000000D+00  6 1 -3 25 2 -4 21 2 0.13305060D+00 0.18442931D+00 0.24995540D+06 0.24995540D+06 0.24995540D+06 0.10904649D+01  1  2 15  2  6  2       -3 -.112240030101D-04 0.100000000000D+01
0.491583791361D-01 0.000000000000D+00 0.000000000000D+00 0.110398058347D-04 0.000000000000D+00  6 1 -3 25 2 -4 21 2 0.13305060D+00 0.25416857D+00 0.25777433D+06 0.25777433D+06 0.25777433D+06 0.10894600D+01  1  2 12  2  6  2       -3 0.147769035696D-02 0.100000000000D+01
-.377503575524D-01 0.000000000000D+00 0.000000000000D+00 0.110398058347D-04 0.000000000000D+00  6 1 -3 25 2 -4 21 2 0.13305060D+00 0.18442931D+00 0.24995540D+06 0.24995540D+06 0.24995540D+06 0.10904649D+01  1  2  4  2  6  2       -3 -.730287670961D-02 0.100000000000D+01
-.545903770369D-01 0.000000000000D+00 -.656191978365D-04 0.110398058347D-04 0.000000000000D+00  6 1 -3 25 2 -4 21 2 0.13305060D+00 0.24824799D+00 0.24995540D+06 0.24995540D+06 0.24995540D+06 0.10904649D+01  1  2  5  2  6  2       -3 -.202099243096D-02 0.100000000000D+01
0.522870237255D-01 0.000000000000D+00 0.628248444254D-04 0.110398058347D-04 0.000000000000D+00  6 1 -3 25 2 -4 21 2 0.13305060D+00 0.18442931D+00 0.24995540D+06 0.24995540D+06 0.24995540D+06 0.10904649D+01  1  2  6  2  6  2       -3 0.101150217518D-01 0.100000000000D+01
0.199406186817D-02 0.000000000000D+00 0.000000000000D+00 0.110398058347D-04 0.000000000000D+00  6 1 21 25 2 3 -4 2 0.13305060D+00 0.25416857D+00 0.25777433D+06 0.25777433D+06 0.25777433D+06 0.10894600D+01  3  4 12  6  5  2       -3 0.211794377902D-02 0.100000000000D+01
-.209430738830D-02 0.000000000000D+00 -.251916010750D-05 0.110398058347D-04 0.000000000000D+00  6 1 21 25 2 3 -4 2 0.13305060D+00 0.24824799D+00 0.24995540D+06 0.24995540D+06 0.24995540D+06 0.10904649D+01  3  4  5  6  5  2       -3 -.245442214396D-02 0.100000000000D+01
  </mgrwgt>
  </event>
  <event>
  6     66 0.19199499E-05 0.18867373E+03 0.75467711E-02 0.92913781E-01
        1 -1    0    0  502    0 0.00000000E+00 0.00000000E+00 0.10553853E+04 0.10553853E+04 0.32000000E+00 0.0000E+00 0.9000E+01
       -3 -1    0    0    0  503 0.00000000E+00 0.00000000E+00 -.63424117E+04 0.63424118E+04 0.50000000E+00 0.0000E+00 0.9000E+01
       25  1    1    2    0    0 0.53780090E+03 0.63196854E+02 -.18691780E+03 0.58633345E+03 0.12500000E+03 0.0000E+00 0.9000E+01
        2  1    1    2  502    0 -.65033436E+02 -.63784498E+02 0.83993087E+03 0.84485607E+03 0.32000000E+00 0.0000E+00 0.9000E+01
       -4  1    1    2    0  501 -.26450550E+03 -.10658375E+03 -.20786443E+04 0.20981153E+04 0.15500000E+01 0.0000E+00 0.9000E+01
       21  1    1    2  501  503 -.20826197E+03 0.10717139E+03 -.38613953E+04 0.38684923E+04 0.75000000E+00 0.0000E+00 0.9000E+01
#aMCatNLO 2  0  0  2  4 0.23421946D+03 0.00000000D+00  -5  6  0 0.00000000D+00 0.00000000D+00 0.00000000D+00 0.00000000D+00 0.00000000D+00
  <mgrwgt>
 0.1905407601D-04    1    2    0
 0.161002400108597D+04 0.000000000000000D+00 0.000000000000000D+00 0.161002400108597D+04
 0.161002400108597D+04 0.000000000000000D+00 0.000000000000000D+00 -.161002400108597D+04
 0.527218577075472D+03 0.502746556529847D+03 0.812403787260415D+02 0.545923875216649D+02
 0.129993550317876D+04 -.148819683319697D+03 -.206672653445036D+02 0.129122340376266D+04
 0.139289392191771D+04 -.353926873210150D+03 -.605731133815379D+02 -.134581579128432D+04
 0.000000000000000D+00 -.000000000000000D+00 0.000000000000000D+00 -.000000000000000D+00
 0.161972347640294D+04 0.000000000000000D+00 0.000000000000000D+00 0.161972347640294D+04
 0.413261141933594D+04 0.000000000000000D+00 0.000000000000000D+00 -.413261141933594D+04
 0.558423525336454D+03 0.537808097526903D+03 0.631977460703373D+02 0.545923875216649D+02
 0.129443251355189D+04 -.650328254058727D+02 -.637838955816555D+02 0.129122340376266D+04
 0.137569903905081D+04 -.264513303683415D+03 -.106585243582592D+03 -.134581579128432D+04
 0.252377981779973D+04 -.208261968437615D+03 0.107171393093910D+03 -.251288794293300D+04
0.107904224245D+02 0.000000000000D+00 0.000000000000D+00 0.310465890073D-03 0.379338290095D-06  6 1 -3 25 2 -4 21 2 0.16236696D+00 0.97575562D+00 0.34002872D+06 0.34002872D+06 0.34002872D+06 0.10805503D+01  1  2  1  2  6  2       -3 0.190540760100D-04 0.100000000000D+01
  </mgrwgt>
  </event>
  <event>
  5     66 -.19199499E-05 0.59491319E+02 0.75467711E-02 0.94284638E-01
        1 -1    0    0  502    0 0.00000000E+00 0.00000000E+00 0.33050326E+04 0.33050327E+04 0.32000000E+00 0.0000E+00 0.9000E+01
       -3 -1    0    0    0  501 0.00000000E+00 0.00000000E+00 -.60740550E+03 0.60740571E+03 0.50000000E+00 0.0000E+00 0.9000E+01
       25  1    1    2    0    0 0.11742698E+03 0.49154027E+03 0.49655359E+03 0.71943825E+03 0.12500000E+03 0.0000E+00 0.9000E+01
        2  1    1    2  502    0 -.33041192E+02 -.49473075E+02 0.25945279E+04 0.25952099E+04 0.32000000E+00 0.0000E+00 0.9000E+01
       -4  1    1    2    0  501 -.84385789E+02 -.44206719E+03 -.39345438E+03 0.59779019E+03 0.15500000E+01 0.0000E+00 0.9000E+01
#aMCatNLO 1  0  0  4  1 0.38578771D+01 0.00000000D+00  -5  6  0 0.00000000D+00 0.00000000D+00 0.00000000D+00 0.00000000D+00 0.00000000D+00
  <mgrwgt>
 -.5710780733D-02    6    2    0
 0.141686112785928D+04 0.000000000000000D+00 0.000000000000000D+00 0.141686112785928D+04
 0.141686112785928D+04 -.000000000000000D+00 -.000000000000000D+00 -.141686112785928D+04
 0.520612483015594D+03 0.117428875558732D+03 0.491550932345534D+03 0.705384228937104D+00
 0.111319675640518D+04 -.330407788433253D+02 -.494724571426505D+02 0.111160595598832D+04
 0.119991301629779D+04 -.843880967154072D+02 -.442078475202884D+03 -.111231134021725D+04
 0.000000000000000D+00 -.000000000000000D+00 0.000000000000000D+00 0.000000000000000D+00
 0.141686112785928D+04 0.000000000000000D+00 0.000000000000000D+00 0.141686112785928D+04
 0.141686112785928D+04 -.000000000000000D+00 -.000000000000000D+00 -.141686112785928D+04
 0.520612060903826D+03 0.117428610649306D+03 0.491550535692650D+03 0.714296697294114D+00
 0.183416881529149D+03 -.175823551503931D+01 -.701744669015536D+01 0.183274156606169D+03
 0.119989435434639D+04 -.843887072768824D+02 -.442079389405801D+03 -.111229079881974D+04
 0.929798958939197D+03 -.312816678573847D+02 -.424536995966933D+02 0.928302345516281D+03
0.284241333826D-02 0.000000000000D+00 0.000000000000D+00 0.663908542329D-03 0.000000000000D+00  6 1 -3 25 2 -4 21 0 0.50846658D+00 0.93447018D-01 0.26530953D+06 0.26530953D+06 0.26530953D+06 0.10885225D+01  1  2  2  3  6  4        2 0.723365387595D-04 0.100000000000D+01
0.120260884851D-02 0.000000000000D+00 -.109156156435D-04 0.663908542329D-03 0.000000000000D+00  6 1 -3 25 2 -4 21 2 0.50846658D+00 0.93447018D-01 0.26530953D+06 0.26530953D+06 0.26530953D+06 0.10885225D+01  1  2  3  3  6  4        2 0.362635001095D-04 0.100000000000D+01
-.179519566736D-02 0.000000000000D+00 0.000000000000D+00 0.663908542329D-03 0.000000000000D+00  6 1 -3 25 2 -4 21 2 0.50846658D+00 0.93447018D-01 0.26530953D+06 0.26530953D+06 0.26530953D+06 0.10885225D+01  1  2 15  3  6  4        2 -.541323792524D-04 0.100000000000D+01
0.135389907608D+00 0.000000000000D+00 0.000000000000D+00 0.663908542329D-03 0.000000000000D+00  6 1 -3 25 2 -4 21 2 0.50846658D+00 0.93447018D-01 0.26555553D+06 0.26555553D+06 0.26555553D+06 0.10884924D+01  1  2 12  3  6  4        2 0.408197903938D-02 0.100000000000D+01
-.167095983702D+01 0.000000000000D+00 0.000000000000D+00 0.663908542329D-03 0.000000000000D+00  6 1 -3 25 2 -4 21 2 0.50846658D+00 0.93447018D-01 0.26530953D+06 0.26530953D+06 0.26530953D+06 0.10885225D+01  1  2  5  3  6  4        2 -.503861686263D-01 0.100000000000D+01
0.134458395055D+01 0.000000000000D+00 0.000000000000D+00 0.663908542329D-03 0.209886043899D-04  6 1 -3 25 2 -4 21 2 0.50846658D+00 0.93447018D-01 0.26555553D+06 0.26555553D+06 0.26555553D+06 0.10884924D+01  1  2 11  3  6  4        2 0.405389411944D-01 0.100000000000D+01
  </mgrwgt>
  </event>
  <event>
  5     66 0.19199499E-05 0.43642797E+02 0.75467711E-02 0.93120325E-01
        1 -1    0    0  502    0 0.00000000E+00 0.00000000E+00 0.17050023E+04 0.17050023E+04 0.32000000E+00 0.0000E+00 0.9000E+01
       -3 -1    0    0    0  501 0.00000000E+00 0.00000000E+00 -.39255694E+03 0.39255726E+03 0.50000000E+00 0.0000E+00 0.9000E+01
       25  1    1    2    0    0 0.45477969E+03 0.28068215E+03 0.54956214E+03 0.77669208E+03 0.12500000E+03 0.0000E+00 0.9000E+01
        2  1    1    2  502    0 -.10386252E+02 0.42403387E+02 0.77015401E+03 0.77139045E+03 0.32000000E+00 0.0000E+00 0.9000E+01
       -4  1    1    2    0  501 -.44439343E+03 -.32308553E+03 -.72707855E+01 0.54947707E+03 0.15500000E+01 0.0000E+00 0.9000E+01
#aMCatNLO 1  0  0  5  2 0.16548782D+02 0.00000000D+00  -5  6  0 0.00000000D+00 0.00000000D+00 0.00000000D+00 0.00000000D+00 0.00000000D+00
  <mgrwgt>
 0.1035460345D-02    7    2    0
 0.818114204276568D+03 0.000000000000000D+00 0.000000000000000D+00 0.818114204276568D+03
 0.818114204276568D+03 -.000000000000000D+00 -.000000000000000D+00 -.818114204276568D+03
 0.554953600150669D+03 0.454839250536882D+03 0.280734850347652D+03 0.815947197526810D+02
 0.371009645709777D+03 -.103829063462372D+02 0.423897273035937D+02 0.368433797967323D+03
 0.710265162692690D+03 -.444456344190645D+03 -.323124577651245D+03 -.450028517720004D+03
 0.000000000000000D+00 0.000000000000000D+00 0.000000000000000D+00 -.000000000000000D+00
 0.818114204276568D+03 0.000000000000000D+00 0.000000000000000D+00 0.818114204276568D+03
 0.818114204276568D+03 -.000000000000000D+00 -.000000000000000D+00 -.818114204276568D+03
 0.553645807750017D+03 0.453860045957597D+03 0.280022958009402D+03 0.806032388319556D+02
 0.370316002372692D+03 -.110377050626813D+02 0.419136815423776D+02 0.367770790003509D+03
 0.679017811476273D+03 -.418236689922729D+03 -.323466895971337D+03 -.426042752215285D+03
 0.332487869541540D+02 -.245856509721861D+02 0.153025641955765D+01 -.223312766201794D+02
0.280560475978D-03 0.000000000000D+00 0.000000000000D+00 0.135303534166D-04 0.000000000000D+00  6 1 -3 25 2 -4 21 0 0.26230807D+00 0.60393402D-01 0.32607858D+06 0.32607858D+06 0.32607858D+06 0.10818837D+01  1  2  2  4  6  5       -4 0.262883192823D-03 0.100000000000D+01
0.110553719749D-03 0.000000000000D+00 -.107742610102D-05 0.135303534166D-04 0.000000000000D+00  6 1 -3 25 2 -4 21 2 0.26230807D+00 0.60393402D-01 0.32607858D+06 0.32607858D+06 0.32607858D+06 0.10818837D+01  1  2  3  4  6  5       -4 0.121246950829D-03 0.100000000000D+01
-.175029360091D-03 0.000000000000D+00 0.000000000000D+00 0.135303534166D-04 0.000000000000D+00  6 1 -3 25 2 -4 21 2 0.26230807D+00 0.60393402D-01 0.32607858D+06 0.32607858D+06 0.32607858D+06 0.10818837D+01  1  2 15  4  6  5       -4 -.191958952308D-03 0.100000000000D+01
0.380209004269D-02 0.000000000000D+00 0.000000000000D+00 0.135303534166D-04 0.000000000000D+00  6 1 -3 25 2 -4 21 2 0.26230807D+00 0.60393402D-01 0.32744169D+06 0.32744169D+06 0.32744169D+06 0.10817507D+01  1  2 12  4  6  5       -4 0.416798779436D-02 0.100000000000D+01
-.365888155982D-02 0.000000000000D+00 0.000000000000D+00 0.135303534166D-04 0.000000000000D+00  6 1 -3 25 2 -4 21 2 0.26230807D+00 0.60393402D-01 0.32607858D+06 0.32607858D+06 0.32607858D+06 0.10818837D+01  1  2  4  4  6  5       -4 -.401278431502D-02 0.100000000000D+01
-.130964397015D-01 0.000000000000D+00 0.000000000000D+00 0.135303534166D-04 0.000000000000D+00  6 1 -3 25 2 -4 21 2 0.26230807D+00 0.60393402D-01 0.32607858D+06 0.32607858D+06 0.32607858D+06 0.10818837D+01  1  2  5  4  6  5       -4 -.143631836554D-01 0.100000000000D+01
0.137238404753D-01 0.000000000000D+00 -.000000000000D+00 0.135303534166D-04 0.000000000000D+00  6 1 -3 25 2 -4 21 2 0.26230807D+00 0.60393402D-01 0.32607858D+06 0.32607858D+06 0.32607858D+06 0.10818837D+01  1  2  6  4  6  5       -4 0.150512693294D-01 0.100000000000D+01
  </mgrwgt>
  </event>
  <event>
  5     66 -.19199499E-05 0.49080260E+02 0.75467711E-02 0.93799254E-01
        1 -1    0    0  502    0 0.00000000E+00 0.00000000E+00 0.32890436E+04 0.32890436E+04 0.32000000E+00 0.0000E+00 0.9000E+01
       -3 -1    0    0    0  501 0.00000000E+00 0.00000000E+00 -.26783317E+03 0.26783364E+03 0.50000000E+00 0.0000E+00 0.9000E+01
       25  1    1    2    0    0 0.16075299E+03 0.50545981E+03 0.11727836E+04 0.12932044E+04 0.12500000E+03 0.0000E+00 0.9000E+01
        2  1    1    2  502    0 -.87216211E+01 -.48307912E+02 0.17757759E+04 0.17764543E+04 0.32000000E+00 0.0000E+00 0.9000E+01
       -4  1    1    2    0  501 -.15203137E+03 -.45715190E+03 0.72650910E+02 0.48721859E+03 0.15500000E+01 0.0000E+00 0.9000E+01
#aMCatNLO 1  0  0  4  1 0.34187646D+01 0.00000000D+00  -5  6  0 0.00000000D+00 0.00000000D+00 0.00000000D+00 0.00000000D+00 0.00000000D+00
  <mgrwgt>
 -.4405956552D-02    8    2    0
 0.938571168830869D+03 0.000000000000000D+00 0.000000000000000D+00 0.938571168830869D+03
 0.938571168830869D+03 -.000000000000000D+00 -.000000000000000D+00 -.938571168830869D+03
 0.562910435497271D+03 0.160768271989807D+03 0.505503061989515D+03 0.140937487675788D+03
 0.507936436357522D+03 -.872008442094808D+01 -.482994001763970D+02 0.505559641832564D+03
 0.806295465806945D+03 -.152048187568859D+03 -.457203661813118D+03 -.646497129508352D+03
 0.000000000000000D+00 0.000000000000000D+00 0.000000000000000D+00 0.000000000000000D+00
 0.938571168830869D+03 0.000000000000000D+00 0.000000000000000D+00 0.938571168830869D+03
 0.938571168830869D+03 -.000000000000000D+00 -.000000000000000D+00 -.938571168830869D+03
 0.562912729409654D+03 0.160768024183075D+03 0.505501689420632D+03 0.140951854633360D+03
 0.200782052630143D+03 -.678360226434877D+01 -.198210547337317D+02 0.199686106647246D+03
 0.806280147547744D+03 -.152048542515450D+03 -.457205627815576D+03 -.646476550960903D+03
 0.307167408074196D+03 -.193587940327665D+01 -.284750068713243D+02 0.305838589680297D+03
0.175942763645D-03 0.000000000000D+00 0.000000000000D+00 0.580999528462D-04 0.000000000000D+00  6 1 -3 25 2 -4 21 0 0.50600674D+00 0.41205141D-01 0.28938222D+06 0.28938222D+06 0.28938222D+06 0.10857116D+01  1  2  2  3  6  4        2 0.285174154369D-04 0.100000000000D+01
0.683497883539D-04 0.000000000000D+00 -.675666539191D-06 0.580999528462D-04 0.000000000000D+00  6 1 -3 25 2 -4 21 2 0.50600674D+00 0.41205141D-01 0.28938222D+06 0.28938222D+06 0.28938222D+06 0.10857116D+01  1  2  3  3  6  4        2 0.130588479926D-04 0.100000000000D+01
-.112501029343D-03 0.000000000000D+00 0.000000000000D+00 0.580999528462D-04 0.000000000000D+00  6 1 -3 25 2 -4 21 2 0.50600674D+00 0.41205141D-01 0.28938222D+06 0.28938222D+06 0.28938222D+06 0.10857116D+01  1  2 15  3  6  4        2 -.214943436780D-04 0.100000000000D+01
0.475191899292D-02 0.000000000000D+00 0.000000000000D+00 0.580999528462D-04 0.000000000000D+00  6 1 -3 25 2 -4 21 2 0.50600674D+00 0.41205141D-01 0.28960327D+06 0.28960327D+06 0.28960327D+06 0.10856870D+01  1  2 12  3  6  4        2 0.907805676408D-03 0.100000000000D+01
-.255585585743D+00 0.000000000000D+00 0.000000000000D+00 0.580999528462D-04 0.000000000000D+00  6 1 -3 25 2 -4 21 2 0.50600674D+00 0.41205141D-01 0.28938222D+06 0.28938222D+06 0.28938222D+06 0.10857116D+01  1  2  4  3  6  4        2 -.488319480381D-01 0.100000000000D+01
-.128636212286D+00 0.000000000000D+00 0.000000000000D+00 0.580999528462D-04 0.000000000000D+00  6 1 -3 25 2 -4 21 2 0.50600674D+00 0.41205141D-01 0.28938222D+06 0.28938222D+06 0.28938222D+06 0.10857116D+01  1  2  5  3  6  4        2 -.245771169604D-01 0.100000000000D+01
0.222509018826D+00 0.000000000000D+00 -.000000000000D+00 0.580999528462D-04 0.000000000000D+00  6 1 -3 25 2 -4 21 2 0.50600674D+00 0.41205141D-01 0.28938222D+06 0.28938222D+06 0.28938222D+06 0.10857116D+01  1  2  6  3  6  4        2 0.425123694427D-01 0.100000000000D+01
0.133809032347D+00 0.000000000000D+00 0.000000000000D+00 0.580999528462D-04 0.773606068293D-05  6 1 -3 25 2 -4 21 2 0.50600674D+00 0.41205141D-01 0.28960327D+06 0.28960327D+06 0.28960327D+06 0.10856870D+01  1  2 11  3  6  4        2 0.255628514081D-01 0.100000000000D+01
  </mgrwgt>
  </event>
  <event>
  5     66 -.19199499E-05 0.41526755E+02 0.75467711E-02 0.92170720E-01
        1 -1    0    0  502    0 0.00000000E+00 0.00000000E+00 0.10034009E+04 0.10034010E+04 0.32000000E+00 0.0000E+00 0.9000E+01
       -3 -1    0    0    0  501 0.00000000E+00 0.00000000E+00 -.21214452E+04 0.21214453E+04 0.50000000E+00 0.0000E+00 0.9000E+01
       25  1    1    2    0    0 -.53522774E+03 0.28886393E+03 -.11902935E+03 0.63222155E+03 0.12500000E+03 0.0000E+00 0.9000E+01
        2  1    1    2  502    0 0.41099825E+02 0.59535248E+01 0.69876091E+03 0.69999397E+03 0.32000000E+00 0.0000E+00 0.9000E+01
       -4  1    1    2    0  501 0.49412792E+03 -.29481746E+03 -.16977759E+04 0.17926308E+04 0.15500000E+01 0.0000E+00 0.9000E+01
#aMCatNLO 1  0  0  2  2 0.23527651D+02 0.00000000D+00  -5  6  0 0.00000000D+00 0.00000000D+00 0.00000000D+00 0.00000000D+00 0.00000000D+00
  <mgrwgt>
 -.1701961895D-02    7    4    0
 0.145899291077468D+04 0.000000000000000D+00 0.000000000000000D+00 0.145899291077468D+04
 0.145899291077468D+04 0.000000000000000D+00 0.000000000000000D+00 -.145899291077468D+04
 0.631473207746959D+03 -.535255107842818D+03 0.288881220873304D+03 0.114817341273679D+03
 0.101730237016445D+04 0.410978149526081D+02 0.595323365112834D+01 0.101645444608080D+04
 0.126921024363795D+04 0.494157292890210D+03 -.294834454524432D+03 -.113127178735448D+04
 0.000000000000000D+00 0.000000000000000D+00 0.000000000000000D+00 -.000000000000000D+00
 0.146744639839172D+04 0.000000000000000D+00 0.000000000000000D+00 0.146744639839172D+04
 0.147550316620214D+04 0.000000000000000D+00 0.000000000000000D+00 -.147550316620214D+04
 0.635792880043966D+03 -.540363864915991D+03 0.288845041415801D+03 0.114817341273679D+03
 0.101700373552326D+04 0.328968729353343D+02 0.589515579991210D+01 0.101645444608080D+04
 0.126528405588476D+04 0.483939931434438D+03 -.294906812358106D+03 -.113127178735448D+04
 0.248688931418760D+02 0.235270605462193D+02 0.166615142392267D+00 -.805676781041268D+01
 0.145899291077468D+04 0.000000000000000D+00 0.000000000000000D+00 0.145899291077468D+04
 0.145899291077468D+04 0.000000000000000D+00 0.000000000000000D+00 -.145899291077468D+04
 0.631473207746959D+03 -.535255107842818D+03 0.288881220873304D+03 0.114817341273679D+03
 0.101730237016445D+04 0.410978149526081D+02 0.595323365112834D+01 0.101645444608080D+04
 0.000000000000000D+00 0.000000000000000D+00 0.000000000000000D+00 -.000000000000000D+00
 0.126921024363795D+04 0.494157292890210D+03 -.294834454524432D+03 -.113127178735448D+04
 0.146744639839172D+04 0.000000000000000D+00 0.000000000000000D+00 0.146744639839172D+04
 0.147550316620214D+04 0.000000000000000D+00 0.000000000000000D+00 -.147550316620214D+04
 0.635792880043966D+03 -.540363864915991D+03 0.288845041415801D+03 0.114817341273679D+03
 0.101700373552326D+04 0.328968729353343D+02 0.589515579991210D+01 0.101645444608080D+04
 0.248688931418760D+02 0.235270605462193D+02 0.166615142392267D+00 -.805676781041268D+01
 0.126528405588476D+04 0.483939931434438D+03 -.294906812358106D+03 -.113127178735448D+04
0.475486587575D-01 0.000000000000D+00 0.000000000000D+00 0.390377268525D-03 0.000000000000D+00  6 1 -3 25 2 -4 21 0 0.15436938D+00 0.32637620D+00 0.38310105D+06 0.38310105D+06 0.38310105D+06 0.10767817D+01  1  2  2  2  6  2       -3 0.345113770832D-04 0.100000000000D+01
0.277616041859D-01 0.000000000000D+00 -.182599369478D-03 0.390377268525D-03 0.000000000000D+00  6 1 -3 25 2 -4 21 2 0.15436938D+00 0.32637620D+00 0.38310105D+06 0.38310105D+06 0.38310105D+06 0.10767817D+01  1  2  3  2  6  2       -3 0.233627455065D-04 0.100000000000D+01
-.289852188268D-01 0.000000000000D+00 0.000000000000D+00 0.390377268525D-03 0.000000000000D+00  6 1 -3 25 2 -4 21 2 0.15436938D+00 0.32637620D+00 0.38310105D+06 0.38310105D+06 0.38310105D+06 0.10767817D+01  1  2 15  2  6  2       -3 -.243924769753D-04 0.100000000000D+01
-.175777920618D-02 0.000000000000D+00 0.000000000000D+00 0.390377268525D-03 0.000000000000D+00  6 1 -3 25 2 -4 21 2 0.15436938D+00 0.32637620D+00 0.38310105D+06 0.38310105D+06 0.38310105D+06 0.10767817D+01  1  2  4  2  6  2       -3 -.147925703341D-05 0.100000000000D+01
-.395386387660D+01 0.000000000000D+00 -.517992185337D+00 0.390377268525D-03 0.000000000000D+00  6 1 -3 25 2 -4 21 2 0.15436938D+00 0.33090864D+00 0.38310105D+06 0.38310105D+06 0.38310105D+06 0.10767817D+01  1  2  5  2  6  2       -3 -.270691665919D-02 0.100000000000D+01
0.396068040504D+01 0.000000000000D+00 0.517942925883D+00 0.390377268525D-03 0.000000000000D+00  6 1 -3 25 2 -4 21 2 0.15436938D+00 0.32637620D+00 0.38310105D+06 0.38310105D+06 0.38310105D+06 0.10767817D+01  1  2  6  2  6  2       -3 0.333310595872D-02 0.100000000000D+01
-.997981339843D-02 0.000000000000D+00 -.131220390108D-02 0.390377268525D-03 0.000000000000D+00  6 1 21 25 2 3 -4 2 0.15436938D+00 0.33090864D+00 0.38310105D+06 0.38310105D+06 0.38310105D+06 0.10767817D+01  3  4  5  6  5  2       -3 -.236015358352D-02 0.100000000000D+01
  </mgrwgt>
  </event>
  <event>
  5     66 -.19199499E-05 0.28924198E+02 0.75467711E-02 0.94318260E-01
        1 -1    0    0  502    0 0.00000000E+00 0.00000000E+00 0.11164785E+04 0.11164786E+04 0.32000000E+00 0.0000E+00 0.9000E+01
       -3 -1    0    0    0  501 0.00000000E+00 0.00000000E+00 -.78360102E+03 0.78360118E+03 0.50000000E+00 0.0000E+00 0.9000E+01
       25  1    1    2    0    0 -.30437641E+03 -.35360775E+03 -.23975318E+02 0.48361478E+03 0.12500000E+03 0.0000E+00 0.9000E+01
        2  1    1    2  502    0 0.45073588E+01 0.28571573E+02 0.79406479E+03 0.79459150E+03 0.32000000E+00 0.0000E+00 0.9000E+01
       -4  1    1    2    0  501 0.29986905E+03 0.32503617E+03 -.43721195E+03 0.62187350E+03 0.15500000E+01 0.0000E+00 0.9000E+01
#aMCatNLO 1  0  0  2  2 0.18257461D+03 0.00000000D+00  -5  6  0 0.00000000D+00 0.00000000D+00 0.00000000D+00 0.00000000D+00 0.00000000D+00
  <mgrwgt>
 -.5009027420D-02    7    4    0
 0.935346954868549D+03 0.000000000000000D+00 0.000000000000000D+00 0.935346954868549D+03
 0.935346954868549D+03 0.000000000000000D+00 0.000000000000000D+00 -.935346954868549D+03
 0.495489110085644D+03 -.304386707662364D+03 -.353618750772611D+03 -.110394608174258D+03
 0.665758102818770D+03 0.450724615384373D+01 0.285708589640019D+02 0.665129492820019D+03
 0.709446696832685D+03 0.299879461508520D+03 0.325047891808609D+03 -.554734884645761D+03
 0.000000000000000D+00 0.000000000000000D+00 -.000000000000000D+00 -.000000000000000D+00
 0.941359420888024D+03 0.000000000000000D+00 0.000000000000000D+00 0.941359420888024D+03
 0.106905747290410D+04 0.000000000000000D+00 0.000000000000000D+00 -.106905747290410D+04
 0.491543475863970D+03 -.311934504823521D+03 -.341320793171161D+03 -.110394608174258D+03
 0.666685892322219D+03 -.568189769721716D+01 0.451724788008841D+02 0.665129492820019D+03
 0.713264305966556D+03 0.289000049601625D+03 0.342774195722586D+03 -.554734884645761D+03
 0.138923219639384D+03 0.286163529191131D+02 -.466258813523087D+02 -.127698052016081D+03
 0.935346954868549D+03 0.000000000000000D+00 0.000000000000000D+00 0.935346954868549D+03
 0.935346954868549D+03 0.000000000000000D+00 0.000000000000000D+00 -.935346954868549D+03
 0.495489110085644D+03 -.304386707662364D+03 -.353618750772611D+03 -.110394608174258D+03
 0.665758102818770D+03 0.450724615384373D+01 0.285708589640019D+02 0.665129492820019D+03
 0.000000000000000D+00 0.000000000000000D+00 -.000000000000000D+00 -.000000000000000D+00
 0.709446696832685D+03 0.299879461508520D+03 0.325047891808609D+03 -.554734884645761D+03
 0.941359420888024D+03 0.000000000000000D+00 0.000000000000000D+00 0.941359420888024D+03
 0.106905747290410D+04 0.000000000000000D+00 0.000000000000000D+00 -.106905747290410D+04
 0.491543475863970D+03 -.311934504823521D+03 -.341320793171161D+03 -.110394608174258D+03
 0.666685892322219D+03 -.568189769721716D+01 0.451724788008841D+02 0.665129492820019D+03
 0.138923219639384D+03 0.286163529191131D+02 -.466258813523087D+02 -.127698052016081D+03
 0.713264305966556D+03 0.289000049601625D+03 0.342774195722586D+03 -.554734884645761D+03
0.189962281757D-02 0.000000000000D+00 0.000000000000D+00 0.144553129199D-03 0.000000000000D+00  6 1 -3 25 2 -4 21 0 0.17176595D+00 0.12055402D+00 0.22762797D+06 0.22762797D+06 0.22762797D+06 0.10935353D+01  1  2  2  2  6  2       -3 0.830582858155D-03 0.100000000000D+01
0.118776684232D-02 0.000000000000D+00 -.729505180163D-05 0.144553129199D-03 0.000000000000D+00  6 1 -3 25 2 -4 21 2 0.17176595D+00 0.12055402D+00 0.22762797D+06 0.22762797D+06 0.22762797D+06 0.10935353D+01  1  2  3  2  6  2       -3 0.621029759638D-03 0.100000000000D+01
-.132305717300D-02 0.000000000000D+00 0.000000000000D+00 0.144553129199D-03 0.000000000000D+00  6 1 -3 25 2 -4 21 2 0.17176595D+00 0.12055402D+00 0.22762797D+06 0.22762797D+06 0.22762797D+06 0.10935353D+01  1  2 15  2  6  2       -3 -.691766977205D-03 0.100000000000D+01
-.157646958196D-01 0.000000000000D+00 0.000000000000D+00 0.144553129199D-03 0.000000000000D+00  6 1 -3 25 2 -4 21 2 0.17176595D+00 0.12055402D+00 0.22762797D+06 0.22762797D+06 0.22762797D+06 0.10935353D+01  1  2  4  2  6  2       -3 -.824264906777D-02 0.100000000000D+01
-.377362362327D-01 0.000000000000D+00 -.292748268850D-02 0.144553129199D-03 0.000000000000D+00  6 1 -3 25 2 -4 21 2 0.17176595D+00 0.13818263D+00 0.22762797D+06 0.22762797D+06 0.22762797D+06 0.10935353D+01  1  2  5  2  6  2       -3 -.131471850738D-01 0.100000000000D+01
0.378101492755D-01 0.000000000000D+00 0.290042858473D-02 0.144553129199D-03 0.000000000000D+00  6 1 -3 25 2 -4 21 2 0.17176595D+00 0.12055402D+00 0.22762797D+06 0.22762797D+06 0.22762797D+06 0.10935353D+01  1  2  6  2  6  2       -3 0.197692232851D-01 0.100000000000D+01
-.779779276827D-03 0.000000000000D+00 -.618222789912D-04 0.144553129199D-03 0.000000000000D+00  6 1 21 25 2 3 -4 2 0.17176595D+00 0.13818263D+00 0.22762797D+06 0.22762797D+06 0.22762797D+06 0.10935353D+01  3  4  5  6  5  2       -3 -.414826220420D-02 0.100000000000D+01
  </mgrwgt>
  </event>
  <event>
  5     66 0.19199499E-05 0.12615295E+03 0.75467711E-02 0.94126739E-01
        1 -1    0    0  502    0 0.00000000E+00 0.00000000E+00 0.39994248E+04 0.39994248E+04 0.32000000E+00 0.0000E+00 0.9000E+01
       -3 -1    0    0    0  501 0.00000000E+00 0.00000000E+00 -.19472071E+03 0.19472135E+03 0.50000000E+00 0.0000E+00 0.9000E+01
       25  1    1    2    0    0 -.28520560E+03 -.39798947E+03 0.10174414E+04 0.11360237E+04 0.12500000E+03 0.0000E+00 0.9000E+01
        2  1    1    2  502    0 0.30384333E+03 0.27321235E+03 0.28753536E+04 0.29042424E+04 0.32000000E+00 0.0000E+00 0.9000E+01
       -4  1    1    2    0  501 -.18637732E+02 0.12477712E+03 -.88090807E+02 0.15388011E+03 0.15500000E+01 0.0000E+00 0.9000E+01
#aMCatNLO 1  0  0  1  4 0.37423784D+01 0.00000000D+00  -5  6  0 0.00000000D+00 0.00000000D+00 0.00000000D+00 0.00000000D+00 0.00000000D+00
  <mgrwgt>
 0.3195716624D-03   11    2    0
 0.882480706468134D+03 0.000000000000000D+00 0.000000000000000D+00 0.882480706468134D+03
 0.882480706468134D+03 0.000000000000000D+00 0.000000000000000D+00 -.882480706468134D+03
 0.506303247271241D+03 -.285217813244570D+03 -.397990784747154D+03 -.311787180899642D+02
 0.703126550585708D+03 0.303854028376817D+03 0.273221962473392D+03 0.572197024459167D+03
 0.555531615079320D+03 -.186362151322471D+02 0.124768822273761D+03 -.541018306369203D+03
 0.000000000000000D+00 -.000000000000000D+00 -.000000000000000D+00 0.000000000000000D+00
 0.905304686076611D+03 0.000000000000000D+00 0.000000000000000D+00 0.905304686076611D+03
 0.882636110207166D+03 0.000000000000000D+00 0.000000000000000D+00 -.882636110207166D+03
 0.505317392683016D+03 -.284894341221009D+03 -.396968221935302D+03 -.311787180899642D+02
 0.703874805020283D+03 0.304303925855848D+03 0.274644182627514D+03 0.572197024459167D+03
 0.555773182849546D+03 -.182808684760191D+02 0.125892147475040D+03 -.541018306369203D+03
 0.229754157309317D+02 -.112871615881934D+01 -.356810816725277D+01 0.226685758694442D+02
0.163438136769D-03 0.000000000000D+00 0.000000000000D+00 0.942134246045D-05 0.000000000000D+00  6 1 -3 25 2 -4 21 0 0.61529618D+00 0.29957082D-01 0.27046453D+06 0.27046453D+06 0.27046453D+06 0.10878978D+01  1  2  2  1  6  1        1 0.123342996790D-04 0.100000000000D+01
0.259585257162D-04 0.000000000000D+00 -.627645479442D-06 0.942134246045D-05 0.000000000000D+00  6 1 -3 25 2 -4 21 2 0.61529618D+00 0.29957082D-01 0.27046453D+06 0.27046453D+06 0.27046453D+06 0.10878978D+01  1  2  3  1  6  1        1 0.231855436564D-05 0.100000000000D+01
-.903675072581D-04 0.000000000000D+00 0.000000000000D+00 0.942134246045D-05 0.000000000000D+00  6 1 -3 25 2 -4 21 2 0.61529618D+00 0.29957082D-01 0.27046453D+06 0.27046453D+06 0.27046453D+06 0.10878978D+01  1  2 15  1  6  1        1 -.807141286666D-05 0.100000000000D+01
0.306337754851D-03 0.000000000000D+00 0.000000000000D+00 0.942134246045D-05 0.000000000000D+00  6 1 -3 25 2 -4 21 2 0.63194720D+00 0.29957082D-01 0.27312355D+06 0.27312355D+06 0.27312355D+06 0.10875806D+01  1  2 12  1  6  1        1 0.216004091659D-04 0.100000000000D+01
-.285910248608D-01 0.000000000000D+00 0.000000000000D+00 0.942134246045D-05 0.000000000000D+00  6 1 -3 25 2 -4 21 2 0.61529618D+00 0.29957082D-01 0.27046453D+06 0.27046453D+06 0.27046453D+06 0.10878978D+01  1  2  4  1  6  1        1 -.255368298777D-02 0.100000000000D+01
-.465136371761D-01 0.000000000000D+00 -.625981715591D-03 0.942134246045D-05 0.000000000000D+00  6 1 -3 25 2 -4 21 2 0.63123012D+00 0.29957082D-01 0.27046453D+06 0.27046453D+06 0.27046453D+06 0.10878978D+01  1  2  5  1  6  1        1 -.331826016779D-02 0.100000000000D+01
0.472994387731D-01 0.000000000000D+00 0.636540660108D-03 0.942134246045D-05 0.000000000000D+00  6 1 -3 25 2 -4 21 2 0.61529618D+00 0.29957082D-01 0.27046453D+06 0.27046453D+06 0.27046453D+06 0.10878978D+01  1  2  6  1  6  1        1 0.422467444641D-02 0.100000000000D+01
0.272158945142D-01 0.000000000000D+00 0.000000000000D+00 0.942134246045D-05 0.273691397392D-05  6 1 -3 25 2 -4 21 2 0.63120985D+00 0.29962357D-01 0.27312355D+06 0.27312355D+06 0.27312355D+06 0.10875806D+01  1  2 11  1  6  1        1 0.193877038590D-02 0.100000000000D+01
0.142125901899D-04 0.000000000000D+00 0.000000000000D+00 0.942134246045D-05 0.000000000000D+00  6 21 -3 25 2 -4 -1 2 0.63194720D+00 0.29957082D-01 0.27312355D+06 0.27312355D+06 0.27312355D+06 0.10875806D+01  1  2 12  5  6  1        1 0.749924088658D-07 0.100000000000D+01
-.226916281943D-03 0.000000000000D+00 -.288897725254D-05 0.942134246045D-05 0.000000000000D+00  6 21 -3 25 2 -4 -1 2 0.63123012D+00 0.29957082D-01 0.27046453D+06 0.27046453D+06 0.27046453D+06 0.10878978D+01  1  2  5  5  6  1        1 -.121644183098D-05 0.100000000000D+01
0.192387743439D-03 0.000000000000D+00 0.000000000000D+00 0.942134246045D-05 0.190273240562D-07  6 21 -3 25 2 -4 -1 2 0.63120985D+00 0.29962357D-01 0.27312355D+06 0.27312355D+06 0.27312355D+06 0.10875806D+01  1  2 11  5  6  1        1 0.102958477766D-05 0.100000000000D+01
  </mgrwgt>
  </event>
  <event>
  5     66 0.19199499E-05 0.47346530E+02 0.75467711E-02 0.89005491E-01
        3 -1    0    0  502    0 0.00000000E+00 0.00000000E+00 0.48371526E+03 0.48371552E+03 0.50000000E+00 0.0000E+00 0.9000E+01
       -1 -1    0    0    0  501 0.00000000E+00 0.00000000E+00 -.26058047E+04 0.26058048E+04 0.32000000E+00 0.0000E+00 0.9000E+01
       25  1    1    2    0    0 0.13337734E+03 0.57503568E+03 -.47349249E+03 0.76699132E+03 0.12500000E+03 0.0000E+00 0.9000E+01
        4  1    1    2  502    0 -.86429326E+02 -.58091499E+03 0.80484249E+02 0.59280045E+03 0.15500000E+01 0.0000E+00 0.9000E+01
       -2  1    1    2    0  501 -.46948013E+02 0.58793164E+01 -.17290812E+04 0.17297285E+04 0.32000000E+00 0.0000E+00 0.9000E+01
#aMCatNLO 1  0  0  1  4 0.29823127D+02 0.00000000D+00  -5  6  0 0.00000000D+00 0.00000000D+00 0.00000000D+00 0.00000000D+00 0.00000000D+00
  <mgrwgt>
 0.1313008184D-02    4    2    0
 0.112270563432530D+04 0.000000000000000D+00 0.000000000000000D+00 0.112270563432530D+04
 0.112270563432530D+04 0.000000000000000D+00 0.000000000000000D+00 -.112270563432530D+04
 0.607726151363273D+03 0.133379959494609D+03 0.574837368987545D+03 0.740125710370161D+02
 0.891411890810192D+03 -.864002126684955D+02 -.580719312935181D+03 0.670757215326627D+03
 0.746273226477137D+03 -.469797468261138D+02 0.588194394763559D+01 -.744769786363643D+03
 0.000000000000000D+00 0.000000000000000D+00 0.000000000000000D+00 -.000000000000000D+00
 0.123555840810493D+04 0.000000000000000D+00 0.000000000000000D+00 0.123555840810493D+04
 0.139702882361695D+04 0.000000000000000D+00 0.000000000000000D+00 -.139702882361695D+04
 0.528475472045304D+03 0.113236127909820D+03 0.495339321291969D+03 0.740125710370161D+02
 0.985517898769094D+03 -.119676487582040D+03 -.712044819657825D+03 0.670757215326627D+03
 0.754937067458088D+03 -.735948534333933D+02 -.991551243768452D+02 -.744769786363643D+03
 0.363656793449389D+03 0.800352131056135D+02 0.315860622742701D+03 -.161470415512017D+03
0.494522957139D+00 0.000000000000D+00 0.000000000000D+00 0.604243316836D-04 0.000000000000D+00  6 3 -1 25 4 -2 21 0 0.74417754D-01 0.40089306D+00 0.38295088D+06 0.38295088D+06 0.38295088D+06 0.10767940D+01  1  2  2  1  6  1        3 0.145914330666D-02 0.100000000000D+01
0.250661319303D+00 0.000000000000D+00 -.189909836630D-02 0.604243316836D-04 0.000000000000D+00  6 3 -1 25 4 -2 21 2 0.74417754D-01 0.40089306D+00 0.38295088D+06 0.38295088D+06 0.38295088D+06 0.10767940D+01  1  2  3  1  6  1        3 0.857559086688D-03 0.100000000000D+01
-.290477104277D+00 0.000000000000D+00 0.000000000000D+00 0.604243316836D-04 0.000000000000D+00  6 3 -1 25 4 -2 21 2 0.74417754D-01 0.40089306D+00 0.38295088D+06 0.38295088D+06 0.38295088D+06 0.10767940D+01  1  2 15  1  6  1        3 -.993776307167D-03 0.100000000000D+01
-.289896572274D-02 0.000000000000D+00 0.000000000000D+00 0.604243316836D-04 0.000000000000D+00  6 3 -1 25 4 -2 21 2 0.74417754D-01 0.40089306D+00 0.38295088D+06 0.38295088D+06 0.38295088D+06 0.10767940D+01  1  2  4  1  6  1        3 -.991790198999D-05 0.100000000000D+01
  </mgrwgt>
  </event>
  <event>
  5     66 0.19199499E-05 0.40712123E+02 0.75467711E-02 0.95483447E-01
        1 -1    0    0  502    0 0.00000000E+00 0.00000000E+00 0.12639254E+04 0.12639254E+04 0.32000000E+00 0.0000E+00 0.9000E+01
       -3 -1    0    0    0  501 0.00000000E+00 0.00000000E+00 -.26934546E+03 0.26934593E+03 0.50000000E+00 0.0000E+00 0.9000E+01
       25  1    1    2    0    0 -.18637337E+02 -.45472261E+03 0.38473631E+03 0.60890642E+03 0.12500000E+03 0.0000E+00 0.9000E+01
        2  1    1    2  502    0 -.49906678E+01 0.40427779E+02 0.49103407E+03 0.49272089E+03 0.32000000E+00 0.0000E+00 0.9000E+01
       -4  1    1    2    0  501 0.23628005E+02 0.41429483E+03 0.11880956E+03 0.43164407E+03 0.15500000E+01 0.0000E+00 0.9000E+01
#aMCatNLO 1  0  0  5  4 0.27058945D+02 0.00000000D+00  -5  6  0 0.00000000D+00 0.00000000D+00 0.00000000D+00 0.00000000D+00 0.00000000D+00
  <mgrwgt>
 0.1317421231D-01    3    2    0
 0.583466333343682D+03 0.000000000000000D+00 0.000000000000000D+00 0.583466333343682D+03
 0.583466333343682D+03 -.000000000000000D+00 -.000000000000000D+00 -.583466333343682D+03
 0.472211872462469D+03 -.186432397814127D+02 -.454789102251286D+03 -.133549458416249D+02
 0.228765718159166D+03 -.498790730540368D+01 0.404054168142930D+02 0.225113919777643D+03
 0.465955076065728D+03 0.236311470868164D+02 0.414383685436993D+03 -.211758973936018D+03
 0.000000000000000D+00 0.000000000000000D+00 0.000000000000000D+00 0.000000000000000D+00
 0.583466333343682D+03 0.000000000000000D+00 0.000000000000000D+00 0.583466333343682D+03
 0.583466333343682D+03 -.000000000000000D+00 -.000000000000000D+00 -.583466333343682D+03
 0.460783949528074D+03 -.179544689735979D+02 -.442711170328846D+03 -.195270287711634D+02
 0.226922621908946D+03 -.465150191247182D+01 0.463044493924347D+02 0.222099387280677D+03
 0.275414269540897D+02 -.272231883023622D+02 -.417377684205462D+01 0.883413511829416D-01
 0.451684668296254D+03 0.498291591884318D+02 0.400580497778466D+03 -.202660699860696D+03
0.539587432735D-02 0.000000000000D+00 0.000000000000D+00 0.497498057706D-05 0.000000000000D+00  6 1 -3 25 2 -4 21 0 0.19445010D+00 0.41437803D-01 0.21519952D+06 0.21519952D+06 0.21519952D+06 0.10953905D+01  1  2  2  4  6  5       -4 0.225388178885D-01 0.100000000000D+01
0.169767595963D-02 0.000000000000D+00 -.207215781834D-04 0.497498057706D-05 0.000000000000D+00  6 1 -3 25 2 -4 21 2 0.19445010D+00 0.41437803D-01 0.21519952D+06 0.21519952D+06 0.21519952D+06 0.10953905D+01  1  2  3  4  6  5       -4 0.850867746979D-02 0.100000000000D+01
-.356612917270D-02 0.000000000000D+00 0.000000000000D+00 0.497498057706D-05 0.000000000000D+00  6 1 -3 25 2 -4 21 2 0.19445010D+00 0.41437803D-01 0.21519952D+06 0.21519952D+06 0.21519952D+06 0.10953905D+01  1  2 15  4  6  5       -4 -.178732830456D-01 0.100000000000D+01
  </mgrwgt>
  </event>
  <event>
  5     66 -.19199499E-05 0.18786611E+03 0.75467711E-02 0.94198519E-01
        1 -1    0    0  502    0 0.00000000E+00 0.00000000E+00 0.56514436E+03 0.56514445E+03 0.32000000E+00 0.0000E+00 0.9000E+01
       -3 -1    0    0    0  501 -.00000000E+00 -.00000000E+00 -.70161010E+03 0.70161027E+03 0.50000000E+00 0.0000E+00 0.9000E+01
       25  1    1    2    0    0 0.50161953E+03 0.70874282E+02 0.78296572E+02 0.52763688E+03 0.12500000E+03 0.0000E+00 0.9000E+01
        2  1    1    2  502    0 -.32977683E+03 0.49931075E+01 0.12351277E+03 0.35218347E+03 0.32000000E+00 0.0000E+00 0.9000E+01
       -4  1    1    2    0  501 -.17184270E+03 -.75867389E+02 -.33827509E+03 0.38693438E+03 0.15500000E+01 0.0000E+00 0.9000E+01
#aMCatNLO 1  0  0  4  1 0.12237457D+02 0.00000000D+00  -5  6  0 0.00000000D+00 0.00000000D+00 0.00000000D+00 0.00000000D+00 0.00000000D+00
  <mgrwgt>
 -.1297373989D-02    7    2    0
 0.629691318479040D+03 0.000000000000000D+00 0.000000000000000D+00 0.629691318479040D+03
 0.629691318479040D+03 -.000000000000000D+00 -.000000000000000D+00 -.629691318479040D+03
 0.539210005618697D+03 0.501603897677769D+03 0.708811130865890D+02 0.135984660169418D+03
 0.367588707894474D+03 -.329740985220021D+03 0.499256474777143D+01 0.162380464141775D+03
 0.352583923444908D+03 -.171862912457748D+03 -.758736778343605D+02 -.298365124311192D+03
 0.000000000000000D+00 0.000000000000000D+00 0.000000000000000D+00 0.000000000000000D+00
 0.629691318479040D+03 0.000000000000000D+00 0.000000000000000D+00 0.629691318479040D+03
 0.629691318479040D+03 -.000000000000000D+00 -.000000000000000D+00 -.629691318479040D+03
 0.538830287756311D+03 0.501131502252327D+03 0.708882655633929D+02 0.136217290603243D+03
 0.290415663226383D+03 -.265469587072157D+03 0.708017501134507D+01 0.117545850240522D+03
 0.352604936509990D+03 -.172171925018375D+03 -.758689991159543D+02 -.298212951529314D+03
 0.775317494653954D+02 -.634899901617952D+02 -.209944145878363D+01 0.444498106855488D+02
0.215417611890D-04 0.000000000000D+00 0.000000000000D+00 0.175302163243D-06 0.000000000000D+00  6 1 -3 25 2 -4 21 0 0.86945306D-01 0.10794004D+00 0.27010164D+06 0.27010164D+06 0.27010164D+06 0.10879413D+01  1  2  2  3  6  4        2 0.379785616746D-04 0.100000000000D+01
0.124451058870D-05 0.000000000000D+00 -.827260350418D-07 0.175302163243D-06 0.000000000000D+00  6 1 -3 25 2 -4 21 2 0.86945306D-01 0.10794004D+00 0.27010164D+06 0.27010164D+06 0.27010164D+06 0.10879413D+01  1  2  3  3  6  4        2 0.259696945581D-05 0.100000000000D+01
-.145696010260D-04 0.000000000000D+00 0.000000000000D+00 0.175302163243D-06 0.000000000000D+00  6 1 -3 25 2 -4 21 2 0.86945306D-01 0.10794004D+00 0.27010164D+06 0.27010164D+06 0.27010164D+06 0.10879413D+01  1  2 15  3  6  4        2 -.304029625712D-04 0.100000000000D+01
0.125341992447D-02 0.000000000000D+00 0.000000000000D+00 0.175302163243D-06 0.000000000000D+00  6 1 -3 25 2 -4 21 2 0.86945306D-01 0.10794004D+00 0.26965363D+06 0.26965363D+06 0.26965363D+06 0.10879952D+01  1  2 12  3  6  4        2 0.261596796986D-02 0.100000000000D+01
-.217140581150D-02 0.000000000000D+00 0.000000000000D+00 0.175302163243D-06 0.000000000000D+00  6 1 -3 25 2 -4 21 2 0.86945306D-01 0.10794004D+00 0.27010164D+06 0.27010164D+06 0.27010164D+06 0.10879413D+01  1  2  4  3  6  4        2 -.453115836844D-02 0.100000000000D+01
-.125215421140D-02 0.000000000000D+00 0.000000000000D+00 0.175302163243D-06 0.000000000000D+00  6 1 -3 25 2 -4 21 2 0.86945306D-01 0.10794004D+00 0.27010164D+06 0.27010164D+06 0.27010164D+06 0.10879413D+01  1  2  5  3  6  4        2 -.261291970554D-02 0.100000000000D+01
0.154334716031D-02 0.000000000000D+00 -.000000000000D+00 0.175302163243D-06 0.000000000000D+00  6 1 -3 25 2 -4 21 2 0.86945306D-01 0.10794004D+00 0.27010164D+06 0.27010164D+06 0.27010164D+06 0.10879413D+01  1  2  6  3  6  4        2 0.322056354636D-02 0.100000000000D+01
  </mgrwgt>
  </event>
  <event>
  5     66 0.19199499E-05 0.34313318E+02 0.75467711E-02 0.93595053E-01
        1 -1    0    0  502    0 0.00000000E+00 0.00000000E+00 0.50048449E+03 0.50048459E+03 0.32000000E+00 0.0000E+00 0.9000E+01
       -3 -1    0    0    0  501 0.00000000E+00 0.00000000E+00 -.77598351E+03 0.77598367E+03 0.50000000E+00 0.0000E+00 0.9000E+01
       25  1    1    2    0    0 0.18835228E+01 0.51394471E+03 -.15606640E+03 0.55147478E+03 0.12500000E+03 0.0000E+00 0.9000E+01
        2  1    1    2  502    0 -.33780183E+02 -.62063064E+01 0.14682479E+03 0.15078873E+03 0.32000000E+00 0.0000E+00 0.9000E+01
       -4  1    1    2    0  501 0.31896661E+02 -.50773841E+03 -.26625742E+03 0.57420475E+03 0.15500000E+01 0.0000E+00 0.9000E+01
#aMCatNLO 1  0  0  2  5 0.22363460D+02 0.00000000D+00  -5  6  0 0.00000000D+00 0.00000000D+00 0.00000000D+00 0.00000000D+00 0.00000000D+00
  <mgrwgt>
 0.2012468658D-02    9    4    0
 0.623191685994537D+03 0.000000000000000D+00 0.000000000000000D+00 0.623191685994537D+03
 0.623191685994537D+03 0.000000000000000D+00 0.000000000000000D+00 -.623191685994537D+03
 0.530382607684654D+03 0.186205251751015D+01 0.514048421130624D+03 -.378346934427638D+02
 0.186706565023765D+03 -.337484505571315D+02 -.620047621363632D+01 0.183526394839245D+03
 0.529294199280656D+03 0.318863980396214D+02 -.507847944916988D+03 -.145691701396481D+03
 0.000000000000000D+00 0.000000000000000D+00 0.000000000000000D+00 -.000000000000000D+00
 0.624827501994942D+03 0.000000000000000D+00 0.000000000000000D+00 0.624827501994942D+03
 0.704718469709431D+03 0.000000000000000D+00 0.000000000000000D+00 -.704718469709431D+03
 0.521455870566866D+03 -.179729450029627D+00 0.504836338448477D+03 -.378346934427638D+02
 0.186976266504828D+03 -.344738270125190D+02 -.947321933163165D+01 0.183526394839245D+03
 0.538151848991809D+03 0.298143193528754D+02 -.517196719903584D+03 -.145691701396481D+03
 0.829619856408688D+02 0.483923710967323D+01 0.218336007867391D+02 -.798909677144882D+02
 0.623191685994537D+03 0.000000000000000D+00 0.000000000000000D+00 0.623191685994537D+03
 0.623191685994537D+03 0.000000000000000D+00 0.000000000000000D+00 -.623191685994537D+03
 0.530382607684654D+03 0.186205251751015D+01 0.514048421130624D+03 -.378346934427638D+02
 0.186706565023765D+03 -.337484505571315D+02 -.620047621363632D+01 0.183526394839245D+03
 0.000000000000000D+00 0.000000000000000D+00 0.000000000000000D+00 -.000000000000000D+00
 0.529294199280656D+03 0.318863980396214D+02 -.507847944916988D+03 -.145691701396481D+03
 0.624827501994942D+03 0.000000000000000D+00 0.000000000000000D+00 0.624827501994942D+03
 0.704718469709431D+03 0.000000000000000D+00 0.000000000000000D+00 -.704718469709431D+03
 0.521455870566866D+03 -.179729450029627D+00 0.504836338448477D+03 -.378346934427638D+02
 0.186976266504828D+03 -.344738270125190D+02 -.947321933163165D+01 0.183526394839245D+03
 0.829619856408688D+02 0.483923710967323D+01 0.218336007867391D+02 -.798909677144882D+02
 0.538151848991809D+03 0.298143193528754D+02 -.517196719903584D+03 -.145691701396481D+03
0.870774715640D-04 0.000000000000D+00 0.000000000000D+00 0.190830785783D-05 0.000000000000D+00  6 1 -3 25 2 -4 21 0 0.76997633D-01 0.11938210D+00 0.28739931D+06 0.28739931D+06 0.28739931D+06 0.10859333D+01  1  2  2  2  6  2       -3 0.137782187096D-03 0.100000000000D+01
0.303843280274D-04 0.000000000000D+00 -.334400418830D-06 0.190830785783D-05 0.000000000000D+00  6 1 -3 25 2 -4 21 2 0.76997633D-01 0.11938210D+00 0.28739931D+06 0.28739931D+06 0.28739931D+06 0.10859333D+01  1  2  3  2  6  2       -3 0.566947968632D-04 0.100000000000D+01
-.596560894197D-04 0.000000000000D+00 0.000000000000D+00 0.190830785783D-05 0.000000000000D+00  6 1 -3 25 2 -4 21 2 0.76997633D-01 0.11938210D+00 0.28739931D+06 0.28739931D+06 0.28739931D+06 0.10859333D+01  1  2 15  2  6  2       -3 -.111313630772D-03 0.100000000000D+01
0.346417612349D-02 0.000000000000D+00 0.000000000000D+00 0.190830785783D-05 0.000000000000D+00  6 1 -3 25 2 -4 21 2 0.76997633D-01 0.13551634D+00 0.30044213D+06 0.30044213D+06 0.30044213D+06 0.10845046D+01  1  2 12  2  6  2       -3 0.442435610730D-02 0.100000000000D+01
-.245300505849D-02 0.000000000000D+00 0.000000000000D+00 0.190830785783D-05 0.000000000000D+00  6 1 -3 25 2 -4 21 2 0.76997633D-01 0.11938210D+00 0.28739931D+06 0.28739931D+06 0.28739931D+06 0.10859333D+01  1  2  4  2  6  2       -3 -.457711697195D-02 0.100000000000D+01
-.398697303742D-02 0.000000000000D+00 -.146690666080D-03 0.190830785783D-05 0.000000000000D+00  6 1 -3 25 2 -4 21 2 0.76997633D-01 0.13515069D+00 0.28739931D+06 0.28739931D+06 0.28739931D+06 0.10859333D+01  1  2  5  2  6  2       -3 -.515705266130D-02 0.100000000000D+01
0.397565905044D-02 0.000000000000D+00 0.145568990371D-03 0.190830785783D-05 0.000000000000D+00  6 1 -3 25 2 -4 21 2 0.76997633D-01 0.11938210D+00 0.28739931D+06 0.28739931D+06 0.28739931D+06 0.10859333D+01  1  2  6  2  6  2       -3 0.741827109222D-02 0.100000000000D+01
0.688155349454D-04 0.000000000000D+00 0.000000000000D+00 0.190830785783D-05 0.000000000000D+00  6 1 21 25 2 3 -4 2 0.76997633D-01 0.13551634D+00 0.30044213D+06 0.30044213D+06 0.30044213D+06 0.10845046D+01  3  4 12  6  5  2       -3 0.132268612384D-02 0.100000000000D+01
-.770677740710D-04 0.000000000000D+00 -.286205076153D-05 0.190830785783D-05 0.000000000000D+00  6 1 21 25 2 3 -4 2 0.76997633D-01 0.13515069D+00 0.28739931D+06 0.28739931D+06 0.28739931D+06 0.10859333D+01  3  4  5  6  5  2       -3 -.150183838512D-02 0.100000000000D+01
  </mgrwgt>
  </event>
  <event>
  5     66 0.19199499E-05 0.12547796E+03 0.75467711E-02 0.92344466E-01
        1 -1    0    0  502    0 0.00000000E+00 0.00000000E+00 0.13227921E+04 0.13227921E+04 0.32000000E+00 0.0000E+00 0.9000E+01
       -3 -1    0    0    0  501 0.00000000E+00 0.00000000E+00 -.90835979E+03 0.90835993E+03 0.50000000E+00 0.0000E+00 0.9000E+01
       25  1    1    2    0    0 0.67709512E+02 -.47626576E+03 0.16111640E+03 0.52249129E+03 0.12500000E+03 0.0000E+00 0.9000E+01
        2  1    1    2  502    0 0.11604666E+02 -.12494956E+03 0.84922631E+03 0.85844772E+03 0.32000000E+00 0.0000E+00 0.9000E+01
       -4  1    1    2    0  501 -.79314178E+02 0.60121532E+03 -.59591041E+03 0.85021305E+03 0.15500000E+01 0.0000E+00 0.9000E+01
#aMCatNLO 1  0  0  1  4 0.20424398D+03 0.00000000D+00  -5  6  0 0.00000000D+00 0.00000000D+00 0.00000000D+00 0.00000000D+00 0.00000000D+00
  <mgrwgt>
 0.3247403473D-02    7    2    0
 0.109616209918290D+04 0.000000000000000D+00 0.000000000000000D+00 0.109616209918290D+04
 0.109616209918290D+04 0.000000000000000D+00 0.000000000000000D+00 -.109616209918290D+04
 0.501337587628019D+03 0.677156251404716D+02 -.476313358405944D+03 0.652269536661622D+02
 0.713062467273564D+03 0.116038022851662D+02 -.124940263297988D+03 0.701935441913157D+03
 0.977924143464219D+03 -.793194274256378D+02 0.601253621703932D+03 -.767162395579319D+03
 0.000000000000000D+00 -.000000000000000D+00 -.000000000000000D+00 0.000000000000000D+00
 0.122803793458254D+04 0.000000000000000D+00 0.000000000000000D+00 0.122803793458254D+04
 0.118294276203070D+04 0.000000000000000D+00 0.000000000000000D+00 -.118294276203070D+04
 0.465997038134762D+03 0.867836194266537D+02 -.435594177492093D+03 0.652269536661622D+02
 0.706067413828546D+03 0.395775352039764D+02 -.652031208140382D+02 0.701935441913157D+03
 0.102975320474968D+04 -.397443112407367D+02 0.685765201235266D+03 -.767162395579319D+03
 0.209163039900245D+03 -.866168433898934D+02 -.184967902929135D+03 0.450951725518428D+02
0.813353973150D-02 0.000000000000D+00 0.000000000000D+00 0.713086508845D-05 0.000000000000D+00  6 1 -3 25 2 -4 21 0 0.20350649D+00 0.13974767D+00 0.37762090D+06 0.37762090D+06 0.37762090D+06 0.10772348D+01  1  2  2  1  6  1        1 0.158426698050D-02 0.100000000000D+01
0.157893739859D-02 0.000000000000D+00 -.312349341792D-04 0.713086508845D-05 0.000000000000D+00  6 1 -3 25 2 -4 21 2 0.20350649D+00 0.13974767D+00 0.37762090D+06 0.37762090D+06 0.37762090D+06 0.10772348D+01  1  2  3  1  6  1        1 0.356890040172D-03 0.100000000000D+01
-.532290728238D-02 0.000000000000D+00 0.000000000000D+00 0.713086508845D-05 0.000000000000D+00  6 1 -3 25 2 -4 21 2 0.20350649D+00 0.13974767D+00 0.37762090D+06 0.37762090D+06 0.37762090D+06 0.10772348D+01  1  2 15  1  6  1        1 -.120314623970D-02 0.100000000000D+01
-.338571006475D-03 0.000000000000D+00 0.000000000000D+00 0.713086508845D-05 0.000000000000D+00  6 1 -3 25 2 -4 21 2 0.20350649D+00 0.13974767D+00 0.37762090D+06 0.37762090D+06 0.37762090D+06 0.10772348D+01  1  2  4  1  6  1        1 -.765278092787D-04 0.100000000000D+01
-.345616688833D-01 0.000000000000D+00 -.112618600371D-01 0.713086508845D-05 0.000000000000D+00  6 1 -3 25 2 -4 21 2 0.23839074D+00 0.13974767D+00 0.37762090D+06 0.37762090D+06 0.37762090D+06 0.10772348D+01  1  2  5  1  6  1        1 -.547271551230D-02 0.100000000000D+01
0.360310430826D-01 0.000000000000D+00 0.111223651744D-01 0.713086508845D-05 0.000000000000D+00  6 1 -3 25 2 -4 21 2 0.20350649D+00 0.13974767D+00 0.37762090D+06 0.37762090D+06 0.37762090D+06 0.10772348D+01  1  2  6  1  6  1        1 0.814416101911D-02 0.100000000000D+01
-.736989456944D-03 0.000000000000D+00 -.268166453077D-03 0.713086508845D-05 0.000000000000D+00  6 21 -3 25 2 -4 -1 2 0.23839074D+00 0.13974767D+00 0.37762090D+06 0.37762090D+06 0.37762090D+06 0.10772348D+01  1  2  5  5  6  1        1 -.855250050464D-04 0.100000000000D+01
  </mgrwgt>
  </event>
  <event>
  5     66 -.19199499E-05 0.29869633E+02 0.75467711E-02 0.94369349E-01
        1 -1    0    0  502    0 0.00000000E+00 0.00000000E+00 0.17594911E+04 0.17594912E+04 0.32000000E+00 0.0000E+00 0.9000E+01
       -3 -1    0    0    0  501 0.00000000E+00 0.00000000E+00 -.40799837E+03 0.40799868E+03 0.50000000E+00 0.0000E+00 0.9000E+01
       25  1    1    2    0    0 -.25312094E+03 0.41157394E+03 0.95429709E+03 0.10769268E+04 0.12500000E+03 0.0000E+00 0.9000E+01
        2  1    1    2  502    0 -.29190263E+02 -.64253275E+01 0.56744342E+03 0.56823014E+03 0.32000000E+00 0.0000E+00 0.9000E+01
       -4  1    1    2    0  501 0.28231121E+03 -.40514861E+03 -.17024773E+03 0.52233295E+03 0.15500000E+01 0.0000E+00 0.9000E+01
#aMCatNLO 1  0  0  1  4 0.20424398D+03 0.00000000D+00  -5  6  0 0.00000000D+00 0.00000000D+00 0.00000000D+00 0.00000000D+00 0.00000000D+00
  <mgrwgt>
 -.4366608350D-03    1    2    0
 0.847272021079082D+03 0.000000000000000D+00 0.000000000000000D+00 0.847272021079082D+03
 0.847272021079082D+03 0.000000000000000D+00 0.000000000000000D+00 -.847272021079082D+03
 0.616545146168604D+03 -.253181443797592D+03 0.411635161123322D+03 0.361881980634030D+03
 0.274076608141179D+03 -.291712835767773D+02 -.642114968952858D+01 0.272444108362287D+03
 0.803922287848381D+03 0.282352727374370D+03 -.405214011433794D+03 -.634326088996317D+03
 0.000000000000000D+00 0.000000000000000D+00 -.000000000000000D+00 -.000000000000000D+00
 0.887722524178379D+03 0.000000000000000D+00 0.000000000000000D+00 0.887722524178379D+03
 0.917415981709910D+03 0.000000000000000D+00 0.000000000000000D+00 -.917415981709910D+03
 0.646277039837721D+03 -.264866132967827D+03 0.448259273100365D+03 0.361881980634030D+03
 0.274752603286425D+03 -.342495113859968D+02 0.949588337999956D+01 0.272444108362287D+03
 0.776658045338875D+03 0.267727873529913D+03 -.359374342355418D+03 -.634326088996317D+03
 0.107450817425269D+03 0.313877708239107D+02 -.983808141249464D+02 -.296934575315317D+02
-.460149713683D-03 0.000000000000D+00 0.000000000000D+00 0.385006522781D-04 0.000000000000D+00  6 1 -3 25 2 -4 21 2 0.27069097D+00 0.62769006D-01 0.26159253D+06 0.26159253D+06 0.26159253D+06 0.10889813D+01  1  2 14  1  6  1        1 -.436660834979D-03 0.100000000000D+01
  </mgrwgt>
  </event>
  <event>
  5     66 0.19199499E-05 0.38531195E+02 0.75467711E-02 0.92236464E-01
        1 -1    0    0  502    0 0.00000000E+00 0.00000000E+00 0.10013656E+04 0.10013656E+04 0.32000000E+00 0.0000E+00 0.9000E+01
       -3 -1    0    0    0  501 0.00000000E+00 0.00000000E+00 -.65512521E+03 0.65512541E+03 0.50000000E+00 0.0000E+00 0.9000E+01
       25  1    1    2    0    0 0.45000902E+03 -.39095176E+03 0.16477043E+03 0.63097203E+03 0.12500000E+03 0.0000E+00 0.9000E+01
        2  1    1    2  502    0 -.37967723E+02 -.66591869E+01 0.40793936E+03 0.40975665E+03 0.32000000E+00 0.0000E+00 0.9000E+01
       -4  1    1    2    0  501 -.41204130E+03 0.39761095E+03 -.22646941E+03 0.61576237E+03 0.15500000E+01 0.0000E+00 0.9000E+01
#aMCatNLO 1  0  0  4  1 0.30542202D+02 0.00000000D+00  -5  6  0 0.00000000D+00 0.00000000D+00 0.00000000D+00 0.00000000D+00 0.00000000D+00
  <mgrwgt>
 0.5493334627D-03    6    2    0
 0.809950646752112D+03 0.000000000000000D+00 0.000000000000000D+00 0.809950646752112D+03
 0.809950646752112D+03 -.000000000000000D+00 -.000000000000000D+00 -.809950646752112D+03
 0.610089546745188D+03 0.450061832816115D+03 -.391012728357236D+03 0.337290372317241D+02
 0.331679850868218D+03 -.379518802998697D+02 -.665640829870707D+01 0.329434167144558D+03
 0.678131895890818D+03 -.412109952516246D+03 0.397669136655943D+03 -.363163204376282D+03
 0.000000000000000D+00 0.000000000000000D+00 0.000000000000000D+00 0.000000000000000D+00
 0.809950646752112D+03 0.000000000000000D+00 0.000000000000000D+00 0.809950646752112D+03
 0.809950646752112D+03 -.000000000000000D+00 -.000000000000000D+00 -.809950646752112D+03
 0.610056380226871D+03 0.449805417143441D+03 -.391057701291331D+03 0.359548053070593D+02
 0.130666054706449D+03 -.375731219526760D+02 -.223697872520050D+02 0.123131925094908D+03
 0.676955411426547D+03 -.412394726341866D+03 0.397619189964471D+03 -.360691278681785D+03
 0.202223447144357D+03 0.162431151101163D+00 0.158082985788648D+02 0.201604548279818D+03
0.156213599055D-03 0.000000000000D+00 0.000000000000D+00 0.832247582392D-05 0.000000000000D+00  6 1 -3 25 2 -4 21 0 0.15405626D+00 0.10078851D+00 0.37233122D+06 0.37233122D+06 0.37233122D+06 0.10776790D+01  1  2  2  3  6  4        2 0.132532791751D-03 0.100000000000D+01
0.673340431784D-04 0.000000000000D+00 -.599901352355D-06 0.832247582392D-05 0.000000000000D+00  6 1 -3 25 2 -4 21 2 0.15405626D+00 0.10078851D+00 0.37233122D+06 0.37233122D+06 0.37233122D+06 0.10776790D+01  1  2  3  3  6  4        2 0.663465047288D-04 0.100000000000D+01
-.910269634131D-04 0.000000000000D+00 0.000000000000D+00 0.832247582392D-05 0.000000000000D+00  6 1 -3 25 2 -4 21 2 0.15405626D+00 0.10078851D+00 0.37233122D+06 0.37233122D+06 0.37233122D+06 0.10776790D+01  1  2 15  3  6  4        2 -.896919384825D-04 0.100000000000D+01
-.124767654646D-03 0.000000000000D+00 0.000000000000D+00 0.832247582392D-05 0.000000000000D+00  6 1 -3 25 2 -4 21 2 0.15405626D+00 0.10078851D+00 0.37233122D+06 0.37233122D+06 0.37233122D+06 0.10776790D+01  1  2  4  3  6  4        2 -.122937780033D-03 0.100000000000D+01
-.603527625614D-03 0.000000000000D+00 0.000000000000D+00 0.832247582392D-05 0.000000000000D+00  6 1 -3 25 2 -4 21 2 0.15405626D+00 0.10078851D+00 0.37233122D+06 0.37233122D+06 0.37233122D+06 0.10776790D+01  1  2  5  3  6  4        2 -.594676133746D-03 0.100000000000D+01
0.117499276549D-02 0.000000000000D+00 -.000000000000D+00 0.832247582392D-05 0.000000000000D+00  6 1 -3 25 2 -4 21 2 0.15405626D+00 0.10078851D+00 0.37233122D+06 0.37233122D+06 0.37233122D+06 0.10776790D+01  1  2  6  3  6  4        2 0.115776001845D-02 0.100000000000D+01
  </mgrwgt>
  </event>
  <event>
  6     66 0.19199499E-05 0.18323625E+02 0.75467711E-02 0.93733556E-01
        1 -1    0    0  502    0 0.00000000E+00 0.00000000E+00 0.64464578E+03 0.64464586E+03 0.32000000E+00 0.0000E+00 0.9000E+01
       -3 -1    0    0    0  501 -.00000000E+00 -.00000000E+00 -.73559342E+03 0.73559359E+03 0.50000000E+00 0.0000E+00 0.9000E+01
       25  1    1    2    0    0 0.51867574E+03 -.31584095E+02 -.27646625E+02 0.53517419E+03 0.12500000E+03 0.0000E+00 0.9000E+01
        2  1    1    2  502    0 -.49646495E+03 -.75390203E+01 0.13211130E+03 0.51379741E+03 0.32000000E+00 0.0000E+00 0.9000E+01
       -4  1    1    2    0  503 0.16194349E+01 0.22377136E+02 -.25970746E+03 0.26067936E+03 0.15500000E+01 0.0000E+00 0.9000E+01
       21  1    1    2  503  501 -.23830229E+02 0.16745979E+02 0.64295140E+02 0.70588492E+02 0.75000000E+00 0.0000E+00 0.9000E+01
#aMCatNLO 2  0  0  5  1 0.44898435D+02 0.00000000D+00  -5  6  0 0.00000000D+00 0.00000000D+00 0.00000000D+00 0.00000000D+00 0.00000000D+00
  <mgrwgt>
 0.1674777461D-01    1    2    0
 0.688619899339410D+03 0.000000000000000D+00 0.000000000000000D+00 0.688619899339410D+03
 0.688619899339410D+03 -.000000000000000D+00 -.000000000000000D+00 -.688619899339410D+03
 0.545993412020244D+03 0.525874179611077D+03 -.440984179149994D+02 0.632098309227133D+02
 0.537552667532667D+03 -.489562701669327D+03 -.198573906427357D+02 0.221126469565670D+03
 0.293693719125909D+03 -.363114779417499D+02 0.639558085577351D+02 -.284336300488383D+03
 0.000000000000000D+00 0.000000000000000D+00 0.000000000000000D+00 0.000000000000000D+00
 0.688619899339410D+03 0.000000000000000D+00 0.000000000000000D+00 0.688619899339410D+03
 0.688619899339410D+03 -.000000000000000D+00 -.000000000000000D+00 -.688619899339410D+03
 0.534541595385301D+03 0.518716423274413D+03 -.314913823461095D+02 0.716116334082114D+01
 0.523681505372494D+03 -.496592604054476D+03 -.747554565572223D+01 0.166078959789449D+03
 0.243648742299378D+03 0.191083709660548D+01 0.220512403025031D+02 -.242641301362278D+03
 0.753679556216466D+02 -.240346563165431D+02 0.169156876993286D+02 0.694011782320080D+02
0.111518193219D-01 0.000000000000D+00 0.000000000000D+00 0.142604501189D-05 0.651381526944D-07  6 1 -3 25 2 -4 21 2 0.99176293D-01 0.11316824D+00 0.29304192D+06 0.29304192D+06 0.29304192D+06 0.10853067D+01  1  2  1  4  6  5       -4 0.167477746102D-01 0.100000000000D+01
  </mgrwgt>
  </event>
  <event>
  5     66 0.19199499E-05 0.37954500E+02 0.75467711E-02 0.95052113E-01
        1 -1    0    0  502    0 0.00000000E+00 0.00000000E+00 0.50473845E+03 0.50473855E+03 0.32000000E+00 0.0000E+00 0.9000E+01
       -3 -1    0    0    0  501 -.00000000E+00 -.00000000E+00 -.12314817E+04 0.12314818E+04 0.50000000E+00 0.0000E+00 0.9000E+01
       25  1    1    2    0    0 0.18384492E+03 0.43570263E+03 -.54812397E+03 0.73464319E+03 0.12500000E+03 0.0000E+00 0.9000E+01
        2  1    1    2  502    0 -.16136191E+03 -.40509573E+03 0.29498090E+03 0.52645423E+03 0.32000000E+00 0.0000E+00 0.9000E+01
       -4  1    1    2    0  501 -.22483002E+02 -.30606898E+02 -.47360020E+03 0.47512295E+03 0.15500000E+01 0.0000E+00 0.9000E+01
#aMCatNLO 1  0  0  5  2 0.72068697D+00 0.00000000D+00  -5  6  0 0.00000000D+00 0.00000000D+00 0.00000000D+00 0.00000000D+00 0.00000000D+00
  <mgrwgt>
 0.1539025455D-02    8    2    0
 0.788401138517476D+03 0.000000000000000D+00 0.000000000000000D+00 0.788401138517476D+03
 0.788401138517476D+03 -.000000000000000D+00 -.000000000000000D+00 -.788401138517476D+03
 0.556472244132410D+03 0.183850229948356D+03 0.435732997478836D+03 -.265277602420193D+03
 0.715720922755193D+03 -.161381154264247D+03 -.405144033545063D+03 0.567512884788284D+03
 0.304609110147349D+03 -.224690756841092D+02 -.305889639337718D+02 -.302235282368091D+03
 0.000000000000000D+00 0.000000000000000D+00 -.000000000000000D+00 0.000000000000000D+00
 0.788401138517476D+03 0.000000000000000D+00 0.000000000000000D+00 0.788401138517476D+03
 0.788401138517476D+03 -.000000000000000D+00 -.000000000000000D+00 -.788401138517476D+03
 0.556472864875138D+03 0.183850106195358D+03 0.435732829003903D+03 -.265279267042402D+03
 0.715719383659113D+03 -.161381313432052D+03 -.405144250233027D+03 0.567510743795609D+03
 0.233275238239425D+03 -.175497129542038D+02 -.227925872204778D+02 -.231494799765962D+03
 0.713347902612749D+02 -.491907980910215D+01 -.779599155039860D+01 -.707366769872453D+02
0.636073807003D-05 0.000000000000D+00 0.000000000000D+00 0.404396147599D-04 0.000000000000D+00  6 1 -3 25 2 -4 21 0 0.77652085D-01 0.18945874D+00 0.23195258D+06 0.23195258D+06 0.23195258D+06 0.10929156D+01  1  2  2  4  6  5       -4 0.208577896063D-05 0.100000000000D+01
0.222184786121D-05 0.000000000000D+00 -.244269090097D-07 0.404396147599D-04 0.000000000000D+00  6 1 -3 25 2 -4 21 2 0.77652085D-01 0.18945874D+00 0.23195258D+06 0.23195258D+06 0.23195258D+06 0.10929156D+01  1  2  3  4  6  5       -4 0.870258655852D-06 0.100000000000D+01
-.458975989562D-05 0.000000000000D+00 0.000000000000D+00 0.404396147599D-04 0.000000000000D+00  6 1 -3 25 2 -4 21 2 0.77652085D-01 0.18945874D+00 0.23195258D+06 0.23195258D+06 0.23195258D+06 0.10929156D+01  1  2 15  4  6  5       -4 -.179772807454D-05 0.100000000000D+01
0.260215670577D-07 0.000000000000D+00 0.000000000000D+00 0.404396147599D-04 0.000000000000D+00  6 1 -3 25 2 -4 21 2 0.77652085D-01 0.18945874D+00 0.23196700D+06 0.23196700D+06 0.23196700D+06 0.10929136D+01  1  2 12  4  6  5       -4 0.101921151147D-07 0.100000000000D+01
-.997592536821D-01 0.000000000000D+00 0.000000000000D+00 0.404396147599D-04 0.000000000000D+00  6 1 -3 25 2 -4 21 2 0.77652085D-01 0.18945874D+00 0.23195258D+06 0.23195258D+06 0.23195258D+06 0.10929156D+01  1  2  4  4  6  5       -4 -.390739418004D-01 0.100000000000D+01
-.822370968660D-01 0.000000000000D+00 0.000000000000D+00 0.404396147599D-04 0.000000000000D+00  6 1 -3 25 2 -4 21 2 0.77652085D-01 0.18945874D+00 0.23195258D+06 0.23195258D+06 0.23195258D+06 0.10929156D+01  1  2  5  4  6  5       -4 -.322108217350D-01 0.100000000000D+01
0.109932616752D+00 0.000000000000D+00 -.000000000000D+00 0.404396147599D-04 0.000000000000D+00  6 1 -3 25 2 -4 21 2 0.77652085D-01 0.18945874D+00 0.23195258D+06 0.23195258D+06 0.23195258D+06 0.10929156D+01  1  2  6  4  6  5       -4 0.430586688491D-01 0.100000000000D+01
0.759905725929D-01 0.000000000000D+00 0.000000000000D+00 0.404396147599D-04 0.278463874004D-03  6 1 -3 25 2 -4 21 2 0.77652085D-01 0.18945874D+00 0.23196700D+06 0.23196700D+06 0.23196700D+06 0.10929136D+01  1  2 11  4  6  5       -4 0.297639516397D-01 0.100000000000D+01
  </mgrwgt>
  </event>
  <event>
  6     66 -.19199499E-05 0.19158308E+03 0.75467711E-02 0.94163589E-01
        3 -1    0    0  502    0 0.00000000E+00 0.00000000E+00 0.88302219E+03 0.88302234E+03 0.50000000E+00 0.0000E+00 0.9000E+01
       -1 -1    0    0    0  501 0.00000000E+00 0.00000000E+00 -.73198997E+03 0.73199004E+03 0.32000000E+00 0.0000E+00 0.9000E+01
       25  1    1    2    0    0 0.45659078E+03 -.21557103E+03 -.15971169E+03 0.54413127E+03 0.12500000E+03 0.0000E+00 0.9000E+01
        4  1    1    2  502    0 -.14807238E+03 0.13749287E+03 0.60368595E+03 0.63660730E+03 0.15500000E+01 0.0000E+00 0.9000E+01
       -2  1    1    2    0  503 -.23796458E+03 0.70453957E+02 -.24424201E+03 0.34820276E+03 0.32000000E+00 0.0000E+00 0.9000E+01
       21  1    1    2  503  501 -.70553819E+02 0.76242054E+01 -.48700031E+02 0.86071049E+02 0.75000000E+00 0.0000E+00 0.9000E+01
#aMCatNLO 2  0  0  5  2 0.15364500D+02 0.00000000D+00  -5  6  0 0.00000000D+00 0.00000000D+00 0.00000000D+00 0.00000000D+00 0.00000000D+00
  <mgrwgt>
 -.1377044293D-03    2    2    0
 0.803967387341707D+03 0.000000000000000D+00 0.000000000000000D+00 0.803967387341707D+03
 0.803967387341707D+03 -.000000000000000D+00 -.000000000000000D+00 -.803967387341707D+03
 0.561732547873624D+03 0.457196810589051D+03 -.215701212818256D+03 -.210624116654590D+03
 0.582622359851927D+03 -.147590085213456D+03 0.137309482362338D+03 0.546637070641482D+03
 0.463579866957862D+03 -.309606725375595D+03 0.783917304559180D+02 -.336012953986892D+03
 0.000000000000000D+00 -.000000000000000D+00 0.000000000000000D+00 0.000000000000000D+00
 0.803967387341707D+03 0.000000000000000D+00 0.000000000000000D+00 0.803967387341707D+03
 0.803967387341707D+03 -.000000000000000D+00 -.000000000000000D+00 -.803967387341707D+03
 0.561542075720993D+03 0.456818534809114D+03 -.215605434236758D+03 -.211034655418190D+03
 0.582345903349025D+03 -.147982401810935D+03 0.137408816047437D+03 0.546211293524860D+03
 0.372882951620664D+03 -.238150425762117D+03 0.705531523757366D+02 -.278115664802447D+03
 0.911638439927307D+02 -.706857072360620D+02 0.764346581358427D+01 -.570609733042229D+02
-.193009852539D-02 0.000000000000D+00 0.000000000000D+00 0.158295944592D-05 0.000000000000D+00  6 3 -1 25 4 -2 21 2 0.13584958D+00 0.11261386D+00 0.27133597D+06 0.27133597D+06 0.27133597D+06 0.10877934D+01  1  2 13  4  6  5       -2 -.491130644046D-03 0.100000000000D+01
0.138893270913D-02 0.000000000000D+00 0.000000000000D+00 0.158295944592D-05 0.199340858969D-07  6 3 -1 25 4 -2 21 2 0.13584958D+00 0.11261386D+00 0.27133597D+06 0.27133597D+06 0.27133597D+06 0.10877934D+01  1  2  1  4  6  5       -2 0.353426214775D-03 0.100000000000D+01
  </mgrwgt>
  </event>
  <event>
  5     66 0.19199499E-05 0.30056079E+03 0.75467711E-02 0.90586741E-01
        1 -1    0    0  502    0 0.00000000E+00 0.00000000E+00 0.19453409E+04 0.19453409E+04 0.32000000E+00 0.0000E+00 0.9000E+01
       -3 -1    0    0    0  501 0.00000000E+00 0.00000000E+00 -.86028102E+03 0.86028117E+03 0.50000000E+00 0.0000E+00 0.9000E+01
       25  1    1    2    0    0 0.41584577E+03 -.36925809E+03 0.11860494E+03 0.58221248E+03 0.12500000E+03 0.0000E+00 0.9000E+01
        2  1    1    2  502    0 0.11485894E+03 0.32944018E+03 0.14578672E+04 0.14990331E+04 0.32000000E+00 0.0000E+00 0.9000E+01
       -4  1    1    2    0  501 -.53070471E+03 0.39817908E+02 -.49141224E+03 0.72437652E+03 0.15500000E+01 0.0000E+00 0.9000E+01
#aMCatNLO 1  0  0  1  2 0.22729645D+03 0.00000000D+00  -5  6  0 0.00000000D+00 0.00000000D+00 0.00000000D+00 0.00000000D+00 0.00000000D+00
  <mgrwgt>
 0.5851328815D-05    1    2    0
 0.129365378167237D+04 0.000000000000000D+00 0.000000000000000D+00 0.129365378167237D+04
 0.129365378167237D+04 0.000000000000000D+00 0.000000000000000D+00 -.129365378167237D+04
 0.581604495340755D+03 0.415855870226660D+03 -.369258497583140D+03 -.115545861722714D+03
 0.101411327960077D+04 0.114857881144904D+03 0.329437157093797D+03 0.952210360439064D+03
 0.991589788403213D+03 -.530713751371564D+03 0.398213404893427D+02 -.836664498716350D+03
 0.000000000000000D+00 0.000000000000000D+00 -.000000000000000D+00 0.000000000000000D+00
 0.256680953308882D+04 0.000000000000000D+00 0.000000000000000D+00 0.256680953308882D+04
 0.132835364567705D+04 0.000000000000000D+00 0.000000000000000D+00 -.132835364567705D+04
 0.526124071653254D+03 0.343184656364832D+03 -.360631368917771D+03 -.115545861722714D+03
 0.101302190743111D+04 -.181299094502143D+02 0.345224739541073D+03 0.952210360439064D+03
 0.107084527138894D+04 -.666017348093827D+03 0.558838427619695D+02 -.836664498716350D+03
 0.128517192829256D+04 0.340962601179209D+03 -.404772133852718D+02 0.123845588741177D+04
0.599570713178D-04 0.000000000000D+00 0.000000000000D+00 0.656309072407D-06 0.000000000000D+00  6 1 -3 25 2 -4 21 2 0.29928323D+00 0.13235094D+00 0.52642468D+06 0.52642468D+06 0.52642468D+06 0.10669333D+01  1  2 14  1  6  1        1 0.585132881537D-05 0.100000000000D+01
  </mgrwgt>
  </event>
  <event>
  6     66 0.19199499E-05 0.10126716E+03 0.75467711E-02 0.93707305E-01
        1 -1    0    0  503    0 0.00000000E+00 0.00000000E+00 0.28580132E+04 0.28580132E+04 0.32000000E+00 0.0000E+00 0.9000E+01
       -3 -1    0    0    0  501 0.00000000E+00 0.00000000E+00 -.13696382E+04 0.13696383E+04 0.50000000E+00 0.0000E+00 0.9000E+01
       25  1    1    2    0    0 0.39353062E+03 0.32219054E+03 -.28268186E+01 0.52374238E+03 0.12500000E+03 0.0000E+00 0.9000E+01
        2  1    1    2  502    0 -.33287852E+03 -.12673263E+03 0.23476355E+04 0.23745024E+04 0.32000000E+00 0.0000E+00 0.9000E+01
       -4  1    1    2    0  501 -.13030593E+02 -.68126863E+02 -.10721683E+04 0.10744107E+04 0.15500000E+01 0.0000E+00 0.9000E+01
       21  1    1    2  503  502 -.47621505E+02 -.12733104E+03 0.21573462E+03 0.25499606E+03 0.75000000E+00 0.0000E+00 0.9000E+01
#aMCatNLO 2  0  0  1  2 0.13594485D+03 0.00000000D+00  -5  6  0 0.00000000D+00 0.00000000D+00 0.00000000D+00 0.00000000D+00 0.00000000D+00
  <mgrwgt>
 0.6420710936D-03    2    2    0
 0.188041861840748D+04 0.000000000000000D+00 0.000000000000000D+00 0.188041861840748D+04
 0.188041861840748D+04 0.000000000000000D+00 0.000000000000000D+00 -.188041861840748D+04
 0.538324005673389D+03 0.386620820844612D+03 0.303702796875593D+03 -.180157395473024D+03
 0.172234311881312D+04 -.354623668326439D+03 -.184865807119810D+03 0.167527087545374D+04
 0.150017011232845D+04 -.319971525181733D+02 -.118836989755783D+03 -.149511347998072D+04
 0.000000000000000D+00 -.000000000000000D+00 -.000000000000000D+00 0.000000000000000D+00
 0.205051134865059D+04 0.000000000000000D+00 0.000000000000000D+00 0.205051134865059D+04
 0.190900741348194D+04 0.000000000000000D+00 0.000000000000000D+00 -.190900741348194D+04
 0.553853661425937D+03 0.393533399373232D+03 0.322185745663959D+03 -.180157395473024D+03
 0.171271856068079D+04 -.332882577727857D+03 -.126734176141139D+03 0.167527087545374D+04
 0.149672124562957D+04 -.130293165353645D+02 -.681205256107634D+02 -.149511347998072D+04
 0.196225294396235D+03 -.476215051100104D+02 -.127331043912057D+03 0.141503935168646D+03
-.636413769630D-04 0.000000000000D+00 0.000000000000D+00 0.826829710092D-03 0.000000000000D+00  6 1 -3 25 2 -4 21 2 0.40322095D+00 0.20755791D+00 0.26536351D+06 0.26536351D+06 0.26536351D+06 0.10885159D+01  1  2  8  1  6  1        1 -.436160461713D-06 0.100000000000D+01
0.152270436808D+00 0.000000000000D+00 0.000000000000D+00 0.826829710092D-03 0.952855423468D-07  6 1 -3 25 2 -4 21 2 0.43969418D+00 0.21071350D+00 0.29442865D+06 0.29442865D+06 0.29442865D+06 0.10851547D+01  1  2  1  1  6  1        1 0.642507254112D-03 0.100000000000D+01
  </mgrwgt>
  </event>
  <event>
  5     66 0.19199499E-05 0.14347329E+02 0.75467711E-02 0.95471340E-01
        1 -1    0    0  502    0 0.00000000E+00 0.00000000E+00 0.17056843E+04 0.17056843E+04 0.32000000E+00 0.0000E+00 0.9000E+01
       -3 -1    0    0    0  501 0.00000000E+00 0.00000000E+00 -.17605725E+03 0.17605796E+03 0.50000000E+00 0.0000E+00 0.9000E+01
       25  1    1    2    0    0 0.58142527E+02 -.45212671E+03 0.74428523E+03 0.88169417E+03 0.12500000E+03 0.0000E+00 0.9000E+01
        2  1    1    2  502    0 -.69152819E+00 0.14350004E+02 0.43808263E+03 0.43831825E+03 0.32000000E+00 0.0000E+00 0.9000E+01
       -4  1    1    2    0  501 -.57450999E+02 0.43777671E+03 0.34725917E+03 0.56172983E+03 0.15500000E+01 0.0000E+00 0.9000E+01
#aMCatNLO 1  0  0  1  4 0.89919613D+02 0.00000000D+00  -5  6  0 0.00000000D+00 0.00000000D+00 0.00000000D+00 0.00000000D+00 0.00000000D+00
  <mgrwgt>
 0.9002744722D-02    3    2    0
 0.547995228643378D+03 0.000000000000000D+00 0.000000000000000D+00 0.547995228643378D+03
 0.547995228643378D+03 0.000000000000000D+00 0.000000000000000D+00 -.547995228643378D+03
 0.475149435904743D+03 0.581560609036485D+02 -.452222789943686D+03 0.474805989464635D+02
 0.140959652513787D+03 -.690597847357423D+00 0.143306987928639D+02 0.140227592803731D+03
 0.479881368868226D+03 -.574654630562911D+02 0.437892091150822D+03 -.187708191750195D+03
 0.000000000000000D+00 -.000000000000000D+00 -.000000000000000D+00 -.000000000000000D+00
 0.142616024794122D+04 0.000000000000000D+00 0.000000000000000D+00 0.142616024794122D+04
 0.230269583245250D+04 0.000000000000000D+00 0.000000000000000D+00 -.230269583245250D+04
 0.330685709028207D+03 0.286270199843023D+03 -.975858778769191D+02 0.474805989464635D+02
 0.264087761919910D+03 0.113969382862283D+03 0.192586468845368D+03 0.140227592803731D+03
 0.132769924061930D+04 0.454220701154212D+03 0.123338333981528D+04 -.187708191750195D+03
 0.180638336882630D+04 -.854460283859518D+03 -.132838393078373D+04 -.876535584511281D+03
0.216384342911D-02 0.000000000000D+00 0.000000000000D+00 0.501978736499D-05 0.000000000000D+00  6 1 -3 25 2 -4 21 0 0.26241302D+00 0.27085787D-01 0.21565118D+06 0.21565118D+06 0.21565118D+06 0.10953211D+01  1  2  2  1  6  1        1 0.103605740290D-01 0.100000000000D+01
0.122819624422D-02 0.000000000000D+00 -.830972852083D-05 0.501978736499D-05 0.000000000000D+00  6 1 -3 25 2 -4 21 2 0.26241302D+00 0.27085787D-01 0.21565118D+06 0.21565118D+06 0.21565118D+06 0.10953211D+01  1  2  3  1  6  1        1 0.705518870350D-02 0.100000000000D+01
-.146457275033D-02 0.000000000000D+00 0.000000000000D+00 0.501978736499D-05 0.000000000000D+00  6 1 -3 25 2 -4 21 2 0.26241302D+00 0.27085787D-01 0.21565118D+06 0.21565118D+06 0.21565118D+06 0.10953211D+01  1  2 15  1  6  1        1 -.841301801093D-02 0.100000000000D+01
  </mgrwgt>
  </event>
  <event>
  5     66 0.19199499E-05 0.13202157E+03 0.75467711E-02 0.94446316E-01
        3 -1    0    0  502    0 0.00000000E+00 0.00000000E+00 0.16299253E+04 0.16299253E+04 0.50000000E+00 0.0000E+00 0.9000E+01
       -1 -1    0    0    0  501 0.00000000E+00 0.00000000E+00 -.84934091E+03 0.84934097E+03 0.32000000E+00 0.0000E+00 0.9000E+01
       25  1    1    2    0    0 -.49679976E+03 0.48416121E+02 0.42171762E+02 0.51629215E+03 0.12500000E+03 0.0000E+00 0.9000E+01
        4  1    1    2  502    0 0.36554253E+03 -.35102574E+02 0.13181844E+04 0.13683808E+04 0.15500000E+01 0.0000E+00 0.9000E+01
       -2  1    1    2    0  501 0.13125723E+03 -.13313548E+02 -.57977185E+03 0.59459331E+03 0.32000000E+00 0.0000E+00 0.9000E+01
#aMCatNLO 1  0  0  4  1 0.43994639D+02 0.00000000D+00  -5  6  0 0.00000000D+00 0.00000000D+00 0.00000000D+00 0.00000000D+00 0.00000000D+00
  <mgrwgt>
 0.6770230365D-03    7    2    0
 0.117658929608826D+04 0.000000000000000D+00 0.000000000000000D+00 0.117658929608826D+04
 0.117658929608826D+04 -.000000000000000D+00 -.000000000000000D+00 -.117658929608826D+04
 0.529862313380894D+03 -.496814471535304D+03 0.484179806194560D+02 -.126333491866503D+03
 0.100423067805440D+04 0.365466835120994D+03 -.350953051491617D+02 0.934709348797120D+03
 0.819085600741230D+03 0.131347636414310D+03 -.133226754702943D+02 -.808375856930617D+03
 0.000000000000000D+00 0.000000000000000D+00 -.000000000000000D+00 0.000000000000000D+00
 0.117658929608826D+04 0.000000000000000D+00 0.000000000000000D+00 0.117658929608826D+04
 0.117658929608826D+04 -.000000000000000D+00 -.000000000000000D+00 -.117658929608826D+04
 0.529314850852782D+03 -.496462290878375D+03 0.483841611687294D+02 -.125432762933361D+03
 0.663348711461413D+03 0.208305175187007D+03 0.306475923908016D+01 0.629786530690069D+03
 0.817800272384512D+03 0.131891907534933D+03 -.133749411185735D+02 -.806983841962808D+03
 0.342714757477820D+03 0.156265208156435D+03 -.380739792892361D+02 0.302630074206100D+03
0.146984895566D-02 0.000000000000D+00 0.000000000000D+00 0.756735714216D-04 0.000000000000D+00  6 3 -1 25 4 -2 21 0 0.25075774D+00 0.13066784D+00 0.25692273D+06 0.25692273D+06 0.25692273D+06 0.10895678D+01  1  2  2  3  6  4        4 0.243159435427D-04 0.100000000000D+01
0.258304813119D-03 0.000000000000D+00 -.564460700986D-05 0.756735714216D-04 0.000000000000D+00  6 3 -1 25 4 -2 21 2 0.25075774D+00 0.13066784D+00 0.25692273D+06 0.25692273D+06 0.25692273D+06 0.10895678D+01  1  2  3  3  6  4        4 0.507293676737D-05 0.100000000000D+01
-.955518946689D-03 0.000000000000D+00 0.000000000000D+00 0.756735714216D-04 0.000000000000D+00  6 3 -1 25 4 -2 21 2 0.25075774D+00 0.13066784D+00 0.25692273D+06 0.25692273D+06 0.25692273D+06 0.10895678D+01  1  2 15  3  6  4        4 -.187657641298D-04 0.100000000000D+01
0.456175211787D-01 0.000000000000D+00 0.000000000000D+00 0.756735714216D-04 0.000000000000D+00  6 3 -1 25 4 -2 21 2 0.25075774D+00 0.13066784D+00 0.25804920D+06 0.25804920D+06 0.25804920D+06 0.10894253D+01  1  2 12  3  6  4        4 0.895318374303D-03 0.100000000000D+01
-.311375157854D-01 0.000000000000D+00 0.000000000000D+00 0.756735714216D-04 0.000000000000D+00  6 3 -1 25 4 -2 21 2 0.25075774D+00 0.13066784D+00 0.25692273D+06 0.25692273D+06 0.25692273D+06 0.10895678D+01  1  2  4  3  6  4        4 -.611520345924D-03 0.100000000000D+01
-.493482223433D-01 0.000000000000D+00 0.000000000000D+00 0.756735714216D-04 0.000000000000D+00  6 3 -1 25 4 -2 21 2 0.25075774D+00 0.13066784D+00 0.25692273D+06 0.25692273D+06 0.25692273D+06 0.10895678D+01  1  2  5  3  6  4        4 -.969166654339D-03 0.100000000000D+01
0.688296223131D-01 0.000000000000D+00 -.000000000000D+00 0.756735714216D-04 0.000000000000D+00  6 3 -1 25 4 -2 21 2 0.25075774D+00 0.13066784D+00 0.25692273D+06 0.25692273D+06 0.25692273D+06 0.10895678D+01  1  2  6  3  6  4        4 0.135176854624D-02 0.100000000000D+01
  </mgrwgt>
  </event>
  <event>
  5     66 -.19199499E-05 0.11192561E+03 0.75467711E-02 0.91884973E-01
        1 -1    0    0  502    0 0.00000000E+00 0.00000000E+00 0.22688951E+04 0.22688951E+04 0.32000000E+00 0.0000E+00 0.9000E+01
       -3 -1    0    0    0  501 0.00000000E+00 0.00000000E+00 -.27221217E+03 0.27221263E+03 0.50000000E+00 0.0000E+00 0.9000E+01
       25  1    1    2    0    0 -.51287811E+03 -.25654340E+03 0.13315426E+04 0.14551595E+04 0.12500000E+03 0.0000E+00 0.9000E+01
        2  1    1    2  502    0 -.49451078E+02 0.10056198E+03 0.45039421E+03 0.46412624E+03 0.32000000E+00 0.0000E+00 0.9000E+01
       -4  1    1    2    0  501 0.56232919E+03 0.15598142E+03 0.21474611E+03 0.62182201E+03 0.15500000E+01 0.0000E+00 0.9000E+01
#aMCatNLO 1  0  0  4  1 0.10089102D+02 0.00000000D+00  -5  6  0 0.00000000D+00 0.00000000D+00 0.00000000D+00 0.00000000D+00 0.00000000D+00
  <mgrwgt>
 -.5693849928D-04    7    2    0
 0.785888972489930D+03 0.000000000000000D+00 0.000000000000000D+00 0.785888972489930D+03
 0.785888972489930D+03 -.000000000000000D+00 -.000000000000000D+00 -.785888972489930D+03
 0.661222460528109D+03 -.513026233777861D+03 -.256481601949268D+03 0.304321234264202D+03
 0.177987257345002D+03 -.493904406119277D+02 0.100438666105429D+03 0.138391193738322D+03
 0.732568227106748D+03 0.562416674389789D+03 0.156042935843839D+03 -.442712428002524D+03
 0.000000000000000D+00 0.000000000000000D+00 0.000000000000000D+00 0.000000000000000D+00
 0.785888972489930D+03 0.000000000000000D+00 0.000000000000000D+00 0.785888972489930D+03
 0.785888972489930D+03 -.000000000000000D+00 -.000000000000000D+00 -.785888972489930D+03
 0.661547041275801D+03 -.513280042482836D+03 -.255965465477154D+03 0.305032402037305D+03
 0.149525919609696D+03 -.394832874630318D+02 0.925148062742858D+02 0.110634900760421D+03
 0.731998836171488D+03 0.562135658030421D+03 0.156614400846762D+03 -.441925024833996D+03
 0.287061479228747D+02 -.937232808455410D+01 0.683625835610630D+01 0.262577220362698D+02
0.542368916475D-05 0.000000000000D+00 0.000000000000D+00 0.114511117706D-06 0.000000000000D+00  6 1 -3 25 2 -4 21 0 0.34906082D+00 0.41878833D-01 0.41127703D+06 0.41127703D+06 0.41127703D+06 0.10745583D+01  1  2  2  3  6  4        2 0.456264865950D-05 0.100000000000D+01
0.561589546375D-06 0.000000000000D+00 -.208283944828D-07 0.114511117706D-06 0.000000000000D+00  6 1 -3 25 2 -4 21 2 0.34906082D+00 0.41878833D-01 0.41127703D+06 0.41127703D+06 0.41127703D+06 0.10745583D+01  1  2  3  3  6  4        2 0.545508083367D-06 0.100000000000D+01
-.431878675575D-05 0.000000000000D+00 0.000000000000D+00 0.114511117706D-06 0.000000000000D+00  6 1 -3 25 2 -4 21 2 0.34906082D+00 0.41878833D-01 0.41127703D+06 0.41127703D+06 0.41127703D+06 0.10745583D+01  1  2 15  3  6  4        2 -.419511563348D-05 0.100000000000D+01
0.241217897767D-04 0.000000000000D+00 0.000000000000D+00 0.114511117706D-06 0.000000000000D+00  6 1 -3 25 2 -4 21 2 0.34906082D+00 0.41878833D-01 0.41136799D+06 0.41136799D+06 0.41136799D+06 0.10745514D+01  1  2 12  3  6  4        2 0.234304744698D-04 0.100000000000D+01
-.114901365375D-03 0.000000000000D+00 0.000000000000D+00 0.114511117706D-06 0.000000000000D+00  6 1 -3 25 2 -4 21 2 0.34906082D+00 0.41878833D-01 0.41127703D+06 0.41127703D+06 0.41127703D+06 0.10745583D+01  1  2  4  3  6  4        2 -.111611093915D-03 0.100000000000D+01
-.959084538286D-04 0.000000000000D+00 0.000000000000D+00 0.114511117706D-06 0.000000000000D+00  6 1 -3 25 2 -4 21 2 0.34906082D+00 0.41878833D-01 0.41127703D+06 0.41127703D+06 0.41127703D+06 0.10745583D+01  1  2  5  3  6  4        2 -.931620561038D-04 0.100000000000D+01
0.127131627729D-03 0.000000000000D+00 -.000000000000D+00 0.114511117706D-06 0.000000000000D+00  6 1 -3 25 2 -4 21 2 0.34906082D+00 0.41878833D-01 0.41127703D+06 0.41127703D+06 0.41127703D+06 0.10745583D+01  1  2  6  3  6  4        2 0.123491135163D-03 0.100000000000D+01
  </mgrwgt>
  </event>
  <event>
  5     66 0.19199499E-05 0.12221203E+02 0.75467711E-02 0.85034507E-01
        1 -1    0    0  502    0 0.00000000E+00 0.00000000E+00 0.47181977E+04 0.47181977E+04 0.32000000E+00 0.0000E+00 0.9000E+01
       -3 -1    0    0    0  501 0.00000000E+00 0.00000000E+00 -.55810701E+03 0.55810723E+03 0.50000000E+00 0.0000E+00 0.9000E+01
       25  1    1    2    0    0 0.56927888E+03 0.10070252E+03 0.82976920E+03 0.10190002E+04 0.12500000E+03 0.0000E+00 0.9000E+01
        2  1    1    2  502    0 -.55924158E+03 -.93731731E+02 0.37725387E+04 0.38149161E+04 0.32000000E+00 0.0000E+00 0.9000E+01
       -4  1    1    2    0  501 -.10037307E+02 -.69707864E+01 -.44221715E+03 0.44238868E+03 0.15500000E+01 0.0000E+00 0.9000E+01
#aMCatNLO 1  0  0  5  4 0.65595163D+02 0.00000000D+00  -5  6  0 0.00000000D+00 0.00000000D+00 0.00000000D+00 0.00000000D+00 0.00000000D+00
  <mgrwgt>
 0.6947788059D-02    3    2    0
 0.162273221313858D+04 0.000000000000000D+00 0.000000000000000D+00 0.162273221313858D+04
 0.162273221313858D+04 -.000000000000000D+00 -.000000000000000D+00 -.162273221313858D+04
 0.593025654325763D+03 0.569279920058522D+03 0.100702693151879D+03 0.428225045813571D+02
 0.136638665908176D+04 -.559241793424363D+03 -.937317667874856D+02 0.124317153864582D+04
 0.128605211286964D+04 -.100381266341553D+02 -.697092636439148D+01 -.128599404322717D+04
 0.000000000000000D+00 0.000000000000000D+00 0.000000000000000D+00 0.000000000000000D+00
 0.162273221313858D+04 0.000000000000000D+00 0.000000000000000D+00 0.162273221313858D+04
 0.162273221313858D+04 -.000000000000000D+00 -.000000000000000D+00 -.162273221313858D+04
 0.606051797635167D+03 0.567862307167875D+03 0.997182390366774D+02 -.138789244245437D+03
 0.104664234288512D+04 -.562094604152393D+03 -.957128867953738D+02 0.877695216578126D+03
 0.768109007484611D+03 0.626804345180445D+03 -.316136362818579D+03 -.311713907847800D+03
 0.824661278272262D+03 -.632572048195924D+03 0.312131010577278D+03 -.427192064484889D+03
0.283267274253D+01 0.000000000000D+00 0.000000000000D+00 0.121338360791D-02 0.000000000000D+00  6 1 -3 25 2 -4 21 0 0.72587659D+00 0.85862635D-01 0.34265867D+06 0.34265867D+06 0.34265867D+06 0.10803056D+01  1  2  2  4  6  5       -4 0.387515394896D-02 0.100000000000D+01
0.345357244393D+01 0.000000000000D+00 -.108782091912D-01 0.121338360791D-02 0.000000000000D+00  6 1 -3 25 2 -4 21 2 0.72587659D+00 0.85862635D-01 0.34265867D+06 0.34265867D+06 0.34265867D+06 0.10803056D+01  1  2  3  4  6  5       -4 0.551384332558D-02 0.100000000000D+01
-.152904106585D+01 0.000000000000D+00 0.000000000000D+00 0.121338360791D-02 0.000000000000D+00  6 1 -3 25 2 -4 21 2 0.72587659D+00 0.85862635D-01 0.34265867D+06 0.34265867D+06 0.34265867D+06 0.10803056D+01  1  2 15  4  6  5       -4 -.244120921521D-02 0.100000000000D+01
  </mgrwgt>
  </event>
  <event>
  5     66 0.19199499E-05 0.59200366E+02 0.75467711E-02 0.92982178E-01
        1 -1    0    0  502    0 0.00000000E+00 0.00000000E+00 0.27270321E+04 0.27270321E+04 0.32000000E+00 0.0000E+00 0.9000E+01
       -3 -1    0    0    0  501 0.00000000E+00 0.00000000E+00 -.38570932E+03 0.38570964E+03 0.50000000E+00 0.0000E+00 0.9000E+01
       25  1    1    2    0    0 0.45307768E+03 0.24766080E+03 0.10023400E+04 0.11344275E+04 0.12500000E+03 0.0000E+00 0.9000E+01
        2  1    1    2  502    0 0.26672338E+02 -.52863291E+02 0.14479670E+04 0.14491772E+04 0.32000000E+00 0.0000E+00 0.9000E+01
       -4  1    1    2    0  501 -.47975002E+03 -.19479751E+03 -.10898418E+03 0.52913713E+03 0.15500000E+01 0.0000E+00 0.9000E+01
#aMCatNLO 1  0  0  1  1 0.57621152D+02 0.00000000D+00  -5  6  0 0.00000000D+00 0.00000000D+00 0.00000000D+00 0.00000000D+00 0.00000000D+00
  <mgrwgt>
 0.7060078649D-02    7    2    0
 0.102559359923036D+04 0.000000000000000D+00 0.000000000000000D+00 0.102559359923036D+04
 0.102559359923036D+04 0.000000000000000D+00 0.000000000000000D+00 -.102559359923036D+04
 0.577491959504079D+03 0.453131683821036D+03 0.247674328445445D+03 0.226276528695468D+03
 0.546295796712251D+03 0.266675530038373D+02 -.528538077736309D+02 0.543078644513011D+03
 0.927399442244396D+03 -.479799236824874D+03 -.194820520671814D+03 -.769355173208479D+03
 0.000000000000000D+00 0.000000000000000D+00 -.000000000000000D+00 0.000000000000000D+00
 0.129078816812902D+04 0.000000000000000D+00 0.000000000000000D+00 0.129078816812902D+04
 0.102913293298806D+04 0.000000000000000D+00 0.000000000000000D+00 -.102913293298806D+04
 0.572944850450703D+03 0.441148786588389D+03 0.258510120326266D+03 0.226276528695468D+03
 0.544959819572008D+03 0.153010843796300D+02 -.425754346856746D+02 0.543078644513011D+03
 0.934091704310080D+03 -.499188443529345D+03 -.177287414570273D+03 -.769355173208479D+03
 0.267924726784282D+03 0.427385725613270D+02 -.386472710703184D+02 0.261655235140957D+03
0.178388126327D-02 0.000000000000D+00 0.000000000000D+00 0.523334798621D-04 0.000000000000D+00  6 1 -3 25 2 -4 21 0 0.41954343D+00 0.59339921D-01 0.30711523D+06 0.30711523D+06 0.30711523D+06 0.10837995D+01  1  2  2  1  6  1        1 0.352049566287D-03 0.100000000000D+01
0.592503762769D-03 0.000000000000D+00 -.685057375769D-05 0.523334798621D-04 0.000000000000D+00  6 1 -3 25 2 -4 21 2 0.41954343D+00 0.59339921D-01 0.30711523D+06 0.30711523D+06 0.30711523D+06 0.10837995D+01  1  2  3  1  6  1        1 0.137349434562D-03 0.100000000000D+01
-.115924263255D-02 0.000000000000D+00 0.000000000000D+00 0.523334798621D-04 0.000000000000D+00  6 1 -3 25 2 -4 21 2 0.41954343D+00 0.59339921D-01 0.30711523D+06 0.30711523D+06 0.30711523D+06 0.10837995D+01  1  2 15  1  6  1        1 -.268726259824D-03 0.100000000000D+01
-.188386869307D-02 0.000000000000D+00 0.000000000000D+00 0.523334798621D-04 0.000000000000D+00  6 1 -3 25 2 -4 21 2 0.41954343D+00 0.59339921D-01 0.30711523D+06 0.30711523D+06 0.30711523D+06 0.10837995D+01  1  2  4  1  6  1        1 -.436703217836D-03 0.100000000000D+01
-.455709247632D-01 0.000000000000D+00 -.129640311012D-02 0.523334798621D-04 0.000000000000D+00  6 1 -3 25 2 -4 21 2 0.52841133D+00 0.59339921D-01 0.30711523D+06 0.30711523D+06 0.30711523D+06 0.10837995D+01  1  2  5  1  6  1        1 -.307411851840D-02 0.100000000000D+01
0.447086458763D-01 0.000000000000D+00 0.126265077068D-02 0.523334798621D-04 0.000000000000D+00  6 1 -3 25 2 -4 21 2 0.41954343D+00 0.59339921D-01 0.30711523D+06 0.30711523D+06 0.30711523D+06 0.10837995D+01  1  2  6  1  6  1        1 0.103639970191D-01 0.100000000000D+01
-.143397828199D-02 0.000000000000D+00 -.413350156264D-04 0.523334798621D-04 0.000000000000D+00  6 21 -3 25 2 -4 -1 2 0.52841133D+00 0.59339921D-01 0.30711523D+06 0.30711523D+06 0.30711523D+06 0.10837995D+01  1  2  5  5  6  1        1 -.137693753185D-04 0.100000000000D+01
  </mgrwgt>
  </event>
  <event>
  5     66 -.19199499E-05 0.52469195E+02 0.75467711E-02 0.92134604E-01
        1 -1    0    0  502    0 0.00000000E+00 0.00000000E+00 0.87742416E+03 0.87742422E+03 0.32000000E+00 0.0000E+00 0.9000E+01
       -3 -1    0    0    0  501 0.00000000E+00 0.00000000E+00 -.84912921E+03 0.84912935E+03 0.50000000E+00 0.0000E+00 0.9000E+01
       25  1    1    2    0    0 -.51803067E+03 0.29927860E+03 -.51905898E+03 0.80185453E+03 0.12500000E+03 0.0000E+00 0.9000E+01
        2  1    1    2  502    0 0.53408906E+03 -.24917864E+03 0.60639052E+03 0.84560669E+03 0.32000000E+00 0.0000E+00 0.9000E+01
       -4  1    1    2    0  501 -.16058382E+02 -.50099964E+02 -.59036589E+02 0.79092347E+02 0.15500000E+01 0.0000E+00 0.9000E+01
#aMCatNLO 1  0  0  5  2 0.20728549D+01 0.00000000D+00  -5  6  0 0.00000000D+00 0.00000000D+00 0.00000000D+00 0.00000000D+00 0.00000000D+00
  <mgrwgt>
 -.1249625534D-03    8    2    0
 0.863160852733224D+03 0.000000000000000D+00 0.000000000000000D+00 0.863160852733224D+03
 0.863160852733224D+03 -.000000000000000D+00 -.000000000000000D+00 -.863160852733224D+03
 0.810701724117440D+03 -.518082846900355D+03 0.299156242072145D+03 -.532642461754492D+03
 0.835882767177898D+03 0.534153910316673D+03 -.249208896002867D+03 0.592684171132839D+03
 0.797372141711090D+02 -.160710634163177D+02 -.499473460692778D+02 -.600417093783464D+02
 0.000000000000000D+00 0.000000000000000D+00 0.000000000000000D+00 -.000000000000000D+00
 0.863160852733224D+03 0.000000000000000D+00 0.000000000000000D+00 0.863160852733224D+03
 0.863160852733224D+03 -.000000000000000D+00 -.000000000000000D+00 -.863160852733224D+03
 0.810744355372523D+03 -.518104741594035D+03 0.299088195433665D+03 -.532724260624970D+03
 0.835829466458767D+03 0.534131336869588D+03 -.249279052142775D+03 0.592599836430498D+03
 0.689123143808563D+02 -.123917873265744D+02 -.444247737561803D+02 -.512034193867082D+02
 0.108355692543009D+02 -.363480794897939D+01 -.538436953470917D+01 -.867215641882007D+01
0.174400720441D-04 0.000000000000D+00 0.000000000000D+00 0.251175678178D-06 0.000000000000D+00  6 1 -3 25 2 -4 21 0 0.13498835D+00 0.13063528D+00 0.39254467D+06 0.39254467D+06 0.39254467D+06 0.10760172D+01  1  2  2  4  6  5       -4 0.895080931659D-05 0.100000000000D+01
0.347861187138D-05 0.000000000000D+00 -.669744687259D-07 0.251175678178D-06 0.000000000000D+00  6 1 -3 25 2 -4 21 2 0.13498835D+00 0.13063528D+00 0.39254467D+06 0.39254467D+06 0.39254467D+06 0.10760172D+01  1  2  3  4  6  5       -4 0.206708527036D-05 0.100000000000D+01
-.117802977342D-04 0.000000000000D+00 0.000000000000D+00 0.251175678178D-06 0.000000000000D+00  6 1 -3 25 2 -4 21 2 0.13498835D+00 0.13063528D+00 0.39254467D+06 0.39254467D+06 0.39254467D+06 0.10760172D+01  1  2 15  4  6  5       -4 -.700017157051D-05 0.100000000000D+01
0.475143570437D-07 0.000000000000D+00 0.000000000000D+00 0.251175678178D-06 0.000000000000D+00  6 1 -3 25 2 -4 21 2 0.13498835D+00 0.13063528D+00 0.39263387D+06 0.39263387D+06 0.39263387D+06 0.10760100D+01  1  2 12  4  6  5       -4 0.282336230260D-07 0.100000000000D+01
-.269082508753D-02 0.000000000000D+00 0.000000000000D+00 0.251175678178D-06 0.000000000000D+00  6 1 -3 25 2 -4 21 2 0.13498835D+00 0.13063528D+00 0.39254467D+06 0.39254467D+06 0.39254467D+06 0.10760172D+01  1  2  4  4  6  5       -4 -.159896105377D-02 0.100000000000D+01
-.150717687555D-02 0.000000000000D+00 0.000000000000D+00 0.251175678178D-06 0.000000000000D+00  6 1 -3 25 2 -4 21 2 0.13498835D+00 0.13063528D+00 0.39254467D+06 0.39254467D+06 0.39254467D+06 0.10760172D+01  1  2  5  4  6  5       -4 -.895605268555D-03 0.100000000000D+01
0.212233003374D-02 0.000000000000D+00 -.000000000000D+00 0.251175678178D-06 0.000000000000D+00  6 1 -3 25 2 -4 21 2 0.13498835D+00 0.13063528D+00 0.39254467D+06 0.39254467D+06 0.39254467D+06 0.10760172D+01  1  2  6  4  6  5       -4 0.126114591503D-02 0.100000000000D+01
0.185861450236D-02 0.000000000000D+00 0.000000000000D+00 0.251175678178D-06 0.334043989876D-06  6 1 -3 25 2 -4 21 2 0.13498835D+00 0.13063528D+00 0.39263387D+06 0.39263387D+06 0.39263387D+06 0.10760100D+01  1  2 11  4  6  5       -4 0.110441189727D-02 0.100000000000D+01
  </mgrwgt>
  </event>
  <event>
  5     66 0.19199499E-05 0.71874541E+02 0.75467711E-02 0.91262788E-01
        1 -1    0    0  502    0 0.00000000E+00 0.00000000E+00 0.36371000E+04 0.36371000E+04 0.32000000E+00 0.0000E+00 0.9000E+01
       -3 -1    0    0    0  501 0.00000000E+00 0.00000000E+00 -.52639031E+03 0.52639055E+03 0.50000000E+00 0.0000E+00 0.9000E+01
       25  1    1    2    0    0 0.22107782E+03 0.48994381E+03 0.11144538E+04 0.12436047E+04 0.12500000E+03 0.0000E+00 0.9000E+01
        2  1    1    2  502    0 0.53975594E+02 0.47471056E+02 0.22599512E+04 0.22610941E+04 0.32000000E+00 0.0000E+00 0.9000E+01
       -4  1    1    2    0  501 -.27505342E+03 -.53741487E+03 -.26369525E+03 0.65879186E+03 0.15500000E+01 0.0000E+00 0.9000E+01
#aMCatNLO 1  0  0  4  1 0.29164321D+02 0.00000000D+00  -5  6  0 0.00000000D+00 0.00000000D+00 0.00000000D+00 0.00000000D+00 0.00000000D+00
  <mgrwgt>
 0.5749584957D-02    3    2    0
 0.138366713203822D+04 0.000000000000000D+00 0.000000000000000D+00 0.138366713203822D+04
 0.138366713203822D+04 -.000000000000000D+00 -.000000000000000D+00 -.138366713203822D+04
 0.618352787710822D+03 0.221101888958487D+03 0.489987087382251D+03 0.278857990682339D+03
 0.861399439680367D+03 0.539708081162442D+02 0.474668468869365D+02 0.858395622658656D+03
 0.128758203668525D+04 -.275072697074731D+03 -.537453934269187D+03 -.113725361334100D+04
 0.000000000000000D+00 0.000000000000000D+00 -.000000000000000D+00 0.000000000000000D+00
 0.138366713203822D+04 0.000000000000000D+00 0.000000000000000D+00 0.138366713203822D+04
 0.138366713203822D+04 -.000000000000000D+00 -.000000000000000D+00 -.138366713203822D+04
 0.634461572691902D+03 0.222995629240379D+03 0.491652615158129D+03 0.308977576161347D+03
 0.122240520312518D+03 0.159423901345825D+02 0.121038986067837D+03 -.617647591607631D+01
 0.123210535350142D+04 -.271263965582351D+03 -.534104188714278D+03 -.107667645033281D+04
 0.778526817570598D+03 0.323259462073901D+02 -.785874125116878D+02 0.773875350087544D+03
0.503257543564D+00 0.000000000000D+00 0.000000000000D+00 0.102885341848D-03 0.000000000000D+00  6 1 -3 25 2 -4 21 0 0.55955387D+00 0.80983144D-01 0.37671068D+06 0.37671068D+06 0.37671068D+06 0.10773107D+01  1  2  2  3  6  4        2 0.945299798957D-02 0.100000000000D+01
0.172375142984D+00 0.000000000000D+00 -.193264147804D-02 0.102885341848D-03 0.000000000000D+00  6 1 -3 25 2 -4 21 2 0.55955387D+00 0.80983144D-01 0.37671068D+06 0.37671068D+06 0.37671068D+06 0.10773107D+01  1  2  3  3  6  4        2 0.375781928752D-02 0.100000000000D+01
-.342254613555D+00 0.000000000000D+00 0.000000000000D+00 0.102885341848D-03 0.000000000000D+00  6 1 -3 25 2 -4 21 2 0.55955387D+00 0.80983144D-01 0.37671068D+06 0.37671068D+06 0.37671068D+06 0.10773107D+01  1  2 15  3  6  4        2 -.746123232034D-02 0.100000000000D+01
  </mgrwgt>
  </event>
  <event>
  6     66 0.19199499E-05 0.57163499E+02 0.75467711E-02 0.88946886E-01
        3 -1    0    0  503    0 0.00000000E+00 0.00000000E+00 0.52422278E+04 0.52422278E+04 0.50000000E+00 0.0000E+00 0.9000E+01
       -1 -1    0    0    0  501 0.00000000E+00 0.00000000E+00 -.53548866E+03 0.53548875E+03 0.32000000E+00 0.0000E+00 0.9000E+01
       25  1    1    2    0    0 0.74183163E+03 0.27793365E+03 0.15084759E+04 0.17084162E+04 0.12500000E+03 0.0000E+00 0.9000E+01
        4  1    1    2  502    0 0.57799429E+02 -.22515160E+02 0.26838415E+04 0.26845587E+04 0.15500000E+01 0.0000E+00 0.9000E+01
       -2  1    1    2    0  501 -.79156386E+03 -.25013461E+03 -.39167004E+02 0.83106848E+03 0.32000000E+00 0.0000E+00 0.9000E+01
       21  1    1    2  503  502 -.80672003E+01 -.52838780E+01 0.55358878E+03 0.55367328E+03 0.75000000E+00 0.0000E+00 0.9000E+01
#aMCatNLO 2  0  0  1  4 0.96436034D+01 0.00000000D+00  -5  6  0 0.00000000D+00 0.00000000D+00 0.00000000D+00 0.00000000D+00 0.00000000D+00
  <mgrwgt>
 0.4550547203D-05    2    2    0
 0.158444607919490D+04 0.000000000000000D+00 0.000000000000000D+00 0.158444607919490D+04
 0.158444607919490D+04 0.000000000000000D+00 0.000000000000000D+00 -.158444607919490D+04
 0.837579428300010D+03 0.740111251681774D+03 0.276647352661469D+03 0.248225454195999D+03
 0.907394080586881D+03 0.554477608134477D+02 -.240120738088610D+02 0.905380021657361D+03
 0.142391864950290D+04 -.795559012495222D+03 -.252635278852608D+03 -.115360547585336D+04
 0.000000000000000D+00 -.000000000000000D+00 -.000000000000000D+00 0.000000000000000D+00
 0.177154534834508D+04 0.000000000000000D+00 0.000000000000000D+00 0.177154534834508D+04
 0.158457768529285D+04 0.000000000000000D+00 0.000000000000000D+00 -.158457768529285D+04
 0.839928731026389D+03 0.742246503113740D+03 0.278045905756973D+03 0.248225454195999D+03
 0.907499400098051D+03 0.577578860321851D+02 -.224989813798856D+02 0.905380021657361D+03
 0.142147870098529D+04 -.791937188819812D+03 -.250263046413476D+03 -.115360547585336D+04
 0.187216201528201D+03 -.806720032611276D+01 -.528387796361146D+01 0.186967663052229D+03
-.777744275315D+00 0.000000000000D+00 0.000000000000D+00 0.479178557140D-04 0.000000000000D+00  6 3 -1 25 4 -2 21 2 0.85351265D+00 0.82375998D-01 0.72639838D+06 0.72639838D+06 0.72639838D+06 0.10572320D+01  1  2 13  1  6  1        3 -.347763572768D-04 0.100000000000D+01
0.347353541854D+00 0.000000000000D+00 0.000000000000D+00 0.479178557140D-04 0.110992571347D-05  6 3 -1 25 4 -2 21 2 0.80649622D+00 0.82382841D-01 0.72639838D+06 0.72639838D+06 0.72639838D+06 0.10572320D+01  1  2  1  1  6  1        3 0.393269044794D-04 0.100000000000D+01
  </mgrwgt>
  </event>
  <event>
  5     66 0.19199499E-05 0.15684348E+02 0.75467711E-02 0.92139628E-01
        1 -1    0    0  502    0 0.00000000E+00 0.00000000E+00 0.65745122E+03 0.65745130E+03 0.32000000E+00 0.0000E+00 0.9000E+01
       -3 -1    0    0    0  501 0.00000000E+00 0.00000000E+00 -.77218002E+03 0.77218018E+03 0.50000000E+00 0.0000E+00 0.9000E+01
       25  1    1    2    0    0 0.39556145E+03 0.24021625E+03 -.37256919E+03 0.60712891E+03 0.12500000E+03 0.0000E+00 0.9000E+01
        2  1    1    2  502    0 -.40099133E+03 -.25498731E+03 0.43524197E+03 0.64439758E+03 0.32000000E+00 0.0000E+00 0.9000E+01
       -4  1    1    2    0  501 0.54298783E+01 0.14771059E+02 -.17740157E+03 0.17810499E+03 0.15500000E+01 0.0000E+00 0.9000E+01
#aMCatNLO 1  0  0  2  5 0.35691863D+01 0.00000000D+00  -5  6  0 0.00000000D+00 0.00000000D+00 0.00000000D+00 0.00000000D+00 0.00000000D+00
  <mgrwgt>
 0.6997263960D-02    7    4    0
 0.712510259946040D+03 0.000000000000000D+00 0.000000000000000D+00 0.712510259946040D+03
 0.712510259946040D+03 0.000000000000000D+00 0.000000000000000D+00 -.712510259946040D+03
 0.579587353652936D+03 0.395657870304556D+03 0.240308516046803D+03 -.325581276021611D+03
 0.681644495177589D+03 -.401062195791411D+03 -.255032375045120D+03 0.488617253677894D+03
 0.163788671061555D+03 0.540432548685510D+01 0.147238589983178D+02 -.163035977656284D+03
 0.000000000000000D+00 -.000000000000000D+00 0.000000000000000D+00 -.000000000000000D+00
 0.847546503475727D+03 0.000000000000000D+00 0.000000000000000D+00 0.847546503475727D+03
 0.850218972224720D+03 0.000000000000000D+00 0.000000000000000D+00 -.850218972224720D+03
 0.621967172431308D+03 0.482168448533059D+03 0.180910429565457D+03 -.325581276021611D+03
 0.659335619585577D+03 -.304513131556142D+03 -.321322877138308D+03 0.488617253677894D+03
 0.165623777295540D+03 0.291216523034004D+02 -.156043661272851D+01 -.163035977656284D+03
 0.250838906388024D+03 -.206776969280318D+03 0.141972884185579D+03 -.267246874899342D+01
 0.712510259946040D+03 0.000000000000000D+00 0.000000000000000D+00 0.712510259946040D+03
 0.712510259946040D+03 0.000000000000000D+00 0.000000000000000D+00 -.712510259946040D+03
 0.579587353652936D+03 0.395657870304556D+03 0.240308516046803D+03 -.325581276021611D+03
 0.681644495177589D+03 -.401062195791411D+03 -.255032375045120D+03 0.488617253677894D+03
 0.000000000000000D+00 -.000000000000000D+00 0.000000000000000D+00 -.000000000000000D+00
 0.163788671061555D+03 0.540432548685510D+01 0.147238589983178D+02 -.163035977656284D+03
 0.847546503475727D+03 0.000000000000000D+00 0.000000000000000D+00 0.847546503475727D+03
 0.850218972224720D+03 0.000000000000000D+00 0.000000000000000D+00 -.850218972224720D+03
 0.621967172431308D+03 0.482168448533059D+03 0.180910429565457D+03 -.325581276021611D+03
 0.659335619585577D+03 -.304513131556142D+03 -.321322877138308D+03 0.488617253677894D+03
 0.250838906388024D+03 -.206776969280318D+03 0.141972884185579D+03 -.267246874899342D+01
 0.165623777295540D+03 0.291216523034004D+02 -.156043661272851D+01 -.163035977656284D+03
0.366242694364D-02 0.000000000000D+00 0.000000000000D+00 0.216427242422D-04 0.000000000000D+00  6 1 -3 25 2 -4 21 0 0.10114636D+00 0.11879695D+00 0.23544997D+06 0.23544997D+06 0.23544997D+06 0.10924236D+01  1  2  2  2  6  2       -3 0.399542193924D-02 0.100000000000D+01
0.189770194666D-02 0.000000000000D+00 -.140646838027D-04 0.216427242422D-04 0.000000000000D+00  6 1 -3 25 2 -4 21 2 0.10114636D+00 0.11879695D+00 0.23544997D+06 0.23544997D+06 0.23544997D+06 0.10924236D+01  1  2  3  2  6  2       -3 0.247060799347D-02 0.100000000000D+01
-.261798669936D-02 0.000000000000D+00 0.000000000000D+00 0.216427242422D-04 0.000000000000D+00  6 1 -3 25 2 -4 21 2 0.10114636D+00 0.11879695D+00 0.23544997D+06 0.23544997D+06 0.23544997D+06 0.10924236D+01  1  2 15  2  6  2       -3 -.340834285259D-02 0.100000000000D+01
-.802874400141D-04 0.000000000000D+00 0.000000000000D+00 0.216427242422D-04 0.000000000000D+00  6 1 -3 25 2 -4 21 2 0.10114636D+00 0.11879695D+00 0.23544997D+06 0.23544997D+06 0.23544997D+06 0.10924236D+01  1  2  4  2  6  2       -3 -.104525787847D-03 0.100000000000D+01
-.526544780323D-02 0.000000000000D+00 -.283411434859D-02 0.216427242422D-04 0.000000000000D+00  6 1 -3 25 2 -4 21 2 0.10114636D+00 0.16144844D+00 0.23544997D+06 0.23544997D+06 0.23544997D+06 0.10924236D+01  1  2  5  2  6  2       -3 -.261450036147D-02 0.100000000000D+01
0.597961153720D-02 0.000000000000D+00 0.270579439363D-02 0.216427242422D-04 0.000000000000D+00  6 1 -3 25 2 -4 21 2 0.10114636D+00 0.11879695D+00 0.23544997D+06 0.23544997D+06 0.23544997D+06 0.10924236D+01  1  2  6  2  6  2       -3 0.778482421206D-02 0.100000000000D+01
-.141069055271D-03 0.000000000000D+00 -.111333008202D-03 0.216427242422D-04 0.000000000000D+00  6 1 21 25 2 3 -4 2 0.10114636D+00 0.16144844D+00 0.23544997D+06 0.23544997D+06 0.23544997D+06 0.10924236D+01  3  4  5  6  5  2       -3 -.112622118240D-02 0.100000000000D+01
  </mgrwgt>
  </event>
  <event>
  5     66 -.19199499E-05 0.39049160E+02 0.75467711E-02 0.95108565E-01
        1 -1    0    0  502    0 0.00000000E+00 0.00000000E+00 0.14210231E+04 0.14210231E+04 0.32000000E+00 0.0000E+00 0.9000E+01
       -3 -1    0    0    0  501 0.00000000E+00 0.00000000E+00 -.98659928E+03 0.98659941E+03 0.50000000E+00 0.0000E+00 0.9000E+01
       25  1    1    2    0    0 -.45302720E+03 -.35475529E+02 -.27521331E+03 0.54576508E+03 0.12500000E+03 0.0000E+00 0.9000E+01
        2  1    1    2  502    0 0.41693273E+03 0.50416233E+02 0.12507290E+04 0.13193551E+04 0.32000000E+00 0.0000E+00 0.9000E+01
       -4  1    1    2    0  501 0.36094473E+02 -.14940703E+02 -.54109187E+03 0.54250239E+03 0.15500000E+01 0.0000E+00 0.9000E+01
#aMCatNLO 1  0  0  4  1 0.38868128D+00 0.00000000D+00  -5  6  0 0.00000000D+00 0.00000000D+00 0.00000000D+00 0.00000000D+00 0.00000000D+00
  <mgrwgt>
 -.1239061710D-02    6    2    0
 0.118405260277023D+04 0.000000000000000D+00 0.000000000000000D+00 0.118405260277023D+04
 0.118405260277023D+04 -.000000000000000D+00 -.000000000000000D+00 -.118405260277023D+04
 0.605565333653527D+03 -.453035504961227D+03 -.354850174493411D+02 -.380242051993271D+03
 0.111198690181691D+04 0.416954818094596D+03 0.504189041127596D+02 0.102962201005424D+04
 0.650552970070013D+03 0.360806868666314D+02 -.149338866634184D+02 -.649379958060973D+03
 0.000000000000000D+00 0.000000000000000D+00 0.000000000000000D+00 0.000000000000000D+00
 0.118405260277023D+04 0.000000000000000D+00 0.000000000000000D+00 0.118405260277023D+04
 0.118405260277023D+04 -.000000000000000D+00 -.000000000000000D+00 -.118405260277023D+04
 0.602811121609397D+03 -.451840091507249D+03 -.353404659687115D+02 -.377290115836361D+03
 0.995770304130317D+03 0.408839927527327D+03 0.113238758369505D+02 0.907898773037646D+03
 0.647457086054808D+03 0.373647723664215D+02 -.147786128042930D+02 -.646209056476439D+03
 0.122066693745928D+03 0.563539161350008D+01 0.387952029360540D+02 0.115600399275154D+03
0.137098347165D-02 0.000000000000D+00 0.000000000000D+00 0.564878692513D-03 0.000000000000D+00  6 1 -3 25 2 -4 21 0 0.21861895D+00 0.15178452D+00 0.21638455D+06 0.21638455D+06 0.21638455D+06 0.10952086D+01  1  2  2  3  6  4        2 0.181439876561D-03 0.100000000000D+01
0.574253460568D-03 0.000000000000D+00 -.526493751939D-05 0.564878692513D-03 0.000000000000D+00  6 1 -3 25 2 -4 21 2 0.21861895D+00 0.15178452D+00 0.21638455D+06 0.21638455D+06 0.21638455D+06 0.10952086D+01  1  2  3  3  6  4        2 0.911586462115D-04 0.100000000000D+01
-.988144533833D-03 0.000000000000D+00 0.000000000000D+00 0.564878692513D-03 0.000000000000D+00  6 1 -3 25 2 -4 21 2 0.21861895D+00 0.15178452D+00 0.21638455D+06 0.21638455D+06 0.21638455D+06 0.10952086D+01  1  2 15  3  6  4        2 -.156860905769D-03 0.100000000000D+01
-.119812524165D-01 0.000000000000D+00 0.000000000000D+00 0.564878692513D-03 0.000000000000D+00  6 1 -3 25 2 -4 21 2 0.21861895D+00 0.15178452D+00 0.21638455D+06 0.21638455D+06 0.21638455D+06 0.10952086D+01  1  2  4  3  6  4        2 -.190193847352D-02 0.100000000000D+01
-.297750246664D-01 0.000000000000D+00 0.000000000000D+00 0.564878692513D-03 0.000000000000D+00  6 1 -3 25 2 -4 21 2 0.21861895D+00 0.15178452D+00 0.21638455D+06 0.21638455D+06 0.21638455D+06 0.10952086D+01  1  2  5  3  6  4        2 -.472657306552D-02 0.100000000000D+01
0.332217251287D-01 0.000000000000D+00 -.000000000000D+00 0.564878692513D-03 0.000000000000D+00  6 1 -3 25 2 -4 21 2 0.21861895D+00 0.15178452D+00 0.21638455D+06 0.21638455D+06 0.21638455D+06 0.10952086D+01  1  2  6  3  6  4        2 0.527371221159D-02 0.100000000000D+01
  </mgrwgt>
  </event>
  <event>
  5     66 0.19199499E-05 0.11505158E+03 0.75467711E-02 0.91497084E-01
        1 -1    0    0  502    0 0.00000000E+00 0.00000000E+00 0.95714299E+03 0.95714305E+03 0.32000000E+00 0.0000E+00 0.9000E+01
       -3 -1    0    0    0  501 0.00000000E+00 0.00000000E+00 -.91339171E+03 0.91339185E+03 0.50000000E+00 0.0000E+00 0.9000E+01
       25  1    1    2    0    0 -.16722754E+03 0.60257300E+03 0.56989352E+03 0.85525604E+03 0.12500000E+03 0.0000E+00 0.9000E+01
        2  1    1    2  502    0 -.80050931E+02 -.82891803E+02 0.10868983E+03 0.15840702E+03 0.32000000E+00 0.0000E+00 0.9000E+01
       -4  1    1    2    0  501 0.24727847E+03 -.51968120E+03 -.63483207E+03 0.85687184E+03 0.15500000E+01 0.0000E+00 0.9000E+01
#aMCatNLO 1  0  0  2  4 0.20457175D+01 0.00000000D+00  -5  6  0 0.00000000D+00 0.00000000D+00 0.00000000D+00 0.00000000D+00 0.00000000D+00
  <mgrwgt>
 0.5036923887D-05   10    4    0
 0.935011579509603D+03 0.000000000000000D+00 0.000000000000000D+00 0.935011579509603D+03
 0.935011579509603D+03 0.000000000000000D+00 0.000000000000000D+00 -.935011579509603D+03
 0.842305198704615D+03 -.167376398650646D+03 0.602544815598352D+03 0.550252609385098D+03
 0.155658386153516D+03 -.799232192619734D+02 -.827595591993130D+02 0.104845922972021D+03
 0.872059574161074D+03 0.247299617912620D+03 -.519785256399039D+03 -.655098532357119D+03
 0.000000000000000D+00 -.000000000000000D+00 -.000000000000000D+00 -.000000000000000D+00
 0.935139830574621D+03 0.000000000000000D+00 0.000000000000000D+00 0.935139830574621D+03
 0.943205631072797D+03 0.000000000000000D+00 0.000000000000000D+00 -.943205631072797D+03
 0.842616716000565D+03 -.166697621045499D+03 0.603168217901308D+03 0.550252609385098D+03
 0.155532844246251D+03 -.797978546167218D+02 -.826444219172836D+02 0.104845922972021D+03
 0.871874717731453D+03 0.248002168892492D+03 -.519140020175163D+03 -.655098532357119D+03
 0.832118366914850D+01 -.150669323027191D+01 -.138377580886115D+01 -.806580049817544D+01
 0.935011579509603D+03 0.000000000000000D+00 0.000000000000000D+00 0.935011579509603D+03
 0.935011579509603D+03 0.000000000000000D+00 0.000000000000000D+00 -.935011579509603D+03
 0.842305198704615D+03 -.167376398650646D+03 0.602544815598352D+03 0.550252609385098D+03
 0.155658386153516D+03 -.799232192619734D+02 -.827595591993130D+02 0.104845922972021D+03
 0.000000000000000D+00 -.000000000000000D+00 -.000000000000000D+00 -.000000000000000D+00
 0.872059574161074D+03 0.247299617912620D+03 -.519785256399039D+03 -.655098532357119D+03
 0.935139830574621D+03 0.000000000000000D+00 0.000000000000000D+00 0.935139830574621D+03
 0.943205631072797D+03 0.000000000000000D+00 0.000000000000000D+00 -.943205631072797D+03
 0.842616716000565D+03 -.166697621045499D+03 0.603168217901308D+03 0.550252609385098D+03
 0.155532844246251D+03 -.797978546167218D+02 -.826444219172836D+02 0.104845922972021D+03
 0.832118366914850D+01 -.150669323027191D+01 -.138377580886115D+01 -.806580049817544D+01
 0.871874717731453D+03 0.248002168892492D+03 -.519140020175163D+03 -.655098532357119D+03
0.513398928020D-05 0.000000000000D+00 0.000000000000D+00 0.998704570166D-07 0.000000000000D+00  6 1 -3 25 2 -4 21 0 0.14725278D+00 0.14052182D+00 0.44116034D+06 0.44116034D+06 0.44116034D+06 0.10723746D+01  1  2  2  2  6  2       -3 0.180299068565D-05 0.100000000000D+01
0.514927009706D-06 0.000000000000D+00 -.197158706464D-07 0.998704570166D-07 0.000000000000D+00  6 1 -3 25 2 -4 21 2 0.14725278D+00 0.14052182D+00 0.44116034D+06 0.44116034D+06 0.44116034D+06 0.10723746D+01  1  2  3  2  6  2       -3 0.207958757185D-06 0.100000000000D+01
-.284997266280D-05 0.000000000000D+00 0.000000000000D+00 0.998704570166D-07 0.000000000000D+00  6 1 -3 25 2 -4 21 2 0.14725278D+00 0.14052182D+00 0.44116034D+06 0.44116034D+06 0.44116034D+06 0.10723746D+01  1  2 15  2  6  2       -3 -.115099181398D-05 0.100000000000D+01
-.363705883529D-02 0.000000000000D+00 0.000000000000D+00 0.998704570166D-07 0.000000000000D+00  6 1 -3 25 2 -4 21 2 0.14725278D+00 0.14052182D+00 0.44116034D+06 0.44116034D+06 0.44116034D+06 0.10723746D+01  1  2  4  2  6  2       -3 -.146886494773D-02 0.100000000000D+01
-.450992814451D-02 0.000000000000D+00 -.111735334428D-03 0.998704570166D-07 0.000000000000D+00  6 1 -3 25 2 -4 21 2 0.14725278D+00 0.14176183D+00 0.44116034D+06 0.44116034D+06 0.44116034D+06 0.10723746D+01  1  2  5  2  6  2       -3 -.177098282643D-02 0.100000000000D+01
0.451074003455D-02 0.000000000000D+00 0.111731022298D-03 0.998704570166D-07 0.000000000000D+00  6 1 -3 25 2 -4 21 2 0.14725278D+00 0.14052182D+00 0.44116034D+06 0.44116034D+06 0.44116034D+06 0.10723746D+01  1  2  6  2  6  2       -3 0.182171040534D-02 0.100000000000D+01
0.364431563650D-02 0.000000000000D+00 0.000000000000D+00 0.998704570166D-07 0.160792627256D-06  6 1 -3 25 2 -4 21 2 0.14727298D+00 0.14175329D+00 0.44249447D+06 0.44249447D+06 0.44249447D+06 0.10722809D+01  1  2 11  2  6  2       -3 0.143052038234D-02 0.100000000000D+01
0.841612513337D-08 0.000000000000D+00 0.000000000000D+00 0.998704570166D-07 0.000000000000D+00  6 1 21 25 2 3 -4 2 0.14725278D+00 0.14183659D+00 0.44249447D+06 0.44249447D+06 0.44249447D+06 0.10722809D+01  3  4 12  6  5  2       -3 0.494923574149D-07 0.100000000000D+01
-.733603434265D-05 0.000000000000D+00 -.181660118444D-06 0.998704570166D-07 0.000000000000D+00  6 1 21 25 2 3 -4 2 0.14725278D+00 0.14176183D+00 0.44116034D+06 0.44116034D+06 0.44116034D+06 0.10723746D+01  3  4  5  6  5  2       -3 -.432266036418D-04 0.100000000000D+01
0.593795342681D-05 0.000000000000D+00 0.000000000000D+00 0.998704570166D-07 0.237345125147D-09  6 1 21 25 2 3 -4 2 0.14727298D+00 0.14175329D+00 0.44249447D+06 0.44249447D+06 0.44249447D+06 0.10722809D+01  3  4 11  6  5  2       -3 0.349710640271D-04 0.100000000000D+01
  </mgrwgt>
  </event>
  <event>
  5     66 0.19199499E-05 0.21532204E+03 0.75467711E-02 0.95381159E-01
        1 -1    0    0  502    0 0.00000000E+00 0.00000000E+00 0.16576887E+04 0.16576888E+04 0.32000000E+00 0.0000E+00 0.9000E+01
       -3 -1    0    0    0  501 0.00000000E+00 0.00000000E+00 -.13421556E+04 0.13421557E+04 0.50000000E+00 0.0000E+00 0.9000E+01
       25  1    1    2    0    0 -.39972248E+01 -.45616539E+03 -.45547126E+03 0.65664443E+03 0.12500000E+03 0.0000E+00 0.9000E+01
        2  1    1    2  502    0 0.42062249E+02 0.24417656E+03 0.15322074E+04 0.15521118E+04 0.32000000E+00 0.0000E+00 0.9000E+01
       -4  1    1    2    0  501 -.38065025E+02 0.21198883E+03 -.76120302E+03 0.79108827E+03 0.15500000E+01 0.0000E+00 0.9000E+01
#aMCatNLO 1  0  0  2  2 0.78649554D+02 0.00000000D+00  -5  6  0 0.00000000D+00 0.00000000D+00 0.00000000D+00 0.00000000D+00 0.00000000D+00
  <mgrwgt>
 0.1153653713D-02    7    4    0
 0.149160198178941D+04 0.000000000000000D+00 0.000000000000000D+00 0.149160198178941D+04
 0.149160198178941D+04 0.000000000000000D+00 0.000000000000000D+00 -.149160198178941D+04
 0.708566279738858D+03 -.400620811414190D+01 -.456116015302673D+03 -.527620416269048D+03
 0.139875019142136D+04 0.420635128749947D+02 0.244183894062366D+03 0.137662884786221D+04
 0.875887492418608D+03 -.380573047608528D+02 0.211932121240307D+03 -.849008431593162D+03
 0.000000000000000D+00 -.000000000000000D+00 -.000000000000000D+00 -.000000000000000D+00
 0.150154340753610D+04 0.000000000000000D+00 0.000000000000000D+00 0.150154340753610D+04
 0.165623107305516D+04 0.000000000000000D+00 0.000000000000000D+00 -.165623107305516D+04
 0.699241217589769D+03 0.735627501325898D+01 -.441447462253922D+03 -.527620416269048D+03
 0.140500472931388D+04 0.646927558934276D+02 0.273397424938242D+03 0.137662884786221D+04
 0.879994599810933D+03 -.238854945634205D+02 0.230227413505829D+03 -.849008431593162D+03
 0.173533933876683D+03 -.481635363432661D+02 -.621773761901491D+02 -.154687665519060D+03
 0.149160198178941D+04 0.000000000000000D+00 0.000000000000000D+00 0.149160198178941D+04
 0.149160198178941D+04 0.000000000000000D+00 0.000000000000000D+00 -.149160198178941D+04
 0.708566279738858D+03 -.400620811414190D+01 -.456116015302673D+03 -.527620416269048D+03
 0.139875019142136D+04 0.420635128749947D+02 0.244183894062366D+03 0.137662884786221D+04
 0.000000000000000D+00 -.000000000000000D+00 -.000000000000000D+00 -.000000000000000D+00
 0.875887492418608D+03 -.380573047608528D+02 0.211932121240307D+03 -.849008431593162D+03
 0.150154340753610D+04 0.000000000000000D+00 0.000000000000000D+00 0.150154340753610D+04
 0.165623107305516D+04 0.000000000000000D+00 0.000000000000000D+00 -.165623107305516D+04
 0.699241217589769D+03 0.735627501325898D+01 -.441447462253922D+03 -.527620416269048D+03
 0.140500472931388D+04 0.646927558934276D+02 0.273397424938242D+03 0.137662884786221D+04
 0.173533933876683D+03 -.481635363432661D+02 -.621773761901491D+02 -.154687665519060D+03
 0.879994599810933D+03 -.238854945634205D+02 0.230227413505829D+03 -.849008431593162D+03
0.116808850339D-01 0.000000000000D+00 0.000000000000D+00 0.135754267687D-03 0.000000000000D+00  6 1 -3 25 2 -4 21 0 0.25502905D+00 0.20648549D+00 0.21904911D+06 0.21904911D+06 0.21904911D+06 0.10948036D+01  1  2  2  2  6  2       -3 0.314985302592D-03 0.100000000000D+01
0.109824795263D-02 0.000000000000D+00 -.448576741780D-04 0.135754267687D-03 0.000000000000D+00  6 1 -3 25 2 -4 21 2 0.25502905D+00 0.20648549D+00 0.21904911D+06 0.21904911D+06 0.21904911D+06 0.10948036D+01  1  2  3  2  6  2       -3 0.354966526145D-04 0.100000000000D+01
-.789176961157D-02 0.000000000000D+00 0.000000000000D+00 0.135754267687D-03 0.000000000000D+00  6 1 -3 25 2 -4 21 2 0.25502905D+00 0.20648549D+00 0.21904911D+06 0.21904911D+06 0.21904911D+06 0.10948036D+01  1  2 15  2  6  2       -3 -.255071182920D-03 0.100000000000D+01
-.122910643705D-01 0.000000000000D+00 0.000000000000D+00 0.135754267687D-03 0.000000000000D+00  6 1 -3 25 2 -4 21 2 0.25502905D+00 0.20648549D+00 0.21904911D+06 0.21904911D+06 0.21904911D+06 0.10948036D+01  1  2  4  2  6  2       -3 -.397261512011D-03 0.100000000000D+01
-.199675105791D+00 0.000000000000D+00 -.202911064608D-01 0.135754267687D-03 0.000000000000D+00  6 1 -3 25 2 -4 21 2 0.25502905D+00 0.22987751D+00 0.21904911D+06 0.21904911D+06 0.21904911D+06 0.10948036D+01  1  2  5  2  6  2       -3 -.355915346250D-02 0.100000000000D+01
0.200811496533D+00 0.000000000000D+00 0.201748200428D-01 0.135754267687D-03 0.000000000000D+00  6 1 -3 25 2 -4 21 2 0.25502905D+00 0.20648549D+00 0.21904911D+06 0.21904911D+06 0.21904911D+06 0.10948036D+01  1  2  6  2  6  2       -3 0.649046139025D-02 0.100000000000D+01
-.336979642041D-02 0.000000000000D+00 -.350197781333D-03 0.135754267687D-03 0.000000000000D+00  6 1 21 25 2 3 -4 2 0.25502905D+00 0.22987751D+00 0.21904911D+06 0.21904911D+06 0.21904911D+06 0.10948036D+01  3  4  5  6  5  2       -3 -.147580347511D-02 0.100000000000D+01
  </mgrwgt>
  </event>
  <event>
  6     66 -.19199499E-05 0.68440970E+02 0.75467711E-02 0.92294727E-01
        1 -1    0    0  503    0 0.00000000E+00 0.00000000E+00 0.58790551E+03 0.58790559E+03 0.32000000E+00 0.0000E+00 0.9000E+01
       -3 -1    0    0    0  501 0.00000000E+00 0.00000000E+00 -.10710973E+04 0.10710974E+04 0.50000000E+00 0.0000E+00 0.9000E+01
       25  1    1    2    0    0 0.35001893E+03 -.38766098E+03 -.35819372E+03 0.64554011E+03 0.12500000E+03 0.0000E+00 0.9000E+01
        2  1    1    2  502    0 -.46479162E+03 0.30205149E+03 0.20413027E+03 0.59070773E+03 0.32000000E+00 0.0000E+00 0.9000E+01
       -4  1    1    2    0  501 0.76187554E+02 0.54060435E+02 -.35465264E+03 0.36675329E+03 0.15500000E+01 0.0000E+00 0.9000E+01
       21  1    1    2  503  502 0.38585132E+02 0.31549046E+02 0.25524328E+02 0.56001862E+02 0.75000000E+00 0.0000E+00 0.9000E+01
#aMCatNLO 2  0  0  1  4 0.49841296D+02 0.00000000D+00  -5  6  0 0.00000000D+00 0.00000000D+00 0.00000000D+00 0.00000000D+00 0.00000000D+00
  <mgrwgt>
 -.1482113405D-03    3    2    0
 0.759660513974398D+03 0.000000000000000D+00 0.000000000000000D+00 0.759660513974398D+03
 0.759660513974398D+03 0.000000000000000D+00 0.000000000000000D+00 -.759660513974398D+03
 0.562138170772785D+03 0.364376091625126D+03 -.375999014531490D+03 -.161954092146876D+03
 0.686147342733371D+03 -.447364625892604D+03 0.316387862730608D+03 0.412991268378395D+03
 0.271035514442640D+03 0.829885342674776D+02 0.596111518008815D+02 -.251037176231519D+03
 0.000000000000000D+00 0.000000000000000D+00 0.000000000000000D+00 0.000000000000000D+00
 0.816693493392227D+03 0.000000000000000D+00 0.000000000000000D+00 0.816693493392227D+03
 0.771036865424723D+03 0.000000000000000D+00 0.000000000000000D+00 -.771036865424723D+03
 0.560994467209950D+03 0.350118220033708D+03 -.387656931161414D+03 -.161954092146876D+03
 0.691307988136248D+03 -.464851056761293D+03 0.302090121871109D+03 0.412991268378395D+03
 0.267835874122989D+03 0.761477046070933D+02 0.540177628192978D+02 -.251037176231519D+03
 0.675920293477620D+02 0.385851321204915D+02 0.315490464710076D+02 0.456566279675047D+02
-.503880439789D-03 0.000000000000D+00 0.000000000000D+00 0.689741814689D-06 0.000000000000D+00  6 1 -3 25 2 -4 21 2 0.93894514D-01 0.16235245D+00 0.38112011D+06 0.38112011D+06 0.38112011D+06 0.10769446D+01  1  2 13  1  6  1        1 -.259523328341D-03 0.100000000000D+01
-.676432250163D-05 0.000000000000D+00 0.000000000000D+00 0.689741814689D-06 0.000000000000D+00  6 1 -3 25 2 -4 21 2 0.84130514D-01 0.16235245D+00 0.35308586D+06 0.35308586D+06 0.35308586D+06 0.10793553D+01  1  2  8  1  6  1        1 -.411888290918D-05 0.100000000000D+01
0.223900966627D-03 0.000000000000D+00 0.000000000000D+00 0.689741814689D-06 0.937465219639D-09  6 1 -3 25 2 -4 21 2 0.90446775D-01 0.16478377D+00 0.38112011D+06 0.38112011D+06 0.38112011D+06 0.10769446D+01  1  2  1  1  6  1        1 0.115430870799D-03 0.100000000000D+01
  </mgrwgt>
  </event>
</LesHouchesEvents>
