<event>
 5    0  0.1829809E+000  0.5175954E+03  0.7546771E-02  0.1009286E+00
         21   -1    0    0  502  501  0.00000000000E+00  0.00000000000E+00  0.15307613178E+04  0.15307613178E+04  0.00000000000E+00 0.  1.
         21   -1    0    0  503  502 -0.00000000000E+00 -0.00000000000E+00 -0.22456162438E+03  0.22456162438E+03  0.00000000000E+00 0.  1.
         25    1    1    2    0    0 -0.25415337777E+03  0.43322754305E+03  0.10689242097E+04  0.11876464161E+04  0.12500000000E+03 0.  0.
         21    1    1    2  503  504  0.32069686997E+02 -0.32903480636E+02  0.62672116556E+02  0.77710347159E+02  0.00000000000E+00 0.  1.
         21    1    1    2  504  501  0.22208369078E+03 -0.40032406241E+03  0.17460336708E+03  0.48996617888E+03  0.00000000000E+00 0.  1.
<mgrwt>
<rscale>  4 0.51759544E+03</rscale>
<asrwt>0</asrwt>
<pdfrwt beam="1">  1       21 0.23550174E+00 0.51759544E+03</pdfrwt>
<pdfrwt beam="2">  1       21 0.34547943E-01 0.51759544E+03</pdfrwt>
<totfact> 0.51671347E+02</totfact>
</mgrwt>
</event>
<event>
 5    0  0.1829809E+000  0.2445865E+03  0.7546771E-02  0.1116775E+00
         21   -1    0    0  502  501  0.00000000000E+00  0.00000000000E+00  0.10512871690E+04  0.10512871690E+04  0.00000000000E+00 0. -1.
         21   -1    0    0  503  502 -0.00000000000E+00 -0.00000000000E+00 -0.60158604844E+02  0.60158604844E+02  0.00000000000E+00 0. -1.
         25    1    1    2    0    0  0.53462050773E+01 -0.21016417589E+03  0.74012480815E+03  0.77949168974E+03  0.12500000000E+03 0.  0.
         21    1    1    2  503  504 -0.14120624125E+02  0.42070673666E+02  0.83095542634E+02  0.94202987288E+02  0.00000000000E+00 0. -1.
         21    1    1    2  504  501  0.87744190478E+01  0.16809350222E+03  0.16790821336E+03  0.23775109681E+03  0.00000000000E+00 0. -1.
<mgrwt>
<rscale>  4 0.24458651E+03</rscale>
<asrwt>0</asrwt>
<pdfrwt beam="1">  1       21 0.16173647E+00 0.24458651E+03</pdfrwt>
<pdfrwt beam="2">  1       21 0.92551708E-02 0.24458651E+03</pdfrwt>
<totfact> 0.22010037E+04</totfact>
</mgrwt>
</event>
<event>
 5    0  0.1829809E+000  0.2527608E+03  0.7546771E-02  0.1111572E+00
         21   -1    0    0  502  501  0.00000000000E+00  0.00000000000E+00  0.76133644973E+03  0.76133644973E+03  0.00000000000E+00 0.  1.
         21   -1    0    0  503  502 -0.00000000000E+00 -0.00000000000E+00 -0.12311952993E+03  0.12311952993E+03  0.00000000000E+00 0. -1.
         25    1    1    2    0    0  0.85980634559E+02  0.19661709095E+03  0.39593664752E+03  0.46737755489E+03  0.12500000000E+03 0.  0.
         21    1    1    2  503  504 -0.87322754809E+02  0.44741761477E+02  0.71583400643E+02  0.12145481454E+03  0.00000000000E+00 0. -1.
         21    1    1    2  504  501  0.13421202499E+01 -0.24135885242E+03  0.17069687164E+03  0.29562361022E+03  0.00000000000E+00 0. -1.
<mgrwt>
<rscale>  4 0.25276083E+03</rscale>
<asrwt>0</asrwt>
<pdfrwt beam="1">  1       21 0.11712868E+00 0.25276083E+03</pdfrwt>
<pdfrwt beam="2">  1       21 0.18941467E-01 0.25276083E+03</pdfrwt>
<totfact> 0.13802491E+04</totfact>
</mgrwt>
</event>
<event>
 5    0  0.1829809E+000  0.2436830E+03  0.7546771E-02  0.1117363E+00
         21   -1    0    0  502  501  0.00000000000E+00  0.00000000000E+00  0.35684818232E+03  0.35684818232E+03  0.00000000000E+00 0. -1.
         21   -1    0    0  503  502 -0.00000000000E+00 -0.00000000000E+00 -0.15850668432E+03  0.15850668432E+03  0.00000000000E+00 0. -1.
         25    1    1    2    0    0  0.25962420060E+02  0.20756290670E+03  0.16625886280E+03  0.29499731685E+03  0.12500000000E+03 0.  0.
         21    1    1    2  503  504 -0.65980746693E+01 -0.16845421523E+03  0.43274663073E+01  0.16863891657E+03  0.00000000000E+00 0. -1.
         21    1    1    2  504  501 -0.19364345391E+02 -0.39108691470E+02  0.27755168892E+02  0.51718633211E+02  0.00000000000E+00 0. -1.
<mgrwt>
<rscale>  4 0.24368301E+03</rscale>
<asrwt>0</asrwt>
<pdfrwt beam="1">  1       21 0.54899720E-01 0.24368301E+03</pdfrwt>
<pdfrwt beam="2">  1       21 0.24385644E-01 0.24368301E+03</pdfrwt>
<totfact> 0.48590591E+04</totfact>
</mgrwt>
</event>
<event>
 5    0  0.1829809E+000  0.3039940E+03  0.7546771E-02  0.1083261E+00
         21   -1    0    0  502  501  0.00000000000E+00  0.00000000000E+00  0.14298972838E+04  0.14298972838E+04  0.00000000000E+00 0.  1.
         21   -1    0    0  503  502 -0.00000000000E+00 -0.00000000000E+00 -0.66822865810E+02  0.66822865810E+02  0.00000000000E+00 0. -1.
         25    1    1    2    0    0 -0.23640187225E+03 -0.14457360215E+03  0.91466995189E+03  0.96386383506E+03  0.12500000000E+03 0.  0.
         21    1    1    2  503  504  0.22083868091E+03  0.10961389607E+03  0.35796210449E+03  0.43465135160E+03  0.00000000000E+00 0. -1.
         21    1    1    2  504  501  0.15563191340E+02  0.34959706083E+02  0.90442361563E+02  0.98204962906E+02  0.00000000000E+00 0. -1.
<mgrwt>
<rscale>  4 0.30399403E+03</rscale>
<asrwt>0</asrwt>
<pdfrwt beam="1">  1       21 0.21998417E+00 0.30399403E+03</pdfrwt>
<pdfrwt beam="2">  1       21 0.10280442E-01 0.30399403E+03</pdfrwt>
<totfact> 0.71605792E+03</totfact>
</mgrwt>
</event>
<event>
 5    0  0.1829809E+000  0.2521454E+03  0.7546771E-02  0.1111956E+00
         21   -1    0    0  502  501  0.00000000000E+00  0.00000000000E+00  0.15382457439E+03  0.15382457439E+03  0.00000000000E+00 0. -1.
         21   -1    0    0  503  502 -0.00000000000E+00 -0.00000000000E+00 -0.39543455657E+03  0.39543455657E+03  0.00000000000E+00 0. -1.
         25    1    1    2    0    0 -0.20849503505E+03 -0.66948532825E+02 -0.65520502144E+02  0.26051913920E+03  0.12500000000E+03 0.  0.
         21    1    1    2  503  504  0.13820675859E+03  0.30338174388E+02 -0.14774374710E+03  0.20457206004E+03  0.00000000000E+00 0. -1.
         21    1    1    2  504  501  0.70288276461E+02  0.36610358438E+02 -0.28345732947E+02  0.84167931714E+02  0.00000000000E+00 0. -1.
<mgrwt>
<rscale>  4 0.25214537E+03</rscale>
<asrwt>0</asrwt>
<pdfrwt beam="1">  1       21 0.23665319E-01 0.25214537E+03</pdfrwt>
<pdfrwt beam="2">  1       21 0.60836085E-01 0.25214537E+03</pdfrwt>
<totfact> 0.41135173E+04</totfact>
</mgrwt>
</event>
<event>
 5    0  0.1829809E+000  0.2525369E+03  0.7546771E-02  0.1111712E+00
         21   -1    0    0  502  501  0.00000000000E+00  0.00000000000E+00  0.22639532192E+03  0.22639532192E+03  0.00000000000E+00 0.  1.
         21   -1    0    0  503  502 -0.00000000000E+00 -0.00000000000E+00 -0.25867041679E+03  0.25867041679E+03  0.00000000000E+00 0.  1.
         25    1    1    2    0    0  0.12445116482E+03  0.18072574762E+03  0.95841505832E+01  0.25271870572E+03  0.12500000000E+03 0.  0.
         21    1    1    2  503  504 -0.48973348633E+02 -0.28559528804E+02  0.26523986517E+01  0.56754478065E+02  0.00000000000E+00 0. -1.
         21    1    1    2  504  501 -0.75477816185E+02 -0.15216621882E+03 -0.44511644111E+02  0.17559255493E+03  0.00000000000E+00 0.  1.
<mgrwt>
<rscale>  4 0.25253690E+03</rscale>
<asrwt>0</asrwt>
<pdfrwt beam="1">  1       21 0.34830050E-01 0.25253690E+03</pdfrwt>
<pdfrwt beam="2">  1       21 0.39795449E-01 0.25253690E+03</pdfrwt>
<totfact> 0.47080246E+04</totfact>
</mgrwt>
</event>
<event>
 5    0  0.1829809E+000  0.3480889E+03  0.7546771E-02  0.1063402E+00
         21   -1    0    0  502  501  0.00000000000E+00  0.00000000000E+00  0.55963649725E+03  0.55963649725E+03  0.00000000000E+00 0. -1.
         21   -1    0    0  503  502 -0.00000000000E+00 -0.00000000000E+00 -0.95195294547E+03  0.95195294547E+03  0.00000000000E+00 0.  1.
         25    1    1    2    0    0 -0.52199317147E+02  0.32299704195E+03  0.45060125793E+03  0.57071740071E+03  0.12500000000E+03 0.  0.
         21    1    1    2  503  504 -0.42006836835E+02 -0.30510361221E+03 -0.73259843314E+03  0.79470324824E+03  0.00000000000E+00 0.  1.
         21    1    1    2  504  501  0.94206153983E+02 -0.17893429746E+02 -0.11031927302E+03  0.14616879378E+03  0.00000000000E+00 0.  1.
<mgrwt>
<rscale>  4 0.34808887E+03</rscale>
<asrwt>0</asrwt>
<pdfrwt beam="1">  1       21 0.86097923E-01 0.34808887E+03</pdfrwt>
<pdfrwt beam="2">  1       21 0.14645430E+00 0.34808887E+03</pdfrwt>
<totfact> 0.32327610E+02</totfact>
</mgrwt>
</event>
<event>
 5    0  0.1829809E+000  0.2066387E+03  0.7546771E-02  0.1144256E+00
         21   -1    0    0  502  501  0.00000000000E+00  0.00000000000E+00  0.84050235908E+03  0.84050235908E+03  0.00000000000E+00 0. -1.
         21   -1    0    0  503  502 -0.00000000000E+00 -0.00000000000E+00 -0.89338765740E+02  0.89338765740E+02  0.00000000000E+00 0.  1.
         25    1    1    2    0    0 -0.18544818455E+03  0.80321648149E+02  0.59777525761E+03  0.64327510050E+03  0.12500000000E+03 0.  0.
         21    1    1    2  503  504  0.11694630937E+03 -0.53490142590E+02  0.16799021029E+03  0.21156168222E+03  0.00000000000E+00 0.  1.
         21    1    1    2  504  501  0.68501875178E+02 -0.26831505559E+02 -0.14601874563E+02  0.75004342103E+02  0.00000000000E+00 0. -1.
<mgrwt>
<rscale>  4 0.20663868E+03</rscale>
<asrwt>0</asrwt>
<pdfrwt beam="1">  1       21 0.12930805E+00 0.20663868E+03</pdfrwt>
<pdfrwt beam="2">  1       21 0.13744426E-01 0.20663868E+03</pdfrwt>
<totfact> 0.19959805E+04</totfact>
</mgrwt>
</event>
<event>
 5    0  0.1829809E+000  0.2579484E+03  0.7546771E-02  0.1108382E+00
         21   -1    0    0  502  501  0.00000000000E+00  0.00000000000E+00  0.19102375419E+03  0.19102375419E+03  0.00000000000E+00 0. -1.
         21   -1    0    0  503  502 -0.00000000000E+00 -0.00000000000E+00 -0.78096429195E+03  0.78096429195E+03  0.00000000000E+00 0. -1.
         25    1    1    2    0    0 -0.21697952739E+03 -0.61905326317E+02  0.73052010780E+02  0.26809323194E+03  0.12500000000E+03 0.  0.
         21    1    1    2  503  504  0.12554777213E+03  0.55589766266E+02 -0.47973790808E+03  0.49899992550E+03  0.00000000000E+00 0. -1.
         21    1    1    2  504  501  0.91431755262E+02  0.63155600510E+01 -0.18325464045E+03  0.20489488870E+03  0.00000000000E+00 0.  1.
<mgrwt>
<rscale>  4 0.25794841E+03</rscale>
<asrwt>0</asrwt>
<pdfrwt beam="1">  1       21 0.29388270E-01 0.25794841E+03</pdfrwt>
<pdfrwt beam="2">  1       21 0.12014835E+00 0.25794841E+03</pdfrwt>
<totfact> 0.55779405E+03</totfact>
</mgrwt>
</event>
<event>
 5    0  0.1829809E+000  0.2688355E+03  0.7546771E-02  0.1101948E+00
         21   -1    0    0  502  501  0.00000000000E+00  0.00000000000E+00  0.61611321103E+02  0.61611321103E+02  0.00000000000E+00 0.  1.
         21   -1    0    0  503  502 -0.00000000000E+00 -0.00000000000E+00 -0.14541586156E+04  0.14541586156E+04  0.00000000000E+00 0.  1.
         25    1    1    2    0    0 -0.74278910806E+02 -0.22611985477E+03 -0.32992920426E+03  0.42558879818E+03  0.12500000000E+03 0.  0.
         21    1    1    2  503  504  0.31088246222E+02  0.14225651945E+03 -0.54961532193E+03  0.56857752196E+03  0.00000000000E+00 0.  1.
         21    1    1    2  504  501  0.43190664584E+02  0.83863335328E+02 -0.51300276832E+03  0.52160361658E+03  0.00000000000E+00 0.  1.
<mgrwt>
<rscale>  4 0.26883554E+03</rscale>
<asrwt>0</asrwt>
<pdfrwt beam="1">  1       21 0.94786648E-02 0.26883554E+03</pdfrwt>
<pdfrwt beam="2">  1       21 0.22371671E+00 0.26883554E+03</pdfrwt>
<totfact> 0.80168286E+03</totfact>
</mgrwt>
</event>
<event>
 5    0  0.1829809E+000  0.2620657E+03  0.7546771E-02  0.1105908E+00
         21   -1    0    0  502  501  0.00000000000E+00  0.00000000000E+00  0.53201363899E+03  0.53201363899E+03  0.00000000000E+00 0. -1.
         21   -1    0    0  503  502 -0.00000000000E+00 -0.00000000000E+00 -0.20188269597E+03  0.20188269597E+03  0.00000000000E+00 0. -1.
         25    1    1    2    0    0 -0.27704567851E+03 -0.12521564301E+02  0.11563976170E+03  0.32543609517E+03  0.12500000000E+03 0.  0.
         21    1    1    2  503  504  0.95797724351E+02  0.10585277033E+03  0.73370763608E+02  0.16051567503E+03  0.00000000000E+00 0. -1.
         21    1    1    2  504  501  0.18124795415E+03 -0.93331206028E+02  0.14112041771E+03  0.24794456477E+03  0.00000000000E+00 0. -1.
<mgrwt>
<rscale>  4 0.26206571E+03</rscale>
<asrwt>0</asrwt>
<pdfrwt beam="1">  1       21 0.81848251E-01 0.26206571E+03</pdfrwt>
<pdfrwt beam="2">  1       21 0.31058877E-01 0.26206571E+03</pdfrwt>
<totfact> 0.12484736E+04</totfact>
</mgrwt>
</event>
<event>
 5    0  0.1829809E+000  0.2641071E+03  0.7546771E-02  0.1104700E+00
         21   -1    0    0  502  501  0.00000000000E+00  0.00000000000E+00  0.10308076154E+04  0.10308076154E+04  0.00000000000E+00 0. -1.
         21   -1    0    0  503  502 -0.00000000000E+00 -0.00000000000E+00 -0.11687712522E+03  0.11687712522E+03  0.00000000000E+00 0. -1.
         25    1    1    2    0    0 -0.23393947122E+03  0.13135012525E+03  0.72611547891E+03  0.78412321755E+03  0.12500000000E+03 0.  0.
         21    1    1    2  503  504  0.72508367378E+02 -0.10719821095E+03  0.14592096286E+03  0.19504319310E+03  0.00000000000E+00 0. -1.
         21    1    1    2  504  501  0.16143110385E+03 -0.24151914291E+02  0.41894048448E+02  0.16851833001E+03  0.00000000000E+00 0. -1.
<mgrwt>
<rscale>  4 0.26410711E+03</rscale>
<asrwt>0</asrwt>
<pdfrwt beam="1">  1       21 0.15858578E+00 0.26410711E+03</pdfrwt>
<pdfrwt beam="2">  1       21 0.17981097E-01 0.26410711E+03</pdfrwt>
<totfact> 0.68921616E+03</totfact>
</mgrwt>
</event>
<event>
 5    0  0.1829809E+000  0.2844326E+03  0.7546771E-02  0.1093292E+00
         21   -1    0    0  502  501  0.00000000000E+00  0.00000000000E+00  0.53595555652E+03  0.53595555652E+03  0.00000000000E+00 0. -1.
         21   -1    0    0  503  502 -0.00000000000E+00 -0.00000000000E+00 -0.15845965571E+03  0.15845965571E+03  0.00000000000E+00 0. -1.
         25    1    1    2    0    0  0.24808517716E+03  0.61079223110E+02  0.32228334816E+03  0.42984704620E+03  0.12500000000E+03 0.  0.
         21    1    1    2  503  504 -0.20161109144E+02  0.51555272670E+01  0.94000106996E+01  0.22834403527E+02  0.00000000000E+00 0.  1.
         21    1    1    2  504  501 -0.22792406801E+03 -0.66234750377E+02  0.45812541946E+02  0.24173376251E+03  0.00000000000E+00 0. -1.
<mgrwt>
<rscale>  4 0.28443264E+03</rscale>
<asrwt>0</asrwt>
<pdfrwt beam="1">  1       21 0.82454700E-01 0.28443264E+03</pdfrwt>
<pdfrwt beam="2">  1       21 0.24378409E-01 0.28443264E+03</pdfrwt>
<totfact> 0.19460083E+04</totfact>
</mgrwt>
</event>
<event>
 5    0  0.1829809E+000  0.2287924E+03  0.7546771E-02  0.1127493E+00
         21   -1    0    0  502  501  0.00000000000E+00  0.00000000000E+00  0.27349036213E+03  0.27349036213E+03  0.00000000000E+00 0.  1.
         21   -1    0    0  503  502 -0.00000000000E+00 -0.00000000000E+00 -0.24089468875E+03  0.24089468875E+03  0.00000000000E+00 0.  1.
         25    1    1    2    0    0 -0.44742841855E+02  0.21733324610E+03  0.71786827027E+02  0.26460160675E+03  0.12500000000E+03 0.  0.
         21    1    1    2  503  504  0.27915518511E+02 -0.49892105075E+02 -0.56787855361E+02  0.80581380225E+02  0.00000000000E+00 0. -1.
         21    1    1    2  504  501  0.16827323344E+02 -0.16744114103E+03  0.17596701708E+02  0.16920206391E+03  0.00000000000E+00 0.  1.
<mgrwt>
<rscale>  4 0.22879241E+03</rscale>
<asrwt>0</asrwt>
<pdfrwt beam="1">  1       21 0.42075440E-01 0.22879241E+03</pdfrwt>
<pdfrwt beam="2">  1       21 0.37060721E-01 0.22879241E+03</pdfrwt>
<totfact> 0.37492455E+04</totfact>
</mgrwt>
</event>
<event>
 5    0  0.1829809E+000  0.2840669E+03  0.7546771E-02  0.1093488E+00
         21   -1    0    0  502  501  0.00000000000E+00  0.00000000000E+00  0.24560164727E+03  0.24560164727E+03  0.00000000000E+00 0. -1.
         21   -1    0    0  503  502 -0.00000000000E+00 -0.00000000000E+00 -0.33378443473E+03  0.33378443473E+03  0.00000000000E+00 0. -1.
         25    1    1    2    0    0 -0.26042999721E+03 -0.30542014765E+02 -0.69734900422E+02  0.29873827081E+03  0.12500000000E+03 0.  0.
         21    1    1    2  503  504  0.10246270017E+02  0.17428396297E+02 -0.22287799545E+02  0.30091212260E+02  0.00000000000E+00 0. -1.
         21    1    1    2  504  501  0.25018372719E+03  0.13113618468E+02  0.38399125076E+01  0.25055659893E+03  0.00000000000E+00 0. -1.
<mgrwt>
<rscale>  4 0.28406693E+03</rscale>
<asrwt>0</asrwt>
<pdfrwt beam="1">  1       21 0.37784869E-01 0.28406693E+03</pdfrwt>
<pdfrwt beam="2">  1       21 0.51351451E-01 0.28406693E+03</pdfrwt>
<totfact> 0.23271968E+04</totfact>
</mgrwt>
</event>
<event>
 5    0  0.1829809E+000  0.2448928E+03  0.7546771E-02  0.1116576E+00
         21   -1    0    0  502  501  0.00000000000E+00  0.00000000000E+00  0.24248501565E+03  0.24248501565E+03  0.00000000000E+00 0.  1.
         21   -1    0    0  503  502 -0.00000000000E+00 -0.00000000000E+00 -0.41707389881E+03  0.41707389881E+03  0.00000000000E+00 0.  1.
         25    1    1    2    0    0  0.10117186578E+03  0.23882970878E+03  0.31343237545E+02  0.28962523157E+03  0.12500000000E+03 0.  0.
         21    1    1    2  503  504  0.21088738024E+02 -0.80708106783E+02 -0.65236184196E+00  0.83420374897E+02  0.00000000000E+00 0. -1.
         21    1    1    2  504  501 -0.12226060381E+03 -0.15812160200E+03 -0.20527975886E+03  0.28651330800E+03  0.00000000000E+00 0.  1.
<mgrwt>
<rscale>  4 0.24489276E+03</rscale>
<asrwt>0</asrwt>
<pdfrwt beam="1">  1       21 0.37305387E-01 0.24489276E+03</pdfrwt>
<pdfrwt beam="2">  1       21 0.64165215E-01 0.24489276E+03</pdfrwt>
<totfact> 0.15067049E+04</totfact>
</mgrwt>
</event>
<event>
 5    0  0.1829809E+000  0.3053789E+03  0.7546771E-02  0.1082582E+00
         21   -1    0    0  502  501  0.00000000000E+00  0.00000000000E+00  0.46719794077E+03  0.46719794077E+03  0.00000000000E+00 0. -1.
         21   -1    0    0  503  502 -0.00000000000E+00 -0.00000000000E+00 -0.19843651856E+04  0.19843651856E+04  0.00000000000E+00 0.  1.
         25    1    1    2    0    0  0.14136132639E+03  0.24099071587E+03  0.40417095969E+03  0.50698985630E+03  0.12500000000E+03 0.  0.
         21    1    1    2  503  504  0.11140996144E+02 -0.33889099669E+02 -0.40596544940E+03  0.40752980134E+03  0.00000000000E+00 0.  1.
         21    1    1    2  504  501 -0.15250232253E+03 -0.20710161620E+03 -0.15153727551E+04  0.15370434687E+04  0.00000000000E+00 0.  1.
<mgrwt>
<rscale>  4 0.30537890E+03</rscale>
<asrwt>0</asrwt>
<pdfrwt beam="1">  1       21 0.71876606E-01 0.30537890E+03</pdfrwt>
<pdfrwt beam="2">  1       21 0.30528695E+00 0.30537890E+03</pdfrwt>
<totfact> 0.47713732E+01</totfact>
</mgrwt>
</event>
<event>
 5    0  0.1829809E+000  0.2796124E+03  0.7546771E-02  0.1095901E+00
         21   -1    0    0  502  501  0.00000000000E+00  0.00000000000E+00  0.32677302814E+03  0.32677302814E+03  0.00000000000E+00 0.  1.
         21   -1    0    0  503  502 -0.00000000000E+00 -0.00000000000E+00 -0.22861379327E+03  0.22861379327E+03  0.00000000000E+00 0.  1.
         25    1    1    2    0    0 -0.24793665563E+03  0.32946773106E+02  0.62215931695E+02  0.28645051443E+03  0.12500000000E+03 0.  0.
         21    1    1    2  503  504  0.70751267919E+02 -0.26296470170E+02 -0.27916028869E+02  0.80477021089E+02  0.00000000000E+00 0.  1.
         21    1    1    2  504  501  0.17718538771E+03 -0.66503029365E+01  0.63859332044E+02  0.18845928588E+03  0.00000000000E+00 0.  1.
<mgrwt>
<rscale>  4 0.27961237E+03</rscale>
<asrwt>0</asrwt>
<pdfrwt beam="1">  1       21 0.50272774E-01 0.27961237E+03</pdfrwt>
<pdfrwt beam="2">  1       21 0.35171353E-01 0.27961237E+03</pdfrwt>
<totfact> 0.28166533E+04</totfact>
</mgrwt>
</event>
<event>
 5    0  0.1829809E+000  0.2951082E+03  0.7546771E-02  0.1087712E+00
         21   -1    0    0  502  501  0.00000000000E+00  0.00000000000E+00  0.58759053306E+03  0.58759053306E+03  0.00000000000E+00 0. -1.
         21   -1    0    0  503  502 -0.00000000000E+00 -0.00000000000E+00 -0.28991481972E+03  0.28991481972E+03  0.00000000000E+00 0.  1.
         25    1    1    2    0    0  0.26443239450E+03 -0.72977057499E+01  0.41091407356E+03  0.50443346798E+03  0.12500000000E+03 0.  0.
         21    1    1    2  503  504 -0.27992574506E+03 -0.58009981741E+02 -0.10854787336E+03  0.30578787017E+03  0.00000000000E+00 0.  1.
         21    1    1    2  504  501  0.15493350566E+02  0.65307687491E+02 -0.46904868628E+01  0.67284014626E+02  0.00000000000E+00 0.  1.
<mgrwt>
<rscale>  4 0.29510822E+03</rscale>
<asrwt>0</asrwt>
<pdfrwt beam="1">  1       21 0.90398544E-01 0.29510822E+03</pdfrwt>
<pdfrwt beam="2">  1       21 0.44602280E-01 0.29510822E+03</pdfrwt>
<totfact> 0.46943619E+03</totfact>
</mgrwt>
</event>
<event>
 5    0  0.1829809E+000  0.3866146E+03  0.7546771E-02  0.1048516E+00
         21   -1    0    0  502  501  0.00000000000E+00  0.00000000000E+00  0.16441996179E+04  0.16441996179E+04  0.00000000000E+00 0.  1.
         21   -1    0    0  503  502 -0.00000000000E+00 -0.00000000000E+00 -0.95013363872E+02  0.95013363872E+02  0.00000000000E+00 0.  1.
         25    1    1    2    0    0  0.36443856075E+03 -0.32100198058E+02  0.55144552943E+03  0.67347090450E+03  0.12500000000E+03 0.  0.
         21    1    1    2  503  504 -0.66659699078E+02  0.35579238788E+02  0.16910048177E+03  0.18521439104E+03  0.00000000000E+00 0.  1.
         21    1    1    2  504  501 -0.29777886168E+03 -0.34790407309E+01  0.82864024284E+03  0.88052768624E+03  0.00000000000E+00 0.  1.
<mgrwt>
<rscale>  4 0.38661465E+03</rscale>
<asrwt>0</asrwt>
<pdfrwt beam="1">  1       21 0.25295377E+00 0.38661465E+03</pdfrwt>
<pdfrwt beam="2">  1       21 0.14617442E-01 0.38661465E+03</pdfrwt>
<totfact> 0.22580788E+03</totfact>
</mgrwt>
</event>
<event>
 5    0  0.1829809E+000  0.2757588E+03  0.7546771E-02  0.1098028E+00
         21   -1    0    0  502  501  0.00000000000E+00  0.00000000000E+00  0.17784559861E+03  0.17784559861E+03  0.00000000000E+00 0.  1.
         21   -1    0    0  503  502 -0.00000000000E+00 -0.00000000000E+00 -0.56959041894E+03  0.56959041894E+03  0.00000000000E+00 0.  1.
         25    1    1    2    0    0  0.90703139348E+02  0.22845324101E+03  0.25980380462E+01  0.27577108734E+03  0.12500000000E+03 0.  0.
         21    1    1    2  503  504 -0.38318480787E+02 -0.19599223431E+02 -0.75956998037E+02  0.87303499814E+02  0.00000000000E+00 0.  1.
         21    1    1    2  504  501 -0.52384658561E+02 -0.20885401757E+03 -0.31838586034E+03  0.38436143039E+03  0.00000000000E+00 0.  1.
<mgrwt>
<rscale>  4 0.27575885E+03</rscale>
<asrwt>0</asrwt>
<pdfrwt beam="1">  1       21 0.27360861E-01 0.27575885E+03</pdfrwt>
<pdfrwt beam="2">  1       21 0.87629296E-01 0.27575885E+03</pdfrwt>
<totfact> 0.13579195E+04</totfact>
</mgrwt>
</event>
<event>
 5    0  0.1829809E+000  0.2642753E+03  0.7546771E-02  0.1104601E+00
         21   -1    0    0  502  501  0.00000000000E+00  0.00000000000E+00  0.10084995257E+04  0.10084995257E+04  0.00000000000E+00 0. -1.
         21   -1    0    0  503  502 -0.00000000000E+00 -0.00000000000E+00 -0.10187613109E+03  0.10187613109E+03  0.00000000000E+00 0. -1.
         25    1    1    2    0    0  0.14638843991E+03  0.18300700357E+03  0.61455551290E+03  0.66949579321E+03  0.12500000000E+03 0.  0.
         21    1    1    2  503  504 -0.75525119575E+02  0.47372699082E+02  0.74724019585E+02  0.11632667539E+03  0.00000000000E+00 0. -1.
         21    1    1    2  504  501 -0.70863320337E+02 -0.23037970265E+03  0.21734386217E+03  0.32455318822E+03  0.00000000000E+00 0. -1.
<mgrwt>
<rscale>  4 0.26427528E+03</rscale>
<asrwt>0</asrwt>
<pdfrwt beam="1">  1       21 0.15515377E+00 0.26427528E+03</pdfrwt>
<pdfrwt beam="2">  1       21 0.15673252E-01 0.26427528E+03</pdfrwt>
<totfact> 0.94307323E+03</totfact>
</mgrwt>
</event>
<event>
 5    0  0.1829809E+000  0.4740015E+03  0.7546771E-02  0.1020797E+00
         21   -1    0    0  502  501  0.00000000000E+00  0.00000000000E+00  0.13049422934E+04  0.13049422934E+04  0.00000000000E+00 0.  1.
         21   -1    0    0  503  502 -0.00000000000E+00 -0.00000000000E+00 -0.29253836120E+03  0.29253836120E+03  0.00000000000E+00 0.  1.
         25    1    1    2    0    0 -0.67853260676E+02  0.46769565899E+03  0.97857170718E+03  0.10938788235E+04  0.12500000000E+03 0.  0.
         21    1    1    2  503  504 -0.15217773033E+02 -0.21378442415E+02  0.42025660727E+02  0.49545681706E+02  0.00000000000E+00 0. -1.
         21    1    1    2  504  501  0.83071033709E+02 -0.44631721657E+03 -0.81934356598E+01  0.45405614943E+03  0.00000000000E+00 0.  1.
<mgrwt>
<rscale>  4 0.47400152E+03</rscale>
<asrwt>0</asrwt>
<pdfrwt beam="1">  1       21 0.20076035E+00 0.47400152E+03</pdfrwt>
<pdfrwt beam="2">  1       21 0.45005903E-01 0.47400152E+03</pdfrwt>
<totfact> 0.51218216E+02</totfact>
</mgrwt>
</event>
<event>
 5    0  0.1829809E+000  0.2519682E+03  0.7546771E-02  0.1112067E+00
         21   -1    0    0  502  501  0.00000000000E+00  0.00000000000E+00  0.14540717657E+04  0.14540717657E+04  0.00000000000E+00 0.  1.
         21   -1    0    0  503  502 -0.00000000000E+00 -0.00000000000E+00 -0.58795271572E+02  0.58795271572E+02  0.00000000000E+00 0. -1.
         25    1    1    2    0    0 -0.18085356121E+03  0.12310554211E+03  0.11362370406E+04  0.11638395927E+04  0.12500000000E+03 0.  0.
         21    1    1    2  503  504  0.74601076403E+02 -0.35979524608E+02  0.15826737117E+03  0.17862924612E+03  0.00000000000E+00 0.  1.
         21    1    1    2  504  501  0.10625248480E+03 -0.87126017504E+02  0.10077208235E+03  0.17039819844E+03  0.00000000000E+00 0. -1.
<mgrwt>
<rscale>  4 0.25196822E+03</rscale>
<asrwt>0</asrwt>
<pdfrwt beam="1">  1       21 0.22370332E+00 0.25196822E+03</pdfrwt>
<pdfrwt beam="2">  1       21 0.90454274E-02 0.25196822E+03</pdfrwt>
<totfact> 0.88124410E+03</totfact>
</mgrwt>
</event>
<event>
 5    0  0.1829809E+000  0.2867178E+03  0.7546771E-02  0.1092075E+00
         21   -1    0    0  502  501  0.00000000000E+00  0.00000000000E+00  0.28725038054E+03  0.28725038054E+03  0.00000000000E+00 0. -1.
         21   -1    0    0  503  502 -0.00000000000E+00 -0.00000000000E+00 -0.52194717349E+03  0.52194717349E+03  0.00000000000E+00 0.  1.
         25    1    1    2    0    0 -0.19895518210E+03 -0.16431347137E+03  0.16290157390E+03  0.32976355793E+03  0.12500000000E+03 0.  0.
         21    1    1    2  503  504  0.17755870920E+03  0.14115444812E+03 -0.38196790675E+03  0.44424222585E+03  0.00000000000E+00 0.  1.
         21    1    1    2  504  501  0.21396472901E+02  0.23159023251E+02 -0.15630460102E+02  0.35191770253E+02  0.00000000000E+00 0.  1.
<mgrwt>
<rscale>  4 0.28671777E+03</rscale>
<asrwt>0</asrwt>
<pdfrwt beam="1">  1       21 0.44192366E-01 0.28671777E+03</pdfrwt>
<pdfrwt beam="2">  1       21 0.80299565E-01 0.28671777E+03</pdfrwt>
<totfact> 0.63220982E+03</totfact>
</mgrwt>
</event>
<event>
 5    0  0.1829809E+000  0.3085357E+03  0.7546771E-02  0.1081050E+00
         21   -1    0    0  502  501  0.00000000000E+00  0.00000000000E+00  0.19741622478E+04  0.19741622478E+04  0.00000000000E+00 0. -1.
         21   -1    0    0  503  502 -0.00000000000E+00 -0.00000000000E+00 -0.46619317448E+02  0.46619317448E+02  0.00000000000E+00 0. -1.
         25    1    1    2    0    0 -0.24820426438E+03  0.13402953527E+03  0.11750087956E+04  0.12148415299E+04  0.12500000000E+03 0.  0.
         21    1    1    2  503  504  0.15639243976E+03 -0.94208305608E+02  0.55903752916E+03  0.58809587575E+03  0.00000000000E+00 0. -1.
         21    1    1    2  504  501  0.91811824613E+02 -0.39821229664E+02  0.19349660560E+03  0.21784415955E+03  0.00000000000E+00 0. -1.
<mgrwt>
<rscale>  4 0.30853569E+03</rscale>
<asrwt>0</asrwt>
<pdfrwt beam="1">  1       21 0.30371720E+00 0.30853569E+03</pdfrwt>
<pdfrwt beam="2">  1       21 0.71722042E-02 0.30853569E+03</pdfrwt>
<totfact> 0.42338990E+03</totfact>
</mgrwt>
</event>
<event>
 5    0  0.1829809E+000  0.2919206E+03  0.7546771E-02  0.1089351E+00
         21   -1    0    0  502  501  0.00000000000E+00  0.00000000000E+00  0.53209700800E+03  0.53209700800E+03  0.00000000000E+00 0. -1.
         21   -1    0    0  503  502 -0.00000000000E+00 -0.00000000000E+00 -0.22450100276E+03  0.22450100276E+03  0.00000000000E+00 0. -1.
         25    1    1    2    0    0 -0.25809675668E+03  0.54577317854E+02  0.37865483955E+03  0.47811829807E+03  0.12500000000E+03 0.  0.
         21    1    1    2  503  504  0.20718258998E+02 -0.13937736382E+02  0.58858884441E+01  0.25654442775E+02  0.00000000000E+00 0. -1.
         21    1    1    2  504  501  0.23737849768E+03 -0.40639581472E+02 -0.76944722762E+02  0.25282526991E+03  0.00000000000E+00 0. -1.
<mgrwt>
<rscale>  4 0.29192057E+03</rscale>
<asrwt>0</asrwt>
<pdfrwt beam="1">  1       21 0.81861078E-01 0.29192057E+03</pdfrwt>
<pdfrwt beam="2">  1       21 0.34538616E-01 0.29192057E+03</pdfrwt>
<totfact> 0.99608365E+03</totfact>
</mgrwt>
</event>
<event>
 5    0  0.1829809E+000  0.2663775E+03  0.7546771E-02  0.1103371E+00
         21   -1    0    0  502  501  0.00000000000E+00  0.00000000000E+00  0.96075676570E+02  0.96075676570E+02  0.00000000000E+00 0.  1.
         21   -1    0    0  503  502 -0.00000000000E+00 -0.00000000000E+00 -0.67670892953E+03  0.67670892953E+03  0.00000000000E+00 0.  1.
         25    1    1    2    0    0 -0.43172761902E+02 -0.23123164024E+03 -0.33910995411E+03  0.43122212350E+03  0.12500000000E+03 0.  0.
         21    1    1    2  503  504  0.24097203536E+02  0.11675748443E+03 -0.16089497639E+03  0.20025029043E+03  0.00000000000E+00 0.  1.
         21    1    1    2  504  501  0.19075558365E+02  0.11447415581E+03 -0.80628322462E+02  0.14131219218E+03  0.00000000000E+00 0.  1.
<mgrwt>
<rscale>  4 0.26637747E+03</rscale>
<asrwt>0</asrwt>
<pdfrwt beam="1">  1       21 0.14780874E-01 0.26637747E+03</pdfrwt>
<pdfrwt beam="2">  1       21 0.10410906E+00 0.26637747E+03</pdfrwt>
<totfact> 0.28937264E+04</totfact>
</mgrwt>
</event>
<event>
 5    0  0.1829809E+000  0.5072709E+03  0.7546771E-02  0.1011898E+00
         21   -1    0    0  502  501  0.00000000000E+00  0.00000000000E+00  0.23978593793E+03  0.23978593793E+03  0.00000000000E+00 0. -1.
         21   -1    0    0  503  502 -0.00000000000E+00 -0.00000000000E+00 -0.12484979508E+04  0.12484979508E+04  0.00000000000E+00 0.  1.
         25    1    1    2    0    0  0.59571141230E+02 -0.48800621043E+03 -0.21393659029E+03  0.55053850633E+03  0.12500000000E+03 0.  0.
         21    1    1    2  503  504 -0.24274094555E+02  0.42160146778E+03 -0.68372189779E+03  0.80362470272E+03  0.00000000000E+00 0.  1.
         21    1    1    2  504  501 -0.35297046675E+02  0.66404742650E+02 -0.11105352482E+03  0.13412067971E+03  0.00000000000E+00 0. -1.
<mgrwt>
<rscale>  4 0.50727092E+03</rscale>
<asrwt>0</asrwt>
<pdfrwt beam="1">  1       21 0.36890145E-01 0.50727092E+03</pdfrwt>
<pdfrwt beam="2">  1       21 0.19207661E+00 0.50727092E+03</pdfrwt>
<totfact> 0.87205990E+02</totfact>
</mgrwt>
</event>
<event>
 5    0  0.1829809E+000  0.3479656E+03  0.7546771E-02  0.1063453E+00
         21   -1    0    0  502  501  0.00000000000E+00  0.00000000000E+00  0.15568653696E+04  0.15568653696E+04  0.00000000000E+00 0. -1.
         21   -1    0    0  503  502 -0.00000000000E+00 -0.00000000000E+00 -0.10199641119E+03  0.10199641119E+03  0.00000000000E+00 0. -1.
         25    1    1    2    0    0 -0.27588207131E+03  0.17130139763E+03  0.11583046364E+04  0.12094419030E+04  0.12500000000E+03 0.  0.
         21    1    1    2  503  504  0.14795700407E+03 -0.13718554223E+03  0.14678496760E+03  0.24951347611E+03  0.00000000000E+00 0. -1.
         21    1    1    2  504  501  0.12792506724E+03 -0.34115855402E+02  0.14977935444E+03  0.19990640168E+03  0.00000000000E+00 0. -1.
<mgrwt>
<rscale>  4 0.34796564E+03</rscale>
<asrwt>0</asrwt>
<pdfrwt beam="1">  1       21 0.23951773E+00 0.34796564E+03</pdfrwt>
<pdfrwt beam="2">  1       21 0.15691757E-01 0.34796564E+03</pdfrwt>
<totfact> 0.24455774E+03</totfact>
</mgrwt>
</event>
<event>
 5    0  0.1829809E+000  0.1961382E+03  0.7546771E-02  0.1153039E+00
         21   -1    0    0  502  501  0.00000000000E+00  0.00000000000E+00  0.43535851247E+03  0.43535851247E+03  0.00000000000E+00 0. -1.
         21   -1    0    0  503  502 -0.00000000000E+00 -0.00000000000E+00 -0.24924375210E+03  0.24924375210E+03  0.00000000000E+00 0. -1.
         25    1    1    2    0    0  0.21192225435E+03  0.15010994145E+03 -0.52897521249E+02  0.29303102935E+03  0.12500000000E+03 0.  0.
         21    1    1    2  503  504 -0.11653046308E+03 -0.75930336108E+02  0.23203887421E+03  0.27053059700E+03  0.00000000000E+00 0. -1.
         21    1    1    2  504  501 -0.95391791266E+02 -0.74179605339E+02  0.69734074062E+01  0.12104063822E+03  0.00000000000E+00 0. -1.
<mgrwt>
<rscale>  4 0.19613822E+03</rscale>
<asrwt>0</asrwt>
<pdfrwt beam="1">  1       21 0.66978233E-01 0.19613822E+03</pdfrwt>
<pdfrwt beam="2">  1       21 0.38345193E-01 0.19613822E+03</pdfrwt>
<totfact> 0.13358776E+04</totfact>
</mgrwt>
</event>
<event>
 5    0  0.1829809E+000  0.2392677E+03  0.7546771E-02  0.1120282E+00
         21   -1    0    0  502  501  0.00000000000E+00  0.00000000000E+00  0.12187668855E+04  0.12187668855E+04  0.00000000000E+00 0.  1.
         21   -1    0    0  503  502 -0.00000000000E+00 -0.00000000000E+00 -0.70307222765E+02  0.70307222765E+02  0.00000000000E+00 0. -1.
         25    1    1    2    0    0  0.20365031873E+03  0.12271110513E+02  0.10084470324E+04  0.10364431724E+04  0.12500000000E+03 0.  0.
         21    1    1    2  503  504 -0.14465361773E+03  0.13844346779E+02  0.10447029515E+03  0.17897032612E+03  0.00000000000E+00 0. -1.
         21    1    1    2  504  501 -0.58996701000E+02 -0.26115457292E+02  0.35542335193E+02  0.73660609754E+02  0.00000000000E+00 0. -1.
<mgrwt>
<rscale>  4 0.23926770E+03</rscale>
<asrwt>0</asrwt>
<pdfrwt beam="1">  1       21 0.18750258E+00 0.23926770E+03</pdfrwt>
<pdfrwt beam="2">  1       21 0.10816497E-01 0.23926770E+03</pdfrwt>
<totfact> 0.11050119E+04</totfact>
</mgrwt>
</event>
<event>
 5    0  0.1829809E+000  0.2363334E+03  0.7546771E-02  0.1122260E+00
         21   -1    0    0  502  501  0.00000000000E+00  0.00000000000E+00  0.47816879804E+02  0.47816879804E+02  0.00000000000E+00 0.  1.
         21   -1    0    0  503  502 -0.00000000000E+00 -0.00000000000E+00 -0.13145292156E+04  0.13145292156E+04  0.00000000000E+00 0. -1.
         25    1    1    2    0    0  0.19689626188E+03  0.38214436637E+02 -0.34876092320E+03  0.42129284667E+03  0.12500000000E+03 0.  0.
         21    1    1    2  503  504 -0.17514796934E+03 -0.36548013342E+02 -0.87227595765E+03  0.89043692350E+03  0.00000000000E+00 0. -1.
         21    1    1    2  504  501 -0.21748292539E+02 -0.16664232954E+01 -0.45675454955E+02  0.50616325235E+02  0.00000000000E+00 0. -1.
<mgrwt>
<rscale>  4 0.23633341E+03</rscale>
<asrwt>0</asrwt>
<pdfrwt beam="1">  1       21 0.73564441E-02 0.23633341E+03</pdfrwt>
<pdfrwt beam="2">  1       21 0.20223523E+00 0.23633341E+03</pdfrwt>
<totfact> 0.17470488E+04</totfact>
</mgrwt>
</event>
<event>
 5    0  0.1829809E+000  0.3302825E+03  0.7546771E-02  0.1071012E+00
         21   -1    0    0  502  501  0.00000000000E+00  0.00000000000E+00  0.35589283383E+04  0.35589283383E+04  0.00000000000E+00 0.  1.
         21   -1    0    0  503  502 -0.00000000000E+00 -0.00000000000E+00 -0.55685895356E+02  0.55685895356E+02  0.00000000000E+00 0. -1.
         25    1    1    2    0    0 -0.10888787539E+03  0.28566585252E+03  0.30354128659E+04  0.30533289727E+04  0.12500000000E+03 0.  0.
         21    1    1    2  503  504  0.38902931607E+01 -0.26062920248E+02  0.69873348178E+02  0.74677272167E+02  0.00000000000E+00 0. -1.
         21    1    1    2  504  501  0.10499758223E+03 -0.25960293227E+03  0.39795622888E+03  0.48660798886E+03  0.00000000000E+00 0. -1.
<mgrwt>
<rscale>  4 0.33028253E+03</rscale>
<asrwt>0</asrwt>
<pdfrwt beam="1">  1       21 0.54752726E+00 0.33028253E+03</pdfrwt>
<pdfrwt beam="2">  1       21 0.85670636E-02 0.33028253E+03</pdfrwt>
<totfact> 0.75710802E+01</totfact>
</mgrwt>
</event>
<event>
 5    0  0.1829809E+000  0.4027773E+03  0.7546771E-02  0.1042822E+00
         21   -1    0    0  502  501  0.00000000000E+00  0.00000000000E+00  0.16406264109E+04  0.16406264109E+04  0.00000000000E+00 0. -1.
         21   -1    0    0  503  502 -0.00000000000E+00 -0.00000000000E+00 -0.50974394451E+03  0.50974394451E+03  0.00000000000E+00 0. -1.
         25    1    1    2    0    0 -0.41537436240E+02 -0.38557734296E+03  0.15036046790E+04  0.15578341622E+04  0.12500000000E+03 0.  0.
         21    1    1    2  503  504  0.19283782470E+02  0.30084785751E+03 -0.39991226645E+03  0.50081046165E+03  0.00000000000E+00 0. -1.
         21    1    1    2  504  501  0.22253653771E+02  0.84729485454E+02  0.27190053829E+02  0.91725731606E+02  0.00000000000E+00 0.  1.
<mgrwt>
<rscale>  4 0.40277727E+03</rscale>
<asrwt>0</asrwt>
<pdfrwt beam="1">  1       21 0.25240406E+00 0.40277727E+03</pdfrwt>
<pdfrwt beam="2">  1       21 0.78422146E-01 0.40277727E+03</pdfrwt>
<totfact> 0.74444738E+01</totfact>
</mgrwt>
</event>
<event>
 5    0  0.1829809E+000  0.2539345E+03  0.7546771E-02  0.1110843E+00
         21   -1    0    0  502  501  0.00000000000E+00  0.00000000000E+00  0.14674083419E+04  0.14674083419E+04  0.00000000000E+00 0.  1.
         21   -1    0    0  503  502 -0.00000000000E+00 -0.00000000000E+00 -0.64742255512E+02  0.64742255512E+02  0.00000000000E+00 0.  1.
         25    1    1    2    0    0 -0.21831572078E+03  0.34582813421E+02  0.24796310718E+03  0.35492031141E+03  0.12500000000E+03 0.  0.
         21    1    1    2  503  504  0.15185941326E+03 -0.51542359470E+02  0.83322348986E+03  0.84851592812E+03  0.00000000000E+00 0.  1.
         21    1    1    2  504  501  0.66456307525E+02  0.16959546048E+02  0.32147948933E+03  0.32871435787E+03  0.00000000000E+00 0.  1.
<mgrwt>
<rscale>  4 0.25393449E+03</rscale>
<asrwt>0</asrwt>
<pdfrwt beam="1">  1       21 0.22575510E+00 0.25393449E+03</pdfrwt>
<pdfrwt beam="2">  1       21 0.99603482E-02 0.25393449E+03</pdfrwt>
<totfact> 0.72062144E+03</totfact>
</mgrwt>
</event>
<event>
 5    0  0.1829809E+000  0.2387237E+03  0.7546771E-02  0.1120646E+00
         21   -1    0    0  502  501  0.00000000000E+00  0.00000000000E+00  0.18124805312E+03  0.18124805312E+03  0.00000000000E+00 0. -1.
         21   -1    0    0  503  502 -0.00000000000E+00 -0.00000000000E+00 -0.28310763638E+03  0.28310763638E+03  0.00000000000E+00 0.  1.
         25    1    1    2    0    0 -0.18957471198E+03  0.73657402942E+02 -0.22572657223E+02  0.23978846779E+03  0.12500000000E+03 0.  0.
         21    1    1    2  503  504  0.13435152761E+03 -0.26586734556E+02 -0.43783744569E+02  0.14378526946E+03  0.00000000000E+00 0.  1.
         21    1    1    2  504  501  0.55223184371E+02 -0.47070668385E+02 -0.35503181474E+02  0.80781952249E+02  0.00000000000E+00 0.  1.
<mgrwt>
<rscale>  4 0.23872366E+03</rscale>
<asrwt>0</asrwt>
<pdfrwt beam="1">  1       21 0.27884316E-01 0.23872366E+03</pdfrwt>
<pdfrwt beam="2">  1       21 0.43555021E-01 0.23872366E+03</pdfrwt>
<totfact> 0.60994374E+04</totfact>
</mgrwt>
</event>
<event>
 5    0  0.1829809E+000  0.2753269E+03  0.7546771E-02  0.1098269E+00
         21   -1    0    0  502  501  0.00000000000E+00  0.00000000000E+00  0.25034160222E+03  0.25034160222E+03  0.00000000000E+00 0. -1.
         21   -1    0    0  503  502 -0.00000000000E+00 -0.00000000000E+00 -0.10567197907E+04  0.10567197907E+04  0.00000000000E+00 0. -1.
         25    1    1    2    0    0  0.23769478887E+03 -0.64278914798E+02  0.14201192934E+03  0.31052049790E+03  0.12500000000E+03 0.  0.
         21    1    1    2  503  504 -0.22159920481E+03  0.93427074691E+02 -0.59760426262E+03  0.64417829873E+03  0.00000000000E+00 0. -1.
         21    1    1    2  504  501 -0.16095584060E+02 -0.29148159893E+02 -0.35078585516E+03  0.35236259624E+03  0.00000000000E+00 0. -1.
<mgrwt>
<rscale>  4 0.27532689E+03</rscale>
<asrwt>0</asrwt>
<pdfrwt beam="1">  1       21 0.38514092E-01 0.27532689E+03</pdfrwt>
<pdfrwt beam="2">  1       21 0.16257228E+00 0.27532689E+03</pdfrwt>
<totfact> 0.14598278E+03</totfact>
</mgrwt>
</event>
<event>
 5    0  0.1829809E+000  0.2545419E+03  0.7546771E-02  0.1110468E+00
         21   -1    0    0  502  501  0.00000000000E+00  0.00000000000E+00  0.43085288464E+03  0.43085288464E+03  0.00000000000E+00 0.  1.
         21   -1    0    0  503  502 -0.00000000000E+00 -0.00000000000E+00 -0.14581209001E+03  0.14581209001E+03  0.00000000000E+00 0.  1.
         25    1    1    2    0    0 -0.12145556863E+03 -0.18551319008E+03  0.67852899512E+02  0.26343047435E+03  0.12500000000E+03 0.  0.
         21    1    1    2  503  504  0.11509377195E+03  0.16589673665E+03  0.17899017207E+03  0.26982547187E+03  0.00000000000E+00 0.  1.
         21    1    1    2  504  501  0.63617966803E+01  0.19616453426E+02  0.38197723045E+02  0.43409028414E+02  0.00000000000E+00 0.  1.
<mgrwt>
<rscale>  4 0.25454194E+03</rscale>
<asrwt>0</asrwt>
<pdfrwt beam="1">  1       21 0.66285059E-01 0.25454194E+03</pdfrwt>
<pdfrwt beam="2">  1       21 0.22432629E-01 0.25454194E+03</pdfrwt>
<totfact> 0.37733473E+04</totfact>
</mgrwt>
</event>
<event>
 5    0  0.1829809E+000  0.2652760E+03  0.7546771E-02  0.1104014E+00
         21   -1    0    0  502  501  0.00000000000E+00  0.00000000000E+00  0.45770456571E+03  0.45770456571E+03  0.00000000000E+00 0. -1.
         21   -1    0    0  503  502 -0.00000000000E+00 -0.00000000000E+00 -0.21576270983E+03  0.21576270983E+03  0.00000000000E+00 0.  1.
         25    1    1    2    0    0 -0.16225137199E+03 -0.16858485740E+03  0.32538433040E+03  0.41981701291E+03  0.12500000000E+03 0.  0.
         21    1    1    2  503  504  0.13038956318E+03  0.13674746168E+03 -0.87890221464E+02  0.20838905320E+03  0.00000000000E+00 0.  1.
         21    1    1    2  504  501  0.31861808806E+02  0.31837395721E+02  0.44477469430E+01  0.45261209435E+02  0.00000000000E+00 0.  1.
<mgrwt>
<rscale>  4 0.26527601E+03</rscale>
<asrwt>0</asrwt>
<pdfrwt beam="1">  1       21 0.70416087E-01 0.26527601E+03</pdfrwt>
<pdfrwt beam="2">  1       21 0.33194263E-01 0.26527601E+03</pdfrwt>
<totfact> 0.15345794E+04</totfact>
</mgrwt>
</event>
<event>
 5    0  0.1829809E+000  0.6205313E+03  0.7546771E-02  0.9863703E-01
         21   -1    0    0  502  501  0.00000000000E+00  0.00000000000E+00  0.89525802806E+03  0.89525802806E+03  0.00000000000E+00 0. -1.
         21   -1    0    0  503  502 -0.00000000000E+00 -0.00000000000E+00 -0.56425675371E+03  0.56425675371E+03  0.00000000000E+00 0. -1.
         25    1    1    2    0    0 -0.57695652744E+03 -0.29461434516E+03 -0.38292305979E+02  0.66088406520E+03  0.12500000000E+03 0.  0.
         21    1    1    2  503  504  0.49287685684E+03  0.26341292532E+03  0.17660074920E+03  0.58609025742E+03  0.00000000000E+00 0. -1.
         21    1    1    2  504  501  0.84079670605E+02  0.31201419844E+02  0.19269283113E+03  0.21254045915E+03  0.00000000000E+00 0. -1.
<mgrwt>
<rscale>  4 0.62053126E+03</rscale>
<asrwt>0</asrwt>
<pdfrwt beam="1">  1       21 0.13773200E+00 0.62053126E+03</pdfrwt>
<pdfrwt beam="2">  1       21 0.86808731E-01 0.62053126E+03</pdfrwt>
<totfact> 0.32965465E+02</totfact>
</mgrwt>
</event>
<event>
 5    0  0.1829809E+000  0.2573608E+03  0.7546771E-02  0.1108739E+00
         21   -1    0    0  502  501  0.00000000000E+00  0.00000000000E+00  0.11797534130E+03  0.11797534130E+03  0.00000000000E+00 0.  1.
         21   -1    0    0  503  502 -0.00000000000E+00 -0.00000000000E+00 -0.58699889607E+03  0.58699889607E+03  0.00000000000E+00 0.  1.
         25    1    1    2    0    0  0.13344722854E+03 -0.18513775050E+03 -0.14103765339E+03  0.29597427108E+03  0.12500000000E+03 0.  0.
         21    1    1    2  503  504  0.12742971009E+02  0.19771539996E+02 -0.35254309526E+02  0.42381168508E+02  0.00000000000E+00 0.  1.
         21    1    1    2  504  501 -0.14619019955E+03  0.16536621050E+03 -0.29273159186E+03  0.36661879779E+03  0.00000000000E+00 0.  1.
<mgrwt>
<rscale>  4 0.25736081E+03</rscale>
<asrwt>0</asrwt>
<pdfrwt beam="1">  1       21 0.18150053E-01 0.25736081E+03</pdfrwt>
<pdfrwt beam="2">  1       21 0.90307521E-01 0.25736081E+03</pdfrwt>
<totfact> 0.27874474E+04</totfact>
</mgrwt>
</event>
<event>
 5    0  0.1829809E+000  0.2421265E+03  0.7546771E-02  0.1118384E+00
         21   -1    0    0  502  501  0.00000000000E+00  0.00000000000E+00  0.51370849626E+03  0.51370849626E+03  0.00000000000E+00 0.  1.
         21   -1    0    0  503  502 -0.00000000000E+00 -0.00000000000E+00 -0.64411963320E+03  0.64411963320E+03  0.00000000000E+00 0. -1.
         25    1    1    2    0    0 -0.20533612258E+03  0.70412727848E+02  0.45222755816E+03  0.51696773578E+03  0.12500000000E+03 0.  0.
         21    1    1    2  503  504  0.71073625740E+02 -0.13059525847E+02 -0.40274291129E+03  0.40917461319E+03  0.00000000000E+00 0. -1.
         21    1    1    2  504  501  0.13426249684E+03 -0.57353202001E+02 -0.17989578382E+03  0.23168578047E+03  0.00000000000E+00 0.  1.
<mgrwt>
<rscale>  4 0.24212649E+03</rscale>
<asrwt>0</asrwt>
<pdfrwt beam="1">  1       21 0.79032076E-01 0.24212649E+03</pdfrwt>
<pdfrwt beam="2">  1       21 0.99095328E-01 0.24212649E+03</pdfrwt>
<totfact> 0.11341900E+03</totfact>
</mgrwt>
</event>
<event>
 5    0  0.1829809E+000  0.2301814E+03  0.7546771E-02  0.1126512E+00
         21   -1    0    0  502  501  0.00000000000E+00  0.00000000000E+00  0.19153495739E+04  0.19153495739E+04  0.00000000000E+00 0. -1.
         21   -1    0    0  503  502 -0.00000000000E+00 -0.00000000000E+00 -0.17406855103E+03  0.17406855103E+03  0.00000000000E+00 0. -1.
         25    1    1    2    0    0  0.19608922584E+02 -0.23350408251E+03  0.17497696244E+04  0.17698099912E+04  0.12500000000E+03 0.  0.
         21    1    1    2  503  504  0.46187230278E+01  0.19191204498E+03 -0.99819972288E+02  0.21636911166E+03  0.00000000000E+00 0. -1.
         21    1    1    2  504  501 -0.24227645612E+02  0.41592037532E+02  0.91331370760E+02  0.10323902209E+03  0.00000000000E+00 0.  1.
<mgrwt>
<rscale>  4 0.23018138E+03</rscale>
<asrwt>0</asrwt>
<pdfrwt beam="1">  1       21 0.29466915E+00 0.23018138E+03</pdfrwt>
<pdfrwt beam="2">  1       21 0.26779778E-01 0.23018138E+03</pdfrwt>
<totfact> 0.46275733E+02</totfact>
</mgrwt>
</event>
<event>
 5    0  0.1829809E+000  0.3120298E+03  0.7546771E-02  0.1079377E+00
         21   -1    0    0  502  501  0.00000000000E+00  0.00000000000E+00  0.14626180778E+03  0.14626180778E+03  0.00000000000E+00 0.  1.
         21   -1    0    0  503  502 -0.00000000000E+00 -0.00000000000E+00 -0.86114924988E+03  0.86114924988E+03  0.00000000000E+00 0.  1.
         25    1    1    2    0    0  0.25075242674E+03 -0.15869956684E+03 -0.14031304130E+03  0.35124789193E+03  0.12500000000E+03 0.  0.
         21    1    1    2  503  504 -0.22894403268E+03  0.16566507120E+03 -0.56422469490E+03  0.63103866146E+03  0.00000000000E+00 0.  1.
         21    1    1    2  504  501 -0.21808394058E+02 -0.69655043668E+01 -0.10349705902E+02  0.25124504268E+02  0.00000000000E+00 0.  1.
<mgrwt>
<rscale>  4 0.31202978E+03</rscale>
<asrwt>0</asrwt>
<pdfrwt beam="1">  1       21 0.22501816E-01 0.31202978E+03</pdfrwt>
<pdfrwt beam="2">  1       21 0.13248450E+00 0.31202978E+03</pdfrwt>
<totfact> 0.70802087E+03</totfact>
</mgrwt>
</event>
<event>
 5    0  0.1829809E+000  0.2290280E+03  0.7546771E-02  0.1127326E+00
         21   -1    0    0  502  501  0.00000000000E+00  0.00000000000E+00  0.15618473907E+03  0.15618473907E+03  0.00000000000E+00 0. -1.
         21   -1    0    0  503  502 -0.00000000000E+00 -0.00000000000E+00 -0.73914890290E+03  0.73914890290E+03  0.00000000000E+00 0. -1.
         25    1    1    2    0    0  0.19493647308E+03 -0.73131561688E+02  0.26963089571E+02  0.24433677998E+03  0.12500000000E+03 0.  0.
         21    1    1    2  503  504 -0.12982340193E+02  0.17849102437E+02 -0.15708678679E+02  0.27090481733E+02  0.00000000000E+00 0. -1.
         21    1    1    2  504  501 -0.18195413288E+03  0.55282459252E+02 -0.59421857473E+03  0.62390638026E+03  0.00000000000E+00 0. -1.
<mgrwt>
<rscale>  4 0.22902803E+03</rscale>
<asrwt>0</asrwt>
<pdfrwt beam="1">  1       21 0.24028421E-01 0.22902803E+03</pdfrwt>
<pdfrwt beam="2">  1       21 0.11371522E+00 0.22902803E+03</pdfrwt>
<totfact> 0.96001914E+03</totfact>
</mgrwt>
</event>
<event>
 5    0  0.1829809E+000  0.2428943E+03  0.7546771E-02  0.1117880E+00
         21   -1    0    0  502  501  0.00000000000E+00  0.00000000000E+00  0.39954206099E+03  0.39954206099E+03  0.00000000000E+00 0. -1.
         21   -1    0    0  503  502 -0.00000000000E+00 -0.00000000000E+00 -0.33199321216E+03  0.33199321216E+03  0.00000000000E+00 0.  1.
         25    1    1    2    0    0  0.37499709377E+02  0.20485708737E+03  0.32068557135E+03  0.40228956004E+03  0.12500000000E+03 0.  0.
         21    1    1    2  503  504 -0.26035817801E+02 -0.18209249731E+03 -0.23240305411E+03  0.29638947509E+03  0.00000000000E+00 0.  1.
         21    1    1    2  504  501 -0.11463891576E+02 -0.22764590058E+02 -0.20733668405E+02  0.32856238009E+02  0.00000000000E+00 0.  1.
<mgrwt>
<rscale>  4 0.24289433E+03</rscale>
<asrwt>0</asrwt>
<pdfrwt beam="1">  1       21 0.61468009E-01 0.24289433E+03</pdfrwt>
<pdfrwt beam="2">  1       21 0.51075879E-01 0.24289433E+03</pdfrwt>
<totfact> 0.86777924E+03</totfact>
</mgrwt>
</event>
<event>
 5    0  0.1829809E+000  0.4826954E+03  0.7546771E-02  0.1018397E+00
         21   -1    0    0  502  501  0.00000000000E+00  0.00000000000E+00  0.18908413269E+04  0.18908413269E+04  0.00000000000E+00 0.  1.
         21   -1    0    0  503  502 -0.00000000000E+00 -0.00000000000E+00 -0.25919977144E+04  0.25919977144E+04  0.00000000000E+00 0.  1.
         25    1    1    2    0    0  0.31867310377E+03 -0.34215694720E+03  0.18197013663E+04  0.18829662732E+04  0.12500000000E+03 0.  0.
         21    1    1    2  503  504 -0.20680103207E+03  0.30383967594E+03 -0.24097315928E+04  0.24375995498E+04  0.00000000000E+00 0.  1.
         21    1    1    2  504  501 -0.11187207170E+03  0.38317271255E+02 -0.11112616098E+03  0.16227321824E+03  0.00000000000E+00 0. -1.
<mgrwt>
<rscale>  4 0.48269538E+03</rscale>
<asrwt>0</asrwt>
<pdfrwt beam="1">  1       21 0.29089867E+00 0.48269538E+03</pdfrwt>
<pdfrwt beam="2">  1       21 0.39876888E+00 0.48269538E+03</pdfrwt>
<totfact> 0.20927035E-01</totfact>
</mgrwt>
</event>
<event>
 5    0  0.1829809E+000  0.2175461E+03  0.7546771E-02  0.1135726E+00
         21   -1    0    0  502  501  0.00000000000E+00  0.00000000000E+00  0.24910986107E+04  0.24910986107E+04  0.00000000000E+00 0.  1.
         21   -1    0    0  503  502 -0.00000000000E+00 -0.00000000000E+00 -0.26380550593E+02  0.26380550593E+02  0.00000000000E+00 0.  1.
         25    1    1    2    0    0 -0.15665371850E+03 -0.14022103352E+03  0.14773625918E+04  0.14974737238E+04  0.12500000000E+03 0.  0.
         21    1    1    2  503  504  0.16170255684E+02  0.68596938194E+02  0.12632713810E+03  0.14465670713E+03  0.00000000000E+00 0.  1.
         21    1    1    2  504  501  0.14048346282E+03  0.71624095327E+02  0.86102833019E+03  0.87534873037E+03  0.00000000000E+00 0.  1.
<mgrwt>
<rscale>  4 0.21754610E+03</rscale>
<asrwt>0</asrwt>
<pdfrwt beam="1">  1       21 0.38324576E+00 0.21754610E+03</pdfrwt>
<pdfrwt beam="2">  1       21 0.40585482E-02 0.21754610E+03</pdfrwt>
<totfact> 0.40928679E+03</totfact>
</mgrwt>
</event>
<event>
 5    0  0.1829809E+000  0.4008900E+03  0.7546771E-02  0.1043472E+00
         21   -1    0    0  502  501  0.00000000000E+00  0.00000000000E+00  0.13203565841E+04  0.13203565841E+04  0.00000000000E+00 0.  1.
         21   -1    0    0  503  502 -0.00000000000E+00 -0.00000000000E+00 -0.12311908642E+03  0.12311908642E+03  0.00000000000E+00 0. -1.
         25    1    1    2    0    0 -0.76775753859E+02 -0.37308612092E+03  0.48190940154E+03  0.62685679489E+03  0.12500000000E+03 0.  0.
         21    1    1    2  503  504  0.83783675761E+02  0.33481580284E+03  0.68588298794E+03  0.76782602151E+03  0.00000000000E+00 0. -1.
         21    1    1    2  504  501 -0.70079219022E+01  0.38270318084E+02  0.29445108181E+02  0.48792854102E+02  0.00000000000E+00 0. -1.
<mgrwt>
<rscale>  4 0.40088997E+03</rscale>
<asrwt>0</asrwt>
<pdfrwt beam="1">  1       21 0.20313177E+00 0.40088997E+03</pdfrwt>
<pdfrwt beam="2">  1       21 0.18941399E-01 0.40088997E+03</pdfrwt>
<totfact> 0.28447610E+03</totfact>
</mgrwt>
</event>
<event>
 5    0  0.1829809E+000  0.4198727E+03  0.7546771E-02  0.1037108E+00
         21   -1    0    0  502  501  0.00000000000E+00  0.00000000000E+00  0.55736532614E+03  0.55736532614E+03  0.00000000000E+00 0. -1.
         21   -1    0    0  503  502 -0.00000000000E+00 -0.00000000000E+00 -0.30809483640E+03  0.30809483640E+03  0.00000000000E+00 0. -1.
         25    1    1    2    0    0 -0.51136762727E+02 -0.39755899210E+03  0.17895977785E+03  0.45642055474E+03  0.12500000000E+03 0.  0.
         21    1    1    2  503  504 -0.46554121652E+01  0.21929001389E+02  0.99298089107E+01  0.24518463846E+02  0.00000000000E+00 0. -1.
         21    1    1    2  504  501  0.55792174892E+02  0.37562999071E+03  0.60380902969E+02  0.38452114395E+03  0.00000000000E+00 0. -1.
<mgrwt>
<rscale>  4 0.41987274E+03</rscale>
<asrwt>0</asrwt>
<pdfrwt beam="1">  1       21 0.85748512E-01 0.41987274E+03</pdfrwt>
<pdfrwt beam="2">  1       21 0.47399206E-01 0.41987274E+03</pdfrwt>
<totfact> 0.44317145E+03</totfact>
</mgrwt>
</event>
<event>
 5    0  0.1829809E+000  0.2366250E+03  0.7546771E-02  0.1122062E+00
         21   -1    0    0  502  501  0.00000000000E+00  0.00000000000E+00  0.10186852843E+03  0.10186852843E+03  0.00000000000E+00 0.  1.
         21   -1    0    0  503  502 -0.00000000000E+00 -0.00000000000E+00 -0.48596786044E+03  0.48596786044E+03  0.00000000000E+00 0. -1.
         25    1    1    2    0    0  0.43678904239E+02  0.19610845341E+03 -0.19906796021E+03  0.30922390748E+03  0.12500000000E+03 0.  0.
         21    1    1    2  503  504 -0.50031445792E+02 -0.15291775384E+03 -0.16539758423E+03  0.23074519687E+03  0.00000000000E+00 0. -1.
         21    1    1    2  504  501  0.63525415533E+01 -0.43190699570E+02 -0.19633787573E+02  0.47867284527E+02  0.00000000000E+00 0.  1.
<mgrwt>
<rscale>  4 0.23662496E+03</rscale>
<asrwt>0</asrwt>
<pdfrwt beam="1">  1       21 0.15672081E-01 0.23662496E+03</pdfrwt>
<pdfrwt beam="2">  1       21 0.74764287E-01 0.23662496E+03</pdfrwt>
<totfact> 0.56841929E+04</totfact>
</mgrwt>
</event>
<event>
 5    0  0.1829809E+000  0.2440448E+03  0.7546771E-02  0.1117127E+00
         21   -1    0    0  502  501  0.00000000000E+00  0.00000000000E+00  0.87796473979E+02  0.87796473979E+02  0.00000000000E+00 0. -1.
         21   -1    0    0  503  502 -0.00000000000E+00 -0.00000000000E+00 -0.64401708178E+03  0.64401708178E+03  0.00000000000E+00 0. -1.
         25    1    1    2    0    0  0.17666769773E+03 -0.11278912016E+03 -0.24913403941E+03  0.34874866400E+03  0.12500000000E+03 0.  0.
         21    1    1    2  503  504 -0.12048014467E+03  0.10761080715E+03 -0.16847320875E+03  0.23340688323E+03  0.00000000000E+00 0. -1.
         21    1    1    2  504  501 -0.56187553066E+02  0.51783130040E+01 -0.13861335964E+03  0.14965800853E+03  0.00000000000E+00 0. -1.
<mgrwt>
<rscale>  4 0.24404479E+03</rscale>
<asrwt>0</asrwt>
<pdfrwt beam="1">  1       21 0.13507150E-01 0.24404479E+03</pdfrwt>
<pdfrwt beam="2">  1       21 0.99079553E-01 0.24404479E+03</pdfrwt>
<totfact> 0.38799675E+04</totfact>
</mgrwt>
</event>
<event>
 5    0  0.1829809E+000  0.2582841E+03  0.7546771E-02  0.1108179E+00
         21   -1    0    0  502  501  0.00000000000E+00  0.00000000000E+00  0.32657310945E+02  0.32657310945E+02  0.00000000000E+00 0.  1.
         21   -1    0    0  503  502 -0.00000000000E+00 -0.00000000000E+00 -0.18818821952E+04  0.18818821952E+04  0.00000000000E+00 0.  1.
         25    1    1    2    0    0  0.51298189361E+02  0.22012303113E+03 -0.95158320262E+03  0.98601280142E+03  0.12500000000E+03 0.  0.
         21    1    1    2  503  504 -0.58771159448E+02 -0.13570251780E+03 -0.65573798838E+03  0.67220646525E+03  0.00000000000E+00 0.  1.
         21    1    1    2  504  501  0.74729700870E+01 -0.84420513323E+02 -0.24190369327E+03  0.25632023948E+03  0.00000000000E+00 0.  1.
<mgrwt>
<rscale>  4 0.25828405E+03</rscale>
<asrwt>0</asrwt>
<pdfrwt beam="1">  1       21 0.50242018E-02 0.25828405E+03</pdfrwt>
<pdfrwt beam="2">  1       21 0.28952033E+00 0.25828405E+03</pdfrwt>
<totfact> 0.98534961E+03</totfact>
</mgrwt>
</event>
<event>
 5    0  0.1829809E+000  0.2648594E+03  0.7546771E-02  0.1104258E+00
         21   -1    0    0  502  501  0.00000000000E+00  0.00000000000E+00  0.37548396807E+03  0.37548396807E+03  0.00000000000E+00 0. -1.
         21   -1    0    0  503  502 -0.00000000000E+00 -0.00000000000E+00 -0.17908259036E+04  0.17908259036E+04  0.00000000000E+00 0.  1.
         25    1    1    2    0    0  0.23248802731E+03  0.40201739621E+02  0.31633447823E+03  0.41395575226E+03  0.12500000000E+03 0.  0.
         21    1    1    2  503  504 -0.56284273271E+02  0.25834618730E+02 -0.76702044211E+03  0.76951654015E+03  0.00000000000E+00 0.  1.
         21    1    1    2  504  501 -0.17620375404E+03 -0.66036358351E+02 -0.96465597162E+03  0.98283757923E+03  0.00000000000E+00 0.  1.
<mgrwt>
<rscale>  4 0.26485943E+03</rscale>
<asrwt>0</asrwt>
<pdfrwt beam="1">  1       21 0.57766764E-01 0.26485943E+03</pdfrwt>
<pdfrwt beam="2">  1       21 0.27551168E+00 0.26485943E+03</pdfrwt>
<totfact> 0.12062418E+02</totfact>
</mgrwt>
</event>
<event>
 5    0  0.1829809E+000  0.2525139E+03  0.7546771E-02  0.1111726E+00
         21   -1    0    0  502  501  0.00000000000E+00  0.00000000000E+00  0.35520499949E+03  0.35520499949E+03  0.00000000000E+00 0. -1.
         21   -1    0    0  503  502 -0.00000000000E+00 -0.00000000000E+00 -0.29372414760E+03  0.29372414760E+03  0.00000000000E+00 0. -1.
         25    1    1    2    0    0 -0.19216016877E+03  0.12341526152E+03  0.23250217214E+03  0.34905460502E+03  0.12500000000E+03 0.  0.
         21    1    1    2  503  504  0.15442954534E+03 -0.11965261874E+03 -0.10023672850E+03  0.21957375842E+03  0.00000000000E+00 0. -1.
         21    1    1    2  504  501  0.37730623437E+02 -0.37626427749E+01 -0.70784591750E+02  0.80300783650E+02  0.00000000000E+00 0. -1.
<mgrwt>
<rscale>  4 0.25251385E+03</rscale>
<asrwt>0</asrwt>
<pdfrwt beam="1">  1       21 0.54646923E-01 0.25251385E+03</pdfrwt>
<pdfrwt beam="2">  1       21 0.45188330E-01 0.25251385E+03</pdfrwt>
<totfact> 0.14349470E+04</totfact>
</mgrwt>
</event>
<event>
 5    0  0.1829809E+000  0.3000044E+03  0.7546771E-02  0.1085238E+00
         21   -1    0    0  502  501  0.00000000000E+00  0.00000000000E+00  0.97292604387E+03  0.97292604387E+03  0.00000000000E+00 0.  1.
         21   -1    0    0  503  502 -0.00000000000E+00 -0.00000000000E+00 -0.13408491526E+03  0.13408491526E+03  0.00000000000E+00 0.  1.
         25    1    1    2    0    0 -0.27817126796E+03  0.41686977365E+01  0.67053587140E+03  0.73664101650E+03  0.12500000000E+03 0.  0.
         21    1    1    2  503  504  0.85692354875E+01  0.28625382549E+02  0.79020112175E+02  0.84480899919E+02  0.00000000000E+00 0.  1.
         21    1    1    2  504  501  0.26960203247E+03 -0.32794080286E+02  0.89285145033E+02  0.28588904270E+03  0.00000000000E+00 0.  1.
<mgrwt>
<rscale>  4 0.30000445E+03</rscale>
<asrwt>0</asrwt>
<pdfrwt beam="1">  1       21 0.14968093E+00 0.30000445E+03</pdfrwt>
<pdfrwt beam="2">  1       21 0.20628449E-01 0.30000445E+03</pdfrwt>
<totfact> 0.60979994E+03</totfact>
</mgrwt>
</event>
<event>
 5    0  0.1829809E+000  0.2409862E+03  0.7546771E-02  0.1119138E+00
         21   -1    0    0  502  501  0.00000000000E+00  0.00000000000E+00  0.12851213479E+04  0.12851213479E+04  0.00000000000E+00 0.  1.
         21   -1    0    0  503  502 -0.00000000000E+00 -0.00000000000E+00 -0.52400884060E+02  0.52400884060E+02  0.00000000000E+00 0. -1.
         25    1    1    2    0    0  0.18667195316E+03 -0.87194877976E+02  0.97738905817E+03  0.10066596922E+04  0.12500000000E+03 0.  0.
         21    1    1    2  503  504 -0.59714870364E+02  0.42045779824E+02  0.11566603472E+03  0.13679307340E+03  0.00000000000E+00 0. -1.
         21    1    1    2  504  501 -0.12695708280E+03  0.45149098153E+02  0.13966537097E+03  0.19406946639E+03  0.00000000000E+00 0. -1.
<mgrwt>
<rscale>  4 0.24098623E+03</rscale>
<asrwt>0</asrwt>
<pdfrwt beam="1">  1       21 0.19771095E+00 0.24098623E+03</pdfrwt>
<pdfrwt beam="2">  1       21 0.80616754E-02 0.24098623E+03</pdfrwt>
<totfact> 0.15884439E+04</totfact>
</mgrwt>
</event>
<event>
 5    0  0.1829809E+000  0.2446439E+03  0.7546771E-02  0.1116737E+00
         21   -1    0    0  502  501  0.00000000000E+00  0.00000000000E+00  0.13137865610E+03  0.13137865610E+03  0.00000000000E+00 0.  1.
         21   -1    0    0  503  502 -0.00000000000E+00 -0.00000000000E+00 -0.16118464937E+04  0.16118464937E+04  0.00000000000E+00 0. -1.
         25    1    1    2    0    0  0.10067751394E+03  0.18542869315E+03 -0.85918634552E+00  0.24524579559E+03  0.12500000000E+03 0.  0.
         21    1    1    2  503  504 -0.22555588445E+02  0.36074337021E+01 -0.29139658698E+03  0.29229050455E+03  0.00000000000E+00 0.  1.
         21    1    1    2  504  501 -0.78121925496E+02 -0.18903612685E+03 -0.11882120642E+04  0.12056888496E+04  0.00000000000E+00 0. -1.
<mgrwt>
<rscale>  4 0.24464388E+03</rscale>
<asrwt>0</asrwt>
<pdfrwt beam="1">  1       21 0.20212100E-01 0.24464388E+03</pdfrwt>
<pdfrwt beam="2">  1       21 0.24797640E+00 0.24464388E+03</pdfrwt>
<totfact> 0.14638703E+03</totfact>
</mgrwt>
</event>
<event>
 5    0  0.1829809E+000  0.2610385E+03  0.7546771E-02  0.1106521E+00
         21   -1    0    0  502  501  0.00000000000E+00  0.00000000000E+00  0.57883827187E+03  0.57883827187E+03  0.00000000000E+00 0.  1.
         21   -1    0    0  503  502 -0.00000000000E+00 -0.00000000000E+00 -0.27791303123E+03  0.27791303123E+03  0.00000000000E+00 0.  1.
         25    1    1    2    0    0 -0.21720498297E+03 -0.73062379524E+02  0.48922411854E+03  0.55451001261E+03  0.12500000000E+03 0.  0.
         21    1    1    2  503  504  0.10402631334E+03  0.10969506475E+02 -0.10725156729E+03  0.14981556203E+03  0.00000000000E+00 0.  1.
         21    1    1    2  504  501  0.11317866963E+03  0.62092873049E+02 -0.81047310606E+02  0.15242572847E+03  0.00000000000E+00 0.  1.
<mgrwt>
<rscale>  4 0.26103853E+03</rscale>
<asrwt>0</asrwt>
<pdfrwt beam="1">  1       21 0.89052042E-01 0.26103853E+03</pdfrwt>
<pdfrwt beam="2">  1       21 0.42755851E-01 0.26103853E+03</pdfrwt>
<totfact> 0.54064527E+03</totfact>
</mgrwt>
</event>
<event>
 5    0  0.1829809E+000  0.3455466E+03  0.7546771E-02  0.1064458E+00
         21   -1    0    0  502  501  0.00000000000E+00  0.00000000000E+00  0.14138911556E+03  0.14138911556E+03  0.00000000000E+00 0. -1.
         21   -1    0    0  503  502 -0.00000000000E+00 -0.00000000000E+00 -0.15411762972E+04  0.15411762972E+04  0.00000000000E+00 0. -1.
         25    1    1    2    0    0 -0.13097324767E+03  0.29510898904E+03 -0.16125747496E+03  0.38193229799E+03  0.12500000000E+03 0.  0.
         21    1    1    2  503  504  0.51549614882E+02  0.18297856787E+02 -0.36722000972E+03  0.37127174670E+03  0.00000000000E+00 0.  1.
         21    1    1    2  504  501  0.79423632784E+02 -0.31340684583E+03 -0.87130969695E+03  0.92936136807E+03  0.00000000000E+00 0. -1.
<mgrwt>
<rscale>  4 0.34554663E+03</rscale>
<asrwt>0</asrwt>
<pdfrwt beam="1">  1       21 0.21752172E-01 0.34554663E+03</pdfrwt>
<pdfrwt beam="2">  1       21 0.23710404E+00 0.34554663E+03</pdfrwt>
<totfact> 0.13719199E+03</totfact>
</mgrwt>
</event>
<event>
 5    0  0.1829809E+000  0.3553707E+03  0.7546771E-02  0.1060432E+00
         21   -1    0    0  502  501  0.00000000000E+00  0.00000000000E+00  0.66740934419E+03  0.66740934419E+03  0.00000000000E+00 0.  1.
         21   -1    0    0  503  502 -0.00000000000E+00 -0.00000000000E+00 -0.18525850561E+03  0.18525850561E+03  0.00000000000E+00 0.  1.
         25    1    1    2    0    0 -0.15768437987E+03 -0.29291457312E+03  0.17982545535E+03  0.39827817564E+03  0.12500000000E+03 0.  0.
         21    1    1    2  503  504  0.12811061285E+03  0.27715382175E+03  0.27856340115E+03  0.41330876895E+03  0.00000000000E+00 0.  1.
         21    1    1    2  504  501  0.29573767018E+02  0.15760751373E+02  0.23761982088E+02  0.41080905202E+02  0.00000000000E+00 0.  1.
<mgrwt>
<rscale>  4 0.35537067E+03</rscale>
<asrwt>0</asrwt>
<pdfrwt beam="1">  1       21 0.10267836E+00 0.35537067E+03</pdfrwt>
<pdfrwt beam="2">  1       21 0.28501309E-01 0.35537067E+03</pdfrwt>
<totfact> 0.83114678E+03</totfact>
</mgrwt>
</event>
<event>
 5    0  0.1829809E+000  0.3989189E+03  0.7546771E-02  0.1044544E+00
         21   -1    0    0  502  501  0.00000000000E+00  0.00000000000E+00  0.75568528269E+03  0.75568528269E+03  0.00000000000E+00 0. -1.
         21   -1    0    0  503  502 -0.00000000000E+00 -0.00000000000E+00 -0.20884405699E+03  0.20884405699E+03  0.00000000000E+00 0. -1.
         25    1    1    2    0    0  0.31765110634E+03  0.19766709920E+03  0.29785219399E+03  0.49428274999E+03  0.12500000000E+03 0.  0.
         21    1    1    2  503  504 -0.11829562438E+03 -0.43151851164E+02  0.16097882037E+02  0.12694518034E+03  0.00000000000E+00 0. -1.
         21    1    1    2  504  501 -0.19935548196E+03 -0.15451524804E+03  0.23289114967E+03  0.34330140934E+03  0.00000000000E+00 0. -1.
<mgrwt>
<rscale>  4 0.39779976E+03</rscale>
<asrwt>0</asrwt>
<pdfrwt beam="1">  1       21 0.11625927E+00 0.39891894E+03</pdfrwt>
<pdfrwt beam="2">  1       21 0.32129855E-01 0.39891894E+03</pdfrwt>
<totfact> 0.47429316E+03</totfact>
</mgrwt>
</event>
<event>
 5    0  0.1829809E+000  0.3078550E+03  0.7546771E-02  0.1081379E+00
         21   -1    0    0  502  501  0.00000000000E+00  0.00000000000E+00  0.63624316758E+03  0.63624316758E+03  0.00000000000E+00 0. -1.
         21   -1    0    0  503  502 -0.00000000000E+00 -0.00000000000E+00 -0.20144921836E+03  0.20144921836E+03  0.00000000000E+00 0. -1.
         25    1    1    2    0    0  0.13441565839E+03  0.24714804201E+03  0.45079236250E+03  0.54588320910E+03  0.12500000000E+03 0.  0.
         21    1    1    2  503  504 -0.69794489499E+02 -0.16004968406E+03 -0.43460770306E+02  0.17993335068E+03  0.00000000000E+00 0. -1.
         21    1    1    2  504  501 -0.64621168892E+02 -0.87098357952E+02  0.27462357019E+02  0.11187582616E+03  0.00000000000E+00 0.  1.
<mgrwt>
<rscale>  4 0.30785504E+03</rscale>
<asrwt>0</asrwt>
<pdfrwt beam="1">  1       21 0.97883563E-01 0.30785504E+03</pdfrwt>
<pdfrwt beam="2">  1       21 0.30992188E-01 0.30785504E+03</pdfrwt>
<totfact> 0.80710626E+03</totfact>
</mgrwt>
</event>
<event>
 5    0  0.1829809E+000  0.2853150E+03  0.7546771E-02  0.1092821E+00
         21   -1    0    0  502  501  0.00000000000E+00  0.00000000000E+00  0.93325033064E+03  0.93325033064E+03  0.00000000000E+00 0.  1.
         21   -1    0    0  503  502 -0.00000000000E+00 -0.00000000000E+00 -0.17615492387E+03  0.17615492387E+03  0.00000000000E+00 0.  1.
         25    1    1    2    0    0  0.24273039969E+03 -0.86952821872E+02  0.78615586796E+03  0.83674660973E+03  0.12500000000E+03 0.  0.
         21    1    1    2  503  504 -0.24087961890E+03  0.65867362351E+02 -0.23842641132E+02  0.25085846958E+03  0.00000000000E+00 0.  1.
         21    1    1    2  504  501 -0.18507807869E+01  0.21085459521E+02 -0.52178200635E+01  0.21800175205E+02  0.00000000000E+00 0. -1.
<mgrwt>
<rscale>  4 0.28531501E+03</rscale>
<asrwt>0</asrwt>
<pdfrwt beam="1">  1       21 0.14357697E+00 0.28531501E+03</pdfrwt>
<pdfrwt beam="2">  1       21 0.27100758E-01 0.28531501E+03</pdfrwt>
<totfact> 0.40695445E+03</totfact>
</mgrwt>
</event>
<event>
 5    0  0.1829809E+000  0.2584731E+03  0.7546771E-02  0.1108064E+00
         21   -1    0    0  502  501  0.00000000000E+00  0.00000000000E+00  0.18128240069E+03  0.18128240069E+03  0.00000000000E+00 0.  1.
         21   -1    0    0  503  502 -0.00000000000E+00 -0.00000000000E+00 -0.34483715190E+03  0.34483715190E+03  0.00000000000E+00 0.  1.
         25    1    1    2    0    0  0.17836998196E+03 -0.13916714281E+03 -0.68567345785E+02  0.26741321024E+03  0.12500000000E+03 0.  0.
         21    1    1    2  503  504 -0.65714899745E+02  0.56446673315E+02  0.51340166188E+01  0.86781525127E+02  0.00000000000E+00 0.  1.
         21    1    1    2  504  501 -0.11265508222E+03  0.82720469500E+02 -0.10012142205E+03  0.17192481722E+03  0.00000000000E+00 0.  1.
<mgrwt>
<rscale>  4 0.25847310E+03</rscale>
<asrwt>0</asrwt>
<pdfrwt beam="1">  1       21 0.27889600E-01 0.25847310E+03</pdfrwt>
<pdfrwt beam="2">  1       21 0.53051870E-01 0.25847310E+03</pdfrwt>
<totfact> 0.40085824E+04</totfact>
</mgrwt>
</event>
<event>
 5    0  0.1829809E+000  0.2402313E+03  0.7546771E-02  0.1119639E+00
         21   -1    0    0  502  501  0.00000000000E+00  0.00000000000E+00  0.88483403236E+02  0.88483403236E+02  0.00000000000E+00 0.  1.
         21   -1    0    0  503  502 -0.00000000000E+00 -0.00000000000E+00 -0.68292514637E+03  0.68292514637E+03  0.00000000000E+00 0. -1.
         25    1    1    2    0    0 -0.18874520098E+03  0.80382444207E+02 -0.16150543208E+03  0.28947382061E+03  0.12500000000E+03 0.  0.
         21    1    1    2  503  504  0.11528709519E+03 -0.75047789093E+02 -0.29760290624E+03  0.32785785757E+03  0.00000000000E+00 0. -1.
         21    1    1    2  504  501  0.73458105782E+02 -0.53346551136E+01 -0.13533340481E+03  0.15407687142E+03  0.00000000000E+00 0. -1.
<mgrwt>
<rscale>  4 0.24023132E+03</rscale>
<asrwt>0</asrwt>
<pdfrwt beam="1">  1       21 0.13612831E-01 0.24023132E+03</pdfrwt>
<pdfrwt beam="2">  1       21 0.10506541E+00 0.24023132E+03</pdfrwt>
<totfact> 0.33283488E+04</totfact>
</mgrwt>
</event>
<event>
 5    0  0.1829809E+000  0.2444107E+03  0.7546771E-02  0.1116889E+00
         21   -1    0    0  502  501  0.00000000000E+00  0.00000000000E+00  0.31141788870E+03  0.31141788870E+03  0.00000000000E+00 0.  1.
         21   -1    0    0  503  502 -0.00000000000E+00 -0.00000000000E+00 -0.19967185879E+03  0.19967185879E+03  0.00000000000E+00 0.  1.
         25    1    1    2    0    0  0.18897765768E+03  0.10311990882E+03  0.27677577478E+01  0.24895568116E+03  0.12500000000E+03 0.  0.
         21    1    1    2  503  504 -0.19238547266E+03 -0.70344759788E+02  0.87167957277E+02  0.22261807675E+03  0.00000000000E+00 0.  1.
         21    1    1    2  504  501  0.34078149717E+01 -0.32775149035E+02  0.21810314882E+02  0.39515989578E+02  0.00000000000E+00 0. -1.
<mgrwt>
<rscale>  4 0.24441074E+03</rscale>
<asrwt>0</asrwt>
<pdfrwt beam="1">  1       21 0.47910445E-01 0.24441074E+03</pdfrwt>
<pdfrwt beam="2">  1       21 0.30718747E-01 0.24441074E+03</pdfrwt>
<totfact> 0.41348755E+04</totfact>
</mgrwt>
</event>
<event>
 5    0  0.1829809E+000  0.2179666E+03  0.7546771E-02  0.1135408E+00
         21   -1    0    0  502  501  0.00000000000E+00  0.00000000000E+00  0.53567552438E+02  0.53567552438E+02  0.00000000000E+00 0. -1.
         21   -1    0    0  503  502 -0.00000000000E+00 -0.00000000000E+00 -0.16098516056E+04  0.16098516056E+04  0.00000000000E+00 0. -1.
         25    1    1    2    0    0 -0.20417726098E+03  0.29907336055E+02 -0.30542107237E+03  0.38921694991E+03  0.12500000000E+03 0.  0.
         21    1    1    2  503  504  0.10321046014E+03  0.41613919104E+02 -0.43494586973E+03  0.44895659806E+03  0.00000000000E+00 0. -1.
         21    1    1    2  504  501  0.10096680084E+03 -0.71521255158E+02 -0.81591711102E+03  0.82524561002E+03  0.00000000000E+00 0. -1.
<mgrwt>
<rscale>  4 0.21796662E+03</rscale>
<asrwt>0</asrwt>
<pdfrwt beam="1">  1       21 0.82411623E-02 0.21796662E+03</pdfrwt>
<pdfrwt beam="2">  1       21 0.24766947E+00 0.21796662E+03</pdfrwt>
<totfact> 0.76365689E+03</totfact>
</mgrwt>
</event>
<event>
 5    0  0.1829809E+000  0.2672505E+03  0.7546771E-02  0.1102864E+00
         21   -1    0    0  502  501  0.00000000000E+00  0.00000000000E+00  0.27173625647E+03  0.27173625647E+03  0.00000000000E+00 0.  1.
         21   -1    0    0  503  502 -0.00000000000E+00 -0.00000000000E+00 -0.30972597009E+03  0.30972597009E+03  0.00000000000E+00 0.  1.
         25    1    1    2    0    0 -0.40280859735E+02 -0.23638014590E+03  0.90592407681E+02  0.28518433576E+03  0.12500000000E+03 0.  0.
         21    1    1    2  503  504  0.34916044291E+02  0.52283731117E+01 -0.22698252058E+02  0.41972332325E+02  0.00000000000E+00 0. -1.
         21    1    1    2  504  501  0.53648154437E+01  0.23115177279E+03 -0.10588386924E+03  0.25430555848E+03  0.00000000000E+00 0.  1.
<mgrwt>
<rscale>  4 0.26725054E+03</rscale>
<asrwt>0</asrwt>
<pdfrwt beam="1">  1       21 0.41805578E-01 0.26725054E+03</pdfrwt>
<pdfrwt beam="2">  1       21 0.47650149E-01 0.26725054E+03</pdfrwt>
<totfact> 0.22323332E+04</totfact>
</mgrwt>
</event>
<event>
 5    0  0.1829809E+000  0.2584630E+03  0.7546771E-02  0.1108070E+00
         21   -1    0    0  502  501  0.00000000000E+00  0.00000000000E+00  0.92021194991E+03  0.92021194991E+03  0.00000000000E+00 0. -1.
         21   -1    0    0  503  502 -0.00000000000E+00 -0.00000000000E+00 -0.46291352211E+03  0.46291352211E+03  0.00000000000E+00 0.  1.
         25    1    1    2    0    0  0.21846744014E+03 -0.58737715816E+02  0.87036439199E+03  0.90793023769E+03  0.12500000000E+03 0.  0.
         21    1    1    2  503  504 -0.16335303692E+03  0.60577636249E+02 -0.35300749975E+03  0.39365995423E+03  0.00000000000E+00 0.  1.
         21    1    1    2  504  501 -0.55114403224E+02 -0.18399204327E+01 -0.60058464444E+02  0.81535280102E+02  0.00000000000E+00 0.  1.
<mgrwt>
<rscale>  4 0.25846304E+03</rscale>
<asrwt>0</asrwt>
<pdfrwt beam="1">  1       21 0.14157107E+00 0.25846304E+03</pdfrwt>
<pdfrwt beam="2">  1       21 0.71217465E-01 0.25846304E+03</pdfrwt>
<totfact> 0.58179646E+02</totfact>
</mgrwt>
</event>
<event>
 5    0  0.1829809E+000  0.2574765E+03  0.7546771E-02  0.1108669E+00
         21   -1    0    0  502  501  0.00000000000E+00  0.00000000000E+00  0.78215465383E+03  0.78215465383E+03  0.00000000000E+00 0. -1.
         21   -1    0    0  503  502 -0.00000000000E+00 -0.00000000000E+00 -0.10436678064E+03  0.10436678064E+03  0.00000000000E+00 0. -1.
         25    1    1    2    0    0  0.14387723447E+03  0.17311405608E+03  0.58517285595E+03  0.63931323023E+03  0.12500000000E+03 0.  0.
         21    1    1    2  503  504 -0.36392152783E+01 -0.23230884616E+02  0.14265555287E+02  0.27503162646E+02  0.00000000000E+00 0. -1.
         21    1    1    2  504  501 -0.14023801919E+03 -0.14988317146E+03  0.78349461947E+02  0.21970504159E+03  0.00000000000E+00 0. -1.
<mgrwt>
<rscale>  4 0.25747647E+03</rscale>
<asrwt>0</asrwt>
<pdfrwt beam="1">  1       21 0.12033148E+00 0.25747647E+03</pdfrwt>
<pdfrwt beam="2">  1       21 0.16056428E-01 0.25747647E+03</pdfrwt>
<totfact> 0.17495725E+04</totfact>
</mgrwt>
</event>
<event>
 5    0  0.1829809E+000  0.3331333E+03  0.7546771E-02  0.1069759E+00
         21   -1    0    0  502  501  0.00000000000E+00  0.00000000000E+00  0.54357122084E+03  0.54357122084E+03  0.00000000000E+00 0. -1.
         21   -1    0    0  503  502 -0.00000000000E+00 -0.00000000000E+00 -0.41591353480E+03  0.41591353480E+03  0.00000000000E+00 0. -1.
         25    1    1    2    0    0  0.23405359632E+03 -0.20142418538E+03  0.41500439066E+03  0.53217143166E+03  0.12500000000E+03 0.  0.
         21    1    1    2  503  504 -0.21075455516E+03  0.16993825667E+03 -0.27580900528E+03  0.38648040182E+03  0.00000000000E+00 0. -1.
         21    1    1    2  504  501 -0.23299041163E+02  0.31485928704E+02 -0.11537699348E+02  0.40832922155E+02  0.00000000000E+00 0. -1.
<mgrwt>
<rscale>  4 0.33313329E+03</rscale>
<asrwt>0</asrwt>
<pdfrwt beam="1">  1       21 0.83626342E-01 0.33313329E+03</pdfrwt>
<pdfrwt beam="2">  1       21 0.63986697E-01 0.33313329E+03</pdfrwt>
<totfact> 0.25555613E+03</totfact>
</mgrwt>
</event>
<event>
 5    0  0.1829809E+000  0.2593591E+03  0.7546771E-02  0.1107529E+00
         21   -1    0    0  502  501  0.00000000000E+00  0.00000000000E+00  0.40693625344E+03  0.40693625344E+03  0.00000000000E+00 0. -1.
         21   -1    0    0  503  502 -0.00000000000E+00 -0.00000000000E+00 -0.23733414227E+03  0.23733414227E+03  0.00000000000E+00 0. -1.
         25    1    1    2    0    0  0.20308479249E+03  0.10197394387E+03  0.28368641448E+03  0.38437624788E+03  0.12500000000E+03 0.  0.
         21    1    1    2  503  504 -0.30466446497E+02 -0.22351995454E+01 -0.72353439882E+00  0.30556897441E+02  0.00000000000E+00 0. -1.
         21    1    1    2  504  501 -0.17261834600E+03 -0.99738744322E+02 -0.11336076891E+03  0.22933725040E+03  0.00000000000E+00 0. -1.
<mgrwt>
<rscale>  4 0.25935905E+03</rscale>
<asrwt>0</asrwt>
<pdfrwt beam="1">  1       21 0.62605577E-01 0.25935905E+03</pdfrwt>
<pdfrwt beam="2">  1       21 0.36512945E-01 0.25935905E+03</pdfrwt>
<totfact> 0.16480025E+04</totfact>
</mgrwt>
</event>
<event>
 5    0  0.1829809E+000  0.2716118E+03  0.7546771E-02  0.1100361E+00
         21   -1    0    0  502  501  0.00000000000E+00  0.00000000000E+00  0.14105016738E+04  0.14105016738E+04  0.00000000000E+00 0.  1.
         21   -1    0    0  503  502 -0.00000000000E+00 -0.00000000000E+00 -0.54887106872E+02  0.54887106872E+02  0.00000000000E+00 0.  1.
         25    1    1    2    0    0  0.14634015950E+03  0.19165733024E+03  0.97554549014E+03  0.10126509655E+04  0.12500000000E+03 0.  0.
         21    1    1    2  503  504 -0.24627022380E+02 -0.21293795830E+02  0.84235996284E+02  0.90308466060E+02  0.00000000000E+00 0.  1.
         21    1    1    2  504  501 -0.12171313712E+03 -0.17036353441E+03  0.29583308048E+03  0.36242934913E+03  0.00000000000E+00 0.  1.
<mgrwt>
<rscale>  4 0.27161181E+03</rscale>
<asrwt>0</asrwt>
<pdfrwt beam="1">  1       21 0.21700023E+00 0.27161181E+03</pdfrwt>
<pdfrwt beam="2">  1       21 0.84441714E-02 0.27161181E+03</pdfrwt>
<totfact> 0.10809316E+04</totfact>
</mgrwt>
</event>
<event>
 5    0  0.1829809E+000  0.2358633E+03  0.7546771E-02  0.1122580E+00
         21   -1    0    0  502  501  0.00000000000E+00  0.00000000000E+00  0.28257773532E+03  0.28257773532E+03  0.00000000000E+00 0.  1.
         21   -1    0    0  503  502 -0.00000000000E+00 -0.00000000000E+00 -0.37410780990E+03  0.37410780990E+03  0.00000000000E+00 0. -1.
         25    1    1    2    0    0 -0.19220948276E+03  0.55335333997E+02  0.19480823023E+03  0.30591131234E+03  0.12500000000E+03 0.  0.
         21    1    1    2  503  504  0.32350189838E+02  0.28615066489E+01 -0.47514665369E+02  0.57553161755E+02  0.00000000000E+00 0.  1.
         21    1    1    2  504  501  0.15985929293E+03 -0.58196840646E+02 -0.23882363944E+03  0.29322107112E+03  0.00000000000E+00 0. -1.
<mgrwt>
<rscale>  4 0.23586327E+03</rscale>
<asrwt>0</asrwt>
<pdfrwt beam="1">  1       21 0.43473498E-01 0.23586327E+03</pdfrwt>
<pdfrwt beam="2">  1       21 0.57555047E-01 0.23586327E+03</pdfrwt>
<totfact> 0.14034203E+04</totfact>
</mgrwt>
</event>
<event>
 5    0  0.1829809E+000  0.2511632E+03  0.7546771E-02  0.1112572E+00
         21   -1    0    0  502  501  0.00000000000E+00  0.00000000000E+00  0.53544853476E+02  0.53544853476E+02  0.00000000000E+00 0. -1.
         21   -1    0    0  503  502 -0.00000000000E+00 -0.00000000000E+00 -0.11219381933E+04  0.11219381933E+04  0.00000000000E+00 0. -1.
         25    1    1    2    0    0  0.13613328549E+03 -0.17007556679E+03 -0.67432590886E+03  0.71958210177E+03  0.12500000000E+03 0.  0.
         21    1    1    2  503  504 -0.12258007647E+03  0.10312121761E+03 -0.29264839165E+03  0.33362095528E+03  0.00000000000E+00 0. -1.
         21    1    1    2  504  501 -0.13553209022E+02  0.66954349185E+02 -0.10141903933E+03  0.12227998973E+03  0.00000000000E+00 0.  1.
<mgrwt>
<rscale>  4 0.25116323E+03</rscale>
<asrwt>0</asrwt>
<pdfrwt beam="1">  1       21 0.82376702E-02 0.25116323E+03</pdfrwt>
<pdfrwt beam="2">  1       21 0.17260587E+00 0.25116323E+03</pdfrwt>
<totfact> 0.22490194E+04</totfact>
</mgrwt>
</event>
<event>
 5    0  0.1829809E+000  0.2928861E+03  0.7546771E-02  0.1088852E+00
         21   -1    0    0  502  501  0.00000000000E+00  0.00000000000E+00  0.11372937228E+04  0.11372937228E+04  0.00000000000E+00 0. -1.
         21   -1    0    0  503  502 -0.00000000000E+00 -0.00000000000E+00 -0.17372573994E+03  0.17372573994E+03  0.00000000000E+00 0. -1.
         25    1    1    2    0    0  0.14764592393E+03 -0.23819556967E+03  0.88852815954E+03  0.94002326490E+03  0.12500000000E+03 0.  0.
         21    1    1    2  503  504 -0.20966469522E+02  0.23244928116E+03  0.71641809615E+02  0.24414096346E+03  0.00000000000E+00 0. -1.
         21    1    1    2  504  501 -0.12667945441E+03  0.57462885168E+01  0.33980137491E+01  0.12685523441E+03  0.00000000000E+00 0. -1.
<mgrwt>
<rscale>  4 0.29288605E+03</rscale>
<asrwt>0</asrwt>
<pdfrwt beam="1">  1       21 0.17496826E+00 0.29288605E+03</pdfrwt>
<pdfrwt beam="2">  1       21 0.26727038E-01 0.29288605E+03</pdfrwt>
<totfact> 0.24253171E+03</totfact>
</mgrwt>
</event>
<event>
 5    0  0.1829809E+000  0.2902031E+03  0.7546771E-02  0.1090243E+00
         21   -1    0    0  502  501  0.00000000000E+00  0.00000000000E+00  0.62054440998E+03  0.62054440998E+03  0.00000000000E+00 0. -1.
         21   -1    0    0  503  502 -0.00000000000E+00 -0.00000000000E+00 -0.86245406654E+03  0.86245406654E+03  0.00000000000E+00 0.  1.
         25    1    1    2    0    0  0.48903762368E+01  0.26185670979E+03  0.56292337300E+03  0.63332501617E+03  0.12500000000E+03 0.  0.
         21    1    1    2  503  504  0.31177986160E+02 -0.70997329874E+02 -0.20498046684E+03  0.21915674632E+03  0.00000000000E+00 0.  1.
         21    1    1    2  504  501 -0.36068362396E+02 -0.19085937992E+03 -0.59985256272E+03  0.63051671403E+03  0.00000000000E+00 0.  1.
<mgrwt>
<rscale>  4 0.29020312E+03</rscale>
<asrwt>0</asrwt>
<pdfrwt beam="1">  1       21 0.95468371E-01 0.29020312E+03</pdfrwt>
<pdfrwt beam="2">  1       21 0.13268524E+00 0.29020312E+03</pdfrwt>
<totfact> 0.34226629E+02</totfact>
</mgrwt>
</event>
<event>
 5    0  0.1829809E+000  0.2520821E+03  0.7546771E-02  0.1111996E+00
         21   -1    0    0  502  501  0.00000000000E+00  0.00000000000E+00  0.34615001142E+03  0.34615001142E+03  0.00000000000E+00 0. -1.
         21   -1    0    0  503  502 -0.00000000000E+00 -0.00000000000E+00 -0.16790706581E+03  0.16790706581E+03  0.00000000000E+00 0. -1.
         25    1    1    2    0    0  0.20865454360E+03 -0.66209221729E+02  0.49125857435E+02  0.25682431636E+03  0.12500000000E+03 0.  0.
         21    1    1    2  503  504 -0.24016498895E+02 -0.50965533117E+01  0.14397531131E+02  0.28461482350E+02  0.00000000000E+00 0. -1.
         21    1    1    2  504  501 -0.18463804470E+03  0.71305775041E+02  0.11471955705E+03  0.22877127852E+03  0.00000000000E+00 0. -1.
<mgrwt>
<rscale>  4 0.25208209E+03</rscale>
<asrwt>0</asrwt>
<pdfrwt beam="1">  1       21 0.53253848E-01 0.25208209E+03</pdfrwt>
<pdfrwt beam="2">  1       21 0.25831856E-01 0.25208209E+03</pdfrwt>
<totfact> 0.46246244E+04</totfact>
</mgrwt>
</event>
<event>
 5    0  0.1829809E+000  0.5451713E+03  0.7546771E-02  0.1002618E+00
         21   -1    0    0  502  501  0.00000000000E+00  0.00000000000E+00  0.69357524143E+03  0.69357524143E+03  0.00000000000E+00 0.  1.
         21   -1    0    0  503  502 -0.00000000000E+00 -0.00000000000E+00 -0.73607161798E+03  0.73607161798E+03  0.00000000000E+00 0. -1.
         25    1    1    2    0    0 -0.42639554609E+03  0.33400510844E+03  0.39446457316E+03  0.68161563485E+03  0.12500000000E+03 0.  0.
         21    1    1    2  503  504  0.37633190275E+03 -0.37143783849E+03 -0.43628164000E+03  0.68551691320E+03  0.00000000000E+00 0. -1.
         21    1    1    2  504  501  0.50063643343E+02  0.37432730048E+02 -0.67930971514E+00  0.62514311364E+02  0.00000000000E+00 0. -1.
<mgrwt>
<rscale>  4 0.54517125E+03</rscale>
<asrwt>0</asrwt>
<pdfrwt beam="1">  1       21 0.10670388E+00 0.54517125E+03</pdfrwt>
<pdfrwt beam="2">  1       21 0.11324179E+00 0.54517125E+03</pdfrwt>
<totfact> 0.34086961E+02</totfact>
</mgrwt>
</event>
<event>
 5    0  0.1829809E+000  0.2607739E+03  0.7546771E-02  0.1106679E+00
         21   -1    0    0  502  501  0.00000000000E+00  0.00000000000E+00  0.45370787442E+03  0.45370787442E+03  0.00000000000E+00 0. -1.
         21   -1    0    0  503  502 -0.00000000000E+00 -0.00000000000E+00 -0.13898796855E+03  0.13898796855E+03  0.00000000000E+00 0. -1.
         25    1    1    2    0    0  0.14063804074E+03 -0.18055186066E+03  0.13417759688E+03  0.29326892164E+03  0.12500000000E+03 0.  0.
         21    1    1    2  503  504 -0.29390998833E+02  0.47414446372E+02  0.84118500343E+02  0.10093504167E+03  0.00000000000E+00 0. -1.
         21    1    1    2  504  501 -0.11124704190E+03  0.13313741429E+03  0.96423808642E+02  0.19849187966E+03  0.00000000000E+00 0. -1.
<mgrwt>
<rscale>  4 0.26077391E+03</rscale>
<asrwt>0</asrwt>
<pdfrwt beam="1">  1       21 0.69801211E-01 0.26077391E+03</pdfrwt>
<pdfrwt beam="2">  1       21 0.21382765E-01 0.26077391E+03</pdfrwt>
<totfact> 0.36769045E+04</totfact>
</mgrwt>
</event>
<event>
 5    0  0.1829809E+000  0.2540032E+03  0.7546771E-02  0.1110801E+00
         21   -1    0    0  502  501  0.00000000000E+00  0.00000000000E+00  0.13021495707E+03  0.13021495707E+03  0.00000000000E+00 0.  1.
         21   -1    0    0  503  502 -0.00000000000E+00 -0.00000000000E+00 -0.55396578534E+03  0.55396578534E+03  0.00000000000E+00 0. -1.
         25    1    1    2    0    0  0.21707805934E+03  0.42068509136E+02 -0.66161473418E+02  0.26247853983E+03  0.12500000000E+03 0.  0.
         21    1    1    2  503  504 -0.28300024893E+02 -0.57378590854E+01 -0.28470871795E+02  0.40551263564E+02  0.00000000000E+00 0. -1.
         21    1    1    2  504  501 -0.18877803445E+03 -0.36330650050E+02 -0.32911848305E+03  0.38115093901E+03  0.00000000000E+00 0. -1.
<mgrwt>
<rscale>  4 0.25400323E+03</rscale>
<asrwt>0</asrwt>
<pdfrwt beam="1">  1       21 0.20033070E-01 0.25400323E+03</pdfrwt>
<pdfrwt beam="2">  1       21 0.85225506E-01 0.25400323E+03</pdfrwt>
<totfact> 0.26546394E+04</totfact>
</mgrwt>
</event>
<event>
 5    0  0.1829809E+000  0.2838209E+03  0.7546771E-02  0.1093620E+00
         21   -1    0    0  502  501  0.00000000000E+00  0.00000000000E+00  0.23449401803E+03  0.23449401803E+03  0.00000000000E+00 0.  1.
         21   -1    0    0  503  502 -0.00000000000E+00 -0.00000000000E+00 -0.33699007147E+03  0.33699007147E+03  0.00000000000E+00 0. -1.
         25    1    1    2    0    0  0.20532049774E+03  0.15090655957E+03 -0.11718941773E+03  0.30706295143E+03  0.12500000000E+03 0.  0.
         21    1    1    2  503  504 -0.16137353546E+03 -0.13273067302E+03  0.36485667291E+02  0.21210858876E+03  0.00000000000E+00 0. -1.
         21    1    1    2  504  501 -0.43946962280E+02 -0.18175886555E+02 -0.21792303003E+02  0.52312549316E+02  0.00000000000E+00 0. -1.
<mgrwt>
<rscale>  4 0.28382089E+03</rscale>
<asrwt>0</asrwt>
<pdfrwt beam="1">  1       21 0.36076003E-01 0.28382089E+03</pdfrwt>
<pdfrwt beam="2">  1       21 0.51844626E-01 0.28382089E+03</pdfrwt>
<totfact> 0.25039889E+04</totfact>
</mgrwt>
</event>
<event>
 5    0  0.1829809E+000  0.2886807E+03  0.7546771E-02  0.1091040E+00
         21   -1    0    0  502  501  0.00000000000E+00  0.00000000000E+00  0.11806260343E+03  0.11806260343E+03  0.00000000000E+00 0.  1.
         21   -1    0    0  503  502 -0.00000000000E+00 -0.00000000000E+00 -0.68505188426E+03  0.68505188426E+03  0.00000000000E+00 0.  1.
         25    1    1    2    0    0  0.12545899759E+03 -0.22797272666E+03 -0.38471912364E+03  0.48098370894E+03  0.12500000000E+03 0.  0.
         21    1    1    2  503  504 -0.70644499660E+02  0.15794562628E+03 -0.14483760842E+03  0.22564440832E+03  0.00000000000E+00 0.  1.
         21    1    1    2  504  501 -0.54814497928E+02  0.70027100377E+02 -0.37432548774E+02  0.96486370426E+02  0.00000000000E+00 0.  1.
<mgrwt>
<rscale>  4 0.28868066E+03</rscale>
<asrwt>0</asrwt>
<pdfrwt beam="1">  1       21 0.18163478E-01 0.28868066E+03</pdfrwt>
<pdfrwt beam="2">  1       21 0.10539260E+00 0.28868066E+03</pdfrwt>
<totfact> 0.19000475E+04</totfact>
</mgrwt>
</event>
