<event>
 5    0  0.1856407E+000  0.2647509E+03  0.7546771E-02  0.1104322E+00
         21   -1    0    0  502  501  0.00000000000E+00  0.00000000000E+00  0.84529560702E+02  0.84529560702E+02  0.00000000000E+00 0. -1.
         21   -1    0    0  503  502 -0.00000000000E+00 -0.00000000000E+00 -0.13474154102E+04  0.13474154102E+04  0.00000000000E+00 0. -1.
         25    1    1    2    0    0  0.26992139453E+03  0.68086621436E+02 -0.39236991508E+03  0.49706387668E+03  0.12500000000E+03 0.  0.
         21    1    1    2  503  504 -0.57808625441E+02 -0.55268236957E+01 -0.29228027217E+02  0.65012772057E+02  0.00000000000E+00 0. -1.
         21    1    1    2  504  501 -0.21211276909E+03 -0.62559797740E+02 -0.84128790725E+03  0.86986832221E+03  0.00000000000E+00 0. -1.
<mgrwt>
<rscale>  4 0.26475090E+03</rscale>
<asrwt>0</asrwt>
<pdfrwt beam="1">  1       21 0.13004548E-01 0.26475090E+03</pdfrwt>
<pdfrwt beam="2">  1       21 0.20729467E+00 0.26475090E+03</pdfrwt>
<totfact> 0.57864335E+03</totfact>
</mgrwt>
</event>
<event>
 5    0  0.1856407E+000  0.3880307E+03  0.7546771E-02  0.1048617E+00
         21   -1    0    0  502  501  0.00000000000E+00  0.00000000000E+00  0.16618531027E+03  0.16618531027E+03  0.00000000000E+00 0. -1.
         21   -1    0    0  503  502 -0.00000000000E+00 -0.00000000000E+00 -0.11697446737E+04  0.11697446737E+04  0.00000000000E+00 0.  1.
         25    1    1    2    0    0  0.35388372695E+03  0.67249438437E+02 -0.17199195263E+03  0.41828508333E+03  0.12500000000E+03 0.  0.
         21    1    1    2  503  504 -0.28158415114E+03 -0.42850849235E+02 -0.76528866940E+03  0.81657368128E+03  0.00000000000E+00 0.  1.
         21    1    1    2  504  501 -0.72299575813E+02 -0.24398589202E+02 -0.66278741391E+02  0.10107121934E+03  0.00000000000E+00 0.  1.
<mgrwt>
<rscale>  4 0.38633412E+03</rscale>
<asrwt>0</asrwt>
<pdfrwt beam="1">  1       21 0.25566971E-01 0.38803068E+03</pdfrwt>
<pdfrwt beam="2">  1       21 0.17996072E+00 0.38803068E+03</pdfrwt>
<totfact> 0.23137877E+03</totfact>
</mgrwt>
</event>
<event>
 5    0  0.1856407E+000  0.2456411E+03  0.7546771E-02  0.1116091E+00
         21   -1    0    0  502  501  0.00000000000E+00  0.00000000000E+00  0.21551866040E+04  0.21551866040E+04  0.00000000000E+00 0. -1.
         21   -1    0    0  503  502 -0.00000000000E+00 -0.00000000000E+00 -0.45823176290E+02  0.45823176290E+02  0.00000000000E+00 0. -1.
         25    1    1    2    0    0 -0.25229164264E+03  0.29345055724E+02  0.15613204921E+04  0.15867762553E+04  0.12500000000E+03 0.  0.
         21    1    1    2  503  504  0.19867977834E+03 -0.38439316154E+02  0.31106355476E+03  0.37109536570E+03  0.00000000000E+00 0. -1.
         21    1    1    2  504  501  0.53611864298E+02  0.90942604295E+01  0.23697938085E+03  0.24313815931E+03  0.00000000000E+00 0. -1.
<mgrwt>
<rscale>  4 0.24564110E+03</rscale>
<asrwt>0</asrwt>
<pdfrwt beam="1">  1       21 0.33156709E+00 0.24564110E+03</pdfrwt>
<pdfrwt beam="2">  1       21 0.70497211E-02 0.24564110E+03</pdfrwt>
<totfact> 0.31540811E+03</totfact>
</mgrwt>
</event>
<event>
 5    0  0.1856407E+000  0.2698729E+03  0.7546771E-02  0.1101352E+00
         21   -1    0    0  502  501  0.00000000000E+00  0.00000000000E+00  0.18937313948E+04  0.18937313948E+04  0.00000000000E+00 0. -1.
         21   -1    0    0  503  502 -0.00000000000E+00 -0.00000000000E+00 -0.46484289186E+02  0.46484289186E+02  0.00000000000E+00 0. -1.
         25    1    1    2    0    0  0.18828309338E+03  0.11272996916E+03  0.12762480598E+04  0.13009968022E+04  0.12500000000E+03 0.  0.
         21    1    1    2  503  504  0.33995177813E+02 -0.55510418102E+01  0.12323152756E+03  0.12795505290E+03  0.00000000000E+00 0. -1.
         21    1    1    2  504  501 -0.22227827119E+03 -0.10717892735E+03  0.44776751824E+03  0.51126382887E+03  0.00000000000E+00 0. -1.
<mgrwt>
<rscale>  4 0.26987286E+03</rscale>
<asrwt>0</asrwt>
<pdfrwt beam="1">  1       21 0.29134323E+00 0.26987286E+03</pdfrwt>
<pdfrwt beam="2">  1       21 0.71514306E-02 0.26987286E+03</pdfrwt>
<totfact> 0.51823830E+03</totfact>
</mgrwt>
</event>
<event>
 5    0  0.1856407E+000  0.2413613E+03  0.7546771E-02  0.1118889E+00
         21   -1    0    0  502  501  0.00000000000E+00  0.00000000000E+00  0.17511460583E+03  0.17511460583E+03  0.00000000000E+00 0.  1.
         21   -1    0    0  503  502 -0.00000000000E+00 -0.00000000000E+00 -0.81366366156E+03  0.81366366156E+03  0.00000000000E+00 0.  1.
         25    1    1    2    0    0  0.16211383571E+03 -0.13976289023E+03  0.48986895552E+02  0.25266435671E+03  0.12500000000E+03 0.  0.
         21    1    1    2  503  504 -0.83860850810E+02  0.15192728480E+03 -0.55727210428E+03  0.58366663462E+03  0.00000000000E+00 0.  1.
         21    1    1    2  504  501 -0.78252984904E+02 -0.12164394569E+02 -0.13026384701E+03  0.15244727606E+03  0.00000000000E+00 0.  1.
<mgrwt>
<rscale>  4 0.24136134E+03</rscale>
<asrwt>0</asrwt>
<pdfrwt beam="1">  1       21 0.26940709E-01 0.24136134E+03</pdfrwt>
<pdfrwt beam="2">  1       21 0.12517902E+00 0.24136134E+03</pdfrwt>
<totfact> 0.60217235E+03</totfact>
</mgrwt>
</event>
<event>
 5    0  0.1856407E+000  0.2773374E+03  0.7546771E-02  0.1097152E+00
         21   -1    0    0  502  501  0.00000000000E+00  0.00000000000E+00  0.49154830945E+02  0.49154830945E+02  0.00000000000E+00 0.  1.
         21   -1    0    0  503  502 -0.00000000000E+00 -0.00000000000E+00 -0.15331246470E+04  0.15331246470E+04  0.00000000000E+00 0.  1.
         25    1    1    2    0    0  0.66279782906E+02  0.23853311806E+03 -0.75514898653E+03  0.80446631371E+03  0.12500000000E+03 0.  0.
         21    1    1    2  503  504 -0.81943597599E+02 -0.15592653014E+03 -0.58784300581E+03  0.61366703958E+03  0.00000000000E+00 0.  1.
         21    1    1    2  504  501  0.15663814693E+02 -0.82606587916E+02 -0.14097782367E+03  0.16414612461E+03  0.00000000000E+00 0.  1.
<mgrwt>
<rscale>  4 0.27733744E+03</rscale>
<asrwt>0</asrwt>
<pdfrwt beam="1">  1       21 0.75622822E-02 0.27733744E+03</pdfrwt>
<pdfrwt beam="2">  1       21 0.23586532E+00 0.27733744E+03</pdfrwt>
<totfact> 0.99904233E+03</totfact>
</mgrwt>
</event>
<event>
 5    0  0.1856407E+000  0.2855049E+03  0.7546771E-02  0.1092720E+00
         21   -1    0    0  502  501  0.00000000000E+00  0.00000000000E+00  0.84114869513E+03  0.84114869513E+03  0.00000000000E+00 0.  1.
         21   -1    0    0  503  502 -0.00000000000E+00 -0.00000000000E+00 -0.24344539593E+03  0.24344539593E+03  0.00000000000E+00 0.  1.
         25    1    1    2    0    0 -0.25637912619E+03  0.12560897904E+02  0.73193143621E+03  0.78564410506E+03  0.12500000000E+03 0.  0.
         21    1    1    2  503  504  0.14742435586E+03 -0.42989680638E+01 -0.35530170309E+02  0.15170634407E+03  0.00000000000E+00 0.  1.
         21    1    1    2  504  501  0.10895477033E+03 -0.82619298399E+01 -0.98697966700E+02  0.14724364194E+03  0.00000000000E+00 0.  1.
<mgrwt>
<rscale>  4 0.28550487E+03</rscale>
<asrwt>0</asrwt>
<pdfrwt beam="1">  1       21 0.12940749E+00 0.28550487E+03</pdfrwt>
<pdfrwt beam="2">  1       21 0.37453138E-01 0.28550487E+03</pdfrwt>
<totfact> 0.28064981E+03</totfact>
</mgrwt>
</event>
<event>
 5    0  0.1856407E+000  0.2375704E+03  0.7546771E-02  0.1121422E+00
         21   -1    0    0  502  501  0.00000000000E+00  0.00000000000E+00  0.15251350748E+03  0.15251350748E+03  0.00000000000E+00 0.  1.
         21   -1    0    0  503  502 -0.00000000000E+00 -0.00000000000E+00 -0.33155767180E+03  0.33155767180E+03  0.00000000000E+00 0.  1.
         25    1    1    2    0    0 -0.13906302313E+03 -0.14654743595E+03 -0.81748182760E+02  0.25124179742E+03  0.12500000000E+03 0.  0.
         21    1    1    2  503  504  0.44312428564E+02  0.27548476752E+02  0.15415446970E+00  0.52177903946E+02  0.00000000000E+00 0.  1.
         21    1    1    2  504  501  0.94750594568E+02  0.11899895920E+03 -0.97450136030E+02  0.18065147792E+03  0.00000000000E+00 0.  1.
<mgrwt>
<rscale>  4 0.23757036E+03</rscale>
<asrwt>0</asrwt>
<pdfrwt beam="1">  1       21 0.23463617E-01 0.23757036E+03</pdfrwt>
<pdfrwt beam="2">  1       21 0.51008872E-01 0.23757036E+03</pdfrwt>
<totfact> 0.61250827E+04</totfact>
</mgrwt>
</event>
<event>
 5    0  0.1856407E+000  0.2505312E+03  0.7546771E-02  0.1112970E+00
         21   -1    0    0  502  501  0.00000000000E+00  0.00000000000E+00  0.82651843213E+03  0.82651843213E+03  0.00000000000E+00 0. -1.
         21   -1    0    0  503  502 -0.00000000000E+00 -0.00000000000E+00 -0.56045112996E+03  0.56045112996E+03  0.00000000000E+00 0.  1.
         25    1    1    2    0    0  0.13261701458E+03  0.17191163567E+03  0.78442610726E+03  0.82346232506E+03  0.12500000000E+03 0.  0.
         21    1    1    2  503  504 -0.20428889060E+02 -0.26471611378E+02 -0.47495043640E+02  0.58084979879E+02  0.00000000000E+00 0. -1.
         21    1    1    2  504  501 -0.11218812552E+03 -0.14544002429E+03 -0.47086376145E+03  0.50542225715E+03  0.00000000000E+00 0.  1.
<mgrwt>
<rscale>  4 0.25053120E+03</rscale>
<asrwt>0</asrwt>
<pdfrwt beam="1">  1       21 0.12715668E+00 0.25053120E+03</pdfrwt>
<pdfrwt beam="2">  1       21 0.86223251E-01 0.25053120E+03</pdfrwt>
<totfact> 0.50033340E+02</totfact>
</mgrwt>
</event>
<event>
 5    0  0.1856407E+000  0.3405764E+03  0.7546771E-02  0.1066551E+00
         21   -1    0    0  502  501  0.00000000000E+00  0.00000000000E+00  0.14724292150E+03  0.14724292150E+03  0.00000000000E+00 0.  1.
         21   -1    0    0  503  502 -0.00000000000E+00 -0.00000000000E+00 -0.18832988648E+04  0.18832988648E+04  0.00000000000E+00 0.  1.
         25    1    1    2    0    0  0.79766778974E+02  0.30660165739E+03 -0.90836211306E+02  0.35248196071E+03  0.12500000000E+03 0.  0.
         21    1    1    2  503  504 -0.13647352368E+02 -0.13111803076E+03 -0.47684632356E+03  0.49473286176E+03  0.00000000000E+00 0. -1.
         21    1    1    2  504  501 -0.66119426606E+02 -0.17548362663E+03 -0.11683734085E+04  0.11833269639E+04  0.00000000000E+00 0.  1.
<mgrwt>
<rscale>  4 0.34057645E+03</rscale>
<asrwt>0</asrwt>
<pdfrwt beam="1">  1       21 0.22652759E-01 0.34057645E+03</pdfrwt>
<pdfrwt beam="2">  1       21 0.28973827E+00 0.34057645E+03</pdfrwt>
<totfact> 0.61463429E+02</totfact>
</mgrwt>
</event>
