<event>
 5    0  0.3213897E+000  0.3394526E+03  0.7546771E-02  0.1067029E+00
         21   -1    0    0  502  501  0.00000000000E+00  0.00000000000E+00  0.75940106735E+03  0.75940106735E+03  0.00000000000E+00 0. -1.
         21   -1    0    0  503  502 -0.00000000000E+00 -0.00000000000E+00 -0.21181018970E+03  0.21181018970E+03  0.00000000000E+00 0. -1.
         25    1    1    2    0    0  0.24797546090E+03 -0.19522100738E+03  0.53713555770E+03  0.63540748994E+03  0.12500000000E+03 0.  0.
         21    1    1    2  503  504 -0.72010797798E+02  0.23708079890E+02  0.44226189447E+02  0.87770062576E+02  0.00000000000E+00 0.  1.
         21    1    1    2  504  501 -0.17596466311E+03  0.17151292749E+03 -0.33770869503E+02  0.24803370453E+03  0.00000000000E+00 0. -1.
<mgrwt>
<rscale>  4 0.33945260E+03</rscale>
<asrwt>0</asrwt>
<pdfrwt beam="1">  1       21 0.11683093E+00 0.33945260E+03</pdfrwt>
<pdfrwt beam="2">  1       21 0.32586183E-01 0.33945260E+03</pdfrwt>
<totfact> 0.46712389E+03</totfact>
</mgrwt>
</event>
<event>
 5    0  0.2159162E+000  0.2424824E+03  0.7546771E-02  0.1118150E+00
         21   -1    0    0  502  501  0.00000000000E+00  0.00000000000E+00  0.75329924344E+03  0.75329924344E+03  0.00000000000E+00 0.  1.
         21   -1    0    0  503  502 -0.00000000000E+00 -0.00000000000E+00 -0.14976968000E+04  0.14976968000E+04  0.00000000000E+00 0.  1.
         25    1    1    2    0    0 -0.20718508026E+03  0.15717591372E+02  0.72580134118E+03  0.76523544548E+03  0.12500000000E+03 0.  0.
         21    1    1    2  503  504  0.14882440481E+03 -0.34698361905E+02 -0.10131673329E+04  0.10246271147E+04  0.00000000000E+00 0.  1.
         21    1    1    2  504  501  0.58360675446E+02  0.18980770533E+02 -0.45703156480E+03  0.46113348318E+03  0.00000000000E+00 0.  1.
<mgrwt>
<rscale>  4 0.24248237E+03</rscale>
<asrwt>0</asrwt>
<pdfrwt beam="1">  1       21 0.11589219E+00 0.24248237E+03</pdfrwt>
<pdfrwt beam="2">  1       21 0.23041489E+00 0.24248237E+03</pdfrwt>
<totfact> 0.46551431E+01</totfact>
</mgrwt>
</event>
<event>
 5    0  0.2159162E+000  0.3152096E+03  0.7546771E-02  0.1077875E+00
         21   -1    0    0  502  501  0.00000000000E+00  0.00000000000E+00  0.41377037183E+03  0.41377037183E+03  0.00000000000E+00 0. -1.
         21   -1    0    0  503  502 -0.00000000000E+00 -0.00000000000E+00 -0.41796319994E+03  0.41796319994E+03  0.00000000000E+00 0. -1.
         25    1    1    2    0    0  0.33807611869E+03  0.63651734341E+02  0.18279861167E+03  0.40912997659E+03  0.12500000000E+03 0.  0.
         21    1    1    2  503  504 -0.62153269842E+02 -0.40554326187E+02  0.20042527341E+02  0.76872525825E+02  0.00000000000E+00 0. -1.
         21    1    1    2  504  501 -0.27592284885E+03 -0.23097408154E+02 -0.20703396711E+03  0.34573106936E+03  0.00000000000E+00 0. -1.
<mgrwt>
<rscale>  4 0.31520964E+03</rscale>
<asrwt>0</asrwt>
<pdfrwt beam="1">  1       21 0.63656981E-01 0.31520964E+03</pdfrwt>
<pdfrwt beam="2">  1       21 0.64302030E-01 0.31520964E+03</pdfrwt>
<totfact> 0.47160402E+03</totfact>
</mgrwt>
</event>
<event>
 5    0  0.2369819E+000  0.2788483E+03  0.7546771E-02  0.1096320E+00
         21   -1    0    0  502  501  0.00000000000E+00  0.00000000000E+00  0.31070715700E+03  0.31070715700E+03  0.00000000000E+00 0.  1.
         21   -1    0    0  503  502 -0.00000000000E+00 -0.00000000000E+00 -0.27605690558E+03  0.27605690558E+03  0.00000000000E+00 0.  1.
         25    1    1    2    0    0  0.14859629160E+03 -0.20012629416E+03  0.14202911753E+03  0.31293555521E+03  0.12500000000E+03 0.  0.
         21    1    1    2  503  504 -0.13594062489E+03  0.17386194250E+03 -0.82880887323E+02  0.23574789506E+03  0.00000000000E+00 0.  1.
         21    1    1    2  504  501 -0.12655666711E+02  0.26264351662E+02 -0.24497978793E+02  0.38080612299E+02  0.00000000000E+00 0. -1.
<mgrwt>
<rscale>  4 0.27884833E+03</rscale>
<asrwt>0</asrwt>
<pdfrwt beam="1">  1       21 0.47801101E-01 0.27884833E+03</pdfrwt>
<pdfrwt beam="2">  1       21 0.42470293E-01 0.27884833E+03</pdfrwt>
<totfact> 0.21362369E+04</totfact>
</mgrwt>
</event>
<event>
 5    0  0.2159162E+000  0.3084569E+03  0.7546771E-02  0.1081088E+00
         21   -1    0    0  502  501  0.00000000000E+00  0.00000000000E+00  0.10332914155E+03  0.10332914155E+03  0.00000000000E+00 0.  1.
         21   -1    0    0  503  502 -0.00000000000E+00 -0.00000000000E+00 -0.17941795173E+04  0.17941795173E+04  0.00000000000E+00 0.  1.
         25    1    1    2    0    0 -0.20404715991E+02 -0.28125483144E+03 -0.18122512474E+03  0.35775435494E+03  0.12500000000E+03 0.  0.
         21    1    1    2  503  504  0.49534600629E+02  0.19266450497E+03 -0.81652982332E+03  0.84041313680E+03  0.00000000000E+00 0.  1.
         21    1    1    2  504  501 -0.29129884638E+02  0.88590326472E+02 -0.69309542765E+03  0.69934116706E+03  0.00000000000E+00 0.  1.
<mgrwt>
<rscale>  4 0.30845686E+03</rscale>
<asrwt>0</asrwt>
<pdfrwt beam="1">  1       21 0.15896793E-01 0.30845686E+03</pdfrwt>
<pdfrwt beam="2">  1       21 0.27602758E+00 0.30845686E+03</pdfrwt>
<totfact> 0.14789655E+03</totfact>
</mgrwt>
</event>
