<event>
 5    0  0.2255667E+000  0.2499582E+03  0.7546771E-02  0.1113331E+00
         21   -1    0    0  502  501  0.00000000000E+00  0.00000000000E+00  0.85797969027E+02  0.85797969027E+02  0.00000000000E+00 0. -1.
         21   -1    0    0  503  502 -0.00000000000E+00 -0.00000000000E+00 -0.81007899490E+03  0.81007899490E+03  0.00000000000E+00 0. -1.
         25    1    1    2    0    0 -0.12877371502E+03  0.17398686935E+03 -0.18361218335E+03  0.31014921290E+03  0.12500000000E+03 0.  0.
         21    1    1    2  503  504  0.10323825290E+03 -0.14658128000E+03 -0.49613009179E+03  0.52753130380E+03  0.00000000000E+00 0. -1.
         21    1    1    2  504  501  0.25535462118E+02 -0.27405589353E+02 -0.44538750735E+02  0.58196447232E+02  0.00000000000E+00 0. -1.
<mgrwt>
<rscale>  4 0.24995820E+03</rscale>
<asrwt>0</asrwt>
<pdfrwt beam="1">  1       21 0.13199687E-01 0.24995820E+03</pdfrwt>
<pdfrwt beam="2">  1       21 0.12462754E+00 0.24995820E+03</pdfrwt>
<totfact> 0.23005295E+04</totfact>
</mgrwt>
</event>
<event>
 5    0  0.1856407E+000  0.2883938E+03  0.7546771E-02  0.1091191E+00
         21   -1    0    0  502  501  0.00000000000E+00  0.00000000000E+00  0.73215246375E+02  0.73215246375E+02  0.00000000000E+00 0. -1.
         21   -1    0    0  503  502 -0.00000000000E+00 -0.00000000000E+00 -0.13808311529E+04  0.13808311529E+04  0.00000000000E+00 0. -1.
         25    1    1    2    0    0  0.25201727713E+03 -0.63507996916E+02 -0.34159301209E+03  0.44705341913E+03  0.12500000000E+03 0.  0.
         21    1    1    2  503  504 -0.22230922356E+03  0.10637607606E+02 -0.79348029069E+03  0.82410285844E+03  0.00000000000E+00 0. -1.
         21    1    1    2  504  501 -0.29708053570E+02  0.52870389310E+02 -0.17254260377E+03  0.18289012173E+03  0.00000000000E+00 0. -1.
<mgrwt>
<rscale>  4 0.28839378E+03</rscale>
<asrwt>0</asrwt>
<pdfrwt beam="1">  1       21 0.11263885E-01 0.28839378E+03</pdfrwt>
<pdfrwt beam="2">  1       21 0.21243554E+00 0.28839378E+03</pdfrwt>
<totfact> 0.68481904E+03</totfact>
</mgrwt>
</event>
<event>
 5    0  0.1856407E+000  0.2476490E+03  0.7546771E-02  0.1114800E+00
         21   -1    0    0  502  501  0.00000000000E+00  0.00000000000E+00  0.73584976489E+03  0.73584976489E+03  0.00000000000E+00 0.  1.
         21   -1    0    0  503  502 -0.00000000000E+00 -0.00000000000E+00 -0.22396474424E+03  0.22396474424E+03  0.00000000000E+00 0.  1.
         25    1    1    2    0    0 -0.19988308028E+03 -0.75840402828E+02  0.65181758741E+03  0.69727769199E+03  0.12500000000E+03 0.  0.
         21    1    1    2  503  504  0.22612540498E+02  0.42067833425E+01  0.38357858667E+01  0.23318174608E+02  0.00000000000E+00 0.  1.
         21    1    1    2  504  501  0.17727053978E+03  0.71633619486E+02 -0.14376835263E+03  0.23921864253E+03  0.00000000000E+00 0.  1.
<mgrwt>
<rscale>  4 0.24764897E+03</rscale>
<asrwt>0</asrwt>
<pdfrwt beam="1">  1       21 0.11320766E+00 0.24764897E+03</pdfrwt>
<pdfrwt beam="2">  1       21 0.34456115E-01 0.24764897E+03</pdfrwt>
<totfact> 0.47496059E+03</totfact>
</mgrwt>
</event>
<event>
 5    0  0.1856407E+000  0.2936089E+03  0.7546771E-02  0.1088480E+00
         21   -1    0    0  502  501  0.00000000000E+00  0.00000000000E+00  0.10389047922E+03  0.10389047922E+03  0.00000000000E+00 0.  1.
         21   -1    0    0  503  502 -0.00000000000E+00 -0.00000000000E+00 -0.15270712473E+04  0.15270712473E+04  0.00000000000E+00 0. -1.
         25    1    1    2    0    0  0.14719115348E+03 -0.22116944146E+03 -0.15218358581E+03  0.33070530883E+03  0.12500000000E+03 0.  0.
         21    1    1    2  503  504 -0.69430828235E+01  0.41101145463E+02 -0.29478361083E+03  0.29771611943E+03  0.00000000000E+00 0.  1.
         21    1    1    2  504  501 -0.14024807066E+03  0.18006829599E+03 -0.97621357145E+03  0.10025402983E+04  0.00000000000E+00 0. -1.
<mgrwt>
<rscale>  4 0.29360885E+03</rscale>
<asrwt>0</asrwt>
<pdfrwt beam="1">  1       21 0.15983151E-01 0.29360885E+03</pdfrwt>
<pdfrwt beam="2">  1       21 0.23493404E+00 0.29360885E+03</pdfrwt>
<totfact> 0.26121543E+03</totfact>
</mgrwt>
</event>
<event>
 5    0  0.1856407E+000  0.3449840E+03  0.7546771E-02  0.1064693E+00
         21   -1    0    0  502  501  0.00000000000E+00  0.00000000000E+00  0.66420821121E+03  0.66420821121E+03  0.00000000000E+00 0. -1.
         21   -1    0    0  503  502 -0.00000000000E+00 -0.00000000000E+00 -0.29087823770E+03  0.29087823770E+03  0.00000000000E+00 0.  1.
         25    1    1    2    0    0 -0.20142881400E+03  0.28393267443E+03  0.35425642684E+03  0.51216593666E+03  0.12500000000E+03 0.  0.
         21    1    1    2  503  504  0.13672536322E+03 -0.25649876607E+03  0.12450930983E+03  0.31620880788E+03  0.00000000000E+00 0.  1.
         21    1    1    2  504  501  0.64703450782E+02 -0.27433908351E+02 -0.10543576317E+03  0.12671170438E+03  0.00000000000E+00 0.  1.
<mgrwt>
<rscale>  4 0.34498400E+03</rscale>
<asrwt>0</asrwt>
<pdfrwt beam="1">  1       21 0.10218588E+00 0.34498400E+03</pdfrwt>
<pdfrwt beam="2">  1       21 0.44750498E-01 0.34498400E+03</pdfrwt>
<totfact> 0.33957834E+03</totfact>
</mgrwt>
</event>
<event>
 5    0  0.1865278E+000  0.2383991E+03  0.7546771E-02  0.1120864E+00
         21   -1    0    0  502  501  0.00000000000E+00  0.00000000000E+00  0.33961537408E+02  0.33961537408E+02  0.00000000000E+00 0. -1.
         21   -1    0    0  503  502 -0.00000000000E+00 -0.00000000000E+00 -0.16385391066E+04  0.16385391066E+04  0.00000000000E+00 0. -1.
         25    1    1    2    0    0  0.71416894986E+02  0.19718319679E+03 -0.82705305772E+03  0.86233598225E+03  0.12500000000E+03 0.  0.
         21    1    1    2  503  504 -0.22193703208E+02 -0.50208377439E+01 -0.15872322056E+03  0.16034596976E+03  0.00000000000E+00 0. -1.
         21    1    1    2  504  501 -0.49223191778E+02 -0.19216235905E+03 -0.61880129095E+03  0.64981869204E+03  0.00000000000E+00 0. -1.
<mgrwt>
<rscale>  4 0.23839914E+03</rscale>
<asrwt>0</asrwt>
<pdfrwt beam="1">  1       21 0.52248523E-02 0.23839914E+03</pdfrwt>
<pdfrwt beam="2">  1       21 0.25208292E+00 0.23839914E+03</pdfrwt>
<totfact> 0.15533048E+04</totfact>
</mgrwt>
</event>
<event>
 5    0  0.1856407E+000  0.2532785E+03  0.7546771E-02  0.1111250E+00
         21   -1    0    0  502  501  0.00000000000E+00  0.00000000000E+00  0.63299785812E+03  0.63299785812E+03  0.00000000000E+00 0. -1.
         21   -1    0    0  503  502 -0.00000000000E+00 -0.00000000000E+00 -0.74611503195E+03  0.74611503195E+03  0.00000000000E+00 0.  1.
         25    1    1    2    0    0  0.20779334560E+03  0.76458271073E+02  0.57925984919E+03  0.63260644526E+03  0.12500000000E+03 0.  0.
         21    1    1    2  503  504 -0.19722916853E+03 -0.21155610099E+02 -0.63841036227E+03  0.66851678768E+03  0.00000000000E+00 0.  1.
         21    1    1    2  504  501 -0.10564177079E+02 -0.55302660974E+02 -0.53966660750E+02  0.77989657139E+02  0.00000000000E+00 0. -1.
<mgrwt>
<rscale>  4 0.25327848E+03</rscale>
<asrwt>0</asrwt>
<pdfrwt beam="1">  1       21 0.97384285E-01 0.25327848E+03</pdfrwt>
<pdfrwt beam="2">  1       21 0.11478693E+00 0.25327848E+03</pdfrwt>
<totfact> 0.48480337E+02</totfact>
</mgrwt>
</event>
<event>
 5    0  0.1856407E+000  0.3332482E+03  0.7546771E-02  0.1069709E+00
         21   -1    0    0  502  501  0.00000000000E+00  0.00000000000E+00  0.28085726957E+03  0.28085726957E+03  0.00000000000E+00 0. -1.
         21   -1    0    0  503  502 -0.00000000000E+00 -0.00000000000E+00 -0.14144070263E+04  0.14144070263E+04  0.00000000000E+00 0. -1.
         25    1    1    2    0    0  0.24131279846E+03 -0.19654407163E+03  0.14990303840E+03  0.36736543076E+03  0.12500000000E+03 0.  0.
         21    1    1    2  503  504 -0.36924561265E+02  0.48670326771E+00 -0.48906000296E+02  0.61281783343E+02  0.00000000000E+00 0.  1.
         21    1    1    2  504  501 -0.20438823720E+03  0.19605736836E+03 -0.12345467948E+04  0.12666170817E+04  0.00000000000E+00 0. -1.
<mgrwt>
<rscale>  4 0.33324823E+03</rscale>
<asrwt>0</asrwt>
<pdfrwt beam="1">  1       21 0.43208812E-01 0.33324823E+03</pdfrwt>
<pdfrwt beam="2">  1       21 0.21760107E+00 0.33324823E+03</pdfrwt>
<totfact> 0.46957326E+02</totfact>
</mgrwt>
</event>
<event>
 5    0  0.2538358E+000  0.3020788E+03  0.7546771E-02  0.1084314E+00
         21   -1    0    0  502  501  0.00000000000E+00  0.00000000000E+00  0.11006680630E+03  0.11006680630E+03  0.00000000000E+00 0. -1.
         21   -1    0    0  503  502 -0.00000000000E+00 -0.00000000000E+00 -0.11974931088E+04  0.11974931088E+04  0.00000000000E+00 0. -1.
         25    1    1    2    0    0  0.27266285300E+03 -0.27538295882E+02 -0.17936451278E+03  0.35057098795E+03  0.12500000000E+03 0.  0.
         21    1    1    2  503  504 -0.18959502713E+03  0.14667673517E+01 -0.41447916644E+03  0.45578657849E+03  0.00000000000E+00 0. -1.
         21    1    1    2  504  501 -0.83067825874E+02  0.26071528531E+02 -0.49358262324E+03  0.50120234862E+03  0.00000000000E+00 0. -1.
<mgrwt>
<rscale>  4 0.30186174E+03</rscale>
<asrwt>0</asrwt>
<pdfrwt beam="1">  1       21 0.16933353E-01 0.30207879E+03</pdfrwt>
<pdfrwt beam="2">  1       21 0.18422973E+00 0.30207879E+03</pdfrwt>
<totfact> 0.49466706E+03</totfact>
</mgrwt>
</event>
<event>
 5    0  0.1856407E+000  0.2584064E+03  0.7546771E-02  0.1108105E+00
         21   -1    0    0  502  501  0.00000000000E+00  0.00000000000E+00  0.49330074459E+03  0.49330074459E+03  0.00000000000E+00 0. -1.
         21   -1    0    0  503  502 -0.00000000000E+00 -0.00000000000E+00 -0.18510213679E+03  0.18510213679E+03  0.00000000000E+00 0. -1.
         25    1    1    2    0    0  0.23363781231E+03  0.12581373131E+03  0.10433189074E+03  0.31132919194E+03  0.12500000000E+03 0.  0.
         21    1    1    2  503  504 -0.20527417467E+03 -0.48669289029E+02  0.18961309632E+03  0.28365350831E+03  0.00000000000E+00 0. -1.
         21    1    1    2  504  501 -0.28363637644E+02 -0.77144442283E+02  0.14253620750E+02  0.83420181131E+02  0.00000000000E+00 0. -1.
<mgrwt>
<rscale>  4 0.25840637E+03</rscale>
<asrwt>0</asrwt>
<pdfrwt beam="1">  1       21 0.75892422E-01 0.25840637E+03</pdfrwt>
<pdfrwt beam="2">  1       21 0.28477252E-01 0.25840637E+03</pdfrwt>
<totfact> 0.17604412E+04</totfact>
</mgrwt>
</event>
<event>
 5    0  0.1856407E+000  0.3021099E+03  0.7546771E-02  0.1084191E+00
         21   -1    0    0  502  501  0.00000000000E+00  0.00000000000E+00  0.18154086610E+04  0.18154086610E+04  0.00000000000E+00 0.  1.
         21   -1    0    0  503  502 -0.00000000000E+00 -0.00000000000E+00 -0.12695338630E+03  0.12695338630E+03  0.00000000000E+00 0. -1.
         25    1    1    2    0    0  0.19994779074E+03 -0.19089728260E+03  0.15486156052E+04  0.15780545568E+04  0.12500000000E+03 0.  0.
         21    1    1    2  503  504 -0.15750550929E+03  0.22120447630E+03  0.15137878568E+03  0.31089378017E+03  0.00000000000E+00 0. -1.
         21    1    1    2  504  501 -0.42442281447E+02 -0.30307193705E+02 -0.11539116227E+02  0.53413710300E+02  0.00000000000E+00 0. -1.
<mgrwt>
<rscale>  4 0.30210989E+03</rscale>
<asrwt>0</asrwt>
<pdfrwt beam="1">  1       21 0.27929362E+00 0.30210989E+03</pdfrwt>
<pdfrwt beam="2">  1       21 0.19531292E-01 0.30210989E+03</pdfrwt>
<totfact> 0.96824797E+02</totfact>
</mgrwt>
</event>
<event>
 5    0  0.1856407E+000  0.3181885E+03  0.7546771E-02  0.1076486E+00
         21   -1    0    0  502  501  0.00000000000E+00  0.00000000000E+00  0.62627221267E+03  0.62627221267E+03  0.00000000000E+00 0.  1.
         21   -1    0    0  503  502 -0.00000000000E+00 -0.00000000000E+00 -0.52944917514E+03  0.52944917514E+03  0.00000000000E+00 0.  1.
         25    1    1    2    0    0  0.18135230503E+03 -0.22963074966E+03  0.53449624007E+03  0.62203711334E+03  0.12500000000E+03 0.  0.
         21    1    1    2  503  504  0.21560200602E+01  0.30222494888E+02 -0.21874437867E+02  0.37370291031E+02  0.00000000000E+00 0.  1.
         21    1    1    2  504  501 -0.18350832509E+03  0.19940825477E+03 -0.41579876467E+03  0.49631398343E+03  0.00000000000E+00 0.  1.
<mgrwt>
<rscale>  4 0.31818853E+03</rscale>
<asrwt>0</asrwt>
<pdfrwt beam="1">  1       21 0.96349571E-01 0.31818853E+03</pdfrwt>
<pdfrwt beam="2">  1       21 0.81453719E-01 0.31818853E+03</pdfrwt>
<totfact> 0.10740703E+03</totfact>
</mgrwt>
</event>
<event>
 5    0  0.1856407E+000  0.2468480E+03  0.7546771E-02  0.1115313E+00
         21   -1    0    0  502  501  0.00000000000E+00  0.00000000000E+00  0.37844803635E+03  0.37844803635E+03  0.00000000000E+00 0.  1.
         21   -1    0    0  503  502 -0.00000000000E+00 -0.00000000000E+00 -0.19641550860E+04  0.19641550860E+04  0.00000000000E+00 0. -1.
         25    1    1    2    0    0  0.73714893690E+02 -0.22017472334E+03  0.31020310135E+03  0.40713850031E+03  0.12500000000E+03 0.  0.
         21    1    1    2  503  504 -0.56214473202E+02  0.95093284996E+02 -0.16920423757E+04  0.16956444796E+04  0.00000000000E+00 0. -1.
         21    1    1    2  504  501 -0.17500420488E+02  0.12508143834E+03 -0.20386777525E+03  0.23982014244E+03  0.00000000000E+00 0.  1.
<mgrwt>
<rscale>  4 0.24684796E+03</rscale>
<asrwt>0</asrwt>
<pdfrwt beam="1">  1       21 0.58222774E-01 0.24684796E+03</pdfrwt>
<pdfrwt beam="2">  1       21 0.30217771E+00 0.24684796E+03</pdfrwt>
<totfact> 0.84622011E+01</totfact>
</mgrwt>
</event>
<event>
 5    0  0.1856407E+000  0.2706212E+03  0.7546771E-02  0.1100925E+00
         21   -1    0    0  502  501  0.00000000000E+00  0.00000000000E+00  0.25724822111E+03  0.25724822111E+03  0.00000000000E+00 0.  1.
         21   -1    0    0  503  502 -0.00000000000E+00 -0.00000000000E+00 -0.34306412654E+03  0.34306412654E+03  0.00000000000E+00 0. -1.
         25    1    1    2    0    0 -0.21971521475E+03 -0.96623398335E+02  0.99037114122E+02  0.28817391740E+03  0.12500000000E+03 0.  0.
         21    1    1    2  503  504  0.13831394199E+03  0.65553029848E+02 -0.16024720880E+03  0.22160125044E+03  0.00000000000E+00 0. -1.
         21    1    1    2  504  501  0.81401272759E+02  0.31070368487E+02 -0.24605810756E+02  0.90537179808E+02  0.00000000000E+00 0.  1.
<mgrwt>
<rscale>  4 0.27062124E+03</rscale>
<asrwt>0</asrwt>
<pdfrwt beam="1">  1       21 0.39576649E-01 0.27062124E+03</pdfrwt>
<pdfrwt beam="2">  1       21 0.52779096E-01 0.27062124E+03</pdfrwt>
<totfact> 0.20105328E+04</totfact>
</mgrwt>
</event>
