<event>
 5    0  0.9248467E-003  0.3430793E+03  0.7546771E-02  0.1065492E+00
         21   -1    0    0  502  501  0.00000000000E+00  0.00000000000E+00  0.68638545175E+03  0.68638545175E+03  0.00000000000E+00 0. -1.
         21   -1    0    0  503  502 -0.00000000000E+00 -0.00000000000E+00 -0.24192665757E+03  0.24192665757E+03  0.00000000000E+00 0. -1.
         25    1    1    2    0    0 -0.77038264262E+02  0.19988615716E+03  0.19642173394E+03  0.31637930961E+03  0.12500000000E+03 0.  0.
         21    1    1    2  503  504  0.23267610858E+03 -0.14093919623E+03 -0.44227430821E+02  0.27560496036E+03  0.00000000000E+00 0.  1.
         21    1    1    2  504  501 -0.15563784432E+03 -0.58946960932E+02  0.29226449106E+03  0.33632783935E+03  0.00000000000E+00 0.  1.
<mgrwt>
<rscale>  4 0.34307933E+03</rscale>
<asrwt>0</asrwt>
<pdfrwt beam="1">  1       21 0.10559776E+00 0.34307933E+03</pdfrwt>
<pdfrwt beam="2">  1       21 0.37219486E-01 0.34307933E+03</pdfrwt>
<totfact> 0.45805685E+03</totfact>
</mgrwt>
</event>
<event>
 5    0  0.3120399E-003  0.6258334E+03  0.7546771E-02  0.9853214E-01
         21   -1    0    0  504  501  0.00000000000E+00  0.00000000000E+00  0.23496063049E+04  0.23496063049E+04  0.00000000000E+00 0.  1.
         21   -1    0    0  501  502 -0.00000000000E+00 -0.00000000000E+00 -0.17118593010E+03  0.17118593010E+03  0.00000000000E+00 0.  1.
         25    1    1    2    0    0  0.59488141421E+03  0.14289423471E+03  0.11604045925E+04  0.13177505370E+04  0.12500000000E+03 0.  0.
         21    1    1    2  503  502 -0.40994607713E+02 -0.56063049257E+02  0.19679358234E+03  0.20868957186E+03  0.00000000000E+00 0. -1.
         21    1    1    2  504  503 -0.55388680649E+03 -0.86831185455E+02  0.82122219991E+03  0.99435212616E+03  0.00000000000E+00 0.  1.
<mgrwt>
<rscale>  4 0.62583340E+03</rscale>
<asrwt>0</asrwt>
<pdfrwt beam="1">  1       21 0.36147787E+00 0.62583340E+03</pdfrwt>
<pdfrwt beam="2">  1       21 0.26336299E-01 0.62583340E+03</pdfrwt>
<totfact> 0.14242814E+02</totfact>
</mgrwt>
</event>
<event>
 5    0  0.3120399E-003  0.4185764E+03  0.7546771E-02  0.1037531E+00
         21   -1    0    0  503  501  0.00000000000E+00  0.00000000000E+00  0.39386274413E+03  0.39386274413E+03  0.00000000000E+00 0. -1.
         21   -1    0    0  501  502 -0.00000000000E+00 -0.00000000000E+00 -0.52073345612E+03  0.52073345612E+03  0.00000000000E+00 0. -1.
         25    1    1    2    0    0 -0.25226708341E+03  0.26407122033E+03  0.49933942877E+01  0.38603396841E+03  0.12500000000E+03 0.  0.
         21    1    1    2  503  504  0.29996982122E+03 -0.12175097639E+03 -0.18065327090E+03  0.37073008804E+03  0.00000000000E+00 0. -1.
         21    1    1    2  504  502 -0.47702737810E+02 -0.14232024394E+03  0.48789164615E+02  0.15783214380E+03  0.00000000000E+00 0. -1.
<mgrwt>
<rscale>  4 0.41857639E+03</rscale>
<asrwt>0</asrwt>
<pdfrwt beam="1">  1       21 0.60594269E-01 0.41857639E+03</pdfrwt>
<pdfrwt beam="2">  1       21 0.80112839E-01 0.41857639E+03</pdfrwt>
<totfact> 0.30640589E+03</totfact>
</mgrwt>
</event>
<event>
 5    0  0.3120399E-003  0.4164891E+03  0.7546771E-02  0.1038215E+00
         21   -1    0    0  504  501  0.00000000000E+00  0.00000000000E+00  0.44623775450E+03  0.44623775450E+03  0.00000000000E+00 0. -1.
         21   -1    0    0  501  502 -0.00000000000E+00 -0.00000000000E+00 -0.45355407674E+03  0.45355407674E+03  0.00000000000E+00 0. -1.
         25    1    1    2    0    0  0.23250913554E+03 -0.22302413450E+02  0.42945770333E+02  0.26837890182E+03  0.12500000000E+03 0.  0.
         21    1    1    2  503  502 -0.21312194700E+03  0.26425916442E+03 -0.14721366672E+03  0.37003477396E+03  0.00000000000E+00 0.  1.
         21    1    1    2  504  503 -0.19387188544E+02 -0.24195675097E+03  0.96951574144E+02  0.26137815545E+03  0.00000000000E+00 0. -1.
<mgrwt>
<rscale>  4 0.41648911E+03</rscale>
<asrwt>0</asrwt>
<pdfrwt beam="1">  1       21 0.68651963E-01 0.41648911E+03</pdfrwt>
<pdfrwt beam="2">  1       21 0.69777550E-01 0.41648911E+03</pdfrwt>
<totfact> 0.31845018E+03</totfact>
</mgrwt>
</event>
<event>
 5    0  0.3120399E-003  0.5492070E+03  0.7546771E-02  0.1001678E+00
         21   -1    0    0  503  501  0.00000000000E+00  0.00000000000E+00  0.34511354483E+03  0.34511354483E+03  0.00000000000E+00 0.  1.
         21   -1    0    0  501  502 -0.00000000000E+00 -0.00000000000E+00 -0.89121696472E+03  0.89121696472E+03  0.00000000000E+00 0.  1.
         25    1    1    2    0    0  0.35383991597E+03  0.77509198552E+01 -0.21357418566E+03  0.43185842087E+03  0.12500000000E+03 0.  0.
         21    1    1    2  503  504 -0.51160427147E+03 -0.99935508581E+02 -0.33869866143E+03  0.62164525231E+03  0.00000000000E+00 0.  1.
         21    1    1    2  504  502  0.15776435550E+03  0.92184588726E+02  0.61694271937E+01  0.18282683637E+03  0.00000000000E+00 0. -1.
<mgrwt>
<rscale>  4 0.54920700E+03</rscale>
<asrwt>0</asrwt>
<pdfrwt beam="1">  1       21 0.53094391E-01 0.54920700E+03</pdfrwt>
<pdfrwt beam="2">  1       21 0.13711030E+00 0.54920700E+03</pdfrwt>
<totfact> 0.10362391E+03</totfact>
</mgrwt>
</event>
<event>
 5    0  0.3120399E-003  0.3507023E+03  0.7546771E-02  0.1062327E+00
         21   -1    0    0  503  501  0.00000000000E+00  0.00000000000E+00  0.32310969270E+03  0.32310969270E+03  0.00000000000E+00 0.  1.
         21   -1    0    0  501  502 -0.00000000000E+00 -0.00000000000E+00 -0.57783319239E+03  0.57783319239E+03  0.00000000000E+00 0.  1.
         25    1    1    2    0    0 -0.20166069938E+03  0.14586682257E+03  0.81777949558E+02  0.29027022003E+03  0.12500000000E+03 0.  0.
         21    1    1    2  503  504  0.27794280494E+03 -0.29909899791E+01 -0.35137812386E+03  0.44802648891E+03  0.00000000000E+00 0.  1.
         21    1    1    2  504  502 -0.76282105560E+02 -0.14287583259E+03  0.14876674612E+02  0.16264617615E+03  0.00000000000E+00 0.  1.
<mgrwt>
<rscale>  4 0.35070225E+03</rscale>
<asrwt>0</asrwt>
<pdfrwt beam="1">  1       21 0.49709185E-01 0.35070225E+03</pdfrwt>
<pdfrwt beam="2">  1       21 0.88897412E-01 0.35070225E+03</pdfrwt>
<totfact> 0.37876166E+03</totfact>
</mgrwt>
</event>
<event>
 5    0  0.3120399E-003  0.2445871E+03  0.7546771E-02  0.1116774E+00
         21   -1    0    0  504  501  0.00000000000E+00  0.00000000000E+00  0.93788970143E+03  0.93788970143E+03  0.00000000000E+00 0. -1.
         21   -1    0    0  501  502 -0.00000000000E+00 -0.00000000000E+00 -0.51840638702E+03  0.51840638702E+03  0.00000000000E+00 0. -1.
         25    1    1    2    0    0 -0.23473447453E+03 -0.83284210334E+02  0.80754829782E+03  0.85428085928E+03  0.12500000000E+03 0.  0.
         21    1    1    2  503  502  0.10640871856E+03  0.55246550792E+02 -0.44351706444E+03  0.45943702856E+03  0.00000000000E+00 0.  1.
         21    1    1    2  504  503  0.12832575597E+03  0.28037659542E+02  0.55452081025E+02  0.14257820060E+03  0.00000000000E+00 0. -1.
<mgrwt>
<rscale>  4 0.24458713E+03</rscale>
<asrwt>0</asrwt>
<pdfrwt beam="1">  1       21 0.14429072E+00 0.24458713E+03</pdfrwt>
<pdfrwt beam="2">  1       21 0.79754829E-01 0.24458713E+03</pdfrwt>
<totfact> 0.43417660E+02</totfact>
</mgrwt>
</event>
<event>
 5    0  0.3120399E-003  0.5556694E+03  0.7546771E-02  0.1000190E+00
         21   -1    0    0  502  501  0.00000000000E+00  0.00000000000E+00  0.80257880886E+02  0.80257880886E+02  0.00000000000E+00 0. -1.
         21   -1    0    0  504  502 -0.00000000000E+00 -0.00000000000E+00 -0.39101671203E+04  0.39101671203E+04  0.00000000000E+00 0. -1.
         25    1    1    2    0    0  0.44171932682E+03 -0.11726660974E+03 -0.19065373229E+04  0.19645297109E+04  0.12500000000E+03 0.  0.
         21    1    1    2  503  501 -0.42132852455E+03  0.25393603353E+03 -0.16083123412E+04  0.16818649832E+04  0.00000000000E+00 0. -1.
         21    1    1    2  504  503 -0.20390802267E+02 -0.13666942379E+03 -0.31505957528E+03  0.34403030709E+03  0.00000000000E+00 0. -1.
<mgrwt>
<rscale>  4 0.55566940E+03</rscale>
<asrwt>0</asrwt>
<pdfrwt beam="1">  1       21 0.12347366E-01 0.55566940E+03</pdfrwt>
<pdfrwt beam="2">  1       21 0.60156418E+00 0.55566940E+03</pdfrwt>
<totfact> 0.12740518E+01</totfact>
</mgrwt>
</event>
<event>
 5    0  0.3120399E-003  0.3485360E+03  0.7546771E-02  0.1063218E+00
         21   -1    0    0  504  501  0.00000000000E+00  0.00000000000E+00  0.14438450080E+03  0.14438450080E+03  0.00000000000E+00 0. -1.
         21   -1    0    0  501  502 -0.00000000000E+00 -0.00000000000E+00 -0.11367883650E+04  0.11367883650E+04  0.00000000000E+00 0. -1.
         25    1    1    2    0    0  0.17492003489E+03  0.15330638781E+03 -0.66494162307E+03  0.71545246469E+03  0.12500000000E+03 0.  0.
         21    1    1    2  503  502 -0.70302787238E+02  0.12066536983E+03 -0.20469176466E+03  0.24779292139E+03  0.00000000000E+00 0. -1.
         21    1    1    2  504  503 -0.10461724765E+03 -0.27397175763E+03 -0.12277047651E+03  0.31792747976E+03  0.00000000000E+00 0.  1.
<mgrwt>
<rscale>  4 0.34853597E+03</rscale>
<asrwt>0</asrwt>
<pdfrwt beam="1">  1       21 0.22213000E-01 0.34853597E+03</pdfrwt>
<pdfrwt beam="2">  1       21 0.17489052E+00 0.34853597E+03</pdfrwt>
<totfact> 0.33597470E+03</totfact>
</mgrwt>
</event>
<event>
 5    0  0.3120399E-003  0.2913945E+03  0.7546771E-02  0.1089623E+00
         21   -1    0    0  503  501  0.00000000000E+00  0.00000000000E+00  0.12711888267E+03  0.12711888267E+03  0.00000000000E+00 0.  1.
         21   -1    0    0  501  502 -0.00000000000E+00 -0.00000000000E+00 -0.75240473305E+03  0.75240473305E+03  0.00000000000E+00 0.  1.
         25    1    1    2    0    0 -0.80371802482E+02  0.22857285981E+03 -0.37594742081E+03  0.46439922705E+03  0.12500000000E+03 0.  0.
         21    1    1    2  503  504  0.24766394424E+02 -0.21192879222E+02  0.42033025535E+02  0.53191048665E+02  0.00000000000E+00 0.  1.
         21    1    1    2  504  502  0.55605408058E+02 -0.20737998059E+03 -0.29137145511E+03  0.36193334000E+03  0.00000000000E+00 0.  1.
<mgrwt>
<rscale>  4 0.29139446E+03</rscale>
<asrwt>0</asrwt>
<pdfrwt beam="1">  1       21 0.19556751E-01 0.29139446E+03</pdfrwt>
<pdfrwt beam="2">  1       21 0.11575457E+00 0.29139446E+03</pdfrwt>
<totfact> 0.13127540E+04</totfact>
</mgrwt>
</event>
<event>
 5    0  0.3120399E-003  0.2170267E+03  0.7546771E-02  0.1136119E+00
         21   -1    0    0  504  501  0.00000000000E+00  0.00000000000E+00  0.39534562258E+03  0.39534562258E+03  0.00000000000E+00 0. -1.
         21   -1    0    0  501  502 -0.00000000000E+00 -0.00000000000E+00 -0.15955043945E+03  0.15955043945E+03  0.00000000000E+00 0. -1.
         25    1    1    2    0    0  0.20349982737E+03  0.46006247621E+02  0.56170051085E+02  0.24961736558E+03  0.12500000000E+03 0.  0.
         21    1    1    2  503  502 -0.58430881689E+02 -0.55174402703E+02  0.85940518402E+01  0.80822276481E+02  0.00000000000E+00 0.  1.
         21    1    1    2  504  503 -0.14506894568E+03  0.91681550826E+01  0.17103108020E+03  0.22445641997E+03  0.00000000000E+00 0. -1.
<mgrwt>
<rscale>  4 0.21702670E+03</rscale>
<asrwt>0</asrwt>
<pdfrwt beam="1">  1       21 0.60822403E-01 0.21702670E+03</pdfrwt>
<pdfrwt beam="2">  1       21 0.24546222E-01 0.21702670E+03</pdfrwt>
<totfact> 0.38984828E+04</totfact>
</mgrwt>
</event>
<event>
 5    0  0.3120399E-003  0.3483089E+03  0.7546771E-02  0.1063311E+00
         21   -1    0    0  502  501  0.00000000000E+00  0.00000000000E+00  0.27619018038E+03  0.27619018038E+03  0.00000000000E+00 0.  1.
         21   -1    0    0  504  502 -0.00000000000E+00 -0.00000000000E+00 -0.52474708595E+03  0.52474708595E+03  0.00000000000E+00 0.  1.
         25    1    1    2    0    0  0.22364500609E+03  0.12174884395E+03 -0.31269288046E+02  0.28538156585E+03  0.12500000000E+03 0.  0.
         21    1    1    2  503  501  0.56746699422E+02  0.39726738375E+02  0.58297157265E+02  0.90537065241E+02  0.00000000000E+00 0.  1.
         21    1    1    2  504  503 -0.28039170551E+03 -0.16147558233E+03 -0.27558477478E+03  0.42501863524E+03  0.00000000000E+00 0. -1.
<mgrwt>
<rscale>  4 0.34830887E+03</rscale>
<asrwt>0</asrwt>
<pdfrwt beam="1">  1       21 0.42490797E-01 0.34830887E+03</pdfrwt>
<pdfrwt beam="2">  1       21 0.80730321E-01 0.34830887E+03</pdfrwt>
<totfact> 0.65831817E+03</totfact>
</mgrwt>
</event>
<event>
 5    0  0.3120399E-003  0.3248974E+03  0.7546771E-02  0.1073417E+00
         21   -1    0    0  503  501  0.00000000000E+00  0.00000000000E+00  0.12521680254E+03  0.12521680254E+03  0.00000000000E+00 0.  1.
         21   -1    0    0  501  502 -0.00000000000E+00 -0.00000000000E+00 -0.16558737949E+04  0.16558737949E+04  0.00000000000E+00 0.  1.
         25    1    1    2    0    0  0.36730972126E+02 -0.29909681433E+03 -0.33980002890E+03  0.47105958041E+03  0.12500000000E+03 0.  0.
         21    1    1    2  503  504 -0.11763902745E+03  0.10049800471E+03 -0.71724992145E+02  0.17053816062E+03  0.00000000000E+00 0.  1.
         21    1    1    2  504  502  0.80908055323E+02  0.19859880962E+03 -0.11191319713E+04  0.11394928564E+04  0.00000000000E+00 0.  1.
<mgrwt>
<rscale>  4 0.32489739E+03</rscale>
<asrwt>0</asrwt>
<pdfrwt beam="1">  1       21 0.19264125E-01 0.32489739E+03</pdfrwt>
<pdfrwt beam="2">  1       21 0.25474980E+00 0.32489739E+03</pdfrwt>
<totfact> 0.13677846E+03</totfact>
</mgrwt>
</event>
<event>
 5    0  0.3120399E-003  0.2721879E+03  0.7546771E-02  0.1100034E+00
         21   -1    0    0  503  501  0.00000000000E+00  0.00000000000E+00  0.83496017139E+03  0.83496017139E+03  0.00000000000E+00 0. -1.
         21   -1    0    0  501  502 -0.00000000000E+00 -0.00000000000E+00 -0.94421131823E+02  0.94421131823E+02  0.00000000000E+00 0. -1.
         25    1    1    2    0    0 -0.16418351869E+03  0.15824811177E+03  0.35463841737E+03  0.43976368628E+03  0.12500000000E+03 0.  0.
         21    1    1    2  503  504 -0.25642102430E+02 -0.17568719458E+02  0.15909789775E+03  0.16210588635E+03  0.00000000000E+00 0.  1.
         21    1    1    2  504  502  0.18982562112E+03 -0.14067939231E+03  0.22680272444E+03  0.32751173058E+03  0.00000000000E+00 0. -1.
<mgrwt>
<rscale>  4 0.27218788E+03</rscale>
<asrwt>0</asrwt>
<pdfrwt beam="1">  1       21 0.12845541E+00 0.27218788E+03</pdfrwt>
<pdfrwt beam="2">  1       21 0.14526329E-01 0.27218788E+03</pdfrwt>
<totfact> 0.17699690E+04</totfact>
</mgrwt>
</event>
<event>
 5    0  0.3120399E-003  0.4009914E+03  0.7546771E-02  0.1043437E+00
         21   -1    0    0  503  501  0.00000000000E+00  0.00000000000E+00  0.57601535758E+03  0.57601535758E+03  0.00000000000E+00 0. -1.
         21   -1    0    0  501  502 -0.00000000000E+00 -0.00000000000E+00 -0.30798838495E+03  0.30798838495E+03  0.00000000000E+00 0. -1.
         25    1    1    2    0    0  0.29964982638E+03  0.31517801028E+02  0.29742693223E+03  0.44144214824E+03  0.12500000000E+03 0.  0.
         21    1    1    2  503  504  0.49105239646E+02 -0.72852662643E+02 -0.24974659257E+02  0.91337662658E+02  0.00000000000E+00 0.  1.
         21    1    1    2  504  502 -0.34875506603E+03  0.41334861615E+02 -0.44253003317E+01  0.35122393163E+03  0.00000000000E+00 0. -1.
<mgrwt>
<rscale>  4 0.40099145E+03</rscale>
<asrwt>0</asrwt>
<pdfrwt beam="1">  1       21 0.88617747E-01 0.40099145E+03</pdfrwt>
<pdfrwt beam="2">  1       21 0.47382829E-01 0.40099145E+03</pdfrwt>
<totfact> 0.41342594E+03</totfact>
</mgrwt>
</event>
<event>
 5    0  0.3120399E-003  0.3773525E+03  0.7546771E-02  0.1051917E+00
         21   -1    0    0  502  501  0.00000000000E+00  0.00000000000E+00  0.36997339536E+03  0.36997339536E+03  0.00000000000E+00 0.  1.
         21   -1    0    0  504  502 -0.00000000000E+00 -0.00000000000E+00 -0.40494967610E+03  0.40494967610E+03  0.00000000000E+00 0.  1.
         25    1    1    2    0    0 -0.14403495604E+03  0.16877581401E+03 -0.11886043476E+03  0.28104118365E+03  0.12500000000E+03 0.  0.
         21    1    1    2  503  501 -0.14866167677E+03 -0.91329469323E+02  0.77843594110E+02  0.19105232595E+03  0.00000000000E+00 0.  1.
         21    1    1    2  504  503  0.29269663281E+03 -0.77446344692E+02  0.60405599109E+01  0.30282956185E+03  0.00000000000E+00 0.  1.
<mgrwt>
<rscale>  4 0.37735252E+03</rscale>
<asrwt>0</asrwt>
<pdfrwt beam="1">  1       21 0.56918984E-01 0.37735252E+03</pdfrwt>
<pdfrwt beam="2">  1       21 0.62299951E-01 0.37735252E+03</pdfrwt>
<totfact> 0.62817344E+03</totfact>
</mgrwt>
</event>
<event>
 5    0  0.3120399E-003  0.2675353E+03  0.7546771E-02  0.1102699E+00
         21   -1    0    0  502  501  0.00000000000E+00  0.00000000000E+00  0.41243553784E+03  0.41243553784E+03  0.00000000000E+00 0. -1.
         21   -1    0    0  503  502 -0.00000000000E+00 -0.00000000000E+00 -0.21055077316E+03  0.21055077316E+03  0.00000000000E+00 0. -1.
         25    1    1    2    0    0 -0.19468893995E+03 -0.10821121497E+03  0.23996588196E+03  0.35045980496E+03  0.12500000000E+03 0.  0.
         21    1    1    2  503  504  0.74732644150E+02 -0.21338965967E+02 -0.54922166005E+02  0.95167031523E+02  0.00000000000E+00 0. -1.
         21    1    1    2  504  501  0.11995629580E+03  0.12955018093E+03  0.16841048715E+02  0.17735947452E+03  0.00000000000E+00 0. -1.
<mgrwt>
<rscale>  4 0.26753526E+03</rscale>
<asrwt>0</asrwt>
<pdfrwt beam="1">  1       21 0.63451621E-01 0.26753526E+03</pdfrwt>
<pdfrwt beam="2">  1       21 0.32392427E-01 0.26753526E+03</pdfrwt>
<totfact> 0.20246910E+04</totfact>
</mgrwt>
</event>
<event>
 5    0  0.3120399E-003  0.5297885E+03  0.7546771E-02  0.1006283E+00
         21   -1    0    0  503  501  0.00000000000E+00  0.00000000000E+00  0.10923302248E+03  0.10923302248E+03  0.00000000000E+00 0.  1.
         21   -1    0    0  501  502 -0.00000000000E+00 -0.00000000000E+00 -0.26578825178E+04  0.26578825178E+04  0.00000000000E+00 0.  1.
         25    1    1    2    0    0  0.37454411050E+03 -0.83870938819E+02 -0.84632525905E+03  0.93766148966E+03  0.12500000000E+03 0.  0.
         21    1    1    2  503  504 -0.35408311518E+03  0.27982406220E+03 -0.94983145627E+03  0.10515969539E+04  0.00000000000E+00 0.  1.
         21    1    1    2  504  502 -0.20460995324E+02 -0.19595312338E+03 -0.75249278005E+03  0.77785709672E+03  0.00000000000E+00 0.  1.
<mgrwt>
<rscale>  4 0.52978851E+03</rscale>
<asrwt>0</asrwt>
<pdfrwt beam="1">  1       21 0.16805080E-01 0.52978851E+03</pdfrwt>
<pdfrwt beam="2">  1       21 0.40890501E+00 0.52978851E+03</pdfrwt>
<totfact> 0.17684339E+02</totfact>
</mgrwt>
</event>
<event>
 5    0  0.3120399E-003  0.4241423E+03  0.7546771E-02  0.1035727E+00
         21   -1    0    0  504  501  0.00000000000E+00  0.00000000000E+00  0.18063667721E+04  0.18063667721E+04  0.00000000000E+00 0.  1.
         21   -1    0    0  501  502 -0.00000000000E+00 -0.00000000000E+00 -0.14127727206E+03  0.14127727206E+03  0.00000000000E+00 0.  1.
         25    1    1    2    0    0 -0.12102579761E+03 -0.16953281191E+03  0.54661614484E+03  0.59816622088E+03  0.12500000000E+03 0.  0.
         21    1    1    2  503  502  0.32175008939E+03 -0.27613232003E+02  0.17993975609E+03  0.36968084400E+03  0.00000000000E+00 0.  1.
         21    1    1    2  504  503 -0.20072429178E+03  0.19714604391E+03  0.93853359914E+03  0.97979697930E+03  0.00000000000E+00 0.  1.
<mgrwt>
<rscale>  4 0.42414231E+03</rscale>
<asrwt>0</asrwt>
<pdfrwt beam="1">  1       21 0.27790256E+00 0.42414231E+03</pdfrwt>
<pdfrwt beam="2">  1       21 0.21734966E-01 0.42414231E+03</pdfrwt>
<totfact> 0.74138087E+02</totfact>
</mgrwt>
</event>
<event>
 5    0  0.3120399E-003  0.5449147E+03  0.7546771E-02  0.1002678E+00
         21   -1    0    0  503  501  0.00000000000E+00  0.00000000000E+00  0.10304814408E+04  0.10304814408E+04  0.00000000000E+00 0.  1.
         21   -1    0    0  501  502 -0.00000000000E+00 -0.00000000000E+00 -0.31281081907E+03  0.31281081907E+03  0.00000000000E+00 0.  1.
         25    1    1    2    0    0 -0.29832465860E+03  0.38207518027E+03  0.22639285481E+03  0.54941584435E+03  0.12500000000E+03 0.  0.
         21    1    1    2  503  504 -0.74284912489E+02 -0.71717621527E+02 -0.45021279859E+00  0.10325632258E+03  0.00000000000E+00 0. -1.
         21    1    1    2  504  502  0.37260957109E+03 -0.31035755875E+03  0.49172797974E+03  0.69062009296E+03  0.00000000000E+00 0.  1.
<mgrwt>
<rscale>  4 0.54491471E+03</rscale>
<asrwt>0</asrwt>
<pdfrwt beam="1">  1       21 0.15853560E+00 0.54491471E+03</pdfrwt>
<pdfrwt beam="2">  1       21 0.48124742E-01 0.54491471E+03</pdfrwt>
<totfact> 0.86254467E+02</totfact>
</mgrwt>
</event>
<event>
 5    0  0.3120399E-003  0.2845439E+03  0.7546771E-02  0.1093233E+00
         21   -1    0    0  504  501  0.00000000000E+00  0.00000000000E+00  0.55608649915E+02  0.55608649915E+02  0.00000000000E+00 0.  1.
         21   -1    0    0  501  502 -0.00000000000E+00 -0.00000000000E+00 -0.26013503854E+04  0.26013503854E+04  0.00000000000E+00 0.  1.
         25    1    1    2    0    0 -0.25137897531E+03  0.45742907205E+01 -0.40372930921E+03  0.49176688428E+03  0.12500000000E+03 0.  0.
         21    1    1    2  503  502  0.17730001438E+03 -0.76198827762E+02 -0.17195392204E+04  0.17303342703E+04  0.00000000000E+00 0.  1.
         21    1    1    2  504  503  0.74078960934E+02  0.71624537041E+02 -0.42247320592E+03  0.43485788079E+03  0.00000000000E+00 0. -1.
<mgrwt>
<rscale>  4 0.28454386E+03</rscale>
<asrwt>0</asrwt>
<pdfrwt beam="1">  1       21 0.85551771E-02 0.28454386E+03</pdfrwt>
<pdfrwt beam="2">  1       21 0.40020774E+00 0.28454386E+03</pdfrwt>
<totfact> 0.82493331E+02</totfact>
</mgrwt>
</event>
<event>
 5    0  0.3120399E-003  0.3432536E+03  0.7546771E-02  0.1065419E+00
         21   -1    0    0  502  501  0.00000000000E+00  0.00000000000E+00  0.61329700687E+03  0.61329700687E+03  0.00000000000E+00 0. -1.
         21   -1    0    0  504  502 -0.00000000000E+00 -0.00000000000E+00 -0.22721366222E+03  0.22721366222E+03  0.00000000000E+00 0. -1.
         25    1    1    2    0    0  0.91180419574E+02 -0.19040862622E+03  0.41694274059E+03  0.48377222200E+03  0.12500000000E+03 0.  0.
         21    1    1    2  503  501 -0.81528657877E+02  0.21488330102E+03  0.79573185836E+02  0.24321522776E+03  0.00000000000E+00 0.  1.
         21    1    1    2  504  503 -0.96517616972E+01 -0.24474674794E+02 -0.11043258177E+03  0.11352321933E+03  0.00000000000E+00 0.  1.
<mgrwt>
<rscale>  4 0.34325358E+03</rscale>
<asrwt>0</asrwt>
<pdfrwt beam="1">  1       21 0.94353385E-01 0.34325358E+03</pdfrwt>
<pdfrwt beam="2">  1       21 0.34955948E-01 0.34325358E+03</pdfrwt>
<totfact> 0.68206777E+03</totfact>
</mgrwt>
</event>
<event>
 5    0  0.3120399E-003  0.3847135E+03  0.7546771E-02  0.1049205E+00
         21   -1    0    0  504  501  0.00000000000E+00  0.00000000000E+00  0.53707454178E+03  0.53707454178E+03  0.00000000000E+00 0. -1.
         21   -1    0    0  501  502 -0.00000000000E+00 -0.00000000000E+00 -0.27643436472E+03  0.27643436472E+03  0.00000000000E+00 0. -1.
         25    1    1    2    0    0 -0.20217406807E+03 -0.17708318480E+03  0.11161261877E+03  0.31672572490E+03  0.12500000000E+03 0.  0.
         21    1    1    2  503  502 -0.38983703070E+02 -0.98369199738E+02  0.14763895061E+02  0.10683726484E+03  0.00000000000E+00 0.  1.
         21    1    1    2  504  503  0.24115777114E+03  0.27545238454E+03  0.13426366323E+03  0.38994591676E+03  0.00000000000E+00 0. -1.
<mgrwt>
<rscale>  4 0.38471345E+03</rscale>
<asrwt>0</asrwt>
<pdfrwt beam="1">  1       21 0.82626852E-01 0.38471345E+03</pdfrwt>
<pdfrwt beam="2">  1       21 0.42528364E-01 0.38471345E+03</pdfrwt>
<totfact> 0.61392573E+03</totfact>
</mgrwt>
</event>
<event>
 5    0  0.3120399E-003  0.5923722E+03  0.7546771E-02  0.9921359E-01
         21   -1    0    0  502  501  0.00000000000E+00  0.00000000000E+00  0.36783881722E+03  0.36783881722E+03  0.00000000000E+00 0. -1.
         21   -1    0    0  504  502 -0.00000000000E+00 -0.00000000000E+00 -0.14755293289E+04  0.14755293289E+04  0.00000000000E+00 0. -1.
         25    1    1    2    0    0 -0.33311894223E+03  0.14750616719E+03 -0.18358680445E+03  0.42667952118E+03  0.12500000000E+03 0.  0.
         21    1    1    2  503  501 -0.10738731569E+03  0.15556433101E+03  0.13362690841E+03  0.23149178669E+03  0.00000000000E+00 0. -1.
         21    1    1    2  504  503  0.44050625792E+03 -0.30307049820E+03 -0.10577306157E+04  0.11851968383E+04  0.00000000000E+00 0. -1.
<mgrwt>
<rscale>  4 0.59237219E+03</rscale>
<asrwt>0</asrwt>
<pdfrwt beam="1">  1       21 0.56590587E-01 0.59237219E+03</pdfrwt>
<pdfrwt beam="2">  1       21 0.22700452E+00 0.59237219E+03</pdfrwt>
<totfact> 0.20096109E+02</totfact>
</mgrwt>
</event>
<event>
 5    0  0.3120399E-003  0.5495121E+03  0.7546771E-02  0.1001607E+00
         21   -1    0    0  502  501  0.00000000000E+00  0.00000000000E+00  0.36277984959E+03  0.36277984959E+03  0.00000000000E+00 0. -1.
         21   -1    0    0  503  502 -0.00000000000E+00 -0.00000000000E+00 -0.91848778012E+03  0.91848778012E+03  0.00000000000E+00 0. -1.
         25    1    1    2    0    0  0.22689733326E+03 -0.14321044404E+03 -0.23786635125E+03  0.37973284317E+03  0.12500000000E+03 0.  0.
         21    1    1    2  503  504 -0.83986698439E+02 -0.28790398436E+03  0.65763699351E+02  0.30702985829E+03  0.00000000000E+00 0. -1.
         21    1    1    2  504  501 -0.14291063482E+03  0.43111442841E+03 -0.38360527863E+03  0.59450492825E+03  0.00000000000E+00 0. -1.
<mgrwt>
<rscale>  4 0.54951215E+03</rscale>
<asrwt>0</asrwt>
<pdfrwt beam="1">  1       21 0.55812285E-01 0.54951215E+03</pdfrwt>
<pdfrwt beam="2">  1       21 0.14130581E+00 0.54951215E+03</pdfrwt>
<totfact> 0.85797029E+02</totfact>
</mgrwt>
</event>
<event>
 5    0  0.3120399E-003  0.3814314E+03  0.7546771E-02  0.1050406E+00
         21   -1    0    0  504  501  0.00000000000E+00  0.00000000000E+00  0.16507851446E+04  0.16507851446E+04  0.00000000000E+00 0. -1.
         21   -1    0    0  501  502 -0.00000000000E+00 -0.00000000000E+00 -0.10470162628E+03  0.10470162628E+03  0.00000000000E+00 0. -1.
         25    1    1    2    0    0  0.24854128619E+03  0.27502277364E+03  0.56447461138E+03  0.68678008406E+03  0.12500000000E+03 0.  0.
         21    1    1    2  503  502 -0.10679139983E+03 -0.22694562850E+03  0.43658678010E+03  0.50350445672E+03  0.00000000000E+00 0. -1.
         21    1    1    2  504  503 -0.14174988636E+03 -0.48077145136E+02  0.54502212681E+03  0.56520223008E+03  0.00000000000E+00 0. -1.
<mgrwt>
<rscale>  4 0.38143142E+03</rscale>
<asrwt>0</asrwt>
<pdfrwt beam="1">  1       21 0.25396693E+00 0.38143142E+03</pdfrwt>
<pdfrwt beam="2">  1       21 0.16107944E-01 0.38143142E+03</pdfrwt>
<totfact> 0.18652078E+03</totfact>
</mgrwt>
</event>
<event>
 5    0  0.3120399E-003  0.2270973E+03  0.7546771E-02  0.1128700E+00
         21   -1    0    0  502  501  0.00000000000E+00  0.00000000000E+00  0.11422096138E+04  0.11422096138E+04  0.00000000000E+00 0.  1.
         21   -1    0    0  503  502 -0.00000000000E+00 -0.00000000000E+00 -0.63732552253E+02  0.63732552253E+02  0.00000000000E+00 0.  1.
         25    1    1    2    0    0 -0.11384095209E+03 -0.18858794640E+03  0.76203745330E+03  0.80302631099E+03  0.12500000000E+03 0.  0.
         21    1    1    2  503  504  0.10439480382E+03  0.60682605203E+02  0.14193237817E+03  0.18634766865E+03  0.00000000000E+00 0.  1.
         21    1    1    2  504  501  0.94461482733E+01  0.12790534119E+03  0.17450723011E+03  0.21656818645E+03  0.00000000000E+00 0.  1.
<mgrwt>
<rscale>  4 0.22709733E+03</rscale>
<asrwt>0</asrwt>
<pdfrwt beam="1">  1       21 0.17572454E+00 0.22709733E+03</pdfrwt>
<pdfrwt beam="2">  1       21 0.98050089E-02 0.22709733E+03</pdfrwt>
<totfact> 0.15961906E+04</totfact>
</mgrwt>
</event>
<event>
 5    0  0.3120399E-003  0.3941712E+03  0.7546771E-02  0.1045817E+00
         21   -1    0    0  504  501  0.00000000000E+00  0.00000000000E+00  0.24900122832E+03  0.24900122832E+03  0.00000000000E+00 0.  1.
         21   -1    0    0  501  502 -0.00000000000E+00 -0.00000000000E+00 -0.64541873163E+03  0.64541873163E+03  0.00000000000E+00 0.  1.
         25    1    1    2    0    0  0.17156725108E+03 -0.25872420370E+03 -0.70456270546E+02  0.34199798433E+03  0.12500000000E+03 0.  0.
         21    1    1    2  503  502 -0.14305310056E+03  0.33491396412E+03 -0.25645809062E+03  0.44542373667E+03  0.00000000000E+00 0.  1.
         21    1    1    2  504  503 -0.28514150513E+02 -0.76189760413E+02 -0.69503142145E+02  0.10699823895E+03  0.00000000000E+00 0.  1.
<mgrwt>
<rscale>  4 0.39417122E+03</rscale>
<asrwt>0</asrwt>
<pdfrwt beam="1">  1       21 0.38307882E-01 0.39417122E+03</pdfrwt>
<pdfrwt beam="2">  1       21 0.99295189E-01 0.39417122E+03</pdfrwt>
<totfact> 0.49118887E+03</totfact>
</mgrwt>
</event>
<event>
 5    0  0.7312998E-003  0.3870504E+03  0.7546771E-02  0.1048358E+00
         21   -1    0    0  503  501  0.00000000000E+00  0.00000000000E+00  0.20671656198E+03  0.20671656198E+03  0.00000000000E+00 0. -1.
         21   -1    0    0  501  502 -0.00000000000E+00 -0.00000000000E+00 -0.15286924624E+04  0.15286924624E+04  0.00000000000E+00 0. -1.
         25    1    1    2    0    0  0.16572628361E+03 -0.30109986184E+03 -0.16903143514E+03  0.40289322896E+03  0.12500000000E+03 0.  0.
         21    1    1    2  503  504 -0.52963888478E+02  0.25825827510E+01  0.58963555616E+02  0.79300341155E+02  0.00000000000E+00 0.  1.
         21    1    1    2  504  502 -0.11276239513E+03  0.29851727908E+03 -0.12119080209E+04  0.12532154542E+04  0.00000000000E+00 0.  1.
<mgrwt>
<rscale>  4 0.38705038E+03</rscale>
<asrwt>0</asrwt>
<pdfrwt beam="1">  1       21 0.31802547E-01 0.38705038E+03</pdfrwt>
<pdfrwt beam="2">  1       21 0.23518346E+00 0.38705038E+03</pdfrwt>
<totfact> 0.65556390E+02</totfact>
</mgrwt>
</event>
<event>
 5    0  0.3120399E-003  0.3021472E+03  0.7546771E-02  0.1084172E+00
         21   -1    0    0  504  501  0.00000000000E+00  0.00000000000E+00  0.13992342510E+03  0.13992342510E+03  0.00000000000E+00 0.  1.
         21   -1    0    0  501  502 -0.00000000000E+00 -0.00000000000E+00 -0.72915476748E+03  0.72915476748E+03  0.00000000000E+00 0.  1.
         25    1    1    2    0    0  0.22624567358E+02  0.26199688912E+03 -0.34498885151E+03  0.45143831098E+03  0.12500000000E+03 0.  0.
         21    1    1    2  503  502  0.27184894085E+02 -0.26103573031E+03 -0.12973072560E+03  0.29276053718E+03  0.00000000000E+00 0.  1.
         21    1    1    2  504  503 -0.49809461443E+02 -0.96115880692E+00 -0.11451176527E+03  0.12487934442E+03  0.00000000000E+00 0. -1.
<mgrwt>
<rscale>  4 0.30214724E+03</rscale>
<asrwt>0</asrwt>
<pdfrwt beam="1">  1       21 0.21526680E-01 0.30214724E+03</pdfrwt>
<pdfrwt beam="2">  1       21 0.11217766E+00 0.30214724E+03</pdfrwt>
<totfact> 0.11772003E+04</totfact>
</mgrwt>
</event>
<event>
 5    0  0.3120399E-003  0.3544718E+03  0.7546771E-02  0.1060794E+00
         21   -1    0    0  502  501  0.00000000000E+00  0.00000000000E+00  0.69625519509E+03  0.69625519509E+03  0.00000000000E+00 0.  1.
         21   -1    0    0  503  502 -0.00000000000E+00 -0.00000000000E+00 -0.21910665047E+03  0.21910665047E+03  0.00000000000E+00 0.  1.
         25    1    1    2    0    0 -0.11022376156E+02  0.25965796843E+03  0.21618187415E+02  0.28919906530E+03  0.12500000000E+03 0.  0.
         21    1    1    2  503  504  0.14561835313E+03 -0.17687250924E+02  0.10984226898E+03  0.18325628957E+03  0.00000000000E+00 0. -1.
         21    1    1    2  504  501 -0.13459597697E+03 -0.24197071750E+03  0.34568808823E+03  0.44290649068E+03  0.00000000000E+00 0.  1.
<mgrwt>
<rscale>  4 0.35447176E+03</rscale>
<asrwt>0</asrwt>
<pdfrwt beam="1">  1       21 0.10711618E+00 0.35447176E+03</pdfrwt>
<pdfrwt beam="2">  1       21 0.33708716E-01 0.35447176E+03</pdfrwt>
<totfact> 0.53740008E+03</totfact>
</mgrwt>
</event>
<event>
 5    0  0.3120399E-003  0.4513202E+03  0.7546771E-02  0.1027329E+00
         21   -1    0    0  504  501  0.00000000000E+00  0.00000000000E+00  0.63376178686E+03  0.63376178686E+03  0.00000000000E+00 0. -1.
         21   -1    0    0  501  502 -0.00000000000E+00 -0.00000000000E+00 -0.32322777067E+03  0.32322777067E+03  0.00000000000E+00 0. -1.
         25    1    1    2    0    0 -0.11030670067E+03  0.31263940967E+03  0.12373074179E+03  0.37529357196E+03  0.12500000000E+03 0.  0.
         21    1    1    2  503  502  0.62761524811E+02  0.10831605275E+03  0.21827232709E+02  0.12707401138E+03  0.00000000000E+00 0.  1.
         21    1    1    2  504  503  0.47545175863E+02 -0.42095546242E+03  0.16497604168E+03  0.45462197419E+03  0.00000000000E+00 0. -1.
<mgrwt>
<rscale>  4 0.45132020E+03</rscale>
<asrwt>0</asrwt>
<pdfrwt beam="1">  1       21 0.97501813E-01 0.45132020E+03</pdfrwt>
<pdfrwt beam="2">  1       21 0.49727349E-01 0.45132020E+03</pdfrwt>
<totfact> 0.29181975E+03</totfact>
</mgrwt>
</event>
<event>
 5    0  0.3120399E-003  0.3752313E+03  0.7546771E-02  0.1052710E+00
         21   -1    0    0  503  501  0.00000000000E+00  0.00000000000E+00  0.42177902162E+03  0.42177902162E+03  0.00000000000E+00 0.  1.
         21   -1    0    0  501  502 -0.00000000000E+00 -0.00000000000E+00 -0.34085295958E+03  0.34085295958E+03  0.00000000000E+00 0.  1.
         25    1    1    2    0    0  0.26106048831E+03  0.34242361616E+02  0.13970508452E+03  0.32321452400E+03  0.12500000000E+03 0.  0.
         21    1    1    2  503  504 -0.32766525392E+03  0.15266086397E+02  0.15014972168E+02  0.32836415975E+03  0.00000000000E+00 0.  1.
         21    1    1    2  504  502  0.66604765613E+02 -0.49508448013E+02 -0.73793994650E+02  0.11105329745E+03  0.00000000000E+00 0.  1.
<mgrwt>
<rscale>  4 0.37523135E+03</rscale>
<asrwt>0</asrwt>
<pdfrwt beam="1">  1       21 0.64889081E-01 0.37523135E+03</pdfrwt>
<pdfrwt beam="2">  1       21 0.52438917E-01 0.37523135E+03</pdfrwt>
<totfact> 0.68535546E+03</totfact>
</mgrwt>
</event>
<event>
 5    0  0.3120399E-003  0.1028600E+04  0.7546771E-02  0.9277721E-01
         21   -1    0    0  502  501  0.00000000000E+00  0.00000000000E+00  0.71165547421E+03  0.71165547421E+03  0.00000000000E+00 0. -1.
         21   -1    0    0  504  502 -0.00000000000E+00 -0.00000000000E+00 -0.15183361285E+04  0.15183361285E+04  0.00000000000E+00 0. -1.
         25    1    1    2    0    0 -0.88785259881E+03  0.31427396957E+03 -0.53773599521E+03  0.10917121258E+04  0.12500000000E+03 0.  0.
         21    1    1    2  503  501  0.94403715387E+03 -0.38130304990E+03 -0.23876129641E+03  0.10457557652E+04  0.00000000000E+00 0. -1.
         21    1    1    2  504  503 -0.56184555059E+02  0.67029080329E+02 -0.30183362639E+02  0.92523711648E+02  0.00000000000E+00 0.  1.
<mgrwt>
<rscale>  4 0.10286004E+04</rscale>
<asrwt>0</asrwt>
<pdfrwt beam="1">  1       21 0.10948546E+00 0.10286004E+04</pdfrwt>
<pdfrwt beam="2">  1       21 0.23359017E+00 0.10286004E+04</pdfrwt>
<totfact> 0.33750365E+01</totfact>
</mgrwt>
</event>
<event>
 5    0  0.3120399E-003  0.4308314E+03  0.7546771E-02  0.1033598E+00
         21   -1    0    0  503  501  0.00000000000E+00  0.00000000000E+00  0.16347412123E+03  0.16347412123E+03  0.00000000000E+00 0.  1.
         21   -1    0    0  501  502 -0.00000000000E+00 -0.00000000000E+00 -0.12491218737E+04  0.12491218737E+04  0.00000000000E+00 0.  1.
         25    1    1    2    0    0  0.34240843370E+03 -0.71736509481E+02 -0.33459430265E+03  0.49996800860E+03  0.12500000000E+03 0.  0.
         21    1    1    2  503  504 -0.11396554702E+03 -0.15773256705E+03 -0.27430908921E+03  0.33632303673E+03  0.00000000000E+00 0. -1.
         21    1    1    2  504  502 -0.22844288668E+03  0.22946907653E+03 -0.47674436058E+03  0.57630494957E+03  0.00000000000E+00 0. -1.
<mgrwt>
<rscale>  4 0.43083138E+03</rscale>
<asrwt>0</asrwt>
<pdfrwt beam="1">  1       21 0.25149864E-01 0.43083138E+03</pdfrwt>
<pdfrwt beam="2">  1       21 0.19217260E+00 0.43083138E+03</pdfrwt>
<totfact> 0.19296432E+03</totfact>
</mgrwt>
</event>
<event>
 5    0  0.3120399E-003  0.4784532E+03  0.7546771E-02  0.1019561E+00
         21   -1    0    0  503  501  0.00000000000E+00  0.00000000000E+00  0.43749045324E+03  0.43749045324E+03  0.00000000000E+00 0. -1.
         21   -1    0    0  501  502 -0.00000000000E+00 -0.00000000000E+00 -0.61932036855E+03  0.61932036855E+03  0.00000000000E+00 0. -1.
         25    1    1    2    0    0 -0.21602704300E+03 -0.34916549639E+03 -0.23146197323E+03  0.48763087702E+03  0.12500000000E+03 0.  0.
         21    1    1    2  503  504  0.21397044810E+03  0.77279682647E+00 -0.16321608916E+02  0.21459344070E+03  0.00000000000E+00 0.  1.
         21    1    1    2  504  502  0.20565949001E+01  0.34839269956E+03  0.65953666837E+02  0.35458650406E+03  0.00000000000E+00 0.  1.
<mgrwt>
<rscale>  4 0.47845316E+03</rscale>
<asrwt>0</asrwt>
<pdfrwt beam="1">  1       21 0.67306224E-01 0.47845316E+03</pdfrwt>
<pdfrwt beam="2">  1       21 0.95280056E-01 0.47845316E+03</pdfrwt>
<totfact> 0.15787693E+03</totfact>
</mgrwt>
</event>
<event>
 5    0  0.3120399E-003  0.2552961E+03  0.7546771E-02  0.1110003E+00
         21   -1    0    0  502  501  0.00000000000E+00  0.00000000000E+00  0.63593381055E+02  0.63593381055E+02  0.00000000000E+00 0.  1.
         21   -1    0    0  504  502 -0.00000000000E+00 -0.00000000000E+00 -0.12492419557E+04  0.12492419557E+04  0.00000000000E+00 0.  1.
         25    1    1    2    0    0 -0.23463743931E+03  0.73821912789E+02 -0.49932055949E+03  0.57048262363E+03  0.12500000000E+03 0.  0.
         21    1    1    2  503  501  0.10855386088E+03  0.29110149405E+02 -0.36871122835E+03  0.38545987005E+03  0.00000000000E+00 0. -1.
         21    1    1    2  504  503  0.12608357843E+03 -0.10293206219E+03 -0.31761678686E+03  0.35689284312E+03  0.00000000000E+00 0.  1.
<mgrwt>
<rscale>  4 0.25529607E+03</rscale>
<asrwt>0</asrwt>
<pdfrwt beam="1">  1       21 0.97835983E-02 0.25529607E+03</pdfrwt>
<pdfrwt beam="2">  1       21 0.19219105E+00 0.25529607E+03</pdfrwt>
<totfact> 0.12168420E+04</totfact>
</mgrwt>
</event>
<event>
 5    0  0.3120399E-003  0.8189871E+03  0.7546771E-02  0.9532933E-01
         21   -1    0    0  502  501  0.00000000000E+00  0.00000000000E+00  0.97460265536E+03  0.97460265536E+03  0.00000000000E+00 0. -1.
         21   -1    0    0  503  502 -0.00000000000E+00 -0.00000000000E+00 -0.94425001394E+03  0.94425001394E+03  0.00000000000E+00 0. -1.
         25    1    1    2    0    0 -0.22888213341E+03  0.33221796820E+03  0.33862635004E+03  0.54133964784E+03  0.12500000000E+03 0.  0.
         21    1    1    2  503  504 -0.45611966477E+03 -0.26686553440E+03  0.15173038770E+03  0.54980403108E+03  0.00000000000E+00 0.  1.
         21    1    1    2  504  501  0.68500179818E+03 -0.65352433793E+02 -0.46000409632E+03  0.82770899037E+03  0.00000000000E+00 0. -1.
<mgrwt>
<rscale>  4 0.81898713E+03</rscale>
<asrwt>0</asrwt>
<pdfrwt beam="1">  1       21 0.14993887E+00 0.81898713E+03</pdfrwt>
<pdfrwt beam="2">  1       21 0.14526923E+00 0.81898713E+03</pdfrwt>
<totfact> 0.66553222E+01</totfact>
</mgrwt>
</event>
<event>
 5    0  0.3120399E-003  0.2855241E+03  0.7546771E-02  0.1092709E+00
         21   -1    0    0  504  501  0.00000000000E+00  0.00000000000E+00  0.13564518106E+04  0.13564518106E+04  0.00000000000E+00 0.  1.
         21   -1    0    0  501  502 -0.00000000000E+00 -0.00000000000E+00 -0.91958944015E+02  0.91958944015E+02  0.00000000000E+00 0.  1.
         25    1    1    2    0    0  0.18331136656E+03 -0.14115018778E+03  0.10017841690E+04  0.10357233964E+04  0.12500000000E+03 0.  0.
         21    1    1    2  503  502 -0.21810244482E+03  0.77523214370E+02  0.14106454939E+03  0.27106776329E+03  0.00000000000E+00 0.  1.
         21    1    1    2  504  503  0.34791078264E+02  0.63626973409E+02  0.12164414820E+03  0.14161959491E+03  0.00000000000E+00 0. -1.
<mgrwt>
<rscale>  4 0.28552412E+03</rscale>
<asrwt>0</asrwt>
<pdfrwt beam="1">  1       21 0.20868488E+00 0.28552412E+03</pdfrwt>
<pdfrwt beam="2">  1       21 0.14147531E-01 0.28552412E+03</pdfrwt>
<totfact> 0.47957332E+03</totfact>
</mgrwt>
</event>
<event>
 5    0  0.3120399E-003  0.6930066E+03  0.7546771E-02  0.9729267E-01
         21   -1    0    0  502  501  0.00000000000E+00  0.00000000000E+00  0.66038385272E+03  0.66038385272E+03  0.00000000000E+00 0. -1.
         21   -1    0    0  503  502 -0.00000000000E+00 -0.00000000000E+00 -0.93810433371E+03  0.93810433371E+03  0.00000000000E+00 0. -1.
         25    1    1    2    0    0 -0.26577199661E+03 -0.40119151426E+03 -0.33554385430E+03  0.59983669732E+03  0.12500000000E+03 0.  0.
         21    1    1    2  503  504 -0.27145378859E+03  0.13328239641E+03 -0.18114782634E+03  0.35251367565E+03  0.00000000000E+00 0. -1.
         21    1    1    2  504  501  0.53722578520E+03  0.26790911785E+03  0.23897119965E+03  0.64613781345E+03  0.00000000000E+00 0. -1.
<mgrwt>
<rscale>  4 0.69300662E+03</rscale>
<asrwt>0</asrwt>
<pdfrwt beam="1">  1       21 0.10159752E+00 0.69300662E+03</pdfrwt>
<pdfrwt beam="2">  1       21 0.14432374E+00 0.69300662E+03</pdfrwt>
<totfact> 0.19404796E+02</totfact>
</mgrwt>
</event>
<event>
 5    0  0.3120399E-003  0.4042546E+03  0.7546771E-02  0.1042316E+00
         21   -1    0    0  504  501  0.00000000000E+00  0.00000000000E+00  0.12967348088E+04  0.12967348088E+04  0.00000000000E+00 0. -1.
         21   -1    0    0  501  502 -0.00000000000E+00 -0.00000000000E+00 -0.21188843763E+03  0.21188843763E+03  0.00000000000E+00 0. -1.
         25    1    1    2    0    0  0.29534724807E+03 -0.18011344430E+03  0.30848965608E+03  0.48006428494E+03  0.12500000000E+03 0.  0.
         21    1    1    2  503  502 -0.59750615279E+02 -0.15750409631E+01 -0.92524752715E+02  0.11015192529E+03  0.00000000000E+00 0. -1.
         21    1    1    2  504  503 -0.23559663279E+03  0.18168848527E+03  0.86888146780E+03  0.91840703620E+03  0.00000000000E+00 0. -1.
<mgrwt>
<rscale>  4 0.40425465E+03</rscale>
<asrwt>0</asrwt>
<pdfrwt beam="1">  1       21 0.19949766E+00 0.40425465E+03</pdfrwt>
<pdfrwt beam="2">  1       21 0.32598222E-01 0.40425465E+03</pdfrwt>
<totfact> 0.10457107E+03</totfact>
</mgrwt>
</event>
<event>
 5    0  0.3120399E-003  0.6886126E+03  0.7546771E-02  0.9736907E-01
         21   -1    0    0  504  501  0.00000000000E+00  0.00000000000E+00  0.13789837268E+04  0.13789837268E+04  0.00000000000E+00 0.  1.
         21   -1    0    0  501  502 -0.00000000000E+00 -0.00000000000E+00 -0.68128808864E+03  0.68128808864E+03  0.00000000000E+00 0.  1.
         25    1    1    2    0    0 -0.56311918700E+03 -0.34235401869E+03 -0.35328707789E+03  0.75812020965E+03  0.12500000000E+03 0.  0.
         21    1    1    2  503  502 -0.22926388734E+02  0.42765135201E+02 -0.13728490753E+02  0.50427646658E+02  0.00000000000E+00 0.  1.
         21    1    1    2  504  503  0.58604557574E+03  0.29958888349E+03  0.10647112068E+04  0.12517239591E+04  0.00000000000E+00 0.  1.
<mgrwt>
<rscale>  4 0.68861262E+03</rscale>
<asrwt>0</asrwt>
<pdfrwt beam="1">  1       21 0.21215134E+00 0.68861262E+03</pdfrwt>
<pdfrwt beam="2">  1       21 0.10481355E+00 0.68861262E+03</pdfrwt>
<totfact> 0.57859589E+01</totfact>
</mgrwt>
</event>
<event>
 5    0  0.3120399E-003  0.4819218E+03  0.7546771E-02  0.1018608E+00
         21   -1    0    0  503  501  0.00000000000E+00  0.00000000000E+00  0.62539793075E+03  0.62539793075E+03  0.00000000000E+00 0.  1.
         21   -1    0    0  501  502 -0.00000000000E+00 -0.00000000000E+00 -0.45714069304E+03  0.45714069304E+03  0.00000000000E+00 0.  1.
         25    1    1    2    0    0 -0.94974305460E+02  0.26375345706E+03  0.30429923001E+03  0.43221409764E+03  0.12500000000E+03 0.  0.
         21    1    1    2  503  504 -0.18290467238E+03  0.64755138460E+02  0.14267570268E+02  0.19455310509E+03  0.00000000000E+00 0. -1.
         21    1    1    2  504  502  0.27787897784E+03 -0.32850859552E+03 -0.15030956257E+03  0.45577142107E+03  0.00000000000E+00 0.  1.
<mgrwt>
<rscale>  4 0.48192176E+03</rscale>
<asrwt>0</asrwt>
<pdfrwt beam="1">  1       21 0.96215067E-01 0.48192176E+03</pdfrwt>
<pdfrwt beam="2">  1       21 0.70329337E-01 0.48192176E+03</pdfrwt>
<totfact> 0.13952828E+03</totfact>
</mgrwt>
</event>
<event>
 5    0  0.3120399E-003  0.2592306E+03  0.7546771E-02  0.1107606E+00
         21   -1    0    0  502  501  0.00000000000E+00  0.00000000000E+00  0.12101687429E+04  0.12101687429E+04  0.00000000000E+00 0.  1.
         21   -1    0    0  504  502 -0.00000000000E+00 -0.00000000000E+00 -0.63314317446E+02  0.63314317446E+02  0.00000000000E+00 0.  1.
         25    1    1    2    0    0 -0.19252865059E+03 -0.12391759582E+03  0.41633885794E+03  0.49131038711E+03  0.12500000000E+03 0.  0.
         21    1    1    2  503  501  0.19121866828E+03  0.43498254919E+02  0.56683020373E+03  0.59979426234E+03  0.00000000000E+00 0.  1.
         21    1    1    2  504  503  0.13099823115E+01  0.80419340897E+02  0.16368536379E+03  0.18237841090E+03  0.00000000000E+00 0. -1.
<mgrwt>
<rscale>  4 0.25923063E+03</rscale>
<asrwt>0</asrwt>
<pdfrwt beam="1">  1       21 0.18617979E+00 0.25923063E+03</pdfrwt>
<pdfrwt beam="2">  1       21 0.97406651E-02 0.25923063E+03</pdfrwt>
<totfact> 0.13421967E+04</totfact>
</mgrwt>
</event>
<event>
 5    0  0.3120399E-003  0.2010299E+03  0.7546771E-02  0.1148873E+00
         21   -1    0    0  504  501  0.00000000000E+00  0.00000000000E+00  0.10590067718E+03  0.10590067718E+03  0.00000000000E+00 0.  1.
         21   -1    0    0  501  502 -0.00000000000E+00 -0.00000000000E+00 -0.80459651166E+03  0.80459651166E+03  0.00000000000E+00 0.  1.
         25    1    1    2    0    0  0.24392208140E+02  0.20107956780E+03 -0.15979437272E+03  0.28668312465E+03  0.12500000000E+03 0.  0.
         21    1    1    2  503  502 -0.57963116712E+02 -0.89370059792E+02 -0.43828669272E+02  0.11518542762E+03  0.00000000000E+00 0.  1.
         21    1    1    2  504  503  0.33570908572E+02 -0.11170950801E+03 -0.49507279248E+03  0.50862863657E+03  0.00000000000E+00 0.  1.
<mgrwt>
<rscale>  4 0.20102990E+03</rscale>
<asrwt>0</asrwt>
<pdfrwt beam="1">  1       21 0.16292412E-01 0.20102990E+03</pdfrwt>
<pdfrwt beam="2">  1       21 0.12378408E+00 0.20102990E+03</pdfrwt>
<totfact> 0.16396381E+04</totfact>
</mgrwt>
</event>
