<event>
 5    0  0.1226227E+000  0.3075096E+03  0.7546771E-02  0.1081546E+00
         -2   -1    0    0    0  501 -0.00000000000E+00  0.00000000000E+00  0.15552317443E+03  0.15552317443E+03  0.00000000000E+00 0. -1.
          2   -1    0    0  502    0  0.00000000000E+00 -0.00000000000E+00 -0.15129144751E+04  0.15129144751E+04  0.00000000000E+00 0. -1.
         25    1    1    2    0    0  0.28052970669E+03  0.98579616979E+02 -0.98307762047E+03  0.10346407420E+04  0.12500000000E+03 0.  0.
          2    1    1    2  502    0 -0.31692876035E+02  0.27213787482E+02 -0.35157232737E+03  0.35404537844E+03  0.00000000000E+00 0. -1.
         -2    1    1    2    0  501 -0.24883683066E+03 -0.12579340446E+03 -0.22741352859E+02  0.27975152909E+03  0.00000000000E+00 0. -1.
<mgrwt>
<rscale>  4 0.30750956E+03</rscale>
<asrwt>0</asrwt>
<pdfrwt beam="1">  1        2 0.23275608E+00 0.30750956E+03</pdfrwt>
<pdfrwt beam="2">  1       -2 0.23926642E-01 0.30750956E+03</pdfrwt>
<totfact> 0.20669211E+02</totfact>
</mgrwt>
</event>
<event>
 5    0  0.1226227E+000  0.2477278E+03  0.7546771E-02  0.1114749E+00
         -1   -1    0    0    0  501 -0.00000000000E+00  0.00000000000E+00  0.56556003312E+03  0.56556003312E+03  0.00000000000E+00 0.  1.
          2   -1    0    0  501    0  0.00000000000E+00 -0.00000000000E+00 -0.63229408409E+03  0.63229408409E+03  0.00000000000E+00 0.  1.
         25    1    1    2    0    0  0.93972815534E+02 -0.20017947995E+03  0.37240278737E+03  0.45078991814E+03  0.12500000000E+03 0.  0.
          2    1    1    2  502    0  0.20017448020E+02  0.21402762130E+03 -0.54811181089E+03  0.58875723193E+03  0.00000000000E+00 0.  1.
         -1    1    1    2    0  502 -0.11399026355E+03 -0.13848141355E+02  0.10897497255E+03  0.15830696714E+03  0.00000000000E+00 0.  1.
<mgrwt>
<rscale>  4 0.24772782E+03</rscale>
<asrwt>0</asrwt>
<pdfrwt beam="1">  1        2 0.97276013E-01 0.24772782E+03</pdfrwt>
<pdfrwt beam="2">  1       -1 0.87009236E-01 0.24772782E+03</pdfrwt>
<totfact> 0.75161101E+01</totfact>
</mgrwt>
</event>
<event>
 5    0  0.1226227E+000  0.2784749E+03  0.7546771E-02  0.1096525E+00
          1   -1    0    0  501    0  0.00000000000E+00  0.00000000000E+00  0.12408918979E+04  0.12408918979E+04  0.00000000000E+00 0.  1.
         -2   -1    0    0    0  501 -0.00000000000E+00 -0.00000000000E+00 -0.28714226589E+03  0.28714226589E+03  0.00000000000E+00 0.  1.
         25    1    1    2    0    0 -0.15563881834E+03  0.29727521517E+03  0.13198814910E+03  0.38163053708E+03  0.12500000000E+03 0.  0.
          1    1    1    2  502    0  0.10477024845E+03 -0.21441195377E+03  0.95336444198E+03  0.98277823038E+03  0.00000000000E+00 0.  1.
         -2    1    1    2    0  502  0.50868569885E+02 -0.82863261396E+02 -0.13160295906E+03  0.16362539633E+03  0.00000000000E+00 0.  1.
<mgrwt>
<rscale>  4 0.27847487E+03</rscale>
<asrwt>0</asrwt>
<pdfrwt beam="1">  1        1 0.19090644E+00 0.27847487E+03</pdfrwt>
<pdfrwt beam="2">  1       -2 0.44175734E-01 0.27847487E+03</pdfrwt>
<totfact> 0.46861141E+01</totfact>
</mgrwt>
</event>
<event>
 5    0  0.1226227E+000  0.3013599E+03  0.7546771E-02  0.1084563E+00
          1   -1    0    0  501    0 -0.00000000000E+00  0.00000000000E+00  0.10974574472E+04  0.10974574472E+04  0.00000000000E+00 0.  1.
          2   -1    0    0  502    0  0.00000000000E+00 -0.00000000000E+00 -0.10334633147E+04  0.10334633147E+04  0.00000000000E+00 0. -1.
         25    1    1    2    0    0 -0.38582496523E+03  0.86692269989E+02  0.68559956860E+03  0.80127911612E+03  0.12500000000E+03 0.  0.
          2    1    1    2  501    0  0.19668868098E+03  0.42103936481E+01 -0.93334435846E+03  0.95385316276E+03  0.00000000000E+00 0. -1.
          1    1    1    2  502    0  0.18913628424E+03 -0.90902663637E+02  0.31173892231E+03  0.37578848300E+03  0.00000000000E+00 0.  1.
<mgrwt>
<rscale>  4 0.30135989E+03</rscale>
<asrwt>0</asrwt>
<pdfrwt beam="1">  1        2 0.15899436E+00 0.30135989E+03</pdfrwt>
<pdfrwt beam="2">  1        1 0.16883961E+00 0.30135989E+03</pdfrwt>
<totfact> 0.46222648E+01</totfact>
</mgrwt>
</event>
<event>
 5    0  0.1226227E+000  0.2826104E+03  0.7546771E-02  0.1094272E+00
         -1   -1    0    0    0  501 -0.00000000000E+00  0.00000000000E+00  0.30162429260E+03  0.30162429260E+03  0.00000000000E+00 0.  1.
          2   -1    0    0  501    0  0.00000000000E+00 -0.00000000000E+00 -0.16684301167E+04  0.16684301167E+04  0.00000000000E+00 0. -1.
         25    1    1    2    0    0 -0.20478649857E+03 -0.56651780229E+02 -0.29199150832E+03  0.38213999415E+03  0.12500000000E+03 0.  0.
          2    1    1    2  502    0  0.24243141315E+03  0.11001086740E+03 -0.13136279997E+04  0.13403335043E+04  0.00000000000E+00 0. -1.
         -1    1    1    2    0  502 -0.37644914580E+02 -0.53359087169E+02  0.23881368396E+03  0.24758091086E+03  0.00000000000E+00 0.  1.
<mgrwt>
<rscale>  4 0.28261039E+03</rscale>
<asrwt>0</asrwt>
<pdfrwt beam="1">  1        2 0.25668156E+00 0.28261039E+03</pdfrwt>
<pdfrwt beam="2">  1       -1 0.46403737E-01 0.28261039E+03</pdfrwt>
<totfact> 0.60236687E+01</totfact>
</mgrwt>
</event>
<event>
 5    0  0.1226227E+000  0.2635462E+03  0.7546771E-02  0.1105031E+00
         -2   -1    0    0    0  501  0.00000000000E+00  0.00000000000E+00  0.10947841318E+04  0.10947841318E+04  0.00000000000E+00 0. -1.
         -1   -1    0    0    0  502 -0.00000000000E+00 -0.00000000000E+00 -0.94221916705E+03  0.94221916705E+03  0.00000000000E+00 0. -1.
         25    1    1    2    0    0 -0.71756265493E+02  0.19256458708E+03  0.25751592869E+03  0.35237697905E+03  0.12500000000E+03 0.  0.
         -2    1    1    2    0  502 -0.14332448910E+02  0.24315860300E+02  0.77436354435E+03  0.77487778324E+03  0.00000000000E+00 0. -1.
         -1    1    1    2    0  501  0.86088714403E+02 -0.21688044738E+03 -0.87931450831E+03  0.90974853653E+03  0.00000000000E+00 0. -1.
<mgrwt>
<rscale>  4 0.26354621E+03</rscale>
<asrwt>0</asrwt>
<pdfrwt beam="1">  1       -2 0.16842833E+00 0.26354621E+03</pdfrwt>
<pdfrwt beam="2">  1       -1 0.14495680E+00 0.26354621E+03</pdfrwt>
<totfact> 0.72926558E-01</totfact>
</mgrwt>
</event>
<event>
 5    0  0.1226227E+000  0.2037025E+03  0.7546771E-02  0.1146652E+00
          2   -1    0    0  502    0  0.00000000000E+00  0.00000000000E+00  0.42984778940E+03  0.42984778940E+03  0.00000000000E+00 0. -1.
          2   -1    0    0  501    0 -0.00000000000E+00 -0.00000000000E+00 -0.86415427558E+03  0.86415427558E+03  0.00000000000E+00 0.  1.
         25    1    1    2    0    0 -0.25494636339E+03 -0.65110070967E+02  0.31417854939E+03  0.42845084950E+03  0.12500000000E+03 0.  0.
          2    1    1    2  501    0  0.15806285777E+03  0.13056107289E+02 -0.73824972871E+03  0.75509402784E+03  0.00000000000E+00 0.  1.
          2    1    1    2  502    0  0.96883505613E+02  0.52053963678E+02 -0.10235306858E+02  0.11045718764E+03  0.00000000000E+00 0. -1.
<mgrwt>
<rscale>  4 0.20370250E+03</rscale>
<asrwt>0</asrwt>
<pdfrwt beam="1">  1        2 0.66130429E-01 0.20370250E+03</pdfrwt>
<pdfrwt beam="2">  1        2 0.13294681E+00 0.20370250E+03</pdfrwt>
<totfact> 0.37317259E+02</totfact>
</mgrwt>
</event>
<event>
 5    0  0.1226227E+000  0.2341667E+03  0.7546771E-02  0.1123741E+00
          2   -1    0    0  501    0  0.00000000000E+00  0.00000000000E+00  0.69741208479E+03  0.69741208479E+03  0.00000000000E+00 0. -1.
         -1   -1    0    0    0  501 -0.00000000000E+00 -0.00000000000E+00 -0.52618557659E+03  0.52618557659E+03  0.00000000000E+00 0.  1.
         25    1    1    2    0    0 -0.10661968246E+03  0.19228142563E+03  0.72826404783E+02  0.26318926377E+03  0.12500000000E+03 0.  0.
          2    1    1    2  502    0  0.86119362140E+02 -0.17380025538E+03  0.51116116538E+03  0.54672553470E+03  0.00000000000E+00 0. -1.
         -1    1    1    2    0  502  0.20500320320E+02 -0.18481170256E+02 -0.41276106196E+03  0.41368286290E+03  0.00000000000E+00 0.  1.
<mgrwt>
<rscale>  4 0.23416665E+03</rscale>
<asrwt>0</asrwt>
<pdfrwt beam="1">  1        2 0.10729417E+00 0.23416665E+03</pdfrwt>
<pdfrwt beam="2">  1       -1 0.80951627E-01 0.23416665E+03</pdfrwt>
<totfact> 0.78077940E+01</totfact>
</mgrwt>
</event>
<event>
 5    0  0.1226227E+000  0.3295648E+03  0.7546771E-02  0.1071330E+00
          1   -1    0    0  501    0 -0.00000000000E+00  0.00000000000E+00  0.66067737882E+03  0.66067737882E+03  0.00000000000E+00 0.  1.
          2   -1    0    0  502    0  0.00000000000E+00 -0.00000000000E+00 -0.11566042490E+04  0.11566042490E+04  0.00000000000E+00 0.  1.
         25    1    1    2    0    0  0.15952368101E+03  0.29237323961E+03 -0.11316062269E+03  0.37330984794E+03  0.12500000000E+03 0.  0.
          2    1    1    2  501    0 -0.21455745617E+02 -0.25984098637E+02 -0.87060016768E+03  0.87125207281E+03  0.00000000000E+00 0.  1.
          1    1    1    2  502    0 -0.13806793539E+03 -0.26638914098E+03  0.48783392017E+03  0.57271970709E+03  0.00000000000E+00 0.  1.
<mgrwt>
<rscale>  4 0.32956482E+03</rscale>
<asrwt>0</asrwt>
<pdfrwt beam="1">  1        2 0.17793911E+00 0.32956482E+03</pdfrwt>
<pdfrwt beam="2">  1        1 0.10164267E+00 0.32956482E+03</pdfrwt>
<totfact> 0.87677779E+01</totfact>
</mgrwt>
</event>
<event>
 5    0  0.1226227E+000  0.2172905E+03  0.7546771E-02  0.1135919E+00
         -4   -1    0    0    0  501 -0.00000000000E+00  0.00000000000E+00  0.49524442366E+03  0.49524442366E+03  0.00000000000E+00 0.  1.
          2   -1    0    0  501    0  0.00000000000E+00 -0.00000000000E+00 -0.50040516953E+03  0.50040516953E+03  0.00000000000E+00 0. -1.
         25    1    1    2    0    0  0.54517059029E+02  0.19918988712E+03 -0.37551999371E+03  0.44641795051E+03  0.12500000000E+03 0.  0.
          2    1    1    2  502    0 -0.63065790488E+02 -0.12053514112E+03 -0.31518141046E+02  0.13964027853E+03  0.00000000000E+00 0. -1.
         -4    1    1    2    0  502  0.85487314584E+01 -0.78654746006E+02  0.40187738890E+03  0.40959136415E+03  0.00000000000E+00 0.  1.
<mgrwt>
<rscale>  4 0.21729047E+03</rscale>
<asrwt>0</asrwt>
<pdfrwt beam="1">  1        2 0.76985410E-01 0.21729047E+03</pdfrwt>
<pdfrwt beam="2">  1       -4 0.76191450E-01 0.21729047E+03</pdfrwt>
<totfact> 0.51976132E+01</totfact>
</mgrwt>
</event>
<event>
 5    0  0.1226227E+000  0.2096977E+03  0.7546771E-02  0.1141806E+00
          2   -1    0    0  502    0  0.00000000000E+00  0.00000000000E+00  0.16085495372E+04  0.16085495372E+04  0.00000000000E+00 0.  1.
          2   -1    0    0  501    0 -0.00000000000E+00 -0.00000000000E+00 -0.30907018626E+03  0.30907018626E+03  0.00000000000E+00 0. -1.
         25    1    1    2    0    0  0.81668599729E+02  0.18468479607E+03  0.20617983983E+03  0.31450494500E+03  0.12500000000E+03 0.  0.
          2    1    1    2  501    0 -0.60682520170E+02 -0.15369590571E+03  0.13417370786E+04  0.13518739541E+04  0.00000000000E+00 0.  1.
          2    1    1    2  502    0 -0.20986079558E+02 -0.30988890361E+02 -0.24843756751E+03  0.25124082433E+03  0.00000000000E+00 0. -1.
<mgrwt>
<rscale>  4 0.20969770E+03</rscale>
<asrwt>0</asrwt>
<pdfrwt beam="1">  1        2 0.24746915E+00 0.20969770E+03</pdfrwt>
<pdfrwt beam="2">  1        2 0.47549260E-01 0.20969770E+03</pdfrwt>
<totfact> 0.20078954E+02</totfact>
</mgrwt>
</event>
<event>
 5    0  0.1226227E+000  0.3576719E+03  0.7546771E-02  0.1059509E+00
          2   -1    0    0  501    0  0.00000000000E+00  0.00000000000E+00  0.98413374202E+03  0.98413374202E+03  0.00000000000E+00 0.  1.
         -3   -1    0    0    0  501 -0.00000000000E+00 -0.00000000000E+00 -0.13435528948E+04  0.13435528948E+04  0.00000000000E+00 0. -1.
         25    1    1    2    0    0 -0.51083024261E+01 -0.28485826527E+03 -0.53668502646E+03  0.62034356906E+03  0.12500000000E+03 0.  0.
          2    1    1    2  502    0  0.79781976882E+02  0.32855672023E+03  0.90934631842E+03  0.97016772213E+03  0.00000000000E+00 0.  1.
         -3    1    1    2    0  502 -0.74673674456E+02 -0.43698454964E+02 -0.73208044473E+03  0.73717534562E+03  0.00000000000E+00 0. -1.
<mgrwt>
<rscale>  4 0.35767195E+03</rscale>
<asrwt>0</asrwt>
<pdfrwt beam="1">  1        2 0.15140519E+00 0.35767195E+03</pdfrwt>
<pdfrwt beam="2">  1       -3 0.20670044E+00 0.35767195E+03</pdfrwt>
<totfact> 0.23289951E+00</totfact>
</mgrwt>
</event>
<event>
 5    0  0.1226227E+000  0.2123067E+03  0.7546771E-02  0.1139752E+00
          1   -1    0    0  501    0  0.00000000000E+00  0.00000000000E+00  0.70675212047E+03  0.70675212047E+03  0.00000000000E+00 0. -1.
         -3   -1    0    0    0  501 -0.00000000000E+00 -0.00000000000E+00 -0.13971024942E+04  0.13971024942E+04  0.00000000000E+00 0. -1.
         25    1    1    2    0    0  0.23963338797E+03 -0.83968809317E+02 -0.26126869274E+03  0.38517690919E+03  0.12500000000E+03 0.  0.
          1    1    1    2  502    0 -0.79938352108E+02  0.49003648225E+02  0.63511444868E+03  0.64199833380E+03  0.00000000000E+00 0. -1.
         -3    1    1    2    0  502 -0.15969503586E+03  0.34965161092E+02 -0.10641961297E+04  0.10766793717E+04  0.00000000000E+00 0. -1.
<mgrwt>
<rscale>  4 0.21230669E+03</rscale>
<asrwt>0</asrwt>
<pdfrwt beam="1">  1        1 0.10873110E+00 0.21230669E+03</pdfrwt>
<pdfrwt beam="2">  1       -3 0.21493884E+00 0.21230669E+03</pdfrwt>
<totfact> 0.19836265E+00</totfact>
</mgrwt>
</event>
<event>
 5    0  0.1226227E+000  0.2512948E+03  0.7546771E-02  0.1112489E+00
          4   -1    0    0  501    0 -0.00000000000E+00  0.00000000000E+00  0.25477469438E+03  0.25477469438E+03  0.00000000000E+00 0. -1.
          2   -1    0    0  502    0  0.00000000000E+00 -0.00000000000E+00 -0.20938336278E+04  0.20938336278E+04  0.00000000000E+00 0. -1.
         25    1    1    2    0    0 -0.18631919220E+03 -0.22565466654E+03 -0.19492184742E+02  0.31880999855E+03  0.12500000000E+03 0.  0.
          2    1    1    2  501    0  0.13006263528E+03  0.17118666244E+03 -0.19031562995E+04  0.19152610952E+04  0.00000000000E+00 0. -1.
          4    1    1    2  502    0  0.56256556917E+02  0.54468004098E+02  0.83589550877E+02  0.11453722837E+03  0.00000000000E+00 0. -1.
<mgrwt>
<rscale>  4 0.25129481E+03</rscale>
<asrwt>0</asrwt>
<pdfrwt beam="1">  1        2 0.32212825E+00 0.25129481E+03</pdfrwt>
<pdfrwt beam="2">  1        4 0.39196107E-01 0.25129481E+03</pdfrwt>
<totfact> 0.22667241E+01</totfact>
</mgrwt>
</event>
<event>
 5    0  0.1226227E+000  0.2859507E+03  0.7546771E-02  0.1092482E+00
          2   -1    0    0  501    0  0.00000000000E+00  0.00000000000E+00  0.22885426911E+04  0.22885426911E+04  0.00000000000E+00 0. -1.
         -3   -1    0    0    0  501 -0.00000000000E+00 -0.00000000000E+00 -0.10369476652E+03  0.10369476652E+03  0.00000000000E+00 0.  1.
         25    1    1    2    0    0  0.10875499260E+03  0.24358332235E+03  0.56650899247E+03  0.63852793352E+03  0.12500000000E+03 0.  0.
          2    1    1    2  502    0  0.22385838672E+02 -0.26117979103E+02  0.14469036230E+04  0.14473124642E+04  0.00000000000E+00 0. -1.
         -3    1    1    2    0  502 -0.13114083127E+03 -0.21746534325E+03  0.17143530910E+03  0.30639705995E+03  0.00000000000E+00 0.  1.
<mgrwt>
<rscale>  4 0.28595066E+03</rscale>
<asrwt>0</asrwt>
<pdfrwt beam="1">  1        2 0.35208345E+00 0.28595066E+03</pdfrwt>
<pdfrwt beam="2">  1       -3 0.15953043E-01 0.28595066E+03</pdfrwt>
<totfact> 0.11017846E+02</totfact>
</mgrwt>
</event>
<event>
 5    0  0.1226227E+000  0.2407330E+03  0.7546771E-02  0.1119306E+00
          3   -1    0    0  501    0 -0.00000000000E+00  0.00000000000E+00  0.10307637619E+03  0.10307637619E+03  0.00000000000E+00 0.  1.
          1   -1    0    0  502    0  0.00000000000E+00 -0.00000000000E+00 -0.15516093660E+04  0.15516093660E+04  0.00000000000E+00 0.  1.
         25    1    1    2    0    0 -0.39709835334E+02  0.24714095190E+03 -0.76427121379E+03  0.81387407463E+03  0.12500000000E+03 0.  0.
          1    1    1    2  501    0  0.70089529640E+01 -0.18535941561E+03 -0.73266882292E+03  0.75578491812E+03  0.00000000000E+00 0.  1.
          3    1    1    2  502    0  0.32700882370E+02 -0.61781536289E+02  0.48407046893E+02  0.85026749455E+02  0.00000000000E+00 0.  1.
<mgrwt>
<rscale>  4 0.24073297E+03</rscale>
<asrwt>0</asrwt>
<pdfrwt beam="1">  1        1 0.23870911E+00 0.24073297E+03</pdfrwt>
<pdfrwt beam="2">  1        3 0.15857905E-01 0.24073297E+03</pdfrwt>
<totfact> 0.12451161E+02</totfact>
</mgrwt>
</event>
<event>
 5    0  0.1226227E+000  0.3799970E+03  0.7546771E-02  0.1050935E+00
          2   -1    0    0  502    0  0.00000000000E+00  0.00000000000E+00  0.16858913801E+03  0.16858913801E+03  0.00000000000E+00 0.  1.
          2   -1    0    0  501    0 -0.00000000000E+00 -0.00000000000E+00 -0.25317146688E+04  0.25317146688E+04  0.00000000000E+00 0.  1.
         25    1    1    2    0    0  0.44307579752E+02  0.39402513505E+03 -0.80404803273E+03  0.90517247395E+03  0.12500000000E+03 0.  0.
          2    1    1    2  501    0 -0.23674363941E+02 -0.48980385815E+02  0.92748671481E+02  0.10752613526E+03  0.00000000000E+00 0.  1.
          2    1    1    2  502    0 -0.20633215811E+02 -0.34504474923E+03 -0.16518261695E+04  0.16876051976E+04  0.00000000000E+00 0.  1.
<mgrwt>
<rscale>  4 0.37999704E+03</rscale>
<asrwt>0</asrwt>
<pdfrwt beam="1">  1        2 0.25936791E-01 0.37999704E+03</pdfrwt>
<pdfrwt beam="2">  1        2 0.38949455E+00 0.37999704E+03</pdfrwt>
<totfact> 0.11912049E+02</totfact>
</mgrwt>
</event>
<event>
 5    0  0.1226227E+000  0.2326561E+03  0.7546771E-02  0.1124784E+00
          2   -1    0    0  502    0  0.00000000000E+00  0.00000000000E+00  0.17175294426E+04  0.17175294426E+04  0.00000000000E+00 0. -1.
          1   -1    0    0  501    0 -0.00000000000E+00 -0.00000000000E+00 -0.24595147420E+04  0.24595147420E+04  0.00000000000E+00 0.  1.
         25    1    1    2    0    0 -0.22123336485E+03  0.88567228345E+02  0.12658266625E+02  0.26939485402E+03  0.12500000000E+03 0.  0.
          2    1    1    2  501    0  0.18877403940E+03 -0.46276230406E+02  0.15702054820E+04  0.15821891111E+04  0.00000000000E+00 0. -1.
          1    1    1    2  502    0  0.32459325454E+02 -0.42290997940E+02 -0.23248490481E+04  0.23254602195E+04  0.00000000000E+00 0.  1.
<mgrwt>
<rscale>  4 0.23265606E+03</rscale>
<asrwt>0</asrwt>
<pdfrwt beam="1">  1        2 0.26423530E+00 0.23265606E+03</pdfrwt>
<pdfrwt beam="2">  1        1 0.37838689E+00 0.23265606E+03</pdfrwt>
<totfact> 0.25192099E+00</totfact>
</mgrwt>
</event>
<event>
 5    0  0.1780609E+000  0.1843516E+03  0.7546771E-02  0.1163657E+00
          2   -1    0    0  502    0  0.00000000000E+00  0.00000000000E+00  0.27485276392E+04  0.27485276392E+04  0.00000000000E+00 0.  1.
          2   -1    0    0  501    0 -0.00000000000E+00 -0.00000000000E+00 -0.64963097196E+03  0.64963097196E+03  0.00000000000E+00 0. -1.
         25    1    1    2    0    0 -0.12886967299E+03 -0.16165993903E+03 -0.50239489883E+03  0.55746476380E+03  0.12500000000E+03 0.  0.
          2    1    1    2  501    0  0.62786166784E+02  0.43616177143E+02 -0.10563085320E+03  0.13039306268E+03  0.00000000000E+00 0. -1.
          2    1    1    2  502    0  0.66083506208E+02  0.11804376189E+03  0.27069224192E+04  0.27103007846E+04  0.00000000000E+00 0.  1.
<mgrwt>
<rscale>  4 0.18435158E+03</rscale>
<asrwt>0</asrwt>
<pdfrwt beam="1">  1        2 0.42285040E+00 0.18435158E+03</pdfrwt>
<pdfrwt beam="2">  1        2 0.99943228E-01 0.18435158E+03</pdfrwt>
<totfact> 0.22288974E+01</totfact>
</mgrwt>
</event>
<event>
 5    0  0.1226227E+000  0.3010638E+03  0.7546771E-02  0.1084710E+00
          1   -1    0    0  502    0  0.00000000000E+00  0.00000000000E+00  0.19738603246E+04  0.19738603246E+04  0.00000000000E+00 0.  1.
          3   -1    0    0  501    0 -0.00000000000E+00 -0.00000000000E+00 -0.10921573044E+03  0.10921573044E+03  0.00000000000E+00 0.  1.
         25    1    1    2    0    0 -0.24049246386E+03  0.36369962679E+02  0.46390677446E+03  0.53851081210E+03  0.12500000000E+03 0.  0.
          1    1    1    2  501    0  0.28050978033E+03 -0.52346197465E+02  0.14507524215E+04  0.14785494411E+04  0.00000000000E+00 0.  1.
          3    1    1    2  502    0 -0.40017316471E+02  0.15976234786E+02 -0.50014601829E+02  0.66015801833E+02  0.00000000000E+00 0.  1.
<mgrwt>
<rscale>  4 0.30106378E+03</rscale>
<asrwt>0</asrwt>
<pdfrwt beam="1">  1        1 0.30367079E+00 0.30106378E+03</pdfrwt>
<pdfrwt beam="2">  1        3 0.16802422E-01 0.30106378E+03</pdfrwt>
<totfact> 0.59287881E+01</totfact>
</mgrwt>
</event>
<event>
 5    0  0.1226227E+000  0.2708382E+03  0.7546771E-02  0.1100801E+00
          2   -1    0    0  502    0  0.00000000000E+00  0.00000000000E+00  0.33318091352E+04  0.33318091352E+04  0.00000000000E+00 0.  1.
          1   -1    0    0  501    0 -0.00000000000E+00 -0.00000000000E+00 -0.49538620873E+02  0.49538620873E+02  0.00000000000E+00 0. -1.
         25    1    1    2    0    0  0.15808275899E+03  0.15945869945E+03  0.20417099677E+04  0.20578196782E+04  0.12500000000E+03 0.  0.
          2    1    1    2  501    0  0.24938012982E+02  0.54004882841E+00  0.92428510442E+03  0.92462162553E+03  0.00000000000E+00 0.  1.
          1    1    1    2  502    0 -0.18302077197E+03 -0.15999874827E+03  0.31627544217E+03  0.39890645237E+03  0.00000000000E+00 0. -1.
<mgrwt>
<rscale>  4 0.27083819E+03</rscale>
<asrwt>0</asrwt>
<pdfrwt beam="1">  1        2 0.51258585E+00 0.27083819E+03</pdfrwt>
<pdfrwt beam="2">  1        1 0.76213289E-02 0.27083819E+03</pdfrwt>
<totfact> 0.16416128E+02</totfact>
</mgrwt>
</event>
<event>
 5    0  0.1226227E+000  0.2414363E+03  0.7546771E-02  0.1118840E+00
         -3   -1    0    0    0  501 -0.00000000000E+00  0.00000000000E+00  0.45070359093E+03  0.45070359093E+03  0.00000000000E+00 0. -1.
          1   -1    0    0  501    0  0.00000000000E+00 -0.00000000000E+00 -0.58530308435E+03  0.58530308435E+03  0.00000000000E+00 0.  1.
         25    1    1    2    0    0 -0.10190432927E+01 -0.26036966695E+03 -0.32159814435E+02  0.29060739079E+03  0.12500000000E+03 0.  0.
          1    1    1    2  502    0 -0.92219441328E+02  0.82854485683E+02 -0.38185964263E+03  0.40147985981E+03  0.00000000000E+00 0.  1.
         -3    1    1    2    0  502  0.93238484621E+02  0.17751518126E+03  0.27941996365E+03  0.34391942469E+03  0.00000000000E+00 0. -1.
<mgrwt>
<rscale>  4 0.24143627E+03</rscale>
<asrwt>0</asrwt>
<pdfrwt beam="1">  1        1 0.90046629E-01 0.24143627E+03</pdfrwt>
<pdfrwt beam="2">  1       -3 0.69339014E-01 0.24143627E+03</pdfrwt>
<totfact> 0.40401601E+01</totfact>
</mgrwt>
</event>
<event>
 5    0  0.1226227E+000  0.3686403E+03  0.7546771E-02  0.1055214E+00
          2   -1    0    0  502    0  0.00000000000E+00  0.00000000000E+00  0.78334520055E+03  0.78334520055E+03  0.00000000000E+00 0. -1.
          1   -1    0    0  501    0 -0.00000000000E+00 -0.00000000000E+00 -0.67524694012E+03  0.67524694012E+03  0.00000000000E+00 0.  1.
         25    1    1    2    0    0 -0.27012454183E+03 -0.15174270162E+03  0.17782926874E+03  0.37847240905E+03  0.12500000000E+03 0.  0.
          2    1    1    2  501    0  0.30666796107E+03  0.21210438481E+03  0.43359457503E+03  0.57187215696E+03  0.00000000000E+00 0. -1.
          1    1    1    2  502    0 -0.36543419241E+02 -0.60361683196E+02 -0.50332558335E+03  0.50824757465E+03  0.00000000000E+00 0.  1.
<mgrwt>
<rscale>  4 0.36864034E+03</rscale>
<asrwt>0</asrwt>
<pdfrwt beam="1">  1        2 0.12051465E+00 0.36864034E+03</pdfrwt>
<pdfrwt beam="2">  1        1 0.10388414E+00 0.36864034E+03</pdfrwt>
<totfact> 0.14533052E+02</totfact>
</mgrwt>
</event>
<event>
 5    0  0.1226227E+000  0.2749257E+03  0.7546771E-02  0.1098493E+00
         -4   -1    0    0    0  501 -0.00000000000E+00  0.00000000000E+00  0.11357828707E+04  0.11357828707E+04  0.00000000000E+00 0. -1.
          2   -1    0    0  501    0  0.00000000000E+00 -0.00000000000E+00 -0.38766650396E+03  0.38766650396E+03  0.00000000000E+00 0. -1.
         25    1    1    2    0    0 -0.14792104700E+03 -0.13516256874E+03  0.14868910639E+03  0.27907527030E+03  0.12500000000E+03 0.  0.
          2    1    1    2  502    0 -0.13178685246E+03  0.20734870248E+03 -0.24798302909E+03  0.34907999315E+03  0.00000000000E+00 0. -1.
         -4    1    1    2    0  502  0.27970789946E+03 -0.72186133738E+02  0.84741028943E+03  0.89529411120E+03  0.00000000000E+00 0. -1.
<mgrwt>
<rscale>  4 0.27492571E+03</rscale>
<asrwt>0</asrwt>
<pdfrwt beam="1">  1        2 0.59641001E-01 0.27492571E+03</pdfrwt>
<pdfrwt beam="2">  1       -4 0.17473582E+00 0.27492571E+03</pdfrwt>
<totfact> 0.91075946E+00</totfact>
</mgrwt>
</event>
<event>
 5    0  0.1247760E+000  0.3356126E+03  0.7546771E-02  0.1068680E+00
          2   -1    0    0  502    0  0.00000000000E+00  0.00000000000E+00  0.73690221654E+03  0.73690221654E+03  0.00000000000E+00 0. -1.
          2   -1    0    0  501    0 -0.00000000000E+00 -0.00000000000E+00 -0.23262354475E+04  0.23262354475E+04  0.00000000000E+00 0.  1.
         25    1    1    2    0    0  0.21632683327E+03 -0.21131451542E+03 -0.16506478033E+04  0.16827698279E+04  0.12500000000E+03 0.  0.
          2    1    1    2  501    0 -0.24420365647E+03  0.23018724128E+03 -0.61639145226E+03  0.70182619950E+03  0.00000000000E+00 0.  1.
          2    1    1    2  502    0  0.27876823201E+02 -0.18872725854E+02  0.67770602453E+03  0.67854163670E+03  0.00000000000E+00 0. -1.
<mgrwt>
<rscale>  4 0.33561263E+03</rscale>
<asrwt>0</asrwt>
<pdfrwt beam="1">  1        2 0.11336957E+00 0.33561263E+03</pdfrwt>
<pdfrwt beam="2">  1        2 0.35788238E+00 0.33561263E+03</pdfrwt>
<totfact> 0.29786167E+01</totfact>
</mgrwt>
</event>
<event>
 5    0  0.1226227E+000  0.2064530E+03  0.7546771E-02  0.1144406E+00
         -1   -1    0    0    0  501 -0.00000000000E+00  0.00000000000E+00  0.11832777348E+03  0.11832777348E+03  0.00000000000E+00 0. -1.
          1   -1    0    0  502    0  0.00000000000E+00 -0.00000000000E+00 -0.13948410137E+04  0.13948410137E+04  0.00000000000E+00 0.  1.
         25    1    1    2    0    0 -0.99409514803E+02  0.18293675769E+03 -0.11281428009E+04  0.11539840936E+04  0.12500000000E+03 0.  0.
          1    1    1    2  502    0  0.19965125913E+02 -0.41920010045E+02 -0.18708747602E+03  0.19276311156E+03  0.00000000000E+00 0.  1.
         -1    1    1    2    0  501  0.79444388889E+02 -0.14101674764E+03  0.38717036712E+02  0.16642158206E+03  0.00000000000E+00 0. -1.
<mgrwt>
<rscale>  4 0.20645296E+03</rscale>
<asrwt>0</asrwt>
<pdfrwt beam="1">  1        1 0.21459093E+00 0.20645296E+03</pdfrwt>
<pdfrwt beam="2">  1       -1 0.18204272E-01 0.20645296E+03</pdfrwt>
<totfact> 0.20214790E+02</totfact>
</mgrwt>
</event>
<event>
 5    0  0.1226227E+000  0.2401964E+03  0.7546771E-02  0.1119662E+00
          2   -1    0    0  502    0  0.00000000000E+00  0.00000000000E+00  0.72285231214E+03  0.72285231214E+03  0.00000000000E+00 0. -1.
          1   -1    0    0  501    0 -0.00000000000E+00 -0.00000000000E+00 -0.27893668093E+04  0.27893668093E+04  0.00000000000E+00 0.  1.
         25    1    1    2    0    0 -0.70816893490E+02 -0.24003480464E+03 -0.26853598242E+03  0.38777353403E+03  0.12500000000E+03 0.  0.
          2    1    1    2  501    0  0.15394888786E+02  0.45818375552E+02  0.65820239976E+03  0.65997479133E+03  0.00000000000E+00 0. -1.
          1    1    1    2  502    0  0.55422004704E+02  0.19421642909E+03 -0.24561809145E+04  0.24644707961E+04  0.00000000000E+00 0.  1.
<mgrwt>
<rscale>  4 0.24019644E+03</rscale>
<asrwt>0</asrwt>
<pdfrwt beam="1">  1        2 0.11120805E+00 0.24019644E+03</pdfrwt>
<pdfrwt beam="2">  1        1 0.42913335E+00 0.24019644E+03</pdfrwt>
<totfact> 0.57348497E+00</totfact>
</mgrwt>
</event>
<event>
 5    0  0.1226227E+000  0.5108104E+03  0.7546771E-02  0.1010995E+00
          1   -1    0    0  502    0  0.00000000000E+00  0.00000000000E+00  0.48827629630E+03  0.48827629630E+03  0.00000000000E+00 0.  1.
          1   -1    0    0  501    0 -0.00000000000E+00 -0.00000000000E+00 -0.32357011567E+04  0.32357011567E+04  0.00000000000E+00 0. -1.
         25    1    1    2    0    0 -0.39490293305E+03  0.26588526659E+03 -0.40443552593E+03  0.63705289902E+03  0.12500000000E+03 0.  0.
          1    1    1    2  501    0  0.42614080858E+03 -0.25991248341E+03 -0.26912839069E+04  0.27371809504E+04  0.00000000000E+00 0. -1.
          1    1    1    2  502    0 -0.31237875529E+02 -0.59727831719E+01  0.34829457246E+03  0.34974360354E+03  0.00000000000E+00 0.  1.
<mgrwt>
<rscale>  4 0.51081040E+03</rscale>
<asrwt>0</asrwt>
<pdfrwt beam="1">  1        1 0.75119430E-01 0.51081040E+03</pdfrwt>
<pdfrwt beam="2">  1        1 0.49780018E+00 0.51081040E+03</pdfrwt>
<totfact> 0.24716236E+00</totfact>
</mgrwt>
</event>
<event>
 5    0  0.1226227E+000  0.2276230E+03  0.7546771E-02  0.1128324E+00
          4   -1    0    0  501    0  0.00000000000E+00  0.00000000000E+00  0.87577301603E+03  0.87577301603E+03  0.00000000000E+00 0. -1.
         -1   -1    0    0    0  501 -0.00000000000E+00 -0.00000000000E+00 -0.19504398779E+03  0.19504398779E+03  0.00000000000E+00 0. -1.
         25    1    1    2    0    0 -0.26609137730E+03 -0.42635002804E+02  0.45907845571E+03  0.54680928396E+03  0.12500000000E+03 0.  0.
          4    1    1    2  502    0  0.84520212614E+02  0.47816945749E+02  0.30795441679E+03  0.32290253865E+03  0.00000000000E+00 0. -1.
         -1    1    1    2    0  502  0.18157116468E+03 -0.51819429449E+01 -0.86303844256E+02  0.20110518121E+03  0.00000000000E+00 0. -1.
<mgrwt>
<rscale>  4 0.22762305E+03</rscale>
<asrwt>0</asrwt>
<pdfrwt beam="1">  1        4 0.13473431E+00 0.22762305E+03</pdfrwt>
<pdfrwt beam="2">  1       -1 0.30006768E-01 0.22762305E+03</pdfrwt>
<totfact> 0.16416522E+01</totfact>
</mgrwt>
</event>
<event>
 5    0  0.1226227E+000  0.4280826E+03  0.7546771E-02  0.1034467E+00
          2   -1    0    0  502    0  0.00000000000E+00  0.00000000000E+00  0.16656861027E+04  0.16656861027E+04  0.00000000000E+00 0. -1.
          2   -1    0    0  501    0 -0.00000000000E+00 -0.00000000000E+00 -0.21154376067E+04  0.21154376067E+04  0.00000000000E+00 0. -1.
         25    1    1    2    0    0  0.21967006569E+03 -0.41146897509E+03 -0.41692107712E+03  0.63797322810E+03  0.12500000000E+03 0.  0.
          2    1    1    2  501    0 -0.19354387107E+03  0.35752837932E+03  0.15280045084E+04  0.15811652506E+04  0.00000000000E+00 0. -1.
          2    1    1    2  502    0 -0.26126194624E+02  0.53940595772E+02 -0.15608349352E+04  0.15619852307E+04  0.00000000000E+00 0. -1.
<mgrwt>
<rscale>  4 0.42808261E+03</rscale>
<asrwt>0</asrwt>
<pdfrwt beam="1">  1        2 0.25625940E+00 0.42808261E+03</pdfrwt>
<pdfrwt beam="2">  1        2 0.32545194E+00 0.42808261E+03</pdfrwt>
<totfact> 0.10405776E+01</totfact>
</mgrwt>
</event>
<event>
 5    0  0.1226227E+000  0.2487453E+03  0.7546771E-02  0.1114100E+00
          1   -1    0    0  501    0 -0.00000000000E+00  0.00000000000E+00  0.40937576975E+02  0.40937576975E+02  0.00000000000E+00 0. -1.
          2   -1    0    0  502    0  0.00000000000E+00 -0.00000000000E+00 -0.23659068047E+04  0.23659068047E+04  0.00000000000E+00 0. -1.
         25    1    1    2    0    0  0.13441582899E+03  0.22477549431E+03 -0.76822446116E+03  0.82120975436E+03  0.12500000000E+03 0.  0.
          2    1    1    2  501    0 -0.96258859313E+02 -0.51124325892E+02 -0.84588410664E+03  0.85287712278E+03  0.00000000000E+00 0. -1.
          1    1    1    2  502    0 -0.38156969674E+02 -0.17365116842E+03 -0.71086065987E+03  0.73275750449E+03  0.00000000000E+00 0. -1.
<mgrwt>
<rscale>  4 0.24874528E+03</rscale>
<asrwt>0</asrwt>
<pdfrwt beam="1">  1        2 0.36398576E+00 0.24874528E+03</pdfrwt>
<pdfrwt beam="2">  1        1 0.62980870E-02 0.24874528E+03</pdfrwt>
<totfact> 0.77944642E+02</totfact>
</mgrwt>
</event>
<event>
 5    0  0.1226227E+000  0.2423073E+03  0.7546771E-02  0.1118265E+00
         -1   -1    0    0    0  502 -0.00000000000E+00  0.00000000000E+00  0.36231919200E+03  0.36231919200E+03  0.00000000000E+00 0. -1.
         -2   -1    0    0    0  501  0.00000000000E+00 -0.00000000000E+00 -0.38958645428E+03  0.38958645428E+03  0.00000000000E+00 0. -1.
         25    1    1    2    0    0  0.23399573933E+03  0.83432000461E+01  0.10255239738E+03  0.28454456456E+03  0.12500000000E+03 0.  0.
         -2    1    1    2    0  502 -0.20283853489E+03  0.25630986396E+01 -0.26186889886E+03  0.33124818626E+03  0.00000000000E+00 0. -1.
         -1    1    1    2    0  501 -0.31157204438E+02 -0.10906298686E+02  0.13204923920E+03  0.13611289546E+03  0.00000000000E+00 0. -1.
<mgrwt>
<rscale>  4 0.24230728E+03</rscale>
<asrwt>0</asrwt>
<pdfrwt beam="1">  1       -2 0.59936377E-01 0.24230728E+03</pdfrwt>
<pdfrwt beam="2">  1       -1 0.55741414E-01 0.24230728E+03</pdfrwt>
<totfact> 0.66542712E+01</totfact>
</mgrwt>
</event>
<event>
 5    0  0.1226227E+000  0.2422610E+03  0.7546771E-02  0.1118296E+00
         -1   -1    0    0    0  501 -0.00000000000E+00  0.00000000000E+00  0.95565047506E+03  0.95565047506E+03  0.00000000000E+00 0. -1.
          1   -1    0    0  502    0  0.00000000000E+00 -0.00000000000E+00 -0.10889621958E+03  0.10889621958E+03  0.00000000000E+00 0. -1.
         25    1    1    2    0    0 -0.12807257000E+03  0.18913792130E+03  0.29632007335E+03  0.39446967226E+03  0.12500000000E+03 0.  0.
          1    1    1    2  502    0  0.24407803191E+02 -0.17490723747E+02 -0.37990012879E+02  0.48424243436E+02  0.00000000000E+00 0. -1.
         -1    1    1    2    0  501  0.10366476681E+03 -0.17164719755E+03  0.58842419501E+03  0.62165277895E+03  0.00000000000E+00 0. -1.
<mgrwt>
<rscale>  4 0.24226102E+03</rscale>
<asrwt>0</asrwt>
<pdfrwt beam="1">  1        1 0.16753265E-01 0.24226102E+03</pdfrwt>
<pdfrwt beam="2">  1       -1 0.14702314E+00 0.24226102E+03</pdfrwt>
<totfact> 0.12930214E+02</totfact>
</mgrwt>
</event>
<event>
 5    0  0.1226227E+000  0.2678503E+03  0.7546771E-02  0.1102516E+00
         -2   -1    0    0    0  501 -0.00000000000E+00  0.00000000000E+00  0.37382536903E+03  0.37382536903E+03  0.00000000000E+00 0.  1.
          2   -1    0    0  502    0  0.00000000000E+00 -0.00000000000E+00 -0.14840967950E+04  0.14840967950E+04  0.00000000000E+00 0.  1.
         25    1    1    2    0    0  0.20397816636E+02  0.25534764230E+03 -0.43165369713E+03  0.51727014566E+03  0.12500000000E+03 0.  0.
          2    1    1    2  502    0 -0.41132978866E+02 -0.22753222236E+03 -0.99543732850E+03  0.10219385056E+04  0.00000000000E+00 0.  1.
         -2    1    1    2    0  501  0.20735162230E+02 -0.27815419942E+02  0.31681959964E+03  0.31871351282E+03  0.00000000000E+00 0.  1.
<mgrwt>
<rscale>  4 0.26785034E+03</rscale>
<asrwt>0</asrwt>
<pdfrwt beam="1">  1        2 0.22832258E+00 0.26785034E+03</pdfrwt>
<pdfrwt beam="2">  1       -2 0.57511595E-01 0.26785034E+03</pdfrwt>
<totfact> 0.40872869E+01</totfact>
</mgrwt>
</event>
<event>
 5    0  0.1226227E+000  0.4825564E+03  0.7546771E-02  0.1018435E+00
          1   -1    0    0  502    0  0.00000000000E+00  0.00000000000E+00  0.18239372975E+04  0.18239372975E+04  0.00000000000E+00 0. -1.
          1   -1    0    0  501    0 -0.00000000000E+00 -0.00000000000E+00 -0.58095152942E+03  0.58095152942E+03  0.00000000000E+00 0. -1.
         25    1    1    2    0    0  0.23272658041E+03  0.34964793153E+03 -0.25561605697E+03  0.50732623215E+03  0.12500000000E+03 0.  0.
          1    1    1    2  501    0 -0.24328220252E+03 -0.40220081533E+03  0.16611653028E+04  0.17263898427E+04  0.00000000000E+00 0. -1.
          1    1    1    2  502    0  0.10555622110E+02  0.52552883800E+02 -0.16256347772E+03  0.17117275205E+03  0.00000000000E+00 0. -1.
<mgrwt>
<rscale>  4 0.48255639E+03</rscale>
<asrwt>0</asrwt>
<pdfrwt beam="1">  1        1 0.28060574E+00 0.48255639E+03</pdfrwt>
<pdfrwt beam="2">  1        1 0.89377159E-01 0.48255639E+03</pdfrwt>
<totfact> 0.18127703E+01</totfact>
</mgrwt>
</event>
<event>
 5    0  0.1226227E+000  0.2275358E+03  0.7546771E-02  0.1128386E+00
         -3   -1    0    0    0  501 -0.00000000000E+00  0.00000000000E+00  0.13379662461E+03  0.13379662461E+03  0.00000000000E+00 0.  1.
          2   -1    0    0  501    0  0.00000000000E+00 -0.00000000000E+00 -0.13958059359E+04  0.13958059359E+04  0.00000000000E+00 0. -1.
         25    1    1    2    0    0  0.20787381809E+03  0.93584093453E+02 -0.25728597676E+03  0.36577394745E+03  0.12500000000E+03 0.  0.
          2    1    1    2  502    0 -0.15240121095E+03 -0.10490990567E+03 -0.10651048852E+04  0.10810553334E+04  0.00000000000E+00 0. -1.
         -3    1    1    2    0  502 -0.55472607142E+02  0.11325812213E+02  0.60381550668E+02  0.82773279665E+02  0.00000000000E+00 0.  1.
<mgrwt>
<rscale>  4 0.22753585E+03</rscale>
<asrwt>0</asrwt>
<pdfrwt beam="1">  1        2 0.21473935E+00 0.22753585E+03</pdfrwt>
<pdfrwt beam="2">  1       -3 0.20584098E-01 0.22753585E+03</pdfrwt>
<totfact> 0.20948793E+02</totfact>
</mgrwt>
</event>
<event>
 5    0  0.1226227E+000  0.2873175E+03  0.7546771E-02  0.1091758E+00
         -1   -1    0    0    0  501 -0.00000000000E+00  0.00000000000E+00  0.16231052263E+03  0.16231052263E+03  0.00000000000E+00 0. -1.
          2   -1    0    0  501    0  0.00000000000E+00 -0.00000000000E+00 -0.16204032782E+04  0.16204032782E+04  0.00000000000E+00 0. -1.
         25    1    1    2    0    0  0.12776757126E+03  0.16057778169E+03 -0.10758574851E+03  0.26326691687E+03  0.12500000000E+03 0.  0.
          2    1    1    2  502    0 -0.16728516108E+03 -0.20853306587E+03 -0.14089819135E+04  0.14341200777E+04  0.00000000000E+00 0. -1.
         -1    1    1    2    0  502  0.39517589825E+02  0.47955284184E+02  0.58474906430E+02  0.85326806273E+02  0.00000000000E+00 0. -1.
<mgrwt>
<rscale>  4 0.28731752E+03</rscale>
<asrwt>0</asrwt>
<pdfrwt beam="1">  1        2 0.24929281E+00 0.28731752E+03</pdfrwt>
<pdfrwt beam="2">  1       -1 0.24970850E-01 0.28731752E+03</pdfrwt>
<totfact> 0.18792103E+02</totfact>
</mgrwt>
</event>
<event>
 5    0  0.1226227E+000  0.3247596E+03  0.7546771E-02  0.1073479E+00
          2   -1    0    0  502    0  0.00000000000E+00  0.00000000000E+00  0.26331247574E+04  0.26331247574E+04  0.00000000000E+00 0. -1.
          2   -1    0    0  501    0 -0.00000000000E+00 -0.00000000000E+00 -0.23434753582E+03  0.23434753582E+03  0.00000000000E+00 0.  1.
         25    1    1    2    0    0  0.66568849572E+02  0.25208352172E+03  0.73064138778E+03  0.78577309142E+03  0.12500000000E+03 0.  0.
          2    1    1    2  501    0 -0.10066681442E+03 -0.30290795410E+03  0.18564487399E+04  0.18836902506E+04  0.00000000000E+00 0. -1.
          2    1    1    2  502    0  0.34097964844E+02  0.50824432389E+02 -0.18831290615E+03  0.19800895120E+03  0.00000000000E+00 0.  1.
<mgrwt>
<rscale>  4 0.32475957E+03</rscale>
<asrwt>0</asrwt>
<pdfrwt beam="1">  1        2 0.40509610E+00 0.32475957E+03</pdfrwt>
<pdfrwt beam="2">  1        2 0.36053469E-01 0.32475957E+03</pdfrwt>
<totfact> 0.73749775E+01</totfact>
</mgrwt>
</event>
<event>
 5    0  0.1226227E+000  0.3055928E+03  0.7546771E-02  0.1082478E+00
          2   -1    0    0  502    0  0.00000000000E+00  0.00000000000E+00  0.28215747169E+03  0.28215747169E+03  0.00000000000E+00 0.  1.
          2   -1    0    0  501    0 -0.00000000000E+00 -0.00000000000E+00 -0.11023136275E+04  0.11023136275E+04  0.00000000000E+00 0. -1.
         25    1    1    2    0    0 -0.14511555141E+03 -0.15019157545E+03 -0.41971049123E+03  0.48517824461E+03  0.12500000000E+03 0.  0.
          2    1    1    2  501    0  0.26048451225E+02 -0.11967452214E+03 -0.55356514520E+03  0.56695227580E+03  0.00000000000E+00 0. -1.
          2    1    1    2  502    0  0.11906710018E+03  0.26986609758E+03  0.15311948060E+03  0.33234057879E+03  0.00000000000E+00 0.  1.
<mgrwt>
<rscale>  4 0.30559280E+03</rscale>
<asrwt>0</asrwt>
<pdfrwt beam="1">  1        2 0.43408843E-01 0.30559280E+03</pdfrwt>
<pdfrwt beam="2">  1        2 0.16958671E+00 0.30559280E+03</pdfrwt>
<totfact> 0.41094116E+02</totfact>
</mgrwt>
</event>
<event>
 5    0  0.1226227E+000  0.1945264E+03  0.7546771E-02  0.1154441E+00
         -4   -1    0    0    0  501 -0.00000000000E+00  0.00000000000E+00  0.72122195826E+03  0.72122195826E+03  0.00000000000E+00 0. -1.
          2   -1    0    0  501    0  0.00000000000E+00 -0.00000000000E+00 -0.10439478553E+04  0.10439478553E+04  0.00000000000E+00 0.  1.
         25    1    1    2    0    0  0.59037773903E+02  0.22329890068E+03 -0.23881584706E+03  0.35497305052E+03  0.12500000000E+03 0.  0.
          2    1    1    2  502    0 -0.36776311788E+02 -0.13486192111E+03 -0.73731978664E+03  0.75045366456E+03  0.00000000000E+00 0.  1.
         -4    1    1    2    0  502 -0.22261462116E+02 -0.88436979572E+02  0.65340973665E+03  0.65974309849E+03  0.00000000000E+00 0. -1.
<mgrwt>
<rscale>  4 0.19452641E+03</rscale>
<asrwt>0</asrwt>
<pdfrwt beam="1">  1        2 0.16060736E+00 0.19452641E+03</pdfrwt>
<pdfrwt beam="2">  1       -4 0.11095723E+00 0.19452641E+03</pdfrwt>
<totfact> 0.88365837E+00</totfact>
</mgrwt>
</event>
<event>
 5    0  0.1226227E+000  0.3009827E+03  0.7546771E-02  0.1084750E+00
         -4   -1    0    0    0  501 -0.00000000000E+00  0.00000000000E+00  0.67301065977E+03  0.67301065977E+03  0.00000000000E+00 0. -1.
          3   -1    0    0  501    0  0.00000000000E+00 -0.00000000000E+00 -0.36891860665E+03  0.36891860665E+03  0.00000000000E+00 0.  1.
         25    1    1    2    0    0  0.11365405555E+03  0.21796703565E+03  0.34663675770E+02  0.27794503663E+03  0.12500000000E+03 0.  0.
          3    1    1    2  502    0 -0.10108179533E+03 -0.27162012793E+03 -0.15998856658E+03  0.33104586492E+03  0.00000000000E+00 0.  1.
         -4    1    1    2    0  502 -0.12572260216E+02  0.53653092280E+02  0.42941694393E+03  0.43293836487E+03  0.00000000000E+00 0. -1.
<mgrwt>
<rscale>  4 0.30098266E+03</rscale>
<asrwt>0</asrwt>
<pdfrwt beam="1">  1        3 0.56756709E-01 0.30098266E+03</pdfrwt>
<pdfrwt beam="2">  1       -4 0.10354010E+00 0.30098266E+03</pdfrwt>
<totfact> 0.51542623E+00</totfact>
</mgrwt>
</event>
<event>
 5    0  0.1226227E+000  0.2517615E+03  0.7546771E-02  0.1112197E+00
          2   -1    0    0  502    0  0.00000000000E+00  0.00000000000E+00  0.24368161642E+03  0.24368161642E+03  0.00000000000E+00 0. -1.
          2   -1    0    0  501    0 -0.00000000000E+00 -0.00000000000E+00 -0.67305993257E+03  0.67305993257E+03  0.00000000000E+00 0. -1.
         25    1    1    2    0    0  0.79435371683E+02  0.24684678878E+03 -0.19214929026E+03  0.34610643616E+03  0.12500000000E+03 0.  0.
          2    1    1    2  501    0 -0.54459897679E+01 -0.21014733548E+03  0.93264602999E+02  0.22997792848E+03  0.00000000000E+00 0. -1.
          2    1    1    2  502    0 -0.73989381915E+02 -0.36699453292E+02 -0.33049362890E+03  0.34065718435E+03  0.00000000000E+00 0. -1.
<mgrwt>
<rscale>  4 0.25176150E+03</rscale>
<asrwt>0</asrwt>
<pdfrwt beam="1">  1        2 0.37489480E-01 0.25176150E+03</pdfrwt>
<pdfrwt beam="2">  1        2 0.10354768E+00 0.25176150E+03</pdfrwt>
<totfact> 0.93503972E+02</totfact>
</mgrwt>
</event>
<event>
 5    0  0.1226227E+000  0.3222182E+03  0.7546771E-02  0.1074633E+00
          2   -1    0    0  502    0  0.00000000000E+00  0.00000000000E+00  0.53875935573E+03  0.53875935573E+03  0.00000000000E+00 0. -1.
          2   -1    0    0  501    0 -0.00000000000E+00 -0.00000000000E+00 -0.19485698933E+04  0.19485698933E+04  0.00000000000E+00 0. -1.
         25    1    1    2    0    0  0.36691771824E+03  0.24826874420E+02  0.15868628467E+03  0.41958470253E+03  0.12500000000E+03 0.  0.
          2    1    1    2  501    0 -0.25411663400E+03 -0.60178386022E+02  0.17877647834E+03  0.31647706240E+03  0.00000000000E+00 0. -1.
          2    1    1    2  502    0 -0.11280108424E+03  0.35351511602E+02 -0.17472733005E+04  0.17512674841E+04  0.00000000000E+00 0. -1.
<mgrwt>
<rscale>  4 0.32221820E+03</rscale>
<asrwt>0</asrwt>
<pdfrwt beam="1">  1        2 0.82886054E-01 0.32221820E+03</pdfrwt>
<pdfrwt beam="2">  1        2 0.29977999E+00 0.32221820E+03</pdfrwt>
<totfact> 0.69255921E+01</totfact>
</mgrwt>
</event>
<event>
 5    0  0.1226227E+000  0.2767594E+03  0.7546771E-02  0.1097472E+00
          2   -1    0    0  502    0  0.00000000000E+00  0.00000000000E+00  0.33007520415E+04  0.33007520415E+04  0.00000000000E+00 0.  1.
         -2   -1    0    0    0  501 -0.00000000000E+00 -0.00000000000E+00 -0.11695197690E+03  0.11695197690E+03  0.00000000000E+00 0.  1.
         25    1    1    2    0    0  0.38752109784E+02  0.41806758752E+03  0.71440649848E+03  0.83802379371E+03  0.12500000000E+03 0.  0.
          2    1    1    2  502    0  0.33122600507E+02 -0.22927945892E+03  0.23120471310E+04  0.23236239181E+04  0.00000000000E+00 0.  1.
         -2    1    1    2    0  501 -0.71874710291E+02 -0.18878812860E+03  0.15734643512E+03  0.25605630655E+03  0.00000000000E+00 0.  1.
<mgrwt>
<rscale>  4 0.27675944E+03</rscale>
<asrwt>0</asrwt>
<pdfrwt beam="1">  1        2 0.50780794E+00 0.27675944E+03</pdfrwt>
<pdfrwt beam="2">  1       -2 0.17992614E-01 0.27675944E+03</pdfrwt>
<totfact> 0.34514307E+01</totfact>
</mgrwt>
</event>
<event>
 5    0  0.1226227E+000  0.2182052E+03  0.7546771E-02  0.1135228E+00
          2   -1    0    0  501    0  0.00000000000E+00  0.00000000000E+00  0.59235480524E+03  0.59235480524E+03  0.00000000000E+00 0. -1.
         -1   -1    0    0    0  501 -0.00000000000E+00 -0.00000000000E+00 -0.25324863795E+03  0.25324863795E+03  0.00000000000E+00 0.  1.
         25    1    1    2    0    0  0.18345474981E+03 -0.11535361661E+03 -0.14321064042E+03  0.28826444391E+03  0.12500000000E+03 0.  0.
          2    1    1    2  502    0 -0.13092881931E+03  0.11307905607E+03  0.17690912901E+03  0.24743901991E+03  0.00000000000E+00 0. -1.
         -1    1    1    2    0  502 -0.52525930498E+02  0.22745605308E+01  0.30540767870E+03  0.30989997937E+03  0.00000000000E+00 0.  1.
<mgrwt>
<rscale>  4 0.21820517E+03</rscale>
<asrwt>0</asrwt>
<pdfrwt beam="1">  1        2 0.91131508E-01 0.21820517E+03</pdfrwt>
<pdfrwt beam="2">  1       -1 0.38961329E-01 0.21820517E+03</pdfrwt>
<totfact> 0.38203570E+02</totfact>
</mgrwt>
</event>
<event>
 5    0  0.1226227E+000  0.2971032E+03  0.7546771E-02  0.1086698E+00
          2   -1    0    0  502    0  0.00000000000E+00  0.00000000000E+00  0.19758769814E+03  0.19758769814E+03  0.00000000000E+00 0.  1.
          1   -1    0    0  501    0 -0.00000000000E+00 -0.00000000000E+00 -0.29434174904E+04  0.29434174904E+04  0.00000000000E+00 0. -1.
         25    1    1    2    0    0 -0.18115404165E+03  0.11651664165E+03 -0.20829439786E+03  0.32466054698E+03  0.12500000000E+03 0.  0.
          2    1    1    2  501    0  0.24518542339E+03 -0.17874081936E+03 -0.27436969053E+02  0.30465875930E+03  0.00000000000E+00 0.  1.
          1    1    1    2  502    0 -0.64031381735E+02  0.62224177717E+02 -0.25100984253E+04  0.25116858822E+04  0.00000000000E+00 0. -1.
<mgrwt>
<rscale>  4 0.29710320E+03</rscale>
<asrwt>0</asrwt>
<pdfrwt beam="1">  1        2 0.30398110E-01 0.29710320E+03</pdfrwt>
<pdfrwt beam="2">  1        1 0.45283342E+00 0.29710320E+03</pdfrwt>
<totfact> 0.18458911E+01</totfact>
</mgrwt>
</event>
<event>
 5    0  0.1226227E+000  0.2562945E+03  0.7546771E-02  0.1109390E+00
          2   -1    0    0  502    0  0.00000000000E+00  0.00000000000E+00  0.17967314814E+04  0.17967314814E+04  0.00000000000E+00 0.  1.
          2   -1    0    0  501    0 -0.00000000000E+00 -0.00000000000E+00 -0.26429825337E+03  0.26429825337E+03  0.00000000000E+00 0.  1.
         25    1    1    2    0    0 -0.17286375122E+03 -0.17088597898E+03  0.13028215843E+04  0.13311848012E+04  0.12500000000E+03 0.  0.
          2    1    1    2  501    0  0.15871345641E+03  0.15667058075E+03 -0.20012375458E+03  0.29964170148E+03  0.00000000000E+00 0.  1.
          2    1    1    2  502    0  0.14150294813E+02  0.14215398238E+02  0.42973539828E+03  0.43020323212E+03  0.00000000000E+00 0.  1.
<mgrwt>
<rscale>  4 0.25629447E+03</rscale>
<asrwt>0</asrwt>
<pdfrwt beam="1">  1        2 0.27642022E+00 0.25629447E+03</pdfrwt>
<pdfrwt beam="2">  1        2 0.40661271E-01 0.25629447E+03</pdfrwt>
<totfact> 0.18631584E+02</totfact>
</mgrwt>
</event>
<event>
 5    0  0.1226227E+000  0.7692291E+03  0.7546771E-02  0.9605657E-01
          2   -1    0    0  501    0  0.00000000000E+00  0.00000000000E+00  0.21244504551E+04  0.21244504551E+04  0.00000000000E+00 0.  1.
         -1   -1    0    0    0  501 -0.00000000000E+00 -0.00000000000E+00 -0.41721751826E+03  0.41721751826E+03  0.00000000000E+00 0.  1.
         25    1    1    2    0    0  0.74153573229E+03 -0.21426168846E+02  0.69469410842E+03  0.10239918101E+04  0.12500000000E+03 0.  0.
          2    1    1    2  502    0 -0.77121448338E+03  0.11746687504E+02  0.11455714292E+04  0.13810299285E+04  0.00000000000E+00 0.  1.
         -1    1    1    2    0  502  0.29678751093E+02  0.96794813425E+01 -0.13303260070E+03  0.13664623477E+03  0.00000000000E+00 0.  1.
<mgrwt>
<rscale>  4 0.76922912E+03</rscale>
<asrwt>0</asrwt>
<pdfrwt beam="1">  1        2 0.32683852E+00 0.76922912E+03</pdfrwt>
<pdfrwt beam="2">  1       -1 0.64187312E-01 0.76922912E+03</pdfrwt>
<totfact> 0.16590665E+01</totfact>
</mgrwt>
</event>
<event>
 5    0  0.1226227E+000  0.2932519E+03  0.7546771E-02  0.1088663E+00
         -2   -1    0    0    0  501 -0.00000000000E+00  0.00000000000E+00  0.81414764326E+02  0.81414764326E+02  0.00000000000E+00 0.  1.
          2   -1    0    0  502    0  0.00000000000E+00 -0.00000000000E+00 -0.21672795391E+04  0.21672795391E+04  0.00000000000E+00 0.  1.
         25    1    1    2    0    0 -0.23323563392E+03  0.89585117444E+02 -0.11371302003E+04  0.11709459623E+04  0.12500000000E+03 0.  0.
          2    1    1    2  502    0  0.27562227685E+03 -0.71260265527E+02 -0.98096206705E+03  0.10214363622E+04  0.00000000000E+00 0.  1.
         -2    1    1    2    0  501 -0.42386642928E+02 -0.18324851917E+02  0.32227492583E+02  0.56311978962E+02  0.00000000000E+00 0.  1.
<mgrwt>
<rscale>  4 0.29325191E+03</rscale>
<asrwt>0</asrwt>
<pdfrwt beam="1">  1        2 0.33342761E+00 0.29325191E+03</pdfrwt>
<pdfrwt beam="2">  1       -2 0.12525349E-01 0.29325191E+03</pdfrwt>
<totfact> 0.27892190E+02</totfact>
</mgrwt>
</event>
<event>
 5    0  0.1226227E+000  0.1986947E+03  0.7546771E-02  0.1150845E+00
          2   -1    0    0  502    0  0.00000000000E+00  0.00000000000E+00  0.65338563470E+03  0.65338563470E+03  0.00000000000E+00 0.  1.
          1   -1    0    0  501    0 -0.00000000000E+00 -0.00000000000E+00 -0.14104583009E+03  0.14104583009E+03  0.00000000000E+00 0.  1.
         25    1    1    2    0    0  0.20339533558E+03  0.86967680444E+02  0.11250639576E+03  0.27787718341E+03  0.12500000000E+03 0.  0.
          2    1    1    2  501    0 -0.12856978608E+03 -0.66169356159E+02  0.41318188008E+03  0.43775317202E+03  0.00000000000E+00 0.  1.
          1    1    1    2  502    0 -0.74825549498E+02 -0.20798324284E+02 -0.13348471234E+02  0.78801109352E+02  0.00000000000E+00 0.  1.
<mgrwt>
<rscale>  4 0.19869467E+03</rscale>
<asrwt>0</asrwt>
<pdfrwt beam="1">  1        2 0.10052086E+00 0.19869467E+03</pdfrwt>
<pdfrwt beam="2">  1        1 0.21699359E-01 0.19869467E+03</pdfrwt>
<totfact> 0.14210648E+03</totfact>
</mgrwt>
</event>
<event>
 5    0  0.1226227E+000  0.1787179E+03  0.7546771E-02  0.1169050E+00
          1   -1    0    0  501    0 -0.00000000000E+00  0.00000000000E+00  0.79418484701E+03  0.79418484701E+03  0.00000000000E+00 0. -1.
          2   -1    0    0  502    0  0.00000000000E+00 -0.00000000000E+00 -0.23163612891E+03  0.23163612891E+03  0.00000000000E+00 0. -1.
         25    1    1    2    0    0  0.16954833244E+02 -0.20032892079E+03  0.33388883663E+03  0.40929927694E+03  0.12500000000E+03 0.  0.
          2    1    1    2  501    0 -0.19058340522E+02  0.87491543001E+02 -0.17543370567E+03  0.19696440167E+03  0.00000000000E+00 0. -1.
          1    1    1    2  502    0  0.21035072782E+01  0.11283737779E+03  0.40409358713E+03  0.41955729731E+03  0.00000000000E+00 0. -1.
<mgrwt>
<rscale>  4 0.17871793E+03</rscale>
<asrwt>0</asrwt>
<pdfrwt beam="1">  1        2 0.35636328E-01 0.17871793E+03</pdfrwt>
<pdfrwt beam="2">  1        1 0.12218228E+00 0.17871793E+03</pdfrwt>
<totfact> 0.46753132E+02</totfact>
</mgrwt>
</event>
<event>
 5    0  0.1226227E+000  0.2330906E+03  0.7546771E-02  0.1124483E+00
          2   -1    0    0  502    0  0.00000000000E+00  0.00000000000E+00  0.44040024506E+03  0.44040024506E+03  0.00000000000E+00 0.  1.
          1   -1    0    0  501    0 -0.00000000000E+00 -0.00000000000E+00 -0.16933555912E+04  0.16933555912E+04  0.00000000000E+00 0.  1.
         25    1    1    2    0    0 -0.30431215033E+03  0.63018543144E+02 -0.12762063643E+03  0.35845396979E+03  0.12500000000E+03 0.  0.
          2    1    1    2  501    0  0.11643759341E+03 -0.10101554253E+03  0.29992048808E+03  0.33721529052E+03  0.00000000000E+00 0.  1.
          1    1    1    2  502    0  0.18787455692E+03  0.37996999391E+02 -0.14252551978E+04  0.14380865759E+04  0.00000000000E+00 0.  1.
<mgrwt>
<rscale>  4 0.23309056E+03</rscale>
<asrwt>0</asrwt>
<pdfrwt beam="1">  1        2 0.67753884E-01 0.23309056E+03</pdfrwt>
<pdfrwt beam="2">  1        1 0.26051624E+00 0.23309056E+03</pdfrwt>
<totfact> 0.53429765E+01</totfact>
</mgrwt>
</event>
<event>
 5    0  0.1226227E+000  0.1631523E+03  0.7546771E-02  0.1185183E+00
         -1   -1    0    0    0  501 -0.00000000000E+00  0.00000000000E+00  0.40527570541E+03  0.40527570541E+03  0.00000000000E+00 0. -1.
          1   -1    0    0  502    0  0.00000000000E+00 -0.00000000000E+00 -0.86660026070E+03  0.86660026070E+03  0.00000000000E+00 0.  1.
         25    1    1    2    0    0 -0.28622768649E+02 -0.20081267919E+03 -0.36184598217E+03  0.43324647698E+03  0.12500000000E+03 0.  0.
          1    1    1    2  502    0  0.27274124029E+02  0.97739952823E+02 -0.45618119884E+03  0.46733099876E+03  0.00000000000E+00 0.  1.
         -1    1    1    2    0  501  0.13486446197E+01  0.10307272636E+03  0.35670262572E+03  0.37129849038E+03  0.00000000000E+00 0. -1.
<mgrwt>
<rscale>  4 0.16315235E+03</rscale>
<asrwt>0</asrwt>
<pdfrwt beam="1">  1        1 0.13332312E+00 0.16315235E+03</pdfrwt>
<pdfrwt beam="2">  1       -1 0.62350109E-01 0.16315235E+03</pdfrwt>
<totfact> 0.57666350E+01</totfact>
</mgrwt>
</event>
<event>
 5    0  0.1226227E+000  0.1861154E+03  0.7546771E-02  0.1162012E+00
          1   -1    0    0  502    0  0.00000000000E+00  0.00000000000E+00  0.11922705124E+03  0.11922705124E+03  0.00000000000E+00 0.  1.
          1   -1    0    0  501    0 -0.00000000000E+00 -0.00000000000E+00 -0.82459456168E+03  0.82459456168E+03  0.00000000000E+00 0.  1.
         25    1    1    2    0    0  0.35348539995E+02  0.22418178175E+03 -0.56062559591E+03  0.61760266299E+03  0.12500000000E+03 0.  0.
          1    1    1    2  501    0 -0.17905131399E+02 -0.95650233804E+02 -0.16828011467E+03  0.19439073525E+03  0.00000000000E+00 0.  1.
          1    1    1    2  502    0 -0.17443408596E+02 -0.12853154794E+03  0.23538200129E+02  0.13182821468E+03  0.00000000000E+00 0.  1.
<mgrwt>
<rscale>  4 0.18611545E+03</rscale>
<asrwt>0</asrwt>
<pdfrwt beam="1">  1        1 0.18342623E-01 0.18611545E+03</pdfrwt>
<pdfrwt beam="2">  1        1 0.12686071E+00 0.18611545E+03</pdfrwt>
<totfact> 0.75535923E+02</totfact>
</mgrwt>
</event>
<event>
 5    0  0.1226227E+000  0.2084059E+03  0.7546771E-02  0.1142835E+00
         -3   -1    0    0    0  501 -0.00000000000E+00  0.00000000000E+00  0.24549494335E+03  0.24549494335E+03  0.00000000000E+00 0.  1.
          1   -1    0    0  501    0  0.00000000000E+00 -0.00000000000E+00 -0.79521221262E+03  0.79521221262E+03  0.00000000000E+00 0.  1.
         25    1    1    2    0    0  0.26125742747E+03  0.34789354743E+02 -0.22319810188E+03  0.36729842811E+03  0.12500000000E+03 0.  0.
          1    1    1    2  502    0 -0.11152809026E+03  0.58893655237E+01 -0.45714313926E+03  0.47058798254E+03  0.00000000000E+00 0.  1.
         -3    1    1    2    0  502 -0.14972933721E+03 -0.40678720267E+02  0.13062397187E+03  0.20282074531E+03  0.00000000000E+00 0.  1.
<mgrwt>
<rscale>  4 0.20840588E+03</rscale>
<asrwt>0</asrwt>
<pdfrwt beam="1">  1        1 0.12234034E+00 0.20840588E+03</pdfrwt>
<pdfrwt beam="2">  1       -3 0.37768453E-01 0.20840588E+03</pdfrwt>
<totfact> 0.88971153E+01</totfact>
</mgrwt>
</event>
<event>
 5    0  0.1226227E+000  0.3412868E+03  0.7546771E-02  0.1066249E+00
          2   -1    0    0  502    0  0.00000000000E+00  0.00000000000E+00  0.12526202564E+04  0.12526202564E+04  0.00000000000E+00 0.  1.
          1   -1    0    0  501    0 -0.00000000000E+00 -0.00000000000E+00 -0.24565813761E+03  0.24565813761E+03  0.00000000000E+00 0.  1.
         25    1    1    2    0    0  0.24011909086E+03  0.24928000515E+03  0.58440270308E+02  0.37260966702E+03  0.12500000000E+03 0.  0.
          2    1    1    2  501    0 -0.10116000098E+02 -0.75994185558E+02  0.79621562440E+03  0.79989797489E+03  0.00000000000E+00 0.  1.
          1    1    1    2  502    0 -0.23000309076E+03 -0.17328581960E+03  0.15230622409E+03  0.32577075211E+03  0.00000000000E+00 0.  1.
<mgrwt>
<rscale>  4 0.34128679E+03</rscale>
<asrwt>0</asrwt>
<pdfrwt beam="1">  1        2 0.19271081E+00 0.34128679E+03</pdfrwt>
<pdfrwt beam="2">  1        1 0.37793560E-01 0.34128679E+03</pdfrwt>
<totfact> 0.28376867E+02</totfact>
</mgrwt>
</event>
<event>
 5    0  0.1226227E+000  0.2788354E+03  0.7546771E-02  0.1096327E+00
         -3   -1    0    0    0  501 -0.00000000000E+00  0.00000000000E+00  0.49328555881E+03  0.49328555881E+03  0.00000000000E+00 0. -1.
          2   -1    0    0  501    0  0.00000000000E+00 -0.00000000000E+00 -0.96477635239E+03  0.96477635239E+03  0.00000000000E+00 0.  1.
         25    1    1    2    0    0 -0.10765072755E+03  0.20752097641E+03 -0.66078010534E+02  0.27321225863E+03  0.12500000000E+03 0.  0.
          2    1    1    2  502    0  0.16094128019E+01  0.22230738829E+02 -0.75387422076E+03  0.75420364404E+03  0.00000000000E+00 0.  1.
         -3    1    1    2    0  502  0.10604131475E+03 -0.22975171524E+03  0.34846143771E+03  0.43064600852E+03  0.00000000000E+00 0. -1.
<mgrwt>
<rscale>  4 0.27883541E+03</rscale>
<asrwt>0</asrwt>
<pdfrwt beam="1">  1        2 0.14842713E+00 0.27883541E+03</pdfrwt>
<pdfrwt beam="2">  1       -3 0.75890087E-01 0.27883541E+03</pdfrwt>
<totfact> 0.28656795E+01</totfact>
</mgrwt>
</event>
<event>
 5    0  0.1226227E+000  0.2303681E+03  0.7546771E-02  0.1126381E+00
          1   -1    0    0  502    0  0.00000000000E+00  0.00000000000E+00  0.74765944666E+03  0.74765944666E+03  0.00000000000E+00 0.  1.
          1   -1    0    0  501    0 -0.00000000000E+00 -0.00000000000E+00 -0.88262227168E+03  0.88262227168E+03  0.00000000000E+00 0.  1.
         25    1    1    2    0    0 -0.17022497999E+02 -0.23163772174E+03 -0.14184119003E+03  0.29948242479E+03  0.12500000000E+03 0.  0.
          1    1    1    2  501    0  0.14427108550E+02  0.44598893670E+02  0.65476959887E+03  0.65644529885E+03  0.00000000000E+00 0.  1.
          1    1    1    2  502    0  0.25953894493E+01  0.18703882807E+03 -0.64789123386E+03  0.67435399470E+03  0.00000000000E+00 0.  1.
<mgrwt>
<rscale>  4 0.23036811E+03</rscale>
<asrwt>0</asrwt>
<pdfrwt beam="1">  1        1 0.11502453E+00 0.23036811E+03</pdfrwt>
<pdfrwt beam="2">  1        1 0.13578804E+00 0.23036811E+03</pdfrwt>
<totfact> 0.61907313E+01</totfact>
</mgrwt>
</event>
<event>
 5    0  0.1226227E+000  0.3107607E+03  0.7546771E-02  0.1079982E+00
          4   -1    0    0  502    0  0.00000000000E+00  0.00000000000E+00  0.77844477000E+02  0.77844477000E+02  0.00000000000E+00 0. -1.
          1   -1    0    0  501    0 -0.00000000000E+00 -0.00000000000E+00 -0.36948640804E+04  0.36948640804E+04  0.00000000000E+00 0.  1.
         25    1    1    2    0    0 -0.18500432582E+03 -0.32066173669E+03 -0.12290238931E+04  0.12896415315E+04  0.12500000000E+03 0.  0.
          4    1    1    2  501    0  0.11302149871E+03  0.65349575362E+02 -0.66592546241E+02  0.14655713352E+03  0.00000000000E+00 0. -1.
          1    1    1    2  502    0  0.71982827111E+02  0.25531216133E+03 -0.23214031641E+04  0.23365098924E+04  0.00000000000E+00 0.  1.
<mgrwt>
<rscale>  4 0.31076072E+03</rscale>
<asrwt>0</asrwt>
<pdfrwt beam="1">  1        4 0.11976072E-01 0.31076072E+03</pdfrwt>
<pdfrwt beam="2">  1        1 0.56844069E+00 0.31076072E+03</pdfrwt>
<totfact> 0.58748253E+00</totfact>
</mgrwt>
</event>
<event>
 5    0  0.1226227E+000  0.2243343E+03  0.7546771E-02  0.1130692E+00
          3   -1    0    0  501    0 -0.00000000000E+00  0.00000000000E+00  0.75914547700E+03  0.75914547700E+03  0.00000000000E+00 0.  1.
          1   -1    0    0  502    0  0.00000000000E+00 -0.00000000000E+00 -0.96470585319E+03  0.96470585319E+03  0.00000000000E+00 0. -1.
         25    1    1    2    0    0  0.12878654234E+03  0.21465543151E+03 -0.26531554628E+02  0.28105488994E+03  0.12500000000E+03 0.  0.
          1    1    1    2  501    0 -0.80927714640E+02 -0.16215439777E+03 -0.79873246378E+03  0.81903412164E+03  0.00000000000E+00 0. -1.
          3    1    1    2  502    0 -0.47858827700E+02 -0.52501033741E+02  0.61970364222E+03  0.62376231861E+03  0.00000000000E+00 0.  1.
<mgrwt>
<rscale>  4 0.22433430E+03</rscale>
<asrwt>0</asrwt>
<pdfrwt beam="1">  1        1 0.14841629E+00 0.22433430E+03</pdfrwt>
<pdfrwt beam="2">  1        3 0.11679161E+00 0.22433430E+03</pdfrwt>
<totfact> 0.59138023E+00</totfact>
</mgrwt>
</event>
<event>
 5    0  0.1226227E+000  0.1920531E+03  0.7546771E-02  0.1156623E+00
          2   -1    0    0  502    0  0.00000000000E+00  0.00000000000E+00  0.13738032066E+04  0.13738032066E+04  0.00000000000E+00 0. -1.
          2   -1    0    0  501    0 -0.00000000000E+00 -0.00000000000E+00 -0.13706193571E+04  0.13706193571E+04  0.00000000000E+00 0.  1.
         25    1    1    2    0    0  0.13001940642E+03  0.15591123039E+03 -0.36904492567E+01  0.23843652661E+03  0.12500000000E+03 0.  0.
          2    1    1    2  501    0 -0.12282106413E+03 -0.75545419048E+02  0.12509818271E+04  0.12592647283E+04  0.00000000000E+00 0. -1.
          2    1    1    2  502    0 -0.71983422846E+01 -0.80365811342E+02 -0.12441075284E+04  0.12467213089E+04  0.00000000000E+00 0.  1.
<mgrwt>
<rscale>  4 0.19205306E+03</rscale>
<asrwt>0</asrwt>
<pdfrwt beam="1">  1        2 0.21135434E+00 0.19205306E+03</pdfrwt>
<pdfrwt beam="2">  1        2 0.21086452E+00 0.19205306E+03</pdfrwt>
<totfact> 0.42187621E+01</totfact>
</mgrwt>
</event>
<event>
 5    0  0.1226227E+000  0.3665347E+03  0.7546771E-02  0.1056026E+00
         -4   -1    0    0    0  501 -0.00000000000E+00  0.00000000000E+00  0.29852296264E+03  0.29852296264E+03  0.00000000000E+00 0. -1.
          1   -1    0    0  501    0  0.00000000000E+00 -0.00000000000E+00 -0.20624336145E+04  0.20624336145E+04  0.00000000000E+00 0.  1.
         25    1    1    2    0    0 -0.32361247564E+03  0.67398423786E+02 -0.11507038708E+04  0.12037491350E+04  0.12500000000E+03 0.  0.
          1    1    1    2  502    0  0.38385755421E+03  0.13732686857E+03 -0.78413786528E+03  0.88378588047E+03  0.00000000000E+00 0.  1.
         -4    1    1    2    0  502 -0.60245078568E+02 -0.20472529236E+03  0.17093108419E+03  0.27342156163E+03  0.00000000000E+00 0. -1.
<mgrwt>
<rscale>  4 0.36653469E+03</rscale>
<asrwt>0</asrwt>
<pdfrwt beam="1">  1        1 0.31729747E+00 0.36653469E+03</pdfrwt>
<pdfrwt beam="2">  1       -4 0.45926611E-01 0.36653469E+03</pdfrwt>
<totfact> 0.65623548E+00</totfact>
</mgrwt>
</event>
<event>
 5    0  0.1226227E+000  0.3507406E+03  0.7546771E-02  0.1062311E+00
         -2   -1    0    0    0  501 -0.00000000000E+00  0.00000000000E+00  0.24588838241E+03  0.24588838241E+03  0.00000000000E+00 0. -1.
          2   -1    0    0  502    0  0.00000000000E+00 -0.00000000000E+00 -0.19374946672E+04  0.19374946672E+04  0.00000000000E+00 0. -1.
         25    1    1    2    0    0  0.31971280754E+03 -0.17852970560E+03 -0.13324551854E+03  0.40922915744E+03  0.12500000000E+03 0.  0.
          2    1    1    2  502    0 -0.30326459093E+03  0.11325533262E+03 -0.16381113031E+04  0.16697918505E+04  0.00000000000E+00 0. -1.
         -2    1    1    2    0  501 -0.16448216607E+02  0.65274372977E+02  0.79750536925E+02  0.10436204165E+03  0.00000000000E+00 0. -1.
<mgrwt>
<rscale>  4 0.35074060E+03</rscale>
<asrwt>0</asrwt>
<pdfrwt beam="1">  1        2 0.29807612E+00 0.35074060E+03</pdfrwt>
<pdfrwt beam="2">  1       -2 0.37828980E-01 0.35074060E+03</pdfrwt>
<totfact> 0.52571834E+01</totfact>
</mgrwt>
</event>
<event>
 5    0  0.1226227E+000  0.3074190E+03  0.7546771E-02  0.1081590E+00
          1   -1    0    0  501    0 -0.00000000000E+00  0.00000000000E+00  0.11947628340E+04  0.11947628340E+04  0.00000000000E+00 0.  1.
          2   -1    0    0  502    0  0.00000000000E+00 -0.00000000000E+00 -0.94939373430E+03  0.94939373430E+03  0.00000000000E+00 0. -1.
         25    1    1    2    0    0 -0.34395595874E+03  0.31028894227E+03 -0.36644960697E+03  0.60373441487E+03  0.12500000000E+03 0.  0.
          2    1    1    2  501    0  0.17014856246E+03 -0.98040803993E+02 -0.42486650893E+03  0.46805350439E+03  0.00000000000E+00 0. -1.
          1    1    1    2  502    0  0.17380739628E+03 -0.21224813828E+03  0.10366852156E+04  0.10723686490E+04  0.00000000000E+00 0.  1.
<mgrwt>
<rscale>  4 0.30741901E+03</rscale>
<asrwt>0</asrwt>
<pdfrwt beam="1">  1        2 0.14606057E+00 0.30741901E+03</pdfrwt>
<pdfrwt beam="2">  1        1 0.18380967E+00 0.30741901E+03</pdfrwt>
<totfact> 0.44305575E+01</totfact>
</mgrwt>
</event>
<event>
 5    0  0.1226227E+000  0.2470416E+03  0.7546771E-02  0.1115189E+00
          2   -1    0    0  502    0  0.00000000000E+00  0.00000000000E+00  0.12822249507E+04  0.12822249507E+04  0.00000000000E+00 0.  1.
         -2   -1    0    0    0  501 -0.00000000000E+00 -0.00000000000E+00 -0.12165566150E+03  0.12165566150E+03  0.00000000000E+00 0.  1.
         25    1    1    2    0    0 -0.23224097888E+03  0.10487666658E+03  0.10714663269E+04  0.11084223370E+04  0.12500000000E+03 0.  0.
          2    1    1    2  502    0  0.66602688740E+02  0.20703138929E+02  0.11524416279E+01  0.69755761272E+02  0.00000000000E+00 0.  1.
         -2    1    1    2    0  501  0.16563829013E+03 -0.12557980551E+03  0.87950520673E+02  0.22570251393E+03  0.00000000000E+00 0.  1.
<mgrwt>
<rscale>  4 0.24704164E+03</rscale>
<asrwt>0</asrwt>
<pdfrwt beam="1">  1        2 0.19726537E+00 0.24704164E+03</pdfrwt>
<pdfrwt beam="2">  1       -2 0.18716256E-01 0.24704164E+03</pdfrwt>
<totfact> 0.42669566E+02</totfact>
</mgrwt>
</event>
<event>
 5    0  0.1226227E+000  0.2368112E+03  0.7546771E-02  0.1121936E+00
          1   -1    0    0  502    0  0.00000000000E+00  0.00000000000E+00  0.29799606774E+03  0.29799606774E+03  0.00000000000E+00 0.  1.
          1   -1    0    0  501    0 -0.00000000000E+00 -0.00000000000E+00 -0.35636856100E+03  0.35636856100E+03  0.00000000000E+00 0.  1.
         25    1    1    2    0    0  0.12919754458E+03 -0.16875830124E+03 -0.23717552311E+03  0.34212365970E+03  0.12500000000E+03 0.  0.
          1    1    1    2  501    0 -0.14769791409E+03  0.96793054722E+02  0.96038065506E+02  0.20101462458E+03  0.00000000000E+00 0.  1.
          1    1    1    2  502    0  0.18500369512E+02  0.71965246513E+02  0.82764964353E+02  0.11122634446E+03  0.00000000000E+00 0.  1.
<mgrwt>
<rscale>  4 0.23681120E+03</rscale>
<asrwt>0</asrwt>
<pdfrwt beam="1">  1        1 0.45845549E-01 0.23681120E+03</pdfrwt>
<pdfrwt beam="2">  1        1 0.54825933E-01 0.23681120E+03</pdfrwt>
<totfact> 0.74317405E+02</totfact>
</mgrwt>
</event>
<event>
 5    0  0.1226227E+000  0.2401434E+03  0.7546771E-02  0.1119697E+00
          1   -1    0    0  502    0  0.00000000000E+00  0.00000000000E+00  0.48010389010E+03  0.48010389010E+03  0.00000000000E+00 0. -1.
          1   -1    0    0  501    0 -0.00000000000E+00 -0.00000000000E+00 -0.14023640800E+04  0.14023640800E+04  0.00000000000E+00 0. -1.
         25    1    1    2    0    0  0.25963115526E+03  0.13954505032E+02 -0.40717464818E+03  0.49901829537E+03  0.12500000000E+03 0.  0.
          1    1    1    2  501    0 -0.66388683721E+02 -0.22254107729E+02  0.42141054960E+03  0.42718796092E+03  0.00000000000E+00 0. -1.
          1    1    1    2  502    0 -0.19324247154E+03  0.82996026965E+01 -0.93649609129E+03  0.95626171377E+03  0.00000000000E+00 0. -1.
<mgrwt>
<rscale>  4 0.24014343E+03</rscale>
<asrwt>0</asrwt>
<pdfrwt beam="1">  1        1 0.73862138E-01 0.24014343E+03</pdfrwt>
<pdfrwt beam="2">  1        1 0.21574832E+00 0.24014343E+03</pdfrwt>
<totfact> 0.48506273E+01</totfact>
</mgrwt>
</event>
<event>
 5    0  0.1226227E+000  0.2122538E+03  0.7546771E-02  0.1139794E+00
          2   -1    0    0  502    0  0.00000000000E+00  0.00000000000E+00  0.31194351838E+03  0.31194351838E+03  0.00000000000E+00 0.  1.
          2   -1    0    0  501    0 -0.00000000000E+00 -0.00000000000E+00 -0.12510409637E+04  0.12510409637E+04  0.00000000000E+00 0.  1.
         25    1    1    2    0    0  0.35827749844E+02  0.21603109973E+03 -0.67355632859E+03  0.71920524990E+03  0.12500000000E+03 0.  0.
          2    1    1    2  501    0 -0.81839827435E+01 -0.16968739468E+03  0.26266941650E+03  0.31281945568E+03  0.00000000000E+00 0.  1.
          2    1    1    2  502    0 -0.27643767101E+02 -0.46343705047E+02 -0.52821053319E+03  0.53095977648E+03  0.00000000000E+00 0.  1.
<mgrwt>
<rscale>  4 0.21225380E+03</rscale>
<asrwt>0</asrwt>
<pdfrwt beam="1">  1        2 0.47991310E-01 0.21225380E+03</pdfrwt>
<pdfrwt beam="2">  1        2 0.19246784E+00 0.21225380E+03</pdfrwt>
<totfact> 0.30921805E+02</totfact>
</mgrwt>
</event>
<event>
 5    0  0.1226227E+000  0.3184516E+03  0.7546771E-02  0.1076364E+00
          2   -1    0    0  502    0  0.00000000000E+00  0.00000000000E+00  0.13088460614E+03  0.13088460614E+03  0.00000000000E+00 0.  1.
          2   -1    0    0  501    0 -0.00000000000E+00 -0.00000000000E+00 -0.14198183405E+04  0.14198183405E+04  0.00000000000E+00 0.  1.
         25    1    1    2    0    0  0.30902317993E+03 -0.15680006291E+03 -0.42465025698E+03  0.56216939281E+03  0.12500000000E+03 0.  0.
          2    1    1    2  501    0 -0.62401403455E+02  0.32259283975E+02  0.10618314473E+02  0.71044670159E+02  0.00000000000E+00 0.  1.
          2    1    1    2  502    0 -0.24662177648E+03  0.12454077893E+03 -0.87490179189E+03  0.91748888369E+03  0.00000000000E+00 0.  1.
<mgrwt>
<rscale>  4 0.31845165E+03</rscale>
<asrwt>0</asrwt>
<pdfrwt beam="1">  1        2 0.20136092E-01 0.31845165E+03</pdfrwt>
<pdfrwt beam="2">  1        2 0.21843360E+00 0.31845165E+03</pdfrwt>
<totfact> 0.63840603E+02</totfact>
</mgrwt>
</event>
<event>
 5    0  0.1226227E+000  0.2550977E+03  0.7546771E-02  0.1110125E+00
         -3   -1    0    0    0  501 -0.00000000000E+00  0.00000000000E+00  0.79671565956E+02  0.79671565956E+02  0.00000000000E+00 0.  1.
          2   -1    0    0  501    0  0.00000000000E+00 -0.00000000000E+00 -0.14074497780E+04  0.14074497780E+04  0.00000000000E+00 0. -1.
         25    1    1    2    0    0 -0.19167557510E+03 -0.14319459145E+03 -0.10482483795E+04  0.10824480968E+04  0.12500000000E+03 0.  0.
          2    1    1    2  502    0  0.16987544410E+03  0.94611392431E+02 -0.29120702297E+03  0.35015783914E+03  0.00000000000E+00 0. -1.
         -3    1    1    2    0  502  0.21800131001E+02  0.48583199019E+02  0.11677190410E+02  0.54515408047E+02  0.00000000000E+00 0.  1.
<mgrwt>
<rscale>  4 0.25509769E+03</rscale>
<asrwt>0</asrwt>
<pdfrwt beam="1">  1        2 0.21653074E+00 0.25509769E+03</pdfrwt>
<pdfrwt beam="2">  1       -3 0.12257164E-01 0.25509769E+03</pdfrwt>
<totfact> 0.50951641E+02</totfact>
</mgrwt>
</event>
<event>
 5    0  0.1226227E+000  0.6267348E+03  0.7546771E-02  0.9851441E-01
          2   -1    0    0  502    0  0.00000000000E+00  0.00000000000E+00  0.22597272794E+04  0.22597272794E+04  0.00000000000E+00 0. -1.
         -2   -1    0    0    0  501 -0.00000000000E+00 -0.00000000000E+00 -0.42117627405E+03  0.42117627405E+03  0.00000000000E+00 0.  1.
         25    1    1    2    0    0  0.56639016457E+03 -0.24095781429E+03 -0.39144022958E+02  0.62929781608E+03  0.12500000000E+03 0.  0.
          2    1    1    2  502    0 -0.55474368670E+03  0.26318708133E+03  0.19125280994E+04  0.20086741220E+04  0.00000000000E+00 0. -1.
         -2    1    1    2    0  501 -0.11646477870E+02 -0.22229267034E+02 -0.34833071026E+02  0.42931615352E+02  0.00000000000E+00 0.  1.
<mgrwt>
<rscale>  4 0.62673476E+03</rscale>
<asrwt>0</asrwt>
<pdfrwt beam="1">  1        2 0.34765034E+00 0.62673476E+03</pdfrwt>
<pdfrwt beam="2">  1       -2 0.64796351E-01 0.62673476E+03</pdfrwt>
<totfact> 0.11177365E+01</totfact>
</mgrwt>
</event>
<event>
 5    0  0.1226227E+000  0.3009656E+03  0.7546771E-02  0.1084759E+00
          2   -1    0    0  502    0  0.00000000000E+00  0.00000000000E+00  0.25986395419E+04  0.25986395419E+04  0.00000000000E+00 0. -1.
          1   -1    0    0  501    0 -0.00000000000E+00 -0.00000000000E+00 -0.59562652154E+03  0.59562652154E+03  0.00000000000E+00 0.  1.
         25    1    1    2    0    0  0.11885958585E+03 -0.32572412019E+03  0.66800898016E+03  0.76294482186E+03  0.12500000000E+03 0.  0.
          2    1    1    2  501    0 -0.96671923493E+02  0.55729884984E+02  0.18479058033E+04  0.18512717626E+04  0.00000000000E+00 0. -1.
          1    1    1    2  502    0 -0.22187662362E+02  0.26999423520E+03 -0.51290176317E+03  0.58004947898E+03  0.00000000000E+00 0.  1.
<mgrwt>
<rscale>  4 0.30096565E+03</rscale>
<asrwt>0</asrwt>
<pdfrwt beam="1">  1        2 0.39979069E+00 0.30096565E+03</pdfrwt>
<pdfrwt beam="2">  1        1 0.91634851E-01 0.30096565E+03</pdfrwt>
<totfact> 0.17025804E+01</totfact>
</mgrwt>
</event>
<event>
 5    0  0.1226227E+000  0.2490219E+03  0.7546771E-02  0.1113924E+00
          3   -1    0    0  501    0 -0.00000000000E+00  0.00000000000E+00  0.36410711698E+03  0.36410711698E+03  0.00000000000E+00 0.  1.
          1   -1    0    0  502    0  0.00000000000E+00 -0.00000000000E+00 -0.14429230741E+04  0.14429230741E+04  0.00000000000E+00 0. -1.
         25    1    1    2    0    0  0.13692355420E+02  0.22889604557E+03 -0.58003274477E+03  0.63611623567E+03  0.12500000000E+03 0.  0.
          1    1    1    2  501    0 -0.10244179942E+00 -0.20899962394E+03 -0.82131169200E+03  0.84748672480E+03  0.00000000000E+00 0. -1.
          3    1    1    2  502    0 -0.13589913621E+02 -0.19896421629E+02  0.32252847963E+03  0.32342723064E+03  0.00000000000E+00 0.  1.
<mgrwt>
<rscale>  4 0.24902195E+03</rscale>
<asrwt>0</asrwt>
<pdfrwt beam="1">  1        1 0.22198816E+00 0.24902195E+03</pdfrwt>
<pdfrwt beam="2">  1        3 0.56016480E-01 0.24902195E+03</pdfrwt>
<totfact> 0.13689982E+01</totfact>
</mgrwt>
</event>
<event>
 5    0  0.1226227E+000  0.3302380E+03  0.7546771E-02  0.1071032E+00
          1   -1    0    0  501    0 -0.00000000000E+00  0.00000000000E+00  0.12276183718E+04  0.12276183718E+04  0.00000000000E+00 0.  1.
          2   -1    0    0  502    0  0.00000000000E+00 -0.00000000000E+00 -0.17012739992E+04  0.17012739992E+04  0.00000000000E+00 0.  1.
         25    1    1    2    0    0  0.23249967673E+03  0.14154566321E+03  0.15341464778E+03  0.33652983316E+03  0.12500000000E+03 0.  0.
          2    1    1    2  501    0  0.23050295558E+02  0.42776754275E+02 -0.15840758055E+04  0.15848209124E+04  0.00000000000E+00 0.  1.
          1    1    1    2  502    0 -0.25554997229E+03 -0.18432241748E+03  0.95700553031E+03  0.10075416254E+04  0.00000000000E+00 0.  1.
<mgrwt>
<rscale>  4 0.33023803E+03</rscale>
<asrwt>0</asrwt>
<pdfrwt beam="1">  1        2 0.26173446E+00 0.33023803E+03</pdfrwt>
<pdfrwt beam="2">  1        1 0.18886436E+00 0.33023803E+03</pdfrwt>
<totfact> 0.15659420E+01</totfact>
</mgrwt>
</event>
<event>
 5    0  0.1226227E+000  0.2211185E+03  0.7546771E-02  0.1133052E+00
          1   -1    0    0  501    0  0.00000000000E+00  0.00000000000E+00  0.13467397523E+04  0.13467397523E+04  0.00000000000E+00 0.  1.
         -3   -1    0    0    0  501 -0.00000000000E+00 -0.00000000000E+00 -0.10379333151E+04  0.10379333151E+04  0.00000000000E+00 0.  1.
         25    1    1    2    0    0 -0.16467460735E+02 -0.28190325811E+03  0.19258981003E+03  0.36394568156E+03  0.12500000000E+03 0.  0.
          1    1    1    2  502    0 -0.25920909619E+02  0.17256289205E+03  0.10576853339E+04  0.10719832605E+04  0.00000000000E+00 0.  1.
         -3    1    1    2    0  502  0.42388370354E+02  0.10934036606E+03 -0.94146870676E+03  0.94874412536E+03  0.00000000000E+00 0.  1.
<mgrwt>
<rscale>  4 0.22111849E+03</rscale>
<asrwt>0</asrwt>
<pdfrwt beam="1">  1        1 0.20719073E+00 0.22111849E+03</pdfrwt>
<pdfrwt beam="2">  1       -3 0.15968205E+00 0.22111849E+03</pdfrwt>
<totfact> 0.14639944E+00</totfact>
</mgrwt>
</event>
<event>
 5    0  0.1226227E+000  0.1964883E+03  0.7546771E-02  0.1152736E+00
         -4   -1    0    0    0  501 -0.00000000000E+00  0.00000000000E+00  0.23633438966E+03  0.23633438966E+03  0.00000000000E+00 0.  1.
          2   -1    0    0  501    0  0.00000000000E+00 -0.00000000000E+00 -0.25675537651E+04  0.25675537651E+04  0.00000000000E+00 0.  1.
         25    1    1    2    0    0  0.11887966732E+03 -0.19601342113E+03 -0.56675174786E+03  0.62400815721E+03  0.12500000000E+03 0.  0.
          2    1    1    2  502    0 -0.57185109963E+02  0.61263563111E+02 -0.19447199212E+04  0.19465248349E+04  0.00000000000E+00 0.  1.
         -4    1    1    2    0  502 -0.61694557358E+02  0.13474985802E+03  0.18025229355E+03  0.23335516273E+03  0.00000000000E+00 0.  1.
<mgrwt>
<rscale>  4 0.19648828E+03</rscale>
<asrwt>0</asrwt>
<pdfrwt beam="1">  1        2 0.39500824E+00 0.19648828E+03</pdfrwt>
<pdfrwt beam="2">  1       -4 0.36359139E-01 0.19648828E+03</pdfrwt>
<totfact> 0.14853931E+01</totfact>
</mgrwt>
</event>
<event>
 5    0  0.1226227E+000  0.2089273E+03  0.7546771E-02  0.1142418E+00
          1   -1    0    0  501    0 -0.00000000000E+00  0.00000000000E+00  0.20205308277E+04  0.20205308277E+04  0.00000000000E+00 0. -1.
          2   -1    0    0  502    0  0.00000000000E+00 -0.00000000000E+00 -0.72972046807E+03  0.72972046807E+03  0.00000000000E+00 0. -1.
         25    1    1    2    0    0 -0.10943848009E+03 -0.25637855516E+03 -0.38347090527E+02  0.30789973014E+03  0.12500000000E+03 0.  0.
          2    1    1    2  501    0  0.58040574466E+02  0.14706861714E+03 -0.54338374615E+03  0.56591852949E+03  0.00000000000E+00 0. -1.
          1    1    1    2  502    0  0.51397905620E+02  0.10930993802E+03  0.18725411963E+04  0.18764330361E+04  0.00000000000E+00 0. -1.
<mgrwt>
<rscale>  4 0.20892726E+03</rscale>
<asrwt>0</asrwt>
<pdfrwt beam="1">  1        2 0.11226469E+00 0.20892726E+03</pdfrwt>
<pdfrwt beam="2">  1        1 0.31085089E+00 0.20892726E+03</pdfrwt>
<totfact> 0.18624136E+01</totfact>
</mgrwt>
</event>
<event>
 5    0  0.1226227E+000  0.2560782E+03  0.7546771E-02  0.1109523E+00
         -3   -1    0    0    0  501 -0.00000000000E+00  0.00000000000E+00  0.53046622438E+02  0.53046622438E+02  0.00000000000E+00 0.  1.
          2   -1    0    0  501    0  0.00000000000E+00 -0.00000000000E+00 -0.15523371321E+04  0.15523371321E+04  0.00000000000E+00 0.  1.
         25    1    1    2    0    0 -0.57709926142E+02 -0.20382564424E+03 -0.68991378318E+03  0.73244887674E+03  0.12500000000E+03 0.  0.
          2    1    1    2  502    0  0.24995187015E+02 -0.25159048594E+02 -0.40906767315E+03  0.41060211680E+03  0.00000000000E+00 0.  1.
         -3    1    1    2    0  502  0.32714739127E+02  0.22898469283E+03 -0.40030905331E+03  0.46233276098E+03  0.00000000000E+00 0.  1.
<mgrwt>
<rscale>  4 0.25607823E+03</rscale>
<asrwt>0</asrwt>
<pdfrwt beam="1">  1        2 0.23882106E+00 0.25607823E+03</pdfrwt>
<pdfrwt beam="2">  1       -3 0.81610199E-02 0.25607823E+03</pdfrwt>
<totfact> 0.84204433E+02</totfact>
</mgrwt>
</event>
<event>
 5    0  0.1226227E+000  0.2791619E+03  0.7546771E-02  0.1096148E+00
          1   -1    0    0  501    0  0.00000000000E+00  0.00000000000E+00  0.11823259119E+04  0.11823259119E+04  0.00000000000E+00 0. -1.
         -2   -1    0    0    0  501 -0.00000000000E+00 -0.00000000000E+00 -0.24290799658E+03  0.24290799658E+03  0.00000000000E+00 0. -1.
         25    1    1    2    0    0 -0.21966082273E+03 -0.10001142751E+03  0.56749240784E+03  0.62922634690E+03  0.12500000000E+03 0.  0.
          1    1    1    2  502    0 -0.20212303868E+02  0.26565125732E+02  0.50902845097E+03  0.51012175706E+03  0.00000000000E+00 0. -1.
         -2    1    1    2    0  502  0.23987312659E+03  0.73446301782E+02 -0.13710294350E+03  0.28588580452E+03  0.00000000000E+00 0. -1.
<mgrwt>
<rscale>  4 0.27916187E+03</rscale>
<asrwt>0</asrwt>
<pdfrwt beam="1">  1        1 0.18189629E+00 0.27916187E+03</pdfrwt>
<pdfrwt beam="2">  1       -2 0.37370462E-01 0.27916187E+03</pdfrwt>
<totfact> 0.71046324E+01</totfact>
</mgrwt>
</event>
<event>
 5    0  0.1226227E+000  0.2583968E+03  0.7546771E-02  0.1108110E+00
          2   -1    0    0  501    0  0.00000000000E+00  0.00000000000E+00  0.67437716102E+03  0.67437716102E+03  0.00000000000E+00 0. -1.
         -1   -1    0    0    0  501 -0.00000000000E+00 -0.00000000000E+00 -0.26513631985E+03  0.26513631985E+03  0.00000000000E+00 0.  1.
         25    1    1    2    0    0 -0.18889332095E+03  0.11795225237E+03 -0.27459124536E+02  0.25685097637E+03  0.12500000000E+03 0.  0.
          2    1    1    2  502    0  0.17735035600E+03 -0.14155847412E+03  0.53488164113E+03  0.58102523214E+03  0.00000000000E+00 0. -1.
         -1    1    1    2    0  502  0.11542964955E+02  0.23606221751E+02 -0.98181675422E+02  0.10163727237E+03  0.00000000000E+00 0.  1.
<mgrwt>
<rscale>  4 0.25839677E+03</rscale>
<asrwt>0</asrwt>
<pdfrwt beam="1">  1        2 0.10375033E+00 0.25839677E+03</pdfrwt>
<pdfrwt beam="2">  1       -1 0.40790203E-01 0.25839677E+03</pdfrwt>
<totfact> 0.30089194E+02</totfact>
</mgrwt>
</event>
<event>
 5    0  0.1226227E+000  0.1837747E+03  0.7546771E-02  0.1164199E+00
          1   -1    0    0  501    0 -0.00000000000E+00  0.00000000000E+00  0.25454051433E+04  0.25454051433E+04  0.00000000000E+00 0.  1.
          2   -1    0    0  502    0  0.00000000000E+00 -0.00000000000E+00 -0.71593256327E+03  0.71593256327E+03  0.00000000000E+00 0.  1.
         25    1    1    2    0    0  0.22973576661E+03 -0.83698223003E+02  0.82641550192E+03  0.87084527720E+03  0.12500000000E+03 0.  0.
          2    1    1    2  501    0 -0.13395880096E+03  0.21866413967E+01 -0.68488765691E+03  0.69786878734E+03  0.00000000000E+00 0.  1.
          1    1    1    2  502    0 -0.95776965653E+02  0.81511581606E+02  0.16879447350E+04  0.16926236421E+04  0.00000000000E+00 0.  1.
<mgrwt>
<rscale>  4 0.18377466E+03</rscale>
<asrwt>0</asrwt>
<pdfrwt beam="1">  1        2 0.11014347E+00 0.18377466E+03</pdfrwt>
<pdfrwt beam="2">  1        1 0.39160079E+00 0.18377466E+03</pdfrwt>
<totfact> 0.88587624E+00</totfact>
</mgrwt>
</event>
<event>
 5    0  0.1226227E+000  0.2939458E+03  0.7546771E-02  0.1088307E+00
          2   -1    0    0  502    0  0.00000000000E+00  0.00000000000E+00  0.45437179927E+03  0.45437179927E+03  0.00000000000E+00 0.  1.
          2   -1    0    0  501    0 -0.00000000000E+00 -0.00000000000E+00 -0.63234738020E+03  0.63234738020E+03  0.00000000000E+00 0.  1.
         25    1    1    2    0    0  0.32232784435E+03 -0.86388889745E+02 -0.45444313684E+03  0.57749618539E+03  0.12500000000E+03 0.  0.
          2    1    1    2  501    0 -0.23103799773E+03  0.12031619891E+03  0.31119281586E+03  0.40582694927E+03  0.00000000000E+00 0.  1.
          2    1    1    2  502    0 -0.91289846625E+02 -0.33927309162E+02 -0.34725259956E+02  0.10339604481E+03  0.00000000000E+00 0.  1.
<mgrwt>
<rscale>  4 0.29394577E+03</rscale>
<asrwt>0</asrwt>
<pdfrwt beam="1">  1        2 0.69903354E-01 0.29394577E+03</pdfrwt>
<pdfrwt beam="2">  1        2 0.97284212E-01 0.29394577E+03</pdfrwt>
<totfact> 0.50885902E+02</totfact>
</mgrwt>
</event>
<event>
 5    0  0.1226227E+000  0.4154046E+03  0.7546771E-02  0.1038572E+00
         -3   -1    0    0    0  501 -0.00000000000E+00  0.00000000000E+00  0.51454274825E+03  0.51454274825E+03  0.00000000000E+00 0.  1.
          3   -1    0    0  502    0  0.00000000000E+00 -0.00000000000E+00 -0.49260361388E+03  0.49260361388E+03  0.00000000000E+00 0.  1.
         25    1    1    2    0    0  0.35751121218E+02 -0.39367017191E+03  0.20062944948E+03  0.46057737995E+03  0.12500000000E+03 0.  0.
          3    1    1    2  502    0 -0.64864814917E+02  0.39136430585E+03 -0.25041385852E+03  0.46912745032E+03  0.00000000000E+00 0.  1.
         -3    1    1    2    0  501  0.29113693698E+02  0.23058660606E+01  0.71723543398E+02  0.77441531858E+02  0.00000000000E+00 0.  1.
<mgrwt>
<rscale>  4 0.41540461E+03</rscale>
<asrwt>0</asrwt>
<pdfrwt beam="1">  1        3 0.75785172E-01 0.41540461E+03</pdfrwt>
<pdfrwt beam="2">  1       -3 0.79160423E-01 0.41540461E+03</pdfrwt>
<totfact> 0.63638688E+00</totfact>
</mgrwt>
</event>
<event>
 5    0  0.1226227E+000  0.3306066E+03  0.7546771E-02  0.1070869E+00
          2   -1    0    0  502    0  0.00000000000E+00  0.00000000000E+00  0.16006602042E+04  0.16006602042E+04  0.00000000000E+00 0.  1.
          2   -1    0    0  501    0 -0.00000000000E+00 -0.00000000000E+00 -0.45387356898E+03  0.45387356898E+03  0.00000000000E+00 0. -1.
         25    1    1    2    0    0 -0.62317697823E+02 -0.41152749703E+03  0.39310013382E+03  0.58599581183E+03  0.12500000000E+03 0.  0.
          2    1    1    2  501    0 -0.10670386321E+02  0.12811347660E+03  0.10466046382E+04  0.10544705728E+04  0.00000000000E+00 0.  1.
          2    1    1    2  502    0  0.72988084144E+02  0.28341402043E+03 -0.29291813684E+03  0.41406738859E+03  0.00000000000E+00 0. -1.
<mgrwt>
<rscale>  4 0.33060660E+03</rscale>
<asrwt>0</asrwt>
<pdfrwt beam="1">  1        2 0.24625541E+00 0.33060660E+03</pdfrwt>
<pdfrwt beam="2">  1        2 0.69826704E-01 0.33060660E+03</pdfrwt>
<totfact> 0.12826181E+02</totfact>
</mgrwt>
</event>
<event>
 5    0  0.1226227E+000  0.2067867E+03  0.7546771E-02  0.1144136E+00
          1   -1    0    0  501    0 -0.00000000000E+00  0.00000000000E+00  0.10043141326E+04  0.10043141326E+04  0.00000000000E+00 0.  1.
          2   -1    0    0  502    0  0.00000000000E+00 -0.00000000000E+00 -0.31693046804E+04  0.31693046804E+04  0.00000000000E+00 0. -1.
         25    1    1    2    0    0  0.77657322565E+02  0.23051286477E+03 -0.19655929766E+04  0.19845270444E+04  0.12500000000E+03 0.  0.
          2    1    1    2  501    0 -0.22772490378E+02 -0.13214878084E+03 -0.11872697428E+04  0.11948185339E+04  0.00000000000E+00 0. -1.
          1    1    1    2  502    0 -0.54884832187E+02 -0.98364083930E+02  0.98787217158E+03  0.99427323467E+03  0.00000000000E+00 0.  1.
<mgrwt>
<rscale>  4 0.20678666E+03</rscale>
<asrwt>0</asrwt>
<pdfrwt beam="1">  1        2 0.48758534E+00 0.20678666E+03</pdfrwt>
<pdfrwt beam="2">  1        1 0.15450987E+00 0.20678666E+03</pdfrwt>
<totfact> 0.38266116E+00</totfact>
</mgrwt>
</event>
<event>
 5    0  0.1226227E+000  0.2751692E+03  0.7546771E-02  0.1098357E+00
          3   -1    0    0  501    0 -0.00000000000E+00  0.00000000000E+00  0.41810150325E+03  0.41810150325E+03  0.00000000000E+00 0. -1.
          1   -1    0    0  502    0  0.00000000000E+00 -0.00000000000E+00 -0.32981990458E+04  0.32981990458E+04  0.00000000000E+00 0. -1.
         25    1    1    2    0    0  0.21267765992E+03 -0.67427743025E+01  0.21239924619E+03  0.32560050955E+03  0.12500000000E+03 0.  0.
          1    1    1    2  501    0 -0.24566817564E+03  0.39358327605E+01 -0.32350425550E+04  0.32443595171E+04  0.00000000000E+00 0. -1.
          3    1    1    2  502    0  0.32990515721E+02  0.28069415420E+01  0.14254576623E+03  0.14634052248E+03  0.00000000000E+00 0. -1.
<mgrwt>
<rscale>  4 0.27516923E+03</rscale>
<asrwt>0</asrwt>
<pdfrwt beam="1">  1        1 0.50741523E+00 0.27516923E+03</pdfrwt>
<pdfrwt beam="2">  1        3 0.64323309E-01 0.27516923E+03</pdfrwt>
<totfact> 0.57750542E-01</totfact>
</mgrwt>
</event>
<event>
 5    0  0.1226227E+000  0.3162229E+03  0.7546771E-02  0.1077401E+00
          2   -1    0    0  502    0  0.00000000000E+00  0.00000000000E+00  0.40253884025E+04  0.40253884025E+04  0.00000000000E+00 0. -1.
          2   -1    0    0  501    0 -0.00000000000E+00 -0.00000000000E+00 -0.29588692384E+03  0.29588692384E+03  0.00000000000E+00 0.  1.
         25    1    1    2    0    0  0.51551023991E+02  0.25347835966E+03 -0.70949414393E+02  0.29591824258E+03  0.12500000000E+03 0.  0.
          2    1    1    2  501    0 -0.48929334777E+02 -0.28727649323E+03  0.39047900825E+04  0.39156490461E+04  0.00000000000E+00 0. -1.
          2    1    1    2  502    0 -0.26216892136E+01  0.33798133574E+02 -0.10433918944E+03  0.10970803772E+03  0.00000000000E+00 0.  1.
<mgrwt>
<rscale>  4 0.31622292E+03</rscale>
<asrwt>0</asrwt>
<pdfrwt beam="1">  1        2 0.61929048E+00 0.31622292E+03</pdfrwt>
<pdfrwt beam="2">  1        2 0.45521068E-01 0.31622292E+03</pdfrwt>
<totfact> 0.71792077E+00</totfact>
</mgrwt>
</event>
<event>
 5    0  0.1226227E+000  0.2363756E+03  0.7546771E-02  0.1122231E+00
          1   -1    0    0  501    0 -0.00000000000E+00  0.00000000000E+00  0.18025085378E+04  0.18025085378E+04  0.00000000000E+00 0. -1.
          2   -1    0    0  502    0  0.00000000000E+00 -0.00000000000E+00 -0.10680846576E+04  0.10680846576E+04  0.00000000000E+00 0.  1.
         25    1    1    2    0    0 -0.20546397412E+03 -0.23467286850E+02  0.17293996399E+04  0.17461999521E+04  0.12500000000E+03 0.  0.
          2    1    1    2  501    0  0.18795286675E+03 -0.70423166351E+02 -0.10081890198E+04  0.10279741253E+04  0.00000000000E+00 0.  1.
          1    1    1    2  502    0  0.17511107375E+02  0.93890453201E+02  0.13213260200E+02  0.96419118067E+02  0.00000000000E+00 0. -1.
<mgrwt>
<rscale>  4 0.23637555E+03</rscale>
<asrwt>0</asrwt>
<pdfrwt beam="1">  1        2 0.16432072E+00 0.23637555E+03</pdfrwt>
<pdfrwt beam="2">  1        1 0.27730901E+00 0.23637555E+03</pdfrwt>
<totfact> 0.15239774E+01</totfact>
</mgrwt>
</event>
<event>
 5    0  0.1226227E+000  0.1923872E+03  0.7546771E-02  0.1156326E+00
          2   -1    0    0  502    0  0.00000000000E+00  0.00000000000E+00  0.44436545836E+03  0.44436545836E+03  0.00000000000E+00 0. -1.
          2   -1    0    0  501    0 -0.00000000000E+00 -0.00000000000E+00 -0.14431734857E+04  0.14431734857E+04  0.00000000000E+00 0.  1.
         25    1    1    2    0    0 -0.39822996350E+02  0.21216108738E+03 -0.25488982116E+03  0.35663990097E+03  0.12500000000E+03 0.  0.
          2    1    1    2  501    0  0.18394075300E+02 -0.73493815262E+02  0.38546167532E+03  0.39283633491E+03  0.00000000000E+00 0. -1.
          2    1    1    2  502    0  0.21428921051E+02 -0.13866727212E+03 -0.11293798815E+04  0.11380627081E+04  0.00000000000E+00 0.  1.
<mgrwt>
<rscale>  4 0.19238723E+03</rscale>
<asrwt>0</asrwt>
<pdfrwt beam="1">  1        2 0.68363917E-01 0.19238723E+03</pdfrwt>
<pdfrwt beam="2">  1        2 0.22202669E+00 0.19238723E+03</pdfrwt>
<totfact> 0.16704376E+02</totfact>
</mgrwt>
</event>
<event>
 5    0  0.1226227E+000  0.2720992E+03  0.7546771E-02  0.1100084E+00
          2   -1    0    0  502    0  0.00000000000E+00  0.00000000000E+00  0.73014047553E+03  0.73014047553E+03  0.00000000000E+00 0.  1.
          1   -1    0    0  501    0 -0.00000000000E+00 -0.00000000000E+00 -0.14177943659E+04  0.14177943659E+04  0.00000000000E+00 0.  1.
         25    1    1    2    0    0 -0.31868174546E+03  0.50335124293E+02 -0.29756706685E+03  0.45635823527E+03  0.12500000000E+03 0.  0.
          2    1    1    2  501    0  0.91442841583E+02 -0.23228172475E+02  0.63463585238E+03  0.64161047871E+03  0.00000000000E+00 0.  1.
          1    1    1    2  502    0  0.22723890387E+03 -0.27106951819E+02 -0.10247226759E+04  0.10499661274E+04  0.00000000000E+00 0.  1.
<mgrwt>
<rscale>  4 0.27209924E+03</rscale>
<asrwt>0</asrwt>
<pdfrwt beam="1">  1        2 0.11232931E+00 0.27209924E+03</pdfrwt>
<pdfrwt beam="2">  1        1 0.21812221E+00 0.27209924E+03</pdfrwt>
<totfact> 0.44488133E+01</totfact>
</mgrwt>
</event>
<event>
 5    0  0.1226227E+000  0.2736579E+03  0.7546771E-02  0.1099204E+00
          1   -1    0    0  502    0  0.00000000000E+00  0.00000000000E+00  0.53562016793E+03  0.53562016793E+03  0.00000000000E+00 0.  1.
         -1   -1    0    0    0  501 -0.00000000000E+00 -0.00000000000E+00 -0.28636749503E+03  0.28636749503E+03  0.00000000000E+00 0.  1.
         25    1    1    2    0    0 -0.34206793730E+03  0.77448803423E+02  0.15555374967E+03  0.40352293605E+03  0.12500000000E+03 0.  0.
          1    1    1    2  502    0  0.19914439660E+03  0.28568542763E+02  0.12631273116E+03  0.23754906522E+03  0.00000000000E+00 0.  1.
         -1    1    1    2    0  501  0.14292354070E+03 -0.10601734619E+03 -0.32613807929E+02  0.18091566169E+03  0.00000000000E+00 0.  1.
<mgrwt>
<rscale>  4 0.27365794E+03</rscale>
<asrwt>0</asrwt>
<pdfrwt beam="1">  1        1 0.82403103E-01 0.27365794E+03</pdfrwt>
<pdfrwt beam="2">  1       -1 0.44056538E-01 0.27365794E+03</pdfrwt>
<totfact> 0.21537614E+02</totfact>
</mgrwt>
</event>
<event>
 5    0  0.1226227E+000  0.4484270E+03  0.7546771E-02  0.1028192E+00
          2   -1    0    0  502    0  0.00000000000E+00  0.00000000000E+00  0.14548391531E+04  0.14548391531E+04  0.00000000000E+00 0.  1.
          1   -1    0    0  501    0 -0.00000000000E+00 -0.00000000000E+00 -0.38022800313E+03  0.38022800313E+03  0.00000000000E+00 0.  1.
         25    1    1    2    0    0  0.41000207303E+03 -0.92843435988E+02  0.15961978347E+03  0.46671734355E+03  0.12500000000E+03 0.  0.
          2    1    1    2  501    0  0.10241543864E+01 -0.62274083462E+02  0.92677905612E+03  0.92886948988E+03  0.00000000000E+00 0.  1.
          1    1    1    2  502    0 -0.41102622741E+03  0.15511751945E+03 -0.11787689667E+02  0.43948032276E+03  0.00000000000E+00 0.  1.
<mgrwt>
<rscale>  4 0.44842700E+03</rscale>
<asrwt>0</asrwt>
<pdfrwt beam="1">  1        2 0.22382141E+00 0.44842700E+03</pdfrwt>
<pdfrwt beam="2">  1        1 0.58496616E-01 0.44842700E+03</pdfrwt>
<totfact> 0.12271991E+02</totfact>
</mgrwt>
</event>
<event>
 5    0  0.1226227E+000  0.3327168E+03  0.7546771E-02  0.1069941E+00
          2   -1    0    0  502    0  0.00000000000E+00  0.00000000000E+00  0.34105614952E+04  0.34105614952E+04  0.00000000000E+00 0. -1.
         -2   -1    0    0    0  501 -0.00000000000E+00 -0.00000000000E+00 -0.39787835895E+02  0.39787835895E+02  0.00000000000E+00 0. -1.
         25    1    1    2    0    0 -0.10287746672E+03 -0.26600422989E+03  0.20701961075E+04  0.20934848810E+04  0.12500000000E+03 0.  0.
          2    1    1    2  502    0 -0.28759986882E+02 -0.24412406560E+02  0.39488009329E+03  0.39667794307E+03  0.00000000000E+00 0. -1.
         -2    1    1    2    0  501  0.13163745360E+03  0.29041663645E+03  0.90569745856E+03  0.96018650706E+03  0.00000000000E+00 0. -1.
<mgrwt>
<rscale>  4 0.33271677E+03</rscale>
<asrwt>0</asrwt>
<pdfrwt beam="1">  1        2 0.52470154E+00 0.33271677E+03</pdfrwt>
<pdfrwt beam="2">  1       -2 0.61212082E-02 0.33271677E+03</pdfrwt>
<totfact> 0.16344861E+02</totfact>
</mgrwt>
</event>
<event>
 5    0  0.1226227E+000  0.2673693E+03  0.7546771E-02  0.1102795E+00
          2   -1    0    0  502    0  0.00000000000E+00  0.00000000000E+00  0.12664482477E+04  0.12664482477E+04  0.00000000000E+00 0.  1.
          1   -1    0    0  501    0 -0.00000000000E+00 -0.00000000000E+00 -0.20534274138E+04  0.20534274138E+04  0.00000000000E+00 0.  1.
         25    1    1    2    0    0  0.68721516625E+02  0.20390619860E+03 -0.69364615677E+03  0.73693308752E+03  0.12500000000E+03 0.  0.
          2    1    1    2  501    0 -0.36840315782E+01  0.35108039230E+02  0.12330867630E+04  0.12335919550E+04  0.00000000000E+00 0.  1.
          1    1    1    2  502    0 -0.65037485047E+02 -0.23901423784E+03 -0.13264197723E+04  0.13493506189E+04  0.00000000000E+00 0.  1.
<mgrwt>
<rscale>  4 0.26736927E+03</rscale>
<asrwt>0</asrwt>
<pdfrwt beam="1">  1        2 0.19483819E+00 0.26736927E+03</pdfrwt>
<pdfrwt beam="2">  1        1 0.31591191E+00 0.26736927E+03</pdfrwt>
<totfact> 0.78973826E+00</totfact>
</mgrwt>
</event>
<event>
 5    0  0.1226227E+000  0.2046940E+03  0.7546771E-02  0.1145838E+00
          2   -1    0    0  501    0  0.00000000000E+00  0.00000000000E+00  0.28187768792E+04  0.28187768792E+04  0.00000000000E+00 0.  1.
         -4   -1    0    0    0  501 -0.00000000000E+00 -0.00000000000E+00 -0.20354066032E+04  0.20354066032E+04  0.00000000000E+00 0.  1.
         25    1    1    2    0    0  0.21576202867E+03 -0.46205123449E+02 -0.37687792367E+03  0.45425778563E+03  0.12500000000E+03 0.  0.
          2    1    1    2  502    0 -0.81212523622E+02 -0.35415244978E+02  0.27755562102E+04  0.27769699295E+04  0.00000000000E+00 0.  1.
         -4    1    1    2    0  502 -0.13454950505E+03  0.81620368427E+02 -0.16153080105E+04  0.16229557673E+04  0.00000000000E+00 0.  1.
<mgrwt>
<rscale>  4 0.20469400E+03</rscale>
<asrwt>0</asrwt>
<pdfrwt beam="1">  1        2 0.43365798E+00 0.20469400E+03</pdfrwt>
<pdfrwt beam="2">  1       -4 0.31313948E+00 0.20469400E+03</pdfrwt>
<totfact> 0.44955310E-02</totfact>
</mgrwt>
</event>
<event>
 5    0  0.1226227E+000  0.2734541E+03  0.7546771E-02  0.1099319E+00
          1   -1    0    0  502    0  0.00000000000E+00  0.00000000000E+00  0.16972976812E+04  0.16972976812E+04  0.00000000000E+00 0.  1.
         -1   -1    0    0    0  501 -0.00000000000E+00 -0.00000000000E+00 -0.40241405227E+03  0.40241405227E+03  0.00000000000E+00 0.  1.
         25    1    1    2    0    0  0.27880934237E+02  0.21351335809E+03  0.40114646215E+03  0.47213216865E+03  0.12500000000E+03 0.  0.
          1    1    1    2  502    0 -0.68982170928E+00  0.30825350550E+02  0.12192605591E+04  0.12196503552E+04  0.00000000000E+00 0.  1.
         -1    1    1    2    0  501 -0.27191112528E+02 -0.24433870864E+03 -0.32552339228E+03  0.40792920962E+03  0.00000000000E+00 0.  1.
<mgrwt>
<rscale>  4 0.27345415E+03</rscale>
<asrwt>0</asrwt>
<pdfrwt beam="1">  1        1 0.26112272E+00 0.27345415E+03</pdfrwt>
<pdfrwt beam="2">  1       -1 0.61909855E-01 0.27345415E+03</pdfrwt>
<totfact> 0.14751763E+01</totfact>
</mgrwt>
</event>
<event>
 5    0  0.1226227E+000  0.2020090E+03  0.7546771E-02  0.1148055E+00
          2   -1    0    0  502    0  0.00000000000E+00  0.00000000000E+00  0.55018403707E+03  0.55018403707E+03  0.00000000000E+00 0. -1.
          2   -1    0    0  501    0 -0.00000000000E+00 -0.00000000000E+00 -0.14957087138E+03  0.14957087138E+03  0.00000000000E+00 0.  1.
         25    1    1    2    0    0 -0.18669913772E+03  0.94782927587E+02  0.21154682069E+03  0.32282724286E+03  0.12500000000E+03 0.  0.
          2    1    1    2  501    0  0.64419753516E+02 -0.23227272182E+02 -0.59567127120E+02  0.90761519651E+02  0.00000000000E+00 0.  1.
          2    1    1    2  502    0  0.12227938421E+03 -0.71555655404E+02  0.24863347212E+03  0.28616614594E+03  0.00000000000E+00 0. -1.
<mgrwt>
<rscale>  4 0.20200895E+03</rscale>
<asrwt>0</asrwt>
<pdfrwt beam="1">  1        2 0.84643697E-01 0.20200895E+03</pdfrwt>
<pdfrwt beam="2">  1        2 0.23010904E-01 0.20200895E+03</pdfrwt>
<totfact> 0.20295180E+03</totfact>
</mgrwt>
</event>
<event>
 5    0  0.1226227E+000  0.3355897E+03  0.7546771E-02  0.1068690E+00
          2   -1    0    0  502    0  0.00000000000E+00  0.00000000000E+00  0.14751728711E+04  0.14751728711E+04  0.00000000000E+00 0. -1.
          1   -1    0    0  501    0 -0.00000000000E+00 -0.00000000000E+00 -0.40498164236E+03  0.40498164236E+03  0.00000000000E+00 0. -1.
         25    1    1    2    0    0 -0.62618073263E+02  0.35440446124E+03 -0.13033799130E+02  0.38120653873E+03  0.12500000000E+03 0.  0.
          2    1    1    2  501    0  0.84424658521E+02 -0.29526323631E+03  0.12675097319E+04  0.13041812842E+04  0.00000000000E+00 0. -1.
          1    1    1    2  502    0 -0.21806585259E+02 -0.59141224934E+02 -0.18428470395E+03  0.19476669057E+03  0.00000000000E+00 0. -1.
<mgrwt>
<rscale>  4 0.33558975E+03</rscale>
<asrwt>0</asrwt>
<pdfrwt beam="1">  1        2 0.22694967E+00 0.33558975E+03</pdfrwt>
<pdfrwt beam="2">  1        1 0.62304869E-01 0.33558975E+03</pdfrwt>
<totfact> 0.11296135E+02</totfact>
</mgrwt>
</event>
<event>
 5    0  0.1226227E+000  0.3005942E+03  0.7546771E-02  0.1084944E+00
         -3   -1    0    0    0  501 -0.00000000000E+00  0.00000000000E+00  0.30596442389E+03  0.30596442389E+03  0.00000000000E+00 0. -1.
          2   -1    0    0  501    0  0.00000000000E+00 -0.00000000000E+00 -0.22486981856E+04  0.22486981856E+04  0.00000000000E+00 0.  1.
         25    1    1    2    0    0  0.27423437422E+03  0.16838763194E+03  0.68670953685E+02  0.35199373073E+03  0.12500000000E+03 0.  0.
          2    1    1    2  502    0 -0.24243219458E+03 -0.12199300658E+03 -0.20891529322E+04  0.21067072973E+04  0.00000000000E+00 0.  1.
         -3    1    1    2    0  502 -0.31802179637E+02 -0.46394625363E+02  0.77748216796E+02  0.95961581412E+02  0.00000000000E+00 0. -1.
<mgrwt>
<rscale>  4 0.30059421E+03</rscale>
<asrwt>0</asrwt>
<pdfrwt beam="1">  1        2 0.34595356E+00 0.30059421E+03</pdfrwt>
<pdfrwt beam="2">  1       -3 0.47071450E-01 0.30059421E+03</pdfrwt>
<totfact> 0.15362673E+01</totfact>
</mgrwt>
</event>
<event>
 5    0  0.1226227E+000  0.2314042E+03  0.7546771E-02  0.1125655E+00
          2   -1    0    0  502    0  0.00000000000E+00  0.00000000000E+00  0.30032522302E+03  0.30032522302E+03  0.00000000000E+00 0.  1.
          1   -1    0    0  501    0 -0.00000000000E+00 -0.00000000000E+00 -0.55010401270E+03  0.55010401270E+03  0.00000000000E+00 0.  1.
         25    1    1    2    0    0 -0.13283045049E+03 -0.23569450886E+03 -0.34266158678E+03  0.45413411360E+03  0.12500000000E+03 0.  0.
          2    1    1    2  501    0  0.63057012060E+02  0.17675344312E+03  0.18715203559E+03  0.26503556526E+03  0.00000000000E+00 0.  1.
          1    1    1    2  502    0  0.69773438429E+02  0.58941065738E+02 -0.94269238493E+02  0.13125955686E+03  0.00000000000E+00 0.  1.
<mgrwt>
<rscale>  4 0.23140424E+03</rscale>
<asrwt>0</asrwt>
<pdfrwt beam="1">  1        2 0.46203881E-01 0.23140424E+03</pdfrwt>
<pdfrwt beam="2">  1        1 0.84631385E-01 0.23140424E+03</pdfrwt>
<totfact> 0.59236163E+02</totfact>
</mgrwt>
</event>
<event>
 5    0  0.1226227E+000  0.2792751E+03  0.7546771E-02  0.1096086E+00
         -2   -1    0    0    0  501  0.00000000000E+00  0.00000000000E+00  0.21803107884E+03  0.21803107884E+03  0.00000000000E+00 0. -1.
         -2   -1    0    0    0  502 -0.00000000000E+00 -0.00000000000E+00 -0.89713437740E+03  0.89713437740E+03  0.00000000000E+00 0.  1.
         25    1    1    2    0    0 -0.19865552048E+03  0.75727221321E+02 -0.16881578482E+03  0.29886852807E+03  0.12500000000E+03 0.  0.
         -2    1    1    2    0  502 -0.55175018791E+02  0.12389780128E+02 -0.54271825575E+03  0.54565638865E+03  0.00000000000E+00 0.  1.
         -2    1    1    2    0  501  0.25383053927E+03 -0.88117001449E+02  0.32430742003E+02  0.27064053953E+03  0.00000000000E+00 0. -1.
<mgrwt>
<rscale>  4 0.27927512E+03</rscale>
<asrwt>0</asrwt>
<pdfrwt beam="1">  1       -2 0.33543243E-01 0.27927512E+03</pdfrwt>
<pdfrwt beam="2">  1       -2 0.13802067E+00 0.27927512E+03</pdfrwt>
<totfact> 0.21406184E+01</totfact>
</mgrwt>
</event>
<event>
 5    0  0.1226227E+000  0.2912157E+03  0.7546771E-02  0.1089716E+00
          4   -1    0    0  502    0  0.00000000000E+00  0.00000000000E+00  0.13373542521E+04  0.13373542521E+04  0.00000000000E+00 0.  1.
          3   -1    0    0  501    0 -0.00000000000E+00 -0.00000000000E+00 -0.72067446718E+03  0.72067446718E+03  0.00000000000E+00 0. -1.
         25    1    1    2    0    0  0.23770591354E+03  0.54528613249E+02 -0.18825695995E+03  0.33248030613E+03  0.12500000000E+03 0.  0.
          4    1    1    2  501    0 -0.26116245285E+03 -0.39103767407E+02  0.12510175438E+04  0.12785850877E+04  0.00000000000E+00 0.  1.
          3    1    1    2  502    0  0.23456539303E+02 -0.15424845842E+02 -0.44608079898E+03  0.44696332548E+03  0.00000000000E+00 0. -1.
<mgrwt>
<rscale>  4 0.29121569E+03</rscale>
<asrwt>0</asrwt>
<pdfrwt beam="1">  1        4 0.20574681E+00 0.29121569E+03</pdfrwt>
<pdfrwt beam="2">  1        3 0.11087299E+00 0.29121569E+03</pdfrwt>
<totfact> 0.19555023E-01</totfact>
</mgrwt>
</event>
<event>
 5    0  0.1226227E+000  0.2543019E+03  0.7546771E-02  0.1110616E+00
          1   -1    0    0  502    0  0.00000000000E+00  0.00000000000E+00  0.12065946442E+04  0.12065946442E+04  0.00000000000E+00 0. -1.
         -1   -1    0    0    0  501 -0.00000000000E+00 -0.00000000000E+00 -0.54236163098E+03  0.54236163098E+03  0.00000000000E+00 0. -1.
         25    1    1    2    0    0  0.37752849415E+03  0.13304463364E+03  0.22598423880E+03  0.47636384689E+03  0.12500000000E+03 0.  0.
          1    1    1    2  502    0 -0.19028387019E+03 -0.72584580206E+02  0.81903391652E+03  0.84397454283E+03  0.00000000000E+00 0. -1.
         -1    1    1    2    0  501 -0.18724462396E+03 -0.60460053432E+02 -0.38078514212E+03  0.42861788544E+03  0.00000000000E+00 0. -1.
<mgrwt>
<rscale>  4 0.25430194E+03</rscale>
<asrwt>0</asrwt>
<pdfrwt beam="1">  1        1 0.18562995E+00 0.25430194E+03</pdfrwt>
<pdfrwt beam="2">  1       -1 0.83440251E-01 0.25430194E+03</pdfrwt>
<totfact> 0.17355661E+01</totfact>
</mgrwt>
</event>
<event>
 5    0  0.1226227E+000  0.2442955E+03  0.7546771E-02  0.1116964E+00
          4   -1    0    0  501    0 -0.00000000000E+00  0.00000000000E+00  0.24933923607E+03  0.24933923607E+03  0.00000000000E+00 0. -1.
          2   -1    0    0  502    0  0.00000000000E+00 -0.00000000000E+00 -0.98689739408E+03  0.98689739408E+03  0.00000000000E+00 0. -1.
         25    1    1    2    0    0 -0.27488961382E+03 -0.18391509104E+03 -0.97069738959E+02  0.36665596234E+03  0.12500000000E+03 0.  0.
          2    1    1    2  501    0  0.16485258136E+03  0.10892497376E+03 -0.69733964023E+03  0.72479210628E+03  0.00000000000E+00 0. -1.
          4    1    1    2  502    0  0.11003703246E+03  0.74990117285E+02  0.56851221177E+02  0.14478856154E+03  0.00000000000E+00 0. -1.
<mgrwt>
<rscale>  4 0.24429554E+03</rscale>
<asrwt>0</asrwt>
<pdfrwt beam="1">  1        2 0.15183037E+00 0.24429554E+03</pdfrwt>
<pdfrwt beam="2">  1        4 0.38359883E-01 0.24429554E+03</pdfrwt>
<totfact> 0.94814992E+01</totfact>
</mgrwt>
</event>
<event>
 5    0  0.1226227E+000  0.2933536E+03  0.7546771E-02  0.1088611E+00
          2   -1    0    0  501    0  0.00000000000E+00  0.00000000000E+00  0.13340167653E+04  0.13340167653E+04  0.00000000000E+00 0.  1.
         -3   -1    0    0    0  501 -0.00000000000E+00 -0.00000000000E+00 -0.98126321808E+03  0.98126321808E+03  0.00000000000E+00 0. -1.
         25    1    1    2    0    0  0.18431120219E+03 -0.15353414921E+03 -0.40657898018E+02  0.27353504145E+03  0.12500000000E+03 0.  0.
          2    1    1    2  502    0 -0.21002640818E+03  0.16612851362E+03  0.12025980490E+04  0.12320518831E+04  0.00000000000E+00 0.  1.
         -3    1    1    2    0  502  0.25715205981E+02 -0.12594364412E+02 -0.80918660376E+03  0.80969305884E+03  0.00000000000E+00 0. -1.
<mgrwt>
<rscale>  4 0.29335359E+03</rscale>
<asrwt>0</asrwt>
<pdfrwt beam="1">  1        2 0.20523335E+00 0.29335359E+03</pdfrwt>
<pdfrwt beam="2">  1       -3 0.15096357E+00 0.29335359E+03</pdfrwt>
<totfact> 0.34618508E+00</totfact>
</mgrwt>
</event>
<event>
 5    0  0.1226227E+000  0.2168697E+03  0.7546771E-02  0.1136239E+00
         -2   -1    0    0    0  501  0.00000000000E+00  0.00000000000E+00  0.20204938511E+03  0.20204938511E+03  0.00000000000E+00 0. -1.
         -2   -1    0    0    0  502 -0.00000000000E+00 -0.00000000000E+00 -0.19121365261E+04  0.19121365261E+04  0.00000000000E+00 0.  1.
         25    1    1    2    0    0 -0.21416925094E+03 -0.48944498623E+02  0.55196858600E+01  0.25282305853E+03  0.12500000000E+03 0.  0.
         -2    1    1    2    0  502  0.14765230759E+03  0.28430013942E+02 -0.61508124880E+01  0.15049020607E+03  0.00000000000E+00 0. -1.
         -2    1    1    2    0  501  0.66516943351E+02  0.20514484681E+02 -0.17094560143E+04  0.17108726466E+04  0.00000000000E+00 0.  1.
<mgrwt>
<rscale>  4 0.21686965E+03</rscale>
<asrwt>0</asrwt>
<pdfrwt beam="1">  1       -2 0.31084520E-01 0.21686965E+03</pdfrwt>
<pdfrwt beam="2">  1       -2 0.29417486E+00 0.21686965E+03</pdfrwt>
<totfact> 0.25356214E+00</totfact>
</mgrwt>
</event>
<event>
 5    0  0.1226227E+000  0.3207977E+03  0.7546771E-02  0.1075283E+00
          2   -1    0    0  502    0  0.00000000000E+00  0.00000000000E+00  0.16103508381E+03  0.16103508381E+03  0.00000000000E+00 0.  1.
          2   -1    0    0  501    0 -0.00000000000E+00 -0.00000000000E+00 -0.18061938751E+04  0.18061938751E+04  0.00000000000E+00 0.  1.
         25    1    1    2    0    0 -0.69332128948E+02 -0.28630739740E+03 -0.12381268699E+04  0.12788127368E+04  0.12500000000E+03 0.  0.
          2    1    1    2  501    0 -0.51022292100E+02  0.15784770746E+02 -0.38806403510E+03  0.39172200425E+03  0.00000000000E+00 0.  1.
          2    1    1    2  502    0  0.12035442105E+03  0.27052262666E+03 -0.18967886329E+02  0.29669421786E+03  0.00000000000E+00 0.  1.
<mgrwt>
<rscale>  4 0.32079773E+03</rscale>
<asrwt>0</asrwt>
<pdfrwt beam="1">  1        2 0.24774628E-01 0.32079773E+03</pdfrwt>
<pdfrwt beam="2">  1        2 0.27787599E+00 0.32079773E+03</pdfrwt>
<totfact> 0.31282814E+02</totfact>
</mgrwt>
</event>
<event>
 5    0  0.1226227E+000  0.2333126E+03  0.7546771E-02  0.1124330E+00
          1   -1    0    0  501    0 -0.00000000000E+00  0.00000000000E+00  0.23132617669E+03  0.23132617669E+03  0.00000000000E+00 0. -1.
          2   -1    0    0  502    0  0.00000000000E+00 -0.00000000000E+00 -0.29519688740E+04  0.29519688740E+04  0.00000000000E+00 0. -1.
         25    1    1    2    0    0  0.51194045741E+02 -0.22268334961E+03 -0.12969568956E+04  0.13228495355E+04  0.12500000000E+03 0.  0.
          2    1    1    2  501    0 -0.28068365812E+02  0.18238887140E+03 -0.16343419402E+04  0.16447270628E+04  0.00000000000E+00 0. -1.
          1    1    1    2  502    0 -0.23125679929E+02  0.40294478204E+02  0.21065613847E+03  0.21571845243E+03  0.00000000000E+00 0. -1.
<mgrwt>
<rscale>  4 0.23331256E+03</rscale>
<asrwt>0</asrwt>
<pdfrwt beam="1">  1        2 0.45414905E+00 0.23331256E+03</pdfrwt>
<pdfrwt beam="2">  1        1 0.35588644E-01 0.23331256E+03</pdfrwt>
<totfact> 0.37816886E+01</totfact>
</mgrwt>
</event>
<event>
 5    0  0.1226227E+000  0.1854103E+03  0.7546771E-02  0.1162667E+00
          2   -1    0    0  502    0  0.00000000000E+00  0.00000000000E+00  0.79818076867E+03  0.79818076867E+03  0.00000000000E+00 0. -1.
          4   -1    0    0  501    0 -0.00000000000E+00 -0.00000000000E+00 -0.37952397758E+03  0.37952397758E+03  0.00000000000E+00 0. -1.
         25    1    1    2    0    0  0.72696613916E+01  0.20172309452E+03  0.41825300784E+03  0.48094244293E+03  0.12500000000E+03 0.  0.
          2    1    1    2  501    0  0.11060774346E+02 -0.11619678310E+03  0.33299620698E+03  0.35286046391E+03  0.00000000000E+00 0. -1.
          4    1    1    2  502    0 -0.18330435738E+02 -0.85526311426E+02 -0.33259242373E+03  0.34390183940E+03  0.00000000000E+00 0. -1.
<mgrwt>
<rscale>  4 0.18541031E+03</rscale>
<asrwt>0</asrwt>
<pdfrwt beam="1">  1        2 0.12279704E+00 0.18541031E+03</pdfrwt>
<pdfrwt beam="2">  1        4 0.58388304E-01 0.18541031E+03</pdfrwt>
<totfact> 0.53143648E+01</totfact>
</mgrwt>
</event>
<event>
 5    0  0.1226227E+000  0.2057732E+03  0.7546771E-02  0.1144958E+00
          2   -1    0    0  501    0  0.00000000000E+00  0.00000000000E+00  0.54140469196E+03  0.54140469196E+03  0.00000000000E+00 0. -1.
         -4   -1    0    0    0  501 -0.00000000000E+00 -0.00000000000E+00 -0.93756477742E+03  0.93756477742E+03  0.00000000000E+00 0.  1.
         25    1    1    2    0    0  0.11087170300E+03 -0.26152229351E+03  0.94522632157E+02  0.32441635674E+03  0.12500000000E+03 0.  0.
          2    1    1    2  502    0 -0.32666650566E+02  0.12305525866E+03  0.31162858283E+03  0.33663345107E+03  0.00000000000E+00 0. -1.
         -4    1    1    2    0  502 -0.78205052429E+02  0.13846703486E+03 -0.80231130044E+03  0.81791966157E+03  0.00000000000E+00 0.  1.
<mgrwt>
<rscale>  4 0.20577325E+03</rscale>
<asrwt>0</asrwt>
<pdfrwt beam="1">  1        2 0.83293031E-01 0.20577325E+03</pdfrwt>
<pdfrwt beam="2">  1       -4 0.14424073E+00 0.20577325E+03</pdfrwt>
<totfact> 0.10513936E+01</totfact>
</mgrwt>
</event>
<event>
 5    0  0.1226227E+000  0.3541283E+03  0.7546771E-02  0.1060933E+00
          2   -1    0    0  502    0  0.00000000000E+00  0.00000000000E+00  0.16384543543E+04  0.16384543543E+04  0.00000000000E+00 0. -1.
          1   -1    0    0  501    0 -0.00000000000E+00 -0.00000000000E+00 -0.16322405786E+04  0.16322405786E+04  0.00000000000E+00 0.  1.
         25    1    1    2    0    0 -0.24449703536E+03  0.30638204707E+03  0.19400384095E+03  0.45487498214E+03  0.12500000000E+03 0.  0.
          2    1    1    2  501    0 -0.27481820525E+02 -0.12148403995E+03  0.12929813732E+04  0.12989666870E+04  0.00000000000E+00 0. -1.
          1    1    1    2  502    0  0.27197885589E+03 -0.18489800712E+03 -0.14807714384E+04  0.15168532638E+04  0.00000000000E+00 0.  1.
<mgrwt>
<rscale>  4 0.35412828E+03</rscale>
<asrwt>0</asrwt>
<pdfrwt beam="1">  1        2 0.25206990E+00 0.35412828E+03</pdfrwt>
<pdfrwt beam="2">  1        1 0.25111394E+00 0.35412828E+03</pdfrwt>
<totfact> 0.89001319E+00</totfact>
</mgrwt>
</event>
<event>
 5    0  0.1226227E+000  0.2502264E+03  0.7546771E-02  0.1113162E+00
          2   -1    0    0  502    0  0.00000000000E+00  0.00000000000E+00  0.21592898014E+04  0.21592898014E+04  0.00000000000E+00 0.  1.
          1   -1    0    0  501    0 -0.00000000000E+00 -0.00000000000E+00 -0.58403510113E+03  0.58403510113E+03  0.00000000000E+00 0.  1.
         25    1    1    2    0    0 -0.60374773304E+02 -0.19078848614E+03 -0.21905964744E+03  0.32195883096E+03  0.12500000000E+03 0.  0.
          2    1    1    2  501    0  0.79739109092E+02  0.20194946543E+03  0.21018423135E+04  0.21130269811E+04  0.00000000000E+00 0.  1.
          1    1    1    2  502    0 -0.19364335788E+02 -0.11160979293E+02 -0.30752796579E+03  0.30833909046E+03  0.00000000000E+00 0.  1.
<mgrwt>
<rscale>  4 0.25022642E+03</rscale>
<asrwt>0</asrwt>
<pdfrwt beam="1">  1        2 0.33219843E+00 0.25022642E+03</pdfrwt>
<pdfrwt beam="2">  1        1 0.89851555E-01 0.25022642E+03</pdfrwt>
<totfact> 0.31095569E+01</totfact>
</mgrwt>
</event>
<event>
 5    0  0.1226227E+000  0.2507336E+03  0.7546771E-02  0.1112842E+00
          2   -1    0    0  502    0  0.00000000000E+00  0.00000000000E+00  0.33139219644E+03  0.33139219644E+03  0.00000000000E+00 0. -1.
          4   -1    0    0  501    0 -0.00000000000E+00 -0.00000000000E+00 -0.60792770112E+03  0.60792770112E+03  0.00000000000E+00 0. -1.
         25    1    1    2    0    0  0.11680307632E+03 -0.24348914487E+03 -0.15907518034E+02  0.29800666341E+03  0.12500000000E+03 0.  0.
          2    1    1    2  501    0 -0.48874561627E+02  0.19443834491E+03  0.13187243214E+03  0.23996943786E+03  0.00000000000E+00 0. -1.
          4    1    1    2  502    0 -0.67928514688E+02  0.49050799954E+02 -0.39250041878E+03  0.40134379630E+03  0.00000000000E+00 0. -1.
<mgrwt>
<rscale>  4 0.25073361E+03</rscale>
<asrwt>0</asrwt>
<pdfrwt beam="1">  1        2 0.50983415E-01 0.25073361E+03</pdfrwt>
<pdfrwt beam="2">  1        4 0.93527338E-01 0.25073361E+03</pdfrwt>
<totfact> 0.51473852E+01</totfact>
</mgrwt>
</event>
<event>
 5    0  0.1226227E+000  0.2310132E+03  0.7546771E-02  0.1125929E+00
          3   -1    0    0  501    0  0.00000000000E+00  0.00000000000E+00  0.45666833042E+03  0.45666833042E+03  0.00000000000E+00 0. -1.
         -2   -1    0    0    0  501 -0.00000000000E+00 -0.00000000000E+00 -0.99936030073E+03  0.99936030073E+03  0.00000000000E+00 0. -1.
         25    1    1    2    0    0  0.15913983317E+03  0.14138403764E+03  0.19477829869E+03  0.31444954801E+03  0.12500000000E+03 0.  0.
          3    1    1    2  502    0 -0.12215700963E+03 -0.13489686370E+03  0.16060396923E+03  0.24272027886E+03  0.00000000000E+00 0. -1.
         -2    1    1    2    0  502 -0.36982823538E+02 -0.64871739384E+01 -0.89807423823E+03  0.89885880428E+03  0.00000000000E+00 0. -1.
<mgrwt>
<rscale>  4 0.23101324E+03</rscale>
<asrwt>0</asrwt>
<pdfrwt beam="1">  1        3 0.70256666E-01 0.23101324E+03</pdfrwt>
<pdfrwt beam="2">  1       -2 0.15374774E+00 0.23101324E+03</pdfrwt>
<totfact> 0.23886774E+00</totfact>
</mgrwt>
</event>
<event>
 5    0  0.1226227E+000  0.2716507E+03  0.7546771E-02  0.1100339E+00
          2   -1    0    0  502    0  0.00000000000E+00  0.00000000000E+00  0.24224291649E+03  0.24224291649E+03  0.00000000000E+00 0.  1.
          2   -1    0    0  501    0 -0.00000000000E+00 -0.00000000000E+00 -0.11318608210E+04  0.11318608210E+04  0.00000000000E+00 0. -1.
         25    1    1    2    0    0 -0.19731066163E+03 -0.98654632030E+02 -0.43083516414E+03  0.49990816384E+03  0.12500000000E+03 0.  0.
          2    1    1    2  501    0 -0.13380404253E+02 -0.25278083902E+02 -0.59410936183E+03  0.59479740295E+03  0.00000000000E+00 0. -1.
          2    1    1    2  502    0  0.21069106589E+03  0.12393271593E+03  0.13532662145E+03  0.27939817071E+03  0.00000000000E+00 0.  1.
<mgrwt>
<rscale>  4 0.27165072E+03</rscale>
<asrwt>0</asrwt>
<pdfrwt beam="1">  1        2 0.37268141E-01 0.27165072E+03</pdfrwt>
<pdfrwt beam="2">  1        2 0.17413243E+00 0.27165072E+03</pdfrwt>
<totfact> 0.46874459E+02</totfact>
</mgrwt>
</event>
<event>
 5    0  0.1226227E+000  0.3877821E+03  0.7546771E-02  0.1048094E+00
          1   -1    0    0  501    0 -0.00000000000E+00  0.00000000000E+00  0.21067106517E+04  0.21067106517E+04  0.00000000000E+00 0. -1.
          2   -1    0    0  502    0  0.00000000000E+00 -0.00000000000E+00 -0.66041092644E+03  0.66041092644E+03  0.00000000000E+00 0. -1.
         25    1    1    2    0    0 -0.33009227170E+03 -0.20806927656E+03  0.54561671475E+03  0.68233154046E+03  0.12500000000E+03 0.  0.
          2    1    1    2  501    0  0.30756220969E+03  0.19648279628E+03 -0.53568627767E+03  0.64819733889E+03  0.00000000000E+00 0. -1.
          1    1    1    2  502    0  0.22530062017E+02  0.11586480284E+02  0.14363692882E+04  0.14365926988E+04  0.00000000000E+00 0. -1.
<mgrwt>
<rscale>  4 0.38778205E+03</rscale>
<asrwt>0</asrwt>
<pdfrwt beam="1">  1        2 0.10160168E+00 0.38778205E+03</pdfrwt>
<pdfrwt beam="2">  1        1 0.32410933E+00 0.38778205E+03</pdfrwt>
<totfact> 0.16932045E+01</totfact>
</mgrwt>
</event>
<event>
 5    0  0.1226227E+000  0.4522144E+03  0.7546771E-02  0.1027064E+00
          1   -1    0    0  501    0 -0.00000000000E+00  0.00000000000E+00  0.63382587491E+03  0.63382587491E+03  0.00000000000E+00 0.  1.
          2   -1    0    0  502    0  0.00000000000E+00 -0.00000000000E+00 -0.11454176159E+04  0.11454176159E+04  0.00000000000E+00 0. -1.
         25    1    1    2    0    0 -0.58782317625E+03 -0.24997803695E+02 -0.33964136870E+03  0.69075483064E+03  0.12500000000E+03 0.  0.
          2    1    1    2  501    0  0.19220605412E+03 -0.74976217355E+02 -0.51538505329E+03  0.55514534454E+03  0.00000000000E+00 0. -1.
          1    1    1    2  502    0  0.39561712213E+03  0.99974021051E+02  0.34343468100E+03  0.53334331562E+03  0.00000000000E+00 0.  1.
<mgrwt>
<rscale>  4 0.45221439E+03</rscale>
<asrwt>0</asrwt>
<pdfrwt beam="1">  1        2 0.17621809E+00 0.45221439E+03</pdfrwt>
<pdfrwt beam="2">  1        1 0.97511674E-01 0.45221439E+03</pdfrwt>
<totfact> 0.91848172E+01</totfact>
</mgrwt>
</event>
<event>
 5    0  0.1226227E+000  0.2358051E+03  0.7546771E-02  0.1122619E+00
          1   -1    0    0  502    0  0.00000000000E+00  0.00000000000E+00  0.13212123784E+04  0.13212123784E+04  0.00000000000E+00 0. -1.
          3   -1    0    0  501    0 -0.00000000000E+00 -0.00000000000E+00 -0.67194672180E+02  0.67194672180E+02  0.00000000000E+00 0. -1.
         25    1    1    2    0    0  0.20746794250E+03  0.33991160513E+02  0.34762066505E+03  0.42504525985E+03  0.12500000000E+03 0.  0.
          1    1    1    2  501    0 -0.16240499272E+02 -0.20846277818E+02  0.60882821297E+03  0.60940143914E+03  0.00000000000E+00 0. -1.
          3    1    1    2  502    0 -0.19122744322E+03 -0.13144882695E+02  0.29756882825E+03  0.35396035164E+03  0.00000000000E+00 0. -1.
<mgrwt>
<rscale>  4 0.23580513E+03</rscale>
<asrwt>0</asrwt>
<pdfrwt beam="1">  1        1 0.20326342E+00 0.23580513E+03</pdfrwt>
<pdfrwt beam="2">  1        3 0.10337643E-01 0.23580513E+03</pdfrwt>
<totfact> 0.36822234E+02</totfact>
</mgrwt>
</event>
<event>
 5    0  0.1226227E+000  0.3001230E+03  0.7546771E-02  0.1085179E+00
          1   -1    0    0  502    0  0.00000000000E+00  0.00000000000E+00  0.14503470058E+04  0.14503470058E+04  0.00000000000E+00 0. -1.
          1   -1    0    0  501    0 -0.00000000000E+00 -0.00000000000E+00 -0.10270518109E+04  0.10270518109E+04  0.00000000000E+00 0. -1.
         25    1    1    2    0    0  0.20734089455E+03  0.25852381777E+03  0.85832286529E+03  0.92852999520E+03  0.12500000000E+03 0.  0.
          1    1    1    2  501    0 -0.13750097174E+03 -0.18729960171E+03  0.53000235933E+03  0.57869694912E+03  0.00000000000E+00 0. -1.
          1    1    1    2  502    0 -0.69839922808E+02 -0.71224216057E+02 -0.96503002971E+03  0.97017187241E+03  0.00000000000E+00 0. -1.
<mgrwt>
<rscale>  4 0.30012300E+03</rscale>
<asrwt>0</asrwt>
<pdfrwt beam="1">  1        1 0.22313031E+00 0.30012300E+03</pdfrwt>
<pdfrwt beam="2">  1        1 0.15800797E+00 0.30012300E+03</pdfrwt>
<totfact> 0.14105953E+01</totfact>
</mgrwt>
</event>
<event>
 5    0  0.1226227E+000  0.2425668E+03  0.7546771E-02  0.1118095E+00
          3   -1    0    0  501    0 -0.00000000000E+00  0.00000000000E+00  0.12073057296E+03  0.12073057296E+03  0.00000000000E+00 0.  1.
          1   -1    0    0  502    0  0.00000000000E+00 -0.00000000000E+00 -0.11298060468E+04  0.11298060468E+04  0.00000000000E+00 0.  1.
         25    1    1    2    0    0  0.11661782160E+03 -0.19854244467E+03 -0.23010452097E+03  0.34870031434E+03  0.12500000000E+03 0.  0.
          1    1    1    2  501    0 -0.10179865550E+03  0.17588744957E+03 -0.82433122173E+03  0.84901196947E+03  0.00000000000E+00 0.  1.
          3    1    1    2  502    0 -0.14819166094E+02  0.22654995097E+02  0.45360268817E+02  0.52824335998E+02  0.00000000000E+00 0.  1.
<mgrwt>
<rscale>  4 0.24256680E+03</rscale>
<asrwt>0</asrwt>
<pdfrwt beam="1">  1        1 0.17381632E+00 0.24256680E+03</pdfrwt>
<pdfrwt beam="2">  1        3 0.18573934E-01 0.24256680E+03</pdfrwt>
<totfact> 0.18261406E+02</totfact>
</mgrwt>
</event>
<event>
 5    0  0.1226227E+000  0.2313302E+03  0.7546771E-02  0.1125707E+00
         -2   -1    0    0    0  501 -0.00000000000E+00  0.00000000000E+00  0.77713822421E+03  0.77713822421E+03  0.00000000000E+00 0. -1.
          2   -1    0    0  502    0  0.00000000000E+00 -0.00000000000E+00 -0.22402254858E+03  0.22402254858E+03  0.00000000000E+00 0. -1.
         25    1    1    2    0    0  0.21896026000E+03  0.11981259672E+03  0.32363213890E+03  0.42738906762E+03  0.12500000000E+03 0.  0.
          2    1    1    2  502    0 -0.75293376415E+02 -0.20939214854E+02 -0.14273029497E+03  0.16272516816E+03  0.00000000000E+00 0. -1.
         -2    1    1    2    0  501 -0.14366688359E+03 -0.98873381864E+02  0.37221383170E+03  0.41104653701E+03  0.00000000000E+00 0. -1.
<mgrwt>
<rscale>  4 0.23133015E+03</rscale>
<asrwt>0</asrwt>
<pdfrwt beam="1">  1        2 0.34465008E-01 0.23133015E+03</pdfrwt>
<pdfrwt beam="2">  1       -2 0.11955973E+00 0.23133015E+03</pdfrwt>
<totfact> 0.85299329E+01</totfact>
</mgrwt>
</event>
<event>
 5    0  0.1226227E+000  0.1877323E+03  0.7546771E-02  0.1160523E+00
          2   -1    0    0  501    0  0.00000000000E+00  0.00000000000E+00  0.13713531795E+04  0.13713531795E+04  0.00000000000E+00 0.  1.
         -4   -1    0    0    0  501 -0.00000000000E+00 -0.00000000000E+00 -0.15040129584E+03  0.15040129584E+03  0.00000000000E+00 0. -1.
         25    1    1    2    0    0  0.88491381575E+02 -0.19000081137E+03  0.12301962988E+03  0.27329446074E+03  0.12500000000E+03 0.  0.
          2    1    1    2  502    0 -0.94161903392E+02  0.99272365492E+02  0.11400784340E+04  0.11482596842E+04  0.00000000000E+00 0.  1.
         -4    1    1    2    0  502  0.56705218161E+01  0.90728445880E+02 -0.42146180237E+02  0.10020033043E+03  0.00000000000E+00 0. -1.
<mgrwt>
<rscale>  4 0.18773232E+03</rscale>
<asrwt>0</asrwt>
<pdfrwt beam="1">  1        2 0.21097740E+00 0.18773232E+03</pdfrwt>
<pdfrwt beam="2">  1       -4 0.23138662E-01 0.18773232E+03</pdfrwt>
<totfact> 0.14937410E+02</totfact>
</mgrwt>
</event>
<event>
 5    0  0.1226227E+000  0.5943834E+03  0.7546771E-02  0.9917128E-01
          1   -1    0    0  501    0 -0.00000000000E+00  0.00000000000E+00  0.19348458910E+03  0.19348458910E+03  0.00000000000E+00 0.  1.
          2   -1    0    0  502    0  0.00000000000E+00 -0.00000000000E+00 -0.20211886680E+04  0.20211886680E+04  0.00000000000E+00 0.  1.
         25    1    1    2    0    0 -0.22208157956E+03  0.52550659096E+03 -0.75443949474E+03  0.95408666082E+03  0.12500000000E+03 0.  0.
          2    1    1    2  501    0  0.24150554890E+03 -0.53942324825E+03 -0.84558800634E+03  0.10316595598E+04  0.00000000000E+00 0.  1.
          1    1    1    2  502    0 -0.19423969342E+02  0.13916657292E+02 -0.22767657785E+03  0.22892703649E+03  0.00000000000E+00 0.  1.
<mgrwt>
<rscale>  4 0.59438337E+03</rscale>
<asrwt>0</asrwt>
<pdfrwt beam="1">  1        2 0.31095209E+00 0.59438337E+03</pdfrwt>
<pdfrwt beam="2">  1        1 0.29766861E-01 0.59438337E+03</pdfrwt>
<totfact> 0.14115010E+02</totfact>
</mgrwt>
</event>
<event>
 5    0  0.1226227E+000  0.3481730E+03  0.7546771E-02  0.1063367E+00
          2   -1    0    0  502    0  0.00000000000E+00  0.00000000000E+00  0.54153560103E+03  0.54153560103E+03  0.00000000000E+00 0.  1.
          2   -1    0    0  501    0 -0.00000000000E+00 -0.00000000000E+00 -0.66744572885E+03  0.66744572885E+03  0.00000000000E+00 0.  1.
         25    1    1    2    0    0 -0.21874447994E+03 -0.14821999813E+03 -0.28126258691E+03  0.40565004394E+03  0.12500000000E+03 0.  0.
          2    1    1    2  501    0 -0.31513779838E+02 -0.75786098512E+02 -0.25799147778E+03  0.27073280860E+03  0.00000000000E+00 0.  1.
          2    1    1    2  502    0  0.25025825978E+03  0.22400609664E+03  0.41334393687E+03  0.53259847734E+03  0.00000000000E+00 0.  1.
<mgrwt>
<rscale>  4 0.34817301E+03</rscale>
<asrwt>0</asrwt>
<pdfrwt beam="1">  1        2 0.83313170E-01 0.34817301E+03</pdfrwt>
<pdfrwt beam="2">  1        2 0.10268396E+00 0.34817301E+03</pdfrwt>
<totfact> 0.38826132E+02</totfact>
</mgrwt>
</event>
<event>
 5    0  0.1226227E+000  0.2519945E+03  0.7546771E-02  0.1112051E+00
         -4   -1    0    0    0  501 -0.00000000000E+00  0.00000000000E+00  0.22210431929E+03  0.22210431929E+03  0.00000000000E+00 0.  1.
          2   -1    0    0  501    0  0.00000000000E+00 -0.00000000000E+00 -0.10001283847E+04  0.10001283847E+04  0.00000000000E+00 0. -1.
         25    1    1    2    0    0 -0.24144225910E+03  0.58285118105E+02 -0.13260059177E+03  0.30805752126E+03  0.12500000000E+03 0.  0.
          2    1    1    2  502    0  0.21418818259E+03 -0.10131601999E+02 -0.75853233422E+03  0.78825790765E+03  0.00000000000E+00 0. -1.
         -4    1    1    2    0  502  0.27254076501E+02 -0.48153516106E+02  0.11310886062E+03  0.12591727503E+03  0.00000000000E+00 0.  1.
<mgrwt>
<rscale>  4 0.25199454E+03</rscale>
<asrwt>0</asrwt>
<pdfrwt beam="1">  1        2 0.15386590E+00 0.25199454E+03</pdfrwt>
<pdfrwt beam="2">  1       -4 0.34169896E-01 0.25199454E+03</pdfrwt>
<totfact> 0.11681922E+02</totfact>
</mgrwt>
</event>
<event>
 5    0  0.1931707E+000  0.3141637E+03  0.7546771E-02  0.1078367E+00
          2   -1    0    0  502    0  0.00000000000E+00  0.00000000000E+00  0.10641342103E+04  0.10641342103E+04  0.00000000000E+00 0.  1.
          2   -1    0    0  501    0 -0.00000000000E+00 -0.00000000000E+00 -0.10114114330E+04  0.10114114330E+04  0.00000000000E+00 0. -1.
         25    1    1    2    0    0  0.10999575916E+02  0.20207618637E+03 -0.25114513932E+03  0.34591134236E+03  0.12500000000E+03 0.  0.
          2    1    1    2  501    0  0.51747026709E+02  0.85722946278E+02 -0.68784792314E+03  0.69509779432E+03  0.00000000000E+00 0. -1.
          2    1    1    2  502    0 -0.62746602625E+02 -0.28779913265E+03  0.99171583975E+03  0.10345365067E+04  0.00000000000E+00 0.  1.
<mgrwt>
<rscale>  4 0.31416370E+03</rscale>
<asrwt>0</asrwt>
<pdfrwt beam="1">  1        2 0.16371296E+00 0.31416370E+03</pdfrwt>
<pdfrwt beam="2">  1        2 0.15560176E+00 0.31416370E+03</pdfrwt>
<totfact> 0.95655548E+01</totfact>
</mgrwt>
</event>
<event>
 5    0  0.1226227E+000  0.1778459E+03  0.7546771E-02  0.1169904E+00
          2   -1    0    0  502    0  0.00000000000E+00  0.00000000000E+00  0.16577479787E+04  0.16577479787E+04  0.00000000000E+00 0.  1.
          2   -1    0    0  501    0 -0.00000000000E+00 -0.00000000000E+00 -0.71302746411E+03  0.71302746411E+03  0.00000000000E+00 0. -1.
         25    1    1    2    0    0  0.20612166300E+03 -0.37795114093E+02  0.75284658847E+02  0.25535737794E+03  0.12500000000E+03 0.  0.
          2    1    1    2  501    0 -0.82753203695E+02  0.32221022985E+02  0.14849673895E+04  0.14876203934E+04  0.00000000000E+00 0.  1.
          2    1    1    2  502    0 -0.12336845931E+03  0.55740911079E+01 -0.61553153375E+03  0.62779767146E+03  0.00000000000E+00 0. -1.
<mgrwt>
<rscale>  4 0.17784591E+03</rscale>
<asrwt>0</asrwt>
<pdfrwt beam="1">  1        2 0.25503815E+00 0.17784591E+03</pdfrwt>
<pdfrwt beam="2">  1        2 0.10969653E+00 0.17784591E+03</pdfrwt>
<totfact> 0.75737090E+01</totfact>
</mgrwt>
</event>
<event>
 5    0  0.1226227E+000  0.2622493E+03  0.7546771E-02  0.1105799E+00
          2   -1    0    0  502    0  0.00000000000E+00  0.00000000000E+00  0.11971585344E+03  0.11971585344E+03  0.00000000000E+00 0. -1.
          1   -1    0    0  501    0 -0.00000000000E+00 -0.00000000000E+00 -0.70607071466E+03  0.70607071466E+03  0.00000000000E+00 0.  1.
         25    1    1    2    0    0  0.90026915120E+02 -0.18985457247E+03 -0.32277103412E+03  0.40491449048E+03  0.12500000000E+03 0.  0.
          2    1    1    2  501    0  0.55893475972E+02 -0.25642589248E+02 -0.20691551666E+02  0.64882689139E+02  0.00000000000E+00 0. -1.
          1    1    1    2  502    0 -0.14592039109E+03  0.21549716172E+03 -0.24289227543E+03  0.35598938848E+03  0.00000000000E+00 0.  1.
<mgrwt>
<rscale>  4 0.26224927E+03</rscale>
<asrwt>0</asrwt>
<pdfrwt beam="1">  1        2 0.18417824E-01 0.26224927E+03</pdfrwt>
<pdfrwt beam="2">  1        1 0.10862626E+00 0.26224927E+03</pdfrwt>
<totfact> 0.11541874E+03</totfact>
</mgrwt>
</event>
<event>
 5    0  0.1226227E+000  0.2220774E+03  0.7546771E-02  0.1132344E+00
          3   -1    0    0  501    0 -0.00000000000E+00  0.00000000000E+00  0.66551054964E+03  0.66551054964E+03  0.00000000000E+00 0.  1.
          2   -1    0    0  502    0  0.00000000000E+00 -0.00000000000E+00 -0.11309471016E+04  0.11309471016E+04  0.00000000000E+00 0.  1.
         25    1    1    2    0    0  0.74618801896E+02  0.21826360934E+03  0.22602128571E+03  0.34629119300E+03  0.12500000000E+03 0.  0.
          2    1    1    2  501    0  0.14801221536E+02 -0.73805298529E+02 -0.10503755702E+04  0.10530693884E+04  0.00000000000E+00 0.  1.
          3    1    1    2  502    0 -0.89420023432E+02 -0.14445831081E+03  0.35891773254E+03  0.39709706985E+03  0.00000000000E+00 0.  1.
<mgrwt>
<rscale>  4 0.22207736E+03</rscale>
<asrwt>0</asrwt>
<pdfrwt beam="1">  1        2 0.17399186E+00 0.22207736E+03</pdfrwt>
<pdfrwt beam="2">  1        3 0.10238624E+00 0.22207736E+03</pdfrwt>
<totfact> 0.11777958E+01</totfact>
</mgrwt>
</event>
<event>
 5    0  0.1226227E+000  0.2191523E+03  0.7546771E-02  0.1134517E+00
          1   -1    0    0  502    0  0.00000000000E+00  0.00000000000E+00  0.25121419540E+03  0.25121419540E+03  0.00000000000E+00 0.  1.
          1   -1    0    0  501    0 -0.00000000000E+00 -0.00000000000E+00 -0.67539360146E+03  0.67539360146E+03  0.00000000000E+00 0. -1.
         25    1    1    2    0    0  0.22898963251E+03  0.93364801069E+02 -0.22545348033E+03  0.35722193336E+03  0.12500000000E+03 0.  0.
          1    1    1    2  501    0 -0.83367020048E+02 -0.22104197077E+02  0.15662334638E+03  0.17880024662E+03  0.00000000000E+00 0.  1.
          1    1    1    2  502    0 -0.14562261246E+03 -0.71260603992E+02 -0.35534927210E+03  0.39058561689E+03  0.00000000000E+00 0. -1.
<mgrwt>
<rscale>  4 0.21915232E+03</rscale>
<asrwt>0</asrwt>
<pdfrwt beam="1">  1        1 0.38648339E-01 0.21915232E+03</pdfrwt>
<pdfrwt beam="2">  1        1 0.10390671E+00 0.21915232E+03</pdfrwt>
<totfact> 0.39351105E+02</totfact>
</mgrwt>
</event>
<event>
 5    0  0.1226227E+000  0.3719604E+03  0.7546771E-02  0.1053946E+00
          1   -1    0    0  502    0  0.00000000000E+00  0.00000000000E+00  0.62584299470E+03  0.62584299470E+03  0.00000000000E+00 0.  1.
          1   -1    0    0  501    0 -0.00000000000E+00 -0.00000000000E+00 -0.38364111945E+03  0.38364111945E+03  0.00000000000E+00 0. -1.
         25    1    1    2    0    0  0.32446640866E+03 -0.82010874284E+02 -0.51287151328E+01  0.35728915121E+03  0.12500000000E+03 0.  0.
          1    1    1    2  501    0  0.35735548284E+02  0.19437648848E+02  0.28203614825E+03  0.28495480435E+03  0.00000000000E+00 0.  1.
          1    1    1    2  502    0 -0.36020195695E+03  0.62573225437E+02 -0.34705557863E+02  0.36724015858E+03  0.00000000000E+00 0. -1.
<mgrwt>
<rscale>  4 0.37196042E+03</rscale>
<asrwt>0</asrwt>
<pdfrwt beam="1">  1        1 0.96283538E-01 0.37196042E+03</pdfrwt>
<pdfrwt beam="2">  1        1 0.59021711E-01 0.37196042E+03</pdfrwt>
<totfact> 0.25072606E+02</totfact>
</mgrwt>
</event>
<event>
 5    0  0.1226227E+000  0.4232815E+03  0.7546771E-02  0.1036004E+00
         -1   -1    0    0    0  501 -0.00000000000E+00  0.00000000000E+00  0.47108755325E+03  0.47108755325E+03  0.00000000000E+00 0. -1.
          2   -1    0    0  501    0  0.00000000000E+00 -0.00000000000E+00 -0.20574087098E+04  0.20574087098E+04  0.00000000000E+00 0. -1.
         25    1    1    2    0    0 -0.18468011115E+03 -0.33014934384E+03  0.32178229314E+03  0.51212711007E+03  0.12500000000E+03 0.  0.
          2    1    1    2  502    0  0.21183312254E+03  0.34604699807E+03 -0.19336999809E+04  0.19758080405E+04  0.00000000000E+00 0. -1.
         -1    1    1    2    0  502 -0.27153011394E+02 -0.15897654226E+02  0.25596531216E+02  0.40561112509E+02  0.00000000000E+00 0. -1.
<mgrwt>
<rscale>  4 0.42328153E+03</rscale>
<asrwt>0</asrwt>
<pdfrwt beam="1">  1        2 0.31652442E+00 0.42328153E+03</pdfrwt>
<pdfrwt beam="2">  1       -1 0.72475007E-01 0.42328153E+03</pdfrwt>
<totfact> 0.15168701E+01</totfact>
</mgrwt>
</event>
<event>
 5    0  0.1226227E+000  0.2382138E+03  0.7546771E-02  0.1120988E+00
          1   -1    0    0  502    0  0.00000000000E+00  0.00000000000E+00  0.76697105724E+03  0.76697105724E+03  0.00000000000E+00 0.  1.
          1   -1    0    0  501    0 -0.00000000000E+00 -0.00000000000E+00 -0.10979966242E+03  0.10979966242E+03  0.00000000000E+00 0.  1.
         25    1    1    2    0    0  0.12072129903E+03  0.21471470823E+03  0.26442806229E+03  0.38239147231E+03  0.12500000000E+03 0.  0.
          1    1    1    2  501    0 -0.11162569889E+03 -0.15049003399E+03  0.38611446363E+03  0.42917586839E+03  0.00000000000E+00 0.  1.
          1    1    1    2  502    0 -0.90956001434E+01 -0.64224674245E+02  0.66288689009E+01  0.65203378952E+02  0.00000000000E+00 0.  1.
<mgrwt>
<rscale>  4 0.23821379E+03</rscale>
<asrwt>0</asrwt>
<pdfrwt beam="1">  1        1 0.11799554E+00 0.23821379E+03</pdfrwt>
<pdfrwt beam="2">  1        1 0.16892256E-01 0.23821379E+03</pdfrwt>
<totfact> 0.93515903E+02</totfact>
</mgrwt>
</event>
<event>
 5    0  0.1226227E+000  0.2780318E+03  0.7546771E-02  0.1096769E+00
          2   -1    0    0  502    0  0.00000000000E+00  0.00000000000E+00  0.21050417812E+03  0.21050417812E+03  0.00000000000E+00 0.  1.
          2   -1    0    0  501    0 -0.00000000000E+00 -0.00000000000E+00 -0.39387192805E+04  0.39387192805E+04  0.00000000000E+00 0. -1.
         25    1    1    2    0    0  0.26390213982E+03 -0.54199905359E+02 -0.15979916759E+03  0.33725768057E+03  0.12500000000E+03 0.  0.
          2    1    1    2  501    0 -0.24442785049E+03  0.38085445295E+02 -0.36846855718E+04  0.36929802651E+04  0.00000000000E+00 0. -1.
          2    1    1    2  502    0 -0.19474289327E+02  0.16114460064E+02  0.11626963709E+03  0.11898551288E+03  0.00000000000E+00 0.  1.
<mgrwt>
<rscale>  4 0.27803179E+03</rscale>
<asrwt>0</asrwt>
<pdfrwt beam="1">  1        2 0.32385261E-01 0.27803179E+03</pdfrwt>
<pdfrwt beam="2">  1        2 0.60595676E+00 0.27803179E+03</pdfrwt>
<totfact> 0.12409572E+01</totfact>
</mgrwt>
</event>
<event>
 5    0  0.1226227E+000  0.2298135E+03  0.7546771E-02  0.1126771E+00
         -1   -1    0    0    0  501 -0.00000000000E+00  0.00000000000E+00  0.48645148219E+03  0.48645148219E+03  0.00000000000E+00 0.  1.
          3   -1    0    0  501    0  0.00000000000E+00 -0.00000000000E+00 -0.22321079883E+03  0.22321079883E+03  0.00000000000E+00 0.  1.
         25    1    1    2    0    0 -0.18223820414E+03 -0.11898789369E+03  0.31022065738E+03  0.39903726412E+03  0.12500000000E+03 0.  0.
          3    1    1    2  502    0  0.17206083723E+03  0.79446666760E+02 -0.12187570387E+03  0.22532286116E+03  0.00000000000E+00 0.  1.
         -1    1    1    2    0  502  0.10177366910E+02  0.39541226932E+02  0.74895729848E+02  0.85302155741E+02  0.00000000000E+00 0.  1.
<mgrwt>
<rscale>  4 0.22981348E+03</rscale>
<asrwt>0</asrwt>
<pdfrwt beam="1">  1        3 0.34340123E-01 0.22981348E+03</pdfrwt>
<pdfrwt beam="2">  1       -1 0.74838690E-01 0.22981348E+03</pdfrwt>
<totfact> 0.71995994E+01</totfact>
</mgrwt>
</event>
<event>
 5    0  0.1226227E+000  0.2936904E+03  0.7546771E-02  0.1088438E+00
          2   -1    0    0  501    0  0.00000000000E+00  0.00000000000E+00  0.34337510916E+03  0.34337510916E+03  0.00000000000E+00 0. -1.
         -4   -1    0    0    0  501 -0.00000000000E+00 -0.00000000000E+00 -0.20364032799E+04  0.20364032799E+04  0.00000000000E+00 0.  1.
         25    1    1    2    0    0 -0.18398582077E+03 -0.16557856275E+03 -0.16407167840E+03  0.32219801107E+03  0.12500000000E+03 0.  0.
          2    1    1    2  502    0  0.19399065517E+03  0.18926110444E+03  0.19471601802E+03  0.33371614828E+03  0.00000000000E+00 0. -1.
         -4    1    1    2    0  502 -0.10004834400E+02 -0.23682541688E+02 -0.17236725103E+04  0.17238642297E+04  0.00000000000E+00 0.  1.
<mgrwt>
<rscale>  4 0.29369043E+03</rscale>
<asrwt>0</asrwt>
<pdfrwt beam="1">  1        2 0.52826940E-01 0.29369043E+03</pdfrwt>
<pdfrwt beam="2">  1       -4 0.31329281E+00 0.29369043E+03</pdfrwt>
<totfact> 0.14703989E+00</totfact>
</mgrwt>
</event>
<event>
 5    0  0.1226227E+000  0.4018381E+03  0.7546771E-02  0.1043145E+00
          2   -1    0    0  502    0  0.00000000000E+00  0.00000000000E+00  0.25523119346E+03  0.25523119346E+03  0.00000000000E+00 0.  1.
          2   -1    0    0  501    0 -0.00000000000E+00 -0.00000000000E+00 -0.16090101111E+04  0.16090101111E+04  0.00000000000E+00 0.  1.
         25    1    1    2    0    0 -0.70625767785E+01  0.36673960309E+03 -0.44951214817E+02  0.39011976133E+03  0.12500000000E+03 0.  0.
          2    1    1    2  501    0  0.19475653878E+02 -0.41883207114E+03 -0.45542686754E+03  0.61904219289E+03  0.00000000000E+00 0.  1.
          2    1    1    2  502    0 -0.12413077099E+02  0.52092468054E+02 -0.85340083524E+03  0.85507935030E+03  0.00000000000E+00 0.  1.
<mgrwt>
<rscale>  4 0.40183811E+03</rscale>
<asrwt>0</asrwt>
<pdfrwt beam="1">  1        2 0.39266338E-01 0.40183811E+03</pdfrwt>
<pdfrwt beam="2">  1        2 0.24754002E+00 0.40183811E+03</pdfrwt>
<totfact> 0.23512803E+02</totfact>
</mgrwt>
</event>
<event>
 5    0  0.1226227E+000  0.3532758E+03  0.7546771E-02  0.1061279E+00
          1   -1    0    0  502    0  0.00000000000E+00  0.00000000000E+00  0.11812287230E+04  0.11812287230E+04  0.00000000000E+00 0. -1.
         -1   -1    0    0    0  501 -0.00000000000E+00 -0.00000000000E+00 -0.70586411817E+03  0.70586411817E+03  0.00000000000E+00 0. -1.
         25    1    1    2    0    0 -0.24311442697E+03  0.18132220504E+03 -0.44906752284E+03  0.55611959749E+03  0.12500000000E+03 0.  0.
          1    1    1    2  502    0  0.23970327757E+03 -0.22949330617E+03  0.10999573432E+04  0.11489260184E+04  0.00000000000E+00 0. -1.
         -1    1    1    2    0  501  0.34111493998E+01  0.48171101131E+02 -0.17552521557E+03  0.18204722526E+03  0.00000000000E+00 0. -1.
<mgrwt>
<rscale>  4 0.35327577E+03</rscale>
<asrwt>0</asrwt>
<pdfrwt beam="1">  1        1 0.18172750E+00 0.35327577E+03</pdfrwt>
<pdfrwt beam="2">  1       -1 0.10859448E+00 0.35327577E+03</pdfrwt>
<totfact> 0.97645862E+00</totfact>
</mgrwt>
</event>
<event>
 5    0  0.1226227E+000  0.1764040E+03  0.7546771E-02  0.1171329E+00
          2   -1    0    0  502    0  0.00000000000E+00  0.00000000000E+00  0.10516982134E+04  0.10516982134E+04  0.00000000000E+00 0. -1.
          2   -1    0    0  501    0 -0.00000000000E+00 -0.00000000000E+00 -0.87505327652E+03  0.87505327652E+03  0.00000000000E+00 0.  1.
         25    1    1    2    0    0  0.21014481936E+03 -0.97619618006E+01  0.46871475432E+03  0.52874820276E+03  0.12500000000E+03 0.  0.
          2    1    1    2  501    0 -0.86463399911E+02  0.82513367631E+01  0.54498303339E+03  0.55186095238E+03  0.00000000000E+00 0. -1.
          2    1    1    2  502    0 -0.12368141945E+03  0.15106250375E+01 -0.83705285086E+03  0.84614233474E+03  0.00000000000E+00 0.  1.
<mgrwt>
<rscale>  4 0.17640395E+03</rscale>
<asrwt>0</asrwt>
<pdfrwt beam="1">  1        2 0.16179972E+00 0.17640395E+03</pdfrwt>
<pdfrwt beam="2">  1        2 0.13462358E+00 0.17640395E+03</pdfrwt>
<totfact> 0.12535953E+02</totfact>
</mgrwt>
</event>
<event>
 5    0  0.1226227E+000  0.2872676E+03  0.7546771E-02  0.1091784E+00
          2   -1    0    0  502    0  0.00000000000E+00  0.00000000000E+00  0.74475331941E+03  0.74475331941E+03  0.00000000000E+00 0. -1.
          2   -1    0    0  501    0 -0.00000000000E+00 -0.00000000000E+00 -0.24511140998E+04  0.24511140998E+04  0.00000000000E+00 0. -1.
         25    1    1    2    0    0  0.24220840300E+03 -0.36214928438E+02 -0.12455529390E+04  0.12755404954E+04  0.12500000000E+03 0.  0.
          2    1    1    2  501    0  0.16367455993E+02  0.22927678370E+02 -0.11674263254E+04  0.11677661569E+04  0.00000000000E+00 0. -1.
          2    1    1    2  502    0 -0.25857585899E+03  0.13287250068E+02  0.70661848402E+03  0.75256076687E+03  0.00000000000E+00 0. -1.
<mgrwt>
<rscale>  4 0.28726764E+03</rscale>
<asrwt>0</asrwt>
<pdfrwt beam="1">  1        2 0.11457744E+00 0.28726764E+03</pdfrwt>
<pdfrwt beam="2">  1        2 0.37709447E+00 0.28726764E+03</pdfrwt>
<totfact> 0.25718451E+01</totfact>
</mgrwt>
</event>
<event>
 5    0  0.1226227E+000  0.4703594E+03  0.7546771E-02  0.1021819E+00
          1   -1    0    0  502    0  0.00000000000E+00  0.00000000000E+00  0.49818745071E+03  0.49818745071E+03  0.00000000000E+00 0. -1.
         -1   -1    0    0    0  501 -0.00000000000E+00 -0.00000000000E+00 -0.92724307030E+03  0.92724307030E+03  0.00000000000E+00 0.  1.
         25    1    1    2    0    0  0.21197510012E+03 -0.33221295264E+03 -0.24140845891E+03  0.47875038695E+03  0.12500000000E+03 0.  0.
          1    1    1    2  502    0 -0.30780816359E+03  0.36819893579E+03  0.21887457147E+03  0.52746791364E+03  0.00000000000E+00 0. -1.
         -1    1    1    2    0  501  0.95833063471E+02 -0.35985983148E+02 -0.40652173215E+03  0.41921222041E+03  0.00000000000E+00 0.  1.
<mgrwt>
<rscale>  4 0.47035943E+03</rscale>
<asrwt>0</asrwt>
<pdfrwt beam="1">  1        1 0.76644224E-01 0.47035943E+03</pdfrwt>
<pdfrwt beam="2">  1       -1 0.14265278E+00 0.47035943E+03</pdfrwt>
<totfact> 0.18959608E+01</totfact>
</mgrwt>
</event>
<event>
 5    0  0.1226227E+000  0.2473459E+03  0.7546771E-02  0.1114994E+00
         -1   -1    0    0    0  501  0.00000000000E+00  0.00000000000E+00  0.72669600749E+03  0.72669600749E+03  0.00000000000E+00 0. -1.
         -1   -1    0    0    0  502 -0.00000000000E+00 -0.00000000000E+00 -0.28902099834E+03  0.28902099834E+03  0.00000000000E+00 0.  1.
         25    1    1    2    0    0 -0.95172745189E+02 -0.23227949162E+03  0.41581192961E+03  0.50153382185E+03  0.12500000000E+03 0.  0.
         -1    1    1    2    0  502  0.95923254165E+01  0.68051984093E+02 -0.20796691043E+03  0.21902812851E+03  0.00000000000E+00 0.  1.
         -1    1    1    2    0  501  0.85580419773E+02  0.16422750753E+03  0.22982998997E+03  0.29515505547E+03  0.00000000000E+00 0. -1.
<mgrwt>
<rscale>  4 0.24734590E+03</rscale>
<asrwt>0</asrwt>
<pdfrwt beam="1">  1       -1 0.11179939E+00 0.24734590E+03</pdfrwt>
<pdfrwt beam="2">  1       -1 0.44464769E-01 0.24734590E+03</pdfrwt>
<totfact> 0.34129494E+01</totfact>
</mgrwt>
</event>
<event>
 5    0  0.1226227E+000  0.1952424E+03  0.7546771E-02  0.1153816E+00
          1   -1    0    0  501    0 -0.00000000000E+00  0.00000000000E+00  0.25862237023E+03  0.25862237023E+03  0.00000000000E+00 0.  1.
          2   -1    0    0  502    0  0.00000000000E+00 -0.00000000000E+00 -0.12356854970E+04  0.12356854970E+04  0.00000000000E+00 0. -1.
         25    1    1    2    0    0 -0.20787944083E+03  0.37123984092E+02 -0.38795419589E+03  0.45904848352E+03  0.12500000000E+03 0.  0.
          2    1    1    2  501    0  0.66399593440E+02  0.99632020271E+00 -0.78657210388E+03  0.78937036508E+03  0.00000000000E+00 0. -1.
          1    1    1    2  502    0  0.14147984739E+03 -0.38120304294E+02  0.19746317297E+03  0.24588901866E+03  0.00000000000E+00 0.  1.
<mgrwt>
<rscale>  4 0.19524240E+03</rscale>
<asrwt>0</asrwt>
<pdfrwt beam="1">  1        2 0.19010546E+00 0.19524240E+03</pdfrwt>
<pdfrwt beam="2">  1        1 0.39788057E-01 0.19524240E+03</pdfrwt>
<totfact> 0.28100862E+02</totfact>
</mgrwt>
</event>
<event>
 5    0  0.1226227E+000  0.3816069E+03  0.7546771E-02  0.1050341E+00
          2   -1    0    0  502    0  0.00000000000E+00  0.00000000000E+00  0.64984574579E+03  0.64984574579E+03  0.00000000000E+00 0. -1.
          2   -1    0    0  501    0 -0.00000000000E+00 -0.00000000000E+00 -0.20659619800E+04  0.20659619800E+04  0.00000000000E+00 0.  1.
         25    1    1    2    0    0 -0.20750584209E+03  0.20271531537E+02 -0.29979097163E+03  0.38596533026E+03  0.12500000000E+03 0.  0.
          2    1    1    2  501    0  0.38794557165E+03  0.27618660369E+02  0.53864182520E+03  0.66437908819E+03  0.00000000000E+00 0. -1.
          2    1    1    2  502    0 -0.18043972956E+03 -0.47890191906E+02 -0.16549670878E+04  0.16654633073E+04  0.00000000000E+00 0.  1.
<mgrwt>
<rscale>  4 0.38160685E+03</rscale>
<asrwt>0</asrwt>
<pdfrwt beam="1">  1        2 0.99976271E-01 0.38160685E+03</pdfrwt>
<pdfrwt beam="2">  1        2 0.31784030E+00 0.38160685E+03</pdfrwt>
<totfact> 0.47163995E+01</totfact>
</mgrwt>
</event>
<event>
 5    0  0.1226227E+000  0.3135261E+03  0.7546771E-02  0.1078668E+00
          2   -1    0    0  502    0  0.00000000000E+00  0.00000000000E+00  0.70591732092E+03  0.70591732092E+03  0.00000000000E+00 0.  1.
          1   -1    0    0  501    0 -0.00000000000E+00 -0.00000000000E+00 -0.70743142228E+03  0.70743142228E+03  0.00000000000E+00 0.  1.
         25    1    1    2    0    0 -0.14603678023E+03 -0.37796149464E+03  0.25881892094E+02  0.42482526402E+03  0.12500000000E+03 0.  0.
          2    1    1    2  501    0  0.49440734075E+02  0.12733244900E+03  0.43380845954E+03  0.45480514324E+03  0.00000000000E+00 0.  1.
          1    1    1    2  502    0  0.96596046160E+02  0.25062904565E+03 -0.46120445299E+03  0.53371833593E+03  0.00000000000E+00 0.  1.
<mgrwt>
<rscale>  4 0.31352613E+03</rscale>
<asrwt>0</asrwt>
<pdfrwt beam="1">  1        2 0.10860267E+00 0.31352613E+03</pdfrwt>
<pdfrwt beam="2">  1        1 0.10883560E+00 0.31352613E+03</pdfrwt>
<totfact> 0.15645420E+02</totfact>
</mgrwt>
</event>
<event>
 5    0  0.1226227E+000  0.2120766E+03  0.7546771E-02  0.1139932E+00
          1   -1    0    0  502    0  0.00000000000E+00  0.00000000000E+00  0.10294828793E+04  0.10294828793E+04  0.00000000000E+00 0.  1.
         -1   -1    0    0    0  501 -0.00000000000E+00 -0.00000000000E+00 -0.85921776062E+02  0.85921776062E+02  0.00000000000E+00 0.  1.
         25    1    1    2    0    0  0.15464086046E+03 -0.12753085118E+03  0.16456350149E+03  0.28789591826E+03  0.12500000000E+03 0.  0.
          1    1    1    2  502    0 -0.11992510425E+02  0.94385847005E+02  0.53133806975E+03  0.53978945228E+03  0.00000000000E+00 0.  1.
         -1    1    1    2    0  501 -0.14264835004E+03  0.33145004170E+02  0.24765953195E+03  0.28771928478E+03  0.00000000000E+00 0.  1.
<mgrwt>
<rscale>  4 0.21207659E+03</rscale>
<asrwt>0</asrwt>
<pdfrwt beam="1">  1        1 0.15838197E+00 0.21207659E+03</pdfrwt>
<pdfrwt beam="2">  1       -1 0.13218736E-01 0.21207659E+03</pdfrwt>
<totfact> 0.60273590E+02</totfact>
</mgrwt>
</event>
<event>
 5    0  0.1226227E+000  0.5035054E+03  0.7546771E-02  0.1012868E+00
          2   -1    0    0  502    0  0.00000000000E+00  0.00000000000E+00  0.23787116628E+04  0.23787116628E+04  0.00000000000E+00 0. -1.
          2   -1    0    0  501    0 -0.00000000000E+00 -0.00000000000E+00 -0.77979033800E+03  0.77979033800E+03  0.00000000000E+00 0.  1.
         25    1    1    2    0    0 -0.22245830857E+03  0.41166905769E+03  0.83488986371E+03  0.96520733350E+03  0.12500000000E+03 0.  0.
          2    1    1    2  501    0 -0.49944201588E+01  0.34372512504E+02 -0.67178587713E+03  0.67268319331E+03  0.00000000000E+00 0.  1.
          2    1    1    2  502    0  0.22745272873E+03 -0.44604157020E+03  0.14358173382E+04  0.15206114740E+04  0.00000000000E+00 0. -1.
<mgrwt>
<rscale>  4 0.50350541E+03</rscale>
<asrwt>0</asrwt>
<pdfrwt beam="1">  1        2 0.36595564E+00 0.50350541E+03</pdfrwt>
<pdfrwt beam="2">  1        2 0.11996775E+00 0.50350541E+03</pdfrwt>
<totfact> 0.24483532E+01</totfact>
</mgrwt>
</event>
<event>
 5    0  0.1226227E+000  0.2951537E+03  0.7546771E-02  0.1087689E+00
         -1   -1    0    0    0  501 -0.00000000000E+00  0.00000000000E+00  0.12432556909E+04  0.12432556909E+04  0.00000000000E+00 0.  1.
          2   -1    0    0  501    0  0.00000000000E+00 -0.00000000000E+00 -0.16851532918E+03  0.16851532918E+03  0.00000000000E+00 0. -1.
         25    1    1    2    0    0  0.28542542616E+03 -0.46547736814E+02  0.33208712557E+03  0.45775673089E+03  0.12500000000E+03 0.  0.
          2    1    1    2  502    0 -0.25008583860E+03  0.67259410841E+02  0.54502558629E+02  0.26464558170E+03  0.00000000000E+00 0. -1.
         -1    1    1    2    0  502 -0.35339587560E+02 -0.20711674027E+02  0.68815067754E+03  0.68936870751E+03  0.00000000000E+00 0.  1.
<mgrwt>
<rscale>  4 0.29515372E+03</rscale>
<asrwt>0</asrwt>
<pdfrwt beam="1">  1        2 0.25925436E-01 0.29515372E+03</pdfrwt>
<pdfrwt beam="2">  1       -1 0.19127010E+00 0.29515372E+03</pdfrwt>
<totfact> 0.45033380E+01</totfact>
</mgrwt>
</event>
<event>
 5    0  0.1226227E+000  0.2666082E+03  0.7546771E-02  0.1103237E+00
          2   -1    0    0  502    0  0.00000000000E+00  0.00000000000E+00  0.21751498183E+03  0.21751498183E+03  0.00000000000E+00 0. -1.
         -2   -1    0    0    0  501 -0.00000000000E+00 -0.00000000000E+00 -0.56929551310E+03  0.56929551310E+03  0.00000000000E+00 0. -1.
         25    1    1    2    0    0  0.93088822595E+02 -0.24204447045E+03  0.47505456380E+02  0.29177529531E+03  0.12500000000E+03 0.  0.
          2    1    1    2  502    0 -0.10964644681E+02  0.25944212551E+02  0.56765241529E+01  0.28732360229E+02  0.00000000000E+00 0. -1.
         -2    1    1    2    0  501 -0.82124177913E+02  0.21610025790E+03 -0.40496251180E+03  0.46630283939E+03  0.00000000000E+00 0. -1.
<mgrwt>
<rscale>  4 0.26660817E+03</rscale>
<asrwt>0</asrwt>
<pdfrwt beam="1">  1        2 0.33463843E-01 0.26660817E+03</pdfrwt>
<pdfrwt beam="2">  1       -2 0.87583925E-01 0.26660817E+03</pdfrwt>
<totfact> 0.18189462E+02</totfact>
</mgrwt>
</event>
<event>
 5    0  0.1226227E+000  0.1934471E+03  0.7546771E-02  0.1155388E+00
          2   -1    0    0  502    0  0.00000000000E+00  0.00000000000E+00  0.30578079589E+03  0.30578079589E+03  0.00000000000E+00 0.  1.
          2   -1    0    0  501    0 -0.00000000000E+00 -0.00000000000E+00 -0.24434299175E+04  0.24434299175E+04  0.00000000000E+00 0. -1.
         25    1    1    2    0    0  0.44878583378E+02 -0.23001411600E+03 -0.53300202087E+03  0.59551384120E+03  0.12500000000E+03 0.  0.
          2    1    1    2  501    0 -0.70109347199E+02  0.90867310625E+02  0.25973348608E+03  0.28396068830E+03  0.00000000000E+00 0.  1.
          2    1    1    2  502    0  0.25230763821E+02  0.13914680537E+03 -0.18643805868E+04  0.18697361839E+04  0.00000000000E+00 0. -1.
<mgrwt>
<rscale>  4 0.19344715E+03</rscale>
<asrwt>0</asrwt>
<pdfrwt beam="1">  1        2 0.47043202E-01 0.19344715E+03</pdfrwt>
<pdfrwt beam="2">  1        2 0.37591227E+00 0.19344715E+03</pdfrwt>
<totfact> 0.74718239E+01</totfact>
</mgrwt>
</event>
<event>
 5    0  0.1226227E+000  0.1825191E+03  0.7546771E-02  0.1165387E+00
          1   -1    0    0  502    0  0.00000000000E+00  0.00000000000E+00  0.43856924892E+03  0.43856924892E+03  0.00000000000E+00 0. -1.
          1   -1    0    0  501    0 -0.00000000000E+00 -0.00000000000E+00 -0.43846221440E+03  0.43846221440E+03  0.00000000000E+00 0.  1.
         25    1    1    2    0    0  0.19939098627E+03  0.48278950140E+02  0.15654657331E+02  0.24074403571E+03  0.12500000000E+03 0.  0.
          1    1    1    2  501    0 -0.10114882653E+03  0.31364461585E+02 -0.30368318613E+03  0.32161823968E+03  0.00000000000E+00 0.  1.
          1    1    1    2  502    0 -0.98242159736E+02 -0.79643411726E+02  0.28813556332E+03  0.31466918792E+03  0.00000000000E+00 0. -1.
<mgrwt>
<rscale>  4 0.18251906E+03</rscale>
<asrwt>0</asrwt>
<pdfrwt beam="1">  1        1 0.67472192E-01 0.18251906E+03</pdfrwt>
<pdfrwt beam="2">  1        1 0.67455725E-01 0.18251906E+03</pdfrwt>
<totfact> 0.35142507E+02</totfact>
</mgrwt>
</event>
<event>
 5    0  0.1226227E+000  0.3454343E+03  0.7546771E-02  0.1064505E+00
         -3   -1    0    0    0  502 -0.00000000000E+00  0.00000000000E+00  0.83196160605E+03  0.83196160605E+03  0.00000000000E+00 0.  1.
         -1   -1    0    0    0  501  0.00000000000E+00 -0.00000000000E+00 -0.24822523080E+03  0.24822523080E+03  0.00000000000E+00 0.  1.
         25    1    1    2    0    0  0.34518300421E+03  0.59232236923E+02  0.22177982087E+03  0.43297927575E+03  0.12500000000E+03 0.  0.
         -1    1    1    2    0  502 -0.43614823263E+02  0.98750729514E+01 -0.89419804222E+02  0.99978353963E+02  0.00000000000E+00 0.  1.
         -3    1    1    2    0  501 -0.30156818094E+03 -0.69107309874E+02  0.45137635860E+03  0.54722920714E+03  0.00000000000E+00 0.  1.
<mgrwt>
<rscale>  4 0.34543431E+03</rscale>
<asrwt>0</asrwt>
<pdfrwt beam="1">  1       -1 0.38188498E-01 0.34543431E+03</pdfrwt>
<pdfrwt beam="2">  1       -3 0.12799409E+00 0.34543431E+03</pdfrwt>
<totfact> 0.15335432E+01</totfact>
</mgrwt>
</event>
<event>
 5    0  0.1226227E+000  0.4055972E+03  0.7546771E-02  0.1041859E+00
          2   -1    0    0  502    0  0.00000000000E+00  0.00000000000E+00  0.12145834441E+04  0.12145834441E+04  0.00000000000E+00 0.  1.
          2   -1    0    0  501    0 -0.00000000000E+00 -0.00000000000E+00 -0.97270359373E+03  0.97270359373E+03  0.00000000000E+00 0.  1.
         25    1    1    2    0    0 -0.37855012790E+03 -0.60426994019E+02  0.24075310400E+03  0.46961545761E+03  0.12500000000E+03 0.  0.
          2    1    1    2  501    0 -0.64076391757E+01  0.20935269816E+02 -0.81455485172E+03  0.81484903499E+03  0.00000000000E+00 0.  1.
          2    1    1    2  502    0  0.38495776708E+03  0.39491724202E+02  0.81568159810E+03  0.90282254524E+03  0.00000000000E+00 0.  1.
<mgrwt>
<rscale>  4 0.40559721E+03</rscale>
<asrwt>0</asrwt>
<pdfrwt beam="1">  1        2 0.18685899E+00 0.40559721E+03</pdfrwt>
<pdfrwt beam="2">  1        2 0.14964671E+00 0.40559721E+03</pdfrwt>
<totfact> 0.80385862E+01</totfact>
</mgrwt>
</event>
<event>
 5    0  0.1226227E+000  0.3031187E+03  0.7546771E-02  0.1083692E+00
          2   -1    0    0  502    0  0.00000000000E+00  0.00000000000E+00  0.15595878988E+04  0.15595878988E+04  0.00000000000E+00 0.  1.
          1   -1    0    0  501    0 -0.00000000000E+00 -0.00000000000E+00 -0.99220893102E+03  0.99220893102E+03  0.00000000000E+00 0.  1.
         25    1    1    2    0    0  0.22076390036E+03  0.72903381109E+02  0.18871390969E+03  0.32448350095E+03  0.12500000000E+03 0.  0.
          2    1    1    2  501    0 -0.26775334560E+03 -0.10139034232E+03  0.12864206764E+04  0.13178960552E+04  0.00000000000E+00 0.  1.
          1    1    1    2  502    0  0.46989445242E+02  0.28486961209E+02 -0.90775561836E+03  0.90941727364E+03  0.00000000000E+00 0.  1.
<mgrwt>
<rscale>  4 0.30311873E+03</rscale>
<asrwt>0</asrwt>
<pdfrwt beam="1">  1        2 0.23993660E+00 0.30311873E+03</pdfrwt>
<pdfrwt beam="2">  1        1 0.15264753E+00 0.30311873E+03</pdfrwt>
<totfact> 0.27954925E+01</totfact>
</mgrwt>
</event>
<event>
 5    0  0.1226227E+000  0.2757113E+03  0.7546771E-02  0.1098055E+00
         -1   -1    0    0    0  501 -0.00000000000E+00  0.00000000000E+00  0.40450458989E+03  0.40450458989E+03  0.00000000000E+00 0. -1.
          2   -1    0    0  501    0  0.00000000000E+00 -0.00000000000E+00 -0.71137272944E+03  0.71137272944E+03  0.00000000000E+00 0. -1.
         25    1    1    2    0    0  0.98053366654E+02 -0.21301639680E+03 -0.15682750060E+03  0.30856168421E+03  0.12500000000E+03 0.  0.
          2    1    1    2  502    0 -0.12710024413E+03  0.21643049091E+03 -0.44500378853E+03  0.51090605913E+03  0.00000000000E+00 0. -1.
         -1    1    1    2    0  502  0.29046877472E+02 -0.34140941129E+01  0.29496314958E+03  0.29640957599E+03  0.00000000000E+00 0. -1.
<mgrwt>
<rscale>  4 0.27571127E+03</rscale>
<asrwt>0</asrwt>
<pdfrwt beam="1">  1        2 0.10944196E+00 0.27571127E+03</pdfrwt>
<pdfrwt beam="2">  1       -1 0.62231476E-01 0.27571127E+03</pdfrwt>
<totfact> 0.12815204E+02</totfact>
</mgrwt>
</event>
<event>
 5    0  0.1226227E+000  0.4056880E+03  0.7546771E-02  0.1041828E+00
          1   -1    0    0  501    0  0.00000000000E+00  0.00000000000E+00  0.13074203185E+04  0.13074203185E+04  0.00000000000E+00 0.  1.
         -3   -1    0    0    0  501 -0.00000000000E+00 -0.00000000000E+00 -0.15034595171E+04  0.15034595171E+04  0.00000000000E+00 0.  1.
         25    1    1    2    0    0 -0.35651972295E+03  0.20509483634E+03 -0.27885582275E+03  0.51240196586E+03  0.12500000000E+03 0.  0.
          1    1    1    2  502    0  0.33681164685E+03 -0.18437253777E+03  0.11594954800E+04  0.12214192917E+04  0.00000000000E+00 0.  1.
         -3    1    1    2    0  502  0.19708076095E+02 -0.20722298563E+02 -0.10766788558E+04  0.10770585780E+04  0.00000000000E+00 0.  1.
<mgrwt>
<rscale>  4 0.40568804E+03</rscale>
<asrwt>0</asrwt>
<pdfrwt beam="1">  1        1 0.20114159E+00 0.40568804E+03</pdfrwt>
<pdfrwt beam="2">  1       -3 0.23130146E+00 0.40568804E+03</pdfrwt>
<totfact> 0.51471968E-01</totfact>
</mgrwt>
</event>
<event>
 5    0  0.1226227E+000  0.2429082E+03  0.7546771E-02  0.1117870E+00
          1   -1    0    0  502    0  0.00000000000E+00  0.00000000000E+00  0.46549693373E+03  0.46549693373E+03  0.00000000000E+00 0.  1.
          1   -1    0    0  501    0 -0.00000000000E+00 -0.00000000000E+00 -0.82908715084E+03  0.82908715084E+03  0.00000000000E+00 0. -1.
         25    1    1    2    0    0  0.19087285067E+03 -0.13362965277E+03 -0.30727511902E+03  0.40537923972E+03  0.12500000000E+03 0.  0.
          1    1    1    2  501    0 -0.39553379554E+02 -0.70964831585E+01 -0.44616675578E+03  0.44797277135E+03  0.00000000000E+00 0. -1.
          1    1    1    2  502    0 -0.15131947112E+03  0.14072613593E+03  0.38985165769E+03  0.44123207349E+03  0.00000000000E+00 0.  1.
<mgrwt>
<rscale>  4 0.24290823E+03</rscale>
<asrwt>0</asrwt>
<pdfrwt beam="1">  1        1 0.71614913E-01 0.24290823E+03</pdfrwt>
<pdfrwt beam="2">  1        1 0.12755187E+00 0.24290823E+03</pdfrwt>
<totfact> 0.13145309E+02</totfact>
</mgrwt>
</event>
<event>
 5    0  0.1226227E+000  0.2494398E+03  0.7546771E-02  0.1113659E+00
          2   -1    0    0  501    0  0.00000000000E+00  0.00000000000E+00  0.68385186914E+03  0.68385186914E+03  0.00000000000E+00 0. -1.
         -1   -1    0    0    0  501 -0.00000000000E+00 -0.00000000000E+00 -0.16780681191E+03  0.16780681191E+03  0.00000000000E+00 0. -1.
         25    1    1    2    0    0  0.10206705150E+03 -0.19554357713E+03  0.21398367987E+03  0.33176646727E+03  0.12500000000E+03 0.  0.
          2    1    1    2  502    0 -0.13109482934E+03  0.17000989070E+03  0.37798223142E+03  0.43469504769E+03  0.00000000000E+00 0. -1.
         -1    1    1    2    0  502  0.29027777837E+02  0.25533686424E+02 -0.75920854061E+02  0.85197166091E+02  0.00000000000E+00 0. -1.
<mgrwt>
<rscale>  4 0.24943984E+03</rscale>
<asrwt>0</asrwt>
<pdfrwt beam="1">  1        2 0.10520798E+00 0.24943984E+03</pdfrwt>
<pdfrwt beam="2">  1       -1 0.25816433E-01 0.24943984E+03</pdfrwt>
<totfact> 0.65188568E+02</totfact>
</mgrwt>
</event>
<event>
 5    0  0.1226227E+000  0.2521087E+03  0.7546771E-02  0.1111979E+00
          2   -1    0    0  502    0  0.00000000000E+00  0.00000000000E+00  0.16706655630E+04  0.16706655630E+04  0.00000000000E+00 0. -1.
          2   -1    0    0  501    0 -0.00000000000E+00 -0.00000000000E+00 -0.52926251263E+03  0.52926251263E+03  0.00000000000E+00 0. -1.
         25    1    1    2    0    0  0.23403770050E+03  0.88619364573E+02 -0.22742369692E+03  0.36051848074E+03  0.12500000000E+03 0.  0.
          2    1    1    2  501    0 -0.21273122104E+03 -0.48564975733E+02  0.15944289458E+04  0.16092907731E+04  0.00000000000E+00 0. -1.
          2    1    1    2  502    0 -0.21306479460E+02 -0.40054388840E+02 -0.22560219854E+03  0.23011882174E+03  0.00000000000E+00 0. -1.
<mgrwt>
<rscale>  4 0.25210869E+03</rscale>
<asrwt>0</asrwt>
<pdfrwt beam="1">  1        2 0.25702547E+00 0.25210869E+03</pdfrwt>
<pdfrwt beam="2">  1        2 0.81425003E-01 0.25210869E+03</pdfrwt>
<totfact> 0.10166332E+02</totfact>
</mgrwt>
</event>
<event>
 5    0  0.1226227E+000  0.3761463E+03  0.7546771E-02  0.1052367E+00
          1   -1    0    0  501    0 -0.00000000000E+00  0.00000000000E+00  0.24584657431E+04  0.24584657431E+04  0.00000000000E+00 0. -1.
          2   -1    0    0  502    0  0.00000000000E+00 -0.00000000000E+00 -0.10245059834E+04  0.10245059834E+04  0.00000000000E+00 0.  1.
         25    1    1    2    0    0  0.79046783157E+02 -0.39031867629E+03 -0.89767798608E+03  0.98997365100E+03  0.12500000000E+03 0.  0.
          2    1    1    2  501    0 -0.65186188981E+02  0.36354921367E+02 -0.46950168000E+02  0.88177308968E+02  0.00000000000E+00 0.  1.
          1    1    1    2  502    0 -0.13860594175E+02  0.35396375493E+03  0.23785879137E+04  0.24048207665E+04  0.00000000000E+00 0. -1.
<mgrwt>
<rscale>  4 0.37614629E+03</rscale>
<asrwt>0</asrwt>
<pdfrwt beam="1">  1        2 0.15761631E+00 0.37614629E+03</pdfrwt>
<pdfrwt beam="2">  1        1 0.37822550E+00 0.37614629E+03</pdfrwt>
<totfact> 0.55775958E+00</totfact>
</mgrwt>
</event>
<event>
 5    0  0.1226227E+000  0.2502657E+03  0.7546771E-02  0.1113137E+00
          2   -1    0    0  502    0  0.00000000000E+00  0.00000000000E+00  0.41871772210E+03  0.41871772210E+03  0.00000000000E+00 0. -1.
          2   -1    0    0  501    0 -0.00000000000E+00 -0.00000000000E+00 -0.48665308440E+03  0.48665308440E+03  0.00000000000E+00 0. -1.
         25    1    1    2    0    0 -0.25579263513E+03 -0.79453355095E+02 -0.12053411828E+03  0.31921181290E+03  0.12500000000E+03 0.  0.
          2    1    1    2  501    0  0.19659174582E+03  0.26646487529E+02 -0.22352374739E+03  0.29886655127E+03  0.00000000000E+00 0. -1.
          2    1    1    2  502    0  0.59200889317E+02  0.52806867566E+02  0.27612250337E+03  0.28729244234E+03  0.00000000000E+00 0. -1.
<mgrwt>
<rscale>  4 0.25026573E+03</rscale>
<asrwt>0</asrwt>
<pdfrwt beam="1">  1        2 0.64418111E-01 0.25026573E+03</pdfrwt>
<pdfrwt beam="2">  1        2 0.74869705E-01 0.25026573E+03</pdfrwt>
<totfact> 0.75621444E+02</totfact>
</mgrwt>
</event>
<event>
 5    0  0.1226227E+000  0.2900511E+03  0.7546771E-02  0.1090322E+00
         -4   -1    0    0    0  501 -0.00000000000E+00  0.00000000000E+00  0.20212825127E+04  0.20212825127E+04  0.00000000000E+00 0. -1.
          1   -1    0    0  501    0  0.00000000000E+00 -0.00000000000E+00 -0.23657829794E+04  0.23657829794E+04  0.00000000000E+00 0. -1.
         25    1    1    2    0    0  0.20602635313E+03  0.34257286315E+03 -0.82718066368E+03  0.92717629128E+03  0.12500000000E+03 0.  0.
          1    1    1    2  502    0 -0.42198396431E+02 -0.14014602988E+03 -0.14763696297E+04  0.14836067194E+04  0.00000000000E+00 0. -1.
         -4    1    1    2    0  502 -0.16382795670E+03 -0.20242683327E+03  0.19590498268E+04  0.19762824813E+04  0.00000000000E+00 0. -1.
<mgrwt>
<rscale>  4 0.29005112E+03</rscale>
<asrwt>0</asrwt>
<pdfrwt beam="1">  1        1 0.36396661E+00 0.29005112E+03</pdfrwt>
<pdfrwt beam="2">  1       -4 0.31096654E+00 0.29005112E+03</pdfrwt>
<totfact> 0.27574416E-02</totfact>
</mgrwt>
</event>
<event>
 5    0  0.1226227E+000  0.1896269E+03  0.7546771E-02  0.1158798E+00
         -1   -1    0    0    0  501 -0.00000000000E+00  0.00000000000E+00  0.10904148097E+03  0.10904148097E+03  0.00000000000E+00 0.  1.
          2   -1    0    0  501    0  0.00000000000E+00 -0.00000000000E+00 -0.53108402079E+03  0.53108402079E+03  0.00000000000E+00 0.  1.
         25    1    1    2    0    0  0.19712503517E+03  0.55618509237E+02 -0.11716924883E+03  0.26703058052E+03  0.12500000000E+03 0.  0.
          2    1    1    2  502    0 -0.12821845249E+03 -0.13114883815E+02 -0.22538694583E+03  0.25963675989E+03  0.00000000000E+00 0.  1.
         -1    1    1    2    0  502 -0.68906582686E+02 -0.42503625422E+02 -0.79486345151E+02  0.11345816135E+03  0.00000000000E+00 0.  1.
<mgrwt>
<rscale>  4 0.18962687E+03</rscale>
<asrwt>0</asrwt>
<pdfrwt beam="1">  1        2 0.81705235E-01 0.18962687E+03</pdfrwt>
<pdfrwt beam="2">  1       -1 0.16775612E-01 0.18962687E+03</pdfrwt>
<totfact> 0.17657691E+03</totfact>
</mgrwt>
</event>
<event>
 5    0  0.1226227E+000  0.2742369E+03  0.7546771E-02  0.1098879E+00
          1   -1    0    0  502    0  0.00000000000E+00  0.00000000000E+00  0.39227123336E+03  0.39227123336E+03  0.00000000000E+00 0.  1.
          3   -1    0    0  501    0 -0.00000000000E+00 -0.00000000000E+00 -0.83742104290E+03  0.83742104290E+03  0.00000000000E+00 0.  1.
         25    1    1    2    0    0  0.28505219903E+03 -0.17220699368E+03 -0.96093261484E+02  0.36846834294E+03  0.12500000000E+03 0.  0.
          1    1    1    2  501    0 -0.17624565697E+03  0.14011377185E+03  0.19964438381E+03  0.30091905996E+03  0.00000000000E+00 0.  1.
          3    1    1    2  502    0 -0.10880654206E+03  0.32093221834E+02 -0.54870093187E+03  0.56030487336E+03  0.00000000000E+00 0.  1.
<mgrwt>
<rscale>  4 0.27423691E+03</rscale>
<asrwt>0</asrwt>
<pdfrwt beam="1">  1        1 0.60349422E-01 0.27423691E+03</pdfrwt>
<pdfrwt beam="2">  1        3 0.12883400E+00 0.27423691E+03</pdfrwt>
<totfact> 0.16744314E+01</totfact>
</mgrwt>
</event>
<event>
 5    0  0.1226227E+000  0.3287526E+03  0.7546771E-02  0.1071690E+00
          1   -1    0    0  501    0 -0.00000000000E+00  0.00000000000E+00  0.66146279759E+03  0.66146279759E+03  0.00000000000E+00 0.  1.
          2   -1    0    0  502    0  0.00000000000E+00 -0.00000000000E+00 -0.42435233584E+03  0.42435233584E+03  0.00000000000E+00 0. -1.
         25    1    1    2    0    0  0.10902807890E+03 -0.32925528616E+03 -0.19929860734E+02  0.36921316986E+03  0.12500000000E+03 0.  0.
          2    1    1    2  501    0 -0.88818171769E+02  0.26822142758E+03 -0.13934445254E+03  0.31503694752E+03  0.00000000000E+00 0. -1.
          1    1    1    2  502    0 -0.20209907132E+02  0.61033858576E+02  0.39638477503E+03  0.40156501605E+03  0.00000000000E+00 0.  1.
<mgrwt>
<rscale>  4 0.32875257E+03</rscale>
<asrwt>0</asrwt>
<pdfrwt beam="1">  1        2 0.65284974E-01 0.32875257E+03</pdfrwt>
<pdfrwt beam="2">  1        1 0.10176351E+00 0.32875257E+03</pdfrwt>
<totfact> 0.31009747E+02</totfact>
</mgrwt>
</event>
<event>
 5    0  0.1226227E+000  0.1777072E+03  0.7546771E-02  0.1170041E+00
          2   -1    0    0  502    0  0.00000000000E+00  0.00000000000E+00  0.61453196612E+03  0.61453196612E+03  0.00000000000E+00 0. -1.
          1   -1    0    0  501    0 -0.00000000000E+00 -0.00000000000E+00 -0.12127849838E+03  0.12127849838E+03  0.00000000000E+00 0.  1.
         25    1    1    2    0    0 -0.14531836959E+03  0.13976686803E+03  0.45091030630E+03  0.50950692858E+03  0.12500000000E+03 0.  0.
          2    1    1    2  501    0  0.66005128771E+02 -0.51553147948E+02  0.64393210857E+02  0.10564511201E+03  0.00000000000E+00 0. -1.
          1    1    1    2  502    0  0.79313240822E+02 -0.88213720080E+02 -0.22050049417E+02  0.12065842391E+03  0.00000000000E+00 0.  1.
<mgrwt>
<rscale>  4 0.17770723E+03</rscale>
<asrwt>0</asrwt>
<pdfrwt beam="1">  1        2 0.94543378E-01 0.17770723E+03</pdfrwt>
<pdfrwt beam="2">  1        1 0.18658231E-01 0.17770723E+03</pdfrwt>
<totfact> 0.18524615E+03</totfact>
</mgrwt>
</event>
<event>
 5    0  0.1226227E+000  0.1742232E+03  0.7546771E-02  0.1173514E+00
          2   -1    0    0  502    0  0.00000000000E+00  0.00000000000E+00  0.48658840987E+03  0.48658840987E+03  0.00000000000E+00 0. -1.
          1   -1    0    0  501    0 -0.00000000000E+00 -0.00000000000E+00 -0.57823913513E+03  0.57823913513E+03  0.00000000000E+00 0. -1.
         25    1    1    2    0    0 -0.18785329189E+03  0.77599754988E+02 -0.49818706181E+01  0.23866378083E+03  0.12500000000E+03 0.  0.
          2    1    1    2  501    0  0.86517745136E+02 -0.20736567724E+02  0.35679960468E+03  0.36772446664E+03  0.00000000000E+00 0. -1.
          1    1    1    2  502    0  0.10133554675E+03 -0.56863187264E+02 -0.44346845932E+03  0.45843929753E+03  0.00000000000E+00 0. -1.
<mgrwt>
<rscale>  4 0.17422319E+03</rscale>
<asrwt>0</asrwt>
<pdfrwt beam="1">  1        2 0.74859756E-01 0.17422319E+03</pdfrwt>
<pdfrwt beam="2">  1        1 0.88959867E-01 0.17422319E+03</pdfrwt>
<totfact> 0.33141269E+02</totfact>
</mgrwt>
</event>
<event>
 5    0  0.1226227E+000  0.2526099E+03  0.7546771E-02  0.1111666E+00
          2   -1    0    0  502    0  0.00000000000E+00  0.00000000000E+00  0.13475801156E+03  0.13475801156E+03  0.00000000000E+00 0.  1.
          2   -1    0    0  501    0 -0.00000000000E+00 -0.00000000000E+00 -0.22806981197E+04  0.22806981197E+04  0.00000000000E+00 0.  1.
         25    1    1    2    0    0  0.46599907439E+02 -0.23874463704E+03 -0.65138242711E+02  0.28113794435E+03  0.12500000000E+03 0.  0.
          2    1    1    2  501    0 -0.49546494319E+02  0.59126245957E+02 -0.17955920246E+04  0.17972483098E+04  0.00000000000E+00 0.  1.
          2    1    1    2  502    0  0.29465868796E+01  0.17961839108E+03 -0.28520984083E+03  0.33706987717E+03  0.00000000000E+00 0.  1.
<mgrwt>
<rscale>  4 0.25260988E+03</rscale>
<asrwt>0</asrwt>
<pdfrwt beam="1">  1        2 0.20732003E-01 0.25260988E+03</pdfrwt>
<pdfrwt beam="2">  1        2 0.35087662E+00 0.25260988E+03</pdfrwt>
<totfact> 0.21883084E+02</totfact>
</mgrwt>
</event>
<event>
 5    0  0.1226227E+000  0.2644977E+03  0.7546771E-02  0.1104471E+00
          2   -1    0    0  502    0  0.00000000000E+00  0.00000000000E+00  0.18143876929E+04  0.18143876929E+04  0.00000000000E+00 0. -1.
          3   -1    0    0  501    0 -0.00000000000E+00 -0.00000000000E+00 -0.20207886495E+03  0.20207886495E+03  0.00000000000E+00 0. -1.
         25    1    1    2    0    0 -0.96962721507E+01  0.23896394863E+03  0.29794346041E+02  0.27149675779E+03  0.12500000000E+03 0.  0.
          2    1    1    2  501    0  0.11363453534E+03 -0.21290016157E+02  0.14772817087E+04  0.14817986771E+04  0.00000000000E+00 0. -1.
          3    1    1    2  502    0 -0.10393826319E+03 -0.21767393247E+03  0.10523277319E+03  0.26317112301E+03  0.00000000000E+00 0. -1.
<mgrwt>
<rscale>  4 0.26449766E+03</rscale>
<asrwt>0</asrwt>
<pdfrwt beam="1">  1        2 0.27913656E+00 0.26449766E+03</pdfrwt>
<pdfrwt beam="2">  1        3 0.31089057E-01 0.26449766E+03</pdfrwt>
<totfact> 0.58833256E+01</totfact>
</mgrwt>
</event>
<event>
 5    0  0.1226227E+000  0.2585152E+03  0.7546771E-02  0.1108039E+00
         -4   -1    0    0    0  501 -0.00000000000E+00  0.00000000000E+00  0.20217100157E+03  0.20217100157E+03  0.00000000000E+00 0.  1.
          1   -1    0    0  501    0  0.00000000000E+00 -0.00000000000E+00 -0.11399664224E+04  0.11399664224E+04  0.00000000000E+00 0. -1.
         25    1    1    2    0    0  0.21602294066E+03  0.45854176992E+02 -0.99010026747E+03  0.10221017836E+04  0.12500000000E+03 0.  0.
          1    1    1    2  502    0  0.28843729170E+00  0.22079768919E+02 -0.62221788727E+02  0.66023862232E+02  0.00000000000E+00 0. -1.
         -4    1    1    2    0  502 -0.21631137795E+03 -0.67933945911E+02  0.11452663533E+03  0.25401177815E+03  0.00000000000E+00 0.  1.
<mgrwt>
<rscale>  4 0.25851522E+03</rscale>
<asrwt>0</asrwt>
<pdfrwt beam="1">  1        1 0.17537945E+00 0.25851522E+03</pdfrwt>
<pdfrwt beam="2">  1       -4 0.31103230E-01 0.25851522E+03</pdfrwt>
<totfact> 0.59462639E+01</totfact>
</mgrwt>
</event>
<event>
 5    0  0.1226227E+000  0.3133395E+03  0.7546771E-02  0.1078756E+00
          2   -1    0    0  502    0  0.00000000000E+00  0.00000000000E+00  0.93440425499E+03  0.93440425499E+03  0.00000000000E+00 0. -1.
          2   -1    0    0  501    0 -0.00000000000E+00 -0.00000000000E+00 -0.22944275835E+03  0.22944275835E+03  0.00000000000E+00 0. -1.
         25    1    1    2    0    0  0.31473776826E+03  0.10907490084E+03  0.33793074700E+03  0.49069276185E+03  0.12500000000E+03 0.  0.
          2    1    1    2  501    0 -0.23087900739E+03 -0.13589969364E+03  0.46795830406E+03  0.53922056445E+03  0.00000000000E+00 0. -1.
          2    1    1    2  502    0 -0.83858760866E+02  0.26824792799E+02 -0.10092755442E+03  0.13393368704E+03  0.00000000000E+00 0. -1.
<mgrwt>
<rscale>  4 0.31333946E+03</rscale>
<asrwt>0</asrwt>
<pdfrwt beam="1">  1        2 0.14375450E+00 0.31333946E+03</pdfrwt>
<pdfrwt beam="2">  1        2 0.35298886E-01 0.31333946E+03</pdfrwt>
<totfact> 0.65215265E+02</totfact>
</mgrwt>
</event>
<event>
 5    0  0.1226227E+000  0.2626230E+03  0.7546771E-02  0.1105577E+00
          2   -1    0    0  502    0  0.00000000000E+00  0.00000000000E+00  0.13037338304E+04  0.13037338304E+04  0.00000000000E+00 0.  1.
          1   -1    0    0  501    0 -0.00000000000E+00 -0.00000000000E+00 -0.48896394357E+03  0.48896394357E+03  0.00000000000E+00 0.  1.
         25    1    1    2    0    0  0.79515178238E+02  0.29198316668E+03  0.77422340171E+02  0.33644620960E+03  0.12500000000E+03 0.  0.
          2    1    1    2  501    0 -0.36921015206E+02 -0.76739079273E+02  0.10614501312E+04  0.10648607556E+04  0.00000000000E+00 0.  1.
          1    1    1    2  502    0 -0.42594163032E+02 -0.21524408741E+03 -0.32410258458E+03  0.39139080880E+03  0.00000000000E+00 0.  1.
<mgrwt>
<rscale>  4 0.26262299E+03</rscale>
<asrwt>0</asrwt>
<pdfrwt beam="1">  1        2 0.20057443E+00 0.26262299E+03</pdfrwt>
<pdfrwt beam="2">  1        1 0.75225223E-01 0.26262299E+03</pdfrwt>
<totfact> 0.11188693E+02</totfact>
</mgrwt>
</event>
<event>
 5    0  0.1226227E+000  0.2352660E+03  0.7546771E-02  0.1122987E+00
          2   -1    0    0  502    0  0.00000000000E+00  0.00000000000E+00  0.31092142001E+03  0.31092142001E+03  0.00000000000E+00 0.  1.
          2   -1    0    0  501    0 -0.00000000000E+00 -0.00000000000E+00 -0.99095280920E+03  0.99095280920E+03  0.00000000000E+00 0.  1.
         25    1    1    2    0    0  0.50387075873E+02 -0.24561912430E+03 -0.38604123503E+02  0.28281246434E+03  0.12500000000E+03 0.  0.
          2    1    1    2  501    0  0.56030779652E+02  0.18193359048E+03  0.13462713761E+03  0.23316034353E+03  0.00000000000E+00 0.  1.
          2    1    1    2  502    0 -0.10641785552E+03  0.63685533824E+02 -0.77605440329E+03  0.78590142134E+03  0.00000000000E+00 0.  1.
<mgrwt>
<rscale>  4 0.23526596E+03</rscale>
<asrwt>0</asrwt>
<pdfrwt beam="1">  1        2 0.47834065E-01 0.23526596E+03</pdfrwt>
<pdfrwt beam="2">  1        2 0.15245428E+00 0.23526596E+03</pdfrwt>
<totfact> 0.43725488E+02</totfact>
</mgrwt>
</event>
<event>
 5    0  0.1226227E+000  0.3703404E+03  0.7546771E-02  0.1054563E+00
          2   -1    0    0  502    0  0.00000000000E+00  0.00000000000E+00  0.74320079487E+03  0.74320079487E+03  0.00000000000E+00 0.  1.
          2   -1    0    0  501    0 -0.00000000000E+00 -0.00000000000E+00 -0.12604966611E+04  0.12604966611E+04  0.00000000000E+00 0.  1.
         25    1    1    2    0    0 -0.84324061133E+02 -0.26760876220E+03 -0.16707170828E+03  0.34966119688E+03  0.12500000000E+03 0.  0.
          2    1    1    2  501    0 -0.17394315733E+02  0.36476902246E+03  0.59514868708E+03  0.69825565640E+03  0.00000000000E+00 0.  1.
          2    1    1    2  502    0  0.10171837687E+03 -0.97160260253E+02 -0.94537284505E+03  0.95578060271E+03  0.00000000000E+00 0.  1.
<mgrwt>
<rscale>  4 0.37034042E+03</rscale>
<asrwt>0</asrwt>
<pdfrwt beam="1">  1        2 0.11433859E+00 0.37034042E+03</pdfrwt>
<pdfrwt beam="2">  1        2 0.19392256E+00 0.37034042E+03</pdfrwt>
<totfact> 0.10925794E+02</totfact>
</mgrwt>
</event>
<event>
 5    0  0.1226227E+000  0.2433062E+03  0.7546771E-02  0.1117610E+00
          2   -1    0    0  502    0  0.00000000000E+00  0.00000000000E+00  0.11692723831E+04  0.11692723831E+04  0.00000000000E+00 0. -1.
          1   -1    0    0  501    0 -0.00000000000E+00 -0.00000000000E+00 -0.53733457571E+03  0.53733457571E+03  0.00000000000E+00 0.  1.
         25    1    1    2    0    0 -0.33062972472E+03  0.14726597009E+02 -0.12588902959E+03  0.37550757023E+03  0.12500000000E+03 0.  0.
          2    1    1    2  501    0  0.15678229146E+03 -0.71901123380E+02  0.10071538277E+04  0.10218166622E+04  0.00000000000E+00 0. -1.
          1    1    1    2  502    0  0.17384743325E+03  0.57174526371E+02 -0.24932699075E+03  0.30928272637E+03  0.00000000000E+00 0.  1.
<mgrwt>
<rscale>  4 0.24330624E+03</rscale>
<asrwt>0</asrwt>
<pdfrwt beam="1">  1        2 0.17988806E+00 0.24330624E+03</pdfrwt>
<pdfrwt beam="2">  1        1 0.82666858E-01 0.24330624E+03</pdfrwt>
<totfact> 0.11815923E+02</totfact>
</mgrwt>
</event>
<event>
 5    0  0.1226227E+000  0.2871246E+03  0.7546771E-02  0.1091860E+00
         -1   -1    0    0    0  501 -0.00000000000E+00  0.00000000000E+00  0.59388614582E+02  0.59388614582E+02  0.00000000000E+00 0. -1.
          2   -1    0    0  501    0  0.00000000000E+00 -0.00000000000E+00 -0.28523434951E+04  0.28523434951E+04  0.00000000000E+00 0. -1.
         25    1    1    2    0    0  0.17812100486E+03 -0.34151172882E+03 -0.13281179487E+04  0.13884810546E+04  0.12500000000E+03 0.  0.
          2    1    1    2  502    0 -0.27010375058E+02  0.19927512684E+03 -0.88005881139E+03  0.90274229326E+03  0.00000000000E+00 0. -1.
         -1    1    1    2    0  502 -0.15111062980E+03  0.14223660198E+03 -0.58477812047E+03  0.62050876187E+03  0.00000000000E+00 0. -1.
<mgrwt>
<rscale>  4 0.28712460E+03</rscale>
<asrwt>0</asrwt>
<pdfrwt beam="1">  1        2 0.43882216E+00 0.28712460E+03</pdfrwt>
<pdfrwt beam="2">  1       -1 0.91367083E-02 0.28712460E+03</pdfrwt>
<totfact> 0.20226963E+02</totfact>
</mgrwt>
</event>
<event>
 5    0  0.1226227E+000  0.2069271E+03  0.7546771E-02  0.1144023E+00
          2   -1    0    0  502    0  0.00000000000E+00  0.00000000000E+00  0.29161719637E+03  0.29161719637E+03  0.00000000000E+00 0. -1.
          2   -1    0    0  501    0 -0.00000000000E+00 -0.00000000000E+00 -0.17507822395E+04  0.17507822395E+04  0.00000000000E+00 0. -1.
         25    1    1    2    0    0 -0.21403250142E+03  0.27006692813E+02  0.48664713670E+02  0.25403253232E+03  0.12500000000E+03 0.  0.
          2    1    1    2  501    0  0.14634136139E+03  0.13385986198E+02  0.10054800771E+03  0.17805864353E+03  0.00000000000E+00 0. -1.
          2    1    1    2  502    0  0.67691140030E+02 -0.40392679011E+02 -0.16083777645E+04  0.16103082600E+04  0.00000000000E+00 0. -1.
<mgrwt>
<rscale>  4 0.20692709E+03</rscale>
<asrwt>0</asrwt>
<pdfrwt beam="1">  1        2 0.44864185E-01 0.20692709E+03</pdfrwt>
<pdfrwt beam="2">  1        2 0.26935111E+00 0.20692709E+03</pdfrwt>
<totfact> 0.18030515E+02</totfact>
</mgrwt>
</event>
<event>
 5    0  0.1226227E+000  0.3014758E+03  0.7546771E-02  0.1084505E+00
          1   -1    0    0  501    0 -0.00000000000E+00  0.00000000000E+00  0.51180259871E+03  0.51180259871E+03  0.00000000000E+00 0. -1.
          2   -1    0    0  502    0  0.00000000000E+00 -0.00000000000E+00 -0.27113737191E+04  0.27113737191E+04  0.00000000000E+00 0. -1.
         25    1    1    2    0    0  0.21729962541E+02  0.30134914447E+03  0.20292037578E+03  0.38481836891E+03  0.12500000000E+03 0.  0.
          2    1    1    2  501    0 -0.59051649890E+02 -0.26729393316E+03 -0.26102398030E+04  0.26245542428E+04  0.00000000000E+00 0. -1.
          1    1    1    2  502    0  0.37321687349E+02 -0.34055211306E+02  0.20774830683E+03  0.21380370613E+03  0.00000000000E+00 0. -1.
<mgrwt>
<rscale>  4 0.30147577E+03</rscale>
<asrwt>0</asrwt>
<pdfrwt beam="1">  1        2 0.41713442E+00 0.30147577E+03</pdfrwt>
<pdfrwt beam="2">  1        1 0.78738862E-01 0.30147577E+03</pdfrwt>
<totfact> 0.18109662E+01</totfact>
</mgrwt>
</event>
<event>
 5    0  0.1226227E+000  0.2914268E+03  0.7546771E-02  0.1089607E+00
         -2   -1    0    0    0  501 -0.00000000000E+00  0.00000000000E+00  0.88754425253E+03  0.88754425253E+03  0.00000000000E+00 0.  1.
          2   -1    0    0  502    0  0.00000000000E+00 -0.00000000000E+00 -0.39274629596E+03  0.39274629596E+03  0.00000000000E+00 0. -1.
         25    1    1    2    0    0 -0.12831172451E+03  0.22997610138E+03 -0.19086269790E+03  0.34843431993E+03  0.12500000000E+03 0.  0.
          2    1    1    2  502    0 -0.27154484707E+02 -0.17355047210E+02 -0.99028210899E+02  0.10414005117E+03  0.00000000000E+00 0. -1.
         -2    1    1    2    0  501  0.15546620922E+03 -0.21262105417E+03  0.78468886537E+03  0.82771617740E+03  0.00000000000E+00 0.  1.
<mgrwt>
<rscale>  4 0.29142679E+03</rscale>
<asrwt>0</asrwt>
<pdfrwt beam="1">  1        2 0.60422507E-01 0.29142679E+03</pdfrwt>
<pdfrwt beam="2">  1       -2 0.13654527E+00 0.29142679E+03</pdfrwt>
<totfact> 0.33101242E+01</totfact>
</mgrwt>
</event>
<event>
 5    0  0.1226227E+000  0.2371908E+03  0.7546771E-02  0.1121679E+00
          1   -1    0    0  502    0  0.00000000000E+00  0.00000000000E+00  0.60636605031E+03  0.60636605031E+03  0.00000000000E+00 0.  1.
         -1   -1    0    0    0  501 -0.00000000000E+00 -0.00000000000E+00 -0.41306787807E+03  0.41306787807E+03  0.00000000000E+00 0.  1.
         25    1    1    2    0    0  0.51188431395E+01 -0.20950213444E+03  0.51010531761E+03  0.56546421810E+03  0.12500000000E+03 0.  0.
          1    1    1    2  502    0 -0.36112620367E+02  0.10562175144E+02  0.33203486820E+02  0.50181195985E+02  0.00000000000E+00 0.  1.
         -1    1    1    2    0  501  0.30993777227E+02  0.19893995930E+03 -0.35001063219E+03  0.40378851430E+03  0.00000000000E+00 0.  1.
<mgrwt>
<rscale>  4 0.23719075E+03</rscale>
<asrwt>0</asrwt>
<pdfrwt beam="1">  1        1 0.93287085E-01 0.23719075E+03</pdfrwt>
<pdfrwt beam="2">  1       -1 0.63548904E-01 0.23719075E+03</pdfrwt>
<totfact> 0.91892880E+01</totfact>
</mgrwt>
</event>
<event>
 5    0  0.1226227E+000  0.4583100E+03  0.7546771E-02  0.1025273E+00
          2   -1    0    0  502    0  0.00000000000E+00  0.00000000000E+00  0.22634642416E+04  0.22634642416E+04  0.00000000000E+00 0. -1.
          2   -1    0    0  501    0 -0.00000000000E+00 -0.00000000000E+00 -0.26663987040E+03  0.26663987040E+03  0.00000000000E+00 0. -1.
         25    1    1    2    0    0 -0.37637494743E+03 -0.19695450060E+03  0.27608364738E+03  0.52182023410E+03  0.12500000000E+03 0.  0.
          2    1    1    2  501    0 -0.57019257140E+02  0.48174065113E+02  0.14960997092E+04  0.14979607058E+04  0.00000000000E+00 0. -1.
          2    1    1    2  502    0  0.43339420457E+03  0.14878043549E+03  0.22464101460E+03  0.51032317210E+03  0.00000000000E+00 0. -1.
<mgrwt>
<rscale>  4 0.45830995E+03</rscale>
<asrwt>0</asrwt>
<pdfrwt beam="1">  1        2 0.34822525E+00 0.45830995E+03</pdfrwt>
<pdfrwt beam="2">  1        2 0.41021520E-01 0.45830995E+03</pdfrwt>
<totfact> 0.98625368E+01</totfact>
</mgrwt>
</event>
<event>
 5    0  0.1226227E+000  0.4727267E+03  0.7546771E-02  0.1021153E+00
          1   -1    0    0  501    0 -0.00000000000E+00  0.00000000000E+00  0.64589614129E+03  0.64589614129E+03  0.00000000000E+00 0.  1.
          2   -1    0    0  502    0  0.00000000000E+00 -0.00000000000E+00 -0.10475204669E+04  0.10475204669E+04  0.00000000000E+00 0. -1.
         25    1    1    2    0    0 -0.26039516340E+03 -0.35104683844E+03  0.95306050108E+02  0.46448656287E+03  0.12500000000E+03 0.  0.
          2    1    1    2  501    0  0.27436379036E+03  0.36925308537E+03 -0.80115786605E+03  0.92383832831E+03  0.00000000000E+00 0. -1.
          1    1    1    2  502    0 -0.13968626963E+02 -0.18206246936E+02  0.30422749029E+03  0.30509171705E+03  0.00000000000E+00 0.  1.
<mgrwt>
<rscale>  4 0.47272674E+03</rscale>
<asrwt>0</asrwt>
<pdfrwt beam="1">  1        2 0.16115699E+00 0.47272674E+03</pdfrwt>
<pdfrwt beam="2">  1        1 0.99368638E-01 0.47272674E+03</pdfrwt>
<totfact> 0.10198878E+02</totfact>
</mgrwt>
</event>
<event>
 5    0  0.1226227E+000  0.4654147E+03  0.7546771E-02  0.1023222E+00
          1   -1    0    0  501    0  0.00000000000E+00  0.00000000000E+00  0.18950522011E+04  0.18950522011E+04  0.00000000000E+00 0. -1.
         -2   -1    0    0    0  501 -0.00000000000E+00 -0.00000000000E+00 -0.86175305818E+03  0.86175305818E+03  0.00000000000E+00 0.  1.
         25    1    1    2    0    0  0.17078645098E+03 -0.36167449938E+03 -0.24727777791E+02  0.41977722465E+03  0.12500000000E+03 0.  0.
          1    1    1    2  502    0  0.51800838487E+02 -0.51844160904E+02  0.16103647567E+04  0.16120315734E+04  0.00000000000E+00 0. -1.
         -2    1    1    2    0  502 -0.22258728947E+03  0.41351866028E+03 -0.55233783597E+03  0.72499646129E+03  0.00000000000E+00 0.  1.
<mgrwt>
<rscale>  4 0.46541471E+03</rscale>
<asrwt>0</asrwt>
<pdfrwt beam="1">  1        1 0.29154649E+00 0.46541471E+03</pdfrwt>
<pdfrwt beam="2">  1       -2 0.13257739E+00 0.46541471E+03</pdfrwt>
<totfact> 0.14202854E+00</totfact>
</mgrwt>
</event>
<event>
 5    0  0.1226227E+000  0.2515295E+03  0.7546771E-02  0.1112342E+00
          2   -1    0    0  501    0  0.00000000000E+00  0.00000000000E+00  0.89420710298E+03  0.89420710298E+03  0.00000000000E+00 0.  1.
         -1   -1    0    0    0  501 -0.00000000000E+00 -0.00000000000E+00 -0.34114143033E+03  0.34114143033E+03  0.00000000000E+00 0. -1.
         25    1    1    2    0    0 -0.19143674996E+02 -0.31714753846E+03  0.16849073619E+02  0.34184489572E+03  0.12500000000E+03 0.  0.
          2    1    1    2  502    0 -0.74154613305E+01  0.12945816656E+03  0.65638057287E+03  0.66906641105E+03  0.00000000000E+00 0.  1.
         -1    1    1    2    0  502  0.26559136326E+02  0.18768937190E+03 -0.12016397385E+03  0.22443722654E+03  0.00000000000E+00 0. -1.
<mgrwt>
<rscale>  4 0.25152948E+03</rscale>
<asrwt>0</asrwt>
<pdfrwt beam="1">  1        2 0.13757032E+00 0.25152948E+03</pdfrwt>
<pdfrwt beam="2">  1       -1 0.52483297E-01 0.25152948E+03</pdfrwt>
<totfact> 0.13306075E+02</totfact>
</mgrwt>
</event>
<event>
 5    0  0.1226227E+000  0.2444040E+03  0.7546771E-02  0.1116893E+00
          1   -1    0    0  502    0  0.00000000000E+00  0.00000000000E+00  0.53784276072E+03  0.53784276072E+03  0.00000000000E+00 0. -1.
          1   -1    0    0  501    0 -0.00000000000E+00 -0.00000000000E+00 -0.53916057431E+03  0.53916057431E+03  0.00000000000E+00 0.  1.
         25    1    1    2    0    0  0.19133160988E+03 -0.17169731871E+03  0.42806878057E+02  0.28904183607E+03  0.12500000000E+03 0.  0.
          1    1    1    2  501    0 -0.17166799892E+03  0.10902867276E+03 -0.38789533547E+03  0.43797253865E+03  0.00000000000E+00 0.  1.
          1    1    1    2  502    0 -0.19663610966E+02  0.62668645948E+02  0.34377064382E+03  0.34998896030E+03  0.00000000000E+00 0. -1.
<mgrwt>
<rscale>  4 0.24440395E+03</rscale>
<asrwt>0</asrwt>
<pdfrwt beam="1">  1        1 0.82745040E-01 0.24440395E+03</pdfrwt>
<pdfrwt beam="2">  1        1 0.82947780E-01 0.24440395E+03</pdfrwt>
<totfact> 0.20181017E+02</totfact>
</mgrwt>
</event>
<event>
 5    0  0.1226227E+000  0.3062130E+03  0.7546771E-02  0.1082175E+00
          2   -1    0    0  501    0  0.00000000000E+00  0.00000000000E+00  0.14897898108E+04  0.14897898108E+04  0.00000000000E+00 0. -1.
         -1   -1    0    0    0  501 -0.00000000000E+00 -0.00000000000E+00 -0.44451602746E+03  0.44451602746E+03  0.00000000000E+00 0. -1.
         25    1    1    2    0    0 -0.42433440007E+03  0.29975304708E+02  0.84110604046E+01  0.44345681629E+03  0.12500000000E+03 0.  0.
          2    1    1    2  502    0  0.26781239663E+03 -0.31808581416E+02  0.12202743255E+04  0.12497218471E+04  0.00000000000E+00 0. -1.
         -1    1    1    2    0  502  0.15652200344E+03  0.18332767078E+01 -0.18341160261E+03  0.24112717482E+03  0.00000000000E+00 0. -1.
<mgrwt>
<rscale>  4 0.30621296E+03</rscale>
<asrwt>0</asrwt>
<pdfrwt beam="1">  1        2 0.22919843E+00 0.30621296E+03</pdfrwt>
<pdfrwt beam="2">  1       -1 0.68387082E-01 0.30621296E+03</pdfrwt>
<totfact> 0.35522168E+01</totfact>
</mgrwt>
</event>
<event>
 5    0  0.1226227E+000  0.7086384E+03  0.7546771E-02  0.9702572E-01
          1   -1    0    0  501    0 -0.00000000000E+00  0.00000000000E+00  0.18500283941E+04  0.18500283941E+04  0.00000000000E+00 0. -1.
          2   -1    0    0  502    0  0.00000000000E+00 -0.00000000000E+00 -0.12724420183E+04  0.12724420183E+04  0.00000000000E+00 0.  1.
         25    1    1    2    0    0  0.66473016463E+03  0.73060437690E+02  0.72724128347E+02  0.68419136078E+03  0.12500000000E+03 0.  0.
          2    1    1    2  501    0 -0.69608093009E+03 -0.12857689232E+03 -0.83627042925E+03  0.10956317398E+04  0.00000000000E+00 0.  1.
          1    1    1    2  502    0  0.31350765462E+02  0.55516454626E+02  0.13411326767E+04  0.13426473118E+04  0.00000000000E+00 0. -1.
<mgrwt>
<rscale>  4 0.70863842E+03</rscale>
<asrwt>0</asrwt>
<pdfrwt beam="1">  1        2 0.19576031E+00 0.70863842E+03</pdfrwt>
<pdfrwt beam="2">  1        1 0.28461975E+00 0.70863842E+03</pdfrwt>
<totfact> 0.90986447E+00</totfact>
</mgrwt>
</event>
<event>
 5    0  0.1226227E+000  0.2574969E+03  0.7546771E-02  0.1108657E+00
          1   -1    0    0  502    0  0.00000000000E+00  0.00000000000E+00  0.23576626497E+04  0.23576626497E+04  0.00000000000E+00 0.  1.
          1   -1    0    0  501    0 -0.00000000000E+00 -0.00000000000E+00 -0.15902821760E+04  0.15902821760E+04  0.00000000000E+00 0.  1.
         25    1    1    2    0    0 -0.18892937144E+03 -0.73703986727E+02 -0.93881730553E+03  0.96857086380E+03  0.12500000000E+03 0.  0.
          1    1    1    2  501    0  0.20845019369E+03  0.85353987806E+02  0.23371665543E+04  0.23479958026E+04  0.00000000000E+00 0.  1.
          1    1    1    2  502    0 -0.19520822249E+02 -0.11650001079E+02 -0.63096877507E+03  0.63137815938E+03  0.00000000000E+00 0.  1.
<mgrwt>
<rscale>  4 0.25749686E+03</rscale>
<asrwt>0</asrwt>
<pdfrwt beam="1">  1        1 0.36271733E+00 0.25749686E+03</pdfrwt>
<pdfrwt beam="2">  1        1 0.24465879E+00 0.25749686E+03</pdfrwt>
<totfact> 0.15096690E+00</totfact>
</mgrwt>
</event>
<event>
 5    0  0.1226227E+000  0.3905442E+03  0.7546771E-02  0.1047104E+00
         -2   -1    0    0    0  501 -0.00000000000E+00  0.00000000000E+00  0.57585712540E+03  0.57585712540E+03  0.00000000000E+00 0. -1.
          2   -1    0    0  502    0  0.00000000000E+00 -0.00000000000E+00 -0.10610173010E+04  0.10610173010E+04  0.00000000000E+00 0. -1.
         25    1    1    2    0    0  0.39355847811E+01 -0.31143355202E+03  0.13287665567E+03  0.36095366985E+03  0.12500000000E+03 0.  0.
          2    1    1    2  502    0 -0.41762078207E+02  0.37694691519E+03 -0.90388852107E+03  0.98022829309E+03  0.00000000000E+00 0. -1.
         -2    1    1    2    0  501  0.37826493426E+02 -0.65513363169E+02  0.28585168983E+03  0.29569246344E+03  0.00000000000E+00 0. -1.
<mgrwt>
<rscale>  4 0.39054424E+03</rscale>
<asrwt>0</asrwt>
<pdfrwt beam="1">  1        2 0.16323343E+00 0.39054424E+03</pdfrwt>
<pdfrwt beam="2">  1       -2 0.88593405E-01 0.39054424E+03</pdfrwt>
<totfact> 0.26996004E+01</totfact>
</mgrwt>
</event>
<event>
 5    0  0.1226227E+000  0.2472007E+03  0.7546771E-02  0.1115087E+00
         -2   -1    0    0    0  501 -0.00000000000E+00  0.00000000000E+00  0.24123073945E+03  0.24123073945E+03  0.00000000000E+00 0.  1.
          2   -1    0    0  502    0  0.00000000000E+00 -0.00000000000E+00 -0.65333376339E+03  0.65333376339E+03  0.00000000000E+00 0.  1.
         25    1    1    2    0    0  0.10085548775E+03 -0.18506198149E+03  0.11506685710E+03  0.27071229748E+03  0.12500000000E+03 0.  0.
          2    1    1    2  502    0 -0.14023278604E+02 -0.19684332716E+02 -0.31680105967E+03  0.31772163399E+03  0.00000000000E+00 0.  1.
         -2    1    1    2    0  501 -0.86832209146E+02  0.20474631421E+03 -0.21036882136E+03  0.30613057137E+03  0.00000000000E+00 0.  1.
<mgrwt>
<rscale>  4 0.24720068E+03</rscale>
<asrwt>0</asrwt>
<pdfrwt beam="1">  1        2 0.10051289E+00 0.24720068E+03</pdfrwt>
<pdfrwt beam="2">  1       -2 0.37112422E-01 0.24720068E+03</pdfrwt>
<totfact> 0.31667896E+02</totfact>
</mgrwt>
</event>
<event>
 5    0  0.1226227E+000  0.2910358E+03  0.7546771E-02  0.1089810E+00
          2   -1    0    0  502    0  0.00000000000E+00  0.00000000000E+00  0.19079985485E+04  0.19079985485E+04  0.00000000000E+00 0.  1.
          2   -1    0    0  501    0 -0.00000000000E+00 -0.00000000000E+00 -0.27931497492E+03  0.27931497492E+03  0.00000000000E+00 0.  1.
         25    1    1    2    0    0 -0.23861191185E+03  0.17450771781E+03  0.39230038009E+03  0.50686603384E+03  0.12500000000E+03 0.  0.
          2    1    1    2  501    0  0.33039063276E+02 -0.19635733090E+02  0.13834686849E+04  0.13840024364E+04  0.00000000000E+00 0.  1.
          2    1    1    2  502    0  0.20557284857E+03 -0.15487198472E+03 -0.14708549150E+03  0.29644505314E+03  0.00000000000E+00 0.  1.
<mgrwt>
<rscale>  4 0.29103583E+03</rscale>
<asrwt>0</asrwt>
<pdfrwt beam="1">  1        2 0.29353823E+00 0.29103583E+03</pdfrwt>
<pdfrwt beam="2">  1        2 0.42971536E-01 0.29103583E+03</pdfrwt>
<totfact> 0.15169882E+02</totfact>
</mgrwt>
</event>
<event>
 5    0  0.1226227E+000  0.3264100E+03  0.7546771E-02  0.1072736E+00
         -2   -1    0    0    0  501 -0.00000000000E+00  0.00000000000E+00  0.17885809886E+04  0.17885809886E+04  0.00000000000E+00 0.  1.
          2   -1    0    0  502    0  0.00000000000E+00 -0.00000000000E+00 -0.25209571256E+03  0.25209571256E+03  0.00000000000E+00 0.  1.
         25    1    1    2    0    0 -0.41458507656E+02  0.24094209424E+03  0.36313203107E+03  0.45526011534E+03  0.12500000000E+03 0.  0.
          2    1    1    2  502    0 -0.17127069165E+03 -0.29202030034E+03 -0.50391263348E+02  0.34227004697E+03  0.00000000000E+00 0.  1.
         -2    1    1    2    0  501  0.21272919931E+03  0.51078206101E+02  0.12237445083E+04  0.12431465388E+04  0.00000000000E+00 0.  1.
<mgrwt>
<rscale>  4 0.32641001E+03</rscale>
<asrwt>0</asrwt>
<pdfrwt beam="1">  1        2 0.38783957E-01 0.32641001E+03</pdfrwt>
<pdfrwt beam="2">  1       -2 0.27516630E+00 0.32641001E+03</pdfrwt>
<totfact> 0.66868850E+00</totfact>
</mgrwt>
</event>
<event>
 5    0  0.1226227E+000  0.2654408E+03  0.7546771E-02  0.1103918E+00
          2   -1    0    0  502    0  0.00000000000E+00  0.00000000000E+00  0.17587391235E+04  0.17587391235E+04  0.00000000000E+00 0.  1.
          1   -1    0    0  501    0 -0.00000000000E+00 -0.00000000000E+00 -0.11742345334E+03  0.11742345334E+03  0.00000000000E+00 0. -1.
         25    1    1    2    0    0  0.18431930783E+03  0.19349340215E+03  0.76695312878E+03  0.82173925649E+03  0.12500000000E+03 0.  0.
          2    1    1    2  501    0 -0.15874165426E+03 -0.15103530520E+03  0.94391657104E+03  0.96901448353E+03  0.00000000000E+00 0.  1.
          1    1    1    2  502    0 -0.25577653569E+02 -0.42458096948E+02 -0.69554029676E+02  0.85408836795E+02  0.00000000000E+00 0. -1.
<mgrwt>
<rscale>  4 0.26544084E+03</rscale>
<asrwt>0</asrwt>
<pdfrwt beam="1">  1        2 0.27057523E+00 0.26544084E+03</pdfrwt>
<pdfrwt beam="2">  1        1 0.18065148E-01 0.26544084E+03</pdfrwt>
<totfact> 0.39502092E+02</totfact>
</mgrwt>
</event>
<event>
 5    0  0.1226227E+000  0.3001814E+03  0.7546771E-02  0.1085150E+00
          2   -1    0    0  502    0  0.00000000000E+00  0.00000000000E+00  0.13363320393E+03  0.13363320393E+03  0.00000000000E+00 0. -1.
          2   -1    0    0  501    0 -0.00000000000E+00 -0.00000000000E+00 -0.28858611280E+04  0.28858611280E+04  0.00000000000E+00 0.  1.
         25    1    1    2    0    0 -0.51045902925E+02 -0.29679444658E+03 -0.57024149307E+03  0.65688125879E+03  0.12500000000E+03 0.  0.
          2    1    1    2  501    0  0.99219363093E+02  0.24623990798E+03 -0.10664546734E+03  0.28609758825E+03  0.00000000000E+00 0. -1.
          2    1    1    2  502    0 -0.48173460168E+02  0.50554538593E+02 -0.20753409636E+04  0.20765154849E+04  0.00000000000E+00 0.  1.
<mgrwt>
<rscale>  4 0.30018144E+03</rscale>
<asrwt>0</asrwt>
<pdfrwt beam="1">  1        2 0.20558955E-01 0.30018144E+03</pdfrwt>
<pdfrwt beam="2">  1        2 0.44397861E+00 0.30018144E+03</pdfrwt>
<totfact> 0.10013309E+02</totfact>
</mgrwt>
</event>
<event>
 5    0  0.1226227E+000  0.2783122E+03  0.7546771E-02  0.1096614E+00
          3   -1    0    0  501    0 -0.00000000000E+00  0.00000000000E+00  0.26617637427E+03  0.26617637427E+03  0.00000000000E+00 0.  1.
          2   -1    0    0  502    0  0.00000000000E+00 -0.00000000000E+00 -0.22354636905E+04  0.22354636905E+04  0.00000000000E+00 0. -1.
         25    1    1    2    0    0  0.16890956088E+03  0.23247770680E+03 -0.25730311804E+03  0.40547036695E+03  0.12500000000E+03 0.  0.
          2    1    1    2  501    0 -0.11608218212E+03 -0.21551326576E+03 -0.18920141261E+04  0.19077836602E+04  0.00000000000E+00 0. -1.
          3    1    1    2  502    0 -0.52827378756E+02 -0.16964441043E+02  0.18002992795E+03  0.18838603760E+03  0.00000000000E+00 0.  1.
<mgrwt>
<rscale>  4 0.27831218E+03</rscale>
<asrwt>0</asrwt>
<pdfrwt beam="1">  1        2 0.34391749E+00 0.27831218E+03</pdfrwt>
<pdfrwt beam="2">  1        3 0.40950211E-01 0.27831218E+03</pdfrwt>
<totfact> 0.20712510E+01</totfact>
</mgrwt>
</event>
<event>
 5    0  0.1226227E+000  0.2732262E+03  0.7546771E-02  0.1099447E+00
          2   -1    0    0  502    0  0.00000000000E+00  0.00000000000E+00  0.14842667861E+04  0.14842667861E+04  0.00000000000E+00 0.  1.
          2   -1    0    0  501    0 -0.00000000000E+00 -0.00000000000E+00 -0.50343474382E+02  0.50343474382E+02  0.00000000000E+00 0.  1.
         25    1    1    2    0    0  0.64722290696E+02 -0.24121485913E+03  0.87495754100E+03  0.91844938986E+03  0.12500000000E+03 0.  0.
          2    1    1    2  501    0 -0.18140153741E+02  0.10404437647E+02  0.25067248279E+02  0.32644822510E+02  0.00000000000E+00 0.  1.
          2    1    1    2  502    0 -0.46582136955E+02  0.23081042148E+03  0.53389852248E+03  0.58351604816E+03  0.00000000000E+00 0.  1.
<mgrwt>
<rscale>  4 0.27322624E+03</rscale>
<asrwt>0</asrwt>
<pdfrwt beam="1">  1        2 0.22834870E+00 0.27322624E+03</pdfrwt>
<pdfrwt beam="2">  1        2 0.77451510E-02 0.27322624E+03</pdfrwt>
<totfact> 0.19005215E+03</totfact>
</mgrwt>
</event>
<event>
 5    0  0.1226227E+000  0.3040862E+03  0.7546771E-02  0.1083216E+00
          1   -1    0    0  501    0  0.00000000000E+00  0.00000000000E+00  0.28262240181E+03  0.28262240181E+03  0.00000000000E+00 0.  1.
         -2   -1    0    0    0  501 -0.00000000000E+00 -0.00000000000E+00 -0.57866916796E+03  0.57866916796E+03  0.00000000000E+00 0.  1.
         25    1    1    2    0    0  0.14073610128E+03  0.20042965921E+03 -0.11291850555E+03  0.29724449093E+03  0.12500000000E+03 0.  0.
          1    1    1    2  502    0 -0.17070167822E+03 -0.24120565936E+03  0.71840218418E+02  0.30410565604E+03  0.00000000000E+00 0.  1.
         -2    1    1    2    0  502  0.29965576943E+02  0.40776000144E+02 -0.25496847902E+03  0.25994142279E+03  0.00000000000E+00 0.  1.
<mgrwt>
<rscale>  4 0.30408616E+03</rscale>
<asrwt>0</asrwt>
<pdfrwt beam="1">  1        1 0.43480369E-01 0.30408616E+03</pdfrwt>
<pdfrwt beam="2">  1       -2 0.89026026E-01 0.30408616E+03</pdfrwt>
<totfact> 0.93600077E+01</totfact>
</mgrwt>
</event>
<event>
 5    0  0.1226227E+000  0.2508199E+03  0.7546771E-02  0.1112788E+00
          2   -1    0    0  502    0  0.00000000000E+00  0.00000000000E+00  0.10922971189E+04  0.10922971189E+04  0.00000000000E+00 0. -1.
          1   -1    0    0  501    0 -0.00000000000E+00 -0.00000000000E+00 -0.34518598793E+03  0.34518598793E+03  0.00000000000E+00 0. -1.
         25    1    1    2    0    0 -0.23854510480E+03  0.19392034320E+02  0.33286681252E+03  0.42860836774E+03  0.12500000000E+03 0.  0.
          2    1    1    2  501    0  0.23689639603E+02 -0.68955276228E+01  0.67235584269E+03  0.67280838767E+03  0.00000000000E+00 0. -1.
          1    1    1    2  502    0  0.21485546520E+03 -0.12496506697E+02 -0.25811152424E+03  0.33606635141E+03  0.00000000000E+00 0. -1.
<mgrwt>
<rscale>  4 0.25081993E+03</rscale>
<asrwt>0</asrwt>
<pdfrwt beam="1">  1        2 0.16804571E+00 0.25081993E+03</pdfrwt>
<pdfrwt beam="2">  1        1 0.53105537E-01 0.25081993E+03</pdfrwt>
<totfact> 0.23250604E+02</totfact>
</mgrwt>
</event>
<event>
 5    0  0.1226227E+000  0.2942941E+03  0.7546771E-02  0.1088128E+00
         -1   -1    0    0    0  501 -0.00000000000E+00  0.00000000000E+00  0.10572830596E+04  0.10572830596E+04  0.00000000000E+00 0.  1.
          1   -1    0    0  502    0  0.00000000000E+00 -0.00000000000E+00 -0.11842199348E+04  0.11842199348E+04  0.00000000000E+00 0. -1.
         25    1    1    2    0    0  0.18160413913E+03  0.84036566183E+02  0.14341809475E+03  0.27610859766E+03  0.12500000000E+03 0.  0.
          1    1    1    2  502    0 -0.97817886698E+02  0.23106210791E+03 -0.10714772395E+04  0.11004642254E+04  0.00000000000E+00 0. -1.
         -1    1    1    2    0  501 -0.83786252429E+02 -0.31509867409E+03  0.80112226950E+03  0.86493017128E+03  0.00000000000E+00 0.  1.
<mgrwt>
<rscale>  4 0.29429414E+03</rscale>
<asrwt>0</asrwt>
<pdfrwt beam="1">  1        1 0.18218768E+00 0.29429414E+03</pdfrwt>
<pdfrwt beam="2">  1       -1 0.16265893E+00 0.29429414E+03</pdfrwt>
<totfact> 0.36079756E+00</totfact>
</mgrwt>
</event>
<event>
 5    0  0.1226227E+000  0.3031737E+03  0.7546771E-02  0.1083665E+00
          2   -1    0    0  501    0  0.00000000000E+00  0.00000000000E+00  0.62990071251E+03  0.62990071251E+03  0.00000000000E+00 0. -1.
         -3   -1    0    0    0  501 -0.00000000000E+00 -0.00000000000E+00 -0.14600143337E+04  0.14600143337E+04  0.00000000000E+00 0. -1.
         25    1    1    2    0    0  0.22370612541E+02 -0.25249745798E+03 -0.32228839224E+02  0.28446284234E+03  0.12500000000E+03 0.  0.
          2    1    1    2  502    0 -0.26167871976E+03  0.80289025904E+02  0.44808599427E+03  0.52507441217E+03  0.00000000000E+00 0. -1.
         -3    1    1    2    0  502  0.23930810722E+03  0.17220843208E+03 -0.12459707762E+04  0.12803777917E+04  0.00000000000E+00 0. -1.
<mgrwt>
<rscale>  4 0.30317370E+03</rscale>
<asrwt>0</asrwt>
<pdfrwt beam="1">  1        2 0.96907802E-01 0.30317370E+03</pdfrwt>
<pdfrwt beam="2">  1       -3 0.22461759E+00 0.30317370E+03</pdfrwt>
<totfact> 0.32859266E+00</totfact>
</mgrwt>
</event>
<event>
 5    0  0.1226227E+000  0.2429627E+03  0.7546771E-02  0.1117835E+00
         -4   -1    0    0    0  501 -0.00000000000E+00  0.00000000000E+00  0.91003153618E+03  0.91003153618E+03  0.00000000000E+00 0. -1.
          2   -1    0    0  501    0  0.00000000000E+00 -0.00000000000E+00 -0.36292088096E+03  0.36292088096E+03  0.00000000000E+00 0. -1.
         25    1    1    2    0    0 -0.28468432987E+03 -0.68767503052E+02  0.14313022828E+01  0.31843552844E+03  0.12500000000E+03 0.  0.
          2    1    1    2  502    0  0.83317541931E+02  0.62484576894E+02 -0.17640561463E+03  0.20485379180E+03  0.00000000000E+00 0. -1.
         -4    1    1    2    0  502  0.20136678794E+03  0.62829261589E+01  0.72208496757E+03  0.74966309689E+03  0.00000000000E+00 0. -1.
<mgrwt>
<rscale>  4 0.24296271E+03</rscale>
<asrwt>0</asrwt>
<pdfrwt beam="1">  1        2 0.55833982E-01 0.24296271E+03</pdfrwt>
<pdfrwt beam="2">  1       -4 0.14000485E+00 0.24296271E+03</pdfrwt>
<totfact> 0.17590549E+01</totfact>
</mgrwt>
</event>
<event>
 5    0  0.1226227E+000  0.2640052E+03  0.7546771E-02  0.1104760E+00
          2   -1    0    0  502    0  0.00000000000E+00  0.00000000000E+00  0.10123417449E+04  0.10123417449E+04  0.00000000000E+00 0.  1.
          1   -1    0    0  501    0 -0.00000000000E+00 -0.00000000000E+00 -0.21342848640E+03  0.21342848640E+03  0.00000000000E+00 0.  1.
         25    1    1    2    0    0  0.18558790828E+03  0.10434505102E+03  0.30305664698E+03  0.39089524511E+03  0.12500000000E+03 0.  0.
          2    1    1    2  501    0 -0.20508828024E+03 -0.12947223469E+03  0.64149001794E+03  0.68580879651E+03  0.00000000000E+00 0.  1.
          1    1    1    2  502    0  0.19500371953E+02  0.25127183666E+02 -0.14563340638E+03  0.14906618972E+03  0.00000000000E+00 0.  1.
<mgrwt>
<rscale>  4 0.26400521E+03</rscale>
<asrwt>0</asrwt>
<pdfrwt beam="1">  1        2 0.15574488E+00 0.26400521E+03</pdfrwt>
<pdfrwt beam="2">  1        1 0.32835152E-01 0.26400521E+03</pdfrwt>
<totfact> 0.47509418E+02</totfact>
</mgrwt>
</event>
<event>
 5    0  0.1226227E+000  0.2747529E+03  0.7546771E-02  0.1098590E+00
          2   -1    0    0  502    0  0.00000000000E+00  0.00000000000E+00  0.25672187326E+03  0.25672187326E+03  0.00000000000E+00 0.  1.
          2   -1    0    0  501    0 -0.00000000000E+00 -0.00000000000E+00 -0.83723541593E+03  0.83723541593E+03  0.00000000000E+00 0.  1.
         25    1    1    2    0    0 -0.12153283526E+03  0.21686660141E+03 -0.71883011729E+03  0.77080677889E+03  0.12500000000E+03 0.  0.
          2    1    1    2  501    0  0.49520791372E+02 -0.14047233053E+02 -0.20775945409E+02  0.55509219434E+02  0.00000000000E+00 0.  1.
          2    1    1    2  502    0  0.72012043884E+02 -0.20281936836E+03  0.15909252003E+03  0.26764129086E+03  0.00000000000E+00 0.  1.
<mgrwt>
<rscale>  4 0.27475288E+03</rscale>
<asrwt>0</asrwt>
<pdfrwt beam="1">  1        2 0.39495672E-01 0.27475288E+03</pdfrwt>
<pdfrwt beam="2">  1        2 0.12880545E+00 0.27475288E+03</pdfrwt>
<totfact> 0.67116193E+02</totfact>
</mgrwt>
</event>
<event>
 5    0  0.1226227E+000  0.2642274E+03  0.7546771E-02  0.1104630E+00
          1   -1    0    0  501    0  0.00000000000E+00  0.00000000000E+00  0.42665054377E+03  0.42665054377E+03  0.00000000000E+00 0.  1.
         -3   -1    0    0    0  501 -0.00000000000E+00 -0.00000000000E+00 -0.24080847774E+03  0.24080847774E+03  0.00000000000E+00 0.  1.
         25    1    1    2    0    0 -0.18922420546E+03 -0.21868787566E+03  0.62306619404E+01  0.31510951754E+03  0.12500000000E+03 0.  0.
          1    1    1    2  502    0  0.10819925990E+03  0.62733209301E+02  0.53473837459E+02  0.13602200809E+03  0.00000000000E+00 0.  1.
         -3    1    1    2    0  502  0.81024945566E+02  0.15595466636E+03  0.12613756663E+03  0.21632749589E+03  0.00000000000E+00 0.  1.
<mgrwt>
<rscale>  4 0.26422740E+03</rscale>
<asrwt>0</asrwt>
<pdfrwt beam="1">  1        1 0.65638545E-01 0.26422740E+03</pdfrwt>
<pdfrwt beam="2">  1       -3 0.37047458E-01 0.26422740E+03</pdfrwt>
<totfact> 0.21984648E+02</totfact>
</mgrwt>
</event>
<event>
 5    0  0.1226227E+000  0.2561900E+03  0.7546771E-02  0.1109454E+00
          1   -1    0    0  501    0 -0.00000000000E+00  0.00000000000E+00  0.33305511476E+03  0.33305511476E+03  0.00000000000E+00 0. -1.
          2   -1    0    0  502    0  0.00000000000E+00 -0.00000000000E+00 -0.78867311031E+03  0.78867311031E+03  0.00000000000E+00 0. -1.
         25    1    1    2    0    0  0.19173623690E+03 -0.13613039110E+03  0.57707182015E+02  0.27248740664E+03  0.12500000000E+03 0.  0.
          2    1    1    2  501    0 -0.95670119962E+01  0.19598869585E+02 -0.61139931720E+03  0.61178817288E+03  0.00000000000E+00 0. -1.
          1    1    1    2  502    0 -0.18216922491E+03  0.11653152151E+03  0.98074139636E+02  0.23745264554E+03  0.00000000000E+00 0. -1.
<mgrwt>
<rscale>  4 0.25618995E+03</rscale>
<asrwt>0</asrwt>
<pdfrwt beam="1">  1        2 0.12133432E+00 0.25618995E+03</pdfrwt>
<pdfrwt beam="2">  1        1 0.51239248E-01 0.25618995E+03</pdfrwt>
<totfact> 0.37914472E+02</totfact>
</mgrwt>
</event>
<event>
 5    0  0.1226227E+000  0.2580647E+03  0.7546771E-02  0.1108312E+00
          2   -1    0    0  502    0  0.00000000000E+00  0.00000000000E+00  0.27105075589E+04  0.27105075589E+04  0.00000000000E+00 0. -1.
          1   -1    0    0  501    0 -0.00000000000E+00 -0.00000000000E+00 -0.46929630464E+02  0.46929630464E+02  0.00000000000E+00 0. -1.
         25    1    1    2    0    0  0.10241299148E+03 -0.19527635696E+03  0.41419410648E+03  0.48559554596E+03  0.12500000000E+03 0.  0.
          2    1    1    2  501    0  0.45630550332E+02  0.31644238889E+00  0.84878127710E+03  0.85000700209E+03  0.00000000000E+00 0. -1.
          1    1    1    2  502    0 -0.14804354181E+03  0.19495991457E+03  0.14006025449E+04  0.14218346413E+04  0.00000000000E+00 0. -1.
<mgrwt>
<rscale>  4 0.25806473E+03</rscale>
<asrwt>0</asrwt>
<pdfrwt beam="1">  1        2 0.41700104E+00 0.25806473E+03</pdfrwt>
<pdfrwt beam="2">  1        1 0.72199453E-02 0.25806473E+03</pdfrwt>
<totfact> 0.41665845E+02</totfact>
</mgrwt>
</event>
<event>
 5    0  0.1226227E+000  0.2767820E+03  0.7546771E-02  0.1097460E+00
          2   -1    0    0  502    0  0.00000000000E+00  0.00000000000E+00  0.28282253466E+03  0.28282253466E+03  0.00000000000E+00 0. -1.
          4   -1    0    0  501    0 -0.00000000000E+00 -0.00000000000E+00 -0.92246393817E+03  0.92246393817E+03  0.00000000000E+00 0.  1.
         25    1    1    2    0    0  0.85722309515E+02 -0.20032938602E+03 -0.16137877336E+03  0.29857710184E+03  0.12500000000E+03 0.  0.
          2    1    1    2  501    0  0.41628005429E+02 -0.23479948772E+02  0.18717779542E+03  0.19318314090E+03  0.00000000000E+00 0. -1.
          4    1    1    2  502    0 -0.12735031494E+03  0.22380933479E+03 -0.66544042557E+03  0.71352623010E+03  0.00000000000E+00 0.  1.
<mgrwt>
<rscale>  4 0.27678203E+03</rscale>
<asrwt>0</asrwt>
<pdfrwt beam="1">  1        2 0.43511159E-01 0.27678203E+03</pdfrwt>
<pdfrwt beam="2">  1        4 0.14191753E+00 0.27678203E+03</pdfrwt>
<totfact> 0.22249694E+01</totfact>
</mgrwt>
</event>
<event>
 5    0  0.1226227E+000  0.2063935E+03  0.7546771E-02  0.1144454E+00
          2   -1    0    0  502    0  0.00000000000E+00  0.00000000000E+00  0.13214082203E+04  0.13214082203E+04  0.00000000000E+00 0.  1.
          1   -1    0    0  501    0 -0.00000000000E+00 -0.00000000000E+00 -0.18977349988E+03  0.18977349988E+03  0.00000000000E+00 0.  1.
         25    1    1    2    0    0  0.20249888500E+03  0.44374192088E+02  0.61096200615E+03  0.65717154557E+03  0.12500000000E+03 0.  0.
          2    1    1    2  501    0 -0.42191829747E+02 -0.70061393467E+02  0.64459828605E+03  0.64976588071E+03  0.00000000000E+00 0.  1.
          1    1    1    2  502    0 -0.16030705525E+03  0.25687201379E+02 -0.12392557174E+03  0.20424429395E+03  0.00000000000E+00 0.  1.
<mgrwt>
<rscale>  4 0.20639346E+03</rscale>
<asrwt>0</asrwt>
<pdfrwt beam="1">  1        2 0.20329357E+00 0.20639346E+03</pdfrwt>
<pdfrwt beam="2">  1        1 0.29195924E-01 0.20639346E+03</pdfrwt>
<totfact> 0.37040747E+02</totfact>
</mgrwt>
</event>
<event>
 5    0  0.1226227E+000  0.2528087E+03  0.7546771E-02  0.1111543E+00
          1   -1    0    0  501    0 -0.00000000000E+00  0.00000000000E+00  0.10704736911E+03  0.10704736911E+03  0.00000000000E+00 0. -1.
          2   -1    0    0  502    0  0.00000000000E+00 -0.00000000000E+00 -0.21085113175E+04  0.21085113175E+04  0.00000000000E+00 0.  1.
         25    1    1    2    0    0 -0.23646620910E+03  0.41412438138E+02 -0.29689224624E+03  0.40174776161E+03  0.12500000000E+03 0.  0.
          2    1    1    2  501    0  0.21313320786E+03 -0.41557950146E+02 -0.17496384179E+04  0.17630619447E+04  0.00000000000E+00 0.  1.
          1    1    1    2  502    0  0.23333001241E+02  0.14551200823E+00  0.45066715813E+02  0.50748980234E+02  0.00000000000E+00 0. -1.
<mgrwt>
<rscale>  4 0.25280872E+03</rscale>
<asrwt>0</asrwt>
<pdfrwt beam="1">  1        2 0.32438638E+00 0.25280872E+03</pdfrwt>
<pdfrwt beam="2">  1        1 0.16468825E-01 0.25280872E+03</pdfrwt>
<totfact> 0.29290637E+02</totfact>
</mgrwt>
</event>
<event>
 5    0  0.1226227E+000  0.3052873E+03  0.7546771E-02  0.1082627E+00
          1   -1    0    0  501    0 -0.00000000000E+00  0.00000000000E+00  0.21122250762E+03  0.21122250762E+03  0.00000000000E+00 0. -1.
          2   -1    0    0  502    0  0.00000000000E+00 -0.00000000000E+00 -0.10801299231E+04  0.10801299231E+04  0.00000000000E+00 0. -1.
         25    1    1    2    0    0 -0.99997869444E+02  0.24597802763E+03 -0.11361192975E+03  0.31470213623E+03  0.12500000000E+03 0.  0.
          2    1    1    2  501    0  0.15522590775E+03 -0.23602866366E+03 -0.83368351868E+03  0.88024588714E+03  0.00000000000E+00 0. -1.
          1    1    1    2  502    0 -0.55228038311E+02 -0.99493639634E+01  0.78388032912E+02  0.96404407382E+02  0.00000000000E+00 0. -1.
<mgrwt>
<rscale>  4 0.30528731E+03</rscale>
<asrwt>0</asrwt>
<pdfrwt beam="1">  1        2 0.16617383E+00 0.30528731E+03</pdfrwt>
<pdfrwt beam="2">  1        1 0.32495772E-01 0.30528731E+03</pdfrwt>
<totfact> 0.43538486E+02</totfact>
</mgrwt>
</event>
<event>
 5    0  0.1226227E+000  0.4455358E+03  0.7546771E-02  0.1029062E+00
          2   -1    0    0  502    0  0.00000000000E+00  0.00000000000E+00  0.51420662612E+03  0.51420662612E+03  0.00000000000E+00 0. -1.
          1   -1    0    0  501    0 -0.00000000000E+00 -0.00000000000E+00 -0.99535068405E+03  0.99535068405E+03  0.00000000000E+00 0.  1.
         25    1    1    2    0    0 -0.30577676749E+02  0.45657483437E+03 -0.39794509849E+03  0.61917757962E+03  0.12500000000E+03 0.  0.
          2    1    1    2  501    0  0.23916938950E+02 -0.42047946757E+03  0.29257908352E+03  0.51281334102E+03  0.00000000000E+00 0. -1.
          1    1    1    2  502    0  0.66607377990E+01 -0.36095366800E+02 -0.37577804296E+03  0.37756638953E+03  0.00000000000E+00 0.  1.
<mgrwt>
<rscale>  4 0.44553581E+03</rscale>
<asrwt>0</asrwt>
<pdfrwt beam="1">  1        2 0.79108711E-01 0.44553581E+03</pdfrwt>
<pdfrwt beam="2">  1        1 0.15313088E+00 0.44553581E+03</pdfrwt>
<totfact> 0.12848547E+02</totfact>
</mgrwt>
</event>
<event>
 5    0  0.1226227E+000  0.3023404E+03  0.7546771E-02  0.1084076E+00
          3   -1    0    0  501    0 -0.00000000000E+00  0.00000000000E+00  0.49012639133E+03  0.49012639133E+03  0.00000000000E+00 0. -1.
          1   -1    0    0  502    0  0.00000000000E+00 -0.00000000000E+00 -0.70797610145E+03  0.70797610145E+03  0.00000000000E+00 0. -1.
         25    1    1    2    0    0  0.26003772224E+03 -0.79626341875E+01  0.40672358557E+03  0.49873048391E+03  0.12500000000E+03 0.  0.
          1    1    1    2  501    0 -0.27331742380E+03  0.41608885673E+02 -0.57492795918E+03  0.63794660573E+03  0.00000000000E+00 0. -1.
          3    1    1    2  502    0  0.13279701562E+02 -0.33646251485E+02 -0.49645336507E+02  0.61425403128E+02  0.00000000000E+00 0. -1.
<mgrwt>
<rscale>  4 0.30234038E+03</rscale>
<asrwt>0</asrwt>
<pdfrwt beam="1">  1        1 0.10891940E+00 0.30234038E+03</pdfrwt>
<pdfrwt beam="2">  1        3 0.75404060E-01 0.30234038E+03</pdfrwt>
<totfact> 0.25608260E+01</totfact>
</mgrwt>
</event>
<event>
 5    0  0.1226227E+000  0.3239009E+03  0.7546771E-02  0.1073868E+00
          2   -1    0    0  502    0  0.00000000000E+00  0.00000000000E+00  0.25458167021E+04  0.25458167021E+04  0.00000000000E+00 0.  1.
          1   -1    0    0  501    0 -0.00000000000E+00 -0.00000000000E+00 -0.69794172224E+02  0.69794172224E+02  0.00000000000E+00 0. -1.
         25    1    1    2    0    0  0.23583100773E+03  0.86207134850E+02  0.13119700910E+04  0.13416178494E+04  0.12500000000E+03 0.  0.
          2    1    1    2  501    0  0.66263815062E+02  0.53401721846E+01  0.75197236474E+03  0.75490519137E+03  0.00000000000E+00 0.  1.
          1    1    1    2  502    0 -0.30209482279E+03 -0.91547307035E+02  0.41208007414E+03  0.51908783350E+03  0.00000000000E+00 0. -1.
<mgrwt>
<rscale>  4 0.32390087E+03</rscale>
<asrwt>0</asrwt>
<pdfrwt beam="1">  1        2 0.39166404E+00 0.32390087E+03</pdfrwt>
<pdfrwt beam="2">  1        1 0.10737567E-01 0.32390087E+03</pdfrwt>
<totfact> 0.29489317E+02</totfact>
</mgrwt>
</event>
<event>
 5    0  0.1226227E+000  0.2185268E+03  0.7546771E-02  0.1134986E+00
          1   -1    0    0  501    0 -0.00000000000E+00  0.00000000000E+00  0.26030930740E+03  0.26030930740E+03  0.00000000000E+00 0. -1.
          2   -1    0    0  502    0  0.00000000000E+00 -0.00000000000E+00 -0.73485263048E+03  0.73485263048E+03  0.00000000000E+00 0.  1.
         25    1    1    2    0    0  0.13356984530E+03 -0.18462314412E+03  0.47611810481E+01  0.25995052945E+03  0.12500000000E+03 0.  0.
          2    1    1    2  501    0 -0.22097848784E+02  0.69384289460E+02 -0.55369528312E+03  0.55846303467E+03  0.00000000000E+00 0.  1.
          1    1    1    2  502    0 -0.11147199651E+03  0.11523885466E+03  0.74390778988E+02  0.17674837377E+03  0.00000000000E+00 0. -1.
<mgrwt>
<rscale>  4 0.21852676E+03</rscale>
<asrwt>0</asrwt>
<pdfrwt beam="1">  1        2 0.11305425E+00 0.21852676E+03</pdfrwt>
<pdfrwt beam="2">  1        1 0.40047587E-01 0.21852676E+03</pdfrwt>
<totfact> 0.56815315E+02</totfact>
</mgrwt>
</event>
<event>
 5    0  0.1226227E+000  0.2946461E+03  0.7546771E-02  0.1087948E+00
          2   -1    0    0  501    0  0.00000000000E+00  0.00000000000E+00  0.64637975221E+03  0.64637975221E+03  0.00000000000E+00 0.  1.
         -3   -1    0    0    0  501 -0.00000000000E+00 -0.00000000000E+00 -0.63287489493E+03  0.63287489493E+03  0.00000000000E+00 0.  1.
         25    1    1    2    0    0 -0.64484466068E+02  0.30538688216E+03  0.25773458043E+03  0.42364077720E+03  0.12500000000E+03 0.  0.
          2    1    1    2  502    0 -0.37481008899E+01 -0.51737696696E+02  0.27173285164E+03  0.27663980224E+03  0.00000000000E+00 0.  1.
         -3    1    1    2    0  502  0.68232566958E+02 -0.25364918546E+03 -0.51596257479E+03  0.57897406770E+03  0.00000000000E+00 0.  1.
<mgrwt>
<rscale>  4 0.29464607E+03</rscale>
<asrwt>0</asrwt>
<pdfrwt beam="1">  1        2 0.99443039E-01 0.29464607E+03</pdfrwt>
<pdfrwt beam="2">  1       -3 0.97365369E-01 0.29464607E+03</pdfrwt>
<totfact> 0.27377186E+01</totfact>
</mgrwt>
</event>
<event>
 5    0  0.1226227E+000  0.1963330E+03  0.7546771E-02  0.1152870E+00
          2   -1    0    0  502    0  0.00000000000E+00  0.00000000000E+00  0.15372933189E+04  0.15372933189E+04  0.00000000000E+00 0.  1.
          2   -1    0    0  501    0 -0.00000000000E+00 -0.00000000000E+00 -0.13443055506E+04  0.13443055506E+04  0.00000000000E+00 0.  1.
         25    1    1    2    0    0 -0.13323129719E+03 -0.15922378950E+03  0.23208612937E+03  0.33554696413E+03  0.12500000000E+03 0.  0.
          2    1    1    2  501    0  0.93415576285E+02  0.11803949164E+03 -0.12875334568E+04  0.12963032801E+04  0.00000000000E+00 0.  1.
          2    1    1    2  502    0  0.39815720909E+02  0.41184297861E+02  0.12484350958E+04  0.12497486253E+04  0.00000000000E+00 0.  1.
<mgrwt>
<rscale>  4 0.19633303E+03</rscale>
<asrwt>0</asrwt>
<pdfrwt beam="1">  1        2 0.23650667E+00 0.19633303E+03</pdfrwt>
<pdfrwt beam="2">  1        2 0.20681624E+00 0.19633303E+03</pdfrwt>
<totfact> 0.35564057E+01</totfact>
</mgrwt>
</event>
<event>
 5    0  0.1226227E+000  0.2557020E+03  0.7546771E-02  0.1109753E+00
          4   -1    0    0  502    0  0.00000000000E+00  0.00000000000E+00  0.57772354314E+03  0.57772354314E+03  0.00000000000E+00 0. -1.
          1   -1    0    0  501    0 -0.00000000000E+00 -0.00000000000E+00 -0.53214271469E+03  0.53214271469E+03  0.00000000000E+00 0.  1.
         25    1    1    2    0    0  0.19874405098E+03  0.37449549905E+02 -0.17864571756E+03  0.29739024697E+03  0.12500000000E+03 0.  0.
          4    1    1    2  501    0  0.29680423824E+02  0.41269296508E+02  0.46712161518E+03  0.46987943748E+03  0.00000000000E+00 0. -1.
          1    1    1    2  502    0 -0.22842447481E+03 -0.78718846413E+02 -0.24289506917E+03  0.34259657339E+03  0.00000000000E+00 0.  1.
<mgrwt>
<rscale>  4 0.25570200E+03</rscale>
<asrwt>0</asrwt>
<pdfrwt beam="1">  1        4 0.88880545E-01 0.25570200E+03</pdfrwt>
<pdfrwt beam="2">  1        1 0.81868110E-01 0.25570200E+03</pdfrwt>
<totfact> 0.21661097E+01</totfact>
</mgrwt>
</event>
<event>
 5    0  0.1226227E+000  0.3337763E+03  0.7546771E-02  0.1069478E+00
          1   -1    0    0  501    0 -0.00000000000E+00  0.00000000000E+00  0.14373431605E+04  0.14373431605E+04  0.00000000000E+00 0.  1.
          2   -1    0    0  502    0  0.00000000000E+00 -0.00000000000E+00 -0.14759760205E+04  0.14759760205E+04  0.00000000000E+00 0. -1.
         25    1    1    2    0    0 -0.19796983933E+03 -0.18959690028E+03  0.12672117000E+03  0.32683680455E+03  0.12500000000E+03 0.  0.
          2    1    1    2  501    0  0.21257369519E+03  0.22876646272E+03 -0.13578278518E+04  0.13932760478E+04  0.00000000000E+00 0. -1.
          1    1    1    2  502    0 -0.14603855861E+02 -0.39169562441E+02  0.11924738218E+04  0.11932063287E+04  0.00000000000E+00 0.  1.
<mgrwt>
<rscale>  4 0.33377635E+03</rscale>
<asrwt>0</asrwt>
<pdfrwt beam="1">  1        2 0.22707323E+00 0.33377635E+03</pdfrwt>
<pdfrwt beam="2">  1        1 0.22112972E+00 0.33377635E+03</pdfrwt>
<totfact> 0.14823704E+01</totfact>
</mgrwt>
</event>
<event>
 5    0  0.1226227E+000  0.3182847E+03  0.7546771E-02  0.1076441E+00
          1   -1    0    0  501    0 -0.00000000000E+00  0.00000000000E+00  0.20875790401E+04  0.20875790401E+04  0.00000000000E+00 0.  1.
          2   -1    0    0  502    0  0.00000000000E+00 -0.00000000000E+00 -0.13098424192E+04  0.13098424192E+04  0.00000000000E+00 0.  1.
         25    1    1    2    0    0  0.32029752578E+03  0.49892360432E+02 -0.11779364304E+03  0.36685159805E+03  0.12500000000E+03 0.  0.
          2    1    1    2  501    0 -0.28862862384E+02 -0.46866699956E+02 -0.10559813250E+04  0.10574148245E+04  0.00000000000E+00 0.  1.
          1    1    1    2  502    0 -0.29143466340E+03 -0.30256604762E+01  0.19515115889E+04  0.19731550368E+04  0.00000000000E+00 0.  1.
<mgrwt>
<rscale>  4 0.31828472E+03</rscale>
<asrwt>0</asrwt>
<pdfrwt beam="1">  1        2 0.20151422E+00 0.31828472E+03</pdfrwt>
<pdfrwt beam="2">  1        1 0.32116601E+00 0.31828472E+03</pdfrwt>
<totfact> 0.68824022E+00</totfact>
</mgrwt>
</event>
<event>
 5    0  0.1226227E+000  0.2579802E+03  0.7546771E-02  0.1108363E+00
          2   -1    0    0  501    0  0.00000000000E+00  0.00000000000E+00  0.12600252239E+04  0.12600252239E+04  0.00000000000E+00 0. -1.
         -4   -1    0    0    0  501 -0.00000000000E+00 -0.00000000000E+00 -0.43765925707E+03  0.43765925707E+03  0.00000000000E+00 0.  1.
         25    1    1    2    0    0 -0.22037509937E+03  0.27959610942E+03  0.36880844390E+03  0.52762092179E+03  0.12500000000E+03 0.  0.
          2    1    1    2  502    0  0.96718190626E+02 -0.10241016386E+03  0.77227106259E+03  0.78501263950E+03  0.00000000000E+00 0. -1.
         -4    1    1    2    0  502  0.12365690875E+03 -0.17718594556E+03 -0.31871353966E+03  0.38505091968E+03  0.00000000000E+00 0.  1.
<mgrwt>
<rscale>  4 0.25798024E+03</rscale>
<asrwt>0</asrwt>
<pdfrwt beam="1">  1        2 0.19385003E+00 0.25798024E+03</pdfrwt>
<pdfrwt beam="2">  1       -4 0.67332194E-01 0.25798024E+03</pdfrwt>
<totfact> 0.20477985E+01</totfact>
</mgrwt>
</event>
<event>
 5    0  0.1226227E+000  0.2940788E+03  0.7546771E-02  0.1088239E+00
          1   -1    0    0  502    0  0.00000000000E+00  0.00000000000E+00  0.21410844133E+04  0.21410844133E+04  0.00000000000E+00 0. -1.
          1   -1    0    0  501    0 -0.00000000000E+00 -0.00000000000E+00 -0.73313400370E+02  0.73313400370E+02  0.00000000000E+00 0. -1.
         25    1    1    2    0    0  0.20112008255E+03 -0.20741271997E+03  0.52659251701E+03  0.61350957855E+03  0.12500000000E+03 0.  0.
          1    1    1    2  501    0 -0.49901373919E+02 -0.53925658529E+01  0.14775705173E+02  0.52321585878E+02  0.00000000000E+00 0. -1.
          1    1    1    2  502    0 -0.15121870863E+03  0.21280528583E+03  0.15264027908E+04  0.15485666493E+04  0.00000000000E+00 0. -1.
<mgrwt>
<rscale>  4 0.29407884E+03</rscale>
<asrwt>0</asrwt>
<pdfrwt beam="1">  1        1 0.32939755E+00 0.29407884E+03</pdfrwt>
<pdfrwt beam="2">  1        1 0.11278986E-01 0.29407884E+03</pdfrwt>
<totfact> 0.17643804E+02</totfact>
</mgrwt>
</event>
<event>
 5    0  0.1226227E+000  0.3059664E+03  0.7546771E-02  0.1082296E+00
          2   -1    0    0  502    0  0.00000000000E+00  0.00000000000E+00  0.95938976126E+03  0.95938976126E+03  0.00000000000E+00 0.  1.
          2   -1    0    0  501    0 -0.00000000000E+00 -0.00000000000E+00 -0.14739071709E+04  0.14739071709E+04  0.00000000000E+00 0. -1.
         25    1    1    2    0    0 -0.28868423913E+03  0.19840999106E+03  0.13934109780E+03  0.39717257711E+03  0.12500000000E+03 0.  0.
          2    1    1    2  501    0  0.22114761675E+03 -0.16436113829E+03 -0.13287450047E+04  0.13570129475E+04  0.00000000000E+00 0. -1.
          2    1    1    2  502    0  0.67536622373E+02 -0.34048852766E+02  0.67488649724E+03  0.67911140757E+03  0.00000000000E+00 0.  1.
<mgrwt>
<rscale>  4 0.30596645E+03</rscale>
<asrwt>0</asrwt>
<pdfrwt beam="1">  1        2 0.14759843E+00 0.30596645E+03</pdfrwt>
<pdfrwt beam="2">  1        2 0.22675495E+00 0.30596645E+03</pdfrwt>
<totfact> 0.60634177E+01</totfact>
</mgrwt>
</event>
<event>
 5    0  0.1226227E+000  0.2941075E+03  0.7546771E-02  0.1088224E+00
          1   -1    0    0  501    0 -0.00000000000E+00  0.00000000000E+00  0.11153183812E+04  0.11153183812E+04  0.00000000000E+00 0. -1.
          2   -1    0    0  502    0  0.00000000000E+00 -0.00000000000E+00 -0.28636095229E+03  0.28636095229E+03  0.00000000000E+00 0. -1.
         25    1    1    2    0    0 -0.15471712482E+03  0.28098618162E+03  0.27275316115E+03  0.43921510663E+03  0.12500000000E+03 0.  0.
          2    1    1    2  501    0  0.11884451614E+03 -0.22444441145E+03 -0.12144785007E+03  0.28151179928E+03  0.00000000000E+00 0. -1.
          1    1    1    2  502    0  0.35872608680E+02 -0.56541770171E+02  0.67765211786E+03  0.68095242761E+03  0.00000000000E+00 0. -1.
<mgrwt>
<rscale>  4 0.29410746E+03</rscale>
<asrwt>0</asrwt>
<pdfrwt beam="1">  1        2 0.44055532E-01 0.29410746E+03</pdfrwt>
<pdfrwt beam="2">  1        1 0.17158744E+00 0.29410746E+03</pdfrwt>
<totfact> 0.20578908E+02</totfact>
</mgrwt>
</event>
<event>
 5    0  0.1226227E+000  0.3260307E+03  0.7546771E-02  0.1072907E+00
         -1   -1    0    0    0  501 -0.00000000000E+00  0.00000000000E+00  0.77791057749E+03  0.77791057749E+03  0.00000000000E+00 0. -1.
          1   -1    0    0  502    0  0.00000000000E+00 -0.00000000000E+00 -0.38304047362E+03  0.38304047362E+03  0.00000000000E+00 0.  1.
         25    1    1    2    0    0 -0.29638315298E+03  0.13970730744E+03 -0.19674924208E+03  0.40211487088E+03  0.12500000000E+03 0.  0.
          1    1    1    2  502    0  0.34255714372E+02  0.25127704507E+01 -0.44538874102E+02  0.56244815661E+02  0.00000000000E+00 0.  1.
         -1    1    1    2    0  501  0.26212743860E+03 -0.14222007789E+03  0.63615822006E+03  0.70259136457E+03  0.00000000000E+00 0. -1.
<mgrwt>
<rscale>  4 0.32603068E+03</rscale>
<asrwt>0</asrwt>
<pdfrwt beam="1">  1        1 0.58929303E-01 0.32603068E+03</pdfrwt>
<pdfrwt beam="2">  1       -1 0.11967855E+00 0.32603068E+03</pdfrwt>
<totfact> 0.42696194E+01</totfact>
</mgrwt>
</event>
<event>
 5    0  0.1226227E+000  0.2336887E+03  0.7546771E-02  0.1124070E+00
          2   -1    0    0  502    0  0.00000000000E+00  0.00000000000E+00  0.76768318644E+02  0.76768318644E+02  0.00000000000E+00 0. -1.
          1   -1    0    0  501    0 -0.00000000000E+00 -0.00000000000E+00 -0.18138904080E+04  0.18138904080E+04  0.00000000000E+00 0.  1.
         25    1    1    2    0    0 -0.71157119231E+02 -0.23385888285E+03 -0.94763986497E+03  0.98661016941E+03  0.12500000000E+03 0.  0.
          2    1    1    2  501    0  0.65584274945E+02  0.17801657994E+03 -0.10414887871E+03  0.21642132240E+03  0.00000000000E+00 0. -1.
          1    1    1    2  502    0  0.55728442867E+01  0.55842302911E+02 -0.68533334564E+03  0.68762723480E+03  0.00000000000E+00 0.  1.
<mgrwt>
<rscale>  4 0.23368865E+03</rscale>
<asrwt>0</asrwt>
<pdfrwt beam="1">  1        2 0.11810511E-01 0.23368865E+03</pdfrwt>
<pdfrwt beam="2">  1        1 0.27906004E+00 0.23368865E+03</pdfrwt>
<totfact> 0.31788816E+02</totfact>
</mgrwt>
</event>
<event>
 5    0  0.1226227E+000  0.2731278E+03  0.7546771E-02  0.1099503E+00
          2   -1    0    0  502    0  0.00000000000E+00  0.00000000000E+00  0.18770712277E+04  0.18770712277E+04  0.00000000000E+00 0.  1.
          2   -1    0    0  501    0 -0.00000000000E+00 -0.00000000000E+00 -0.22564442532E+03  0.22564442532E+03  0.00000000000E+00 0. -1.
         25    1    1    2    0    0 -0.23140178480E+03 -0.26691401042E+03  0.60115833779E+03  0.70838282169E+03  0.12500000000E+03 0.  0.
          2    1    1    2  501    0  0.17871922065E+03  0.13277280015E+03  0.11797617052E+04  0.12005860475E+04  0.00000000000E+00 0.  1.
          2    1    1    2  502    0  0.52682564153E+02  0.13414121027E+03 -0.12949324067E+03  0.19374678381E+03  0.00000000000E+00 0. -1.
<mgrwt>
<rscale>  4 0.27312782E+03</rscale>
<asrwt>0</asrwt>
<pdfrwt beam="1">  1        2 0.28878018E+00 0.27312782E+03</pdfrwt>
<pdfrwt beam="2">  1        2 0.34714528E-01 0.27312782E+03</pdfrwt>
<totfact> 0.19976170E+02</totfact>
</mgrwt>
</event>
<event>
 5    0  0.1226227E+000  0.3222306E+03  0.7546771E-02  0.1074627E+00
          2   -1    0    0  502    0  0.00000000000E+00  0.00000000000E+00  0.20940957207E+03  0.20940957207E+03  0.00000000000E+00 0. -1.
          2   -1    0    0  501    0 -0.00000000000E+00 -0.00000000000E+00 -0.19126432758E+04  0.19126432758E+04  0.00000000000E+00 0.  1.
         25    1    1    2    0    0  0.21168662537E+03  0.39357657067E+02 -0.31717733955E+03  0.40322043258E+03  0.12500000000E+03 0.  0.
          2    1    1    2  501    0 -0.29380774607E+03 -0.17878514748E+03 -0.21376510438E+02  0.34459262298E+03  0.00000000000E+00 0. -1.
          2    1    1    2  502    0  0.82121120708E+02  0.13942749042E+03 -0.13646798537E+04  0.13742397923E+04  0.00000000000E+00 0.  1.
<mgrwt>
<rscale>  4 0.32223063E+03</rscale>
<asrwt>0</asrwt>
<pdfrwt beam="1">  1        2 0.32216856E-01 0.32223063E+03</pdfrwt>
<pdfrwt beam="2">  1        2 0.29425282E+00 0.32223063E+03</pdfrwt>
<totfact> 0.20489988E+02</totfact>
</mgrwt>
</event>
<event>
 5    0  0.1226227E+000  0.2960146E+03  0.7546771E-02  0.1087250E+00
          1   -1    0    0  501    0 -0.00000000000E+00  0.00000000000E+00  0.15587050037E+04  0.15587050037E+04  0.00000000000E+00 0.  1.
          2   -1    0    0  502    0  0.00000000000E+00 -0.00000000000E+00 -0.12703427875E+04  0.12703427875E+04  0.00000000000E+00 0. -1.
         25    1    1    2    0    0  0.79109392057E+02  0.29889072514E+03  0.21370235689E+03  0.39609046798E+03  0.12500000000E+03 0.  0.
          2    1    1    2  501    0 -0.25285824503E+02 -0.42238246976E+02 -0.11649114685E+04  0.11659511876E+04  0.00000000000E+00 0. -1.
          1    1    1    2  502    0 -0.53823567554E+02 -0.25665247816E+03  0.12395713278E+04  0.12670061356E+04  0.00000000000E+00 0.  1.
<mgrwt>
<rscale>  4 0.29601462E+03</rscale>
<asrwt>0</asrwt>
<pdfrwt beam="1">  1        2 0.19543735E+00 0.29601462E+03</pdfrwt>
<pdfrwt beam="2">  1        1 0.23980077E+00 0.29601462E+03</pdfrwt>
<totfact> 0.16260365E+01</totfact>
</mgrwt>
</event>
<event>
 5    0  0.1226227E+000  0.7711615E+03  0.7546771E-02  0.9602724E-01
         -3   -1    0    0    0  501 -0.00000000000E+00  0.00000000000E+00  0.31742238299E+03  0.31742238299E+03  0.00000000000E+00 0. -1.
          2   -1    0    0  501    0  0.00000000000E+00 -0.00000000000E+00 -0.36973587890E+04  0.36973587890E+04  0.00000000000E+00 0. -1.
         25    1    1    2    0    0  0.71029550196E+03  0.28701884584E+03 -0.29556888829E+04  0.30559157859E+04  0.12500000000E+03 0.  0.
          2    1    1    2  502    0 -0.68505233307E+03 -0.28141514161E+03 -0.49012456842E+03  0.88809530656E+03  0.00000000000E+00 0. -1.
         -3    1    1    2    0  502 -0.25243168894E+02 -0.56037042348E+01  0.65877045243E+02  0.70770079602E+02  0.00000000000E+00 0. -1.
<mgrwt>
<rscale>  4 0.77116154E+03</rscale>
<asrwt>0</asrwt>
<pdfrwt beam="1">  1        2 0.56882445E+00 0.77116154E+03</pdfrwt>
<pdfrwt beam="2">  1       -3 0.48834211E-01 0.77116154E+03</pdfrwt>
<totfact> 0.16805617E+00</totfact>
</mgrwt>
</event>
<event>
 5    0  0.1226227E+000  0.3250608E+03  0.7546771E-02  0.1073343E+00
          2   -1    0    0  502    0  0.00000000000E+00  0.00000000000E+00  0.74370438303E+03  0.74370438303E+03  0.00000000000E+00 0.  1.
         -2   -1    0    0    0  501 -0.00000000000E+00 -0.00000000000E+00 -0.24981530028E+03  0.24981530028E+03  0.00000000000E+00 0.  1.
         25    1    1    2    0    0 -0.26642816306E+03 -0.21063426521E+03  0.23755427357E+02  0.36268454624E+03  0.12500000000E+03 0.  0.
          2    1    1    2  502    0  0.24419750016E+03  0.15830949153E+03  0.49059062162E+03  0.57041517530E+03  0.00000000000E+00 0.  1.
         -2    1    1    2    0  501  0.22230662906E+02  0.52324773674E+02 -0.20456966219E+02  0.60419961769E+02  0.00000000000E+00 0.  1.
<mgrwt>
<rscale>  4 0.32506077E+03</rscale>
<asrwt>0</asrwt>
<pdfrwt beam="1">  1        2 0.11441606E+00 0.32506077E+03</pdfrwt>
<pdfrwt beam="2">  1       -2 0.38433123E-01 0.32506077E+03</pdfrwt>
<totfact> 0.25119540E+02</totfact>
</mgrwt>
</event>
<event>
 5    0  0.1226227E+000  0.2826312E+03  0.7546771E-02  0.1094260E+00
          2   -1    0    0  502    0  0.00000000000E+00  0.00000000000E+00  0.28601271626E+04  0.28601271626E+04  0.00000000000E+00 0.  1.
          2   -1    0    0  501    0 -0.00000000000E+00 -0.00000000000E+00 -0.92514628533E+03  0.92514628533E+03  0.00000000000E+00 0. -1.
         25    1    1    2    0    0 -0.23257630969E+03 -0.37455531814E+02  0.12697970808E+04  0.12974992421E+04  0.12500000000E+03 0.  0.
          2    1    1    2  501    0 -0.19676626848E+02  0.10050081564E+02  0.15587368018E+04  0.15588933867E+04  0.00000000000E+00 0.  1.
          2    1    1    2  502    0  0.25225293654E+03  0.27405450250E+02 -0.89355300540E+03  0.92888081913E+03  0.00000000000E+00 0. -1.
<mgrwt>
<rscale>  4 0.28263125E+03</rscale>
<asrwt>0</asrwt>
<pdfrwt beam="1">  1        2 0.44001956E+00 0.28263125E+03</pdfrwt>
<pdfrwt beam="2">  1        2 0.14233020E+00 0.28263125E+03</pdfrwt>
<totfact> 0.11459214E+01</totfact>
</mgrwt>
</event>
<event>
 5    0  0.1226227E+000  0.2729930E+03  0.7546771E-02  0.1099579E+00
         -3   -1    0    0    0  501 -0.00000000000E+00  0.00000000000E+00  0.45539044429E+02  0.45539044429E+02  0.00000000000E+00 0. -1.
          2   -1    0    0  501    0  0.00000000000E+00 -0.00000000000E+00 -0.32143623602E+04  0.32143623602E+04  0.00000000000E+00 0.  1.
         25    1    1    2    0    0 -0.33299201078E+01 -0.22817911212E+03 -0.10580563561E+04  0.10895802165E+04  0.12500000000E+03 0.  0.
          2    1    1    2  502    0  0.20029804526E+02  0.24876084837E+03 -0.21254294643E+04  0.21400312055E+04  0.00000000000E+00 0.  1.
         -3    1    1    2    0  502 -0.16699884418E+02 -0.20581736255E+02  0.14662504601E+02  0.30289982635E+02  0.00000000000E+00 0. -1.
<mgrwt>
<rscale>  4 0.27299303E+03</rscale>
<asrwt>0</asrwt>
<pdfrwt beam="1">  1        2 0.49451719E+00 0.27299303E+03</pdfrwt>
<pdfrwt beam="2">  1       -3 0.70060082E-02 0.27299303E+03</pdfrwt>
<totfact> 0.13084090E+02</totfact>
</mgrwt>
</event>
<event>
 5    0  0.1226227E+000  0.2991916E+03  0.7546771E-02  0.1085645E+00
          2   -1    0    0  502    0  0.00000000000E+00  0.00000000000E+00  0.29601050938E+04  0.29601050938E+04  0.00000000000E+00 0.  1.
          1   -1    0    0  501    0 -0.00000000000E+00 -0.00000000000E+00 -0.11977526369E+04  0.11977526369E+04  0.00000000000E+00 0. -1.
         25    1    1    2    0    0  0.26996933450E+03 -0.21282310359E+03  0.22442361540E+03  0.42914807950E+03  0.12500000000E+03 0.  0.
          2    1    1    2  501    0 -0.21442192437E+03  0.15922446114E+03  0.26251756031E+04  0.26387262339E+04  0.00000000000E+00 0.  1.
          1    1    1    2  502    0 -0.55547410131E+02  0.53598642451E+02 -0.10872467616E+04  0.10899834172E+04  0.00000000000E+00 0. -1.
<mgrwt>
<rscale>  4 0.29919158E+03</rscale>
<asrwt>0</asrwt>
<pdfrwt beam="1">  1        2 0.45540078E+00 0.29919158E+03</pdfrwt>
<pdfrwt beam="2">  1        1 0.18426964E+00 0.29919158E+03</pdfrwt>
<totfact> 0.34228801E+00</totfact>
</mgrwt>
</event>
<event>
 5    0  0.1226227E+000  0.2390840E+03  0.7546771E-02  0.1120405E+00
          2   -1    0    0  502    0  0.00000000000E+00  0.00000000000E+00  0.12401939521E+04  0.12401939521E+04  0.00000000000E+00 0. -1.
          4   -1    0    0  501    0 -0.00000000000E+00 -0.00000000000E+00 -0.48188037275E+03  0.48188037275E+03  0.00000000000E+00 0.  1.
         25    1    1    2    0    0 -0.21304911925E+03  0.38607676667E+02  0.11808126534E+03  0.27649351735E+03  0.12500000000E+03 0.  0.
          2    1    1    2  501    0  0.19400394194E+03 -0.57582118351E+02  0.10326252037E+04  0.10522680463E+04  0.00000000000E+00 0. -1.
          4    1    1    2  502    0  0.19045177307E+02  0.18974441684E+02 -0.39239288974E+03  0.39331276121E+03  0.00000000000E+00 0.  1.
<mgrwt>
<rscale>  4 0.23908405E+03</rscale>
<asrwt>0</asrwt>
<pdfrwt beam="1">  1        2 0.19079907E+00 0.23908405E+03</pdfrwt>
<pdfrwt beam="2">  1        4 0.74135442E-01 0.23908405E+03</pdfrwt>
<totfact> 0.17052790E+01</totfact>
</mgrwt>
</event>
<event>
 5    0  0.1226227E+000  0.2719495E+03  0.7546771E-02  0.1100169E+00
          2   -1    0    0  502    0  0.00000000000E+00  0.00000000000E+00  0.13521769455E+04  0.13521769455E+04  0.00000000000E+00 0. -1.
          3   -1    0    0  501    0 -0.00000000000E+00 -0.00000000000E+00 -0.18085499213E+03  0.18085499213E+03  0.00000000000E+00 0. -1.
         25    1    1    2    0    0  0.13805830869E+03  0.14901719230E+03  0.24911646363E+03  0.34489162450E+03  0.12500000000E+03 0.  0.
          2    1    1    2  501    0  0.59663975117E+02  0.17289794886E+02  0.92764129598E+03  0.92971882897E+03  0.00000000000E+00 0. -1.
          3    1    1    2  502    0 -0.19772228380E+03 -0.16630698718E+03 -0.54358062097E+01  0.25842148418E+03  0.00000000000E+00 0. -1.
<mgrwt>
<rscale>  4 0.27194948E+03</rscale>
<asrwt>0</asrwt>
<pdfrwt beam="1">  1        2 0.20802722E+00 0.27194948E+03</pdfrwt>
<pdfrwt beam="2">  1        3 0.27823846E-01 0.27194948E+03</pdfrwt>
<totfact> 0.12762007E+02</totfact>
</mgrwt>
</event>
<event>
 5    0  0.1226227E+000  0.4284461E+03  0.7546771E-02  0.1034352E+00
          2   -1    0    0  502    0  0.00000000000E+00  0.00000000000E+00  0.21738205977E+04  0.21738205977E+04  0.00000000000E+00 0.  1.
          2   -1    0    0  501    0 -0.00000000000E+00 -0.00000000000E+00 -0.23871786894E+04  0.23871786894E+04  0.00000000000E+00 0.  1.
         25    1    1    2    0    0 -0.20859087520E+03  0.42027352582E+03  0.24883335554E+03  0.54560336193E+03  0.12500000000E+03 0.  0.
          2    1    1    2  501    0  0.72032186585E+02 -0.36672301480E+02  0.17571512551E+04  0.17590093879E+04  0.00000000000E+00 0.  1.
          2    1    1    2  502    0  0.13655868861E+03 -0.38360122434E+03 -0.22193427024E+04  0.22563865372E+04  0.00000000000E+00 0.  1.
<mgrwt>
<rscale>  4 0.42844613E+03</rscale>
<asrwt>0</asrwt>
<pdfrwt beam="1">  1        2 0.33443394E+00 0.42844613E+03</pdfrwt>
<pdfrwt beam="2">  1        2 0.36725826E+00 0.42844613E+03</pdfrwt>
<totfact> 0.39551166E+00</totfact>
</mgrwt>
</event>
<event>
 5    0  0.1226227E+000  0.2418669E+03  0.7546771E-02  0.1118555E+00
          2   -1    0    0  502    0  0.00000000000E+00  0.00000000000E+00  0.73501843576E+03  0.73501843576E+03  0.00000000000E+00 0.  1.
          2   -1    0    0  501    0 -0.00000000000E+00 -0.00000000000E+00 -0.60549201312E+03  0.60549201312E+03  0.00000000000E+00 0.  1.
         25    1    1    2    0    0  0.32696312777E+03  0.55687507573E+02 -0.54879664043E+02  0.35866804004E+03  0.12500000000E+03 0.  0.
          2    1    1    2  501    0 -0.17826505332E+03 -0.62215576793E+02 -0.36591097642E+03  0.41175241335E+03  0.00000000000E+00 0.  1.
          2    1    1    2  502    0 -0.14869807444E+03  0.65280692205E+01  0.55031706310E+03  0.57008999550E+03  0.00000000000E+00 0.  1.
<mgrwt>
<rscale>  4 0.24186693E+03</rscale>
<asrwt>0</asrwt>
<pdfrwt beam="1">  1        2 0.11307976E+00 0.24186693E+03</pdfrwt>
<pdfrwt beam="2">  1        2 0.93152617E-01 0.24186693E+03</pdfrwt>
<totfact> 0.30894648E+02</totfact>
</mgrwt>
</event>
<event>
 5    0  0.1226227E+000  0.2778994E+03  0.7546771E-02  0.1096842E+00
          1   -1    0    0  501    0 -0.00000000000E+00  0.00000000000E+00  0.47434226557E+03  0.47434226557E+03  0.00000000000E+00 0. -1.
          2   -1    0    0  502    0  0.00000000000E+00 -0.00000000000E+00 -0.11681448289E+04  0.11681448289E+04  0.00000000000E+00 0. -1.
         25    1    1    2    0    0  0.87252513707E+02 -0.19534397080E+03 -0.37614776983E+03  0.45042692285E+03  0.12500000000E+03 0.  0.
          2    1    1    2  501    0  0.12421094720E+01 -0.39780031234E+02 -0.71817095934E+03  0.71927291105E+03  0.00000000000E+00 0. -1.
          1    1    1    2  502    0 -0.88494623179E+02  0.23512400203E+03  0.40051616584E+03  0.47278726058E+03  0.00000000000E+00 0. -1.
<mgrwt>
<rscale>  4 0.27789940E+03</rscale>
<asrwt>0</asrwt>
<pdfrwt beam="1">  1        2 0.17971459E+00 0.27789940E+03</pdfrwt>
<pdfrwt beam="2">  1        1 0.72975734E-01 0.27789940E+03</pdfrwt>
<totfact> 0.13827313E+02</totfact>
</mgrwt>
</event>
<event>
 5    0  0.1226227E+000  0.2604315E+03  0.7546771E-02  0.1106884E+00
          1   -1    0    0  501    0 -0.00000000000E+00  0.00000000000E+00  0.63313524164E+03  0.63313524164E+03  0.00000000000E+00 0. -1.
          2   -1    0    0  502    0  0.00000000000E+00 -0.00000000000E+00 -0.47394552083E+03  0.47394552083E+03  0.00000000000E+00 0.  1.
         25    1    1    2    0    0 -0.19980122019E+03 -0.51534150930E+02 -0.17243294707E+03  0.29653737966E+03  0.12500000000E+03 0.  0.
          2    1    1    2  501    0 -0.28196773154E+02  0.15894727595E+02 -0.21488631444E+03  0.21731044272E+03  0.00000000000E+00 0.  1.
          1    1    1    2  502    0  0.22799799335E+03  0.35639423335E+02  0.54650898231E+03  0.59323294009E+03  0.00000000000E+00 0. -1.
<mgrwt>
<rscale>  4 0.26043148E+03</rscale>
<asrwt>0</asrwt>
<pdfrwt beam="1">  1        2 0.72914695E-01 0.26043148E+03</pdfrwt>
<pdfrwt beam="2">  1        1 0.97405422E-01 0.26043148E+03</pdfrwt>
<totfact> 0.29528683E+02</totfact>
</mgrwt>
</event>
<event>
 5    0  0.1226227E+000  0.2043335E+03  0.7546771E-02  0.1146134E+00
          1   -1    0    0  502    0  0.00000000000E+00  0.00000000000E+00  0.14650758340E+04  0.14650758340E+04  0.00000000000E+00 0.  1.
          3   -1    0    0  501    0 -0.00000000000E+00 -0.00000000000E+00 -0.71192022479E+03  0.71192022479E+03  0.00000000000E+00 0.  1.
         25    1    1    2    0    0 -0.17794063896E+03 -0.14758281306E+03  0.75388417288E+03  0.79837954872E+03  0.12500000000E+03 0.  0.
          1    1    1    2  501    0  0.38753667567E+02  0.66992493851E+02  0.67733342266E+03  0.68174071789E+03  0.00000000000E+00 0.  1.
          3    1    1    2  502    0  0.13918697139E+03  0.80590319210E+02 -0.67806198627E+03  0.69687579222E+03  0.00000000000E+00 0.  1.
<mgrwt>
<rscale>  4 0.20433346E+03</rscale>
<asrwt>0</asrwt>
<pdfrwt beam="1">  1        1 0.22539628E+00 0.20433346E+03</pdfrwt>
<pdfrwt beam="2">  1        3 0.10952619E+00 0.20433346E+03</pdfrwt>
<totfact> 0.30971303E+00</totfact>
</mgrwt>
</event>
<event>
 5    0  0.1226227E+000  0.5254720E+03  0.7546771E-02  0.1007336E+00
          1   -1    0    0  502    0  0.00000000000E+00  0.00000000000E+00  0.19123440298E+04  0.19123440298E+04  0.00000000000E+00 0.  1.
          1   -1    0    0  501    0 -0.00000000000E+00 -0.00000000000E+00 -0.29000227191E+04  0.29000227191E+04  0.00000000000E+00 0.  1.
         25    1    1    2    0    0  0.39883383778E+03  0.35139114967E+03 -0.11618661316E+04  0.12837842802E+04  0.12500000000E+03 0.  0.
          1    1    1    2  501    0 -0.27690017922E+01 -0.49433392787E+02  0.18140664886E+04  0.18147420072E+04  0.00000000000E+00 0.  1.
          1    1    1    2  502    0 -0.39606483599E+03 -0.30195775688E+03 -0.16398790462E+04  0.17138404615E+04  0.00000000000E+00 0.  1.
<mgrwt>
<rscale>  4 0.52547201E+03</rscale>
<asrwt>0</asrwt>
<pdfrwt beam="1">  1        1 0.29420678E+00 0.52547201E+03</pdfrwt>
<pdfrwt beam="2">  1        1 0.44615734E+00 0.52547201E+03</pdfrwt>
<totfact> 0.33740017E-01</totfact>
</mgrwt>
</event>
<event>
 5    0  0.1226227E+000  0.3505146E+03  0.7546771E-02  0.1062404E+00
          1   -1    0    0  501    0 -0.00000000000E+00  0.00000000000E+00  0.31043944943E+03  0.31043944943E+03  0.00000000000E+00 0.  1.
          2   -1    0    0  502    0  0.00000000000E+00 -0.00000000000E+00 -0.16357159283E+04  0.16357159283E+04  0.00000000000E+00 0.  1.
         25    1    1    2    0    0 -0.16725159536E+03 -0.23633579251E+03 -0.14706010799E+03  0.34796462225E+03  0.12500000000E+03 0.  0.
          2    1    1    2  501    0  0.19208785479E+03  0.27460791453E+03 -0.13651952796E+04  0.14057259342E+04  0.00000000000E+00 0.  1.
          1    1    1    2  502    0 -0.24836259428E+02 -0.38272122010E+02  0.18697890873E+03  0.19246482125E+03  0.00000000000E+00 0.  1.
<mgrwt>
<rscale>  4 0.35051462E+03</rscale>
<asrwt>0</asrwt>
<pdfrwt beam="1">  1        2 0.25164860E+00 0.35051462E+03</pdfrwt>
<pdfrwt beam="2">  1        1 0.47759915E-01 0.35051462E+03</pdfrwt>
<totfact> 0.12979534E+02</totfact>
</mgrwt>
</event>
<event>
 5    0  0.1226227E+000  0.2604386E+03  0.7546771E-02  0.1106880E+00
          2   -1    0    0  502    0  0.00000000000E+00  0.00000000000E+00  0.95166933827E+03  0.95166933827E+03  0.00000000000E+00 0. -1.
          1   -1    0    0  501    0 -0.00000000000E+00 -0.00000000000E+00 -0.84985663555E+03  0.84985663555E+03  0.00000000000E+00 0.  1.
         25    1    1    2    0    0  0.17121035849E+03  0.12156013698E+03  0.88800855046E+03  0.92101793655E+03  0.12500000000E+03 0.  0.
          2    1    1    2  501    0  0.72179057890E+01  0.21677951838E+02  0.27211432152E+02  0.35531588758E+02  0.00000000000E+00 0. -1.
          1    1    1    2  502    0 -0.17842826428E+03 -0.14323808881E+03 -0.81340727988E+03  0.84497644852E+03  0.00000000000E+00 0.  1.
<mgrwt>
<rscale>  4 0.26043858E+03</rscale>
<asrwt>0</asrwt>
<pdfrwt beam="1">  1        2 0.14641067E+00 0.26043858E+03</pdfrwt>
<pdfrwt beam="2">  1        1 0.13074717E+00 0.26043858E+03</pdfrwt>
<totfact> 0.81458818E+01</totfact>
</mgrwt>
</event>
<event>
 5    0  0.1226227E+000  0.2781047E+03  0.7546771E-02  0.1096729E+00
          1   -1    0    0  501    0 -0.00000000000E+00  0.00000000000E+00  0.13442818708E+03  0.13442818708E+03  0.00000000000E+00 0. -1.
          2   -1    0    0  502    0  0.00000000000E+00 -0.00000000000E+00 -0.23682701218E+04  0.23682701218E+04  0.00000000000E+00 0.  1.
         25    1    1    2    0    0 -0.24072208684E+03 -0.89294587774E+02 -0.18781033605E+03  0.34178702261E+03  0.12500000000E+03 0.  0.
          2    1    1    2  501    0  0.21832209520E+03  0.11732298361E+03 -0.20897263679E+04  0.21043729500E+04  0.00000000000E+00 0.  1.
          1    1    1    2  502    0  0.22399991644E+02 -0.28028395839E+02  0.43694769315E+02  0.56538336237E+02  0.00000000000E+00 0. -1.
<mgrwt>
<rscale>  4 0.27810472E+03</rscale>
<asrwt>0</asrwt>
<pdfrwt beam="1">  1        2 0.36434921E+00 0.27810472E+03</pdfrwt>
<pdfrwt beam="2">  1        1 0.20681262E-01 0.27810472E+03</pdfrwt>
<totfact> 0.15702871E+02</totfact>
</mgrwt>
</event>
<event>
 5    0  0.1226227E+000  0.2132818E+03  0.7546771E-02  0.1138993E+00
          2   -1    0    0  501    0  0.00000000000E+00  0.00000000000E+00  0.16944986192E+04  0.16944986192E+04  0.00000000000E+00 0.  1.
         -3   -1    0    0    0  501 -0.00000000000E+00 -0.00000000000E+00 -0.55833481033E+02  0.55833481033E+02  0.00000000000E+00 0.  1.
         25    1    1    2    0    0  0.13366797209E+03 -0.15861860114E+03  0.31290015644E+03  0.39567473420E+03  0.12500000000E+03 0.  0.
          2    1    1    2  502    0 -0.93761932494E+02  0.13981749417E+03  0.12802577557E+04  0.12912784955E+04  0.00000000000E+00 0.  1.
         -3    1    1    2    0  502 -0.39906039595E+02  0.18801106964E+02  0.45507225984E+02  0.63378870580E+02  0.00000000000E+00 0.  1.
<mgrwt>
<rscale>  4 0.21328176E+03</rscale>
<asrwt>0</asrwt>
<pdfrwt beam="1">  1        2 0.26069206E+00 0.21328176E+03</pdfrwt>
<pdfrwt beam="2">  1       -3 0.85897676E-02 0.21328176E+03</pdfrwt>
<totfact> 0.64942360E+02</totfact>
</mgrwt>
</event>
<event>
 5    0  0.1226227E+000  0.3577828E+03  0.7546771E-02  0.1059465E+00
          2   -1    0    0  502    0  0.00000000000E+00  0.00000000000E+00  0.11688546360E+04  0.11688546360E+04  0.00000000000E+00 0.  1.
          2   -1    0    0  501    0 -0.00000000000E+00 -0.00000000000E+00 -0.18467171401E+04  0.18467171401E+04  0.00000000000E+00 0.  1.
         25    1    1    2    0    0 -0.17278277333E+03 -0.26936525098E+03 -0.14516863613E+03  0.37297514409E+03  0.12500000000E+03 0.  0.
          2    1    1    2  501    0  0.15712261759E+03  0.29903639563E+03 -0.15694023298E+04  0.16053454319E+04  0.00000000000E+00 0.  1.
          2    1    1    2  502    0  0.15660155736E+02 -0.29671144646E+02  0.10367084619E+04  0.10372512001E+04  0.00000000000E+00 0.  1.
<mgrwt>
<rscale>  4 0.35778278E+03</rscale>
<asrwt>0</asrwt>
<pdfrwt beam="1">  1        2 0.17982379E+00 0.35778278E+03</pdfrwt>
<pdfrwt beam="2">  1        2 0.28411033E+00 0.35778278E+03</pdfrwt>
<totfact> 0.28078638E+01</totfact>
</mgrwt>
</event>
<event>
 5    0  0.1226227E+000  0.2470511E+03  0.7546771E-02  0.1115183E+00
          2   -1    0    0  501    0  0.00000000000E+00  0.00000000000E+00  0.27886543967E+03  0.27886543967E+03  0.00000000000E+00 0.  1.
         -1   -1    0    0    0  501 -0.00000000000E+00 -0.00000000000E+00 -0.16426778030E+04  0.16426778030E+04  0.00000000000E+00 0.  1.
         25    1    1    2    0    0 -0.83966732479E+02 -0.22192040430E+03 -0.72815132681E+03  0.77596935039E+03  0.12500000000E+03 0.  0.
          2    1    1    2  502    0  0.76416871335E+01  0.35361051788E+02  0.24219066709E+03  0.24487776255E+03  0.00000000000E+00 0.  1.
         -1    1    1    2    0  502  0.76325045345E+02  0.18655935251E+03 -0.87785170358E+03  0.90069612969E+03  0.00000000000E+00 0.  1.
<mgrwt>
<rscale>  4 0.24705111E+03</rscale>
<asrwt>0</asrwt>
<pdfrwt beam="1">  1        2 0.42902375E-01 0.24705111E+03</pdfrwt>
<pdfrwt beam="2">  1       -1 0.25271967E+00 0.24705111E+03</pdfrwt>
<totfact> 0.10475777E+01</totfact>
</mgrwt>
</event>
<event>
 5    0  0.1226227E+000  0.2424919E+03  0.7546771E-02  0.1118144E+00
          2   -1    0    0  502    0  0.00000000000E+00  0.00000000000E+00  0.29226491735E+04  0.29226491735E+04  0.00000000000E+00 0. -1.
         -2   -1    0    0    0  501 -0.00000000000E+00 -0.00000000000E+00 -0.36780179697E+03  0.36780179697E+03  0.00000000000E+00 0. -1.
         25    1    1    2    0    0 -0.16958060280E+03  0.14649711186E+03  0.60527875828E+03  0.65742403352E+03  0.12500000000E+03 0.  0.
          2    1    1    2  502    0  0.14377747772E+03 -0.14617101616E+03  0.22862163053E+04  0.22953916711E+04  0.00000000000E+00 0. -1.
         -2    1    1    2    0  501  0.25803125085E+02 -0.32609570167E+00 -0.33664768701E+03  0.33763526589E+03  0.00000000000E+00 0. -1.
<mgrwt>
<rscale>  4 0.24249191E+03</rscale>
<asrwt>0</asrwt>
<pdfrwt beam="1">  1        2 0.44963832E+00 0.24249191E+03</pdfrwt>
<pdfrwt beam="2">  1       -2 0.56584894E-01 0.24249191E+03</pdfrwt>
<totfact> 0.71418649E+00</totfact>
</mgrwt>
</event>
<event>
 5    0  0.1226227E+000  0.2416073E+03  0.7546771E-02  0.1118727E+00
          2   -1    0    0  502    0  0.00000000000E+00  0.00000000000E+00  0.88404674091E+03  0.88404674091E+03  0.00000000000E+00 0. -1.
          2   -1    0    0  501    0 -0.00000000000E+00 -0.00000000000E+00 -0.11773734567E+04  0.11773734567E+04  0.00000000000E+00 0. -1.
         25    1    1    2    0    0 -0.11148649524E+03  0.24512871944E+03  0.47542953192E+02  0.30067035124E+03  0.12500000000E+03 0.  0.
          2    1    1    2  501    0  0.11098701796E+03 -0.16651691425E+03  0.69431817542E+03  0.72258129619E+03  0.00000000000E+00 0. -1.
          2    1    1    2  502    0  0.49947727596E+00 -0.78611805188E+02 -0.10351878444E+04  0.10381685502E+04  0.00000000000E+00 0. -1.
<mgrwt>
<rscale>  4 0.24160726E+03</rscale>
<asrwt>0</asrwt>
<pdfrwt beam="1">  1        2 0.13600719E+00 0.24160726E+03</pdfrwt>
<pdfrwt beam="2">  1        2 0.18113438E+00 0.24160726E+03</pdfrwt>
<totfact> 0.10144851E+02</totfact>
</mgrwt>
</event>
<event>
 5    0  0.1226227E+000  0.2539491E+03  0.7546771E-02  0.1110834E+00
          2   -1    0    0  502    0  0.00000000000E+00  0.00000000000E+00  0.20638850200E+04  0.20638850200E+04  0.00000000000E+00 0.  1.
          2   -1    0    0  501    0 -0.00000000000E+00 -0.00000000000E+00 -0.11851965474E+04  0.11851965474E+04  0.00000000000E+00 0. -1.
         25    1    1    2    0    0 -0.10359948105E+03 -0.23102296676E+03  0.10765580902E+04  0.11129720505E+04  0.12500000000E+03 0.  0.
          2    1    1    2  501    0  0.84058224525E+02  0.18411433745E+03  0.95798832137E+03  0.97913507660E+03  0.00000000000E+00 0.  1.
          2    1    1    2  502    0  0.19541256523E+02  0.46908629309E+02 -0.11558579390E+04  0.11569744402E+04  0.00000000000E+00 0. -1.
<mgrwt>
<rscale>  4 0.25394911E+03</rscale>
<asrwt>0</asrwt>
<pdfrwt beam="1">  1        2 0.31752077E+00 0.25394911E+03</pdfrwt>
<pdfrwt beam="2">  1        2 0.18233793E+00 0.25394911E+03</pdfrwt>
<totfact> 0.22225902E+01</totfact>
</mgrwt>
</event>
<event>
 5    0  0.1226227E+000  0.1922523E+03  0.7546771E-02  0.1156445E+00
          3   -1    0    0  501    0 -0.00000000000E+00  0.00000000000E+00  0.22765909317E+03  0.22765909317E+03  0.00000000000E+00 0. -1.
          2   -1    0    0  502    0  0.00000000000E+00 -0.00000000000E+00 -0.91055653303E+03  0.91055653303E+03  0.00000000000E+00 0.  1.
         25    1    1    2    0    0 -0.23500203717E+03  0.10271349588E+03 -0.15288627802E+03  0.32369002721E+03  0.12500000000E+03 0.  0.
          2    1    1    2  501    0  0.12632279210E+03 -0.28252382080E+02 -0.63375553021E+03  0.64683979235E+03  0.00000000000E+00 0.  1.
          3    1    1    2  502    0  0.10867924507E+03 -0.74461113799E+02  0.10374436837E+03  0.16768580663E+03  0.00000000000E+00 0. -1.
<mgrwt>
<rscale>  4 0.19225230E+03</rscale>
<asrwt>0</asrwt>
<pdfrwt beam="1">  1        2 0.14008562E+00 0.19225230E+03</pdfrwt>
<pdfrwt beam="2">  1        3 0.35024476E-01 0.19225230E+03</pdfrwt>
<totfact> 0.15009510E+02</totfact>
</mgrwt>
</event>
<event>
 5    0  0.1226227E+000  0.3899312E+03  0.7546771E-02  0.1047323E+00
          2   -1    0    0  502    0  0.00000000000E+00  0.00000000000E+00  0.81742187607E+03  0.81742187607E+03  0.00000000000E+00 0. -1.
          2   -1    0    0  501    0 -0.00000000000E+00 -0.00000000000E+00 -0.19240480774E+04  0.19240480774E+04  0.00000000000E+00 0.  1.
         25    1    1    2    0    0 -0.33199879683E+03  0.18202039537E+03 -0.12047753511E+04  0.12690402957E+04  0.12500000000E+03 0.  0.
          2    1    1    2  501    0  0.15823207957E+02 -0.18193063872E+02  0.73894400495E+03  0.73933727346E+03  0.00000000000E+00 0. -1.
          2    1    1    2  502    0  0.31617558887E+03 -0.16382733150E+03 -0.64079485515E+03  0.73309238431E+03  0.00000000000E+00 0.  1.
<mgrwt>
<rscale>  4 0.38993117E+03</rscale>
<asrwt>0</asrwt>
<pdfrwt beam="1">  1        2 0.12575721E+00 0.38993117E+03</pdfrwt>
<pdfrwt beam="2">  1        2 0.29600739E+00 0.38993117E+03</pdfrwt>
<totfact> 0.41997289E+01</totfact>
</mgrwt>
</event>
<event>
 5    0  0.1226227E+000  0.2908163E+03  0.7546771E-02  0.1089924E+00
          1   -1    0    0  502    0  0.00000000000E+00  0.00000000000E+00  0.10095812561E+04  0.10095812561E+04  0.00000000000E+00 0.  1.
         -1   -1    0    0    0  501 -0.00000000000E+00 -0.00000000000E+00 -0.39700258513E+03  0.39700258513E+03  0.00000000000E+00 0. -1.
         25    1    1    2    0    0  0.19675639773E+03  0.20493849989E+03  0.60954249763E+03  0.68401748896E+03  0.12500000000E+03 0.  0.
          1    1    1    2  502    0 -0.68322507955E+02  0.22961751233E+02  0.31056772026E+03  0.31882207574E+03  0.00000000000E+00 0.  1.
         -1    1    1    2    0  501 -0.12843388978E+03 -0.22790025112E+03 -0.30753154690E+03  0.40374427655E+03  0.00000000000E+00 0. -1.
<mgrwt>
<rscale>  4 0.29081626E+03</rscale>
<asrwt>0</asrwt>
<pdfrwt beam="1">  1        1 0.15532019E+00 0.29081626E+03</pdfrwt>
<pdfrwt beam="2">  1       -1 0.61077321E-01 0.29081626E+03</pdfrwt>
<totfact> 0.44635829E+01</totfact>
</mgrwt>
</event>
<event>
 5    0  0.1226227E+000  0.2303939E+03  0.7546771E-02  0.1126363E+00
          1   -1    0    0  501    0 -0.00000000000E+00  0.00000000000E+00  0.39072907832E+03  0.39072907832E+03  0.00000000000E+00 0.  1.
          2   -1    0    0  502    0  0.00000000000E+00 -0.00000000000E+00 -0.10890998990E+04  0.10890998990E+04  0.00000000000E+00 0.  1.
         25    1    1    2    0    0  0.28446155840E+02  0.22459330072E+03 -0.28039298666E+03  0.38144011519E+03  0.12500000000E+03 0.  0.
          2    1    1    2  501    0 -0.36297438799E+02 -0.33655016848E+02 -0.73044344710E+03  0.73211870187E+03  0.00000000000E+00 0.  1.
          1    1    1    2  502    0  0.78512829590E+01 -0.19093828387E+03  0.31246561311E+03  0.36627016022E+03  0.00000000000E+00 0.  1.
<mgrwt>
<rscale>  4 0.23039388E+03</rscale>
<asrwt>0</asrwt>
<pdfrwt beam="1">  1        2 0.16755383E+00 0.23039388E+03</pdfrwt>
<pdfrwt beam="2">  1        1 0.60112166E-01 0.23039388E+03</pdfrwt>
<totfact> 0.20049345E+02</totfact>
</mgrwt>
</event>
<event>
 5    0  0.1226227E+000  0.2469038E+03  0.7546771E-02  0.1115277E+00
          4   -1    0    0  502    0  0.00000000000E+00  0.00000000000E+00  0.76654083797E+03  0.76654083797E+03  0.00000000000E+00 0.  1.
          1   -1    0    0  501    0 -0.00000000000E+00 -0.00000000000E+00 -0.10621560457E+04  0.10621560457E+04  0.00000000000E+00 0. -1.
         25    1    1    2    0    0  0.25724974914E+03  0.32103695665E+02  0.18809064172E+03  0.34381851348E+03  0.12500000000E+03 0.  0.
          4    1    1    2  501    0 -0.19795448627E+03 -0.34646368576E+02  0.47946646235E+03  0.51987925330E+03  0.00000000000E+00 0.  1.
          1    1    1    2  502    0 -0.59295262868E+02  0.25426729104E+01 -0.96317231176E+03  0.96499911685E+03  0.00000000000E+00 0. -1.
<mgrwt>
<rscale>  4 0.24690378E+03</rscale>
<asrwt>0</asrwt>
<pdfrwt beam="1">  1        4 0.11792936E+00 0.24690378E+03</pdfrwt>
<pdfrwt beam="2">  1        1 0.16340862E+00 0.24690378E+03</pdfrwt>
<totfact> 0.38855957E+00</totfact>
</mgrwt>
</event>
<event>
 5    0  0.1226227E+000  0.2008772E+03  0.7546771E-02  0.1149001E+00
          2   -1    0    0  502    0  0.00000000000E+00  0.00000000000E+00  0.39890582202E+04  0.39890582202E+04  0.00000000000E+00 0. -1.
          2   -1    0    0  501    0 -0.00000000000E+00 -0.00000000000E+00 -0.86702429854E+03  0.86702429854E+03  0.00000000000E+00 0. -1.
         25    1    1    2    0    0 -0.10802682960E+03  0.22180196123E+03  0.42374285947E+03  0.50601276355E+03  0.12500000000E+03 0.  0.
          2    1    1    2  501    0  0.71503027059E+02 -0.13845974192E+03 -0.81794471296E+03  0.83265679393E+03  0.00000000000E+00 0. -1.
          2    1    1    2  502    0  0.36523802543E+02 -0.83342219315E+02  0.35162357752E+04  0.35174129613E+04  0.00000000000E+00 0. -1.
<mgrwt>
<rscale>  4 0.20087722E+03</rscale>
<asrwt>0</asrwt>
<pdfrwt beam="1">  1        2 0.61370125E+00 0.20087722E+03</pdfrwt>
<pdfrwt beam="2">  1        2 0.13338836E+00 0.20087722E+03</pdfrwt>
<totfact> 0.24508105E+00</totfact>
</mgrwt>
</event>
<event>
 5    0  0.1226227E+000  0.2780186E+03  0.7546771E-02  0.1096776E+00
          2   -1    0    0  502    0  0.00000000000E+00  0.00000000000E+00  0.17371518326E+04  0.17371518326E+04  0.00000000000E+00 0. -1.
          2   -1    0    0  501    0 -0.00000000000E+00 -0.00000000000E+00 -0.10086898323E+04  0.10086898323E+04  0.00000000000E+00 0.  1.
         25    1    1    2    0    0 -0.22883505723E+03 -0.13430831208E+03 -0.23621469586E+03  0.37659871037E+03  0.12500000000E+03 0.  0.
          2    1    1    2  501    0 -0.12523707684E+02  0.20028425411E+03 -0.67827957575E+03  0.70734278011E+03  0.00000000000E+00 0.  1.
          2    1    1    2  502    0  0.24135876492E+03 -0.65975942032E+02  0.16429562719E+04  0.16619001744E+04  0.00000000000E+00 0. -1.
<mgrwt>
<rscale>  4 0.27801860E+03</rscale>
<asrwt>0</asrwt>
<pdfrwt beam="1">  1        2 0.26725413E+00 0.27801860E+03</pdfrwt>
<pdfrwt beam="2">  1        2 0.15518305E+00 0.27801860E+03</pdfrwt>
<totfact> 0.41401240E+01</totfact>
</mgrwt>
</event>
<event>
 5    0  0.1226227E+000  0.1981623E+03  0.7546771E-02  0.1151299E+00
          1   -1    0    0  502    0  0.00000000000E+00  0.00000000000E+00  0.25865006749E+03  0.25865006749E+03  0.00000000000E+00 0. -1.
          1   -1    0    0  501    0 -0.00000000000E+00 -0.00000000000E+00 -0.67581462224E+03  0.67581462224E+03  0.00000000000E+00 0. -1.
         25    1    1    2    0    0 -0.22789705922E+03 -0.60329504299E+02 -0.33254149152E+03  0.42636318118E+03  0.12500000000E+03 0.  0.
          1    1    1    2  501    0  0.10223814893E+03  0.34442919977E+02  0.18236533248E+03  0.21188692344E+03  0.00000000000E+00 0. -1.
          1    1    1    2  502    0  0.12565891028E+03  0.25886584321E+02 -0.26698839571E+03  0.29621458510E+03  0.00000000000E+00 0. -1.
<mgrwt>
<rscale>  4 0.19816234E+03</rscale>
<asrwt>0</asrwt>
<pdfrwt beam="1">  1        1 0.39792319E-01 0.19816234E+03</pdfrwt>
<pdfrwt beam="2">  1        1 0.10397148E+00 0.19816234E+03</pdfrwt>
<totfact> 0.38042161E+02</totfact>
</mgrwt>
</event>
<event>
 5    0  0.1226227E+000  0.2240624E+03  0.7546771E-02  0.1130890E+00
          1   -1    0    0  502    0  0.00000000000E+00  0.00000000000E+00  0.33893384711E+03  0.33893384711E+03  0.00000000000E+00 0.  1.
          1   -1    0    0  501    0 -0.00000000000E+00 -0.00000000000E+00 -0.97495803704E+03  0.97495803704E+03  0.00000000000E+00 0.  1.
         25    1    1    2    0    0  0.26939611412E+03  0.83798651937E+02 -0.47070468377E+02  0.31214917806E+03  0.12500000000E+03 0.  0.
          1    1    1    2  501    0 -0.10573281861E+03 -0.12151491576E+02  0.18174115929E+03  0.21061086548E+03  0.00000000000E+00 0.  1.
          1    1    1    2  502    0 -0.16366329551E+03 -0.71647160362E+02 -0.77069488084E+03  0.79113184061E+03  0.00000000000E+00 0.  1.
<mgrwt>
<rscale>  4 0.22406239E+03</rscale>
<asrwt>0</asrwt>
<pdfrwt beam="1">  1        1 0.52143669E-01 0.22406239E+03</pdfrwt>
<pdfrwt beam="2">  1        1 0.14999354E+00 0.22406239E+03</pdfrwt>
<totfact> 0.15267368E+02</totfact>
</mgrwt>
</event>
<event>
 5    0  0.1226227E+000  0.3415138E+03  0.7546771E-02  0.1066153E+00
          1   -1    0    0  501    0  0.00000000000E+00  0.00000000000E+00  0.15149655580E+04  0.15149655580E+04  0.00000000000E+00 0.  1.
         -3   -1    0    0    0  501 -0.00000000000E+00 -0.00000000000E+00 -0.25082528360E+03  0.25082528360E+03  0.00000000000E+00 0.  1.
         25    1    1    2    0    0 -0.33494053687E+03 -0.59980291662E+02  0.77482803986E+02  0.37069041468E+03  0.12500000000E+03 0.  0.
          1    1    1    2  502    0  0.30240248510E+03  0.88493265727E+02  0.12660588959E+04  0.13046775268E+04  0.00000000000E+00 0.  1.
         -3    1    1    2    0  502  0.32538051765E+02 -0.28512974065E+02 -0.79401425459E+02  0.90422900128E+02  0.00000000000E+00 0.  1.
<mgrwt>
<rscale>  4 0.34151378E+03</rscale>
<asrwt>0</asrwt>
<pdfrwt beam="1">  1        1 0.23307162E+00 0.34151378E+03</pdfrwt>
<pdfrwt beam="2">  1       -3 0.38588506E-01 0.34151378E+03</pdfrwt>
<totfact> 0.25416078E+01</totfact>
</mgrwt>
</event>
<event>
 5    0  0.1226227E+000  0.2139419E+03  0.7546771E-02  0.1138482E+00
          2   -1    0    0  502    0  0.00000000000E+00  0.00000000000E+00  0.61717716795E+03  0.61717716795E+03  0.00000000000E+00 0.  1.
         -2   -1    0    0    0  501 -0.00000000000E+00 -0.00000000000E+00 -0.14156656964E+03  0.14156656964E+03  0.00000000000E+00 0.  1.
         25    1    1    2    0    0 -0.42390237032E+02 -0.21761593582E+03  0.10312682062E+03  0.27461567481E+03  0.12500000000E+03 0.  0.
          2    1    1    2  502    0  0.34812583621E+02  0.16060779245E+03  0.39065684277E+03  0.42381546430E+03  0.00000000000E+00 0.  1.
         -2    1    1    2    0  501  0.75776534114E+01  0.57008143371E+02 -0.18173065083E+02  0.60312598488E+02  0.00000000000E+00 0.  1.
<mgrwt>
<rscale>  4 0.21394189E+03</rscale>
<asrwt>0</asrwt>
<pdfrwt beam="1">  1        2 0.94950332E-01 0.21394189E+03</pdfrwt>
<pdfrwt beam="2">  1       -2 0.21779473E-01 0.21394189E+03</pdfrwt>
<totfact> 0.88702677E+02</totfact>
</mgrwt>
</event>
<event>
 5    0  0.1226227E+000  0.2885152E+03  0.7546771E-02  0.1091127E+00
          1   -1    0    0  502    0  0.00000000000E+00  0.00000000000E+00  0.74350312104E+03  0.74350312104E+03  0.00000000000E+00 0. -1.
          3   -1    0    0  501    0 -0.00000000000E+00 -0.00000000000E+00 -0.88749491889E+03  0.88749491889E+03  0.00000000000E+00 0.  1.
         25    1    1    2    0    0 -0.12940991025E+03  0.15585461906E+03 -0.23143436181E+03  0.33200067918E+03  0.12500000000E+03 0.  0.
          1    1    1    2  501    0 -0.50015865873E+02  0.89717835519E+02  0.65076221429E+03  0.65881889499E+03  0.00000000000E+00 0. -1.
          3    1    1    2  502    0  0.17942577612E+03 -0.24557245458E+03 -0.56331965032E+03  0.64017846576E+03  0.00000000000E+00 0.  1.
<mgrwt>
<rscale>  4 0.28851525E+03</rscale>
<asrwt>0</asrwt>
<pdfrwt beam="1">  1        1 0.11438510E+00 0.28851525E+03</pdfrwt>
<pdfrwt beam="2">  1        3 0.13653768E+00 0.28851525E+03</pdfrwt>
<totfact> 0.60334657E+00</totfact>
</mgrwt>
</event>
<event>
 5    0  0.1226227E+000  0.2314720E+03  0.7546771E-02  0.1125608E+00
          3   -1    0    0  501    0 -0.00000000000E+00  0.00000000000E+00  0.10146052199E+04  0.10146052199E+04  0.00000000000E+00 0. -1.
          2   -1    0    0  502    0  0.00000000000E+00 -0.00000000000E+00 -0.15349091928E+04  0.15349091928E+04  0.00000000000E+00 0. -1.
         25    1    1    2    0    0  0.13677695029E+03 -0.16668419800E+03 -0.29257007964E+02  0.25094327747E+03  0.12500000000E+03 0.  0.
          2    1    1    2  501    0 -0.17933154845E+02  0.14248425161E+02 -0.13843785146E+04  0.13845679786E+04  0.00000000000E+00 0. -1.
          3    1    1    2  502    0 -0.11884379545E+03  0.15243577284E+03  0.89333154976E+03  0.91400315664E+03  0.00000000000E+00 0. -1.
<mgrwt>
<rscale>  4 0.23147203E+03</rscale>
<asrwt>0</asrwt>
<pdfrwt beam="1">  1        2 0.23613988E+00 0.23147203E+03</pdfrwt>
<pdfrwt beam="2">  1        3 0.15609311E+00 0.23147203E+03</pdfrwt>
<totfact> 0.25415853E+00</totfact>
</mgrwt>
</event>
<event>
 5    0  0.1226227E+000  0.2662483E+03  0.7546771E-02  0.1103446E+00
         -2   -1    0    0    0  501 -0.00000000000E+00  0.00000000000E+00  0.60041913803E+02  0.60041913803E+02  0.00000000000E+00 0. -1.
          2   -1    0    0  502    0  0.00000000000E+00 -0.00000000000E+00 -0.21044736813E+04  0.21044736813E+04  0.00000000000E+00 0.  1.
         25    1    1    2    0    0 -0.24586248990E+03 -0.10381957235E+03 -0.53167332204E+03  0.60788846749E+03  0.12500000000E+03 0.  0.
          2    1    1    2  502    0  0.18084901018E+03  0.14066194274E+03 -0.14157769164E+04  0.14341953924E+04  0.00000000000E+00 0.  1.
         -2    1    1    2    0  501  0.65013479722E+02 -0.36842370391E+02 -0.96981529001E+02  0.12243173514E+03  0.00000000000E+00 0. -1.
<mgrwt>
<rscale>  4 0.26624832E+03</rscale>
<asrwt>0</asrwt>
<pdfrwt beam="1">  1        2 0.32376517E+00 0.26624832E+03</pdfrwt>
<pdfrwt beam="2">  1       -2 0.92372180E-02 0.26624832E+03</pdfrwt>
<totfact> 0.49406871E+02</totfact>
</mgrwt>
</event>
<event>
 5    0  0.1226227E+000  0.3145950E+03  0.7546771E-02  0.1078164E+00
          2   -1    0    0  502    0  0.00000000000E+00  0.00000000000E+00  0.79199649176E+03  0.79199649176E+03  0.00000000000E+00 0. -1.
          2   -1    0    0  501    0 -0.00000000000E+00 -0.00000000000E+00 -0.15197912039E+04  0.15197912039E+04  0.00000000000E+00 0. -1.
         25    1    1    2    0    0 -0.27465537827E+03  0.54514704528E+02  0.21809168276E+03  0.37629298680E+03  0.12500000000E+03 0.  0.
          2    1    1    2  501    0  0.27592685186E+03 -0.10408252608E+03  0.45038395371E+03  0.53834422591E+03  0.00000000000E+00 0. -1.
          2    1    1    2  502    0 -0.12714735934E+01  0.49567821552E+02 -0.13962703486E+04  0.13971504830E+04  0.00000000000E+00 0. -1.
<mgrwt>
<rscale>  4 0.31459496E+03</rscale>
<asrwt>0</asrwt>
<pdfrwt beam="1">  1        2 0.12184562E+00 0.31459496E+03</pdfrwt>
<pdfrwt beam="2">  1        2 0.23381403E+00 0.31459496E+03</pdfrwt>
<totfact> 0.73731888E+01</totfact>
</mgrwt>
</event>
<event>
 5    0  0.1226227E+000  0.2317854E+03  0.7546771E-02  0.1125389E+00
         -4   -1    0    0    0  501 -0.00000000000E+00  0.00000000000E+00  0.27879379239E+03  0.27879379239E+03  0.00000000000E+00 0.  1.
          2   -1    0    0  501    0  0.00000000000E+00 -0.00000000000E+00 -0.63761387824E+03  0.63761387824E+03  0.00000000000E+00 0. -1.
         25    1    1    2    0    0  0.21062919757E+03  0.33132208876E+02  0.38596521293E+02  0.25015413966E+03  0.12500000000E+03 0.  0.
          2    1    1    2  502    0 -0.19051133451E+03 -0.30900255566E+02 -0.51341997622E+03  0.54849746248E+03  0.00000000000E+00 0. -1.
         -4    1    1    2    0  502 -0.20117863058E+02 -0.22319533097E+01  0.11600336907E+03  0.11775606848E+03  0.00000000000E+00 0.  1.
<mgrwt>
<rscale>  4 0.23178539E+03</rscale>
<asrwt>0</asrwt>
<pdfrwt beam="1">  1        2 0.98094443E-01 0.23178539E+03</pdfrwt>
<pdfrwt beam="2">  1       -4 0.42891353E-01 0.23178539E+03</pdfrwt>
<totfact> 0.13233833E+02</totfact>
</mgrwt>
</event>
<event>
 5    0  0.1226227E+000  0.2614446E+03  0.7546771E-02  0.1106278E+00
         -2   -1    0    0    0  501 -0.00000000000E+00  0.00000000000E+00  0.48184696005E+03  0.48184696005E+03  0.00000000000E+00 0. -1.
          2   -1    0    0  502    0  0.00000000000E+00 -0.00000000000E+00 -0.38589017324E+03  0.38589017324E+03  0.00000000000E+00 0.  1.
         25    1    1    2    0    0 -0.23311235283E+03 -0.99308714349E+02  0.13895351676E+03  0.31485976181E+03  0.12500000000E+03 0.  0.
          2    1    1    2  502    0  0.20946464362E+03  0.82623842838E+02 -0.25426482084E+03  0.33963618101E+03  0.00000000000E+00 0.  1.
         -2    1    1    2    0  501  0.23647709209E+02  0.16684871511E+02  0.21126809089E+03  0.21324119048E+03  0.00000000000E+00 0. -1.
<mgrwt>
<rscale>  4 0.26144456E+03</rscale>
<asrwt>0</asrwt>
<pdfrwt beam="1">  1        2 0.59367719E-01 0.26144456E+03</pdfrwt>
<pdfrwt beam="2">  1       -2 0.74130302E-01 0.26144456E+03</pdfrwt>
<totfact> 0.14131037E+02</totfact>
</mgrwt>
</event>
<event>
 5    0  0.1226227E+000  0.3043531E+03  0.7546771E-02  0.1083085E+00
          2   -1    0    0  502    0  0.00000000000E+00  0.00000000000E+00  0.12689005493E+04  0.12689005493E+04  0.00000000000E+00 0. -1.
          2   -1    0    0  501    0 -0.00000000000E+00 -0.00000000000E+00 -0.20409957841E+04  0.20409957841E+04  0.00000000000E+00 0.  1.
         25    1    1    2    0    0 -0.19823308151E+03 -0.21651800133E+03 -0.10354393322E+04  0.10834832764E+04  0.12500000000E+03 0.  0.
          2    1    1    2  501    0  0.19680565258E+03  0.19531043222E+03  0.12293212318E+04  0.12602020952E+04  0.00000000000E+00 0. -1.
          2    1    1    2  502    0  0.14274289267E+01  0.21207569110E+02 -0.96597713437E+03  0.96621096178E+03  0.00000000000E+00 0.  1.
<mgrwt>
<rscale>  4 0.30435307E+03</rscale>
<asrwt>0</asrwt>
<pdfrwt beam="1">  1        2 0.19521547E+00 0.30435307E+03</pdfrwt>
<pdfrwt beam="2">  1        2 0.31399935E+00 0.30435307E+03</pdfrwt>
<totfact> 0.19905103E+01</totfact>
</mgrwt>
</event>
<event>
 5    0  0.1226227E+000  0.1903485E+03  0.7546771E-02  0.1158147E+00
          1   -1    0    0  501    0  0.00000000000E+00  0.00000000000E+00  0.99945939220E+03  0.99945939220E+03  0.00000000000E+00 0.  1.
         -2   -1    0    0    0  501 -0.00000000000E+00 -0.00000000000E+00 -0.79537808203E+02  0.79537808203E+02  0.00000000000E+00 0. -1.
         25    1    1    2    0    0 -0.39035397921E+02 -0.20143905531E+03  0.49245731698E+03  0.54794220894E+03  0.12500000000E+03 0.  0.
          1    1    1    2  502    0  0.64171468373E+02  0.69712996278E+02  0.37544415976E+03  0.38721595564E+03  0.00000000000E+00 0.  1.
         -2    1    1    2    0  502 -0.25136070452E+02  0.13172605903E+03  0.52020107249E+02  0.14383903581E+03  0.00000000000E+00 0. -1.
<mgrwt>
<rscale>  4 0.19034845E+03</rscale>
<asrwt>0</asrwt>
<pdfrwt beam="1">  1        1 0.15376297E+00 0.19034845E+03</pdfrwt>
<pdfrwt beam="2">  1       -2 0.12236587E-01 0.19034845E+03</pdfrwt>
<totfact> 0.67883926E+02</totfact>
</mgrwt>
</event>
<event>
 5    0  0.1226227E+000  0.1920321E+03  0.7546771E-02  0.1156641E+00
          2   -1    0    0  502    0  0.00000000000E+00  0.00000000000E+00  0.11871196024E+04  0.11871196024E+04  0.00000000000E+00 0. -1.
          2   -1    0    0  501    0 -0.00000000000E+00 -0.00000000000E+00 -0.19275533257E+03  0.19275533257E+03  0.00000000000E+00 0. -1.
         25    1    1    2    0    0  0.19725227481E+03  0.11461594677E+03  0.16650542931E+03  0.30885973056E+03  0.12500000000E+03 0.  0.
          2    1    1    2  501    0 -0.11223568463E+03 -0.83359141810E+02  0.92656102482E+03  0.93704905322E+03  0.00000000000E+00 0. -1.
          2    1    1    2  502    0 -0.85016590186E+02 -0.31256804959E+02 -0.98702184329E+02  0.13396615115E+03  0.00000000000E+00 0. -1.
<mgrwt>
<rscale>  4 0.19203214E+03</rscale>
<asrwt>0</asrwt>
<pdfrwt beam="1">  1        2 0.18263378E+00 0.19203214E+03</pdfrwt>
<pdfrwt beam="2">  1        2 0.29654667E-01 0.19203214E+03</pdfrwt>
<totfact> 0.56797307E+02</totfact>
</mgrwt>
</event>
<event>
 5    0  0.1226227E+000  0.2699230E+03  0.7546771E-02  0.1101324E+00
          1   -1    0    0  501    0 -0.00000000000E+00  0.00000000000E+00  0.15794326667E+03  0.15794326667E+03  0.00000000000E+00 0. -1.
          2   -1    0    0  502    0  0.00000000000E+00 -0.00000000000E+00 -0.10944094704E+04  0.10944094704E+04  0.00000000000E+00 0. -1.
         25    1    1    2    0    0 -0.98738107600E+02 -0.20579671256E+03 -0.15214814963E+03  0.30145573511E+03  0.12500000000E+03 0.  0.
          2    1    1    2  501    0 -0.19977546827E+02 -0.12349294823E+02 -0.68181407755E+03  0.68221847219E+03  0.00000000000E+00 0. -1.
          1    1    1    2  502    0  0.11871565443E+03  0.21814600738E+03 -0.10250397655E+03  0.26867852975E+03  0.00000000000E+00 0. -1.
<mgrwt>
<rscale>  4 0.26992298E+03</rscale>
<asrwt>0</asrwt>
<pdfrwt beam="1">  1        2 0.16837069E+00 0.26992298E+03</pdfrwt>
<pdfrwt beam="2">  1        1 0.24298964E-01 0.26992298E+03</pdfrwt>
<totfact> 0.62145864E+02</totfact>
</mgrwt>
</event>
<event>
 5    0  0.1226227E+000  0.3608139E+03  0.7546771E-02  0.1058262E+00
          2   -1    0    0  502    0  0.00000000000E+00  0.00000000000E+00  0.21362812244E+04  0.21362812244E+04  0.00000000000E+00 0.  1.
          1   -1    0    0  501    0 -0.00000000000E+00 -0.00000000000E+00 -0.34110872989E+03  0.34110872989E+03  0.00000000000E+00 0.  1.
         25    1    1    2    0    0 -0.17267688628E+03 -0.23232598422E+03  0.46332067580E+03  0.56043172521E+03  0.12500000000E+03 0.  0.
          2    1    1    2  501    0  0.25662309810E+03  0.25209042901E+03  0.15975831283E+04  0.16375826241E+04  0.00000000000E+00 0.  1.
          1    1    1    2  502    0 -0.83946211817E+02 -0.19764444784E+02 -0.26573130961E+03  0.27937560498E+03  0.00000000000E+00 0.  1.
<mgrwt>
<rscale>  4 0.36081387E+03</rscale>
<asrwt>0</asrwt>
<pdfrwt beam="1">  1        2 0.32865864E+00 0.36081387E+03</pdfrwt>
<pdfrwt beam="2">  1        1 0.52478268E-01 0.36081387E+03</pdfrwt>
<totfact> 0.62128520E+01</totfact>
</mgrwt>
</event>
<event>
 5    0  0.1226227E+000  0.2560826E+03  0.7546771E-02  0.1109520E+00
         -1   -1    0    0    0  501 -0.00000000000E+00  0.00000000000E+00  0.10498807252E+04  0.10498807252E+04  0.00000000000E+00 0. -1.
          4   -1    0    0  501    0  0.00000000000E+00 -0.00000000000E+00 -0.18923334031E+03  0.18923334031E+03  0.00000000000E+00 0.  1.
         25    1    1    2    0    0 -0.26288407453E+03 -0.40712004292E+02  0.87291712615E+02  0.30661106801E+03  0.12500000000E+03 0.  0.
          4    1    1    2  502    0  0.45814577186E+02  0.19691843787E+02 -0.55981404551E+02  0.74971073422E+02  0.00000000000E+00 0.  1.
         -1    1    1    2    0  502  0.21706949734E+03  0.21020160505E+02  0.82933707684E+03  0.85753192410E+03  0.00000000000E+00 0. -1.
<mgrwt>
<rscale>  4 0.25608257E+03</rscale>
<asrwt>0</asrwt>
<pdfrwt beam="1">  1        4 0.29112822E-01 0.25608257E+03</pdfrwt>
<pdfrwt beam="2">  1       -1 0.16152011E+00 0.25608257E+03</pdfrwt>
<totfact> 0.13933896E+01</totfact>
</mgrwt>
</event>
<event>
 5    0  0.1226227E+000  0.2734937E+03  0.7546771E-02  0.1099297E+00
          2   -1    0    0  502    0  0.00000000000E+00  0.00000000000E+00  0.16758494098E+04  0.16758494098E+04  0.00000000000E+00 0. -1.
          1   -1    0    0  501    0 -0.00000000000E+00 -0.00000000000E+00 -0.11528735666E+03  0.11528735666E+03  0.00000000000E+00 0. -1.
         25    1    1    2    0    0  0.23402088007E+03 -0.58087028565E+02  0.10065048564E+04  0.10425051084E+04  0.12500000000E+03 0.  0.
          2    1    1    2  501    0 -0.22657657748E+03  0.10159656472E+03  0.62079615935E+03  0.66861549405E+03  0.00000000000E+00 0. -1.
          1    1    1    2  502    0 -0.74443025884E+01 -0.43509536151E+02 -0.66738962559E+02  0.80016163995E+02  0.00000000000E+00 0. -1.
<mgrwt>
<rscale>  4 0.27349371E+03</rscale>
<asrwt>0</asrwt>
<pdfrwt beam="1">  1        2 0.25782297E+00 0.27349371E+03</pdfrwt>
<pdfrwt beam="2">  1        1 0.17736518E-01 0.27349371E+03</pdfrwt>
<totfact> 0.44663246E+02</totfact>
</mgrwt>
</event>
<event>
 5    0  0.1226227E+000  0.1922459E+03  0.7546771E-02  0.1156451E+00
          4   -1    0    0  502    0  0.00000000000E+00  0.00000000000E+00  0.33666143004E+03  0.33666143004E+03  0.00000000000E+00 0.  1.
          1   -1    0    0  501    0 -0.00000000000E+00 -0.00000000000E+00 -0.65647320144E+03  0.65647320144E+03  0.00000000000E+00 0. -1.
         25    1    1    2    0    0 -0.20751569481E+03 -0.16341705344E+02  0.19284956039E+03  0.31007381036E+03  0.12500000000E+03 0.  0.
          4    1    1    2  501    0  0.64315656851E+02  0.24336847545E+01  0.62777896680E+02  0.89908235714E+02  0.00000000000E+00 0.  1.
          1    1    1    2  502    0  0.14320003796E+03  0.13908020589E+02 -0.57543922847E+03  0.59315258541E+03  0.00000000000E+00 0. -1.
<mgrwt>
<rscale>  4 0.19224588E+03</rscale>
<asrwt>0</asrwt>
<pdfrwt beam="1">  1        4 0.51794067E-01 0.19224588E+03</pdfrwt>
<pdfrwt beam="2">  1        1 0.10099588E+00 0.19224588E+03</pdfrwt>
<totfact> 0.52214237E+01</totfact>
</mgrwt>
</event>
<event>
 5    0  0.1226227E+000  0.3959927E+03  0.7546771E-02  0.1045176E+00
          2   -1    0    0  502    0  0.00000000000E+00  0.00000000000E+00  0.46396932011E+03  0.46396932011E+03  0.00000000000E+00 0.  1.
          2   -1    0    0  501    0 -0.00000000000E+00 -0.00000000000E+00 -0.36291183838E+04  0.36291183838E+04  0.00000000000E+00 0.  1.
         25    1    1    2    0    0 -0.21863789717E+03 -0.38680160348E+03 -0.15260580439E+04  0.15943325136E+04  0.12500000000E+03 0.  0.
          2    1    1    2  501    0  0.19080364618E+03  0.31957928154E+03  0.34846529455E+03  0.50986763977E+03  0.00000000000E+00 0.  1.
          2    1    1    2  502    0  0.27834250990E+02  0.67222321939E+02 -0.19875563143E+04  0.19888875505E+04  0.00000000000E+00 0.  1.
<mgrwt>
<rscale>  4 0.39599274E+03</rscale>
<asrwt>0</asrwt>
<pdfrwt beam="1">  1        2 0.71379894E-01 0.39599274E+03</pdfrwt>
<pdfrwt beam="2">  1        2 0.55832592E+00 0.39599274E+03</pdfrwt>
<totfact> 0.81906772E+00</totfact>
</mgrwt>
</event>
<event>
 5    0  0.1226227E+000  0.3622245E+03  0.7546771E-02  0.1057706E+00
          1   -1    0    0  501    0 -0.00000000000E+00  0.00000000000E+00  0.18474227570E+03  0.18474227570E+03  0.00000000000E+00 0.  1.
          2   -1    0    0  502    0  0.00000000000E+00 -0.00000000000E+00 -0.82899180104E+03  0.82899180104E+03  0.00000000000E+00 0.  1.
         25    1    1    2    0    0  0.29953731033E+03  0.59184744319E+02 -0.36616125168E+03  0.49287371249E+03  0.12500000000E+03 0.  0.
          2    1    1    2  501    0  0.50096039936E+02  0.52526804434E+02 -0.57762336835E+02  0.92764033752E+02  0.00000000000E+00 0.  1.
          1    1    1    2  502    0 -0.34963335026E+03 -0.11171154875E+03 -0.22032593683E+03  0.42809633049E+03  0.00000000000E+00 0.  1.
<mgrwt>
<rscale>  4 0.36222455E+03</rscale>
<asrwt>0</asrwt>
<pdfrwt beam="1">  1        2 0.12753720E+00 0.36222455E+03</pdfrwt>
<pdfrwt beam="2">  1        1 0.28421889E-01 0.36222455E+03</pdfrwt>
<totfact> 0.74170391E+02</totfact>
</mgrwt>
</event>
<event>
 5    0  0.1226227E+000  0.3030015E+03  0.7546771E-02  0.1083750E+00
          2   -1    0    0  502    0  0.00000000000E+00  0.00000000000E+00  0.13592859025E+04  0.13592859025E+04  0.00000000000E+00 0.  1.
         -2   -1    0    0    0  501 -0.00000000000E+00 -0.00000000000E+00 -0.12208463372E+03  0.12208463372E+03  0.00000000000E+00 0.  1.
         25    1    1    2    0    0 -0.17170099142E+03 -0.23906127227E+03  0.67919923511E+03  0.75071174450E+03  0.12500000000E+03 0.  0.
          2    1    1    2  502    0  0.16272029416E+03  0.20579893866E+03  0.61242049940E+03  0.66625067758E+03  0.00000000000E+00 0.  1.
         -2    1    1    2    0  501  0.89806972580E+01  0.33262333605E+02 -0.54418465713E+02  0.64408114168E+02  0.00000000000E+00 0.  1.
<mgrwt>
<rscale>  4 0.30300146E+03</rscale>
<asrwt>0</asrwt>
<pdfrwt beam="1">  1        2 0.20912090E+00 0.30300146E+03</pdfrwt>
<pdfrwt beam="2">  1       -2 0.18782252E-01 0.30300146E+03</pdfrwt>
<totfact> 0.38163053E+02</totfact>
</mgrwt>
</event>
<event>
 5    0  0.1226227E+000  0.3469975E+03  0.7546771E-02  0.1063854E+00
         -2   -1    0    0    0  501 -0.00000000000E+00  0.00000000000E+00  0.10148707521E+04  0.10148707521E+04  0.00000000000E+00 0.  1.
          3   -1    0    0  501    0  0.00000000000E+00 -0.00000000000E+00 -0.45229925381E+03  0.45229925381E+03  0.00000000000E+00 0.  1.
         25    1    1    2    0    0  0.13613628527E+03  0.22911284668E+03  0.65929108861E+03  0.72202183083E+03  0.12500000000E+03 0.  0.
          3    1    1    2  502    0 -0.13851512720E+03 -0.29865398035E+03 -0.35117122122E+03  0.48135420124E+03  0.00000000000E+00 0.  1.
         -2    1    1    2    0  502  0.23788419255E+01  0.69541133666E+02  0.25445163091E+03  0.26379397383E+03  0.00000000000E+00 0.  1.
<mgrwt>
<rscale>  4 0.34699745E+03</rscale>
<asrwt>0</asrwt>
<pdfrwt beam="1">  1        3 0.69584501E-01 0.34699745E+03</pdfrwt>
<pdfrwt beam="2">  1       -2 0.15613396E+00 0.34699745E+03</pdfrwt>
<totfact> 0.23088057E+00</totfact>
</mgrwt>
</event>
<event>
 5    0  0.1226227E+000  0.1946608E+03  0.7546771E-02  0.1154324E+00
          1   -1    0    0  502    0  0.00000000000E+00  0.00000000000E+00  0.96180826316E+03  0.96180826316E+03  0.00000000000E+00 0. -1.
         -1   -1    0    0    0  501 -0.00000000000E+00 -0.00000000000E+00 -0.83890264059E+03  0.83890264059E+03  0.00000000000E+00 0. -1.
         25    1    1    2    0    0 -0.14729271569E+03  0.16267245531E+03 -0.21682495341E+03  0.33285962842E+03  0.12500000000E+03 0.  0.
          1    1    1    2  502    0  0.45001983742E+02 -0.68641483351E+02  0.89332456589E+03  0.89708729330E+03  0.00000000000E+00 0. -1.
         -1    1    1    2    0  501  0.10229073195E+03 -0.94030971961E+02 -0.55359398990E+03  0.57076398203E+03  0.00000000000E+00 0. -1.
<mgrwt>
<rscale>  4 0.19466076E+03</rscale>
<asrwt>0</asrwt>
<pdfrwt beam="1">  1        1 0.14797050E+00 0.19466076E+03</pdfrwt>
<pdfrwt beam="2">  1       -1 0.12906194E+00 0.19466076E+03</pdfrwt>
<totfact> 0.10026993E+01</totfact>
</mgrwt>
</event>
<event>
 5    0  0.1226227E+000  0.2430001E+03  0.7546771E-02  0.1117810E+00
          1   -1    0    0  501    0 -0.00000000000E+00  0.00000000000E+00  0.33654507329E+03  0.33654507329E+03  0.00000000000E+00 0. -1.
          4   -1    0    0  502    0  0.00000000000E+00 -0.00000000000E+00 -0.16635556493E+03  0.16635556493E+03  0.00000000000E+00 0. -1.
         25    1    1    2    0    0  0.17172264971E+03 -0.11012397974E+03  0.93081608322E+02  0.25671997418E+03  0.12500000000E+03 0.  0.
          4    1    1    2  501    0  0.16740646962E+02  0.11339193719E+02  0.11718396201E+01  0.20253389420E+02  0.00000000000E+00 0. -1.
          1    1    1    2  502    0 -0.18846329668E+03  0.98784786016E+02  0.75936060423E+02  0.22592727461E+03  0.00000000000E+00 0. -1.
<mgrwt>
<rscale>  4 0.24300008E+03</rscale>
<asrwt>0</asrwt>
<pdfrwt beam="1">  1        4 0.25593164E-01 0.24300008E+03</pdfrwt>
<pdfrwt beam="2">  1        1 0.51776165E-01 0.24300008E+03</pdfrwt>
<totfact> 0.50822980E+02</totfact>
</mgrwt>
</event>
<event>
 5    0  0.1226227E+000  0.2630745E+03  0.7546771E-02  0.1105310E+00
          2   -1    0    0  502    0  0.00000000000E+00  0.00000000000E+00  0.32369873624E+04  0.32369873624E+04  0.00000000000E+00 0.  1.
          1   -1    0    0  501    0 -0.00000000000E+00 -0.00000000000E+00 -0.36736294411E+03  0.36736294411E+03  0.00000000000E+00 0. -1.
         25    1    1    2    0    0 -0.13617912712E+03 -0.22052381061E+03  0.30420847508E+04  0.30556636164E+04  0.12500000000E+03 0.  0.
          2    1    1    2  501    0  0.56897846863E+02  0.11866142606E+03  0.15107447255E+03  0.20035317634E+03  0.00000000000E+00 0.  1.
          1    1    1    2  502    0  0.79281280258E+02  0.10186238455E+03 -0.32353480501E+03  0.34833351380E+03  0.00000000000E+00 0. -1.
<mgrwt>
<rscale>  4 0.26307452E+03</rscale>
<asrwt>0</asrwt>
<pdfrwt beam="1">  1        2 0.49799804E+00 0.26307452E+03</pdfrwt>
<pdfrwt beam="2">  1        1 0.56517378E-01 0.26307452E+03</pdfrwt>
<totfact> 0.13947618E+01</totfact>
</mgrwt>
</event>
<event>
 5    0  0.1226227E+000  0.2512579E+03  0.7546771E-02  0.1112512E+00
          2   -1    0    0  502    0  0.00000000000E+00  0.00000000000E+00  0.10097985353E+04  0.10097985353E+04  0.00000000000E+00 0.  1.
          1   -1    0    0  501    0 -0.00000000000E+00 -0.00000000000E+00 -0.31989314102E+03  0.31989314102E+03  0.00000000000E+00 0. -1.
         25    1    1    2    0    0 -0.20347917990E+03  0.26099155574E+02  0.30129222316E+03  0.38534003985E+03  0.12500000000E+03 0.  0.
          2    1    1    2  501    0 -0.15728044712E+02 -0.12509505932E+02  0.62289648405E+03  0.62322057810E+03  0.00000000000E+00 0.  1.
          1    1    1    2  502    0  0.21920722461E+03 -0.13589649642E+02 -0.23428331295E+03  0.32113105834E+03  0.00000000000E+00 0. -1.
<mgrwt>
<rscale>  4 0.25125789E+03</rscale>
<asrwt>0</asrwt>
<pdfrwt beam="1">  1        2 0.15535362E+00 0.25125789E+03</pdfrwt>
<pdfrwt beam="2">  1        1 0.49214330E-01 0.25125789E+03</pdfrwt>
<totfact> 0.28689255E+02</totfact>
</mgrwt>
</event>
<event>
 5    0  0.1226227E+000  0.2493659E+03  0.7546771E-02  0.1113706E+00
          2   -1    0    0  502    0  0.00000000000E+00  0.00000000000E+00  0.11381991655E+04  0.11381991655E+04  0.00000000000E+00 0.  1.
         -2   -1    0    0    0  501 -0.00000000000E+00 -0.00000000000E+00 -0.28482150141E+03  0.28482150141E+03  0.00000000000E+00 0. -1.
         25    1    1    2    0    0 -0.11988602321E+03  0.16493394839E+03 -0.19106894808E+03  0.30611796551E+03  0.12500000000E+03 0.  0.
          2    1    1    2  502    0  0.14658484408E+03 -0.15912607501E+03  0.10624021184E+04  0.10842077686E+04  0.00000000000E+00 0.  1.
         -2    1    1    2    0  501 -0.26698820872E+02 -0.58078733800E+01 -0.17955506223E+02  0.32694932832E+02  0.00000000000E+00 0. -1.
<mgrwt>
<rscale>  4 0.24936587E+03</rscale>
<asrwt>0</asrwt>
<pdfrwt beam="1">  1        2 0.17510756E+00 0.24936587E+03</pdfrwt>
<pdfrwt beam="2">  1       -2 0.43818693E-01 0.24936587E+03</pdfrwt>
<totfact> 0.11016356E+02</totfact>
</mgrwt>
</event>
<event>
 5    0  0.1226227E+000  0.2718264E+03  0.7546771E-02  0.1100239E+00
          2   -1    0    0  502    0  0.00000000000E+00  0.00000000000E+00  0.31094634668E+03  0.31094634668E+03  0.00000000000E+00 0.  1.
         -2   -1    0    0    0  501 -0.00000000000E+00 -0.00000000000E+00 -0.74858527386E+03  0.74858527386E+03  0.00000000000E+00 0.  1.
         25    1    1    2    0    0 -0.69812032631E+01  0.26912477436E+03 -0.61054396677E+03  0.67887098681E+03  0.12500000000E+03 0.  0.
          2    1    1    2  502    0 -0.31322911356E+02 -0.23723807552E+03  0.21012414536E+03  0.31845751006E+03  0.00000000000E+00 0.  1.
         -2    1    1    2    0  501  0.38304114619E+02 -0.31886698837E+02 -0.37219105766E+02  0.62203123664E+02  0.00000000000E+00 0.  1.
<mgrwt>
<rscale>  4 0.27182639E+03</rscale>
<asrwt>0</asrwt>
<pdfrwt beam="1">  1        2 0.47837899E-01 0.27182639E+03</pdfrwt>
<pdfrwt beam="2">  1       -2 0.11516697E+00 0.27182639E+03</pdfrwt>
<totfact> 0.65114749E+01</totfact>
</mgrwt>
</event>
<event>
 5    0  0.1226227E+000  0.3745369E+03  0.7546771E-02  0.1052972E+00
          2   -1    0    0  502    0  0.00000000000E+00  0.00000000000E+00  0.24496386340E+03  0.24496386340E+03  0.00000000000E+00 0. -1.
          2   -1    0    0  501    0 -0.00000000000E+00 -0.00000000000E+00 -0.16078274626E+04  0.16078274626E+04  0.00000000000E+00 0. -1.
         25    1    1    2    0    0 -0.21742663452E+03  0.25696292172E+03 -0.45813301158E+03  0.58207829443E+03  0.12500000000E+03 0.  0.
          2    1    1    2  501    0 -0.62574030525E+02 -0.30280311861E+02 -0.90778494985E+03  0.91044270647E+03  0.00000000000E+00 0. -1.
          2    1    1    2  502    0  0.28000066504E+03 -0.22668260986E+03  0.30543622241E+01  0.36027032512E+03  0.00000000000E+00 0. -1.
<mgrwt>
<rscale>  4 0.37453692E+03</rscale>
<asrwt>0</asrwt>
<pdfrwt beam="1">  1        2 0.37686749E-01 0.37453692E+03</pdfrwt>
<pdfrwt beam="2">  1        2 0.24735807E+00 0.37453692E+03</pdfrwt>
<totfact> 0.24758679E+02</totfact>
</mgrwt>
</event>
<event>
 5    0  0.1226227E+000  0.3278416E+03  0.7546771E-02  0.1072096E+00
          2   -1    0    0  502    0  0.00000000000E+00  0.00000000000E+00  0.12365997271E+04  0.12365997271E+04  0.00000000000E+00 0. -1.
          2   -1    0    0  501    0 -0.00000000000E+00 -0.00000000000E+00 -0.20331257345E+04  0.20331257345E+04  0.00000000000E+00 0. -1.
         25    1    1    2    0    0 -0.22846047726E+01 -0.33161944651E+03 -0.32791363831E+02  0.35591705532E+03  0.12500000000E+03 0.  0.
          2    1    1    2  501    0 -0.36325186553E+02  0.33035117832E+02  0.10621420385E+04  0.10632763273E+04  0.00000000000E+00 0. -1.
          2    1    1    2  502    0  0.38609791325E+02  0.29858432868E+03 -0.18258766821E+04  0.18505320790E+04  0.00000000000E+00 0. -1.
<mgrwt>
<rscale>  4 0.32784162E+03</rscale>
<asrwt>0</asrwt>
<pdfrwt beam="1">  1        2 0.19024611E+00 0.32784162E+03</pdfrwt>
<pdfrwt beam="2">  1        2 0.31278857E+00 0.32784162E+03</pdfrwt>
<totfact> 0.20713020E+01</totfact>
</mgrwt>
</event>
<event>
 5    0  0.1226227E+000  0.2741149E+03  0.7546771E-02  0.1098947E+00
          2   -1    0    0  502    0  0.00000000000E+00  0.00000000000E+00  0.12251205097E+03  0.12251205097E+03  0.00000000000E+00 0. -1.
          2   -1    0    0  501    0 -0.00000000000E+00 -0.00000000000E+00 -0.12825153017E+04  0.12825153017E+04  0.00000000000E+00 0. -1.
         25    1    1    2    0    0 -0.29197552091E+03  0.13877492665E+02 -0.53141959138E+03  0.61925283343E+03  0.12500000000E+03 0.  0.
          2    1    1    2  501    0  0.22046399000E+03 -0.42018052979E+02 -0.66418545300E+03  0.70107931338E+03  0.00000000000E+00 0. -1.
          2    1    1    2  502    0  0.71511530901E+02  0.28140560313E+02  0.35601793645E+02  0.84695205870E+02  0.00000000000E+00 0. -1.
<mgrwt>
<rscale>  4 0.27411495E+03</rscale>
<asrwt>0</asrwt>
<pdfrwt beam="1">  1        2 0.18848008E-01 0.27411495E+03</pdfrwt>
<pdfrwt beam="2">  1        2 0.19731004E+00 0.27411495E+03</pdfrwt>
<totfact> 0.82536109E+02</totfact>
</mgrwt>
</event>
<event>
 5    0  0.1226227E+000  0.2608906E+03  0.7546771E-02  0.1106609E+00
          2   -1    0    0  502    0  0.00000000000E+00  0.00000000000E+00  0.46426252393E+03  0.46426252393E+03  0.00000000000E+00 0.  1.
          1   -1    0    0  501    0 -0.00000000000E+00 -0.00000000000E+00 -0.54496723171E+03  0.54496723171E+03  0.00000000000E+00 0.  1.
         25    1    1    2    0    0 -0.94692163355E+02 -0.26397657017E+03 -0.24424009805E+03  0.39233717756E+03  0.12500000000E+03 0.  0.
          2    1    1    2  501    0  0.51242932984E+02  0.21795505998E+03  0.35250790948E+03  0.41760276891E+03  0.00000000000E+00 0.  1.
          1    1    1    2  502    0  0.43449230371E+02  0.46021510187E+02 -0.18897251922E+03  0.19928980917E+03  0.00000000000E+00 0.  1.
<mgrwt>
<rscale>  4 0.26089064E+03</rscale>
<asrwt>0</asrwt>
<pdfrwt beam="1">  1        2 0.71425004E-01 0.26089064E+03</pdfrwt>
<pdfrwt beam="2">  1        1 0.83841112E-01 0.26089064E+03</pdfrwt>
<totfact> 0.37189291E+02</totfact>
</mgrwt>
</event>
<event>
 5    0  0.1226227E+000  0.1907070E+03  0.7546771E-02  0.1157825E+00
          2   -1    0    0  502    0  0.00000000000E+00  0.00000000000E+00  0.44808751659E+03  0.44808751659E+03  0.00000000000E+00 0. -1.
          2   -1    0    0  501    0 -0.00000000000E+00 -0.00000000000E+00 -0.50476208148E+03  0.50476208148E+03  0.00000000000E+00 0. -1.
         25    1    1    2    0    0 -0.20222970194E+03  0.13339601522E+02  0.53655120343E+02  0.24408742133E+03  0.12500000000E+03 0.  0.
          2    1    1    2  501    0  0.13732007882E+03 -0.23967803528E+02 -0.39380913011E+03  0.41775218804E+03  0.00000000000E+00 0. -1.
          2    1    1    2  502    0  0.64909623117E+02  0.10628202006E+02  0.28347944488E+03  0.29100998869E+03  0.00000000000E+00 0. -1.
<mgrwt>
<rscale>  4 0.19070699E+03</rscale>
<asrwt>0</asrwt>
<pdfrwt beam="1">  1        2 0.68936541E-01 0.19070699E+03</pdfrwt>
<pdfrwt beam="2">  1        2 0.77655705E-01 0.19070699E+03</pdfrwt>
<totfact> 0.67879419E+02</totfact>
</mgrwt>
</event>
<event>
 5    0  0.1226227E+000  0.1818920E+03  0.7546771E-02  0.1165984E+00
          1   -1    0    0  502    0  0.00000000000E+00  0.00000000000E+00  0.38168593893E+03  0.38168593893E+03  0.00000000000E+00 0.  1.
          1   -1    0    0  501    0 -0.00000000000E+00 -0.00000000000E+00 -0.10640770597E+04  0.10640770597E+04  0.00000000000E+00 0.  1.
         25    1    1    2    0    0 -0.21423940135E+03 -0.10679865116E+03 -0.45486935263E+03  0.52899489689E+03  0.12500000000E+03 0.  0.
          1    1    1    2  501    0  0.11144203841E+03  0.27973235838E+02 -0.55386357657E+03  0.56565598317E+03  0.00000000000E+00 0.  1.
          1    1    1    2  502    0  0.10279736294E+03  0.78825415325E+02  0.32634180838E+03  0.35111211860E+03  0.00000000000E+00 0.  1.
<mgrwt>
<rscale>  4 0.18189196E+03</rscale>
<asrwt>0</asrwt>
<pdfrwt beam="1">  1        1 0.58720915E-01 0.18189196E+03</pdfrwt>
<pdfrwt beam="2">  1        1 0.16370416E+00 0.18189196E+03</pdfrwt>
<totfact> 0.11462073E+02</totfact>
</mgrwt>
</event>
<event>
 5    0  0.1226227E+000  0.2738087E+03  0.7546771E-02  0.1099119E+00
          2   -1    0    0  502    0  0.00000000000E+00  0.00000000000E+00  0.24686868580E+04  0.24686868580E+04  0.00000000000E+00 0.  1.
          2   -1    0    0  501    0 -0.00000000000E+00 -0.00000000000E+00 -0.32294512891E+03  0.32294512891E+03  0.00000000000E+00 0. -1.
         25    1    1    2    0    0 -0.28322968818E+03 -0.45897896386E+02  0.17372338542E+02  0.31345250248E+03  0.12500000000E+03 0.  0.
          2    1    1    2  501    0  0.48198486601E+02 -0.10851558631E+02 -0.16492935372E+03  0.17217009658E+03  0.00000000000E+00 0. -1.
          2    1    1    2  502    0  0.23503120158E+03  0.56749455017E+02  0.22932987443E+04  0.23060093879E+04  0.00000000000E+00 0.  1.
<mgrwt>
<rscale>  4 0.27380869E+03</rscale>
<asrwt>0</asrwt>
<pdfrwt beam="1">  1        2 0.37979796E+00 0.27380869E+03</pdfrwt>
<pdfrwt beam="2">  1        2 0.49683868E-01 0.27380869E+03</pdfrwt>
<totfact> 0.65475846E+01</totfact>
</mgrwt>
</event>
<event>
 5    0  0.1226227E+000  0.2601898E+03  0.7546771E-02  0.1107029E+00
          1   -1    0    0  501    0  0.00000000000E+00  0.00000000000E+00  0.56509035407E+03  0.56509035407E+03  0.00000000000E+00 0. -1.
         -2   -1    0    0    0  501 -0.00000000000E+00 -0.00000000000E+00 -0.68869054722E+03  0.68869054722E+03  0.00000000000E+00 0. -1.
         25    1    1    2    0    0  0.22422832842E+03 -0.10555095690E+03 -0.12759879598E+03  0.30549271760E+03  0.12500000000E+03 0.  0.
          1    1    1    2  502    0 -0.23053908534E+02  0.10706191027E+02  0.44957192421E+03  0.45028992911E+03  0.00000000000E+00 0. -1.
         -2    1    1    2    0  502 -0.20117441989E+03  0.94844765876E+02 -0.44557332138E+03  0.49799825458E+03  0.00000000000E+00 0. -1.
<mgrwt>
<rscale>  4 0.26018982E+03</rscale>
<asrwt>0</asrwt>
<pdfrwt beam="1">  1        1 0.86936978E-01 0.26018982E+03</pdfrwt>
<pdfrwt beam="2">  1       -2 0.10595239E+00 0.26018982E+03</pdfrwt>
<totfact> 0.25589357E+01</totfact>
</mgrwt>
</event>
<event>
 5    0  0.1226227E+000  0.2564565E+03  0.7546771E-02  0.1109291E+00
          1   -1    0    0  502    0  0.00000000000E+00  0.00000000000E+00  0.18341143874E+03  0.18341143874E+03  0.00000000000E+00 0.  1.
          3   -1    0    0  501    0 -0.00000000000E+00 -0.00000000000E+00 -0.14802240553E+04  0.14802240553E+04  0.00000000000E+00 0.  1.
         25    1    1    2    0    0 -0.38777326292E+02  0.23506130976E+03 -0.70988957004E+03  0.75916118317E+03  0.12500000000E+03 0.  0.
          1    1    1    2  501    0  0.83587663997E+01 -0.22281078290E+02  0.14227778484E+03  0.14425423212E+03  0.00000000000E+00 0.  1.
          3    1    1    2  502    0  0.30418559892E+02 -0.21278023147E+03 -0.72920083133E+03  0.76022007872E+03  0.00000000000E+00 0.  1.
<mgrwt>
<rscale>  4 0.25645647E+03</rscale>
<asrwt>0</asrwt>
<pdfrwt beam="1">  1        1 0.28217145E-01 0.25645647E+03</pdfrwt>
<pdfrwt beam="2">  1        3 0.22772678E+00 0.25645647E+03</pdfrwt>
<totfact> 0.96398418E+00</totfact>
</mgrwt>
</event>
<event>
 5    0  0.1226227E+000  0.1949179E+03  0.7546771E-02  0.1154099E+00
         -3   -1    0    0    0  501 -0.00000000000E+00  0.00000000000E+00  0.13855155922E+03  0.13855155922E+03  0.00000000000E+00 0.  1.
          2   -1    0    0  501    0  0.00000000000E+00 -0.00000000000E+00 -0.51781690083E+03  0.51781690083E+03  0.00000000000E+00 0.  1.
         25    1    1    2    0    0  0.22307995380E+03 -0.28285964935E+02 -0.10078831501E+03  0.27631150183E+03  0.12500000000E+03 0.  0.
          2    1    1    2  502    0 -0.12336590360E+03  0.55280284465E+02 -0.22803930251E+03  0.26509805641E+03  0.00000000000E+00 0.  1.
         -3    1    1    2    0  502 -0.99714050194E+02 -0.26994319530E+02 -0.50437724086E+02  0.11495890180E+03  0.00000000000E+00 0.  1.
<mgrwt>
<rscale>  4 0.19491789E+03</rscale>
<asrwt>0</asrwt>
<pdfrwt beam="1">  1        2 0.79664137E-01 0.19491789E+03</pdfrwt>
<pdfrwt beam="2">  1       -3 0.21315625E-01 0.19491789E+03</pdfrwt>
<totfact> 0.74064942E+02</totfact>
</mgrwt>
</event>
<event>
 5    0  0.1226227E+000  0.3347778E+03  0.7546771E-02  0.1069042E+00
          2   -1    0    0  502    0  0.00000000000E+00  0.00000000000E+00  0.68517148849E+03  0.68517148849E+03  0.00000000000E+00 0.  1.
         -2   -1    0    0    0  501 -0.00000000000E+00 -0.00000000000E+00 -0.70226556585E+03  0.70226556585E+03  0.00000000000E+00 0.  1.
         25    1    1    2    0    0  0.32314235634E+03 -0.70028350973E+02 -0.72473602957E+02  0.36083566277E+03  0.12500000000E+03 0.  0.
          2    1    1    2  502    0 -0.34314572780E+02 -0.26015291179E+02  0.49226251879E+03  0.49414236075E+03  0.00000000000E+00 0.  1.
         -2    1    1    2    0  501 -0.28882778356E+03  0.96043642152E+02 -0.43688299319E+03  0.53245903082E+03  0.00000000000E+00 0.  1.
<mgrwt>
<rscale>  4 0.33477784E+03</rscale>
<asrwt>0</asrwt>
<pdfrwt beam="1">  1        2 0.10541100E+00 0.33477784E+03</pdfrwt>
<pdfrwt beam="2">  1       -2 0.10804086E+00 0.33477784E+03</pdfrwt>
<totfact> 0.30812381E+01</totfact>
</mgrwt>
</event>
<event>
 5    0  0.1226227E+000  0.5525208E+03  0.7546771E-02  0.1000912E+00
          1   -1    0    0  501    0 -0.00000000000E+00  0.00000000000E+00  0.60774464894E+03  0.60774464894E+03  0.00000000000E+00 0. -1.
          2   -1    0    0  502    0  0.00000000000E+00 -0.00000000000E+00 -0.13024100895E+04  0.13024100895E+04  0.00000000000E+00 0. -1.
         25    1    1    2    0    0  0.35899467813E+03  0.38009748270E+03 -0.47018872546E+03  0.71418044837E+03  0.12500000000E+03 0.  0.
          2    1    1    2  501    0  0.19668848966E+02  0.78789050042E+01 -0.55869476578E+03  0.55909639784E+03  0.00000000000E+00 0. -1.
          1    1    1    2  502    0 -0.37866352710E+03 -0.38797638771E+03  0.33421805071E+03  0.63687789221E+03  0.00000000000E+00 0. -1.
<mgrwt>
<rscale>  4 0.55252079E+03</rscale>
<asrwt>0</asrwt>
<pdfrwt beam="1">  1        2 0.20037078E+00 0.55252079E+03</pdfrwt>
<pdfrwt beam="2">  1        1 0.93499177E-01 0.55252079E+03</pdfrwt>
<totfact> 0.77682833E+01</totfact>
</mgrwt>
</event>
<event>
 5    0  0.1226227E+000  0.1852710E+03  0.7546771E-02  0.1162797E+00
          4   -1    0    0  501    0 -0.00000000000E+00  0.00000000000E+00  0.16531262915E+03  0.16531262915E+03  0.00000000000E+00 0.  1.
          2   -1    0    0  502    0  0.00000000000E+00 -0.00000000000E+00 -0.12930783469E+04  0.12930783469E+04  0.00000000000E+00 0.  1.
         25    1    1    2    0    0  0.18466633645E+03 -0.95343344726E+02 -0.42551374845E+03  0.48977439635E+03  0.12500000000E+03 0.  0.
          2    1    1    2  501    0 -0.92539547646E+02  0.45343525847E+00 -0.79925925224E+03  0.80459873588E+03  0.00000000000E+00 0.  1.
          4    1    1    2  502    0 -0.92126788806E+02  0.94889909467E+02  0.97007282963E+02  0.16401784379E+03  0.00000000000E+00 0.  1.
<mgrwt>
<rscale>  4 0.18527097E+03</rscale>
<asrwt>0</asrwt>
<pdfrwt beam="1">  1        2 0.19893513E+00 0.18527097E+03</pdfrwt>
<pdfrwt beam="2">  1        4 0.25432712E-01 0.18527097E+03</pdfrwt>
<totfact> 0.13825068E+02</totfact>
</mgrwt>
</event>
<event>
 5    0  0.1226227E+000  0.2576246E+03  0.7546771E-02  0.1108579E+00
         -2   -1    0    0    0  501 -0.00000000000E+00  0.00000000000E+00  0.20657282599E+03  0.20657282599E+03  0.00000000000E+00 0. -1.
          2   -1    0    0  502    0  0.00000000000E+00 -0.00000000000E+00 -0.19840409783E+04  0.19840409783E+04  0.00000000000E+00 0.  1.
         25    1    1    2    0    0  0.41494510450E+02  0.20262059830E+03 -0.35665477410E+03  0.43081844104E+03  0.12500000000E+03 0.  0.
          2    1    1    2  502    0 -0.96091555642E+02 -0.20944844620E+03 -0.15772342648E+04  0.15939793489E+04  0.00000000000E+00 0.  1.
         -2    1    1    2    0  501  0.54597045192E+02  0.68278479046E+01  0.15642088659E+03  0.16581601434E+03  0.00000000000E+00 0. -1.
<mgrwt>
<rscale>  4 0.25762456E+03</rscale>
<asrwt>0</asrwt>
<pdfrwt beam="1">  1        2 0.30523707E+00 0.25762456E+03</pdfrwt>
<pdfrwt beam="2">  1       -2 0.31780435E-01 0.25762456E+03</pdfrwt>
<totfact> 0.70755474E+01</totfact>
</mgrwt>
</event>
<event>
 5    0  0.1226227E+000  0.2065605E+03  0.7546771E-02  0.1144319E+00
          1   -1    0    0  501    0 -0.00000000000E+00  0.00000000000E+00  0.28120741795E+03  0.28120741795E+03  0.00000000000E+00 0. -1.
          2   -1    0    0  502    0  0.00000000000E+00 -0.00000000000E+00 -0.18555355775E+04  0.18555355775E+04  0.00000000000E+00 0.  1.
         25    1    1    2    0    0 -0.22186385246E+03  0.61752030273E+01 -0.28241632589E+03  0.38032313011E+03  0.12500000000E+03 0.  0.
          2    1    1    2  501    0  0.62590643183E+02 -0.18577634247E+02 -0.14958974684E+04  0.14973215931E+04  0.00000000000E+00 0.  1.
          1    1    1    2  502    0  0.15927320928E+03  0.12402431220E+02  0.20398563477E+03  0.25909827226E+03  0.00000000000E+00 0. -1.
<mgrwt>
<rscale>  4 0.20656053E+03</rscale>
<asrwt>0</asrwt>
<pdfrwt beam="1">  1        2 0.28546701E+00 0.20656053E+03</pdfrwt>
<pdfrwt beam="2">  1        1 0.43262680E-01 0.20656053E+03</pdfrwt>
<totfact> 0.11814356E+02</totfact>
</mgrwt>
</event>
<event>
 5    0  0.1226227E+000  0.3336289E+03  0.7546771E-02  0.1069542E+00
         -4   -1    0    0    0  501 -0.00000000000E+00  0.00000000000E+00  0.22400978681E+04  0.22400978681E+04  0.00000000000E+00 0.  1.
          2   -1    0    0  501    0  0.00000000000E+00 -0.00000000000E+00 -0.35918543882E+04  0.35918543882E+04  0.00000000000E+00 0.  1.
         25    1    1    2    0    0  0.25606969706E+03  0.13868956827E+03 -0.25876181269E+04  0.26069520626E+04  0.12500000000E+03 0.  0.
          2    1    1    2  502    0  0.29948960896E+02 -0.20676874146E+02 -0.98350071538E+03  0.98417383146E+03  0.00000000000E+00 0.  1.
         -4    1    1    2    0  502 -0.28601865796E+03 -0.11801269413E+03  0.22193623221E+04  0.22408263622E+04  0.00000000000E+00 0.  1.
<mgrwt>
<rscale>  4 0.33362895E+03</rscale>
<asrwt>0</asrwt>
<pdfrwt beam="1">  1        2 0.55259297E+00 0.33362895E+03</pdfrwt>
<pdfrwt beam="2">  1       -4 0.34463045E+00 0.33362895E+03</pdfrwt>
<totfact> 0.84965311E-03</totfact>
</mgrwt>
</event>
<event>
 5    0  0.1226227E+000  0.2363752E+03  0.7546771E-02  0.1122231E+00
          2   -1    0    0  501    0  0.00000000000E+00  0.00000000000E+00  0.17832618669E+04  0.17832618669E+04  0.00000000000E+00 0.  1.
         -4   -1    0    0    0  501 -0.00000000000E+00 -0.00000000000E+00 -0.27049560139E+03  0.27049560139E+03  0.00000000000E+00 0.  1.
         25    1    1    2    0    0  0.18589025978E+03 -0.91286222151E+02 -0.20629672274E+03  0.31791775799E+03  0.12500000000E+03 0.  0.
          2    1    1    2  502    0 -0.18937797795E+03  0.65863642672E+02  0.16504635158E+04  0.16625979235E+04  0.00000000000E+00 0.  1.
         -4    1    1    2    0  502  0.34877181764E+01  0.25422579479E+02  0.68599472433E+02  0.73241786868E+02  0.00000000000E+00 0.  1.
<mgrwt>
<rscale>  4 0.23637524E+03</rscale>
<asrwt>0</asrwt>
<pdfrwt beam="1">  1        2 0.27434797E+00 0.23637524E+03</pdfrwt>
<pdfrwt beam="2">  1       -4 0.41614709E-01 0.23637524E+03</pdfrwt>
<totfact> 0.29330715E+01</totfact>
</mgrwt>
</event>
<event>
 5    0  0.1226227E+000  0.3714441E+03  0.7546771E-02  0.1054142E+00
          1   -1    0    0  501    0 -0.00000000000E+00  0.00000000000E+00  0.34735000577E+03  0.34735000577E+03  0.00000000000E+00 0. -1.
          2   -1    0    0  502    0  0.00000000000E+00 -0.00000000000E+00 -0.13526435116E+04  0.13526435116E+04  0.00000000000E+00 0.  1.
         25    1    1    2    0    0  0.26757213939E+03 -0.25091401412E+03 -0.15232967224E+03  0.41639166815E+03  0.12500000000E+03 0.  0.
          2    1    1    2  501    0 -0.24052283407E+03  0.24905282933E+03 -0.10392214768E+04  0.10953811315E+04  0.00000000000E+00 0.  1.
          1    1    1    2  502    0 -0.27049305322E+02  0.18611847902E+01  0.18625764318E+03  0.18822071770E+03  0.00000000000E+00 0. -1.
<mgrwt>
<rscale>  4 0.37144413E+03</rscale>
<asrwt>0</asrwt>
<pdfrwt beam="1">  1        2 0.20809900E+00 0.37144413E+03</pdfrwt>
<pdfrwt beam="2">  1        1 0.53438463E-01 0.37144413E+03</pdfrwt>
<totfact> 0.15947808E+02</totfact>
</mgrwt>
</event>
<event>
 5    0  0.1226227E+000  0.1948869E+03  0.7546771E-02  0.1154126E+00
         -3   -1    0    0    0  501 -0.00000000000E+00  0.00000000000E+00  0.14470209527E+03  0.14470209527E+03  0.00000000000E+00 0.  1.
          2   -1    0    0  501    0  0.00000000000E+00 -0.00000000000E+00 -0.88735514316E+03  0.88735514316E+03  0.00000000000E+00 0. -1.
         25    1    1    2    0    0 -0.18331852752E+03  0.10408211302E+03 -0.21230287052E+03  0.32424724766E+03  0.12500000000E+03 0.  0.
          2    1    1    2  502    0  0.57715058442E+02 -0.48841079115E+02 -0.56194213104E+03  0.56700567688E+03  0.00000000000E+00 0. -1.
         -3    1    1    2    0  502  0.12560346907E+03 -0.55241033908E+02  0.31591953671E+02  0.14080431388E+03  0.00000000000E+00 0.  1.
<mgrwt>
<rscale>  4 0.19488687E+03</rscale>
<asrwt>0</asrwt>
<pdfrwt beam="1">  1        2 0.13651617E+00 0.19488687E+03</pdfrwt>
<pdfrwt beam="2">  1       -3 0.22261861E-01 0.19488687E+03</pdfrwt>
<totfact> 0.35875137E+02</totfact>
</mgrwt>
</event>
<event>
 5    0  0.1226227E+000  0.2993993E+03  0.7546771E-02  0.1085541E+00
          1   -1    0    0  502    0  0.00000000000E+00  0.00000000000E+00  0.51947597049E+03  0.51947597049E+03  0.00000000000E+00 0.  1.
         -1   -1    0    0    0  501 -0.00000000000E+00 -0.00000000000E+00 -0.32885902420E+03  0.32885902420E+03  0.00000000000E+00 0.  1.
         25    1    1    2    0    0  0.14541127662E+03 -0.21264292161E+03 -0.75426995965E+02  0.29610079905E+03  0.12500000000E+03 0.  0.
          1    1    1    2  502    0  0.42455600504E+02 -0.11775457291E+02  0.25560561675E+03  0.25937496163E+03  0.00000000000E+00 0.  1.
         -1    1    1    2    0  501 -0.18786687712E+03  0.22441837890E+03  0.10438325514E+02  0.29285923401E+03  0.00000000000E+00 0.  1.
<mgrwt>
<rscale>  4 0.29939926E+03</rscale>
<asrwt>0</asrwt>
<pdfrwt beam="1">  1        1 0.79919380E-01 0.29939926E+03</pdfrwt>
<pdfrwt beam="2">  1       -1 0.50593696E-01 0.29939926E+03</pdfrwt>
<totfact> 0.17353280E+02</totfact>
</mgrwt>
</event>
<event>
 5    0  0.1226227E+000  0.3051922E+03  0.7546771E-02  0.1082674E+00
          1   -1    0    0  502    0  0.00000000000E+00  0.00000000000E+00  0.71934500538E+03  0.71934500538E+03  0.00000000000E+00 0. -1.
          1   -1    0    0  501    0 -0.00000000000E+00 -0.00000000000E+00 -0.83928011884E+03  0.83928011884E+03  0.00000000000E+00 0. -1.
         25    1    1    2    0    0  0.18089018403E+02  0.30325901892E+03 -0.15253724777E+03  0.36219588223E+03  0.12500000000E+03 0.  0.
          1    1    1    2  501    0 -0.52658490340E+01 -0.27078684787E+03 -0.54984871664E+03  0.61293299579E+03  0.00000000000E+00 0. -1.
          1    1    1    2  502    0 -0.12823169369E+02 -0.32472171055E+02  0.58245085095E+03  0.58349624620E+03  0.00000000000E+00 0. -1.
<mgrwt>
<rscale>  4 0.30519219E+03</rscale>
<asrwt>0</asrwt>
<pdfrwt beam="1">  1        1 0.11066846E+00 0.30519219E+03</pdfrwt>
<pdfrwt beam="2">  1        1 0.12912002E+00 0.30519219E+03</pdfrwt>
<totfact> 0.69237917E+01</totfact>
</mgrwt>
</event>
<event>
 5    0  0.1226227E+000  0.2045540E+03  0.7546771E-02  0.1145953E+00
         -1   -1    0    0    0  501 -0.00000000000E+00  0.00000000000E+00  0.78953032929E+03  0.78953032929E+03  0.00000000000E+00 0.  1.
          1   -1    0    0  502    0  0.00000000000E+00 -0.00000000000E+00 -0.43336718625E+03  0.43336718625E+03  0.00000000000E+00 0. -1.
         25    1    1    2    0    0  0.14375505698E+03 -0.15271046826E+03  0.28308169501E+03  0.37382649662E+03  0.12500000000E+03 0.  0.
          1    1    1    2  502    0 -0.42984981465E+02  0.42758300441E+02 -0.37342454365E+03  0.37831451292E+03  0.00000000000E+00 0. -1.
         -1    1    1    2    0  501 -0.10077007552E+03  0.10995216782E+03  0.44650599169E+03  0.47075650600E+03  0.00000000000E+00 0.  1.
<mgrwt>
<rscale>  4 0.20455404E+03</rscale>
<asrwt>0</asrwt>
<pdfrwt beam="1">  1        1 0.66671875E-01 0.20455404E+03</pdfrwt>
<pdfrwt beam="2">  1       -1 0.12146620E+00 0.20455404E+03</pdfrwt>
<totfact> 0.36251060E+01</totfact>
</mgrwt>
</event>
<event>
 5    0  0.1226227E+000  0.3652636E+03  0.7546771E-02  0.1056519E+00
          2   -1    0    0  501    0  0.00000000000E+00  0.00000000000E+00  0.67444060550E+03  0.67444060550E+03  0.00000000000E+00 0.  1.
         -1   -1    0    0    0  501 -0.00000000000E+00 -0.00000000000E+00 -0.70330605959E+03  0.70330605959E+03  0.00000000000E+00 0.  1.
         25    1    1    2    0    0  0.27415023334E+03 -0.17972629833E+03  0.15338452212E+03  0.38289907858E+03  0.12500000000E+03 0.  0.
          2    1    1    2  502    0  0.22721927237E+02  0.16672774325E+01  0.35499797430E+03  0.35572830580E+03  0.00000000000E+00 0.  1.
         -1    1    1    2    0  502 -0.29687216058E+03  0.17805902090E+03 -0.53724795051E+03  0.63911928071E+03  0.00000000000E+00 0.  1.
<mgrwt>
<rscale>  4 0.36526357E+03</rscale>
<asrwt>0</asrwt>
<pdfrwt beam="1">  1        2 0.10376009E+00 0.36526357E+03</pdfrwt>
<pdfrwt beam="2">  1       -1 0.10820093E+00 0.36526357E+03</pdfrwt>
<totfact> 0.41802633E+01</totfact>
</mgrwt>
</event>
<event>
 5    0  0.1226227E+000  0.3463092E+03  0.7546771E-02  0.1064140E+00
          1   -1    0    0  501    0 -0.00000000000E+00  0.00000000000E+00  0.12763076516E+04  0.12763076516E+04  0.00000000000E+00 0. -1.
          2   -1    0    0  502    0  0.00000000000E+00 -0.00000000000E+00 -0.45834658407E+03  0.45834658407E+03  0.00000000000E+00 0. -1.
         25    1    1    2    0    0  0.29838161685E+03 -0.20468513408E+03 -0.21130419695E+03  0.43726657434E+03  0.12500000000E+03 0.  0.
          2    1    1    2  501    0 -0.17529933238E+02  0.50449075371E+02 -0.10550252077E+03  0.11825053765E+03  0.00000000000E+00 0. -1.
          1    1    1    2  502    0 -0.28085168361E+03  0.15423605871E+03  0.11347677853E+04  0.11791371237E+04  0.00000000000E+00 0. -1.
<mgrwt>
<rscale>  4 0.34630920E+03</rscale>
<asrwt>0</asrwt>
<pdfrwt beam="1">  1        2 0.70514860E-01 0.34630920E+03</pdfrwt>
<pdfrwt beam="2">  1        1 0.19635502E+00 0.34630920E+03</pdfrwt>
<totfact> 0.93437334E+01</totfact>
</mgrwt>
</event>
<event>
 5    0  0.1226227E+000  0.2667345E+03  0.7546771E-02  0.1103163E+00
          1   -1    0    0  502    0  0.00000000000E+00  0.00000000000E+00  0.48685654147E+03  0.48685654147E+03  0.00000000000E+00 0.  1.
          1   -1    0    0  501    0 -0.00000000000E+00 -0.00000000000E+00 -0.37877871233E+03  0.37877871233E+03  0.00000000000E+00 0.  1.
         25    1    1    2    0    0 -0.29039649849E+03  0.46415187326E+02 -0.13599697587E+03  0.34728183568E+03  0.12500000000E+03 0.  0.
          1    1    1    2  501    0  0.95268895014E+02 -0.76630605167E+02  0.29079144967E+03  0.31544901206E+03  0.00000000000E+00 0.  1.
          1    1    1    2  502    0  0.19512760347E+03  0.30215417842E+02 -0.46716644662E+02  0.20290440607E+03  0.00000000000E+00 0.  1.
<mgrwt>
<rscale>  4 0.26673454E+03</rscale>
<asrwt>0</asrwt>
<pdfrwt beam="1">  1        1 0.74901007E-01 0.26673454E+03</pdfrwt>
<pdfrwt beam="2">  1        1 0.58273648E-01 0.26673454E+03</pdfrwt>
<totfact> 0.36489704E+02</totfact>
</mgrwt>
</event>
<event>
 5    0  0.1226227E+000  0.2397747E+03  0.7546771E-02  0.1119943E+00
          2   -1    0    0  502    0  0.00000000000E+00  0.00000000000E+00  0.29426817085E+03  0.29426817085E+03  0.00000000000E+00 0. -1.
          1   -1    0    0  501    0 -0.00000000000E+00 -0.00000000000E+00 -0.53166736898E+03  0.53166736898E+03  0.00000000000E+00 0.  1.
         25    1    1    2    0    0  0.19438351004E+03  0.10374586636E+03 -0.18843576259E+03  0.31572328135E+03  0.12500000000E+03 0.  0.
          2    1    1    2  501    0 -0.13164301804E+02 -0.28057932697E+02  0.19475989779E+03  0.19721045666E+03  0.00000000000E+00 0. -1.
          1    1    1    2  502    0 -0.18121920824E+03 -0.75687933665E+02 -0.24372333333E+03  0.31300180183E+03  0.00000000000E+00 0.  1.
<mgrwt>
<rscale>  4 0.23977471E+03</rscale>
<asrwt>0</asrwt>
<pdfrwt beam="1">  1        2 0.45272027E-01 0.23977471E+03</pdfrwt>
<pdfrwt beam="2">  1        1 0.81794979E-01 0.23977471E+03</pdfrwt>
<totfact> 0.63349722E+02</totfact>
</mgrwt>
</event>
<event>
 5    0  0.1226227E+000  0.2095742E+03  0.7546771E-02  0.1141904E+00
          1   -1    0    0  501    0 -0.00000000000E+00  0.00000000000E+00  0.83471313057E+03  0.83471313057E+03  0.00000000000E+00 0. -1.
          2   -1    0    0  502    0  0.00000000000E+00 -0.00000000000E+00 -0.32537383517E+03  0.32537383517E+03  0.00000000000E+00 0. -1.
         25    1    1    2    0    0 -0.34455656325E+02  0.21127044864E+03  0.15587860264E+03  0.29282338274E+03  0.12500000000E+03 0.  0.
          2    1    1    2  501    0 -0.33147288963E+02 -0.64085794551E+02 -0.24077343888E+03  0.25135150825E+03  0.00000000000E+00 0. -1.
          1    1    1    2  502    0  0.67602945288E+02 -0.14718465409E+03  0.59423413164E+03  0.61591207475E+03  0.00000000000E+00 0. -1.
<mgrwt>
<rscale>  4 0.20957425E+03</rscale>
<asrwt>0</asrwt>
<pdfrwt beam="1">  1        2 0.50057513E-01 0.20957425E+03</pdfrwt>
<pdfrwt beam="2">  1        1 0.12841740E+00 0.20957425E+03</pdfrwt>
<totfact> 0.29859044E+02</totfact>
</mgrwt>
</event>
<event>
 5    0  0.1226227E+000  0.2289215E+03  0.7546771E-02  0.1127401E+00
          2   -1    0    0  502    0  0.00000000000E+00  0.00000000000E+00  0.79758334698E+03  0.79758334698E+03  0.00000000000E+00 0.  1.
          2   -1    0    0  501    0 -0.00000000000E+00 -0.00000000000E+00 -0.10555220124E+04  0.10555220124E+04  0.00000000000E+00 0. -1.
         25    1    1    2    0    0 -0.77528847436E+02  0.23476264319E+03  0.38213349722E+03  0.47199071020E+03  0.12500000000E+03 0.  0.
          2    1    1    2  501    0  0.36087667227E+02 -0.48685204592E+02  0.35896853006E+03  0.36404803865E+03  0.00000000000E+00 0.  1.
          2    1    1    2  502    0  0.41441180210E+02 -0.18607743860E+03 -0.99904069272E+03  0.10170666105E+04  0.00000000000E+00 0. -1.
<mgrwt>
<rscale>  4 0.22892150E+03</rscale>
<asrwt>0</asrwt>
<pdfrwt beam="1">  1        2 0.12270513E+00 0.22892150E+03</pdfrwt>
<pdfrwt beam="2">  1        2 0.16238800E+00 0.22892150E+03</pdfrwt>
<totfact> 0.13722805E+02</totfact>
</mgrwt>
</event>
<event>
 5    0  0.1226227E+000  0.2550753E+03  0.7546771E-02  0.1110139E+00
          1   -1    0    0  501    0 -0.00000000000E+00  0.00000000000E+00  0.35834665891E+03  0.35834665891E+03  0.00000000000E+00 0.  1.
          2   -1    0    0  502    0  0.00000000000E+00 -0.00000000000E+00 -0.86549609051E+03  0.86549609051E+03  0.00000000000E+00 0.  1.
         25    1    1    2    0    0  0.22766810236E+03  0.11599180755E+02 -0.34681074019E+03  0.43343972515E+03  0.12500000000E+03 0.  0.
          2    1    1    2  501    0 -0.21724499398E+03  0.43781524154E+02 -0.44664579002E+03  0.49860271862E+03  0.00000000000E+00 0.  1.
          1    1    1    2  502    0 -0.10423108376E+02 -0.55380704909E+02  0.28630709861E+03  0.29180030565E+03  0.00000000000E+00 0.  1.
<mgrwt>
<rscale>  4 0.25507525E+03</rscale>
<asrwt>0</asrwt>
<pdfrwt beam="1">  1        2 0.13315324E+00 0.25507525E+03</pdfrwt>
<pdfrwt beam="2">  1        1 0.55130255E-01 0.25507525E+03</pdfrwt>
<totfact> 0.30640417E+02</totfact>
</mgrwt>
</event>
<event>
 5    0  0.1226227E+000  0.2671714E+03  0.7546771E-02  0.1102909E+00
          2   -1    0    0  502    0  0.00000000000E+00  0.00000000000E+00  0.13734546518E+03  0.13734546518E+03  0.00000000000E+00 0. -1.
          2   -1    0    0  501    0 -0.00000000000E+00 -0.00000000000E+00 -0.34969533473E+04  0.34969533473E+04  0.00000000000E+00 0.  1.
         25    1    1    2    0    0  0.20314590092E+03 -0.17612494876E+03 -0.27195284705E+04  0.27356440478E+04  0.12500000000E+03 0.  0.
          2    1    1    2  501    0 -0.28376379072E+02  0.19258885680E+02 -0.66191110463E+03  0.66279893935E+03  0.00000000000E+00 0.  1.
          2    1    1    2  502    0 -0.17476952185E+03  0.15686606308E+03  0.21831692993E+02  0.23585582531E+03  0.00000000000E+00 0. -1.
<mgrwt>
<rscale>  4 0.26717144E+03</rscale>
<asrwt>0</asrwt>
<pdfrwt beam="1">  1        2 0.21130073E-01 0.26717144E+03</pdfrwt>
<pdfrwt beam="2">  1        2 0.53799277E+00 0.26717144E+03</pdfrwt>
<totfact> 0.41235048E+01</totfact>
</mgrwt>
</event>
<event>
 5    0  0.1226227E+000  0.3339717E+03  0.7546771E-02  0.1069393E+00
          1   -1    0    0  502    0  0.00000000000E+00  0.00000000000E+00  0.15332824430E+04  0.15332824430E+04  0.00000000000E+00 0.  1.
         -1   -1    0    0    0  501 -0.00000000000E+00 -0.00000000000E+00 -0.78558940256E+03  0.78558940256E+03  0.00000000000E+00 0.  1.
         25    1    1    2    0    0  0.13919942017E+03 -0.23273179901E+03  0.11990295779E+03  0.32177987528E+03  0.12500000000E+03 0.  0.
          1    1    1    2  502    0  0.29944627249E+02 -0.34277336711E+02  0.12755337339E+04  0.12763455342E+04  0.00000000000E+00 0.  1.
         -1    1    1    2    0  501 -0.16914404742E+03  0.26700913572E+03 -0.64774365124E+03  0.72074643603E+03  0.00000000000E+00 0.  1.
<mgrwt>
<rscale>  4 0.33397172E+03</rscale>
<asrwt>0</asrwt>
<pdfrwt beam="1">  1        1 0.23588961E+00 0.33397172E+03</pdfrwt>
<pdfrwt beam="2">  1       -1 0.12085991E+00 0.33397172E+03</pdfrwt>
<totfact> 0.43864609E+00</totfact>
</mgrwt>
</event>
<event>
 5    0  0.1226227E+000  0.2589877E+03  0.7546771E-02  0.1107753E+00
          2   -1    0    0  502    0  0.00000000000E+00  0.00000000000E+00  0.27299587453E+04  0.27299587453E+04  0.00000000000E+00 0. -1.
          1   -1    0    0  501    0 -0.00000000000E+00 -0.00000000000E+00 -0.74305096003E+03  0.74305096003E+03  0.00000000000E+00 0. -1.
         25    1    1    2    0    0 -0.18711746293E+03 -0.14106279753E+03 -0.35744965932E+03  0.44531664771E+03  0.12500000000E+03 0.  0.
          2    1    1    2  501    0  0.15615972115E+03  0.16443907221E+03  0.26801200695E+04  0.26896969447E+04  0.00000000000E+00 0. -1.
          1    1    1    2  502    0  0.30957741783E+02 -0.23376274687E+02 -0.33576262500E+03  0.33799611291E+03  0.00000000000E+00 0. -1.
<mgrwt>
<rscale>  4 0.25898770E+03</rscale>
<asrwt>0</asrwt>
<pdfrwt beam="1">  1        2 0.41999365E+00 0.25898770E+03</pdfrwt>
<pdfrwt beam="2">  1        1 0.11431553E+00 0.25898770E+03</pdfrwt>
<totfact> 0.10706128E+01</totfact>
</mgrwt>
</event>
<event>
 5    0  0.1226227E+000  0.3183352E+03  0.7546771E-02  0.1076418E+00
          1   -1    0    0  501    0 -0.00000000000E+00  0.00000000000E+00  0.32967674284E+03  0.32967674284E+03  0.00000000000E+00 0. -1.
          2   -1    0    0  502    0  0.00000000000E+00 -0.00000000000E+00 -0.16337630848E+04  0.16337630848E+04  0.00000000000E+00 0.  1.
         25    1    1    2    0    0 -0.23116933500E+03  0.15309662261E+02 -0.42350792194E+03  0.49865580028E+03  0.12500000000E+03 0.  0.
          2    1    1    2  501    0  0.32432243475E+03 -0.74952940719E+02 -0.11374250868E+04  0.11851324032E+04  0.00000000000E+00 0.  1.
          1    1    1    2  502    0 -0.93153099747E+02  0.59643278459E+02  0.25684666679E+03  0.27965162417E+03  0.00000000000E+00 0. -1.
<mgrwt>
<rscale>  4 0.31833524E+03</rscale>
<asrwt>0</asrwt>
<pdfrwt beam="1">  1        2 0.25134816E+00 0.31833524E+03</pdfrwt>
<pdfrwt beam="2">  1        1 0.50719500E-01 0.31833524E+03</pdfrwt>
<totfact> 0.12151799E+02</totfact>
</mgrwt>
</event>
<event>
 5    0  0.1226227E+000  0.2835290E+03  0.7546771E-02  0.1093777E+00
         -1   -1    0    0    0  501 -0.00000000000E+00  0.00000000000E+00  0.47285676034E+03  0.47285676034E+03  0.00000000000E+00 0.  1.
          1   -1    0    0  502    0  0.00000000000E+00 -0.00000000000E+00 -0.85770766329E+03  0.85770766329E+03  0.00000000000E+00 0. -1.
         25    1    1    2    0    0  0.12110043529E+03 -0.19160431525E+03 -0.72393121964E+03  0.76881658399E+03  0.12500000000E+03 0.  0.
          1    1    1    2  502    0  0.21455430901E+02 -0.20855925663E+02 -0.71762466866E+02  0.77750606436E+02  0.00000000000E+00 0. -1.
         -1    1    1    2    0  501 -0.14255586619E+03  0.21246024091E+03  0.41084278356E+03  0.48399723321E+03  0.00000000000E+00 0.  1.
<mgrwt>
<rscale>  4 0.28352900E+03</rscale>
<asrwt>0</asrwt>
<pdfrwt beam="1">  1        1 0.13195502E+00 0.28352900E+03</pdfrwt>
<pdfrwt beam="2">  1       -1 0.72747195E-01 0.28352900E+03</pdfrwt>
<totfact> 0.41489502E+01</totfact>
</mgrwt>
</event>
<event>
 5    0  0.1226227E+000  0.5149654E+03  0.7546771E-02  0.1009945E+00
          2   -1    0    0  501    0  0.00000000000E+00  0.00000000000E+00  0.70208057016E+03  0.70208057016E+03  0.00000000000E+00 0. -1.
         -1   -1    0    0    0  501 -0.00000000000E+00 -0.00000000000E+00 -0.87805479273E+03  0.87805479273E+03  0.00000000000E+00 0.  1.
         25    1    1    2    0    0 -0.49986353104E+03 -0.23474600621E+03 -0.46601994656E+03  0.73332723097E+03  0.12500000000E+03 0.  0.
          2    1    1    2  502    0  0.45580220730E+03  0.18070111644E+03  0.45426054880E+03  0.66840196877E+03  0.00000000000E+00 0. -1.
         -1    1    1    2    0  502  0.44061323736E+02  0.54044889767E+02 -0.16421482481E+03  0.17840616314E+03  0.00000000000E+00 0.  1.
<mgrwt>
<rscale>  4 0.51496540E+03</rscale>
<asrwt>0</asrwt>
<pdfrwt beam="1">  1        2 0.10801240E+00 0.51496540E+03</pdfrwt>
<pdfrwt beam="2">  1       -1 0.13508535E+00 0.51496540E+03</pdfrwt>
<totfact> 0.22626942E+01</totfact>
</mgrwt>
</event>
<event>
 5    0  0.1226227E+000  0.3471400E+03  0.7546771E-02  0.1063795E+00
          1   -1    0    0  502    0  0.00000000000E+00  0.00000000000E+00  0.45456127229E+03  0.45456127229E+03  0.00000000000E+00 0.  1.
          1   -1    0    0  501    0 -0.00000000000E+00 -0.00000000000E+00 -0.92154837266E+03  0.92154837266E+03  0.00000000000E+00 0.  1.
         25    1    1    2    0    0 -0.26275423495E+03 -0.25428147653E+03  0.19066607489E+02  0.38689454999E+03  0.12500000000E+03 0.  0.
          1    1    1    2  501    0  0.23410025152E+01  0.72770779389E+02  0.21104254822E+03  0.22324879347E+03  0.00000000000E+00 0.  1.
          1    1    1    2  502    0  0.26041323243E+03  0.18151069714E+03 -0.69709625608E+03  0.76596630150E+03  0.00000000000E+00 0.  1.
<mgrwt>
<rscale>  4 0.34713995E+03</rscale>
<asrwt>0</asrwt>
<pdfrwt beam="1">  1        1 0.69932504E-01 0.34713995E+03</pdfrwt>
<pdfrwt beam="2">  1        1 0.14177667E+00 0.34713995E+03</pdfrwt>
<totfact> 0.11145819E+02</totfact>
</mgrwt>
</event>
<event>
 5    0  0.1226227E+000  0.2962770E+03  0.7546771E-02  0.1087117E+00
          2   -1    0    0  502    0  0.00000000000E+00  0.00000000000E+00  0.12446363732E+04  0.12446363732E+04  0.00000000000E+00 0. -1.
         -2   -1    0    0    0  501 -0.00000000000E+00 -0.00000000000E+00 -0.13306661341E+03  0.13306661341E+03  0.00000000000E+00 0. -1.
         25    1    1    2    0    0 -0.20689022324E+03 -0.19075921118E+03  0.17071032360E+03  0.35207904753E+03  0.12500000000E+03 0.  0.
          2    1    1    2  502    0  0.35622112428E+01  0.43355169210E+02  0.60342409977E+03  0.60499008606E+03  0.00000000000E+00 0. -1.
         -2    1    1    2    0  501  0.20332801200E+03  0.14740404197E+03  0.33743533644E+03  0.42063385305E+03  0.00000000000E+00 0. -1.
<mgrwt>
<rscale>  4 0.29627701E+03</rscale>
<asrwt>0</asrwt>
<pdfrwt beam="1">  1        2 0.19148251E+00 0.29627701E+03</pdfrwt>
<pdfrwt beam="2">  1       -2 0.20471788E-01 0.29627701E+03</pdfrwt>
<totfact> 0.38168829E+02</totfact>
</mgrwt>
</event>
<event>
 5    0  0.1226227E+000  0.3900974E+03  0.7546771E-02  0.1047264E+00
          1   -1    0    0  501    0 -0.00000000000E+00  0.00000000000E+00  0.40904436538E+03  0.40904436538E+03  0.00000000000E+00 0.  1.
          2   -1    0    0  502    0  0.00000000000E+00 -0.00000000000E+00 -0.74022567038E+03  0.74022567038E+03  0.00000000000E+00 0. -1.
         25    1    1    2    0    0 -0.35365301599E+03  0.71332814865E+02 -0.38754907642E+03  0.54403870527E+03  0.12500000000E+03 0.  0.
          2    1    1    2  501    0 -0.19081981560E+02 -0.11322494242E+03 -0.14063997383E+03  0.18155883853E+03  0.00000000000E+00 0. -1.
          1    1    1    2  502    0  0.37273499755E+03  0.41892127555E+02  0.19700774526E+03  0.42367249196E+03  0.00000000000E+00 0.  1.
<mgrwt>
<rscale>  4 0.39009742E+03</rscale>
<asrwt>0</asrwt>
<pdfrwt beam="1">  1        2 0.11388087E+00 0.39009742E+03</pdfrwt>
<pdfrwt beam="2">  1        1 0.62929902E-01 0.39009742E+03</pdfrwt>
<totfact> 0.30929948E+02</totfact>
</mgrwt>
</event>
<event>
 5    0  0.1226227E+000  0.3074326E+03  0.7546771E-02  0.1081583E+00
          4   -1    0    0  501    0 -0.00000000000E+00  0.00000000000E+00  0.11786667606E+03  0.11786667606E+03  0.00000000000E+00 0.  1.
          2   -1    0    0  502    0  0.00000000000E+00 -0.00000000000E+00 -0.14182507545E+04  0.14182507545E+04  0.00000000000E+00 0.  1.
         25    1    1    2    0    0  0.12271238940E+03 -0.23232550808E+03 -0.53737248198E+03  0.61108727413E+03  0.12500000000E+03 0.  0.
          2    1    1    2  501    0 -0.16484548260E+03  0.24379131074E+03 -0.80944923143E+03  0.86128757949E+03  0.00000000000E+00 0.  1.
          4    1    1    2  502    0  0.42133093206E+02 -0.11465802666E+02  0.46437634966E+02  0.63742576941E+02  0.00000000000E+00 0.  1.
<mgrwt>
<rscale>  4 0.30743256E+03</rscale>
<asrwt>0</asrwt>
<pdfrwt beam="1">  1        2 0.21819242E+00 0.30743256E+03</pdfrwt>
<pdfrwt beam="2">  1        4 0.18133335E-01 0.30743256E+03</pdfrwt>
<totfact> 0.22122676E+02</totfact>
</mgrwt>
</event>
