<event>
 5    0  0.4130728E+000  0.3510232E+03  0.7546771E-02  0.1062196E+00
         21   -1    0    0  502  501  0.00000000000E+00  0.00000000000E+00  0.67476620287E+03  0.67476620287E+03  0.00000000000E+00 0.  1.
         21   -1    0    0  503  502 -0.00000000000E+00 -0.00000000000E+00 -0.19807415452E+03  0.19807415452E+03  0.00000000000E+00 0.  1.
         25    1    1    2    0    0 -0.33224471861E+03 -0.10245622474E+02  0.12881713858E+03  0.37777027545E+03  0.12500000000E+03 0.  0.
         21    1    1    2  503  504  0.10798272846E+02  0.27543343351E+02  0.20885953569E+02  0.36214106586E+02  0.00000000000E+00 0.  1.
         21    1    1    2  504  501  0.32144644576E+03 -0.17297720876E+02  0.32698895620E+03  0.45885597536E+03  0.00000000000E+00 0.  1.
<mgrwt>
<rscale>  4 0.35102321E+03</rscale>
<asrwt>0</asrwt>
<pdfrwt beam="1">  1       21 0.10381018E+00 0.35102321E+03</pdfrwt>
<pdfrwt beam="2">  1       21 0.30472947E-01 0.35102321E+03</pdfrwt>
<totfact> 0.71045165E+03</totfact>
</mgrwt>
</event>
<event>
 5    0  0.2516398E+000  0.3597242E+03  0.7546771E-02  0.1058693E+00
         21   -1    0    0  502  501  0.00000000000E+00  0.00000000000E+00  0.23233350845E+03  0.23233350845E+03  0.00000000000E+00 0.  1.
         21   -1    0    0  503  502 -0.00000000000E+00 -0.00000000000E+00 -0.56426340119E+03  0.56426340119E+03  0.00000000000E+00 0.  1.
         25    1    1    2    0    0  0.22841121073E+03  0.24820325270E+03 -0.22768045551E+03  0.42572282727E+03  0.12500000000E+03 0.  0.
         21    1    1    2  503  504 -0.13339521252E+03 -0.21892265690E+03 -0.79660058547E+02  0.26845323123E+03  0.00000000000E+00 0.  1.
         21    1    1    2  504  501 -0.95015998206E+02 -0.29280595802E+02 -0.24589378689E+02  0.10242085115E+03  0.00000000000E+00 0. -1.
<mgrwt>
<rscale>  4 0.35972425E+03</rscale>
<asrwt>0</asrwt>
<pdfrwt beam="1">  1       21 0.35743617E-01 0.35972425E+03</pdfrwt>
<pdfrwt beam="2">  1       21 0.86809754E-01 0.35972425E+03</pdfrwt>
<totfact> 0.78832039E+03</totfact>
</mgrwt>
</event>
<event>
 5    0  0.4767882E+000  0.2736145E+03  0.7546771E-02  0.1099229E+00
         21   -1    0    0  502  501  0.00000000000E+00  0.00000000000E+00  0.15994030046E+03  0.15994030046E+03  0.00000000000E+00 0. -1.
         21   -1    0    0  503  502 -0.00000000000E+00 -0.00000000000E+00 -0.43022226952E+03  0.43022226952E+03  0.00000000000E+00 0. -1.
         25    1    1    2    0    0  0.16113283544E+03 -0.18241738462E+03 -0.11480356230E+03  0.29672335733E+03  0.12500000000E+03 0.  0.
         21    1    1    2  503  504 -0.17650444450E+02  0.15105825519E+02  0.80368690118E+00  0.23245861277E+02  0.00000000000E+00 0. -1.
         21    1    1    2  504  501 -0.14348239099E+03  0.16731155910E+03 -0.15628209366E+03  0.27019335138E+03  0.00000000000E+00 0. -1.
<mgrwt>
<rscale>  4 0.27361450E+03</rscale>
<asrwt>0</asrwt>
<pdfrwt beam="1">  1       21 0.24606200E-01 0.27361450E+03</pdfrwt>
<pdfrwt beam="2">  1       21 0.66188041E-01 0.27361450E+03</pdfrwt>
<totfact> 0.31475130E+04</totfact>
</mgrwt>
</event>
<event>
 5    0  0.2159162E+000  0.4020712E+03  0.7546771E-02  0.1043065E+00
         21   -1    0    0  502  501  0.00000000000E+00  0.00000000000E+00  0.42992513740E+03  0.42992513740E+03  0.00000000000E+00 0.  1.
         21   -1    0    0  503  502 -0.00000000000E+00 -0.00000000000E+00 -0.44600567695E+03  0.44600567695E+03  0.00000000000E+00 0. -1.
         25    1    1    2    0    0 -0.26258127644E+03 -0.27764610457E+03  0.18464506895E+03  0.44244218560E+03  0.12500000000E+03 0.  0.
         21    1    1    2  503  504  0.18500703737E+02  0.18586435476E+02 -0.26206837406E+02  0.37074653731E+02  0.00000000000E+00 0. -1.
         21    1    1    2  504  501  0.24408057270E+03  0.25905966909E+03 -0.17451877110E+03  0.39641397501E+03  0.00000000000E+00 0. -1.
<mgrwt>
<rscale>  4 0.40207125E+03</rscale>
<asrwt>0</asrwt>
<pdfrwt beam="1">  1       21 0.66142329E-01 0.40207125E+03</pdfrwt>
<pdfrwt beam="2">  1       21 0.68616258E-01 0.40207125E+03</pdfrwt>
<totfact> 0.36131750E+03</totfact>
</mgrwt>
</event>
<event>
 5    0  0.2159162E+000  0.3998799E+03  0.7546771E-02  0.1043821E+00
         21   -1    0    0  502  501  0.00000000000E+00  0.00000000000E+00  0.15466892912E+04  0.15466892912E+04  0.00000000000E+00 0. -1.
         21   -1    0    0  503  502 -0.00000000000E+00 -0.00000000000E+00 -0.19937352121E+03  0.19937352121E+03  0.00000000000E+00 0.  1.
         25    1    1    2    0    0 -0.14025073184E+03  0.35299950623E+03  0.12906296975E+04  0.13511583679E+04  0.12500000000E+03 0.  0.
         21    1    1    2  503  504  0.14954357861E+03 -0.32391833709E+03  0.37246887799E+02  0.35871116746E+03  0.00000000000E+00 0.  1.
         21    1    1    2  504  501 -0.92928467710E+01 -0.29081169138E+02  0.19439184686E+02  0.36193277011E+02  0.00000000000E+00 0. -1.
<mgrwt>
<rscale>  4 0.39987988E+03</rscale>
<asrwt>0</asrwt>
<pdfrwt beam="1">  1       21 0.23795219E+00 0.39987988E+03</pdfrwt>
<pdfrwt beam="2">  1       21 0.30672850E-01 0.39987988E+03</pdfrwt>
<totfact> 0.67205586E+02</totfact>
</mgrwt>
</event>
<event>
 5    0  0.2159162E+000  0.2861534E+03  0.7546771E-02  0.1092375E+00
         21   -1    0    0  502  501  0.00000000000E+00  0.00000000000E+00  0.96231542906E+03  0.96231542906E+03  0.00000000000E+00 0.  1.
         21   -1    0    0  503  502 -0.00000000000E+00 -0.00000000000E+00 -0.41717017317E+03  0.41717017317E+03  0.00000000000E+00 0.  1.
         25    1    1    2    0    0 -0.61697001182E+02  0.25146091583E+03  0.88111372858E+03  0.92683629344E+03  0.12500000000E+03 0.  0.
         21    1    1    2  503  504 -0.30538188987E+02 -0.34313585878E+02 -0.50075564039E+01  0.46206912724E+02  0.00000000000E+00 0.  1.
         21    1    1    2  504  501  0.92235190169E+02 -0.21714732996E+03 -0.33096091628E+03  0.40644239606E+03  0.00000000000E+00 0.  1.
<mgrwt>
<rscale>  4 0.28615339E+03</rscale>
<asrwt>0</asrwt>
<pdfrwt beam="1">  1       21 0.14804853E+00 0.28615339E+03</pdfrwt>
<pdfrwt beam="2">  1       21 0.64180027E-01 0.28615339E+03</pdfrwt>
<totfact> 0.63659538E+02</totfact>
</mgrwt>
</event>
<event>
 5    0  0.2408628E+000  0.2919310E+03  0.7546771E-02  0.1089345E+00
         21   -1    0    0  502  501  0.00000000000E+00  0.00000000000E+00  0.89793341457E+03  0.89793341457E+03  0.00000000000E+00 0. -1.
         21   -1    0    0  503  502 -0.00000000000E+00 -0.00000000000E+00 -0.11394312885E+03  0.11394312885E+03  0.00000000000E+00 0. -1.
         25    1    1    2    0    0 -0.25255368903E+03  0.76258466500E+02  0.63421250111E+03  0.69817563415E+03  0.12500000000E+03 0.  0.
         21    1    1    2  503  504  0.20166282228E+03 -0.33011340619E+02  0.13612369167E+03  0.24553472653E+03  0.00000000000E+00 0. -1.
         21    1    1    2  504  501  0.50890866750E+02 -0.43247125881E+02  0.13654092943E+02  0.68166182742E+02  0.00000000000E+00 0. -1.
<mgrwt>
<rscale>  4 0.29193102E+03</rscale>
<asrwt>0</asrwt>
<pdfrwt beam="1">  1       21 0.13814360E+00 0.29193102E+03</pdfrwt>
<pdfrwt beam="2">  1       21 0.17529713E-01 0.29193102E+03</pdfrwt>
<totfact> 0.10275683E+04</totfact>
</mgrwt>
</event>
<event>
 5    0  0.2172093E+000  0.2451723E+03  0.7546771E-02  0.1116394E+00
         21   -1    0    0  502  501  0.00000000000E+00  0.00000000000E+00  0.93084500642E+02  0.93084500642E+02  0.00000000000E+00 0. -1.
         21   -1    0    0  503  502 -0.00000000000E+00 -0.00000000000E+00 -0.12025952359E+04  0.12025952359E+04  0.00000000000E+00 0. -1.
         25    1    1    2    0    0 -0.73702102412E+02 -0.19761697857E+03 -0.10386905813E+03  0.26626725551E+03  0.12500000000E+03 0.  0.
         21    1    1    2  503  504 -0.49931694665E+01  0.39913675778E+02 -0.26832622711E+03  0.27132452416E+03  0.00000000000E+00 0. -1.
         21    1    1    2  504  501  0.78695271878E+02  0.15770330279E+03 -0.73731545000E+03  0.75808795686E+03  0.00000000000E+00 0. -1.
<mgrwt>
<rscale>  4 0.24517233E+03</rscale>
<asrwt>0</asrwt>
<pdfrwt beam="1">  1       21 0.14320693E-01 0.24517233E+03</pdfrwt>
<pdfrwt beam="2">  1       21 0.18501464E+00 0.24517233E+03</pdfrwt>
<totfact> 0.68950699E+03</totfact>
</mgrwt>
</event>
<event>
 5    0  0.2159162E+000  0.1991036E+03  0.7546771E-02  0.1150497E+00
         21   -1    0    0  502  501  0.00000000000E+00  0.00000000000E+00  0.11469257146E+04  0.11469257146E+04  0.00000000000E+00 0. -1.
         21   -1    0    0  503  502 -0.00000000000E+00 -0.00000000000E+00 -0.56373053194E+02  0.56373053194E+02  0.00000000000E+00 0. -1.
         25    1    1    2    0    0  0.19747133323E+03 -0.61265543487E+02  0.56497923270E+03  0.61447125860E+03  0.12500000000E+03 0.  0.
         21    1    1    2  503  504 -0.82279611718E+02 -0.11786669012E+02  0.56954597913E+02  0.10076053937E+03  0.00000000000E+00 0. -1.
         21    1    1    2  504  501 -0.11519172151E+03  0.73052212500E+02  0.46861883077E+03  0.48806696980E+03  0.00000000000E+00 0. -1.
<mgrwt>
<rscale>  4 0.19910362E+03</rscale>
<asrwt>0</asrwt>
<pdfrwt beam="1">  1       21 0.17645009E+00 0.19910362E+03</pdfrwt>
<pdfrwt beam="2">  1       21 0.86727783E-02 0.19910362E+03</pdfrwt>
<totfact> 0.19964806E+04</totfact>
</mgrwt>
</event>
<event>
 5    0  0.2159162E+000  0.3415174E+03  0.7546771E-02  0.1066151E+00
         21   -1    0    0  502  501  0.00000000000E+00  0.00000000000E+00  0.14701550189E+03  0.14701550189E+03  0.00000000000E+00 0.  1.
         21   -1    0    0  503  502 -0.00000000000E+00 -0.00000000000E+00 -0.11596997276E+04  0.11596997276E+04  0.00000000000E+00 0.  1.
         25    1    1    2    0    0  0.26576621188E+03  0.25017227293E+03 -0.29846285524E+03  0.48777343252E+03  0.12500000000E+03 0.  0.
         21    1    1    2  503  504 -0.22055048039E+03 -0.20631078051E+03 -0.68674319623E+03  0.75021521587E+03  0.00000000000E+00 0.  1.
         21    1    1    2  504  501 -0.45215731490E+02 -0.43861492422E+02 -0.27478174257E+02  0.68726581118E+02  0.00000000000E+00 0.  1.
<mgrwt>
<rscale>  4 0.34151744E+03</rscale>
<asrwt>0</asrwt>
<pdfrwt beam="1">  1       21 0.22617770E-01 0.34151744E+03</pdfrwt>
<pdfrwt beam="2">  1       21 0.17841534E+00 0.34151744E+03</pdfrwt>
<totfact> 0.30759872E+03</totfact>
</mgrwt>
</event>
<event>
 5    0  0.2227153E+000  0.2463258E+03  0.7546771E-02  0.1115649E+00
         21   -1    0    0  502  501  0.00000000000E+00  0.00000000000E+00  0.46947206020E+02  0.46947206020E+02  0.00000000000E+00 0. -1.
         21   -1    0    0  503  502 -0.00000000000E+00 -0.00000000000E+00 -0.22119214331E+04  0.22119214331E+04  0.00000000000E+00 0. -1.
         25    1    1    2    0    0  0.15438809099E+03 -0.24517952207E+03 -0.10939779166E+04  0.11385786590E+04  0.12500000000E+03 0.  0.
         21    1    1    2  503  504 -0.11748882593E+03  0.13756728552E+03 -0.87642318413E+03  0.89489998320E+03  0.00000000000E+00 0. -1.
         21    1    1    2  504  501 -0.36899265061E+02  0.10761223655E+03 -0.19457312635E+03  0.22538999693E+03  0.00000000000E+00 0. -1.
<mgrwt>
<rscale>  4 0.24632583E+03</rscale>
<asrwt>0</asrwt>
<pdfrwt beam="1">  1       21 0.72226487E-02 0.24632583E+03</pdfrwt>
<pdfrwt beam="2">  1       21 0.34029553E+00 0.24632583E+03</pdfrwt>
<totfact> 0.26833133E+03</totfact>
</mgrwt>
</event>
<event>
 5    0  0.2159162E+000  0.2366533E+03  0.7546771E-02  0.1122043E+00
         21   -1    0    0  502  501  0.00000000000E+00  0.00000000000E+00  0.39794395138E+03  0.39794395138E+03  0.00000000000E+00 0. -1.
         21   -1    0    0  503  502 -0.00000000000E+00 -0.00000000000E+00 -0.13204094497E+03  0.13204094497E+03  0.00000000000E+00 0. -1.
         25    1    1    2    0    0  0.14654167921E+03 -0.13749656115E+03  0.17136513199E+03  0.29218277933E+03  0.12500000000E+03 0.  0.
         21    1    1    2  503  504 -0.80344895606E+02  0.11714531987E+03  0.90500522164E+02  0.16843002324E+03  0.00000000000E+00 0. -1.
         21    1    1    2  504  501 -0.66196783608E+02  0.20351241272E+02  0.40373522624E+01  0.69372093775E+02  0.00000000000E+00 0. -1.
<mgrwt>
<rscale>  4 0.23665327E+03</rscale>
<asrwt>0</asrwt>
<pdfrwt beam="1">  1       21 0.61222146E-01 0.23665327E+03</pdfrwt>
<pdfrwt beam="2">  1       21 0.20313992E-01 0.23665327E+03</pdfrwt>
<totfact> 0.54536844E+04</totfact>
</mgrwt>
</event>
<event>
 5    0  0.2159162E+000  0.2888448E+03  0.7546771E-02  0.1090954E+00
         21   -1    0    0  502  501  0.00000000000E+00  0.00000000000E+00  0.64834717655E+03  0.64834717655E+03  0.00000000000E+00 0.  1.
         21   -1    0    0  503  502 -0.00000000000E+00 -0.00000000000E+00 -0.16596373513E+04  0.16596373513E+04  0.00000000000E+00 0.  1.
         25    1    1    2    0    0 -0.22189709999E+03  0.13819768871E+03  0.59616582029E+03  0.66285413888E+03  0.12500000000E+03 0.  0.
         21    1    1    2  503  504  0.57590292295E+02  0.86059423656E+00 -0.61494303637E+02  0.84255158708E+02  0.00000000000E+00 0.  1.
         21    1    1    2  504  501  0.16430680769E+03 -0.13905828294E+03 -0.15459616914E+04  0.15608752303E+04  0.00000000000E+00 0.  1.
<mgrwt>
<rscale>  4 0.28884478E+03</rscale>
<asrwt>0</asrwt>
<pdfrwt beam="1">  1       21 0.99745718E-01 0.28884478E+03</pdfrwt>
<pdfrwt beam="2">  1       21 0.25532883E+00 0.28884478E+03</pdfrwt>
<totfact> 0.44926223E+01</totfact>
</mgrwt>
</event>
<event>
 5    0  0.2159162E+000  0.3176416E+03  0.7546771E-02  0.1076740E+00
         21   -1    0    0  502  501  0.00000000000E+00  0.00000000000E+00  0.61686871087E+03  0.61686871087E+03  0.00000000000E+00 0. -1.
         21   -1    0    0  503  502 -0.00000000000E+00 -0.00000000000E+00 -0.35474883120E+03  0.35474883120E+03  0.00000000000E+00 0. -1.
         25    1    1    2    0    0 -0.13667648455E+03 -0.25805175456E+03  0.49708795148E+03  0.58990897684E+03  0.12500000000E+03 0.  0.
         21    1    1    2  503  504  0.99714651361E+02  0.21991230355E+03 -0.21967959571E+03  0.32644074152E+03  0.00000000000E+00 0. -1.
         21    1    1    2  504  501  0.36961833191E+02  0.38139451005E+02 -0.15288476094E+02  0.55267823705E+02  0.00000000000E+00 0. -1.
<mgrwt>
<rscale>  4 0.31764157E+03</rscale>
<asrwt>0</asrwt>
<pdfrwt beam="1">  1       21 0.94902878E-01 0.31764157E+03</pdfrwt>
<pdfrwt beam="2">  1       21 0.54576743E-01 0.31764157E+03</pdfrwt>
<totfact> 0.27045859E+03</totfact>
</mgrwt>
</event>
