<event>
 5    0  0.5478350E+000  0.2333857E+03  0.7546771E-02  0.1124279E+00
         21   -1    0    0  502  501  0.00000000000E+00  0.00000000000E+00  0.73916549794E+02  0.73916549794E+02  0.00000000000E+00 0. -1.
         21   -1    0    0  503  502 -0.00000000000E+00 -0.00000000000E+00 -0.12244033236E+04  0.12244033236E+04  0.00000000000E+00 0.  1.
         25    1    1    2    0    0 -0.10388945667E+03 -0.17166969298E+03 -0.16421554174E+03  0.28784587342E+03  0.12500000000E+03 0.  0.
         21    1    1    2  503  504  0.70886525359E+02  0.17058247075E+03 -0.88048412236E+03  0.89965302675E+03  0.00000000000E+00 0.  1.
         21    1    1    2  504  501  0.33002931309E+02  0.10872222350E+01 -0.10578710967E+03  0.11082097319E+03  0.00000000000E+00 0. -1.
<mgrwt>
<rscale>  4 0.23338572E+03</rscale>
<asrwt>0</asrwt>
<pdfrwt beam="1">  1       21 0.11371776E-01 0.23338572E+03</pdfrwt>
<pdfrwt beam="2">  1       21 0.18836976E+00 0.23338572E+03</pdfrwt>
<totfact> 0.10009642E+04</totfact>
</mgrwt>
</event>
<event>
 5    0  0.2159162E+000  0.4670498E+03  0.7546771E-02  0.1022941E+00
         21   -1    0    0  502  501  0.00000000000E+00  0.00000000000E+00  0.33234035764E+03  0.33234035764E+03  0.00000000000E+00 0.  1.
         21   -1    0    0  503  502 -0.00000000000E+00 -0.00000000000E+00 -0.79183767462E+03  0.79183767462E+03  0.00000000000E+00 0.  1.
         25    1    1    2    0    0 -0.29602805935E+03 -0.33536446352E+03  0.63667841239E+01  0.46450777308E+03  0.12500000000E+03 0.  0.
         21    1    1    2  503  504  0.56818108596E+02  0.96087084152E+01 -0.95198410712E+02  0.11128055600E+03  0.00000000000E+00 0. -1.
         21    1    1    2  504  501  0.23920995075E+03  0.32575575510E+03 -0.37066569039E+03  0.54838970318E+03  0.00000000000E+00 0.  1.
<mgrwt>
<rscale>  4 0.46640202E+03</rscale>
<asrwt>0</asrwt>
<pdfrwt beam="1">  1       21 0.51129286E-01 0.46704977E+03</pdfrwt>
<pdfrwt beam="2">  1       21 0.12182118E+00 0.46704977E+03</pdfrwt>
<totfact> 0.15739027E+03</totfact>
</mgrwt>
</event>
<event>
 5    0  0.4723970E+000  0.2727988E+03  0.7546771E-02  0.1099688E+00
         21   -1    0    0  502  501  0.00000000000E+00  0.00000000000E+00  0.53781105854E+03  0.53781105854E+03  0.00000000000E+00 0.  1.
         21   -1    0    0  503  502 -0.00000000000E+00 -0.00000000000E+00 -0.17266404133E+03  0.17266404133E+03  0.00000000000E+00 0.  1.
         25    1    1    2    0    0  0.24086299555E+03  0.27913746765E+02  0.37027673068E+03  0.45991740255E+03  0.12500000000E+03 0.  0.
         21    1    1    2  503  504 -0.22173107999E+03 -0.41711599860E+02 -0.12148778044E+02  0.22594716684E+03  0.00000000000E+00 0.  1.
         21    1    1    2  504  501 -0.19131915566E+02  0.13797853095E+02  0.70190645741E+01  0.24610530485E+02  0.00000000000E+00 0.  1.
<mgrwt>
<rscale>  4 0.27279875E+03</rscale>
<asrwt>0</asrwt>
<pdfrwt beam="1">  1       21 0.82740162E-01 0.27279875E+03</pdfrwt>
<pdfrwt beam="2">  1       21 0.26563699E-01 0.27279875E+03</pdfrwt>
<totfact> 0.16444633E+04</totfact>
</mgrwt>
</event>
<event>
 5    0  0.3175722E+000  0.2312624E+03  0.7546771E-02  0.1125754E+00
         21   -1    0    0  502  501  0.00000000000E+00  0.00000000000E+00  0.42372542513E+02  0.42372542513E+02  0.00000000000E+00 0. -1.
         21   -1    0    0  503  502 -0.00000000000E+00 -0.00000000000E+00 -0.15842349609E+04  0.15842349609E+04  0.00000000000E+00 0. -1.
         25    1    1    2    0    0 -0.71189960242E+02 -0.19917116477E+03 -0.47027245293E+03  0.53058302206E+03  0.12500000000E+03 0.  0.
         21    1    1    2  503  504  0.56172782813E+02  0.18127127771E+03 -0.10373881945E+04  0.10546036809E+04  0.00000000000E+00 0. -1.
         21    1    1    2  504  501  0.15017177428E+02  0.17899887057E+02 -0.34201770959E+02  0.41420800467E+02  0.00000000000E+00 0. -1.
<mgrwt>
<rscale>  4 0.23126235E+03</rscale>
<asrwt>0</asrwt>
<pdfrwt beam="1">  1       21 0.65188526E-02 0.23126235E+03</pdfrwt>
<pdfrwt beam="2">  1       21 0.24372846E+00 0.23126235E+03</pdfrwt>
<totfact> 0.11978492E+04</totfact>
</mgrwt>
</event>
<event>
 5    0  0.2159162E+000  0.2381797E+03  0.7546771E-02  0.1121011E+00
         21   -1    0    0  502  501  0.00000000000E+00  0.00000000000E+00  0.65748253683E+03  0.65748253683E+03  0.00000000000E+00 0.  1.
         21   -1    0    0  503  502 -0.00000000000E+00 -0.00000000000E+00 -0.43002216634E+03  0.43002216634E+03  0.00000000000E+00 0. -1.
         25    1    1    2    0    0  0.20176303004E+03 -0.20829501775E+02  0.60193940859E+03  0.64737797309E+03  0.12500000000E+03 0.  0.
         21    1    1    2  503  504 -0.20294503622E+03 -0.63659314506E+01 -0.31581535520E+03  0.37545512567E+03  0.00000000000E+00 0. -1.
         21    1    1    2  504  501  0.11820061792E+01  0.27195433225E+02 -0.58663682890E+02  0.64671604411E+02  0.00000000000E+00 0. -1.
<mgrwt>
<rscale>  4 0.23817966E+03</rscale>
<asrwt>0</asrwt>
<pdfrwt beam="1">  1       21 0.10115116E+00 0.23817966E+03</pdfrwt>
<pdfrwt beam="2">  1       21 0.66157256E-01 0.23817966E+03</pdfrwt>
<totfact> 0.16107011E+03</totfact>
</mgrwt>
</event>
<event>
 5    0  0.3639560E+000  0.2593421E+03  0.7546771E-02  0.1107539E+00
         21   -1    0    0  502  501  0.00000000000E+00  0.00000000000E+00  0.81139080872E+03  0.81139080872E+03  0.00000000000E+00 0.  1.
         21   -1    0    0  503  502 -0.00000000000E+00 -0.00000000000E+00 -0.10416861065E+03  0.10416861065E+03  0.00000000000E+00 0.  1.
         25    1    1    2    0    0  0.20971548358E+03  0.13516777651E+03  0.50412585419E+03  0.57621071556E+03  0.12500000000E+03 0.  0.
         21    1    1    2  503  504 -0.17042293095E+03 -0.13873083568E+03  0.12745794300E+03  0.25403886985E+03  0.00000000000E+00 0.  1.
         21    1    1    2  504  501 -0.39292552633E+02  0.35630591645E+01  0.75638400881E+02  0.85309833963E+02  0.00000000000E+00 0.  1.
<mgrwt>
<rscale>  4 0.25934215E+03</rscale>
<asrwt>0</asrwt>
<pdfrwt beam="1">  1       21 0.12482935E+00 0.25934215E+03</pdfrwt>
<pdfrwt beam="2">  1       21 0.16025941E-01 0.25934215E+03</pdfrwt>
<totfact> 0.15993099E+04</totfact>
</mgrwt>
</event>
<event>
 5    0  0.3556069E+000  0.2625714E+03  0.7546771E-02  0.1105608E+00
         21   -1    0    0  502  501  0.00000000000E+00  0.00000000000E+00  0.28999355591E+03  0.28999355591E+03  0.00000000000E+00 0. -1.
         21   -1    0    0  503  502 -0.00000000000E+00 -0.00000000000E+00 -0.27524832483E+03  0.27524832483E+03  0.00000000000E+00 0. -1.
         25    1    1    2    0    0 -0.22139370797E+03 -0.65601529111E+02  0.13107167069E+03  0.29346808584E+03  0.12500000000E+03 0.  0.
         21    1    1    2  503  504  0.20086401151E+02  0.35065096707E+02 -0.31338147906E+02  0.51138087884E+02  0.00000000000E+00 0. -1.
         21    1    1    2  504  501  0.20130730682E+03  0.30536432404E+02 -0.84988291702E+02  0.22063570701E+03  0.00000000000E+00 0. -1.
<mgrwt>
<rscale>  4 0.26257139E+03</rscale>
<asrwt>0</asrwt>
<pdfrwt beam="1">  1       21 0.44614393E-01 0.26257139E+03</pdfrwt>
<pdfrwt beam="2">  1       21 0.42345896E-01 0.26257139E+03</pdfrwt>
<totfact> 0.24979961E+04</totfact>
</mgrwt>
</event>
<event>
 5    0  0.4077224E+000  0.2409356E+03  0.7546771E-02  0.1119171E+00
         21   -1    0    0  502  501  0.00000000000E+00  0.00000000000E+00  0.36554091435E+03  0.36554091435E+03  0.00000000000E+00 0. -1.
         21   -1    0    0  503  502 -0.00000000000E+00 -0.00000000000E+00 -0.14692483275E+03  0.14692483275E+03  0.00000000000E+00 0. -1.
         25    1    1    2    0    0  0.19907770514E+03 -0.52848928352E+02  0.15681399404E+03  0.28747273025E+03  0.12500000000E+03 0.  0.
         21    1    1    2  503  504 -0.45556584766E+02 -0.13845229409E+02  0.24319401762E+02  0.53465185822E+02  0.00000000000E+00 0.  1.
         21    1    1    2  504  501 -0.15352112037E+03  0.66694157761E+02  0.37482685799E+02  0.17152783102E+03  0.00000000000E+00 0. -1.
<mgrwt>
<rscale>  4 0.24093556E+03</rscale>
<asrwt>0</asrwt>
<pdfrwt beam="1">  1       21 0.56237064E-01 0.24093556E+03</pdfrwt>
<pdfrwt beam="2">  1       21 0.22603821E-01 0.24093556E+03</pdfrwt>
<totfact> 0.53408539E+04</totfact>
</mgrwt>
</event>
<event>
 5    0  0.2159162E+000  0.2644338E+03  0.7546771E-02  0.1104508E+00
         21   -1    0    0  502  501  0.00000000000E+00  0.00000000000E+00  0.29384664710E+03  0.29384664710E+03  0.00000000000E+00 0. -1.
         21   -1    0    0  503  502 -0.00000000000E+00 -0.00000000000E+00 -0.21617173660E+03  0.21617173660E+03  0.00000000000E+00 0. -1.
         25    1    1    2    0    0  0.22261124775E+03  0.68880178770E+02  0.59881823450E+02  0.27112926702E+03  0.12500000000E+03 0.  0.
         21    1    1    2  503  504 -0.13245991829E+03 -0.45730709472E+02  0.34522214734E+02  0.14432155436E+03  0.00000000000E+00 0. -1.
         21    1    1    2  504  501 -0.90151329461E+02 -0.23149469298E+02 -0.16729127685E+02  0.94567562332E+02  0.00000000000E+00 0. -1.
<mgrwt>
<rscale>  4 0.26443382E+03</rscale>
<asrwt>0</asrwt>
<pdfrwt beam="1">  1       21 0.45207177E-01 0.26443382E+03</pdfrwt>
<pdfrwt beam="2">  1       21 0.33257190E-01 0.26443382E+03</pdfrwt>
<totfact> 0.39552969E+04</totfact>
</mgrwt>
</event>
<event>
 5    0  0.2159162E+000  0.2903852E+03  0.7546771E-02  0.1090148E+00
         21   -1    0    0  502  501  0.00000000000E+00  0.00000000000E+00  0.17067934393E+03  0.17067934393E+03  0.00000000000E+00 0.  1.
         21   -1    0    0  503  502 -0.00000000000E+00 -0.00000000000E+00 -0.47301025623E+03  0.47301025623E+03  0.00000000000E+00 0.  1.
         25    1    1    2    0    0  0.26084896214E+03 -0.25619964394E+02 -0.12063830967E+03  0.31444739685E+03  0.12500000000E+03 0.  0.
         21    1    1    2  503  504 -0.14134266777E+03  0.48333225212E+02 -0.73669190698E+02  0.16655629694E+03  0.00000000000E+00 0.  1.
         21    1    1    2  504  501 -0.11950629437E+03 -0.22713260818E+02 -0.10802341193E+03  0.16268590638E+03  0.00000000000E+00 0.  1.
<mgrwt>
<rscale>  4 0.29038520E+03</rscale>
<asrwt>0</asrwt>
<pdfrwt beam="1">  1       21 0.26258361E-01 0.29038520E+03</pdfrwt>
<pdfrwt beam="2">  1       21 0.72770808E-01 0.29038520E+03</pdfrwt>
<totfact> 0.22336403E+04</totfact>
</mgrwt>
</event>
<event>
 5    0  0.2159162E+000  0.3711998E+03  0.7546771E-02  0.1054235E+00
         21   -1    0    0  502  501  0.00000000000E+00  0.00000000000E+00  0.34401550316E+04  0.34401550316E+04  0.00000000000E+00 0.  1.
         21   -1    0    0  503  502 -0.00000000000E+00 -0.00000000000E+00 -0.13314358888E+03  0.13314358888E+03  0.00000000000E+00 0. -1.
         25    1    1    2    0    0  0.34855116216E+03  0.26007520976E+02  0.31704644016E+04  0.31921205844E+04  0.12500000000E+03 0.  0.
         21    1    1    2  503  504 -0.24226763812E+03  0.13051616809E+02  0.90823126637E+02  0.25906137017E+03  0.00000000000E+00 0. -1.
         21    1    1    2  504  501 -0.10628352404E+03 -0.39059137785E+02  0.45723914475E+02  0.12211666586E+03  0.00000000000E+00 0. -1.
<mgrwt>
<rscale>  4 0.37119982E+03</rscale>
<asrwt>0</asrwt>
<pdfrwt beam="1">  1       21 0.52925455E+00 0.37119982E+03</pdfrwt>
<pdfrwt beam="2">  1       21 0.20483632E-01 0.37119982E+03</pdfrwt>
<totfact> 0.20157970E+01</totfact>
</mgrwt>
</event>
