<event>
 5    0  0.1911311E+001  0.2547938E+03  0.7546771E-02  0.1110312E+00
         21   -1    0    0  502  501  0.00000000000E+00  0.00000000000E+00  0.70780057460E+02  0.70780057460E+02  0.00000000000E+00 0. -1.
         21   -1    0    0  504  502 -0.00000000000E+00 -0.00000000000E+00 -0.92290196270E+03  0.92290196270E+03  0.00000000000E+00 0. -1.
         25    1    1    2    0    0  0.22701590612E+03 -0.35376805474E+02 -0.36128501430E+03  0.44602645836E+03  0.12500000000E+03 0.  0.
         21    1    1    2  503  501 -0.20671455251E+03  0.55617425917E+02 -0.42582949024E+03  0.47660776225E+03  0.00000000000E+00 0. -1.
         21    1    1    2  504  503 -0.20301353617E+02 -0.20240620444E+02 -0.65007400699E+02  0.71047799546E+02  0.00000000000E+00 0.  1.
<mgrwt>
<rscale>  4 0.25479377E+03</rscale>
<asrwt>0</asrwt>
<pdfrwt beam="1">  1       21 0.10889241E-01 0.25479377E+03</pdfrwt>
<pdfrwt beam="2">  1       21 0.14198490E+00 0.25479377E+03</pdfrwt>
<totfact> 0.23222162E+04</totfact>
</mgrwt>
</event>
<event>
 5    0  0.1911311E+001  0.4393159E+03  0.7546771E-02  0.1030957E+00
         21   -1    0    0  504  501  0.00000000000E+00  0.00000000000E+00  0.12018675848E+04  0.12018675848E+04  0.00000000000E+00 0.  1.
         21   -1    0    0  503  502 -0.00000000000E+00 -0.00000000000E+00 -0.29391312086E+03  0.29391312086E+03  0.00000000000E+00 0.  1.
         25    1    1    2    0    0 -0.13170712406E+03  0.38202244891E+03 -0.35477443882E+02  0.42446621423E+03  0.12500000000E+03 0.  0.
         21    1    1    2  503  501 -0.18168003058E+02  0.15170750101E+02 -0.11465999204E+02  0.26300135580E+02  0.00000000000E+00 0.  1.
         21    1    1    2  504  502  0.14987512712E+03 -0.39719319901E+03  0.95489790704E+03  0.10450143559E+04  0.00000000000E+00 0.  1.
<mgrwt>
<rscale>  4 0.43931588E+03</rscale>
<asrwt>0</asrwt>
<pdfrwt beam="1">  1       21 0.18490270E+00 0.43931588E+03</pdfrwt>
<pdfrwt beam="2">  1       21 0.45217404E-01 0.43931588E+03</pdfrwt>
<totfact> 0.66086022E+02</totfact>
</mgrwt>
</event>
<event>
 5    0  0.1911311E+001  0.2837362E+03  0.7546771E-02  0.1093666E+00
         21   -1    0    0  504  501  0.00000000000E+00  0.00000000000E+00  0.29855345217E+03  0.29855345217E+03  0.00000000000E+00 0. -1.
         21   -1    0    0  503  502 -0.00000000000E+00 -0.00000000000E+00 -0.98834941366E+03  0.98834941366E+03  0.00000000000E+00 0. -1.
         25    1    1    2    0    0 -0.22453223852E+03 -0.72398345872E+02 -0.60192567533E+03  0.65847988977E+03  0.12500000000E+03 0.  0.
         21    1    1    2  503  501  0.29358030096E+03  0.53563598040E+02 -0.28870189906E+03  0.41521950660E+03  0.00000000000E+00 0. -1.
         21    1    1    2  504  502 -0.69048062432E+02  0.18834747832E+02  0.20083161289E+03  0.21320346946E+03  0.00000000000E+00 0. -1.
<mgrwt>
<rscale>  4 0.28373620E+03</rscale>
<asrwt>0</asrwt>
<pdfrwt beam="1">  1       21 0.45931300E-01 0.28373620E+03</pdfrwt>
<pdfrwt beam="2">  1       21 0.15205376E+00 0.28373620E+03</pdfrwt>
<totfact> 0.12124078E+03</totfact>
</mgrwt>
</event>
<event>
 5    0  0.1911311E+001  0.2657714E+03  0.7546771E-02  0.1103724E+00
         21   -1    0    0  502  501  0.00000000000E+00  0.00000000000E+00  0.21989357843E+03  0.21989357843E+03  0.00000000000E+00 0.  1.
         21   -1    0    0  504  502 -0.00000000000E+00 -0.00000000000E+00 -0.73563402362E+03  0.73563402362E+03  0.00000000000E+00 0.  1.
         25    1    1    2    0    0 -0.45257551515E+02 -0.21916175001E+03  0.96399830163E+02  0.27385771104E+03  0.12500000000E+03 0.  0.
         21    1    1    2  503  501  0.13705440242E+02 -0.14580232469E+02  0.53108929539E+01  0.20703329564E+02  0.00000000000E+00 0.  1.
         21    1    1    2  504  503  0.31552111273E+02  0.23374198248E+03 -0.61745116831E+03  0.66096656144E+03  0.00000000000E+00 0.  1.
<mgrwt>
<rscale>  4 0.26577135E+03</rscale>
<asrwt>0</asrwt>
<pdfrwt beam="1">  1       21 0.33829782E-01 0.26577135E+03</pdfrwt>
<pdfrwt beam="2">  1       21 0.11317446E+00 0.26577135E+03</pdfrwt>
<totfact> 0.48748376E+03</totfact>
</mgrwt>
</event>
<event>
 5    0  0.1911311E+001  0.2457948E+03  0.7546771E-02  0.1115992E+00
         21   -1    0    0  502  501  0.00000000000E+00  0.00000000000E+00  0.11598351049E+03  0.11598351049E+03  0.00000000000E+00 0.  1.
         21   -1    0    0  504  502 -0.00000000000E+00 -0.00000000000E+00 -0.73414158681E+03  0.73414158681E+03  0.00000000000E+00 0.  1.
         25    1    1    2    0    0  0.21093045312E+02  0.20437822508E+03 -0.36126062317E+03  0.43399264199E+03  0.12500000000E+03 0.  0.
         21    1    1    2  503  501 -0.46578772193E+02 -0.20915271453E+03 -0.67049317177E+02  0.22452182733E+03  0.00000000000E+00 0.  1.
         21    1    1    2  504  503  0.25485726881E+02  0.47744894501E+01 -0.18984813597E+03  0.19161062798E+03  0.00000000000E+00 0. -1.
<mgrwt>
<rscale>  4 0.24579480E+03</rscale>
<asrwt>0</asrwt>
<pdfrwt beam="1">  1       21 0.17843617E-01 0.24579480E+03</pdfrwt>
<pdfrwt beam="2">  1       21 0.11294486E+00 0.24579480E+03</pdfrwt>
<totfact> 0.16932583E+04</totfact>
</mgrwt>
</event>
