<LesHouchesEvents version="3.0">
  <!--
  <scalesfunctionalform>
    muR  H_T/2 := sum_i mT(i)/2, i=final state
    muF1 H_T/2 := sum_i mT(i)/2, i=final state
    muF2 H_T/2 := sum_i mT(i)/2, i=final state
    QES  H_T/2 := sum_i mT(i)/2, i=final state
  </scalesfunctionalform>
HERWIG6   
  -->
  <header>
      279
  </header>
  <init>
   2212   2212 0.65000000D+04 0.65000000D+04 -1 -1   247000   247000 -3   1
 0.58733159D-01 0.14701170D-02 0.46179844D-03     66
  </init>
  <event>
  5     66 -.46179844E-03 0.20221453E+02 0.75467711E-02 0.12458581E+00
        2 -1    0    0  502    0 0.00000000E+00 0.00000000E+00 0.50444685E+02 0.50445700E+02 0.32000000E+00 0.0000E+00 0.9000E+01
       -1 -1    0    0    0  501 0.00000000E+00 0.00000000E+00 -.28004002E+03 0.28004021E+03 0.32000000E+00 0.0000E+00 0.9000E+01
       25  1    1    2    0    0 0.12964706E+02 0.24460160E+02 -.11566196E+03 0.17253716E+03 0.12500000E+03 0.0000E+00 0.9000E+01
       24  1    1    2    0    0 0.31563119E+01 -.36647212E+02 -.99409980E+02 0.13305089E+03 0.80419002E+02 0.0000E+00 0.9000E+01
       21  1    1    2  502  501 -.16121017E+02 0.12187052E+02 -.14523404E+02 0.24897855E+02 0.75000000E+00 0.0000E+00 0.9000E+01
#aMCatNLO 1  0  0  1  5 0.73173356D+01 0.00000000D+00  -5  6  0 0.00000000D+00 0.00000000D+00 0.00000000D+00 0.00000000D+00 0.00000000D+00
  <mgrwgt>
 -.4740338276D+00    9    4    0
 0.118855916373592D+03 0.000000000000000D+00 0.000000000000000D+00 0.118855916373592D+03
 0.118855916373592D+03 0.000000000000000D+00 0.000000000000000D+00 -.118855916373592D+03
 0.128161812563130D+03 0.129704789714213D+02 0.244557954549616D+02 0.584216940732504D+01
 0.889637366783688D+02 0.316031946195474D+01 -.366502413681109D+02 -.970065348134883D+01
 0.205862835056847D+02 -.161307984333760D+02 0.121944459131493D+02 0.385848407402378D+01
 0.000000000000000D+00 -.000000000000000D+00 0.000000000000000D+00 0.000000000000000D+00
 0.158137321006149D+03 0.000000000000000D+00 0.000000000000000D+00 0.158137321006149D+03
 0.119253471486495D+03 0.000000000000000D+00 0.000000000000000D+00 -.119253471486495D+03
 0.128457743555145D+03 0.168341381598023D+02 0.236404891724409D+02 0.584216940732504D+01
 0.893339998662575D+02 0.584476681463692D+01 -.372167113089172D+02 -.970065348134883D+01
 0.200326851557530D+02 -.155192400086588D+02 0.120653953417895D+02 0.385848407402378D+01
 0.395663639154886D+02 -.715966496578040D+01 0.151082679468688D+01 0.388838495196542D+02
 0.118855916373592D+03 0.000000000000000D+00 0.000000000000000D+00 0.118855916373592D+03
 0.118855916373592D+03 0.000000000000000D+00 0.000000000000000D+00 -.118855916373592D+03
 0.128161812563130D+03 0.129704789714213D+02 0.244557954549616D+02 0.584216940732504D+01
 0.889637366783688D+02 0.316031946195474D+01 -.366502413681109D+02 -.970065348134883D+01
 0.000000000000000D+00 -.000000000000000D+00 0.000000000000000D+00 0.000000000000000D+00
 0.205862835056847D+02 -.161307984333760D+02 0.121944459131493D+02 0.385848407402378D+01
 0.158137321006149D+03 0.000000000000000D+00 0.000000000000000D+00 0.158137321006149D+03
 0.119253471486495D+03 0.000000000000000D+00 0.000000000000000D+00 -.119253471486495D+03
 0.128457743555145D+03 0.168341381598023D+02 0.236404891724409D+02 0.584216940732504D+01
 0.893339998662575D+02 0.584476681463692D+01 -.372167113089172D+02 -.970065348134883D+01
 0.395663639154886D+02 -.715966496578040D+01 0.151082679468688D+01 0.388838495196542D+02
 0.200326851557530D+02 -.155192400086588D+02 0.120653953417895D+02 0.385848407402378D+01
0.211654665002D-04 0.000000000000D+00 0.000000000000D+00 0.628933439442D-04 0.000000000000D+00  6 2 -1 25 24 21 21 2 0.77608130D-02 0.43083173D-01 0.14004748D+05 0.14004748D+05 0.14004748D+05 0.12512360D+01  1  2  2  1  6  1        2 0.170519956531D-01 0.100000000000D+01
0.430491135655D-05 0.111693235320D-05 -.812809643562D-07 0.628933439442D-04 0.000000000000D+00  6 2 -1 25 24 21 21 4 0.77608130D-02 0.43083173D-01 0.14004748D+05 0.14004748D+05 0.14004748D+05 0.12512360D+01  1  2  3  1  6  1        2 0.542987746056D-02 0.100000000000D+01
0.643892720842D-06 0.000000000000D+00 0.000000000000D+00 0.628933439442D-04 0.000000000000D+00  6 2 -1 25 24 21 21 4 0.77608130D-02 0.43083173D-01 0.14004748D+05 0.14004748D+05 0.14004748D+05 0.12512360D+01  1  2 15  1  6  1        2 0.812155764044D-03 0.100000000000D+01
0.108256052709D-02 0.000000000000D+00 0.000000000000D+00 0.625849215078D-04 0.000000000000D+00  6 2 -1 25 24 21 21 4 0.10527361D-01 0.43083173D-01 0.14896873D+05 0.14896873D+05 0.14896873D+05 0.12481642D+01  1  2 12  1  6  1        2 0.929537814621D+00 0.100000000000D+01
-.142297289812D-02 0.000000000000D+00 0.000000000000D+00 0.628933439442D-04 0.000000000000D+00  6 2 -1 25 24 21 21 4 0.77608130D-02 0.43083173D-01 0.14004748D+05 0.14004748D+05 0.14004748D+05 0.12512360D+01  1  2  4  1  6  1        2 -.179482638005D+01 0.100000000000D+01
-.124930490376D-02 0.000000000000D+00 -.274068146357D-04 0.628933439442D-04 0.000000000000D+00  6 2 -1 25 24 21 21 4 0.10346841D-01 0.43083173D-01 0.14004748D+05 0.14004748D+05 0.14004748D+05 0.12512360D+01  1  2  5  1  6  1        2 -.110441659351D+01 0.100000000000D+01
0.120798098374D-02 0.000000000000D+00 0.263111893091D-04 0.628933439442D-04 0.000000000000D+00  6 2 -1 25 24 21 21 4 0.77608130D-02 0.43083173D-01 0.14004748D+05 0.14004748D+05 0.14004748D+05 0.12512360D+01  1  2  6  1  6  1        2 0.152365244557D+01 0.100000000000D+01
0.423382031830D-04 0.000000000000D+00 0.000000000000D+00 0.625849215078D-04 0.000000000000D+00  6 21 -1 25 24 -2 21 4 0.10527361D-01 0.43083173D-01 0.14896873D+05 0.14896873D+05 0.14896873D+05 0.12481642D+01  3  4 12  4  5  1        2 0.375722185220D+00 0.100000000000D+01
-.462632927202D-04 0.000000000000D+00 -.102752795407D-05 0.628933439442D-04 0.000000000000D+00  6 21 -1 25 24 -2 21 4 0.10346841D-01 0.43083173D-01 0.14004748D+05 0.14004748D+05 0.14004748D+05 0.12512360D+01  3  4  5  4  5  1        2 -.426997328356D+00 0.100000000000D+01
  </mgrwgt>
  </event>
  <event>
  5     66 0.46179844E-03 0.91833426E+02 0.75467711E-02 0.11886333E+00
        2 -1    0    0  502    0 0.00000000E+00 0.00000000E+00 0.75893925E+03 0.75893931E+03 0.32000000E+00 0.0000E+00 0.9000E+01
       -1 -1    0    0    0  501 0.00000000E+00 0.00000000E+00 -.37306248E+02 0.37307620E+02 0.32000000E+00 0.0000E+00 0.9000E+01
       25  1    1    2    0    0 0.94132863E+02 0.20656615E+02 0.40004420E+03 0.43005587E+03 0.12500000E+03 0.0000E+00 0.9000E+01
       24  1    1    2    0    0 -.53875198E+01 0.56785396E+01 0.17603436E+03 0.19369198E+03 0.80419002E+02 0.0000E+00 0.9000E+01
       21  1    1    2  502  501 -.88745343E+02 -.26335154E+02 0.14555444E+03 0.17249909E+03 0.75000000E+00 0.0000E+00 0.9000E+01
#aMCatNLO 1  0  0  5  1 0.41437309D+02 0.00000000D+00  -5  6  0 0.00000000D+00 0.00000000D+00 0.00000000D+00 0.00000000D+00 0.00000000D+00
  <mgrwgt>
 0.6352651401D-01    9    2    0
 0.168266897970718D+03 0.000000000000000D+00 0.000000000000000D+00 0.168266897970718D+03
 0.168266897970718D+03 -.000000000000000D+00 -.000000000000000D+00 -.168266897970718D+03
 0.159704212607020D+03 0.941341478323169D+02 0.206569958866105D+02 0.243410405950983D+02
 0.808074352821624D+02 -.538686975045513D+01 0.567873245197508D+01 0.116587929943348D+01
 0.960221480522548D+02 -.887472780818617D+02 -.263357283385856D+02 -.255069198945318D+02
 0.000000000000000D+00 0.000000000000000D+00 0.000000000000000D+00 0.000000000000000D+00
 0.168266897970718D+03 0.000000000000000D+00 0.000000000000000D+00 0.168266897970718D+03
 0.168266897970718D+03 -.000000000000000D+00 -.000000000000000D+00 -.168266897970718D+03
 0.146632656312753D+03 0.730394752513524D+02 0.143971580809795D+02 0.182782053695749D+02
 0.821758312681179D+02 -.166100654962947D+02 0.234825245707808D+01 -.205978757212648D+01
 0.429377698257971D+02 -.653015460328882D+01 -.377667095332699D+02 0.193567768365474D+02
 0.647875385347686D+02 -.498992551517688D+02 0.210212989952124D+02 -.355751946339958D+02
0.657188993801D-04 0.000000000000D+00 0.000000000000D+00 0.327243688207D-05 0.000000000000D+00  6 2 -1 25 24 21 21 2 0.11675999D+00 0.57395335D-02 0.27424982D+05 0.27424982D+05 0.27424982D+05 0.12190104D+01  1  2  2  3  6  5       21 0.588619311262D-01 0.100000000000D+01
-.446268720700D-05 0.346808160045D-05 -.252377877803D-06 0.327243688207D-05 0.000000000000D+00  6 2 -1 25 24 21 21 4 0.11675999D+00 0.57395335D-02 0.27424982D+05 0.27424982D+05 0.27424982D+05 0.12190104D+01  1  2  3  3  6  5       21 -.593957629699D-02 0.100000000000D+01
0.267414230669D-05 0.000000000000D+00 0.000000000000D+00 0.327243688207D-05 0.000000000000D+00  6 2 -1 25 24 21 21 4 0.11675999D+00 0.57395335D-02 0.27424982D+05 0.27424982D+05 0.27424982D+05 0.12190104D+01  1  2 15  3  6  5       21 0.355912738734D-02 0.100000000000D+01
0.961980080799D-05 0.000000000000D+00 0.000000000000D+00 0.328938134752D-05 0.000000000000D+00  6 2 -1 25 24 21 21 4 0.11675999D+00 0.57395335D-02 0.25618000D+05 0.25618000D+05 0.25618000D+05 0.12221623D+01  1  2 12  3  6  5       21 0.129175450542D-01 0.100000000000D+01
-.666211896347D-05 0.000000000000D+00 0.000000000000D+00 0.327243688207D-05 0.000000000000D+00  6 2 -1 25 24 21 21 4 0.11675999D+00 0.57395335D-02 0.27424982D+05 0.27424982D+05 0.27424982D+05 0.12190104D+01  1  2  4  3  6  5       21 -.886689163898D-02 0.100000000000D+01
0.557484480147D-06 0.000000000000D+00 0.000000000000D+00 0.328938134752D-05 0.000000000000D+00  6 2 -1 25 24 1 -1 4 0.11675999D+00 0.57395335D-02 0.25618000D+05 0.25618000D+05 0.25618000D+05 0.12221623D+01  1  2 12  6  6  5       21 0.748594594947D-03 0.100000000000D+01
0.557484480147D-06 0.000000000000D+00 0.000000000000D+00 0.328938134752D-05 0.000000000000D+00  6 2 -1 25 24 2 -2 4 0.11675999D+00 0.57395335D-02 0.25618000D+05 0.25618000D+05 0.25618000D+05 0.12221623D+01  1  2 12  7  6  5       21 0.748594594947D-03 0.100000000000D+01
0.557484480147D-06 0.000000000000D+00 0.000000000000D+00 0.328938134752D-05 0.000000000000D+00  6 2 -1 25 24 3 -3 4 0.11675999D+00 0.57395335D-02 0.25618000D+05 0.25618000D+05 0.25618000D+05 0.12221623D+01  1  2 12  8  6  5       21 0.748594594947D-03 0.100000000000D+01
0.557484480147D-06 0.000000000000D+00 0.000000000000D+00 0.328938134752D-05 0.000000000000D+00  6 2 -1 25 24 4 -4 4 0.11675999D+00 0.57395335D-02 0.25618000D+05 0.25618000D+05 0.25618000D+05 0.12221623D+01  1  2 12  8  6  5       21 0.748594594947D-03 0.100000000000D+01
  </mgrwgt>
  </event>
  <event>
  5     66 0.46179844E-03 0.41189486E+02 0.75467711E-02 0.12191981E+00
        2 -1    0    0  502    0 0.00000000E+00 0.00000000E+00 0.60902914E+03 0.60902922E+03 0.32000000E+00 0.0000E+00 0.9000E+01
       -1 -1    0    0    0  501 0.00000000E+00 0.00000000E+00 -.38442139E+02 0.38443471E+02 0.32000000E+00 0.0000E+00 0.9000E+01
       25  1    1    2    0    0 -.49365963E+02 -.35644413E+02 0.41825747E+03 0.44076279E+03 0.12500000E+03 0.0000E+00 0.9000E+01
       24  1    1    2    0    0 0.10421621E+02 0.49047806E+02 0.12659627E+03 0.15813959E+03 0.80419002E+02 0.0000E+00 0.9000E+01
       21  1    1    2  502  501 0.38944342E+02 -.13403393E+02 0.25733256E+02 0.48570317E+02 0.75000000E+00 0.0000E+00 0.9000E+01
#aMCatNLO 1  0  0  5  1 0.15485412D+02 0.00000000D+00  -5  6  0 0.00000000D+00 0.00000000D+00 0.00000000D+00 0.00000000D+00 0.00000000D+00
  <mgrwgt>
 0.3956056994D+00    9    2    0
 0.153012552052948D+03 0.000000000000000D+00 0.000000000000000D+00 0.153012552052948D+03
 0.153012552052948D+03 -.000000000000000D+00 -.000000000000000D+00 -.153012552052948D+03
 0.152699703370926D+03 -.493677846990810D+02 -.356437858457432D+02 0.631232268983188D+02
 0.985435841865561D+02 0.104204460218560D+02 0.490482102232995D+02 -.270057291802859D+02
 0.547818165484151D+02 0.389473386772250D+02 -.134044243775563D+02 -.361174977180329D+02
 0.000000000000000D+00 0.000000000000000D+00 0.000000000000000D+00 0.000000000000000D+00
 0.153012552052948D+03 0.000000000000000D+00 0.000000000000000D+00 0.153012552052948D+03
 0.153012552052948D+03 -.000000000000000D+00 -.000000000000000D+00 -.153012552052948D+03
 0.147005240240518D+03 -.394220800554538D+02 -.390667782838625D+02 0.539001585971080D+02
 0.100209976155727D+03 0.170160803287644D+02 0.467782045106712D+02 -.331221370047836D+02
 0.417215409095943D+02 0.266263374361774D+02 0.466420050867663D+01 -.317800309033932D+02
 0.170883468000575D+02 -.422033770948802D+01 -.123756267354854D+02 0.110020093110689D+02
0.184194186925D-03 0.000000000000D+00 0.000000000000D+00 0.126804025686D-04 0.000000000000D+00  6 2 -1 25 24 21 21 2 0.93696899D-01 0.59142841D-02 0.18906572D+05 0.18906572D+05 0.18906572D+05 0.12365233D+01  1  2  2  3  6  5       21 0.208658932097D+00 0.100000000000D+01
0.499599485406D-05 0.972019429131D-05 -.707354177236D-06 0.126804025686D-04 0.000000000000D+00  6 2 -1 25 24 21 21 4 0.93696899D-01 0.59142841D-02 0.18906572D+05 0.18906572D+05 0.18906572D+05 0.12365233D+01  1  2  3  3  6  5       21 0.865341676267D-02 0.100000000000D+01
0.464220151354D-05 0.000000000000D+00 0.000000000000D+00 0.126804025686D-04 0.000000000000D+00  6 2 -1 25 24 21 21 4 0.93696899D-01 0.59142841D-02 0.18906572D+05 0.18906572D+05 0.18906572D+05 0.12365233D+01  1  2 15  3  6  5       21 0.804062165123D-02 0.100000000000D+01
0.161886261832D-03 0.000000000000D+00 0.000000000000D+00 0.127061102622D-04 0.000000000000D+00  6 2 -1 25 24 21 21 4 0.93696899D-01 0.59142841D-02 0.18421602D+05 0.18421602D+05 0.18421602D+05 0.12377761D+01  1  2 12  3  6  5       21 0.281333403590D+00 0.100000000000D+01
-.717893554685D-04 0.000000000000D+00 0.000000000000D+00 0.126804025686D-04 0.000000000000D+00  6 2 -1 25 24 21 21 4 0.93696899D-01 0.59142841D-02 0.18906572D+05 0.18906572D+05 0.18906572D+05 0.12365233D+01  1  2  4  3  6  5       21 -.124344245769D+00 0.100000000000D+01
0.190804745850D-05 0.000000000000D+00 0.000000000000D+00 0.127061102622D-04 0.000000000000D+00  6 2 -1 25 24 1 -1 4 0.93696899D-01 0.59142841D-02 0.18421602D+05 0.18421602D+05 0.18421602D+05 0.12377761D+01  1  2 12  6  6  5       21 0.331589277333D-02 0.100000000000D+01
0.190804745850D-05 0.000000000000D+00 0.000000000000D+00 0.127061102622D-04 0.000000000000D+00  6 2 -1 25 24 2 -2 4 0.93696899D-01 0.59142841D-02 0.18421602D+05 0.18421602D+05 0.18421602D+05 0.12377761D+01  1  2 12  7  6  5       21 0.331589277333D-02 0.100000000000D+01
0.190804745850D-05 0.000000000000D+00 0.000000000000D+00 0.127061102622D-04 0.000000000000D+00  6 2 -1 25 24 3 -3 4 0.93696899D-01 0.59142841D-02 0.18421602D+05 0.18421602D+05 0.18421602D+05 0.12377761D+01  1  2 12  8  6  5       21 0.331589277333D-02 0.100000000000D+01
0.190804745850D-05 0.000000000000D+00 0.000000000000D+00 0.127061102622D-04 0.000000000000D+00  6 2 -1 25 24 4 -4 4 0.93696899D-01 0.59142841D-02 0.18421602D+05 0.18421602D+05 0.18421602D+05 0.12377761D+01  1  2 12  8  6  5       21 0.331589277333D-02 0.100000000000D+01
  </mgrwgt>
  </event>
  <event>
  6     66 -.46179844E-03 0.28743243E+02 0.75467711E-02 0.11470549E+00
        2 -1    0    0  502    0 0.00000000E+00 0.00000000E+00 0.19107785E+04 0.19107785E+04 0.32000000E+00 0.0000E+00 0.9000E+01
       -1 -1    0    0    0  501 0.00000000E+00 0.00000000E+00 -.24172120E+02 0.24174238E+02 0.32000000E+00 0.0000E+00 0.9000E+01
       25  1    1    2    0    0 -.15640872E+03 0.48790459E+02 0.10341794E+04 0.10545124E+04 0.12500000E+03 0.0000E+00 0.9000E+01
       24  1    1    2    0    0 0.12922207E+03 -.35188822E+02 0.78089130E+03 0.79636363E+03 0.80419002E+02 0.0000E+00 0.9000E+01
       21  1    1    2  502  503 0.24570073E+02 -.23372354E+02 0.57516436E+02 0.66773186E+02 0.75000000E+00 0.0000E+00 0.9000E+01
       21  1    1    2  503  501 0.26165797E+01 0.97707170E+01 0.14019171E+02 0.17303556E+02 0.75000000E+00 0.0000E+00 0.9000E+01
#aMCatNLO 2  0  0  5  1 0.13381175D+02 0.00000000D+00  -5  6  0 0.00000000D+00 0.00000000D+00 0.00000000D+00 0.00000000D+00 0.00000000D+00
  <mgrwgt>
 -.3165431741D-01    3    2    0
 0.214917753399194D+03 0.000000000000000D+00 0.000000000000000D+00 0.214917753399194D+03
 0.214917753399194D+03 -.000000000000000D+00 -.000000000000000D+00 -.214917753399194D+03
 0.210109315634781D+03 -.158442806800173D+03 0.498081239278146D+02 0.305933371927709D+02
 0.156419943787392D+03 0.127694404136922D+03 -.344245227054149D+02 0.225626737932622D+02
 0.633062473762152D+02 0.307484026632516D+02 -.153836012223997D+02 -.531560109860331D+02
 0.000000000000000D+00 0.000000000000000D+00 0.000000000000000D+00 -.000000000000000D+00
 0.214917753399194D+03 0.000000000000000D+00 0.000000000000000D+00 0.214917753399194D+03
 0.214917753399194D+03 -.000000000000000D+00 -.000000000000000D+00 -.214917753399194D+03
 0.207825074278348D+03 -.156384343266029D+03 0.487782628814726D+02 0.270347877801839D+02
 0.157495527827466D+03 0.129240540484441D+03 -.351980635382892D+02 0.198898051706317D+02
 0.478325236977742D+02 0.244216744138911D+02 -.234739086440419D+02 -.337714043991541D+02
 0.166823809948004D+02 0.272212836769775D+01 0.989370930085856D+01 -.131531885516614D+02
-.211597169181D-03 0.000000000000D+00 0.000000000000D+00 0.151925588949D-04 0.000000000000D+00  6 2 -1 25 24 21 21 4 0.29396608D+00 0.37189526D-02 0.41296135D+05 0.41296135D+05 0.41296135D+05 0.12005964D+01  1  2 13  3  6  5       21 -.113743621467D+00 0.100000000000D+01
-.158333343972D-04 0.000000000000D+00 0.000000000000D+00 0.152447492672D-04 0.000000000000D+00  6 2 -1 25 24 21 21 4 0.29396608D+00 0.37189526D-02 0.39409430D+05 0.39409430D+05 0.39409430D+05 0.12026568D+01  1  2  8  3  6  5       21 -.857116725827D-02 0.100000000000D+01
0.168655603193D-03 0.000000000000D+00 0.000000000000D+00 0.152447492672D-04 0.332930647264D-06  6 2 -1 25 24 21 21 4 0.29396608D+00 0.37189526D-02 0.41296135D+05 0.41296135D+05 0.41296135D+05 0.12005964D+01  1  2  1  3  6  5       21 0.906604713199D-01 0.100000000000D+01
  </mgrwgt>
  </event>
  <event>
  5     66 0.46179844E-03 0.22557503E+02 0.75467711E-02 0.12154784E+00
        2 -1    0    0  502    0 0.00000000E+00 0.00000000E+00 0.12055258E+03 0.12055300E+03 0.32000000E+00 0.0000E+00 0.9000E+01
       -1 -1    0    0    0  501 0.00000000E+00 0.00000000E+00 -.12315426E+03 0.12315468E+03 0.32000000E+00 0.0000E+00 0.9000E+01
       25  1    1    2    0    0 -.16554871E+02 0.13610462E+02 -.90987737E+01 0.12714990E+03 0.12500000E+03 0.0000E+00 0.9000E+01
       24  1    1    2    0    0 0.19816206E+02 -.35921468E+02 0.16678090E+02 0.91806365E+02 0.80419002E+02 0.0000E+00 0.9000E+01
       21  1    1    2  502  501 -.32613352E+01 0.22311006E+02 -.10181003E+02 0.24751417E+02 0.75000000E+00 0.0000E+00 0.9000E+01
#aMCatNLO 1  0  0  2  1 0.34872795D+02 0.00000000D+00  -5  6  0 0.00000000D+00 0.00000000D+00 0.00000000D+00 0.00000000D+00 0.00000000D+00
  <mgrwgt>
 0.2587287339D+00    4    2    0
 0.121846895000473D+03 0.000000000000000D+00 0.000000000000000D+00 0.121846895000473D+03
 0.121846895000473D+03 0.000000000000000D+00 0.000000000000000D+00 -.121846895000473D+03
 0.127059177287905D+03 -.165540832102700D+02 0.136050714566750D+02 -.773943749928727D+01
 0.919916325810603D+02 0.198167769459808D+02 -.359253714218107D+02 0.176609045701642D+02
 0.246429801319804D+02 -.326269373571081D+01 0.223202999651357D+02 -.992146707087696D+01
 0.000000000000000D+00 0.000000000000000D+00 0.000000000000000D+00 0.000000000000000D+00
 0.141613798967766D+03 0.000000000000000D+00 0.000000000000000D+00 0.141613798967766D+03
 0.139499349479250D+03 0.000000000000000D+00 0.000000000000000D+00 -.139499349479250D+03
 0.127286686594869D+03 -.224652483377056D+02 -.350917492014213D+01 -.773943749928727D+01
 0.968622215472861D+02 0.154276891909709D+02 -.486328373087089D+02 0.176609045701642D+02
 0.220274009042116D+02 -.434734408014267D+01 0.191799760480876D+02 -.992146707087696D+01
 0.349368394006498D+02 0.113849032268774D+02 0.329620361807634D+02 0.211444948851559D+01
0.194386144460D-03 0.000000000000D+00 0.000000000000D+00 0.498971031192D-04 0.000000000000D+00  6 2 -1 25 24 21 21 2 0.18546615D-01 0.18946874D-01 0.14359368D+05 0.14359368D+05 0.14359368D+05 0.12499893D+01  1  2  2  2  6  2       -1 0.217297910843D+00 0.100000000000D+01
0.315774008233D-04 0.102580386669D-04 -.746493977774D-06 0.498971031192D-04 0.000000000000D+00  6 2 -1 25 24 21 21 4 0.18546615D-01 0.18946874D-01 0.14359368D+05 0.14359368D+05 0.14359368D+05 0.12499893D+01  1  2  3  2  6  2       -1 0.551542827084D-01 0.100000000000D+01
0.618732009099D-05 0.000000000000D+00 0.000000000000D+00 0.498971031192D-04 0.000000000000D+00  6 2 -1 25 24 21 21 4 0.18546615D-01 0.18946874D-01 0.14359368D+05 0.14359368D+05 0.14359368D+05 0.12499893D+01  1  2 15  2  6  2       -1 0.108070073093D-01 0.100000000000D+01
-.140443923937D-04 0.000000000000D+00 0.000000000000D+00 0.498971031192D-04 0.000000000000D+00  6 2 -1 25 24 21 21 4 0.18546615D-01 0.18946874D-01 0.14359368D+05 0.14359368D+05 0.14359368D+05 0.12499893D+01  1  2  4  2  6  2       -1 -.245304669909D-01 0.100000000000D+01
  </mgrwgt>
  </event>
  <event>
  5     66 0.46179844E-03 0.25153159E+02 0.75467711E-02 0.12322242E+00
        2 -1    0    0  502    0 0.00000000E+00 0.00000000E+00 0.14432226E+03 0.14432261E+03 0.32000000E+00 0.0000E+00 0.9000E+01
       -1 -1    0    0    0  501 0.00000000E+00 0.00000000E+00 -.11733034E+03 0.11733078E+03 0.32000000E+00 0.0000E+00 0.9000E+01
       25  1    1    2    0    0 0.33279285E+01 0.50194621E+02 0.10822864E+02 0.13517659E+03 0.12500000E+03 0.0000E+00 0.9000E+01
       24  1    1    2    0    0 0.20905186E+02 -.43478783E+02 -.45433993E+01 0.93889775E+02 0.80419002E+02 0.0000E+00 0.9000E+01
       21  1    1    2  502  501 -.24233115E+02 -.67158383E+01 0.20712451E+02 0.32587029E+02 0.75000000E+00 0.0000E+00 0.9000E+01
#aMCatNLO 1  0  0  5  1 0.90344899D+01 0.00000000D+00  -5  6  0 0.00000000D+00 0.00000000D+00 0.00000000D+00 0.00000000D+00 0.00000000D+00
  <mgrwgt>
 0.2536460275D+00   20    2    0
 0.130128718218761D+03 0.000000000000000D+00 0.000000000000000D+00 0.130128718218761D+03
 0.130128718218761D+03 -.000000000000000D+00 -.000000000000000D+00 -.130128718218761D+03
 0.134779719189116D+03 0.333169630768531D+01 0.501956657028471D+02 -.314128143570981D+01
 0.948651177792560D+02 0.209078382165441D+02 -.434780482618254D+02 -.143072092790586D+02
 0.306125994691498D+02 -.242395345242294D+02 -.671761744102170D+01 0.174484907147684D+02
 0.000000000000000D+00 0.000000000000000D+00 0.000000000000000D+00 0.000000000000000D+00
 0.130128718218761D+03 0.000000000000000D+00 0.000000000000000D+00 0.130128718218761D+03
 0.130128718218761D+03 -.000000000000000D+00 -.000000000000000D+00 -.130128718218761D+03
 0.134423876524768D+03 0.562335087108965D+00 0.494281794618371D+02 -.114779540177773D+01
 0.945029278721961D+02 0.189597642294461D+02 -.440179272673009D+02 -.129049154007836D+02
 0.112817834203870D+02 -.723902003075473D+01 -.852488940036121D+01 -.148374082994947D+01
 0.200488486201706D+02 -.122830792858004D+02 0.311463720582501D+01 0.155364516325108D+02
0.134335883793D-03 0.000000000000D+00 0.000000000000D+00 0.388343646963D-04 0.000000000000D+00  6 2 -1 25 24 21 21 2 0.22203485D-01 0.18050883D-01 0.16087916D+05 0.16087916D+05 0.16087916D+05 0.12443708D+01  1  2  2  3  6  5       21 0.131790823462D+00 0.100000000000D+01
0.180660281821D-04 0.708909934977D-05 -.515885165216D-06 0.388343646963D-04 0.000000000000D+00  6 2 -1 25 24 21 21 4 0.22203485D-01 0.18050883D-01 0.16087916D+05 0.16087916D+05 0.16087916D+05 0.12443708D+01  1  2  3  3  6  5       21 0.274445057707D-01 0.100000000000D+01
0.379130234810D-05 0.000000000000D+00 0.000000000000D+00 0.388343646963D-04 0.000000000000D+00  6 2 -1 25 24 21 21 4 0.22203485D-01 0.18050883D-01 0.16087916D+05 0.16087916D+05 0.16087916D+05 0.12443708D+01  1  2 15  3  6  5       21 0.575945183534D-02 0.100000000000D+01
0.196473831112D-04 0.000000000000D+00 0.000000000000D+00 0.388776610251D-04 0.000000000000D+00  6 2 -1 25 24 21 21 4 0.22203485D-01 0.18050883D-01 0.15862426D+05 0.15862426D+05 0.15862426D+05 0.12450642D+01  1  2 12  3  6  5       21 0.298990255124D-01 0.100000000000D+01
0.223218273968D-04 0.000000000000D+00 0.000000000000D+00 0.388776610251D-04 0.000000000000D+00  6 2 -1 25 24 21 21 4 0.22203485D-01 0.18050883D-01 0.15862426D+05 0.15862426D+05 0.15862426D+05 0.12450642D+01  1  2 12  3  6  5       21 0.339689455354D-01 0.100000000000D+01
-.778490551403D-04 0.000000000000D+00 0.000000000000D+00 0.388343646963D-04 0.000000000000D+00  6 2 -1 25 24 21 21 4 0.22203485D-01 0.18050883D-01 0.16087916D+05 0.16087916D+05 0.16087916D+05 0.12443708D+01  1  2  4  3  6  5       21 -.118262233486D+00 0.100000000000D+01
-.301365694927D-04 0.000000000000D+00 0.000000000000D+00 0.388343646963D-04 0.000000000000D+00  6 2 -1 25 24 21 21 4 0.22203485D-01 0.18050883D-01 0.16087916D+05 0.16087916D+05 0.16087916D+05 0.12443708D+01  1  2  5  3  6  5       21 -.457811339058D-01 0.100000000000D+01
0.121604865380D-03 0.000000000000D+00 -.000000000000D+00 0.388343646963D-04 0.000000000000D+00  6 2 -1 25 24 21 21 4 0.22203485D-01 0.18050883D-01 0.16087916D+05 0.16087916D+05 0.16087916D+05 0.12443708D+01  1  2  6  3  6  5       21 0.184732659333D+00 0.100000000000D+01
0.143084108968D-05 0.000000000000D+00 0.000000000000D+00 0.388776610251D-04 0.000000000000D+00  6 2 -1 25 24 1 -1 4 0.22203485D-01 0.18050883D-01 0.15862426D+05 0.15862426D+05 0.15862426D+05 0.12450642D+01  1  2 12  6  6  5       21 0.217742759950D-02 0.100000000000D+01
0.159772722443D-05 0.000000000000D+00 0.000000000000D+00 0.388776610251D-04 0.000000000000D+00  6 2 -1 25 24 1 -1 4 0.22203485D-01 0.18050883D-01 0.15862426D+05 0.15862426D+05 0.15862426D+05 0.12450642D+01  1  2 12  6  6  5       21 0.243139184361D-02 0.100000000000D+01
-.236012837161D-05 0.000000000000D+00 0.000000000000D+00 0.388343646963D-04 0.000000000000D+00  6 2 -1 25 24 1 -1 4 0.22203485D-01 0.18050883D-01 0.16087916D+05 0.16087916D+05 0.16087916D+05 0.12443708D+01  1  2  5  6  6  5       21 -.358532357314D-02 0.100000000000D+01
0.143084108968D-05 0.000000000000D+00 0.000000000000D+00 0.388776610251D-04 0.000000000000D+00  6 2 -1 25 24 2 -2 4 0.22203485D-01 0.18050883D-01 0.15862426D+05 0.15862426D+05 0.15862426D+05 0.12450642D+01  1  2 12  7  6  5       21 0.217742759950D-02 0.100000000000D+01
0.159772722443D-05 0.000000000000D+00 0.000000000000D+00 0.388776610251D-04 0.000000000000D+00  6 2 -1 25 24 2 -2 4 0.22203485D-01 0.18050883D-01 0.15862426D+05 0.15862426D+05 0.15862426D+05 0.12450642D+01  1  2 12  7  6  5       21 0.243139184361D-02 0.100000000000D+01
-.236012837161D-05 0.000000000000D+00 0.000000000000D+00 0.388343646963D-04 0.000000000000D+00  6 2 -1 25 24 2 -2 4 0.22203485D-01 0.18050883D-01 0.16087916D+05 0.16087916D+05 0.16087916D+05 0.12443708D+01  1  2  5  7  6  5       21 -.358532357314D-02 0.100000000000D+01
0.143084108968D-05 0.000000000000D+00 0.000000000000D+00 0.388776610251D-04 0.000000000000D+00  6 2 -1 25 24 3 -3 4 0.22203485D-01 0.18050883D-01 0.15862426D+05 0.15862426D+05 0.15862426D+05 0.12450642D+01  1  2 12  8  6  5       21 0.217742759950D-02 0.100000000000D+01
0.143084108968D-05 0.000000000000D+00 0.000000000000D+00 0.388776610251D-04 0.000000000000D+00  6 2 -1 25 24 4 -4 4 0.22203485D-01 0.18050883D-01 0.15862426D+05 0.15862426D+05 0.15862426D+05 0.12450642D+01  1  2 12  8  6  5       21 0.217742759950D-02 0.100000000000D+01
0.159772722443D-05 0.000000000000D+00 0.000000000000D+00 0.388776610251D-04 0.000000000000D+00  6 2 -1 25 24 3 -3 4 0.22203485D-01 0.18050883D-01 0.15862426D+05 0.15862426D+05 0.15862426D+05 0.12450642D+01  1  2 12  8  6  5       21 0.243139184361D-02 0.100000000000D+01
0.159772722443D-05 0.000000000000D+00 0.000000000000D+00 0.388776610251D-04 0.000000000000D+00  6 2 -1 25 24 4 -4 4 0.22203485D-01 0.18050883D-01 0.15862426D+05 0.15862426D+05 0.15862426D+05 0.12450642D+01  1  2 12  8  6  5       21 0.243139184361D-02 0.100000000000D+01
-.236012837161D-05 0.000000000000D+00 0.000000000000D+00 0.388343646963D-04 0.000000000000D+00  6 2 -1 25 24 3 -3 4 0.22203485D-01 0.18050883D-01 0.16087916D+05 0.16087916D+05 0.16087916D+05 0.12443708D+01  1  2  5  8  6  5       21 -.358532357314D-02 0.100000000000D+01
-.236012837161D-05 0.000000000000D+00 0.000000000000D+00 0.388343646963D-04 0.000000000000D+00  6 2 -1 25 24 4 -4 4 0.22203485D-01 0.18050883D-01 0.16087916D+05 0.16087916D+05 0.16087916D+05 0.12443708D+01  1  2  5  8  6  5       21 -.358532357314D-02 0.100000000000D+01
  </mgrwgt>
  </event>
  <event>
  5     66 0.46179844E-03 0.36205915E+02 0.75467711E-02 0.12037836E+00
        2 -1    0    0  502    0 0.00000000E+00 0.00000000E+00 0.28386649E+04 0.28386650E+04 0.32000000E+00 0.0000E+00 0.9000E+01
       -1 -1    0    0    0  501 0.00000000E+00 0.00000000E+00 -.12965900E+02 0.12969848E+02 0.32000000E+00 0.0000E+00 0.9000E+01
       25  1    1    2    0    0 -.17241370E+00 -.53773840E+02 0.99066823E+03 0.99997009E+03 0.12500000E+03 0.0000E+00 0.9000E+01
       24  1    1    2    0    0 -.11031252E+02 0.88201867E+02 0.43634381E+03 0.45250900E+03 0.80419002E+02 0.0000E+00 0.9000E+01
       21  1    1    2  502  501 0.11203666E+02 -.34428027E+02 0.13986870E+04 0.13991557E+04 0.75000000E+00 0.0000E+00 0.9000E+01
#aMCatNLO 1  0  0  5  2 0.36128464D+01 0.00000000D+00  -5  6  0 0.00000000D+00 0.00000000D+00 0.00000000D+00 0.00000000D+00 0.00000000D+00
  <mgrwgt>
 0.1769757971D+00   25    2    0
 0.191863235891533D+03 0.000000000000000D+00 0.000000000000000D+00 0.191863235891533D+03
 0.191863235891533D+03 -.000000000000000D+00 -.000000000000000D+00 -.191863235891533D+03
 0.136084490495117D+03 -.172530011398821D+00 -.537734829503597D+02 -.153990847066221D+01
 0.149623398608269D+03 -.110313800235019D+02 0.882022600993046D+02 -.895467220219159D+02
 0.980185826796803D+02 0.112039100349008D+02 -.344287771489448D+02 0.910866304925781D+02
 0.000000000000000D+00 0.000000000000000D+00 0.000000000000000D+00 0.000000000000000D+00
 0.191863235891533D+03 0.000000000000000D+00 0.000000000000000D+00 0.191863235891533D+03
 0.191863235891533D+03 -.000000000000000D+00 -.000000000000000D+00 -.191863235891533D+03
 0.136135331988211D+03 -.127672435164657D+00 -.539113269254360D+02 -.117522101257784D+01
 0.149291130364677D+03 -.109821235764564D+02 0.880508987233923D+02 -.891462721988237D+02
 0.914679946032964D+02 0.869847232514309D+01 -.351253013005989D+02 0.840056178151171D+02
 0.683201482688240D+01 0.241132368647793D+01 0.985729502642672D+00 0.631587539628445D+01
0.182700119189D-03 0.000000000000D+00 0.000000000000D+00 0.173186789222D-04 0.000000000000D+00  6 2 -1 25 24 21 21 2 0.43671799D+00 0.19950590D-02 0.21337988D+05 0.21337988D+05 0.21337988D+05 0.12307419D+01  1  2  2  3  6  5       21 0.571009034642D-01 0.100000000000D+01
0.120992292048D-04 0.964135017076D-05 -.701616563733D-06 0.173186789222D-04 0.000000000000D+00  6 2 -1 25 24 21 21 4 0.43671799D+00 0.19950590D-02 0.21337988D+05 0.21337988D+05 0.21337988D+05 0.12307419D+01  1  2  3  3  6  5       21 0.572790488852D-02 0.100000000000D+01
0.773551145464D-05 0.000000000000D+00 0.000000000000D+00 0.173186789222D-04 0.000000000000D+00  6 2 -1 25 24 21 21 4 0.43671799D+00 0.19950590D-02 0.21337988D+05 0.21337988D+05 0.21337988D+05 0.12307419D+01  1  2 15  3  6  5       21 0.366207409796D-02 0.100000000000D+01
0.180955248816D-04 0.000000000000D+00 0.000000000000D+00 0.172957376516D-04 0.000000000000D+00  6 2 -1 25 24 21 21 4 0.43671799D+00 0.19950590D-02 0.21708283D+05 0.21708283D+05 0.21708283D+05 0.12299264D+01  1  2 12  3  6  5       21 0.854198845073D-02 0.100000000000D+01
0.311467425372D-04 0.000000000000D+00 0.000000000000D+00 0.172957376516D-04 0.000000000000D+00  6 2 -1 25 24 21 21 4 0.43671799D+00 0.19950590D-02 0.21708283D+05 0.21708283D+05 0.21708283D+05 0.12299264D+01  1  2 12  3  6  5       21 0.147028128099D-01 0.100000000000D+01
-.186756240215D-02 0.000000000000D+00 0.000000000000D+00 0.173186789222D-04 0.000000000000D+00  6 2 -1 25 24 21 21 4 0.43671799D+00 0.19950590D-02 0.21337988D+05 0.21337988D+05 0.21337988D+05 0.12307419D+01  1  2  4  3  6  5       21 -.884124073675D+00 0.100000000000D+01
-.465493309612D-02 0.000000000000D+00 0.000000000000D+00 0.173186789222D-04 0.000000000000D+00  6 2 -1 25 24 21 21 4 0.43671799D+00 0.19950590D-02 0.21337988D+05 0.21337988D+05 0.21337988D+05 0.12307419D+01  1  2  5  3  6  5       21 -.220369525906D+01 0.100000000000D+01
0.497357344017D-02 0.000000000000D+00 -.000000000000D+00 0.173186789222D-04 0.000000000000D+00  6 2 -1 25 24 21 21 4 0.43671799D+00 0.19950590D-02 0.21337988D+05 0.21337988D+05 0.21337988D+05 0.12307419D+01  1  2  6  3  6  5       21 0.235454301585D+01 0.100000000000D+01
0.173466652385D-02 0.000000000000D+00 0.000000000000D+00 0.173186789222D-04 0.834091441662D-05  6 2 -1 25 24 21 21 4 0.43671799D+00 0.19950590D-02 0.21708283D+05 0.21708283D+05 0.21708283D+05 0.12299264D+01  1  2 11  3  6  5       21 0.818848942463D+00 0.100000000000D+01
0.583857817896D-06 0.000000000000D+00 0.000000000000D+00 0.172957376516D-04 0.000000000000D+00  6 2 -1 25 24 1 -1 4 0.43671799D+00 0.19950590D-02 0.21708283D+05 0.21708283D+05 0.21708283D+05 0.12299264D+01  1  2 12  6  6  5       21 0.275609951630D-03 0.100000000000D+01
0.682192684789D-06 0.000000000000D+00 0.000000000000D+00 0.172957376516D-04 0.000000000000D+00  6 2 -1 25 24 1 -1 4 0.43671799D+00 0.19950590D-02 0.21708283D+05 0.21708283D+05 0.21708283D+05 0.12299264D+01  1  2 12  6  6  5       21 0.322028903432D-03 0.100000000000D+01
-.252820185594D-04 0.000000000000D+00 0.000000000000D+00 0.173186789222D-04 0.000000000000D+00  6 2 -1 25 24 1 -1 4 0.43671799D+00 0.19950590D-02 0.21337988D+05 0.21337988D+05 0.21337988D+05 0.12307419D+01  1  2  5  6  6  5       21 -.119687787748D-01 0.100000000000D+01
0.248626748422D-04 0.000000000000D+00 0.000000000000D+00 0.173186789222D-04 0.110771196679D-06  6 2 -1 25 24 1 -1 4 0.43671799D+00 0.19950590D-02 0.21708283D+05 0.21708283D+05 0.21708283D+05 0.12299264D+01  1  2 11  6  6  5       21 0.117364200677D-01 0.100000000000D+01
0.583857817896D-06 0.000000000000D+00 0.000000000000D+00 0.172957376516D-04 0.000000000000D+00  6 2 -1 25 24 2 -2 4 0.43671799D+00 0.19950590D-02 0.21708283D+05 0.21708283D+05 0.21708283D+05 0.12299264D+01  1  2 12  7  6  5       21 0.275609951630D-03 0.100000000000D+01
0.682192684789D-06 0.000000000000D+00 0.000000000000D+00 0.172957376516D-04 0.000000000000D+00  6 2 -1 25 24 2 -2 4 0.43671799D+00 0.19950590D-02 0.21708283D+05 0.21708283D+05 0.21708283D+05 0.12299264D+01  1  2 12  7  6  5       21 0.322028903432D-03 0.100000000000D+01
-.252820185594D-04 0.000000000000D+00 0.000000000000D+00 0.173186789222D-04 0.000000000000D+00  6 2 -1 25 24 2 -2 4 0.43671799D+00 0.19950590D-02 0.21337988D+05 0.21337988D+05 0.21337988D+05 0.12307419D+01  1  2  5  7  6  5       21 -.119687787748D-01 0.100000000000D+01
0.254303077149D-04 0.000000000000D+00 0.000000000000D+00 0.173186789222D-04 0.114631809241D-06  6 2 -1 25 24 2 -2 4 0.43671799D+00 0.19950590D-02 0.21708283D+05 0.21708283D+05 0.21708283D+05 0.12299264D+01  1  2 11  7  6  5       21 0.120043710376D-01 0.100000000000D+01
0.583857817896D-06 0.000000000000D+00 0.000000000000D+00 0.172957376516D-04 0.000000000000D+00  6 2 -1 25 24 3 -3 4 0.43671799D+00 0.19950590D-02 0.21708283D+05 0.21708283D+05 0.21708283D+05 0.12299264D+01  1  2 12  8  6  5       21 0.275609951630D-03 0.100000000000D+01
0.583857817896D-06 0.000000000000D+00 0.000000000000D+00 0.172957376516D-04 0.000000000000D+00  6 2 -1 25 24 4 -4 4 0.43671799D+00 0.19950590D-02 0.21708283D+05 0.21708283D+05 0.21708283D+05 0.12299264D+01  1  2 12  8  6  5       21 0.275609951630D-03 0.100000000000D+01
0.682192684789D-06 0.000000000000D+00 0.000000000000D+00 0.172957376516D-04 0.000000000000D+00  6 2 -1 25 24 3 -3 4 0.43671799D+00 0.19950590D-02 0.21708283D+05 0.21708283D+05 0.21708283D+05 0.12299264D+01  1  2 12  8  6  5       21 0.322028903432D-03 0.100000000000D+01
0.682192684789D-06 0.000000000000D+00 0.000000000000D+00 0.172957376516D-04 0.000000000000D+00  6 2 -1 25 24 4 -4 4 0.43671799D+00 0.19950590D-02 0.21708283D+05 0.21708283D+05 0.21708283D+05 0.12299264D+01  1  2 12  8  6  5       21 0.322028903432D-03 0.100000000000D+01
-.252820185594D-04 0.000000000000D+00 0.000000000000D+00 0.173186789222D-04 0.000000000000D+00  6 2 -1 25 24 3 -3 4 0.43671799D+00 0.19950590D-02 0.21337988D+05 0.21337988D+05 0.21337988D+05 0.12307419D+01  1  2  5  8  6  5       21 -.119687787748D-01 0.100000000000D+01
-.252820185594D-04 0.000000000000D+00 0.000000000000D+00 0.173186789222D-04 0.000000000000D+00  6 2 -1 25 24 4 -4 4 0.43671799D+00 0.19950590D-02 0.21337988D+05 0.21337988D+05 0.21337988D+05 0.12307419D+01  1  2  5  8  6  5       21 -.119687787748D-01 0.100000000000D+01
0.247974446985D-04 0.000000000000D+00 0.000000000000D+00 0.173186789222D-04 0.109510590328D-06  6 2 -1 25 24 3 -3 4 0.43671799D+00 0.19950590D-02 0.21708283D+05 0.21708283D+05 0.21708283D+05 0.12299264D+01  1  2 11  8  6  5       21 0.117056281930D-01 0.100000000000D+01
0.247974446985D-04 0.000000000000D+00 0.000000000000D+00 0.173186789222D-04 0.109510590328D-06  6 2 -1 25 24 4 -4 4 0.43671799D+00 0.19950590D-02 0.21708283D+05 0.21708283D+05 0.21708283D+05 0.12299264D+01  1  2 11  8  6  5       21 0.117056281930D-01 0.100000000000D+01
  </mgrwgt>
  </event>
  <event>
  5     66 -.46179844E-03 0.27499625E+02 0.75467711E-02 0.11327084E+00
        2 -1    0    0  502    0 0.00000000E+00 0.00000000E+00 0.26359999E+03 0.26360018E+03 0.32000000E+00 0.0000E+00 0.9000E+01
       -1 -1    0    0    0  501 0.00000000E+00 0.00000000E+00 -.20485812E+03 0.20485837E+03 0.32000000E+00 0.0000E+00 0.9000E+01
       25  1    1    2    0    0 -.12690780E+03 -.10583813E+03 0.26020368E+02 0.20882854E+03 0.12500000E+03 0.0000E+00 0.9000E+01
       24  1    1    2    0    0 0.14435690E+03 0.12708845E+03 0.63913143E+02 0.21804242E+03 0.80419002E+02 0.0000E+00 0.9000E+01
       21  1    1    2  502  501 -.17449100E+02 -.21250317E+02 -.31191643E+02 0.41587596E+02 0.75000000E+00 0.0000E+00 0.9000E+01
#aMCatNLO 1  0  0  5  2 0.36128464D+01 0.00000000D+00  -5  6  0 0.00000000D+00 0.00000000D+00 0.00000000D+00 0.00000000D+00 0.00000000D+00
  <mgrwgt>
 -.4180852841D-01    1    2    0
 0.232380511690517D+03 0.000000000000000D+00 0.000000000000000D+00 0.232380511690517D+03
 0.232380511690517D+03 -.000000000000000D+00 -.000000000000000D+00 -.232380511690517D+03
 0.207199891428201D+03 -.126906760812635D+03 -.105836864920254D+03 -.164595732217074D+00
 0.211700919253972D+03 0.144357964275740D+03 0.127089744211708D+03 0.368651369856787D+02
 0.458602126988622D+02 -.174512034631053D+02 -.212528792914546D+02 -.367005412534617D+02
 0.000000000000000D+00 0.000000000000000D+00 0.000000000000000D+00 0.000000000000000D+00
 0.232380511690517D+03 0.000000000000000D+00 0.000000000000000D+00 0.232380511690517D+03
 0.232380511690517D+03 -.000000000000000D+00 -.000000000000000D+00 -.232380511690517D+03
 0.214572566430467D+03 -.132547761855582D+03 -.112706735786305D+03 -.120278343865133D+02
 0.202136784366168D+03 0.138823086703164D+03 0.120349115395385D+03 0.252250800053892D+02
 0.274639189563117D+02 0.117004918177845D+02 -.155458539576712D+02 -.193827696779273D+02
 0.205877536280876D+02 -.179758166653671D+02 0.790347434859133D+01 0.618552405905134D+01
-.153831193962D-03 0.000000000000D+00 0.000000000000D+00 0.216605876142D-04 0.000000000000D+00  6 2 -1 25 24 21 21 4 0.40553879D-01 0.31516668D-01 0.49098993D+05 0.49098993D+05 0.49098993D+05 0.11930647D+01  1  2 14  3  6  5       21 -.418085284057D-01 0.100000000000D+01
  </mgrwgt>
  </event>
  <event>
  5     66 0.46179844E-03 0.34629687E+02 0.75467711E-02 0.10129773E+00
        2 -1    0    0  502    0 0.00000000E+00 0.00000000E+00 0.25116839E+03 0.25116859E+03 0.32000000E+00 0.0000E+00 0.9000E+01
       -1 -1    0    0    0  501 0.00000000E+00 0.00000000E+00 -.14379940E+03 0.14379976E+03 0.32000000E+00 0.0000E+00 0.9000E+01
       25  1    1    2    0    0 -.87296826E+02 0.50639411E+02 0.65560231E+02 0.17351723E+03 0.12500000E+03 0.0000E+00 0.9000E+01
       24  1    1    2    0    0 0.56652293E+02 -.66764723E+02 -.45675648E+02 0.12735969E+03 0.80419002E+02 0.0000E+00 0.9000E+01
       21  1    1    2  502  501 0.30644534E+02 0.16125312E+02 0.87484404E+02 0.94091427E+02 0.75000000E+00 0.0000E+00 0.9000E+01
#aMCatNLO 1  0  0  2  2 0.84967267D+00 0.00000000D+00  -5  6  0 0.00000000D+00 0.00000000D+00 0.00000000D+00 0.00000000D+00 0.00000000D+00
  <mgrwgt>
 0.1965479063D+00    5    4    0
 0.190047296243953D+03 0.000000000000000D+00 0.000000000000000D+00 0.190047296243953D+03
 0.190047296243953D+03 0.000000000000000D+00 0.000000000000000D+00 -.190047296243953D+03
 0.161787917610992D+03 -.872975137635528D+02 0.506390496990906D+02 0.191091868266637D+02
 0.145246591511868D+03 0.566516755390051D+02 -.667650478380913D+02 -.834408319544187D+02
 0.730600833650469D+02 0.306458382245478D+02 0.161259981390007D+02 0.643316451277550D+02
 0.000000000000000D+00 -.000000000000000D+00 -.000000000000000D+00 -.000000000000000D+00
 0.396476329461896D+03 0.000000000000000D+00 0.000000000000000D+00 0.396476329461896D+03
 0.782434982646271D+03 0.000000000000000D+00 0.000000000000000D+00 -.782434982646271D+03
 0.183623411826113D+03 0.565541997904662D+02 0.120536379718100D+03 0.191091868266637D+02
 0.250191270477366D+03 0.221337686689797D+03 0.132556358682486D+02 -.834408319544187D+02
 0.153735748699656D+03 0.125098354077412D+03 0.620203327185758D+02 0.643316451277550D+02
 0.591360881105032D+03 -.402990240557676D+03 -.195812348304924D+03 -.385958653184375D+03
 0.190047296243953D+03 0.000000000000000D+00 0.000000000000000D+00 0.190047296243953D+03
 0.190047296243953D+03 0.000000000000000D+00 0.000000000000000D+00 -.190047296243953D+03
 0.161787917610992D+03 -.872975137635528D+02 0.506390496990906D+02 0.191091868266637D+02
 0.145246591511868D+03 0.566516755390051D+02 -.667650478380913D+02 -.834408319544187D+02
 0.000000000000000D+00 -.000000000000000D+00 -.000000000000000D+00 -.000000000000000D+00
 0.730600833650469D+02 0.306458382245478D+02 0.161259981390007D+02 0.643316451277550D+02
 0.396476329461896D+03 0.000000000000000D+00 0.000000000000000D+00 0.396476329461896D+03
 0.782434982646271D+03 0.000000000000000D+00 0.000000000000000D+00 -.782434982646271D+03
 0.183623411826113D+03 0.565541997904662D+02 0.120536379718100D+03 0.191091868266637D+02
 0.250191270477366D+03 0.221337686689797D+03 0.132556358682486D+02 -.834408319544187D+02
 0.591360881105032D+03 -.402990240557676D+03 -.195812348304924D+03 -.385958653184375D+03
 0.153735748699656D+03 0.125098354077412D+03 0.620203327185758D+02 0.643316451277550D+02
0.400909817218D-03 0.000000000000D+00 0.000000000000D+00 0.158075300144D-04 0.000000000000D+00  6 2 -1 25 24 21 21 2 0.38641334D-01 0.22123028D-01 0.24676084D+05 0.24676084D+05 0.24676084D+05 0.12239053D+01  1  2  2  2  6  2       -1 0.151737464134D+00 0.100000000000D+01
0.305177641721D-04 0.211565922991D-04 -.153959926009D-05 0.158075300144D-04 0.000000000000D+00  6 2 -1 25 24 21 21 4 0.38641334D-01 0.22123028D-01 0.24676084D+05 0.24676084D+05 0.24676084D+05 0.12239053D+01  1  2  3  2  6  2       -1 0.173019279354D-01 0.100000000000D+01
0.171984466589D-04 0.000000000000D+00 0.000000000000D+00 0.158075300144D-04 0.000000000000D+00  6 2 -1 25 24 21 21 4 0.38641334D-01 0.22123028D-01 0.24676084D+05 0.24676084D+05 0.24676084D+05 0.12239053D+01  1  2 15  2  6  2       -1 0.975059257333D-02 0.100000000000D+01
0.653898757045D-03 0.000000000000D+00 -.360006005844D-03 0.158075300144D-04 0.000000000000D+00  6 2 -1 25 24 21 21 4 0.38641334D-01 0.16392647D+00 0.24676084D+05 0.24676084D+05 0.24676084D+05 0.12239053D+01  1  2  5  2  6  2       -1 0.688351356493D-02 0.100000000000D+01
0.121853616611D-03 0.000000000000D+00 -.879142493177D-04 0.158075300144D-04 0.000000000000D+00  6 2 21 25 24 1 21 4 0.38641334D-01 0.16392647D+00 0.24676084D+05 0.24676084D+05 0.24676084D+05 0.12239053D+01  3  4  5  5  5  2       -1 0.108744080898D-01 0.100000000000D+01
  </mgrwgt>
  </event>
  <event>
  6     66 0.46179844E-03 0.52863702E+02 0.75467711E-02 0.11931612E+00
        2 -1    0    0  502    0 0.00000000E+00 0.00000000E+00 0.54882913E+03 0.54882922E+03 0.32000000E+00 0.0000E+00 0.9000E+01
       -1 -1    0    0    0  501 0.00000000E+00 0.00000000E+00 -.77871207E+02 0.77871865E+02 0.32000000E+00 0.0000E+00 0.9000E+01
       25  1    1    2    0    0 -.31232657E+02 0.14984160E+02 0.18882136E+03 0.22908189E+03 0.12500000E+03 0.0000E+00 0.9000E+01
       24  1    1    2    0    0 0.72726801E+02 0.32612974E+02 0.30442276E+03 0.32479721E+03 0.80419002E+02 0.0000E+00 0.9000E+01
        3  1    1    2  502    0 -.19670095E+02 -.42534460E+02 -.16411141E+02 0.49655498E+02 0.50000000E+00 0.0000E+00 0.9000E+01
       -3  1    1    2    0  501 -.21824049E+02 -.50626734E+01 -.58750663E+01 0.23166489E+02 0.50000000E+00 0.0000E+00 0.9000E+01
#aMCatNLO 2  0  0  5  2 0.13185726D+02 0.00000000D+00  -5  6  0 0.00000000D+00 0.00000000D+00 0.00000000D+00 0.00000000D+00 0.00000000D+00
  <mgrwgt>
 0.1781079249D-02    3    2    0
 0.206732247023918D+03 0.000000000000000D+00 0.000000000000000D+00 0.206732247023918D+03
 0.206732247023918D+03 -.000000000000000D+00 -.000000000000000D+00 -.206732247023918D+03
 0.132284770741610D+03 -.309264834184252D+02 0.153353649282873D+02 0.261273759885384D+02
 0.146406540388651D+03 0.730648429740335D+02 0.330007356459759D+02 0.924128740068584D+02
 0.134773182917575D+03 -.421383595556084D+02 -.483361005742632D+02 -.118540249995397D+03
 0.000000000000000D+00 0.000000000000000D+00 0.000000000000000D+00 -.000000000000000D+00
 0.206732247023918D+03 0.000000000000000D+00 0.000000000000000D+00 0.206732247023918D+03
 0.206732247023918D+03 -.000000000000000D+00 -.000000000000000D+00 -.206732247023918D+03
 0.132148932725056D+03 -.312329894076652D+02 0.149837778119695D+02 0.252651379476472D+02
 0.145550758248237D+03 0.727264342936672D+02 0.326125535671789D+02 0.914608898766194D+02
 0.937426943131551D+02 -.195750424351993D+02 -.424805970350183D+02 -.812398259863855D+02
 0.420221087613878D+02 -.219184024508027D+02 -.511573434413005D+01 -.354862018378812D+02
-.282925525354D-05 0.000000000000D+00 0.000000000000D+00 0.742327475291D-05 0.000000000000D+00  6 2 -1 25 24 3 -3 4 0.84435308D-01 0.11980243D-01 0.24369962D+05 0.24369962D+05 0.24369962D+05 0.12244879D+01  1  2 13  8  6  5       21 -.182787312323D-02 0.100000000000D+01
-.240400183195D-05 0.000000000000D+00 0.000000000000D+00 0.742327475291D-05 0.000000000000D+00  6 2 -1 25 24 3 -3 4 0.84435308D-01 0.11980243D-01 0.24369962D+05 0.24369962D+05 0.24369962D+05 0.12244879D+01  1  2 13  8  6  5       21 -.155313322519D-02 0.100000000000D+01
0.799008290638D-05 0.000000000000D+00 0.000000000000D+00 0.744108063374D-05 0.110992303615D-07  6 2 -1 25 24 3 -3 4 0.84435308D-01 0.11980243D-01 0.24369962D+05 0.24369962D+05 0.24369962D+05 0.12244879D+01  1  2  1  8  6  5       21 0.516208559787D-02 0.100000000000D+01
  </mgrwgt>
  </event>
  <event>
  5     66 0.46179844E-03 0.27937345E+02 0.75467711E-02 0.11898078E+00
        2 -1    0    0  502    0 0.00000000E+00 0.00000000E+00 0.65177162E+02 0.65177947E+02 0.32000000E+00 0.0000E+00 0.9000E+01
       -1 -1    0    0    0  501 -.00000000E+00 -.00000000E+00 -.64073067E+03 0.64073075E+03 0.32000000E+00 0.0000E+00 0.9000E+01
       25  1    1    2    0    0 -.38368518E+02 -.75418192E+02 -.47132355E+03 0.49490498E+03 0.12500000E+03 0.0000E+00 0.9000E+01
       24  1    1    2    0    0 0.37649262E+02 0.47490518E+02 -.13565802E+03 0.16894712E+03 0.80419002E+02 0.0000E+00 0.9000E+01
       21  1    1    2  502  501 0.71925615E+00 0.27927674E+02 0.31428058E+02 0.42056601E+02 0.75000000E+00 0.0000E+00 0.9000E+01
#aMCatNLO 1  0  0  5  2 0.13185726D+02 0.00000000D+00  -5  6  0 0.00000000D+00 0.00000000D+00 0.00000000D+00 0.00000000D+00 0.00000000D+00
  <mgrwgt>
 0.6625513782D-01   10    2    0
 0.204355847366134D+03 0.000000000000000D+00 0.000000000000000D+00 0.204355847366134D+03
 0.204355847366134D+03 -.000000000000000D+00 -.000000000000000D+00 -.204355847366134D+03
 0.191054289713394D+03 -.383685246570221D+02 -.754184609049496D+02 -.117118118531087D+03
 0.100762368717611D+03 0.376492579400988D+02 0.474903764995450D+02 0.361061098771684D+01
 0.116895036301263D+03 0.719266716923331D+00 0.279280844054046D+02 0.113507507543370D+03
 0.000000000000000D+00 0.000000000000000D+00 0.000000000000000D+00 0.000000000000000D+00
 0.204355847366134D+03 0.000000000000000D+00 0.000000000000000D+00 0.204355847366134D+03
 0.204355847366134D+03 -.000000000000000D+00 -.000000000000000D+00 -.204355847366134D+03
 0.185418063574223D+03 -.383174558294206D+02 -.734355323275755D+02 -.109058944934107D+03
 0.101525761122918D+03 0.376766985145220D+02 0.485558542431866D+02 0.794100906544152D+01
 0.719557723235773D+02 -.303931654187805D+02 0.171160769866624D+02 0.629359084712041D+02
 0.498120977115508D+02 0.310339227336790D+02 0.776360109772649D+01 0.381820273974615D+02
0.568474346329D-03 0.000000000000D+00 0.000000000000D+00 0.320608556455D-04 0.000000000000D+00  6 2 -1 25 24 21 21 2 0.10027322D-01 0.98574017D-01 0.19541566D+05 0.19541566D+05 0.19541566D+05 0.12349363D+01  1  2  2  3  6  5       21 0.651432311067D-01 0.100000000000D+01
0.757719525995D-04 0.299992154377D-04 -.218309117264D-05 0.320608556455D-04 0.000000000000D+00  6 2 -1 25 24 21 21 4 0.10027322D-01 0.98574017D-01 0.19541566D+05 0.19541566D+05 0.19541566D+05 0.12349363D+01  1  2  3  3  6  5       21 0.132420736718D-01 0.100000000000D+01
0.356983294370D-04 0.000000000000D+00 0.000000000000D+00 0.320608556455D-04 0.000000000000D+00  6 2 -1 25 24 21 21 4 0.10027322D-01 0.98574017D-01 0.19541566D+05 0.19541566D+05 0.19541566D+05 0.12349363D+01  1  2 15  3  6  5       21 0.623871884184D-02 0.100000000000D+01
-.327180880546D-03 0.000000000000D+00 0.000000000000D+00 0.320608556455D-04 0.000000000000D+00  6 2 -1 25 24 21 21 4 0.10027322D-01 0.98574017D-01 0.19541566D+05 0.19541566D+05 0.19541566D+05 0.12349363D+01  1  2  4  3  6  5       21 -.571788528020D-01 0.100000000000D+01
-.467356316527D-03 0.000000000000D+00 0.000000000000D+00 0.320608556455D-04 0.000000000000D+00  6 2 -1 25 24 21 21 4 0.10027322D-01 0.98574017D-01 0.19541566D+05 0.19541566D+05 0.19541566D+05 0.12349363D+01  1  2  5  3  6  5       21 -.816762213738D-01 0.100000000000D+01
0.787250939460D-03 0.000000000000D+00 -.000000000000D+00 0.320608556455D-04 0.000000000000D+00  6 2 -1 25 24 21 21 4 0.10027322D-01 0.98574017D-01 0.19541566D+05 0.19541566D+05 0.19541566D+05 0.12349363D+01  1  2  6  3  6  5       21 0.137581711714D+00 0.100000000000D+01
-.244554066090D-04 0.000000000000D+00 0.000000000000D+00 0.320608556455D-04 0.000000000000D+00  6 2 -1 25 24 1 -1 4 0.10027322D-01 0.98574017D-01 0.19541566D+05 0.19541566D+05 0.19541566D+05 0.12349363D+01  1  2  5  6  6  5       21 -.427388083428D-02 0.100000000000D+01
-.244554066090D-04 0.000000000000D+00 0.000000000000D+00 0.320608556455D-04 0.000000000000D+00  6 2 -1 25 24 2 -2 4 0.10027322D-01 0.98574017D-01 0.19541566D+05 0.19541566D+05 0.19541566D+05 0.12349363D+01  1  2  5  7  6  5       21 -.427388083428D-02 0.100000000000D+01
-.244554066090D-04 0.000000000000D+00 0.000000000000D+00 0.320608556455D-04 0.000000000000D+00  6 2 -1 25 24 3 -3 4 0.10027322D-01 0.98574017D-01 0.19541566D+05 0.19541566D+05 0.19541566D+05 0.12349363D+01  1  2  5  8  6  5       21 -.427388083428D-02 0.100000000000D+01
-.244554066090D-04 0.000000000000D+00 0.000000000000D+00 0.320608556455D-04 0.000000000000D+00  6 2 -1 25 24 4 -4 4 0.10027322D-01 0.98574017D-01 0.19541566D+05 0.19541566D+05 0.19541566D+05 0.12349363D+01  1  2  5  8  6  5       21 -.427388083428D-02 0.100000000000D+01
  </mgrwgt>
  </event>
  <event>
  6     66 0.46179844E-03 0.33624634E+02 0.75467711E-02 0.11465077E+00
        2 -1    0    0  502    0 0.00000000E+00 0.00000000E+00 0.20077587E+04 0.20077587E+04 0.32000000E+00 0.0000E+00 0.9000E+01
       21 -1    0    0  503  501 0.00000000E+00 0.00000000E+00 -.39833421E+02 0.39840481E+02 0.75000000E+00 0.0000E+00 0.9000E+01
       25  1    1    2    0    0 0.47337156E+01 -.13694056E+03 0.91063650E+03 0.92933253E+03 0.12500000E+03 0.0000E+00 0.9000E+01
       24  1    1    2    0    0 0.43791038E+02 0.13054451E+03 0.10090108E+04 0.10215329E+04 0.80419002E+02 0.0000E+00 0.9000E+01
        1  1    1    2  503    0 -.68145677E+01 0.18235738E+02 0.49667033E+02 0.53346950E+02 0.32000000E+00 0.0000E+00 0.9000E+01
       21  1    1    2  502  501 -.41710186E+02 -.11839696E+02 -.13890926E+01 0.43386751E+02 0.75000000E+00 0.0000E+00 0.9000E+01
#aMCatNLO 2  0  0  2  2 0.19467421D+02 0.00000000D+00  -5  6  0 0.00000000D+00 0.00000000D+00 0.00000000D+00 0.00000000D+00 0.00000000D+00
  <mgrwgt>
 0.4883886955D-01    1    2    0
 0.272464852438946D+03 0.000000000000000D+00 0.000000000000000D+00 0.272464852438946D+03
 0.272464852438946D+03 0.000000000000000D+00 0.000000000000000D+00 -.272464852438946D+03
 0.190773508653087D+03 0.232070262552613D+01 -.130482896902049D+03 0.611421258968186D+02
 0.190361102519370D+03 0.414360460569923D+02 0.136846910925853D+03 0.965717891272290D+02
 0.000000000000000D+00 -.000000000000000D+00 0.000000000000000D+00 -.000000000000000D+00
 0.163795093705437D+03 -.437567486825185D+02 -.636401402380340D+01 -.157713915024048D+03
 0.279815824584936D+03 0.000000000000000D+00 0.000000000000000D+00 0.279815824584936D+03
 0.285839582566722D+03 0.000000000000000D+00 0.000000000000000D+00 -.285839582566722D+03
 0.195290758590829D+03 0.473387829912247D+01 -.136940539023505D+03 0.611421258968186D+02
 0.186421214746020D+03 0.437912029554981D+02 0.130544526662314D+03 0.965717891272290D+02
 0.203780797905832D+02 -.681456770957916D+01 0.182357380618336D+02 -.602375798178602D+01
 0.163565354024225D+03 -.417105135450414D+02 -.118397257006422D+02 -.157713915024048D+03
0.130141012692D-04 0.000000000000D+00 0.000000000000D+00 0.126852790391D-04 0.105590237713D-07  6 2 21 25 24 1 21 4 0.30888512D+00 0.61287364D-02 0.41566272D+05 0.41566272D+05 0.41566272D+05 0.12003100D+01  1  2  1  5  5  2       -1 0.488388695518D-01 0.100000000000D+01
  </mgrwgt>
  </event>
  <event>
  6     66 -.46179844E-03 0.36698710E+02 0.75467711E-02 0.11121779E+00
        2 -1    0    0  502    0 0.00000000E+00 0.00000000E+00 0.17837145E+04 0.17837145E+04 0.32000000E+00 0.0000E+00 0.9000E+01
       -1 -1    0    0    0  501 0.00000000E+00 0.00000000E+00 -.39169257E+03 0.39169270E+03 0.32000000E+00 0.0000E+00 0.9000E+01
       25  1    1    2    0    0 0.10664442E+03 0.18936551E+03 0.65717483E+03 0.70337479E+03 0.12500000E+03 0.0000E+00 0.9000E+01
       24  1    1    2    0    0 -.91300093E+02 -.16107278E+03 0.10882880E+04 0.11068506E+04 0.80419002E+02 0.0000E+00 0.9000E+01
       21  1    1    2  502  503 -.21920257E+02 -.35186948E+02 -.35319638E+03 0.35562180E+03 0.75000000E+00 0.0000E+00 0.9000E+01
       21  1    1    2  503  501 0.65759317E+01 0.68942209E+01 -.24452556E+00 0.95600969E+01 0.75000000E+00 0.0000E+00 0.9000E+01
#aMCatNLO 2  0  0  5  1 0.98673780D+01 0.00000000D+00  -5  6  0 0.00000000D+00 0.00000000D+00 0.00000000D+00 0.00000000D+00 0.00000000D+00
  <mgrwgt>
 -.8161060709D+01    3    2    0
 0.835863565096642D+03 0.000000000000000D+00 0.000000000000000D+00 0.835863565096642D+03
 0.835863565096642D+03 -.000000000000000D+00 -.000000000000000D+00 -.835863565096642D+03
 0.368883397433565D+03 0.106665786436442D+03 0.189404905346431D+03 0.270551571307088D+03
 0.535543786758824D+03 -.912690770034554D+02 -.161015589612326D+03 0.496068409663771D+03
 0.767299946000894D+03 -.153967094329864D+02 -.283893157341052D+02 -.766619980970859D+03
 0.000000000000000D+00 0.000000000000000D+00 0.000000000000000D+00 -.000000000000000D+00
 0.835863565096642D+03 0.000000000000000D+00 0.000000000000000D+00 0.835863565096642D+03
 0.835863565096642D+03 -.000000000000000D+00 -.000000000000000D+00 -.835863565096642D+03
 0.368076711388958D+03 0.106644402358839D+03 0.189365476185714D+03 0.269486833335868D+03
 0.534135139949512D+03 -.913001154503201D+02 -.161072820040150D+03 0.494522969474206D+03
 0.756913622036858D+03 -.219286893308177D+02 -.351966365904331D+02 -.755776792830998D+03
 0.126016568179545D+02 0.658440242229909D+01 0.690398044486998D+01 -.823300997907647D+01
-.946944809380D-01 0.000000000000D+00 0.000000000000D+00 0.843718747428D-04 0.000000000000D+00  6 2 -1 25 24 21 21 4 0.27441763D+00 0.60260408D-01 0.63398890D+05 0.63398890D+05 0.63398890D+05 0.11822030D+01  1  2 13  3  6  5       21 -.600022274792D+00 0.100000000000D+01
-.139038166040D+01 0.000000000000D+00 0.000000000000D+00 0.848278395540D-04 0.000000000000D+00  6 2 -1 25 24 21 21 4 0.27441763D+00 0.60260408D-01 0.58769463D+05 0.58769463D+05 0.58769463D+05 0.11853932D+01  1  2  8  3  6  5       21 -.894149648819D+01 0.100000000000D+01
0.217861510122D+00 0.000000000000D+00 0.000000000000D+00 0.848278395540D-04 0.220576943868D-05  6 2 -1 25 24 21 21 4 0.27441763D+00 0.60260408D-01 0.63398890D+05 0.63398890D+05 0.63398890D+05 0.11822030D+01  1  2  1  3  6  5       21 0.138045805414D+01 0.100000000000D+01
  </mgrwgt>
  </event>
  <event>
  5     66 0.46179844E-03 0.30938237E+02 0.75467711E-02 0.12039468E+00
        4 -1    0    0  502    0 0.00000000E+00 0.00000000E+00 0.69225517E+02 0.69242868E+02 0.15500000E+01 0.0000E+00 0.9000E+01
       -3 -1    0    0    0  501 0.00000000E+00 0.00000000E+00 -.35809899E+03 0.35809934E+03 0.50000000E+00 0.0000E+00 0.9000E+01
       25  1    1    2    0    0 0.42476370E+02 -.65513345E+01 -.25061824E+02 0.13453720E+03 0.12500000E+03 0.0000E+00 0.9000E+01
       24  1    1    2    0    0 -.31214423E+02 0.35358926E+02 -.22207656E+03 0.24085226E+03 0.80419002E+02 0.0000E+00 0.9000E+01
       21  1    1    2  502  501 -.11261947E+02 -.28807591E+02 -.41735089E+02 0.51952757E+02 0.75000000E+00 0.0000E+00 0.9000E+01
#aMCatNLO 1  0  0  2  5 0.30820255D+02 0.00000000D+00  -5  6  0 0.00000000D+00 0.00000000D+00 0.00000000D+00 0.00000000D+00 0.00000000D+00
  <mgrwgt>
 0.1847378536D-01    4    2    0
 0.157459104470428D+03 0.000000000000000D+00 0.000000000000000D+00 0.157459104470428D+03
 0.157459104470428D+03 0.000000000000000D+00 0.000000000000000D+00 -.157459104470428D+03
 0.159578013515941D+03 0.424779174188910D+02 -.654737712769786D+01 0.894030244577636D+02
 0.123124959734752D+03 -.312132295310566D+02 0.353619792935955D+02 -.804226614704746D+02
 0.322152356901630D+02 -.112646878878344D+02 -.288146021658977D+02 -.898036298728911D+01
 0.000000000000000D+00 0.000000000000000D+00 0.000000000000000D+00 0.000000000000000D+00
 0.178729415098793D+03 0.000000000000000D+00 0.000000000000000D+00 0.178729415098793D+03
 0.174332487979862D+03 0.000000000000000D+00 0.000000000000000D+00 -.174332487979862D+03
 0.156514086052496D+03 0.261515866532849D+02 -.139589708133639D+02 0.894030244577636D+02
 0.125490953890278D+03 -.440543781867090D+02 0.295325386397635D+02 -.804226614704746D+02
 0.349462521796297D+02 -.147336156692295D+02 -.303893762905762D+02 -.898036298728911D+01
 0.361106109562518D+02 0.326364072026536D+02 0.148158084641766D+02 0.439692711893029D+01
0.290324291529D-03 0.000000000000D+00 0.000000000000D+00 0.148041543025D-04 0.000000000000D+00  6 4 -3 25 24 21 21 2 0.10651441D-01 0.55093514D-01 0.16429020D+05 0.16429020D+05 0.16429020D+05 0.12433422D+01  1  2  2  2  6  2       -3 0.195673513991D-01 0.100000000000D+01
0.263922127091D-04 0.153208337801D-04 -.111492172361D-05 0.148041543025D-04 0.000000000000D+00  6 4 -3 25 24 21 21 4 0.10651441D-01 0.55093514D-01 0.16429020D+05 0.16429020D+05 0.16429020D+05 0.12433422D+01  1  2  3  2  6  2       -3 0.274982976439D-02 0.100000000000D+01
0.466774863388D-05 0.000000000000D+00 0.000000000000D+00 0.148041543025D-04 0.000000000000D+00  6 4 -3 25 24 21 21 4 0.10651441D-01 0.55093514D-01 0.16429020D+05 0.16429020D+05 0.16429020D+05 0.12433422D+01  1  2 15  2  6  2       -3 0.486337173301D-03 0.100000000000D+01
-.415557483096D-04 0.000000000000D+00 0.000000000000D+00 0.148041543025D-04 0.000000000000D+00  6 4 -3 25 24 21 21 4 0.10651441D-01 0.55093514D-01 0.16429020D+05 0.16429020D+05 0.16429020D+05 0.12433422D+01  1  2  4  2  6  2       -3 -.432973297247D-02 0.100000000000D+01
  </mgrwgt>
  </event>
  <event>
  5     66 0.46179844E-03 0.23452404E+02 0.75467711E-02 0.11825882E+00
        2 -1    0    0  502    0 0.00000000E+00 0.00000000E+00 0.20175849E+04 0.20175849E+04 0.32000000E+00 0.0000E+00 0.9000E+01
       -1 -1    0    0    0  501 0.00000000E+00 0.00000000E+00 -.13898906E+02 0.13902589E+02 0.32000000E+00 0.0000E+00 0.9000E+01
       25  1    1    2    0    0 0.99888257E+02 -.16191559E+02 0.83129846E+03 0.84671244E+03 0.12500000E+03 0.0000E+00 0.9000E+01
       24  1    1    2    0    0 -.11971174E+03 0.28702439E+02 0.10365311E+04 0.10469091E+04 0.80419002E+02 0.0000E+00 0.9000E+01
       21  1    1    2  502  501 0.19823485E+02 -.12510880E+02 0.13585650E+03 0.13786603E+03 0.75000000E+00 0.0000E+00 0.9000E+01
#aMCatNLO 1  0  0  5  2 0.20413500D+01 0.00000000D+00  -5  6  0 0.00000000D+00 0.00000000D+00 0.00000000D+00 0.00000000D+00 0.00000000D+00
  <mgrwgt>
 0.2541546720D+00   25    2    0
 0.167469371029634D+03 0.000000000000000D+00 0.000000000000000D+00 0.167469371029634D+03
 0.167469371029634D+03 -.000000000000000D+00 -.000000000000000D+00 -.167469371029634D+03
 0.162488069983409D+03 0.998833405303695D+02 -.161884566924876D+02 -.232082968212400D+02
 0.148986433442574D+03 -.119716249583001D+03 0.287052838977836D+02 0.239534477204476D+02
 0.234642386332856D+02 0.198329090526312D+02 -.125168272052960D+02 -.745150899207573D+00
 0.000000000000000D+00 0.000000000000000D+00 0.000000000000000D+00 0.000000000000000D+00
 0.167469371029634D+03 0.000000000000000D+00 0.000000000000000D+00 0.167469371029634D+03
 0.167469371029634D+03 -.000000000000000D+00 -.000000000000000D+00 -.167469371029634D+03
 0.162874213593896D+03 0.100447406857729D+03 -.165444468668563D+02 -.232294896038989D+02
 0.148506655992646D+03 -.119200498855757D+03 0.283797863766293D+02 0.239340702243298D+02
 0.212846798111246D+02 0.169235511311249D+02 -.128034129461016D+02 -.164427148181096D+01
 0.227319266160090D+01 0.182954086690344D+01 0.968073436328679D+00 0.939690861380030D+00
0.168799287001D-03 0.000000000000D+00 0.000000000000D+00 0.335235134091D-04 0.000000000000D+00  6 2 -1 25 24 21 21 2 0.31039797D+00 0.21385785D-02 0.27443693D+05 0.27443693D+05 0.27443693D+05 0.12189789D+01  1  2  2  3  6  5       21 0.128484849378D+00 0.100000000000D+01
0.454262587233D-04 0.890778310259D-05 -.648233707958D-06 0.335235134091D-04 0.000000000000D+00  6 2 -1 25 24 21 21 4 0.31039797D+00 0.21385785D-02 0.27443693D+05 0.27443693D+05 0.27443693D+05 0.12189789D+01  1  2  3  3  6  5       21 0.513784137529D-01 0.100000000000D+01
-.626559033977D-06 0.000000000000D+00 0.000000000000D+00 0.335235134091D-04 0.000000000000D+00  6 2 -1 25 24 21 21 4 0.31039797D+00 0.21385785D-02 0.27443693D+05 0.27443693D+05 0.27443693D+05 0.12189789D+01  1  2 15  3  6  5       21 -.708656406954D-03 0.100000000000D+01
0.188537783577D-07 0.000000000000D+00 0.000000000000D+00 0.335274503006D-04 0.000000000000D+00  6 2 -1 25 24 21 21 4 0.31039797D+00 0.21385785D-02 0.27401080D+05 0.27401080D+05 0.27401080D+05 0.12190505D+01  1  2 12  3  6  5       21 0.213290054094D-04 0.100000000000D+01
0.187860004071D-07 0.000000000000D+00 0.000000000000D+00 0.335274503006D-04 0.000000000000D+00  6 2 -1 25 24 21 21 4 0.31039797D+00 0.21385785D-02 0.27401080D+05 0.27401080D+05 0.27401080D+05 0.12190505D+01  1  2 12  3  6  5       21 0.212523291991D-04 0.100000000000D+01
-.106247506247D-02 0.000000000000D+00 0.000000000000D+00 0.335235134091D-04 0.000000000000D+00  6 2 -1 25 24 21 21 4 0.31039797D+00 0.21385785D-02 0.27443693D+05 0.27443693D+05 0.27443693D+05 0.12189789D+01  1  2  4  3  6  5       21 -.120169005539D+01 0.100000000000D+01
-.800979393188D-03 0.000000000000D+00 0.000000000000D+00 0.335235134091D-04 0.000000000000D+00  6 2 -1 25 24 21 21 4 0.31039797D+00 0.21385785D-02 0.27443693D+05 0.27443693D+05 0.27443693D+05 0.12189789D+01  1  2  5  3  6  5       21 -.905930882870D+00 0.100000000000D+01
0.990057851058D-03 0.000000000000D+00 -.000000000000D+00 0.335235134091D-04 0.000000000000D+00  6 2 -1 25 24 21 21 4 0.31039797D+00 0.21385785D-02 0.27443693D+05 0.27443693D+05 0.27443693D+05 0.12189789D+01  1  2  6  3  6  5       21 0.111978409274D+01 0.100000000000D+01
0.938709818512D-03 0.000000000000D+00 0.000000000000D+00 0.335235134091D-04 0.563313967663D-04  6 2 -1 25 24 21 21 4 0.31039797D+00 0.21385785D-02 0.27401080D+05 0.27401080D+05 0.27401080D+05 0.12190505D+01  1  2 11  3  6  5       21 0.106194877319D+01 0.100000000000D+01
0.453849671369D-08 0.000000000000D+00 0.000000000000D+00 0.335274503006D-04 0.000000000000D+00  6 2 -1 25 24 1 -1 4 0.31039797D+00 0.21385785D-02 0.27401080D+05 0.27401080D+05 0.27401080D+05 0.12190505D+01  1  2 12  6  6  5       21 0.513433536346D-05 0.100000000000D+01
0.453419516730D-08 0.000000000000D+00 0.000000000000D+00 0.335274503006D-04 0.000000000000D+00  6 2 -1 25 24 1 -1 4 0.31039797D+00 0.21385785D-02 0.27401080D+05 0.27401080D+05 0.27401080D+05 0.12190505D+01  1  2 12  6  6  5       21 0.512946908656D-05 0.100000000000D+01
-.655505334174D-05 0.000000000000D+00 0.000000000000D+00 0.335235134091D-04 0.000000000000D+00  6 2 -1 25 24 1 -1 4 0.31039797D+00 0.21385785D-02 0.27443693D+05 0.27443693D+05 0.27443693D+05 0.12189789D+01  1  2  5  6  6  5       21 -.741395510502D-02 0.100000000000D+01
0.675236156513D-05 0.000000000000D+00 0.000000000000D+00 0.335235134091D-04 0.762082871981D-06  6 2 -1 25 24 1 -1 4 0.31039797D+00 0.21385785D-02 0.27401080D+05 0.27401080D+05 0.27401080D+05 0.12190505D+01  1  2 11  6  6  5       21 0.763884849055D-02 0.100000000000D+01
0.453849671369D-08 0.000000000000D+00 0.000000000000D+00 0.335274503006D-04 0.000000000000D+00  6 2 -1 25 24 2 -2 4 0.31039797D+00 0.21385785D-02 0.27401080D+05 0.27401080D+05 0.27401080D+05 0.12190505D+01  1  2 12  7  6  5       21 0.513433536346D-05 0.100000000000D+01
0.453419516730D-08 0.000000000000D+00 0.000000000000D+00 0.335274503006D-04 0.000000000000D+00  6 2 -1 25 24 2 -2 4 0.31039797D+00 0.21385785D-02 0.27401080D+05 0.27401080D+05 0.27401080D+05 0.12190505D+01  1  2 12  7  6  5       21 0.512946908656D-05 0.100000000000D+01
-.655505334174D-05 0.000000000000D+00 0.000000000000D+00 0.335235134091D-04 0.000000000000D+00  6 2 -1 25 24 2 -2 4 0.31039797D+00 0.21385785D-02 0.27443693D+05 0.27443693D+05 0.27443693D+05 0.12189789D+01  1  2  5  7  6  5       21 -.741395510502D-02 0.100000000000D+01
0.672415890587D-05 0.000000000000D+00 0.000000000000D+00 0.335235134091D-04 0.748921297955D-06  6 2 -1 25 24 2 -2 4 0.31039797D+00 0.21385785D-02 0.27401080D+05 0.27401080D+05 0.27401080D+05 0.12190505D+01  1  2 11  7  6  5       21 0.760694323206D-02 0.100000000000D+01
0.453849671369D-08 0.000000000000D+00 0.000000000000D+00 0.335274503006D-04 0.000000000000D+00  6 2 -1 25 24 3 -3 4 0.31039797D+00 0.21385785D-02 0.27401080D+05 0.27401080D+05 0.27401080D+05 0.12190505D+01  1  2 12  8  6  5       21 0.513433536346D-05 0.100000000000D+01
0.453849671369D-08 0.000000000000D+00 0.000000000000D+00 0.335274503006D-04 0.000000000000D+00  6 2 -1 25 24 4 -4 4 0.31039797D+00 0.21385785D-02 0.27401080D+05 0.27401080D+05 0.27401080D+05 0.12190505D+01  1  2 12  8  6  5       21 0.513433536346D-05 0.100000000000D+01
0.453419516730D-08 0.000000000000D+00 0.000000000000D+00 0.335274503006D-04 0.000000000000D+00  6 2 -1 25 24 3 -3 4 0.31039797D+00 0.21385785D-02 0.27401080D+05 0.27401080D+05 0.27401080D+05 0.12190505D+01  1  2 12  8  6  5       21 0.512946908656D-05 0.100000000000D+01
0.453419516730D-08 0.000000000000D+00 0.000000000000D+00 0.335274503006D-04 0.000000000000D+00  6 2 -1 25 24 4 -4 4 0.31039797D+00 0.21385785D-02 0.27401080D+05 0.27401080D+05 0.27401080D+05 0.12190505D+01  1  2 12  8  6  5       21 0.512946908656D-05 0.100000000000D+01
-.655505334174D-05 0.000000000000D+00 0.000000000000D+00 0.335235134091D-04 0.000000000000D+00  6 2 -1 25 24 3 -3 4 0.31039797D+00 0.21385785D-02 0.27443693D+05 0.27443693D+05 0.27443693D+05 0.12189789D+01  1  2  5  8  6  5       21 -.741395510502D-02 0.100000000000D+01
-.655505334174D-05 0.000000000000D+00 0.000000000000D+00 0.335235134091D-04 0.000000000000D+00  6 2 -1 25 24 4 -4 4 0.31039797D+00 0.21385785D-02 0.27443693D+05 0.27443693D+05 0.27443693D+05 0.12189789D+01  1  2  5  8  6  5       21 -.741395510502D-02 0.100000000000D+01
0.672444323241D-05 0.000000000000D+00 0.000000000000D+00 0.335235134091D-04 0.748400567634D-06  6 2 -1 25 24 3 -3 4 0.31039797D+00 0.21385785D-02 0.27401080D+05 0.27401080D+05 0.27401080D+05 0.12190505D+01  1  2 11  8  6  5       21 0.760726488655D-02 0.100000000000D+01
0.672444323241D-05 0.000000000000D+00 0.000000000000D+00 0.335235134091D-04 0.748400567634D-06  6 2 -1 25 24 4 -4 4 0.31039797D+00 0.21385785D-02 0.27401080D+05 0.27401080D+05 0.27401080D+05 0.12190505D+01  1  2 11  8  6  5       21 0.760726488655D-02 0.100000000000D+01
  </mgrwgt>
  </event>
  <event>
  5     66 0.46179844E-03 0.73247336E+02 0.75467711E-02 0.11701182E+00
        2 -1    0    0  502    0 0.00000000E+00 0.00000000E+00 0.24201312E+04 0.24201313E+04 0.32000000E+00 0.0000E+00 0.9000E+01
       -1 -1    0    0    0  501 0.00000000E+00 0.00000000E+00 -.24526043E+02 0.24528130E+02 0.32000000E+00 0.0000E+00 0.9000E+01
       25  1    1    2    0    0 0.39667448E+02 -.56441279E+02 0.75060888E+03 0.76406663E+03 0.12500000E+03 0.0000E+00 0.9000E+01
       24  1    1    2    0    0 0.28351916E+02 0.10078401E+03 0.24551807E+03 0.27876081E+03 0.80419002E+02 0.0000E+00 0.9000E+01
       21  1    1    2  502  501 -.68019364E+02 -.44342727E+02 0.13994782E+04 0.14018320E+04 0.75000000E+00 0.0000E+00 0.9000E+01
#aMCatNLO 1  0  0  5  1 0.12398536D+02 0.00000000D+00  -5  6  0 0.00000000D+00 0.00000000D+00 0.00000000D+00 0.00000000D+00 0.00000000D+00
  <mgrwgt>
 0.1156278028D+00   20    2    0
 0.243636654358854D+03 0.000000000000000D+00 0.000000000000000D+00 0.243636654358854D+03
 0.243636654358854D+03 -.000000000000000D+00 -.000000000000000D+00 -.243636654358854D+03
 0.143082157088613D+03 0.396676886357453D+02 -.564411215944610D+02 0.940095466361203D+01
 0.191496523093646D+03 0.283522385282594D+02 0.100784215662788D+03 -.138716959475970D+03
 0.152694628535449D+03 -.680199271640047D+02 -.443430940683269D+02 0.129316004812358D+03
 0.000000000000000D+00 0.000000000000000D+00 -.000000000000000D+00 0.000000000000000D+00
 0.243636654358854D+03 0.000000000000000D+00 0.000000000000000D+00 0.243636654358854D+03
 0.243636654358854D+03 -.000000000000000D+00 -.000000000000000D+00 -.243636654358854D+03
 0.143111544208287D+03 0.393994240169393D+02 -.566160068629829D+02 0.991096562926408D+01
 0.190827490138578D+03 0.279938658414905D+02 0.100550587747801D+03 -.138035639662512D+03
 0.678497091713995D+02 -.228955966907630D+02 -.112192545711465D+02 0.628768877544462D+02
 0.854845651994440D+02 -.444976931676668D+02 -.327153263136713D+02 0.652477862788017D+02
0.107903128200D-03 0.000000000000D+00 0.000000000000D+00 0.319933670133D-05 0.000000000000D+00  6 2 -1 25 24 21 21 2 0.37232804D+00 0.37733995D-02 0.31681782D+05 0.31681782D+05 0.31681782D+05 0.12124201D+01  1  2  2  3  6  5       21 0.217595889741D-01 0.100000000000D+01
-.392036673863D-05 0.569420451454D-05 -.414376423834D-06 0.319933670133D-05 0.000000000000D+00  6 2 -1 25 24 21 21 4 0.37232804D+00 0.37733995D-02 0.31681782D+05 0.31681782D+05 0.31681782D+05 0.12124201D+01  1  2  3  3  6  5       21 -.116211624292D-02 0.100000000000D+01
0.354168191103D-05 0.000000000000D+00 0.000000000000D+00 0.319933670133D-05 0.000000000000D+00  6 2 -1 25 24 21 21 4 0.37232804D+00 0.37733995D-02 0.31681782D+05 0.31681782D+05 0.31681782D+05 0.12124201D+01  1  2 15  3  6  5       21 0.104986251299D-02 0.100000000000D+01
0.286647471611D-03 0.000000000000D+00 0.000000000000D+00 0.320031948215D-05 0.000000000000D+00  6 2 -1 25 24 21 21 4 0.37232804D+00 0.37733995D-02 0.31551837D+05 0.31551837D+05 0.31551837D+05 0.12126063D+01  1  2 12  3  6  5       21 0.850287192787D-01 0.100000000000D+01
0.303032907067D-03 0.000000000000D+00 0.000000000000D+00 0.320031948215D-05 0.000000000000D+00  6 2 -1 25 24 21 21 4 0.37232804D+00 0.37733995D-02 0.31551837D+05 0.31551837D+05 0.31551837D+05 0.12126063D+01  1  2 12  3  6  5       21 0.898891584231D-01 0.100000000000D+01
-.872102026586D-03 0.000000000000D+00 0.000000000000D+00 0.319933670133D-05 0.000000000000D+00  6 2 -1 25 24 21 21 4 0.37232804D+00 0.37733995D-02 0.31681782D+05 0.31681782D+05 0.31681782D+05 0.12124201D+01  1  2  4  3  6  5       21 -.258517633209D+00 0.100000000000D+01
-.611654485833D-03 0.000000000000D+00 0.000000000000D+00 0.319933670133D-05 0.000000000000D+00  6 2 -1 25 24 21 21 4 0.37232804D+00 0.37733995D-02 0.31681782D+05 0.31681782D+05 0.31681782D+05 0.12124201D+01  1  2  5  3  6  5       21 -.181313040446D+00 0.100000000000D+01
0.117606913241D-02 0.000000000000D+00 -.000000000000D+00 0.319933670133D-05 0.000000000000D+00  6 2 -1 25 24 21 21 4 0.37232804D+00 0.37733995D-02 0.31681782D+05 0.31681782D+05 0.31681782D+05 0.12124201D+01  1  2  6  3  6  5       21 0.348622752077D+00 0.100000000000D+01
0.101413703587D-04 0.000000000000D+00 0.000000000000D+00 0.320031948215D-05 0.000000000000D+00  6 2 -1 25 24 1 -1 4 0.37232804D+00 0.37733995D-02 0.31551837D+05 0.31551837D+05 0.31551837D+05 0.12126063D+01  1  2 12  6  6  5       21 0.300825166357D-02 0.100000000000D+01
0.107212409988D-04 0.000000000000D+00 0.000000000000D+00 0.320031948215D-05 0.000000000000D+00  6 2 -1 25 24 1 -1 4 0.37232804D+00 0.37733995D-02 0.31551837D+05 0.31551837D+05 0.31551837D+05 0.12126063D+01  1  2 12  6  6  5       21 0.318025966211D-02 0.100000000000D+01
-.122149494191D-04 0.000000000000D+00 0.000000000000D+00 0.319933670133D-05 0.000000000000D+00  6 2 -1 25 24 1 -1 4 0.37232804D+00 0.37733995D-02 0.31681782D+05 0.31681782D+05 0.31681782D+05 0.12124201D+01  1  2  5  6  6  5       21 -.362088347158D-02 0.100000000000D+01
0.101413703587D-04 0.000000000000D+00 0.000000000000D+00 0.320031948215D-05 0.000000000000D+00  6 2 -1 25 24 2 -2 4 0.37232804D+00 0.37733995D-02 0.31551837D+05 0.31551837D+05 0.31551837D+05 0.12126063D+01  1  2 12  7  6  5       21 0.300825166357D-02 0.100000000000D+01
0.107212409988D-04 0.000000000000D+00 0.000000000000D+00 0.320031948215D-05 0.000000000000D+00  6 2 -1 25 24 2 -2 4 0.37232804D+00 0.37733995D-02 0.31551837D+05 0.31551837D+05 0.31551837D+05 0.12126063D+01  1  2 12  7  6  5       21 0.318025966211D-02 0.100000000000D+01
-.122149494191D-04 0.000000000000D+00 0.000000000000D+00 0.319933670133D-05 0.000000000000D+00  6 2 -1 25 24 2 -2 4 0.37232804D+00 0.37733995D-02 0.31681782D+05 0.31681782D+05 0.31681782D+05 0.12124201D+01  1  2  5  7  6  5       21 -.362088347158D-02 0.100000000000D+01
0.101413703587D-04 0.000000000000D+00 0.000000000000D+00 0.320031948215D-05 0.000000000000D+00  6 2 -1 25 24 3 -3 4 0.37232804D+00 0.37733995D-02 0.31551837D+05 0.31551837D+05 0.31551837D+05 0.12126063D+01  1  2 12  8  6  5       21 0.300825166357D-02 0.100000000000D+01
0.101413703587D-04 0.000000000000D+00 0.000000000000D+00 0.320031948215D-05 0.000000000000D+00  6 2 -1 25 24 4 -4 4 0.37232804D+00 0.37733995D-02 0.31551837D+05 0.31551837D+05 0.31551837D+05 0.12126063D+01  1  2 12  8  6  5       21 0.300825166357D-02 0.100000000000D+01
0.107212409988D-04 0.000000000000D+00 0.000000000000D+00 0.320031948215D-05 0.000000000000D+00  6 2 -1 25 24 3 -3 4 0.37232804D+00 0.37733995D-02 0.31551837D+05 0.31551837D+05 0.31551837D+05 0.12126063D+01  1  2 12  8  6  5       21 0.318025966211D-02 0.100000000000D+01
0.107212409988D-04 0.000000000000D+00 0.000000000000D+00 0.320031948215D-05 0.000000000000D+00  6 2 -1 25 24 4 -4 4 0.37232804D+00 0.37733995D-02 0.31551837D+05 0.31551837D+05 0.31551837D+05 0.12126063D+01  1  2 12  8  6  5       21 0.318025966211D-02 0.100000000000D+01
-.122149494191D-04 0.000000000000D+00 0.000000000000D+00 0.319933670133D-05 0.000000000000D+00  6 2 -1 25 24 3 -3 4 0.37232804D+00 0.37733995D-02 0.31681782D+05 0.31681782D+05 0.31681782D+05 0.12124201D+01  1  2  5  8  6  5       21 -.362088347158D-02 0.100000000000D+01
-.122149494191D-04 0.000000000000D+00 0.000000000000D+00 0.319933670133D-05 0.000000000000D+00  6 2 -1 25 24 4 -4 4 0.37232804D+00 0.37733995D-02 0.31681782D+05 0.31681782D+05 0.31681782D+05 0.12124201D+01  1  2  5  8  6  5       21 -.362088347158D-02 0.100000000000D+01
  </mgrwgt>
  </event>
  <event>
  5     66 0.46179844E-03 0.28459005E+02 0.75467711E-02 0.12344905E+00
        4 -1    0    0  502    0 0.00000000E+00 0.00000000E+00 0.52603627E+02 0.52626458E+02 0.15500000E+01 0.0000E+00 0.9000E+01
       -3 -1    0    0    0  501 -.00000000E+00 -.00000000E+00 -.34200650E+03 0.34200687E+03 0.50000000E+00 0.0000E+00 0.9000E+01
       25  1    1    2    0    0 0.27648022E+01 0.33053646E+02 -.20533011E+03 0.24266364E+03 0.12500000E+03 0.0000E+00 0.9000E+01
       24  1    1    2    0    0 -.29007466E+02 -.44041586E+02 -.52893157E+02 0.10975425E+03 0.80419002E+02 0.0000E+00 0.9000E+01
       21  1    1    2  502  501 0.26242663E+02 0.10987941E+02 -.31179610E+02 0.42215434E+02 0.75000000E+00 0.0000E+00 0.9000E+01
#aMCatNLO 1  0  0  5  1 0.63444132D+01 0.00000000D+00  -5  6  0 0.00000000D+00 0.00000000D+00 0.00000000D+00 0.00000000D+00 0.00000000D+00
  <mgrwgt>
 0.8416083505D-01   25    2    0
 0.134146782875484D+03 0.000000000000000D+00 0.000000000000000D+00 0.134146782875484D+03
 0.134146782875484D+03 -.000000000000000D+00 -.000000000000000D+00 -.134146782875484D+03
 0.135448193060966D+03 0.276019992069979D+01 0.330517186155978D+02 -.402638571976626D+02
 0.104384508352563D+03 -.290110123667942D+02 -.440430712534471D+02 0.405891446775265D+02
 0.284608643374396D+02 0.262508124460945D+02 0.109913526378493D+02 -.325287479863903D+00
 0.000000000000000D+00 0.000000000000000D+00 0.000000000000000D+00 0.000000000000000D+00
 0.134146782875484D+03 0.000000000000000D+00 0.000000000000000D+00 0.134146782875484D+03
 0.134146782875484D+03 -.000000000000000D+00 -.000000000000000D+00 -.134146782875484D+03
 0.135784548291145D+03 0.522006599943577D+01 0.340816774242553D+02 -.402943386785386D+02
 0.103534782171859D+03 -.271253491267066D+02 -.432535341802387D+02 0.405657784428814D+02
 0.683257988343776D+01 0.942734638633533D+00 0.415777114362325D+01 -.533932002992260D+01
 0.221416554045266D+02 0.209625484886373D+02 0.501408561236016D+01 0.506788026557979D+01
0.673498426770D-03 0.000000000000D+00 0.000000000000D+00 0.260975788786D-04 0.000000000000D+00  6 4 -3 25 24 21 21 2 0.80946500D-02 0.52618170D-01 0.16123184D+05 0.16123184D+05 0.16123184D+05 0.12442633D+01  1  2  2  3  6  5       21 0.788223738427D-01 0.100000000000D+01
0.823848934351D-04 0.355414884279D-04 -.258641129501D-05 0.260975788786D-04 0.000000000000D+00  6 4 -3 25 24 21 21 4 0.80946500D-02 0.52618170D-01 0.16123184D+05 0.16123184D+05 0.16123184D+05 0.12442633D+01  1  2  3  3  6  5       21 0.149274313313D-01 0.100000000000D+01
0.212645732054D-04 0.000000000000D+00 0.000000000000D+00 0.260975788786D-04 0.000000000000D+00  6 4 -3 25 24 21 21 4 0.80946500D-02 0.52618170D-01 0.16123184D+05 0.16123184D+05 0.16123184D+05 0.12442633D+01  1  2 15  3  6  5       21 0.385295705412D-02 0.100000000000D+01
0.504294834925D-04 0.000000000000D+00 0.000000000000D+00 0.261500944098D-04 0.000000000000D+00  6 4 -3 25 24 21 21 4 0.80946500D-02 0.52618170D-01 0.15717902D+05 0.15717902D+05 0.15717902D+05 0.12455146D+01  1  2 12  3  6  5       21 0.915279544129D-02 0.100000000000D+01
0.503081346715D-04 0.000000000000D+00 0.000000000000D+00 0.261500944098D-04 0.000000000000D+00  6 4 -3 25 24 21 21 4 0.80946500D-02 0.52618170D-01 0.15717902D+05 0.15717902D+05 0.15717902D+05 0.12455146D+01  1  2 12  3  6  5       21 0.913077100522D-02 0.100000000000D+01
-.676842836870D-03 0.000000000000D+00 0.000000000000D+00 0.260975788786D-04 0.000000000000D+00  6 4 -3 25 24 21 21 4 0.80946500D-02 0.52618170D-01 0.16123184D+05 0.16123184D+05 0.16123184D+05 0.12442633D+01  1  2  4  3  6  5       21 -.122638077786D+00 0.100000000000D+01
-.692942173499D-04 0.000000000000D+00 0.000000000000D+00 0.260975788786D-04 0.000000000000D+00  6 4 -3 25 24 21 21 4 0.80946500D-02 0.52618170D-01 0.16123184D+05 0.16123184D+05 0.16123184D+05 0.12442633D+01  1  2  5  3  6  5       21 -.125555138572D-01 0.100000000000D+01
0.519734654689D-03 0.000000000000D+00 -.000000000000D+00 0.260975788786D-04 0.000000000000D+00  6 4 -3 25 24 21 21 4 0.80946500D-02 0.52618170D-01 0.16123184D+05 0.16123184D+05 0.16123184D+05 0.12442633D+01  1  2  6  3  6  5       21 0.941714317380D-01 0.100000000000D+01
0.247239643192D-04 0.000000000000D+00 0.000000000000D+00 0.260975788786D-04 0.123303520041D-04  6 4 -3 25 24 21 21 4 0.80946500D-02 0.52618170D-01 0.15717902D+05 0.15717902D+05 0.15717902D+05 0.12455146D+01  1  2 11  3  6  5       21 0.448732313399D-02 0.100000000000D+01
0.758412162648D-05 0.000000000000D+00 0.000000000000D+00 0.261500944098D-04 0.000000000000D+00  6 4 -3 25 24 3 -3 4 0.80946500D-02 0.52618170D-01 0.15717902D+05 0.15717902D+05 0.15717902D+05 0.12455146D+01  1  2 12  6  6  5       21 0.137649464245D-02 0.100000000000D+01
0.757363576638D-05 0.000000000000D+00 0.000000000000D+00 0.261500944098D-04 0.000000000000D+00  6 4 -3 25 24 3 -3 4 0.80946500D-02 0.52618170D-01 0.15717902D+05 0.15717902D+05 0.15717902D+05 0.12455146D+01  1  2 12  6  6  5       21 0.137459149124D-02 0.100000000000D+01
-.103489323864D-04 0.000000000000D+00 0.000000000000D+00 0.260975788786D-04 0.000000000000D+00  6 4 -3 25 24 3 -3 4 0.80946500D-02 0.52618170D-01 0.16123184D+05 0.16123184D+05 0.16123184D+05 0.12442633D+01  1  2  5  6  6  5       21 -.187513718971D-02 0.100000000000D+01
0.178740623443D-05 0.000000000000D+00 0.000000000000D+00 0.260975788786D-04 0.913928306331D-07  6 4 -3 25 24 3 -3 4 0.80946500D-02 0.52618170D-01 0.15717902D+05 0.15717902D+05 0.15717902D+05 0.12455146D+01  1  2 11  6  6  5       21 0.324408708977D-03 0.100000000000D+01
0.758412162648D-05 0.000000000000D+00 0.000000000000D+00 0.261500944098D-04 0.000000000000D+00  6 4 -3 25 24 4 -4 4 0.80946500D-02 0.52618170D-01 0.15717902D+05 0.15717902D+05 0.15717902D+05 0.12455146D+01  1  2 12  7  6  5       21 0.137649464245D-02 0.100000000000D+01
0.757363576638D-05 0.000000000000D+00 0.000000000000D+00 0.261500944098D-04 0.000000000000D+00  6 4 -3 25 24 4 -4 4 0.80946500D-02 0.52618170D-01 0.15717902D+05 0.15717902D+05 0.15717902D+05 0.12455146D+01  1  2 12  7  6  5       21 0.137459149124D-02 0.100000000000D+01
-.103489323864D-04 0.000000000000D+00 0.000000000000D+00 0.260975788786D-04 0.000000000000D+00  6 4 -3 25 24 4 -4 4 0.80946500D-02 0.52618170D-01 0.16123184D+05 0.16123184D+05 0.16123184D+05 0.12442633D+01  1  2  5  7  6  5       21 -.187513718971D-02 0.100000000000D+01
0.181095986391D-05 0.000000000000D+00 0.000000000000D+00 0.260975788786D-04 0.941754175114D-07  6 4 -3 25 24 4 -4 4 0.80946500D-02 0.52618170D-01 0.15717902D+05 0.15717902D+05 0.15717902D+05 0.12455146D+01  1  2 11  7  6  5       21 0.328683619954D-03 0.100000000000D+01
0.758412162648D-05 0.000000000000D+00 0.000000000000D+00 0.261500944098D-04 0.000000000000D+00  6 4 -3 25 24 1 -1 4 0.80946500D-02 0.52618170D-01 0.15717902D+05 0.15717902D+05 0.15717902D+05 0.12455146D+01  1  2 12  8  6  5       21 0.137649464245D-02 0.100000000000D+01
0.758412162648D-05 0.000000000000D+00 0.000000000000D+00 0.261500944098D-04 0.000000000000D+00  6 4 -3 25 24 2 -2 4 0.80946500D-02 0.52618170D-01 0.15717902D+05 0.15717902D+05 0.15717902D+05 0.12455146D+01  1  2 12  8  6  5       21 0.137649464245D-02 0.100000000000D+01
0.757363576638D-05 0.000000000000D+00 0.000000000000D+00 0.261500944098D-04 0.000000000000D+00  6 4 -3 25 24 1 -1 4 0.80946500D-02 0.52618170D-01 0.15717902D+05 0.15717902D+05 0.15717902D+05 0.12455146D+01  1  2 12  8  6  5       21 0.137459149124D-02 0.100000000000D+01
0.757363576638D-05 0.000000000000D+00 0.000000000000D+00 0.261500944098D-04 0.000000000000D+00  6 4 -3 25 24 2 -2 4 0.80946500D-02 0.52618170D-01 0.15717902D+05 0.15717902D+05 0.15717902D+05 0.12455146D+01  1  2 12  8  6  5       21 0.137459149124D-02 0.100000000000D+01
-.103489323864D-04 0.000000000000D+00 0.000000000000D+00 0.260975788786D-04 0.000000000000D+00  6 4 -3 25 24 1 -1 4 0.80946500D-02 0.52618170D-01 0.16123184D+05 0.16123184D+05 0.16123184D+05 0.12442633D+01  1  2  5  8  6  5       21 -.187513718971D-02 0.100000000000D+01
-.103489323864D-04 0.000000000000D+00 0.000000000000D+00 0.260975788786D-04 0.000000000000D+00  6 4 -3 25 24 2 -2 4 0.80946500D-02 0.52618170D-01 0.16123184D+05 0.16123184D+05 0.16123184D+05 0.12442633D+01  1  2  5  8  6  5       21 -.187513718971D-02 0.100000000000D+01
0.179742739620D-05 0.000000000000D+00 0.000000000000D+00 0.260975788786D-04 0.912364551984D-07  6 4 -3 25 24 1 -1 4 0.80946500D-02 0.52618170D-01 0.15717902D+05 0.15717902D+05 0.15717902D+05 0.12455146D+01  1  2 11  8  6  5       21 0.326227518877D-03 0.100000000000D+01
0.179742739620D-05 0.000000000000D+00 0.000000000000D+00 0.260975788786D-04 0.912364551984D-07  6 4 -3 25 24 2 -2 4 0.80946500D-02 0.52618170D-01 0.15717902D+05 0.15717902D+05 0.15717902D+05 0.12455146D+01  1  2 11  8  6  5       21 0.326227518877D-03 0.100000000000D+01
  </mgrwgt>
  </event>
  <event>
  5     66 0.46179844E-03 0.21714769E+02 0.75467711E-02 0.98966230E-01
        2 -1    0    0  502    0 0.00000000E+00 0.00000000E+00 0.18368147E+03 0.18368175E+03 0.32000000E+00 0.0000E+00 0.9000E+01
       -1 -1    0    0    0  501 0.00000000E+00 0.00000000E+00 -.87275436E+02 0.87276022E+02 0.32000000E+00 0.0000E+00 0.9000E+01
       25  1    1    2    0    0 -.11630535E+02 0.29219808E+02 0.12290283E+02 0.12948018E+03 0.12500000E+03 0.0000E+00 0.9000E+01
       24  1    1    2    0    0 -.36776951E+01 -.44605486E+02 0.68547803E+02 0.11475710E+03 0.80419002E+02 0.0000E+00 0.9000E+01
       21  1    1    2  502  501 0.15308230E+02 0.15385678E+02 0.15567947E+02 0.26720488E+02 0.75000000E+00 0.0000E+00 0.9000E+01
#aMCatNLO 1  0  0  1  5 0.86635592D+02 0.00000000D+00  -5  6  0 0.00000000D+00 0.00000000D+00 0.00000000D+00 0.00000000D+00 0.00000000D+00
  <mgrwgt>
 0.1581498779D+00    5    4    0
 0.126613575557411D+03 0.000000000000000D+00 0.000000000000000D+00 0.126613575557411D+03
 0.126613575557411D+03 0.000000000000000D+00 0.000000000000000D+00 -.126613575557411D+03
 0.133867097413118D+03 -.116349696649892D+02 0.292153507436651D+02 -.361454081680179D+02
 0.966966129114810D+02 -.368089829135963D+01 -.446087053217092D+02 0.296569282204318D+02
 0.226634407902228D+02 0.153158679563488D+02 0.153933545780441D+02 0.648847994758614D+01
 0.000000000000000D+00 -.000000000000000D+00 0.000000000000000D+00 0.000000000000000D+00
 0.281734436987211D+04 0.000000000000000D+00 0.000000000000000D+00 0.281734436987211D+04
 0.350013210672708D+03 0.000000000000000D+00 0.000000000000000D+00 -.350013210672708D+03
 0.286175193483331D+03 0.245955907448914D+03 -.668613672053640D+02 -.361454081680179D+02
 0.269438694129758D+03 0.220851528388438D+03 -.128355221775345D+03 0.296569282204318D+02
 0.771777820995986D+02 0.765434841600086D+02 -.744343404816656D+01 0.648847994758614D+01
 0.253456591083213D+04 -.543350919997360D+03 0.202660023028875D+03 0.246733115919940D+04
 0.126613575557411D+03 0.000000000000000D+00 0.000000000000000D+00 0.126613575557411D+03
 0.126613575557411D+03 0.000000000000000D+00 0.000000000000000D+00 -.126613575557411D+03
 0.133867097413118D+03 -.116349696649892D+02 0.292153507436651D+02 -.361454081680179D+02
 0.966966129114810D+02 -.368089829135963D+01 -.446087053217092D+02 0.296569282204318D+02
 0.000000000000000D+00 -.000000000000000D+00 0.000000000000000D+00 0.000000000000000D+00
 0.226634407902228D+02 0.153158679563488D+02 0.153933545780441D+02 0.648847994758614D+01
 0.281734436987211D+04 0.000000000000000D+00 0.000000000000000D+00 0.281734436987211D+04
 0.350013210672708D+03 0.000000000000000D+00 0.000000000000000D+00 -.350013210672708D+03
 0.286175193483331D+03 0.245955907448914D+03 -.668613672053640D+02 -.361454081680179D+02
 0.269438694129758D+03 0.220851528388438D+03 -.128355221775345D+03 0.296569282204318D+02
 0.253456591083213D+04 -.543350919997360D+03 0.202660023028875D+03 0.246733115919940D+04
 0.771777820995986D+02 0.765434841600086D+02 -.744343404816656D+01 0.648847994758614D+01
0.982889850045D-04 0.000000000000D+00 0.000000000000D+00 0.481107131433D-04 0.000000000000D+00  6 2 -1 25 24 21 21 2 0.28258754D-01 0.13427057D-01 0.14719287D+05 0.14719287D+05 0.14719287D+05 0.12487589D+01  1  2  2  1  6  1        2 0.118097943099D+00 0.100000000000D+01
0.179641349279D-04 0.518685223940D-05 -.377455582501D-06 0.481107131433D-04 0.000000000000D+00  6 2 -1 25 24 21 21 4 0.28258754D-01 0.13427057D-01 0.14719287D+05 0.14719287D+05 0.14719287D+05 0.12487589D+01  1  2  3  1  6  1        2 0.336589847143D-01 0.100000000000D+01
0.345020746255D-05 0.000000000000D+00 0.000000000000D+00 0.481107131433D-04 0.000000000000D+00  6 2 -1 25 24 21 21 4 0.28258754D-01 0.13427057D-01 0.14719287D+05 0.14719287D+05 0.14719287D+05 0.12487589D+01  1  2 15  1  6  1        2 0.646457403651D-02 0.100000000000D+01
-.860573371057D-04 0.000000000000D+00 -.416215387643D-03 0.481107131433D-04 0.000000000000D+00  6 2 -1 25 24 21 21 4 0.75609248D+00 0.13427057D-01 0.14719287D+05 0.14719287D+05 0.14719287D+05 0.12487589D+01  1  2  5  1  6  1        2 -.695815974224D-04 0.100000000000D+01
-.146841663051D-03 0.000000000000D+00 -.139241638005D-03 0.481107131433D-04 0.000000000000D+00  6 21 -1 25 24 -2 21 4 0.75609248D+00 0.13427057D-01 0.14719287D+05 0.14719287D+05 0.14719287D+05 0.12487589D+01  3  4  5  4  5  1        2 -.204236473345D-05 0.100000000000D+01
  </mgrwgt>
  </event>
  <event>
  6     66 0.46179844E-03 0.27994645E+02 0.75467711E-02 0.12043317E+00
        2 -1    0    0  503    0 0.00000000E+00 0.00000000E+00 0.87215672E+02 0.87216259E+02 0.32000000E+00 0.0000E+00 0.9000E+01
       -1 -1    0    0    0  501 0.00000000E+00 0.00000000E+00 -.44059222E+03 0.44059233E+03 0.32000000E+00 0.0000E+00 0.9000E+01
       25  1    1    2    0    0 -.27378197E+02 -.43734027E+02 -.18908790E+03 0.23246820E+03 0.12500000E+03 0.0000E+00 0.9000E+01
       24  1    1    2    0    0 0.31924875E+02 0.67988300E+02 -.14209010E+03 0.17971761E+03 0.80419002E+02 0.0000E+00 0.9000E+01
       21  1    1    2  502  501 -.90130620E+01 0.10299666E+02 -.61550312E+02 0.63058083E+02 0.75000000E+00 0.0000E+00 0.9000E+01
       21  1    1    2  503  502 0.44663841E+01 -.34553940E+02 0.39351768E+02 0.52564698E+02 0.75000000E+00 0.0000E+00 0.9000E+01
#aMCatNLO 2  0  0  1  5 0.19179649D+02 0.00000000D+00  -5  6  0 0.00000000D+00 0.00000000D+00 0.00000000D+00 0.00000000D+00 0.00000000D+00
  <mgrwgt>
 0.2005198537D+00    1    2    0
 0.132671877037178D+03 0.000000000000000D+00 0.000000000000000D+00 0.132671877037178D+03
 0.132671877037178D+03 0.000000000000000D+00 0.000000000000000D+00 -.132671877037178D+03
 0.141733331128654D+03 -.250531436714302D+02 -.617000916054305D+02 0.536431178108972D+01
 0.103263278676616D+03 0.337196434083615D+02 0.541188970369691D+02 0.114113715472260D+02
 0.203471442690867D+02 -.866649973693127D+01 0.758119456846139D+01 -.167756833283157D+02
 0.000000000000000D+00 0.000000000000000D+00 -.000000000000000D+00 0.000000000000000D+00
 0.282864390513685D+03 0.000000000000000D+00 0.000000000000000D+00 0.282864390513685D+03
 0.135846766916545D+03 0.000000000000000D+00 0.000000000000000D+00 -.135846766916545D+03
 0.135336868847016D+03 -.273750625846943D+02 -.437366914262365D+02 0.536431178108972D+01
 0.110629635444886D+03 0.319271662572442D+02 0.679862996381724D+02 0.114113715472260D+02
 0.216549282370703D+02 -.901848781272182D+01 0.103043312928362D+02 -.167756833283157D+02
 0.151089724901257D+03 0.446638414017200D+01 -.345539395047720D+02 0.147017623597140D+03
0.763458072765D-03 0.000000000000D+00 0.000000000000D+00 0.159735138767D-03 0.516585760794D-06  6 2 -1 25 24 21 21 4 0.13417759D-01 0.67783014D-01 0.21580338D+05 0.21580338D+05 0.21580338D+05 0.12302064D+01  1  2  1  1  6  1        2 0.200519853667D+00 0.100000000000D+01
  </mgrwgt>
  </event>
  <event>
  5     66 0.46179844E-03 0.88694735E+02 0.75467711E-02 0.11385343E+00
        2 -1    0    0  502    0 0.00000000E+00 0.00000000E+00 0.81136207E+03 0.81136213E+03 0.32000000E+00 0.0000E+00 0.9000E+01
       -1 -1    0    0    0  501 0.00000000E+00 0.00000000E+00 -.49096543E+02 0.49097586E+02 0.32000000E+00 0.0000E+00 0.9000E+01
       25  1    1    2    0    0 -.22231042E+02 0.60897655E+02 0.19783044E+03 0.24282633E+03 0.12500000E+03 0.0000E+00 0.9000E+01
       24  1    1    2    0    0 -.63894252E+02 -.39707766E+02 0.11381670E+03 0.15836868E+03 0.80419002E+02 0.0000E+00 0.9000E+01
       21  1    1    2  502  501 0.86125294E+02 -.21189889E+02 0.45061839E+03 0.45926471E+03 0.75000000E+00 0.0000E+00 0.9000E+01
#aMCatNLO 1  0  0  1  1 0.76305610D+02 0.00000000D+00  -5  6  0 0.00000000D+00 0.00000000D+00 0.00000000D+00 0.00000000D+00 0.00000000D+00
  <mgrwgt>
 0.7362823911D-01    7    4    0
 0.199588448142072D+03 0.000000000000000D+00 0.000000000000000D+00 0.199588448142072D+03
 0.199588448142072D+03 0.000000000000000D+00 0.000000000000000D+00 -.199588448142072D+03
 0.145657387935470D+03 -.222315693593260D+02 0.608977849923484D+02 -.372597875333594D+02
 0.124033965089562D+03 -.638947009576841D+02 -.397076558796906D+02 -.570786982642069D+02
 0.129485543259112D+03 0.861262703170101D+02 -.211901291126577D+02 0.943384857975663D+02
 0.000000000000000D+00 -.000000000000000D+00 -.000000000000000D+00 0.000000000000000D+00
 0.301174232896339D+03 0.000000000000000D+00 0.000000000000000D+00 0.301174232896339D+03
 0.218060018998273D+03 0.000000000000000D+00 0.000000000000000D+00 -.218060018998273D+03
 0.148298520901696D+03 0.392097635779742D+01 0.704541374157772D+02 -.372597875333594D+02
 0.112202638708783D+03 -.428773021058156D+02 -.320277277906741D+02 -.570786982642069D+02
 0.145903491831281D+03 0.110626966216223D+03 -.122373760168537D+02 0.943384857975663D+02
 0.112829600452852D+03 -.716706404682045D+02 -.261890336082494D+02 0.831142138980660D+02
 0.199588448142072D+03 0.000000000000000D+00 0.000000000000000D+00 0.199588448142072D+03
 0.199588448142072D+03 0.000000000000000D+00 0.000000000000000D+00 -.199588448142072D+03
 0.145657387935470D+03 -.222315693593260D+02 0.608977849923484D+02 -.372597875333594D+02
 0.124033965089562D+03 -.638947009576841D+02 -.397076558796906D+02 -.570786982642069D+02
 0.000000000000000D+00 -.000000000000000D+00 -.000000000000000D+00 0.000000000000000D+00
 0.129485543259112D+03 0.861262703170101D+02 -.211901291126577D+02 0.943384857975663D+02
 0.301174232896339D+03 0.000000000000000D+00 0.000000000000000D+00 0.301174232896339D+03
 0.218060018998273D+03 0.000000000000000D+00 0.000000000000000D+00 -.218060018998273D+03
 0.148298520901696D+03 0.392097635779742D+01 0.704541374157772D+02 -.372597875333594D+02
 0.112202638708783D+03 -.428773021058156D+02 -.320277277906741D+02 -.570786982642069D+02
 0.112829600452852D+03 -.716706404682045D+02 -.261890336082494D+02 0.831142138980660D+02
 0.145903491831281D+03 0.110626966216223D+03 -.122373760168537D+02 0.943384857975663D+02
0.737211799505D-04 0.000000000000D+00 0.000000000000D+00 0.404747049082D-05 0.000000000000D+00  6 2 -1 25 24 21 21 2 0.12482502D+00 0.75533994D-02 0.28836462D+05 0.28836462D+05 0.28836462D+05 0.12167056D+01  1  2  2  1  6  1        2 0.400895532319D-01 0.100000000000D+01
-.405584171244D-05 0.389037354797D-05 -.283108742242D-06 0.404747049082D-05 0.000000000000D+00  6 2 -1 25 24 21 21 4 0.12482502D+00 0.75533994D-02 0.28836462D+05 0.28836462D+05 0.28836462D+05 0.12167056D+01  1  2  3  1  6  1        2 -.326505821250D-02 0.100000000000D+01
0.352513318466D-05 0.000000000000D+00 0.000000000000D+00 0.404747049082D-05 0.000000000000D+00  6 2 -1 25 24 21 21 4 0.12482502D+00 0.75533994D-02 0.28836462D+05 0.28836462D+05 0.28836462D+05 0.12167056D+01  1  2 15  1  6  1        2 0.283782402539D-02 0.100000000000D+01
-.627239384611D-04 0.000000000000D+00 0.000000000000D+00 0.404747049082D-05 0.000000000000D+00  6 2 -1 25 24 21 21 4 0.12482502D+00 0.75533994D-02 0.28836462D+05 0.28836462D+05 0.28836462D+05 0.12167056D+01  1  2  4  1  6  1        2 -.504944040999D-01 0.100000000000D+01
-.203366887812D-03 0.000000000000D+00 -.610505891669D-04 0.404747049082D-05 0.000000000000D+00  6 2 -1 25 24 21 21 4 0.19683392D+00 0.75533994D-02 0.28836462D+05 0.28836462D+05 0.28836462D+05 0.12167056D+01  1  2  5  1  6  1        2 -.859764454925D-01 0.100000000000D+01
0.214377990064D-03 0.000000000000D+00 0.552233411740D-04 0.404747049082D-05 0.000000000000D+00  6 2 -1 25 24 21 21 4 0.12482502D+00 0.75533994D-02 0.28836462D+05 0.28836462D+05 0.28836462D+05 0.12167056D+01  1  2  6  1  6  1        2 0.172579865455D+00 0.100000000000D+01
-.819909191886D-05 0.000000000000D+00 -.320164619557D-05 0.404747049082D-05 0.000000000000D+00  6 21 -1 25 24 -2 21 4 0.19683392D+00 0.75533994D-02 0.28836462D+05 0.28836462D+05 0.28836462D+05 0.12167056D+01  3  4  5  4  5  1        2 -.214309579743D-02 0.100000000000D+01
  </mgrwgt>
  </event>
  <event>
  6     66 0.46179844E-03 0.12586176E+03 0.75467711E-02 0.11415291E+00
        2 -1    0    0  502    0 0.00000000E+00 0.00000000E+00 0.28482415E+04 0.28482415E+04 0.32000000E+00 0.0000E+00 0.9000E+01
       -1 -1    0    0    0  503 0.00000000E+00 0.00000000E+00 -.21858115E+02 0.21860457E+02 0.32000000E+00 0.0000E+00 0.9000E+01
       25  1    1    2    0    0 -.59744674E+02 -.78657551E+02 0.11443640E+04 0.11554005E+04 0.12500000E+03 0.0000E+00 0.9000E+01
       24  1    1    2    0    0 -.26619244E+02 -.44511137E+02 0.10191874E+04 0.10236699E+04 0.80419002E+02 0.0000E+00 0.9000E+01
       21  1    1    2  502  501 0.60292125E+02 0.12517099E+03 0.64395431E+03 0.65877206E+03 0.75000000E+00 0.0000E+00 0.9000E+01
       21  1    1    2  501  503 0.26071793E+02 -.20023072E+01 0.18877715E+02 0.32259545E+02 0.75000000E+00 0.0000E+00 0.9000E+01
#aMCatNLO 2  0  0  2  5 0.26148569D+02 0.00000000D+00  -5  6  0 0.00000000D+00 0.00000000D+00 0.00000000D+00 0.00000000D+00 0.00000000D+00
  <mgrwgt>
 0.8534974757D-02    2    2    0
 0.206505342239895D+03 0.000000000000000D+00 0.000000000000000D+00 0.206505342239895D+03
 0.206505342239895D+03 0.000000000000000D+00 0.000000000000000D+00 -.206505342239895D+03
 0.156500220145203D+03 -.497788159280020D+02 -.794235226513380D+02 0.901623202649034D+01
 0.104197322851535D+03 -.200089497224563D+02 -.450192025559685D+02 0.443032670046507D+02
 0.152313141483052D+03 0.697877656504583D+02 0.124442725207306D+03 -.533194990311411D+02
 0.000000000000000D+00 0.000000000000000D+00 -.000000000000000D+00 -.000000000000000D+00
 0.208791644360095D+03 0.000000000000000D+00 0.000000000000000D+00 0.208791644360095D+03
 0.298190504811487D+03 0.000000000000000D+00 0.000000000000000D+00 -.298190504811487D+03
 0.159570861818224D+03 -.597450212702200D+02 -.786581205907954D+02 0.901623202649034D+01
 0.105450779706560D+03 -.266194755153288D+02 -.445115158397716D+02 0.443032670046507D+02
 0.148815975350638D+03 0.602927033554756D+02 0.125171943600467D+03 -.533194990311411D+02
 0.931445322961609D+02 0.260717934300732D+02 -.200230716989990D+01 -.893988604513924D+02
-.257540507183D-03 0.000000000000D+00 0.000000000000D+00 0.181847799836D-05 0.000000000000D+00  6 2 -1 25 24 21 21 4 0.43338981D+00 0.34186849D-02 0.44119579D+05 0.44119579D+05 0.44119579D+05 0.11977010D+01  1  2 13  2  6  2       -1 -.505265112642D-01 0.100000000000D+01
0.306104293560D-03 0.000000000000D+00 0.000000000000D+00 0.183615992763D-05 0.128714806965D-07  6 2 -1 25 24 21 21 4 0.43818804D+00 0.33629444D-02 0.44119579D+05 0.44119579D+05 0.44119579D+05 0.11977010D+01  1  2  1  2  6  2       -1 0.590614860209D-01 0.100000000000D+01
  </mgrwgt>
  </event>
  <event>
  5     66 0.46179844E-03 0.38146502E+02 0.75467711E-02 0.10416866E+00
        2 -1    0    0  502    0 0.00000000E+00 0.00000000E+00 0.13577401E+04 0.13577401E+04 0.32000000E+00 0.0000E+00 0.9000E+01
       -1 -1    0    0    0  501 0.00000000E+00 0.00000000E+00 -.15323742E+02 0.15327083E+02 0.32000000E+00 0.0000E+00 0.9000E+01
       25  1    1    2    0    0 0.44648107E+02 0.30169123E+02 0.72106577E+03 0.73380139E+03 0.12500000E+03 0.0000E+00 0.9000E+01
       24  1    1    2    0    0 -.70526205E+02 -.21490497E+01 0.52182586E+03 0.53268002E+03 0.80419002E+02 0.0000E+00 0.9000E+01
       21  1    1    2  502  501 0.25878098E+02 -.28020073E+02 0.99524693E+02 0.10658578E+03 0.75000000E+00 0.0000E+00 0.9000E+01
#aMCatNLO 1  0  0  1  5 0.43128720D+02 0.00000000D+00  -5  6  0 0.00000000D+00 0.00000000D+00 0.00000000D+00 0.00000000D+00 0.00000000D+00
  <mgrwgt>
 0.2232067220D+00    5    4    0
 0.144249706703841D+03 0.000000000000000D+00 0.000000000000000D+00 0.144249706703841D+03
 0.144249706703841D+03 0.000000000000000D+00 0.000000000000000D+00 -.144249706703841D+03
 0.137220920903989D+03 0.446463326095641D+02 0.301710439184324D+02 0.173491852006692D+02
 0.107099626747965D+03 -.705275895881575D+02 -.214755051924759D+01 0.493570955736114D+01
 0.441788657557279D+02 0.258812569785934D+02 -.280234933991848D+02 -.222848947580303D+02
 0.000000000000000D+00 -.000000000000000D+00 0.000000000000000D+00 0.000000000000000D+00
 0.415223239507346D+03 0.000000000000000D+00 0.000000000000000D+00 0.415223239507346D+03
 0.400329296360557D+03 0.000000000000000D+00 0.000000000000000D+00 -.400329296360557D+03
 0.265680778312197D+03 0.233749608047268D+03 -.462628092491348D+01 0.173491852006692D+02
 0.850218775010339D+02 0.196452883276795D+02 -.187404673665839D+02 0.493570955736114D+01
 0.107965540196071D+03 0.972907485766197D+02 -.411637167521815D+02 -.222848947580303D+02
 0.356884339858601D+03 -.350685644951567D+03 0.645304650436789D+02 0.148939431467895D+02
 0.144249706703841D+03 0.000000000000000D+00 0.000000000000000D+00 0.144249706703841D+03
 0.144249706703841D+03 0.000000000000000D+00 0.000000000000000D+00 -.144249706703841D+03
 0.137220920903989D+03 0.446463326095641D+02 0.301710439184324D+02 0.173491852006692D+02
 0.107099626747965D+03 -.705275895881575D+02 -.214755051924759D+01 0.493570955736114D+01
 0.000000000000000D+00 -.000000000000000D+00 0.000000000000000D+00 0.000000000000000D+00
 0.441788657557279D+02 0.258812569785934D+02 -.280234933991848D+02 -.222848947580303D+02
 0.415223239507346D+03 0.000000000000000D+00 0.000000000000000D+00 0.415223239507346D+03
 0.400329296360557D+03 0.000000000000000D+00 0.000000000000000D+00 -.400329296360557D+03
 0.265680778312197D+03 0.233749608047268D+03 -.462628092491348D+01 0.173491852006692D+02
 0.850218775010339D+02 0.196452883276795D+02 -.187404673665839D+02 0.493570955736114D+01
 0.356884339858601D+03 -.350685644951567D+03 0.645304650436789D+02 0.148939431467895D+02
 0.107965540196071D+03 0.972907485766197D+02 -.411637167521815D+02 -.222848947580303D+02
0.135650593803D-03 0.000000000000D+00 0.000000000000D+00 0.161501170864D-04 0.000000000000D+00  6 2 -1 25 24 21 21 2 0.20888335D+00 0.23577587D-02 0.19775684D+05 0.19775684D+05 0.19775684D+05 0.12343657D+01  1  2  2  1  6  1        2 0.201169187985D+00 0.100000000000D+01
0.822610596978D-05 0.715847850306D-05 -.520933997824D-06 0.161501170864D-04 0.000000000000D+00  6 2 -1 25 24 21 21 4 0.20888335D+00 0.23577587D-02 0.19775684D+05 0.19775684D+05 0.19775684D+05 0.12343657D+01  1  2  3  1  6  1        2 0.185875327338D-01 0.100000000000D+01
0.120274967861D-05 0.000000000000D+00 0.000000000000D+00 0.161501170864D-04 0.000000000000D+00  6 2 -1 25 24 21 21 4 0.20888335D+00 0.23577587D-02 0.19775684D+05 0.19775684D+05 0.19775684D+05 0.12343657D+01  1  2 15  1  6  1        2 0.271770739446D-02 0.100000000000D+01
0.777290745690D-04 0.000000000000D+00 -.906625376855D-04 0.161501170864D-04 0.000000000000D+00  6 2 -1 25 24 21 21 4 0.75988067D+00 0.23577587D-02 0.19775684D+05 0.19775684D+05 0.19775684D+05 0.12343657D+01  1  2  5  1  6  1        2 0.730118894175D-03 0.100000000000D+01
0.142164728065D-04 0.000000000000D+00 -.137833144541D-04 0.161501170864D-04 0.000000000000D+00  6 21 -1 25 24 -2 21 4 0.75988067D+00 0.23577587D-02 0.19775684D+05 0.19775684D+05 0.19775684D+05 0.12343657D+01  3  4  5  4  5  1        2 0.217501477968D-05 0.100000000000D+01
  </mgrwgt>
  </event>
  <event>
  5     66 -.46179844E-03 0.40592938E+02 0.75467711E-02 0.11909170E+00
        2 -1    0    0  502    0 0.00000000E+00 0.00000000E+00 0.17083499E+04 0.17083499E+04 0.32000000E+00 0.0000E+00 0.9000E+01
       -1 -1    0    0    0  501 0.00000000E+00 0.00000000E+00 -.26107623E+02 0.26109584E+02 0.32000000E+00 0.0000E+00 0.9000E+01
       25  1    1    2    0    0 0.67638049E+02 -.18001905E+02 0.31049091E+03 0.34194821E+03 0.12500000E+03 0.0000E+00 0.9000E+01
       24  1    1    2    0    0 -.33111934E+02 0.39346753E+02 0.13329153E+04 0.13363290E+04 0.80419002E+02 0.0000E+00 0.9000E+01
       21  1    1    2  502  501 -.34526115E+02 -.21344848E+02 0.38835993E+02 0.56182310E+02 0.75000000E+00 0.0000E+00 0.9000E+01
#aMCatNLO 1  0  0  2  2 0.34042284D+02 0.00000000D+00  -5  6  0 0.00000000D+00 0.00000000D+00 0.00000000D+00 0.00000000D+00 0.00000000D+00
  <mgrwgt>
 -.2078649903D+00    7    4    0
 0.211193470058707D+03 0.000000000000000D+00 0.000000000000000D+00 0.211193470058707D+03
 0.211193470058707D+03 0.000000000000000D+00 0.000000000000000D+00 -.211193470058707D+03
 0.167557775616406D+03 0.676387152128792D+02 -.180014925325023D+02 -.868997044901253D+02
 0.178799088032771D+03 -.331112230756157D+02 0.393471923715434D+02 0.151186452058025D+03
 0.760300764682378D+02 -.345274921372636D+02 -.213456998390411D+02 -.642867475678997D+02
 0.000000000000000D+00 -.000000000000000D+00 -.000000000000000D+00 -.000000000000000D+00
 0.214076303196334D+03 0.000000000000000D+00 0.000000000000000D+00 0.214076303196334D+03
 0.343686648625873D+03 0.000000000000000D+00 0.000000000000000D+00 -.343686648625873D+03
 0.166950210652420D+03 0.683738842411639D+02 -.456356770437236D+01 -.868997044901253D+02
 0.182399523409122D+03 -.323173943985983D+02 0.538573385797728D+02 0.151186452058025D+03
 0.744068048233591D+02 -.341968676368714D+02 -.153023179613057D+02 -.642867475678997D+02
 0.134006412937305D+03 -.185962220569426D+01 -.339914529140947D+02 -.129610345429539D+03
 0.211193470058707D+03 0.000000000000000D+00 0.000000000000000D+00 0.211193470058707D+03
 0.211193470058707D+03 0.000000000000000D+00 0.000000000000000D+00 -.211193470058707D+03
 0.167557775616406D+03 0.676387152128792D+02 -.180014925325023D+02 -.868997044901253D+02
 0.178799088032771D+03 -.331112230756157D+02 0.393471923715434D+02 0.151186452058025D+03
 0.000000000000000D+00 -.000000000000000D+00 -.000000000000000D+00 -.000000000000000D+00
 0.760300764682378D+02 -.345274921372636D+02 -.213456998390411D+02 -.642867475678997D+02
 0.214076303196334D+03 0.000000000000000D+00 0.000000000000000D+00 0.214076303196334D+03
 0.343686648625873D+03 0.000000000000000D+00 0.000000000000000D+00 -.343686648625873D+03
 0.166950210652420D+03 0.683738842411639D+02 -.456356770437236D+01 -.868997044901253D+02
 0.182399523409122D+03 -.323173943985983D+02 0.538573385797728D+02 0.151186452058025D+03
 0.134006412937305D+03 -.185962220569426D+01 -.339914529140947D+02 -.129610345429539D+03
 0.744068048233591D+02 -.341968676368714D+02 -.153023179613057D+02 -.642867475678997D+02
0.421545852630D-04 0.000000000000D+00 0.000000000000D+00 0.667296836248D-05 0.000000000000D+00  6 2 -1 25 24 21 21 2 0.26282321D+00 0.40167106D-02 0.19503617D+05 0.19503617D+05 0.19503617D+05 0.12350295D+01  1  2  2  2  6  2       -1 0.188939648237D-01 0.100000000000D+01
0.145691604011D-06 0.222455858062D-05 -.161884706967D-06 0.667296836248D-05 0.000000000000D+00  6 2 -1 25 24 21 21 4 0.26282321D+00 0.40167106D-02 0.19503617D+05 0.19503617D+05 0.19503617D+05 0.12350295D+01  1  2  3  2  6  2       -1 0.996018622451D-04 0.100000000000D+01
0.723644227062D-06 0.000000000000D+00 0.000000000000D+00 0.667296836248D-05 0.000000000000D+00  6 2 -1 25 24 21 21 4 0.26282321D+00 0.40167106D-02 0.19503617D+05 0.19503617D+05 0.19503617D+05 0.12350295D+01  1  2 15  2  6  2       -1 0.494718368350D-03 0.100000000000D+01
-.339441679074D-03 0.000000000000D+00 0.000000000000D+00 0.667296836248D-05 0.000000000000D+00  6 2 -1 25 24 21 21 4 0.26282321D+00 0.40167106D-02 0.19503617D+05 0.19503617D+05 0.19503617D+05 0.12350295D+01  1  2  4  2  6  2       -1 -.232058831317D+00 0.100000000000D+01
-.479581502948D-03 0.000000000000D+00 -.253590626104D-04 0.667296836248D-05 0.000000000000D+00  6 2 -1 25 24 21 21 4 0.26282321D+00 0.66170942D-02 0.19503617D+05 0.19503617D+05 0.19503617D+05 0.12350295D+01  1  2  5  2  6  2       -1 -.156428766808D+00 0.100000000000D+01
0.439229771421D-03 0.000000000000D+00 0.224972779201D-04 0.667296836248D-05 0.000000000000D+00  6 2 -1 25 24 21 21 4 0.26282321D+00 0.40167106D-02 0.19503617D+05 0.19503617D+05 0.19503617D+05 0.12350295D+01  1  2  6  2  6  2       -1 0.300278821722D+00 0.100000000000D+01
-.258637357191D-04 0.000000000000D+00 -.142798065678D-05 0.667296836248D-05 0.000000000000D+00  6 2 21 25 24 1 21 4 0.26282321D+00 0.66170942D-02 0.19503617D+05 0.19503617D+05 0.19503617D+05 0.12350295D+01  3  4  5  5  5  2       -1 -.139144498924D+00 0.100000000000D+01
  </mgrwgt>
  </event>
  <event>
  5     66 0.46179844E-03 0.43337372E+02 0.75467711E-02 0.11676001E+00
        2 -1    0    0  502    0 0.00000000E+00 0.00000000E+00 0.10842809E+04 0.10842809E+04 0.32000000E+00 0.0000E+00 0.9000E+01
       -1 -1    0    0    0  501 0.00000000E+00 0.00000000E+00 -.34741223E+02 0.34742697E+02 0.32000000E+00 0.0000E+00 0.9000E+01
       25  1    1    2    0    0 -.10319724E+02 -.14067157E+03 0.34094881E+03 0.38957166E+03 0.12500000E+03 0.0000E+00 0.9000E+01
       24  1    1    2    0    0 -.69410933E+01 0.10092583E+03 0.55635468E+03 0.57116718E+03 0.80419002E+02 0.0000E+00 0.9000E+01
       21  1    1    2  502  501 0.17260817E+02 0.39745740E+02 0.15223615E+03 0.15828477E+03 0.75000000E+00 0.0000E+00 0.9000E+01
#aMCatNLO 1  0  0  5  1 0.22828261D+01 0.00000000D+00  -5  6  0 0.00000000D+00 0.00000000D+00 0.00000000D+00 0.00000000D+00 0.00000000D+00
  <mgrwgt>
 0.2144303182D+00   25    2    0
 0.194087851639901D+03 0.000000000000000D+00 0.000000000000000D+00 0.194087851639901D+03
 0.194087851639901D+03 -.000000000000000D+00 -.000000000000000D+00 -.194087851639901D+03
 0.201201446873537D+03 -.103209842602175D+02 -.140674470126864D+03 -.704357364015694D+02
 0.142287698822626D+03 -.694198462246550D+01 0.100923775654211D+03 0.595380016381776D+02
 0.446865575836390D+02 0.172629688826830D+02 0.397506944726525D+02 0.108977347633918D+02
 0.000000000000000D+00 0.000000000000000D+00 0.000000000000000D+00 0.000000000000000D+00
 0.194087851639901D+03 0.000000000000000D+00 0.000000000000000D+00 0.194087851639901D+03
 0.194087851639901D+03 -.000000000000000D+00 -.000000000000000D+00 -.194087851639901D+03
 0.200437144975869D+03 -.991423332694398D+01 -.139737862282355D+03 -.701789634318849D+02
 0.142822426196867D+03 -.665324541315942D+01 0.101588642987832D+03 0.597202763871036D+02
 0.230788570604136D+01 0.100980792773335D+01 -.601736459677845D+00 0.198608600375990D+01
 0.426082464010254D+02 0.155576708123700D+02 0.387509557542018D+02 0.847260104102141D+01
0.474679392228D-03 0.000000000000D+00 0.000000000000D+00 0.831599596785D-05 0.000000000000D+00  6 2 -1 25 24 21 21 2 0.16681256D+00 0.53449205D-02 0.32587377D+05 0.32587377D+05 0.32587377D+05 0.12111456D+01  1  2  2  3  6  5       21 0.291206168932D+00 0.100000000000D+01
0.469164899934D-04 0.250495197246D-04 -.182289385211D-05 0.831599596785D-05 0.000000000000D+00  6 2 -1 25 24 21 21 4 0.16681256D+00 0.53449205D-02 0.32587377D+05 0.32587377D+05 0.32587377D+05 0.12111456D+01  1  2  3  3  6  5       21 0.422200180788D-01 0.100000000000D+01
0.506994337861D-05 0.000000000000D+00 0.000000000000D+00 0.831599596785D-05 0.000000000000D+00  6 2 -1 25 24 21 21 4 0.16681256D+00 0.53449205D-02 0.32587377D+05 0.32587377D+05 0.32587377D+05 0.12111456D+01  1  2 15  3  6  5       21 0.456242786137D-02 0.100000000000D+01
0.142637986712D-07 0.000000000000D+00 0.000000000000D+00 0.831812670884D-05 0.000000000000D+00  6 2 -1 25 24 21 21 4 0.16681256D+00 0.53449205D-02 0.32475603D+05 0.32475603D+05 0.32475603D+05 0.12113007D+01  1  2 12  3  6  5       21 0.128419887913D-04 0.100000000000D+01
0.154427206258D-07 0.000000000000D+00 0.000000000000D+00 0.831812670884D-05 0.000000000000D+00  6 2 -1 25 24 21 21 4 0.16681256D+00 0.53449205D-02 0.32475603D+05 0.32475603D+05 0.32475603D+05 0.12113007D+01  1  2 12  3  6  5       21 0.139033962659D-04 0.100000000000D+01
-.455290537481D-03 0.000000000000D+00 0.000000000000D+00 0.831599596785D-05 0.000000000000D+00  6 2 -1 25 24 21 21 4 0.16681256D+00 0.53449205D-02 0.32587377D+05 0.32587377D+05 0.32587377D+05 0.12111456D+01  1  2  4  3  6  5       21 -.409714680835D+00 0.100000000000D+01
-.529336576328D-05 0.000000000000D+00 0.000000000000D+00 0.831599596785D-05 0.000000000000D+00  6 2 -1 25 24 21 21 4 0.16681256D+00 0.53449205D-02 0.32587377D+05 0.32587377D+05 0.32587377D+05 0.12111456D+01  1  2  5  3  6  5       21 -.476348504023D-02 0.100000000000D+01
0.313317207401D-03 0.000000000000D+00 -.000000000000D+00 0.831599596785D-05 0.000000000000D+00  6 2 -1 25 24 21 21 4 0.16681256D+00 0.53449205D-02 0.32587377D+05 0.32587377D+05 0.32587377D+05 0.12111456D+01  1  2  6  3  6  5       21 0.281953278320D+00 0.100000000000D+01
0.742607344461D-05 0.000000000000D+00 0.000000000000D+00 0.831599596785D-05 0.226730450324D-04  6 2 -1 25 24 21 21 4 0.16681256D+00 0.53449205D-02 0.32475603D+05 0.32475603D+05 0.32475603D+05 0.12113007D+01  1  2 11  3  6  5       21 0.668584534437D-02 0.100000000000D+01
0.215621085919D-07 0.000000000000D+00 0.000000000000D+00 0.831812670884D-05 0.000000000000D+00  6 2 -1 25 24 1 -1 4 0.16681256D+00 0.53449205D-02 0.32475603D+05 0.32475603D+05 0.32475603D+05 0.12113007D+01  1  2 12  6  6  5       21 0.194128060299D-04 0.100000000000D+01
0.217896299317D-07 0.000000000000D+00 0.000000000000D+00 0.831812670884D-05 0.000000000000D+00  6 2 -1 25 24 1 -1 4 0.16681256D+00 0.53449205D-02 0.32475603D+05 0.32475603D+05 0.32475603D+05 0.12113007D+01  1  2 12  6  6  5       21 0.196176481314D-04 0.100000000000D+01
-.124736504547D-04 0.000000000000D+00 0.000000000000D+00 0.831599596785D-05 0.000000000000D+00  6 2 -1 25 24 1 -1 4 0.16681256D+00 0.53449205D-02 0.32587377D+05 0.32587377D+05 0.32587377D+05 0.12111456D+01  1  2  5  6  6  5       21 -.112250031445D-01 0.100000000000D+01
0.152015692943D-04 0.000000000000D+00 0.000000000000D+00 0.831599596785D-05 0.657389998511D-07  6 2 -1 25 24 1 -1 4 0.16681256D+00 0.53449205D-02 0.32475603D+05 0.32475603D+05 0.32475603D+05 0.12113007D+01  1  2 11  6  6  5       21 0.136862828050D-01 0.100000000000D+01
0.215621085919D-07 0.000000000000D+00 0.000000000000D+00 0.831812670884D-05 0.000000000000D+00  6 2 -1 25 24 2 -2 4 0.16681256D+00 0.53449205D-02 0.32475603D+05 0.32475603D+05 0.32475603D+05 0.12113007D+01  1  2 12  7  6  5       21 0.194128060299D-04 0.100000000000D+01
0.217896299317D-07 0.000000000000D+00 0.000000000000D+00 0.831812670884D-05 0.000000000000D+00  6 2 -1 25 24 2 -2 4 0.16681256D+00 0.53449205D-02 0.32475603D+05 0.32475603D+05 0.32475603D+05 0.12113007D+01  1  2 12  7  6  5       21 0.196176481314D-04 0.100000000000D+01
-.124736504547D-04 0.000000000000D+00 0.000000000000D+00 0.831599596785D-05 0.000000000000D+00  6 2 -1 25 24 2 -2 4 0.16681256D+00 0.53449205D-02 0.32587377D+05 0.32587377D+05 0.32587377D+05 0.12111456D+01  1  2  5  7  6  5       21 -.112250031445D-01 0.100000000000D+01
0.665716802147D-05 0.000000000000D+00 0.000000000000D+00 0.831599596785D-05 0.777880537740D-07  6 2 -1 25 24 2 -2 4 0.16681256D+00 0.53449205D-02 0.32475603D+05 0.32475603D+05 0.32475603D+05 0.12113007D+01  1  2 11  7  6  5       21 0.599358411347D-02 0.100000000000D+01
0.215621085919D-07 0.000000000000D+00 0.000000000000D+00 0.831812670884D-05 0.000000000000D+00  6 2 -1 25 24 3 -3 4 0.16681256D+00 0.53449205D-02 0.32475603D+05 0.32475603D+05 0.32475603D+05 0.12113007D+01  1  2 12  8  6  5       21 0.194128060299D-04 0.100000000000D+01
0.215621085919D-07 0.000000000000D+00 0.000000000000D+00 0.831812670884D-05 0.000000000000D+00  6 2 -1 25 24 4 -4 4 0.16681256D+00 0.53449205D-02 0.32475603D+05 0.32475603D+05 0.32475603D+05 0.12113007D+01  1  2 12  8  6  5       21 0.194128060299D-04 0.100000000000D+01
0.217896299317D-07 0.000000000000D+00 0.000000000000D+00 0.831812670884D-05 0.000000000000D+00  6 2 -1 25 24 3 -3 4 0.16681256D+00 0.53449205D-02 0.32475603D+05 0.32475603D+05 0.32475603D+05 0.12113007D+01  1  2 12  8  6  5       21 0.196176481314D-04 0.100000000000D+01
0.217896299317D-07 0.000000000000D+00 0.000000000000D+00 0.831812670884D-05 0.000000000000D+00  6 2 -1 25 24 4 -4 4 0.16681256D+00 0.53449205D-02 0.32475603D+05 0.32475603D+05 0.32475603D+05 0.12113007D+01  1  2 12  8  6  5       21 0.196176481314D-04 0.100000000000D+01
-.124736504547D-04 0.000000000000D+00 0.000000000000D+00 0.831599596785D-05 0.000000000000D+00  6 2 -1 25 24 3 -3 4 0.16681256D+00 0.53449205D-02 0.32587377D+05 0.32587377D+05 0.32587377D+05 0.12111456D+01  1  2  5  8  6  5       21 -.112250031445D-01 0.100000000000D+01
-.124736504547D-04 0.000000000000D+00 0.000000000000D+00 0.831599596785D-05 0.000000000000D+00  6 2 -1 25 24 4 -4 4 0.16681256D+00 0.53449205D-02 0.32587377D+05 0.32587377D+05 0.32587377D+05 0.12111456D+01  1  2  5  8  6  5       21 -.112250031445D-01 0.100000000000D+01
0.151712791596D-04 0.000000000000D+00 0.000000000000D+00 0.831599596785D-05 0.655521467568D-07  6 2 -1 25 24 3 -3 4 0.16681256D+00 0.53449205D-02 0.32475603D+05 0.32475603D+05 0.32475603D+05 0.12113007D+01  1  2 11  8  6  5       21 0.136590119791D-01 0.100000000000D+01
0.151712791596D-04 0.000000000000D+00 0.000000000000D+00 0.831599596785D-05 0.655521467568D-07  6 2 -1 25 24 4 -4 4 0.16681256D+00 0.53449205D-02 0.32475603D+05 0.32475603D+05 0.32475603D+05 0.12113007D+01  1  2 11  8  6  5       21 0.136590119791D-01 0.100000000000D+01
  </mgrwgt>
  </event>
  <event>
  6     66 0.46179844E-03 0.15723185E+02 0.75467711E-02 0.12105634E+00
        2 -1    0    0  502    0 0.00000000E+00 0.00000000E+00 0.17410684E+04 0.17410684E+04 0.32000000E+00 0.0000E+00 0.9000E+01
       -1 -1    0    0    0  503 0.00000000E+00 0.00000000E+00 -.17389795E+03 0.17389825E+03 0.32000000E+00 0.0000E+00 0.9000E+01
       25  1    1    2    0    0 -.20604784E+02 0.67694951E+02 0.11892542E+04 0.11978972E+04 0.12500000E+03 0.0000E+00 0.9000E+01
       24  1    1    2    0    0 -.12105591E+01 -.72613171E+02 0.53385444E+03 0.54474023E+03 0.80419002E+02 0.0000E+00 0.9000E+01
       21  1    1    2  502  501 0.14632957E+01 0.10854507E+02 0.34714881E+01 0.11514134E+02 0.75000000E+00 0.0000E+00 0.9000E+01
       21  1    1    2  501  503 0.20352047E+02 -.59362864E+01 -.15940975E+03 0.16081504E+03 0.75000000E+00 0.0000E+00 0.9000E+01
#aMCatNLO 2  0  0  2  5 0.13734755D+03 0.00000000D+00  -5  6  0 0.00000000D+00 0.00000000D+00 0.00000000D+00 0.00000000D+00 0.00000000D+00
  <mgrwgt>
 0.1770410954D+01    1    2    0
 0.154531019536649D+03 0.000000000000000D+00 0.000000000000000D+00 0.154531019536649D+03
 0.154531019536649D+03 0.000000000000000D+00 0.000000000000000D+00 -.154531019536649D+03
 0.152492528914443D+03 -.104997118361346D+02 0.647467575518393D+02 0.576765534043401D+02
 0.110724996867340D+03 0.602033689715405D+01 -.747228203031679D+02 -.131554036991325D+02
 0.458445132915152D+02 0.447937493898051D+01 0.997606275132861D+01 -.445211497052076D+02
 0.000000000000000D+00 0.000000000000000D+00 -.000000000000000D+00 -.000000000000000D+00
 0.154956606584519D+03 0.000000000000000D+00 0.000000000000000D+00 0.154956606584519D+03
 0.195389038434867D+04 0.000000000000000D+00 0.000000000000000D+00 -.195389038434867D+04
 0.154785903167799D+03 -.206051360658951D+02 0.676943082878717D+02 0.576765534043401D+02
 0.109153508922070D+03 -.121077777936561D+01 -.726136483473444D+02 -.131554036991325D+02
 0.458488854966546D+02 0.146386653657150D+01 0.108556264202003D+02 -.445211497052076D+02
 0.179905869334667D+04 0.203520473086892D+02 -.593628636072753D+01 -.179893377776415D+04
0.503326927564D-01 0.000000000000D+00 0.000000000000D+00 0.145348390620D-03 0.125385398908D-04  6 2 -1 25 24 21 21 4 0.26785656D+00 0.26753542D-01 0.20185392D+05 0.20185392D+05 0.20185392D+05 0.12333851D+01  1  2  1  2  6  2       -1 0.177041095413D+01 0.100000000000D+01
  </mgrwgt>
  </event>
  <event>
  6     66 -.46179844E-03 0.12362642E+02 0.75467711E-02 0.11933421E+00
        2 -1    0    0  502    0 0.00000000E+00 0.00000000E+00 0.32206875E+03 0.32206891E+03 0.32000000E+00 0.0000E+00 0.9000E+01
       21 -1    0    0  503  501 0.00000000E+00 0.00000000E+00 -.13221002E+03 0.13221215E+03 0.75000000E+00 0.0000E+00 0.9000E+01
       25  1    1    2    0    0 -.90428038E+02 -.42247857E+02 0.12511955E+03 0.20308130E+03 0.12500000E+03 0.0000E+00 0.9000E+01
       24  1    1    2    0    0 0.10409419E+03 0.13636552E+02 0.12250818E+03 0.18026932E+03 0.80419002E+02 0.0000E+00 0.9000E+01
        1  1    1    2  503    0 -.10768157E+02 0.93414584E+01 -.45986328E+02 0.48146244E+02 0.32000000E+00 0.0000E+00 0.9000E+01
       21  1    1    2  502  501 -.28979996E+01 0.19269846E+02 -.11782678E+02 0.22784191E+02 0.75000000E+00 0.0000E+00 0.9000E+01
#aMCatNLO 2  0  0  2  5 0.14255387D+02 0.00000000D+00  -5  6  0 0.00000000D+00 0.00000000D+00 0.00000000D+00 0.00000000D+00 0.00000000D+00
  <mgrwgt>
 -.5876753000D+00    1    2    0
 0.165166110580098D+03 0.000000000000000D+00 0.000000000000000D+00 0.165166110580098D+03
 0.165166110580098D+03 0.000000000000000D+00 0.000000000000000D+00 -.165166110580098D+03
 0.162105818794434D+03 -.956784854644009D+02 -.376947367629140D+02 0.883350024775002D+01
 0.131162888454002D+03 0.997739217736425D+02 0.173830589537489D+02 0.218970579883253D+02
 0.000000000000000D+00 -.000000000000000D+00 0.000000000000000D+00 -.000000000000000D+00
 0.370635139117596D+02 -.409543630924162D+01 0.203116778091650D+02 -.307305582360753D+02
 0.165875770327947D+03 0.000000000000000D+00 0.000000000000000D+00 0.165875770327947D+03
 0.256704712638266D+03 0.000000000000000D+00 0.000000000000000D+00 -.256704712638266D+03
 0.160203740848344D+03 -.904276118047220D+02 -.422499098042937D+02 0.883350024775002D+01
 0.134045817021496D+03 0.104094542630940D+03 0.136348873299840D+02 0.218970579883253D+02
 0.919408114439030D+02 -.107681568766415D+02 0.934145841033722D+01 -.908289423103193D+02
 0.363901136524689D+02 -.289877394957614D+01 0.192735640639725D+02 -.307305582360753D+02
-.108107544044D-03 0.000000000000D+00 0.000000000000D+00 0.464082109091D-04 0.000000000000D+00  6 2 21 25 24 1 21 4 0.49337147D-01 0.21972585D-01 0.26561008D+05 0.26561008D+05 0.26561008D+05 0.12204875D+01  1  2 13  5  5  2       -1 -.587675299970D+00 0.100000000000D+01
  </mgrwgt>
  </event>
  <event>
  5     66 0.46179844E-03 0.44631747E+02 0.75467711E-02 0.11797922E+00
        2 -1    0    0  502    0 0.00000000E+00 0.00000000E+00 0.21279297E+03 0.21279321E+03 0.32000000E+00 0.0000E+00 0.9000E+01
       -1 -1    0    0    0  501 0.00000000E+00 0.00000000E+00 -.17925298E+03 0.17925326E+03 0.32000000E+00 0.0000E+00 0.9000E+01
       25  1    1    2    0    0 0.48456315E+02 -.11305979E+03 0.29920562E+02 0.17790663E+03 0.12500000E+03 0.0000E+00 0.9000E+01
       24  1    1    2    0    0 -.13925182E+02 0.84784901E+02 0.67910228E+02 0.13587275E+03 0.80419002E+02 0.0000E+00 0.9000E+01
       21  1    1    2  502  501 -.34531133E+02 0.28274888E+02 -.64290794E+02 0.78267088E+02 0.75000000E+00 0.0000E+00 0.9000E+01
#aMCatNLO 1  0  0  5  5 0.14648225D+01 0.00000000D+00  -5  6  0 0.00000000D+00 0.00000000D+00 0.00000000D+00 0.00000000D+00 0.00000000D+00
  <mgrwgt>
 0.8893197345D-01    9    2    0
 0.195304574451475D+03 0.000000000000000D+00 0.000000000000000D+00 0.195304574451475D+03
 0.195304574451475D+03 -.000000000000000D+00 -.000000000000000D+00 -.195304574451475D+03
 0.175992725224430D+03 0.484569339279517D+02 -.113060295407705D+03 0.147558289684512D+02
 0.130541670712461D+03 -.139247229873573D+02 0.847845245749078D+02 0.564942326292014D+02
 0.840747529660593D+02 -.345322109405945D+02 0.282757708327974D+02 -.712500615976527D+02
 0.000000000000000D+00 0.000000000000000D+00 0.000000000000000D+00 0.000000000000000D+00
 0.195304574451475D+03 0.000000000000000D+00 0.000000000000000D+00 0.195304574451475D+03
 0.195304574451475D+03 -.000000000000000D+00 -.000000000000000D+00 -.195304574451475D+03
 0.175143356722555D+03 0.475738319690286D+02 -.112337191154246D+03 0.129337310703894D+02
 0.130384378728704D+03 -.145809480728510D+02 0.853218568112964D+02 0.551402481466039D+02
 0.824844329896297D+02 -.325723877488695D+02 0.276462996815740D+02 -.705578015238188D+02
 0.259698046206176D+01 -.420496147308093D+00 -.630965338624725D+00 0.248382230682546D+01
0.196303265693D-03 0.000000000000D+00 0.000000000000D+00 0.107290836555D-04 0.000000000000D+00  6 2 -1 25 24 21 21 2 0.32737421D-01 0.27577421D-01 0.28508434D+05 0.28508434D+05 0.28508434D+05 0.12172298D+01  1  2  2  3  6  5       21 0.612362089043D-01 0.100000000000D+01
0.936972635324D-05 0.103592079338D-04 -.753856228098D-06 0.107290836555D-04 0.000000000000D+00  6 2 -1 25 24 21 21 4 0.32737421D-01 0.27577421D-01 0.28508434D+05 0.28508434D+05 0.28508434D+05 0.12172298D+01  1  2  3  3  6  5       21 0.433064741390D-02 0.100000000000D+01
0.722513374793D-05 0.000000000000D+00 0.000000000000D+00 0.107290836555D-04 0.000000000000D+00  6 2 -1 25 24 21 21 4 0.32737421D-01 0.27577421D-01 0.28508434D+05 0.28508434D+05 0.28508434D+05 0.12172298D+01  1  2 15  3  6  5       21 0.333942589153D-02 0.100000000000D+01
-.268773882729D-03 0.000000000000D+00 0.000000000000D+00 0.107290836555D-04 0.000000000000D+00  6 2 -1 25 24 21 21 4 0.32737421D-01 0.27577421D-01 0.28508434D+05 0.28508434D+05 0.28508434D+05 0.12172298D+01  1  2  4  3  6  5       21 -.124226138126D+00 0.100000000000D+01
0.303645694070D-03 0.000000000000D+00 0.000000000000D+00 0.107290836555D-04 0.793744367982D-04  6 2 -1 25 24 21 21 4 0.32737421D-01 0.27577421D-01 0.28274017D+05 0.28274017D+05 0.28274017D+05 0.12176086D+01  1  2 11  3  6  5       21 0.140500700352D+00 0.100000000000D+01
0.188582393635D-05 0.000000000000D+00 0.000000000000D+00 0.107357618504D-04 0.161230660281D-07  6 2 -1 25 24 1 -1 4 0.32737421D-01 0.27577421D-01 0.28274017D+05 0.28274017D+05 0.28274017D+05 0.12176086D+01  1  2 11  6  6  5       21 0.872594569830D-03 0.100000000000D+01
0.207186459387D-05 0.000000000000D+00 0.000000000000D+00 0.107357618504D-04 0.141986243812D-07  6 2 -1 25 24 2 -2 4 0.32737421D-01 0.27577421D-01 0.28274017D+05 0.28274017D+05 0.28274017D+05 0.12176086D+01  1  2 11  7  6  5       21 0.958677933390D-03 0.100000000000D+01
0.207456675019D-05 0.000000000000D+00 0.000000000000D+00 0.107357618504D-04 0.141957228986D-07  6 2 -1 25 24 3 -3 4 0.32737421D-01 0.27577421D-01 0.28274017D+05 0.28274017D+05 0.28274017D+05 0.12176086D+01  1  2 11  8  6  5       21 0.959928255272D-03 0.100000000000D+01
0.207456675019D-05 0.000000000000D+00 0.000000000000D+00 0.107357618504D-04 0.141957228986D-07  6 2 -1 25 24 4 -4 4 0.32737421D-01 0.27577421D-01 0.28274017D+05 0.28274017D+05 0.28274017D+05 0.12176086D+01  1  2 11  8  6  5       21 0.959928255272D-03 0.100000000000D+01
  </mgrwgt>
  </event>
  <event>
  5     66 0.46179844E-03 0.23310845E+02 0.75467711E-02 0.11807133E+00
        2 -1    0    0  502    0 0.00000000E+00 0.00000000E+00 0.24426658E+04 0.24426658E+04 0.32000000E+00 0.0000E+00 0.9000E+01
       -1 -1    0    0    0  501 0.00000000E+00 0.00000000E+00 -.14621452E+02 0.14624953E+02 0.32000000E+00 0.0000E+00 0.9000E+01
       25  1    1    2    0    0 -.92147793E+02 0.92562842E+01 0.16321827E+04 0.16395799E+04 0.12500000E+03 0.0000E+00 0.9000E+01
       24  1    1    2    0    0 0.76689844E+02 -.26703860E+02 0.78256114E+03 0.79086256E+03 0.80419002E+02 0.0000E+00 0.9000E+01
       21  1    1    2  502  501 0.15457949E+02 0.17447576E+02 0.13300512E+02 0.26848318E+02 0.75000000E+00 0.0000E+00 0.9000E+01
#aMCatNLO 1  0  0  5  2 0.36060202D+02 0.00000000D+00  -5  6  0 0.00000000D+00 0.00000000D+00 0.00000000D+00 0.00000000D+00 0.00000000D+00
  <mgrwgt>
 0.4822685818D+00   10    2    0
 0.188996423906376D+03 0.000000000000000D+00 0.000000000000000D+00 0.188996423906376D+03
 0.188996423906376D+03 -.000000000000000D+00 -.000000000000000D+00 -.188996423906376D+03
 0.174375987081315D+03 -.921480459956807D+02 0.925599909233197D+01 0.787721332106962D+02
 0.114515673434795D+03 0.766896782028304D+02 -.267040470663412D+02 0.722569271966703D+01
 0.891011872966427D+02 0.154583677928503D+02 0.174480479740092D+02 -.859978259303632D+02
 0.000000000000000D+00 0.000000000000000D+00 0.000000000000000D+00 0.000000000000000D+00
 0.188996423906376D+03 0.000000000000000D+00 0.000000000000000D+00 0.188996423906376D+03
 0.188996423906376D+03 -.000000000000000D+00 -.000000000000000D+00 -.188996423906376D+03
 0.168762548059254D+03 -.901707628690298D+02 0.114877826359969D+02 0.677721329248051D+02
 0.114841880179571D+03 0.780113158922430D+02 -.252122985118920D+02 -.126827900891565D+00
 0.338719258203209D+02 -.257633180299100D+02 0.626579651406762D+01 -.210783917059943D+02
 0.605164937536061D+02 0.379227650066969D+02 0.745871936182746D+01 -.465669133179192D+02
0.921596753817D-03 0.000000000000D+00 0.000000000000D+00 0.432636455088D-04 0.000000000000D+00  6 2 -1 25 24 21 21 2 0.37579501D+00 0.22497251D-02 0.21486875D+05 0.21486875D+05 0.21486875D+05 0.12304121D+01  1  2  2  3  6  5       21 0.398155109598D+00 0.100000000000D+01
0.156034505904D-03 0.486339968425D-04 -.353917419665D-05 0.432636455088D-04 0.000000000000D+00  6 2 -1 25 24 21 21 4 0.37579501D+00 0.22497251D-02 0.21486875D+05 0.21486875D+05 0.21486875D+05 0.12304121D+01  1  2  3  3  6  5       21 0.102054744358D+00 0.100000000000D+01
0.184827859734D-04 0.000000000000D+00 0.000000000000D+00 0.432636455088D-04 0.000000000000D+00  6 2 -1 25 24 21 21 4 0.37579501D+00 0.22497251D-02 0.21486875D+05 0.21486875D+05 0.21486875D+05 0.12304121D+01  1  2 15  3  6  5       21 0.120887106772D-01 0.100000000000D+01
-.299432238883D-03 0.000000000000D+00 0.000000000000D+00 0.432636455088D-04 0.000000000000D+00  6 2 -1 25 24 21 21 4 0.37579501D+00 0.22497251D-02 0.21486875D+05 0.21486875D+05 0.21486875D+05 0.12304121D+01  1  2  4  3  6  5       21 -.195844376951D+00 0.100000000000D+01
-.151363332255D-03 0.000000000000D+00 0.000000000000D+00 0.432636455088D-04 0.000000000000D+00  6 2 -1 25 24 21 21 4 0.37579501D+00 0.22497251D-02 0.21486875D+05 0.21486875D+05 0.21486875D+05 0.12304121D+01  1  2  5  3  6  5       21 -.989995519835D-01 0.100000000000D+01
0.474570435886D-03 0.000000000000D+00 -.000000000000D+00 0.432636455088D-04 0.000000000000D+00  6 2 -1 25 24 21 21 4 0.37579501D+00 0.22497251D-02 0.21486875D+05 0.21486875D+05 0.21486875D+05 0.12304121D+01  1  2  6  3  6  5       21 0.310393936479D+00 0.100000000000D+01
-.174221475883D-04 0.000000000000D+00 0.000000000000D+00 0.432636455088D-04 0.000000000000D+00  6 2 -1 25 24 1 -1 4 0.37579501D+00 0.22497251D-02 0.21486875D+05 0.21486875D+05 0.21486875D+05 0.12304121D+01  1  2  5  6  6  5       21 -.113949975871D-01 0.100000000000D+01
-.174221475883D-04 0.000000000000D+00 0.000000000000D+00 0.432636455088D-04 0.000000000000D+00  6 2 -1 25 24 2 -2 4 0.37579501D+00 0.22497251D-02 0.21486875D+05 0.21486875D+05 0.21486875D+05 0.12304121D+01  1  2  5  7  6  5       21 -.113949975871D-01 0.100000000000D+01
-.174221475883D-04 0.000000000000D+00 0.000000000000D+00 0.432636455088D-04 0.000000000000D+00  6 2 -1 25 24 3 -3 4 0.37579501D+00 0.22497251D-02 0.21486875D+05 0.21486875D+05 0.21486875D+05 0.12304121D+01  1  2  5  8  6  5       21 -.113949975871D-01 0.100000000000D+01
-.174221475883D-04 0.000000000000D+00 0.000000000000D+00 0.432636455088D-04 0.000000000000D+00  6 2 -1 25 24 4 -4 4 0.37579501D+00 0.22497251D-02 0.21486875D+05 0.21486875D+05 0.21486875D+05 0.12304121D+01  1  2  5  8  6  5       21 -.113949975871D-01 0.100000000000D+01
  </mgrwgt>
  </event>
  <event>
  5     66 -.46179844E-03 0.28703485E+02 0.75467711E-02 0.11549176E+00
        2 -1    0    0  502    0 0.00000000E+00 0.00000000E+00 0.93665682E+03 0.93665687E+03 0.32000000E+00 0.0000E+00 0.9000E+01
       -1 -1    0    0    0  501 0.00000000E+00 0.00000000E+00 -.51992636E+02 0.51993621E+02 0.32000000E+00 0.0000E+00 0.9000E+01
       25  1    1    2    0    0 0.15075108E+03 -.55940777E+02 0.32735276E+03 0.38553869E+03 0.12500000E+03 0.0000E+00 0.9000E+01
       24  1    1    2    0    0 -.12719702E+03 0.39538676E+02 0.25002011E+03 0.29448202E+03 0.80419002E+02 0.0000E+00 0.9000E+01
       21  1    1    2  502  501 -.23554056E+02 0.16402101E+02 0.30729132E+03 0.30862978E+03 0.75000000E+00 0.0000E+00 0.9000E+01
#aMCatNLO 1  0  0  2  5 0.43238162D+02 0.00000000D+00  -5  6  0 0.00000000D+00 0.00000000D+00 0.00000000D+00 0.00000000D+00 0.00000000D+00
  <mgrwgt>
 -.1506874322D-01    1    2    0
 0.220680245360203D+03 0.000000000000000D+00 0.000000000000000D+00 0.220680245360203D+03
 0.220680245360203D+03 0.000000000000000D+00 0.000000000000000D+00 -.220680245360203D+03
 0.207463338264516D+03 0.150751628745347D+03 -.559411580195161D+02 -.395040503482566D+02
 0.158500558650078D+03 -.127196606129510D+03 0.395383843566610D+02 -.302150738806888D+02
 0.753965938058117D+02 -.235550226158371D+02 0.164027736628551D+02 0.697191242289453D+02
 0.000000000000000D+00 -.000000000000000D+00 0.000000000000000D+00 -.000000000000000D+00
 0.236347112598927D+03 0.000000000000000D+00 0.000000000000000D+00 0.236347112598927D+03
 0.342844281494842D+03 0.000000000000000D+00 0.000000000000000D+00 -.342844281494842D+03
 0.229487574845349D+03 0.165029454460013D+03 -.907978864022319D+02 -.395040503482566D+02
 0.146143766256117D+03 -.117242035843764D+03 0.152361019537837D+02 -.302150738806888D+02
 0.723381143065540D+02 -.187276373165985D+02 0.461758581023751D+01 0.697191242289453D+02
 0.131221938685748D+03 -.290597812996504D+02 0.709441986382107D+02 -.106497168895914D+03
-.255448024666D-04 0.000000000000D+00 0.000000000000D+00 0.226727525270D-04 0.000000000000D+00  6 2 -1 25 24 21 21 4 0.14410113D+00 0.79989470D-02 0.37629205D+05 0.37629205D+05 0.37629205D+05 0.12047042D+01  1  2 14  2  6  2       -1 -.150687432238D-01 0.100000000000D+01
  </mgrwgt>
  </event>
  <event>
  5     66 -.46179844E-03 0.34442730E+02 0.75467711E-02 0.12389273E+00
        2 -1    0    0  502    0 0.00000000E+00 0.00000000E+00 0.65815791E+03 0.65815799E+03 0.32000000E+00 0.0000E+00 0.9000E+01
       -1 -1    0    0    0  501 0.00000000E+00 0.00000000E+00 -.23093022E+02 0.23095239E+02 0.32000000E+00 0.0000E+00 0.9000E+01
       25  1    1    2    0    0 -.17492382E+02 0.31042886E+02 0.30738494E+03 0.33373664E+03 0.12500000E+03 0.0000E+00 0.9000E+01
       24  1    1    2    0    0 0.83722752E+01 0.21631711E+01 0.24264681E+03 0.25577229E+03 0.80419002E+02 0.0000E+00 0.9000E+01
       21  1    1    2  502  501 0.91201071E+01 -.33206057E+02 0.85033139E+02 0.91744295E+02 0.75000000E+00 0.0000E+00 0.9000E+01
#aMCatNLO 1  0  0  5  1 0.14974788D+01 0.00000000D+00  -5  6  0 0.00000000D+00 0.00000000D+00 0.00000000D+00 0.00000000D+00 0.00000000D+00
  <mgrwgt>
 -.3668345139D-01   25    2    0
 0.123286806102049D+03 0.000000000000000D+00 0.000000000000000D+00 0.123286806102049D+03
 0.123286806102049D+03 -.000000000000000D+00 -.000000000000000D+00 -.123286806102049D+03
 0.130387267017540D+03 -.174935242308192D+02 0.310470432848615D+02 -.102906323205544D+02
 0.817169015950134D+02 0.837155950686314D+01 0.216577684734051D+01 0.116474226328893D+02
 0.344694435915457D+02 0.912196472395611D+01 -.332128201322020D+02 -.135679031233491D+01
 0.000000000000000D+00 0.000000000000000D+00 0.000000000000000D+00 -.000000000000000D+00
 0.123286806102049D+03 0.000000000000000D+00 0.000000000000000D+00 0.123286806102049D+03
 0.123286806102049D+03 -.000000000000000D+00 -.000000000000000D+00 -.123286806102049D+03
 0.130359145742700D+03 -.174650597186424D+02 0.309434047868307D+02 -.102948660986423D+02
 0.817166572779243D+02 0.838940081281785D+01 0.210081714802911D+01 0.116447689380098D+02
 0.697813646115996D+01 0.132269929843734D+01 -.675660872297524D+01 0.113714273558699D+01
 0.275196727223149D+02 0.775295960738718D+01 -.262876132118845D+02 -.248704557495452D+01
0.364961240323D-04 0.000000000000D+00 0.000000000000D+00 0.226107987857D-04 0.000000000000D+00  6 2 -1 25 24 21 21 2 0.10125524D+00 0.35529491D-02 0.15043739D+05 0.15043739D+05 0.15043739D+05 0.12476784D+01  1  2  2  3  6  5       21 0.809535727988D-01 0.100000000000D+01
0.238577137155D-05 0.192595337777D-05 -.140154725934D-06 0.226107987857D-04 0.000000000000D+00  6 2 -1 25 24 21 21 4 0.10125524D+00 0.35529491D-02 0.15043739D+05 0.15043739D+05 0.15043739D+05 0.12476784D+01  1  2  3  3  6  5       21 0.823803084296D-02 0.100000000000D+01
0.161649372603D-05 0.000000000000D+00 0.000000000000D+00 0.226107987857D-04 0.000000000000D+00  6 2 -1 25 24 21 21 4 0.10125524D+00 0.35529491D-02 0.15043739D+05 0.15043739D+05 0.15043739D+05 0.12476784D+01  1  2 15  3  6  5       21 0.558172729010D-02 0.100000000000D+01
0.789934612523D-08 0.000000000000D+00 0.000000000000D+00 0.226134211714D-04 0.000000000000D+00  6 2 -1 25 24 21 21 4 0.10125524D+00 0.35529491D-02 0.15021765D+05 0.15021765D+05 0.15021765D+05 0.12477508D+01  1  2 12  3  6  5       21 0.272811431789D-04 0.100000000000D+01
0.789679187684D-08 0.000000000000D+00 0.000000000000D+00 0.226134211714D-04 0.000000000000D+00  6 2 -1 25 24 21 21 4 0.10125524D+00 0.35529491D-02 0.15021765D+05 0.15021765D+05 0.15021765D+05 0.12477508D+01  1  2 12  3  6  5       21 0.272723218392D-04 0.100000000000D+01
-.645723790536D-03 0.000000000000D+00 0.000000000000D+00 0.226107987857D-04 0.000000000000D+00  6 2 -1 25 24 21 21 4 0.10125524D+00 0.35529491D-02 0.15043739D+05 0.15043739D+05 0.15043739D+05 0.12476784D+01  1  2  4  3  6  5       21 -.222967404417D+01 0.100000000000D+01
-.823457867877D-04 0.000000000000D+00 0.000000000000D+00 0.226107987857D-04 0.000000000000D+00  6 2 -1 25 24 21 21 4 0.10125524D+00 0.35529491D-02 0.15043739D+05 0.15043739D+05 0.15043739D+05 0.12476784D+01  1  2  5  3  6  5       21 -.284338700445D+00 0.100000000000D+01
0.602545233645D-03 0.000000000000D+00 -.000000000000D+00 0.226107987857D-04 0.000000000000D+00  6 2 -1 25 24 21 21 4 0.10125524D+00 0.35529491D-02 0.15043739D+05 0.15043739D+05 0.15043739D+05 0.12476784D+01  1  2  6  3  6  5       21 0.208057916959D+01 0.100000000000D+01
0.873249634714D-04 0.000000000000D+00 0.000000000000D+00 0.226107987857D-04 0.712197758130D-04  6 2 -1 25 24 21 21 4 0.10125524D+00 0.35529491D-02 0.15021765D+05 0.15021765D+05 0.15021765D+05 0.12477508D+01  1  2 11  3  6  5       21 0.301585067143D+00 0.100000000000D+01
0.128491165870D-08 0.000000000000D+00 0.000000000000D+00 0.226134211714D-04 0.000000000000D+00  6 2 -1 25 24 1 -1 4 0.10125524D+00 0.35529491D-02 0.15021765D+05 0.15021765D+05 0.15021765D+05 0.12477508D+01  1  2 12  6  6  5       21 0.443756462595D-05 0.100000000000D+01
0.128455196507D-08 0.000000000000D+00 0.000000000000D+00 0.226134211714D-04 0.000000000000D+00  6 2 -1 25 24 1 -1 4 0.10125524D+00 0.35529491D-02 0.15021765D+05 0.15021765D+05 0.15021765D+05 0.12477508D+01  1  2 12  6  6  5       21 0.443632238976D-05 0.100000000000D+01
-.120197311030D-04 0.000000000000D+00 0.000000000000D+00 0.226107987857D-04 0.000000000000D+00  6 2 -1 25 24 1 -1 4 0.10125524D+00 0.35529491D-02 0.15043739D+05 0.15043739D+05 0.15043739D+05 0.12476784D+01  1  2  5  6  6  5       21 -.415039415475D-01 0.100000000000D+01
0.121153474310D-04 0.000000000000D+00 0.000000000000D+00 0.226107987857D-04 0.110943146762D-05  6 2 -1 25 24 1 -1 4 0.10125524D+00 0.35529491D-02 0.15021765D+05 0.15021765D+05 0.15021765D+05 0.12477508D+01  1  2 11  6  6  5       21 0.418415046877D-01 0.100000000000D+01
0.128491165870D-08 0.000000000000D+00 0.000000000000D+00 0.226134211714D-04 0.000000000000D+00  6 2 -1 25 24 2 -2 4 0.10125524D+00 0.35529491D-02 0.15021765D+05 0.15021765D+05 0.15021765D+05 0.12477508D+01  1  2 12  7  6  5       21 0.443756462595D-05 0.100000000000D+01
0.128455196507D-08 0.000000000000D+00 0.000000000000D+00 0.226134211714D-04 0.000000000000D+00  6 2 -1 25 24 2 -2 4 0.10125524D+00 0.35529491D-02 0.15021765D+05 0.15021765D+05 0.15021765D+05 0.12477508D+01  1  2 12  7  6  5       21 0.443632238976D-05 0.100000000000D+01
-.120197311030D-04 0.000000000000D+00 0.000000000000D+00 0.226107987857D-04 0.000000000000D+00  6 2 -1 25 24 2 -2 4 0.10125524D+00 0.35529491D-02 0.15043739D+05 0.15043739D+05 0.15043739D+05 0.12476784D+01  1  2  5  7  6  5       21 -.415039415475D-01 0.100000000000D+01
0.119041753077D-04 0.000000000000D+00 0.000000000000D+00 0.226107987857D-04 0.109101965892D-05  6 2 -1 25 24 2 -2 4 0.10125524D+00 0.35529491D-02 0.15021765D+05 0.15021765D+05 0.15021765D+05 0.12477508D+01  1  2 11  7  6  5       21 0.411122016743D-01 0.100000000000D+01
0.128491165870D-08 0.000000000000D+00 0.000000000000D+00 0.226134211714D-04 0.000000000000D+00  6 2 -1 25 24 3 -3 4 0.10125524D+00 0.35529491D-02 0.15021765D+05 0.15021765D+05 0.15021765D+05 0.12477508D+01  1  2 12  8  6  5       21 0.443756462595D-05 0.100000000000D+01
0.128491165870D-08 0.000000000000D+00 0.000000000000D+00 0.226134211714D-04 0.000000000000D+00  6 2 -1 25 24 4 -4 4 0.10125524D+00 0.35529491D-02 0.15021765D+05 0.15021765D+05 0.15021765D+05 0.12477508D+01  1  2 12  8  6  5       21 0.443756462595D-05 0.100000000000D+01
0.128455196507D-08 0.000000000000D+00 0.000000000000D+00 0.226134211714D-04 0.000000000000D+00  6 2 -1 25 24 3 -3 4 0.10125524D+00 0.35529491D-02 0.15021765D+05 0.15021765D+05 0.15021765D+05 0.12477508D+01  1  2 12  8  6  5       21 0.443632238976D-05 0.100000000000D+01
0.128455196507D-08 0.000000000000D+00 0.000000000000D+00 0.226134211714D-04 0.000000000000D+00  6 2 -1 25 24 4 -4 4 0.10125524D+00 0.35529491D-02 0.15021765D+05 0.15021765D+05 0.15021765D+05 0.12477508D+01  1  2 12  8  6  5       21 0.443632238976D-05 0.100000000000D+01
-.120197311030D-04 0.000000000000D+00 0.000000000000D+00 0.226107987857D-04 0.000000000000D+00  6 2 -1 25 24 3 -3 4 0.10125524D+00 0.35529491D-02 0.15043739D+05 0.15043739D+05 0.15043739D+05 0.12476784D+01  1  2  5  8  6  5       21 -.415039415475D-01 0.100000000000D+01
-.120197311030D-04 0.000000000000D+00 0.000000000000D+00 0.226107987857D-04 0.000000000000D+00  6 2 -1 25 24 4 -4 4 0.10125524D+00 0.35529491D-02 0.15043739D+05 0.15043739D+05 0.15043739D+05 0.12476784D+01  1  2  5  8  6  5       21 -.415039415475D-01 0.100000000000D+01
0.120691241492D-04 0.000000000000D+00 0.000000000000D+00 0.226107987857D-04 0.110507946586D-05  6 2 -1 25 24 3 -3 4 0.10125524D+00 0.35529491D-02 0.15021765D+05 0.15021765D+05 0.15021765D+05 0.12477508D+01  1  2 11  8  6  5       21 0.416818681875D-01 0.100000000000D+01
0.120691241492D-04 0.000000000000D+00 0.000000000000D+00 0.226107987857D-04 0.110507946586D-05  6 2 -1 25 24 4 -4 4 0.10125524D+00 0.35529491D-02 0.15021765D+05 0.15021765D+05 0.15021765D+05 0.12477508D+01  1  2 11  8  6  5       21 0.416818681875D-01 0.100000000000D+01
  </mgrwgt>
  </event>
  <event>
  5     66 -.46179844E-03 0.21915089E+02 0.75467711E-02 0.12320968E+00
        2 -1    0    0  502    0 0.00000000E+00 0.00000000E+00 0.12670266E+04 0.12670266E+04 0.32000000E+00 0.0000E+00 0.9000E+01
       -1 -1    0    0    0  501 0.00000000E+00 0.00000000E+00 -.13552350E+02 0.13556127E+02 0.32000000E+00 0.0000E+00 0.9000E+01
       25  1    1    2    0    0 -.10199933E+02 -.63908897E+02 0.72257251E+03 0.73615516E+03 0.12500000E+03 0.0000E+00 0.9000E+01
       24  1    1    2    0    0 0.87125210E+01 0.42050728E+02 0.48580351E+03 0.49428376E+03 0.80419002E+02 0.0000E+00 0.9000E+01
       21  1    1    2  502  501 0.14874117E+01 0.21858169E+02 0.45098187E+02 0.50143802E+02 0.75000000E+00 0.0000E+00 0.9000E+01
#aMCatNLO 1  0  0  1  5 0.16036259D+01 0.00000000D+00  -5  6  0 0.00000000D+00 0.00000000D+00 0.00000000D+00 0.00000000D+00 0.00000000D+00
  <mgrwgt>
 -.6049843621D-01    1    2    0
 0.131048202345566D+03 0.000000000000000D+00 0.000000000000000D+00 0.131048202345566D+03
 0.131048202345566D+03 0.000000000000000D+00 0.000000000000000D+00 -.131048202345566D+03
 0.141101131750148D+03 -.102001948613975D+02 -.639127496326070D+02 0.977986913828161D+01
 0.916793740314822D+02 0.871235068325345D+01 0.420482245857762D+02 0.969192566985611D+01
 0.293158989095021D+02 0.148784417814401D+01 0.218645250468308D+02 -.194717948081377D+02
 0.000000000000000D+00 -.000000000000000D+00 0.000000000000000D+00 -.000000000000000D+00
 0.131397922820981D+03 0.000000000000000D+00 0.000000000000000D+00 0.131397922820981D+03
 0.303981356247569D+03 0.000000000000000D+00 0.000000000000000D+00 -.303981356247569D+03
 0.143826138784090D+03 -.783284548848168D+01 -.700282720673012D+02 0.977986913828161D+01
 0.901154481007679D+02 0.102228128351113D+02 0.381462803767279D+02 0.969192566985611D+01
 0.284326365620362D+02 0.196765419765887D+01 0.206250422006127D+02 -.194717948081377D+02
 0.173005055621656D+03 -.435762154428845D+01 0.112569494899607D+02 -.172583433426588D+03
-.195062264537D-04 0.000000000000D+00 0.000000000000D+00 0.505304730206D-04 0.000000000000D+00  6 2 -1 25 24 21 21 4 0.19492746D+00 0.20852705D-02 0.16109007D+05 0.16109007D+05 0.16109007D+05 0.12443065D+01  1  2 14  1  6  1        2 -.604984362122D-01 0.100000000000D+01
  </mgrwgt>
  </event>
  <event>
  5     66 -.46179844E-03 0.43391994E+02 0.75467711E-02 0.11481414E+00
        2 -1    0    0  502    0 0.00000000E+00 0.00000000E+00 0.84310945E+03 0.84310951E+03 0.32000000E+00 0.0000E+00 0.9000E+01
       -1 -1    0    0    0  501 0.00000000E+00 0.00000000E+00 -.34543994E+03 0.34544009E+03 0.32000000E+00 0.0000E+00 0.9000E+01
       25  1    1    2    0    0 -.86594172E+02 -.15369541E+02 0.19608141E+03 0.24861153E+03 0.12500000E+03 0.0000E+00 0.9000E+01
       24  1    1    2    0    0 0.12937516E+03 0.22625575E+02 0.60966719E+03 0.62881726E+03 0.80419002E+02 0.0000E+00 0.9000E+01
       21  1    1    2  502  501 -.42780984E+02 -.72560338E+01 -.30807910E+03 0.31112081E+03 0.75000000E+00 0.0000E+00 0.9000E+01
#aMCatNLO 1  0  0  1  5 0.62667476D+02 0.00000000D+00  -5  6  0 0.00000000D+00 0.00000000D+00 0.00000000D+00 0.00000000D+00 0.00000000D+00
  <mgrwgt>
 -.1323629970D+01    7    4    0
 0.539670089230182D+03 0.000000000000000D+00 0.000000000000000D+00 0.539670089230182D+03
 0.539670089230182D+03 0.000000000000000D+00 0.000000000000000D+00 -.539670089230182D+03
 0.183355956519060D+03 -.865941635680225D+02 -.153695396475875D+02 0.101289855750689D+03
 0.411332751871602D+03 0.129375175975919D+03 0.226255782533283D+02 0.381415211885679D+03
 0.484651470069702D+03 -.427810124078966D+02 -.725603860574081D+01 -.482705067636368D+03
 0.000000000000000D+00 -.000000000000000D+00 0.000000000000000D+00 0.000000000000000D+00
 0.652818904961106D+03 0.000000000000000D+00 0.000000000000000D+00 0.652818904961106D+03
 0.549326315780365D+03 0.000000000000000D+00 0.000000000000000D+00 -.549326315780365D+03
 0.178910756444306D+03 -.762915194303005D+02 -.174363974631970D+02 0.101289855750689D+03
 0.419131991696040D+03 0.152993086249577D+03 0.178874875472014D+02 0.381415211885679D+03
 0.483115165115667D+03 -.152583201651685D+02 -.127774844412052D+02 -.482705067636368D+03
 0.120987307485457D+03 -.614432466541084D+02 0.123263943572008D+02 0.103492589180741D+03
 0.539670089230182D+03 0.000000000000000D+00 0.000000000000000D+00 0.539670089230182D+03
 0.539670089230182D+03 0.000000000000000D+00 0.000000000000000D+00 -.539670089230182D+03
 0.183355956519060D+03 -.865941635680225D+02 -.153695396475875D+02 0.101289855750689D+03
 0.411332751871602D+03 0.129375175975919D+03 0.226255782533283D+02 0.381415211885679D+03
 0.000000000000000D+00 -.000000000000000D+00 0.000000000000000D+00 0.000000000000000D+00
 0.484651470069702D+03 -.427810124078966D+02 -.725603860574081D+01 -.482705067636368D+03
 0.652818904961106D+03 0.000000000000000D+00 0.000000000000000D+00 0.652818904961106D+03
 0.549326315780365D+03 0.000000000000000D+00 0.000000000000000D+00 -.549326315780365D+03
 0.178910756444306D+03 -.762915194303005D+02 -.174363974631970D+02 0.101289855750689D+03
 0.419131991696040D+03 0.152993086249577D+03 0.178874875472014D+02 0.381415211885679D+03
 0.120987307485457D+03 -.614432466541084D+02 0.123263943572008D+02 0.103492589180741D+03
 0.483115165115667D+03 -.152583201651685D+02 -.127774844412052D+02 -.482705067636368D+03
0.677449399279D-02 0.000000000000D+00 0.000000000000D+00 0.336816024864D-04 0.000000000000D+00  6 2 -1 25 24 21 21 2 0.12970916D+00 0.53144623D-01 0.30666052D+05 0.30666052D+05 0.30666052D+05 0.12138988D+01  1  2  2  1  6  1        2 0.142864064058D+00 0.100000000000D+01
0.167133143041D-02 0.357499869754D-03 -.260158406975D-04 0.336816024864D-04 0.000000000000D+00  6 2 -1 25 24 21 21 4 0.12970916D+00 0.53144623D-01 0.30666052D+05 0.30666052D+05 0.30666052D+05 0.12138988D+01  1  2  3  1  6  1        2 0.519366174331D-01 0.100000000000D+01
0.142973650773D-03 0.000000000000D+00 0.000000000000D+00 0.336816024864D-04 0.000000000000D+00  6 2 -1 25 24 21 21 4 0.12970916D+00 0.53144623D-01 0.30666052D+05 0.30666052D+05 0.30666052D+05 0.12138988D+01  1  2 15  1  6  1        2 0.444290561891D-02 0.100000000000D+01
-.640156794235D-01 0.000000000000D+00 0.000000000000D+00 0.336816024864D-04 0.000000000000D+00  6 2 -1 25 24 21 21 4 0.12970916D+00 0.53144623D-01 0.30666052D+05 0.30666052D+05 0.30666052D+05 0.12138988D+01  1  2  4  1  6  1        2 -.198928697890D+01 0.100000000000D+01
-.644720999534D-01 0.000000000000D+00 -.104566307595D-01 0.336816024864D-04 0.000000000000D+00  6 2 -1 25 24 21 21 4 0.15818985D+00 0.53144623D-01 0.30666052D+05 0.30666052D+05 0.30666052D+05 0.12138988D+01  1  2  5  1  6  1        2 -.153435720031D+01 0.100000000000D+01
0.654566102809D-01 0.000000000000D+00 0.102539498506D-01 0.336816024864D-04 0.000000000000D+00  6 2 -1 25 24 21 21 4 0.12970916D+00 0.53144623D-01 0.30666052D+05 0.30666052D+05 0.30666052D+05 0.12138988D+01  1  2  6  1  6  1        2 0.203406389946D+01 0.100000000000D+01
-.171548906785D-02 0.000000000000D+00 -.297512818620D-03 0.336816024864D-04 0.000000000000D+00  6 21 -1 25 24 -2 21 4 0.15818985D+00 0.53144623D-01 0.30666052D+05 0.30666052D+05 0.30666052D+05 0.12138988D+01  3  4  5  4  5  1        2 -.332932772575D-01 0.100000000000D+01
  </mgrwgt>
  </event>
  <event>
  6     66 -.46179844E-03 0.15973574E+02 0.75467711E-02 0.11865853E+00
        2 -1    0    0  502    0 0.00000000E+00 0.00000000E+00 0.17214281E+04 0.17214281E+04 0.32000000E+00 0.0000E+00 0.9000E+01
       -1 -1    0    0    0  503 0.00000000E+00 0.00000000E+00 -.31694227E+02 0.31695842E+02 0.32000000E+00 0.0000E+00 0.9000E+01
       25  1    1    2    0    0 -.35556935E+02 0.75096410E+02 0.11046944E+04 0.11148446E+04 0.12500000E+03 0.0000E+00 0.9000E+01
       24  1    1    2    0    0 0.82681282E+01 -.10265119E+03 0.16784431E+03 0.21270768E+03 0.80419002E+02 0.0000E+00 0.9000E+01
       21  1    1    2  502  501 0.22858251E+02 0.10083540E+02 0.39956996E+03 0.40035096E+03 0.75000000E+00 0.0000E+00 0.9000E+01
       21  1    1    2  501  503 0.44305559E+01 0.17471239E+02 0.17625138E+02 0.25220666E+02 0.75000000E+00 0.0000E+00 0.9000E+01
#aMCatNLO 2  0  0  2  5 0.18024262D+02 0.00000000D+00  -5  6  0 0.00000000D+00 0.00000000D+00 0.00000000D+00 0.00000000D+00 0.00000000D+00
  <mgrwgt>
 -.3100837221D+00    2    2    0
 0.217587532992434D+03 0.000000000000000D+00 0.000000000000000D+00 0.217587532992434D+03
 0.217587532992434D+03 0.000000000000000D+00 0.000000000000000D+00 -.217587532992434D+03
 0.184588992339176D+03 -.336936285788661D+02 0.824472417122142D+02 0.102544077449795D+03
 0.195618549120746D+03 0.102775584405517D+02 -.947239487302812D+02 -.150735351312090D+03
 0.549675245249470D+02 0.234160701383143D+02 0.122767070180670D+02 0.481912738622953D+02
 0.000000000000000D+00 0.000000000000000D+00 0.000000000000000D+00 -.000000000000000D+00
 0.220514104985720D+03 0.000000000000000D+00 0.000000000000000D+00 0.220514104985720D+03
 0.247415682912761D+03 0.000000000000000D+00 0.000000000000000D+00 -.247415682912761D+03
 0.181780232460878D+03 -.355578481981165D+02 0.750959687667794D+02 0.102544077449795D+03
 0.199484570979665D+03 0.826713033071191D+01 -.102651773123927D+03 -.150735351312090D+03
 0.542833707773382D+02 0.228601619215302D+02 0.100845656029726D+02 0.481912738622953D+02
 0.323816136805996D+02 0.443055594587444D+01 0.174712387541749D+02 -.269015779270416D+02
-.167809940706D-02 0.000000000000D+00 0.000000000000D+00 0.147859246156D-04 0.000000000000D+00  6 2 -1 25 24 21 21 4 0.26131534D+00 0.49981321D-02 0.26206642D+05 0.26206642D+05 0.26206642D+05 0.12211089D+01  1  2 13  2  6  2       -1 -.802996756050D+00 0.100000000000D+01
0.102026970334D-02 0.000000000000D+00 0.000000000000D+00 0.149240653497D-04 0.214241016451D-06  6 2 -1 25 24 21 21 4 0.26483006D+00 0.48760664D-02 0.26206642D+05 0.26206642D+05 0.26206642D+05 0.12211089D+01  1  2  1  2  6  2       -1 0.492913033999D+00 0.100000000000D+01
  </mgrwgt>
  </event>
  <event>
  5     66 0.46179844E-03 0.54184923E+02 0.75467711E-02 0.11431745E+00
        2 -1    0    0  502    0 0.00000000E+00 0.00000000E+00 0.53797371E+02 0.53798323E+02 0.32000000E+00 0.0000E+00 0.9000E+01
       -1 -1    0    0    0  501 0.00000000E+00 0.00000000E+00 -.45056805E+03 0.45056816E+03 0.32000000E+00 0.0000E+00 0.9000E+01
       25  1    1    2    0    0 -.79808884E+02 -.28778219E+01 -.23080082E+03 0.27435699E+03 0.12500000E+03 0.0000E+00 0.9000E+01
       24  1    1    2    0    0 0.33531989E+02 0.31058823E+02 -.14482098E+03 0.17184114E+03 0.80419002E+02 0.0000E+00 0.9000E+01
       21  1    1    2  502  501 0.46276895E+02 -.28181001E+02 -.21148873E+02 0.58168351E+02 0.75000000E+00 0.0000E+00 0.9000E+01
#aMCatNLO 1  0  0  2  5 0.10575076D+03 0.00000000D+00  -5  6  0 0.00000000D+00 0.00000000D+00 0.00000000D+00 0.00000000D+00 0.00000000D+00
  <mgrwgt>
 0.6879975580D-01    7    4    0
 0.155690863519147D+03 0.000000000000000D+00 0.000000000000000D+00 0.155690863519147D+03
 0.155690863519147D+03 0.000000000000000D+00 0.000000000000000D+00 -.155690863519147D+03
 0.150303481904333D+03 -.798102719379523D+02 -.287697639534414D+01 -.242524261173384D+02
 0.938082960529838D+02 0.335311222652077D+02 0.310593503075661D+02 -.156128489424998D+02
 0.672699490809762D+02 0.462791496727446D+02 -.281823739122219D+02 0.398652750598381D+02
 0.000000000000000D+00 0.000000000000000D+00 -.000000000000000D+00 -.000000000000000D+00
 0.200696040285933D+03 0.000000000000000D+00 0.000000000000000D+00 0.200696040285933D+03
 0.241504705833241D+03 0.000000000000000D+00 0.000000000000000D+00 -.241504705833241D+03
 0.163215389104975D+03 -.901991278145174D+02 0.478560383819194D+02 -.242524261173384D+02
 0.107119974532323D+03 0.268731024850324D+02 0.635731728023904D+02 -.156128489424998D+02
 0.585138470100899D+02 0.421111398652631D+02 -.782828433131470D+01 0.398652750598381D+02
 0.113351535471787D+03 0.212148854642220D+02 -.103600926852995D+03 -.408086655473080D+02
 0.155690863519147D+03 0.000000000000000D+00 0.000000000000000D+00 0.155690863519147D+03
 0.155690863519147D+03 0.000000000000000D+00 0.000000000000000D+00 -.155690863519147D+03
 0.150303481904333D+03 -.798102719379523D+02 -.287697639534414D+01 -.242524261173384D+02
 0.938082960529838D+02 0.335311222652077D+02 0.310593503075661D+02 -.156128489424998D+02
 0.000000000000000D+00 0.000000000000000D+00 -.000000000000000D+00 -.000000000000000D+00
 0.672699490809762D+02 0.462791496727446D+02 -.281823739122219D+02 0.398652750598381D+02
 0.200696040285933D+03 0.000000000000000D+00 0.000000000000000D+00 0.200696040285933D+03
 0.241504705833241D+03 0.000000000000000D+00 0.000000000000000D+00 -.241504705833241D+03
 0.163215389104975D+03 -.901991278145174D+02 0.478560383819194D+02 -.242524261173384D+02
 0.107119974532323D+03 0.268731024850324D+02 0.635731728023904D+02 -.156128489424998D+02
 0.113351535471787D+03 0.212148854642220D+02 -.103600926852995D+03 -.408086655473080D+02
 0.585138470100899D+02 0.421111398652631D+02 -.782828433131470D+01 0.398652750598381D+02
0.140516531910D-03 0.000000000000D+00 0.000000000000D+00 0.862700186303D-05 0.000000000000D+00  6 2 -1 25 24 21 21 2 0.82766006D-02 0.69318243D-01 0.21759020D+05 0.21759020D+05 0.21759020D+05 0.12298159D+01  1  2  2  2  6  2       -1 0.420990557812D-01 0.100000000000D+01
-.668710067935D-06 0.741526111167D-05 -.539620481386D-06 0.862700186303D-05 0.000000000000D+00  6 2 -1 25 24 21 21 4 0.82766006D-02 0.69318243D-01 0.21759020D+05 0.21759020D+05 0.21759020D+05 0.12298159D+01  1  2  3  2  6  2       -1 -.303014225662D-03 0.100000000000D+01
0.774864360865D-05 0.000000000000D+00 0.000000000000D+00 0.862700186303D-05 0.000000000000D+00  6 2 -1 25 24 21 21 4 0.82766006D-02 0.69318243D-01 0.21759020D+05 0.21759020D+05 0.21759020D+05 0.12298159D+01  1  2 15  2  6  2       -1 0.351116179581D-02 0.100000000000D+01
-.431888404020D-04 0.000000000000D+00 0.000000000000D+00 0.862700186303D-05 0.000000000000D+00  6 2 -1 25 24 21 21 4 0.82766006D-02 0.69318243D-01 0.21759020D+05 0.21759020D+05 0.21759020D+05 0.12298159D+01  1  2  4  2  6  2       -1 -.195702646919D-01 0.100000000000D+01
-.914372870773D-04 0.000000000000D+00 -.708635876012D-04 0.862700186303D-05 0.000000000000D+00  6 2 -1 25 24 21 21 4 0.82766006D-02 0.13058814D+00 0.21759020D+05 0.21759020D+05 0.21759020D+05 0.12298159D+01  1  2  5  2  6  2       -1 -.104282077601D-01 0.100000000000D+01
0.122986564568D-03 0.000000000000D+00 0.586932828250D-04 0.862700186303D-05 0.000000000000D+00  6 2 -1 25 24 21 21 4 0.82766006D-02 0.69318243D-01 0.21759020D+05 0.21759020D+05 0.21759020D+05 0.12298159D+01  1  2  6  2  6  2       -1 0.557292022604D-01 0.100000000000D+01
-.229282041794D-05 0.000000000000D+00 -.488209042189D-05 0.862700186303D-05 0.000000000000D+00  6 2 21 25 24 1 21 4 0.82766006D-02 0.13058814D+00 0.21759020D+05 0.21759020D+05 0.21759020D+05 0.12298159D+01  3  4  5  5  5  2       -1 -.223817736348D-02 0.100000000000D+01
  </mgrwgt>
  </event>
  <event>
  5     66 -.46179844E-03 0.27814815E+02 0.75467711E-02 0.11336093E+00
        2 -1    0    0  502    0 0.00000000E+00 0.00000000E+00 0.67947147E+03 0.67947154E+03 0.32000000E+00 0.0000E+00 0.9000E+01
       -1 -1    0    0    0  501 0.00000000E+00 0.00000000E+00 -.86596116E+02 0.86596708E+02 0.32000000E+00 0.0000E+00 0.9000E+01
       25  1    1    2    0    0 0.13808225E+03 0.94350712E+02 0.26254685E+03 0.33544688E+03 0.12500000E+03 0.0000E+00 0.9000E+01
       24  1    1    2    0    0 -.16531928E+03 -.88718714E+02 0.34370297E+03 0.39975045E+03 0.80419002E+02 0.0000E+00 0.9000E+01
       21  1    1    2  502  501 0.27237027E+02 -.56319979E+01 -.13374462E+02 0.30870921E+02 0.75000000E+00 0.0000E+00 0.9000E+01
#aMCatNLO 1  0  0  5  2 0.58225757D+01 0.00000000D+00  -5  6  0 0.00000000D+00 0.00000000D+00 0.00000000D+00 0.00000000D+00 0.00000000D+00
  <mgrwgt>
 -.3773722226D+00   20    2    0
 0.242569259531603D+03 0.000000000000000D+00 0.000000000000000D+00 0.242569259531603D+03
 0.242569259531603D+03 -.000000000000000D+00 -.000000000000000D+00 -.242569259531603D+03
 0.208842326612590D+03 0.138081472671870D+03 0.943508731560356D+02 0.464079997640675D+01
 0.211204802899006D+03 -.165320064784826D+03 -.887185515746555D+02 0.542083720404314D+02
 0.650913895516099D+02 0.272385921129551D+02 -.563232158138015D+01 -.588491720168382D+02
 0.000000000000000D+00 0.000000000000000D+00 0.000000000000000D+00 -.000000000000000D+00
 0.242569259531603D+03 0.000000000000000D+00 0.000000000000000D+00 0.242569259531603D+03
 0.242569259531603D+03 -.000000000000000D+00 -.000000000000000D+00 -.242569259531603D+03
 0.208941032022039D+03 0.138270487900837D+03 0.943117891039340D+02 0.423243122969875D+01
 0.210966332637840D+03 -.165129064420169D+03 -.887580461076858D+02 0.537957143939447D+02
 0.325252838567655D+02 0.186192092632201D+02 -.166931872804955D+01 -.266163955365818D+02
 0.327058705465620D+02 0.823936725611196D+01 -.388442426819858D+01 -.314117500870616D+02
0.118542134772D-03 0.000000000000D+00 0.000000000000D+00 0.215924825863D-04 0.000000000000D+00  6 2 -1 25 24 21 21 2 0.10453412D+00 0.13322531D-01 0.48561888D+05 0.48561888D+05 0.48561888D+05 0.11935390D+01  1  2  2  3  6  5       21 0.323561178781D-01 0.100000000000D+01
0.244559962186D-04 0.625564031593D-05 -.455233010385D-06 0.215924825863D-04 0.000000000000D+00  6 2 -1 25 24 21 21 4 0.10453412D+00 0.13322531D-01 0.48561888D+05 0.48561888D+05 0.48561888D+05 0.11935390D+01  1  2  3  3  6  5       21 0.950916254523D-02 0.100000000000D+01
0.177200480213D-05 0.000000000000D+00 0.000000000000D+00 0.215924825863D-04 0.000000000000D+00  6 2 -1 25 24 21 21 4 0.10453412D+00 0.13322531D-01 0.48561888D+05 0.48561888D+05 0.48561888D+05 0.11935390D+01  1  2 15  3  6  5       21 0.689004101234D-03 0.100000000000D+01
0.254797433896D-03 0.000000000000D+00 0.000000000000D+00 0.215927793485D-04 0.000000000000D+00  6 2 -1 25 24 21 21 4 0.10453412D+00 0.13322531D-01 0.48552659D+05 0.48552659D+05 0.48552659D+05 0.11935472D+01  1  2 12  3  6  5       21 0.990748329810D-01 0.100000000000D+01
0.243669794307D-03 0.000000000000D+00 0.000000000000D+00 0.215927793485D-04 0.000000000000D+00  6 2 -1 25 24 21 21 4 0.10453412D+00 0.13322531D-01 0.48552659D+05 0.48552659D+05 0.48552659D+05 0.11935472D+01  1  2 12  3  6  5       21 0.947479878596D-01 0.100000000000D+01
-.247307681390D-02 0.000000000000D+00 0.000000000000D+00 0.215924825863D-04 0.000000000000D+00  6 2 -1 25 24 21 21 4 0.10453412D+00 0.13322531D-01 0.48561888D+05 0.48561888D+05 0.48561888D+05 0.11935390D+01  1  2  4  3  6  5       21 -.961600140920D+00 0.100000000000D+01
-.731826931972D-03 0.000000000000D+00 0.000000000000D+00 0.215924825863D-04 0.000000000000D+00  6 2 -1 25 24 21 21 4 0.10453412D+00 0.13322531D-01 0.48561888D+05 0.48561888D+05 0.48561888D+05 0.11935390D+01  1  2  5  3  6  5       21 -.284554396757D+00 0.100000000000D+01
0.159316289831D-02 0.000000000000D+00 -.000000000000D+00 0.215924825863D-04 0.000000000000D+00  6 2 -1 25 24 21 21 4 0.10453412D+00 0.13322531D-01 0.48561888D+05 0.48561888D+05 0.48561888D+05 0.11935390D+01  1  2  6  3  6  5       21 0.619465460561D+00 0.100000000000D+01
0.817843963715D-05 0.000000000000D+00 0.000000000000D+00 0.215927793485D-04 0.000000000000D+00  6 2 -1 25 24 1 -1 4 0.10453412D+00 0.13322531D-01 0.48552659D+05 0.48552659D+05 0.48552659D+05 0.11935472D+01  1  2 12  6  6  5       21 0.318008517082D-02 0.100000000000D+01
0.782126857109D-05 0.000000000000D+00 0.000000000000D+00 0.215927793485D-04 0.000000000000D+00  6 2 -1 25 24 1 -1 4 0.10453412D+00 0.13322531D-01 0.48552659D+05 0.48552659D+05 0.48552659D+05 0.11935472D+01  1  2 12  6  6  5       21 0.304120361627D-02 0.100000000000D+01
-.768040306991D-05 0.000000000000D+00 0.000000000000D+00 0.215924825863D-04 0.000000000000D+00  6 2 -1 25 24 1 -1 4 0.10453412D+00 0.13322531D-01 0.48561888D+05 0.48561888D+05 0.48561888D+05 0.11935390D+01  1  2  5  6  6  5       21 -.298635150871D-02 0.100000000000D+01
0.817843963715D-05 0.000000000000D+00 0.000000000000D+00 0.215927793485D-04 0.000000000000D+00  6 2 -1 25 24 2 -2 4 0.10453412D+00 0.13322531D-01 0.48552659D+05 0.48552659D+05 0.48552659D+05 0.11935472D+01  1  2 12  7  6  5       21 0.318008517082D-02 0.100000000000D+01
0.782126857109D-05 0.000000000000D+00 0.000000000000D+00 0.215927793485D-04 0.000000000000D+00  6 2 -1 25 24 2 -2 4 0.10453412D+00 0.13322531D-01 0.48552659D+05 0.48552659D+05 0.48552659D+05 0.11935472D+01  1  2 12  7  6  5       21 0.304120361627D-02 0.100000000000D+01
-.768040306991D-05 0.000000000000D+00 0.000000000000D+00 0.215924825863D-04 0.000000000000D+00  6 2 -1 25 24 2 -2 4 0.10453412D+00 0.13322531D-01 0.48561888D+05 0.48561888D+05 0.48561888D+05 0.11935390D+01  1  2  5  7  6  5       21 -.298635150871D-02 0.100000000000D+01
0.817843963715D-05 0.000000000000D+00 0.000000000000D+00 0.215927793485D-04 0.000000000000D+00  6 2 -1 25 24 3 -3 4 0.10453412D+00 0.13322531D-01 0.48552659D+05 0.48552659D+05 0.48552659D+05 0.11935472D+01  1  2 12  8  6  5       21 0.318008517082D-02 0.100000000000D+01
0.817843963715D-05 0.000000000000D+00 0.000000000000D+00 0.215927793485D-04 0.000000000000D+00  6 2 -1 25 24 4 -4 4 0.10453412D+00 0.13322531D-01 0.48552659D+05 0.48552659D+05 0.48552659D+05 0.11935472D+01  1  2 12  8  6  5       21 0.318008517082D-02 0.100000000000D+01
0.782126857109D-05 0.000000000000D+00 0.000000000000D+00 0.215927793485D-04 0.000000000000D+00  6 2 -1 25 24 3 -3 4 0.10453412D+00 0.13322531D-01 0.48552659D+05 0.48552659D+05 0.48552659D+05 0.11935472D+01  1  2 12  8  6  5       21 0.304120361627D-02 0.100000000000D+01
0.782126857109D-05 0.000000000000D+00 0.000000000000D+00 0.215927793485D-04 0.000000000000D+00  6 2 -1 25 24 4 -4 4 0.10453412D+00 0.13322531D-01 0.48552659D+05 0.48552659D+05 0.48552659D+05 0.11935472D+01  1  2 12  8  6  5       21 0.304120361627D-02 0.100000000000D+01
-.768040306991D-05 0.000000000000D+00 0.000000000000D+00 0.215924825863D-04 0.000000000000D+00  6 2 -1 25 24 3 -3 4 0.10453412D+00 0.13322531D-01 0.48561888D+05 0.48561888D+05 0.48561888D+05 0.11935390D+01  1  2  5  8  6  5       21 -.298635150871D-02 0.100000000000D+01
-.768040306991D-05 0.000000000000D+00 0.000000000000D+00 0.215924825863D-04 0.000000000000D+00  6 2 -1 25 24 4 -4 4 0.10453412D+00 0.13322531D-01 0.48561888D+05 0.48561888D+05 0.48561888D+05 0.11935390D+01  1  2  5  8  6  5       21 -.298635150871D-02 0.100000000000D+01
  </mgrwgt>
  </event>
  <event>
  6     66 0.46179844E-03 0.79383933E+02 0.75467711E-02 0.11709719E+00
        4 -1    0    0  502    0 0.00000000E+00 0.00000000E+00 0.74380830E+02 0.74396978E+02 0.15500000E+01 0.0000E+00 0.9000E+01
       -3 -1    0    0    0  501 -.00000000E+00 -.00000000E+00 -.82514015E+03 0.82514030E+03 0.50000000E+00 0.0000E+00 0.9000E+01
       25  1    1    2    0    0 -.60365195E+02 -.63489696E+02 -.40842690E+02 0.15801273E+03 0.12500000E+03 0.0000E+00 0.9000E+01
       24  1    1    2    0    0 0.42373677E+02 -.34830838E+01 -.20233494E+03 0.22184297E+03 0.80419002E+02 0.0000E+00 0.9000E+01
        4  1    1    2  502    0 -.99839915E+01 -.18421909E+02 -.11913280E+03 0.12097137E+03 0.15500000E+01 0.0000E+00 0.9000E+01
       -4  1    1    2    0  501 0.27975510E+02 0.85394689E+02 -.38844890E+03 0.39871021E+03 0.15500000E+01 0.0000E+00 0.9000E+01
#aMCatNLO 2  0  0  5  1 0.32212812D+02 0.00000000D+00  -5  6  0 0.00000000D+00 0.00000000D+00 0.00000000D+00 0.00000000D+00 0.00000000D+00
  <mgrwgt>
 0.1161514515D-03    2    2    0
 0.247753790233418D+03 0.000000000000000D+00 0.000000000000000D+00 0.247753790233418D+03
 0.247753790233418D+03 -.000000000000000D+00 -.000000000000000D+00 -.247753790233418D+03
 0.234061214573239D+03 -.616898475068167D+02 -.684206663895914D+02 0.175136025114451D+03
 0.947669635120689D+02 0.418226917538831D+02 -.553410500541606D+01 -.270886979232294D+02
 0.166679402381529D+03 0.198671557529336D+02 0.739547713950074D+02 -.148047327191222D+03
 0.000000000000000D+00 0.000000000000000D+00 0.000000000000000D+00 0.000000000000000D+00
 0.247753790233418D+03 0.000000000000000D+00 0.000000000000000D+00 0.247753790233418D+03
 0.247753790233418D+03 -.000000000000000D+00 -.000000000000000D+00 -.247753790233418D+03
 0.225359798510993D+03 -.604222626754285D+02 -.637021275310406D+02 0.165690156334394D+03
 0.961002509280137D+02 0.423493119539679D+02 -.357378028689093D+01 -.310129996218230D+02
 0.372192062006952D+02 -.962366461797413D+01 -.178600756733695D+02 -.312037191128258D+02
 0.136828324827135D+03 0.276966153394347D+02 0.851359834913010D+02 -.103473437599745D+03
-.110342996062D-04 0.000000000000D+00 0.000000000000D+00 0.370826881825D-05 0.000000000000D+00  6 4 -3 25 24 4 -4 4 0.11444458D-01 0.12694589D+00 0.31245569D+05 0.31245569D+05 0.31245569D+05 0.12130485D+01  1  2 13  7  6  5       21 -.153389787519D-03 0.100000000000D+01
0.193898096872D-04 0.000000000000D+00 0.000000000000D+00 0.375965280714D-05 0.517700955189D-09  6 4 -3 25 24 4 -4 4 0.11444458D-01 0.12694589D+00 0.31245569D+05 0.31245569D+05 0.31245569D+05 0.12130485D+01  1  2  1  7  6  5       21 0.269541239053D-03 0.100000000000D+01
  </mgrwgt>
  </event>
  <event>
  6     66 -.46179844E-03 0.21491074E+02 0.75467711E-02 0.11634287E+00
        2 -1    0    0  502    0 0.00000000E+00 0.00000000E+00 0.16012451E+04 0.16012452E+04 0.32000000E+00 0.0000E+00 0.9000E+01
       -1 -1    0    0    0  501 0.00000000E+00 0.00000000E+00 -.25233505E+02 0.25235534E+02 0.32000000E+00 0.0000E+00 0.9000E+01
       25  1    1    2    0    0 -.12536635E+03 0.77465920E+02 0.54845482E+03 0.58150269E+03 0.12500000E+03 0.0000E+00 0.9000E+01
       24  1    1    2    0    0 0.11491603E+03 -.56444446E+02 0.97671959E+03 0.98835219E+03 0.80419002E+02 0.0000E+00 0.9000E+01
       21  1    1    2  502  503 0.66278075E+01 -.19443410E+02 0.39380599E+02 0.44422608E+02 0.75000000E+00 0.0000E+00 0.9000E+01
       21  1    1    2  503  501 0.38225064E+01 -.15780644E+01 0.11456622E+02 0.12203218E+02 0.75000000E+00 0.0000E+00 0.9000E+01
#aMCatNLO 2  0  0  5  1 0.29053748D+01 0.00000000D+00  -5  6  0 0.00000000D+00 0.00000000D+00 0.00000000D+00 0.00000000D+00 0.00000000D+00
  <mgrwgt>
 -.1451451872D-02    4    2    0
 0.201014187837185D+03 0.000000000000000D+00 0.000000000000000D+00 0.201014187837185D+03
 0.201014187837185D+03 -.000000000000000D+00 -.000000000000000D+00 -.201014187837185D+03
 0.202759466124470D+03 -.125590620331997D+03 0.779170628022952D+02 -.603517067858677D+02
 0.169556362315369D+03 0.114728321924999D+03 -.560668550245509D+02 0.773050060680420D+02
 0.297125472345312D+02 0.108622984069985D+02 -.218502077777443D+02 -.169532992821743D+02
 0.000000000000000D+00 0.000000000000000D+00 0.000000000000000D+00 0.000000000000000D+00
 0.201014187837185D+03 0.000000000000000D+00 0.000000000000000D+00 0.201014187837185D+03
 0.201014187837185D+03 -.000000000000000D+00 -.000000000000000D+00 -.201014187837185D+03
 0.202551449581007D+03 -.125365537857913D+03 0.774642950139691D+02 -.607030035743878D+02
 0.169675827318534D+03 0.114916708710484D+03 -.564458070889487D+02 0.770109819641670D+02
 0.252628712854990D+02 0.647769411914147D+01 -.194253864413142D+02 -.147954893833269D+02
 0.453822748933058D+01 0.397113502828724D+01 -.159310148370626D+01 -.151248900645222D+01
-.799538536958D-06 0.000000000000D+00 0.000000000000D+00 0.253745491730D-04 0.000000000000D+00  6 2 -1 25 24 21 21 4 0.24634556D+00 0.38822363D-02 0.34075260D+05 0.34075260D+05 0.34075260D+05 0.12091351D+01  1  2 13  3  6  5       21 -.600956169211D-03 0.100000000000D+01
-.769546627819D-06 0.000000000000D+00 0.000000000000D+00 0.253745491730D-04 0.000000000000D+00  6 2 -1 25 24 21 21 4 0.24634556D+00 0.38822363D-02 0.34075260D+05 0.34075260D+05 0.34075260D+05 0.12091351D+01  1  2 13  3  6  5       21 -.578413387356D-03 0.100000000000D+01
-.160790966209D-04 0.000000000000D+00 0.000000000000D+00 0.253777261974D-04 0.000000000000D+00  6 2 -1 25 24 21 21 4 0.24634556D+00 0.38822363D-02 0.34017890D+05 0.34017890D+05 0.34017890D+05 0.12092108D+01  1  2  8  3  6  5       21 -.120884593409D-01 0.100000000000D+01
0.157210280603D-04 0.000000000000D+00 0.000000000000D+00 0.253777261974D-04 0.165239502279D-04  6 2 -1 25 24 21 21 4 0.24634556D+00 0.38822363D-02 0.34075260D+05 0.34075260D+05 0.34075260D+05 0.12091351D+01  1  2  1  3  6  5       21 0.118163770256D-01 0.100000000000D+01
  </mgrwgt>
  </event>
  <event>
  5     66 0.46179844E-03 0.20476034E+02 0.75467711E-02 0.99523742E-01
        2 -1    0    0  502    0 0.00000000E+00 0.00000000E+00 0.19793513E+04 0.19793514E+04 0.32000000E+00 0.0000E+00 0.9000E+01
       -1 -1    0    0    0  501 0.00000000E+00 0.00000000E+00 -.49062510E+02 0.49063553E+02 0.32000000E+00 0.0000E+00 0.9000E+01
       25  1    1    2    0    0 -.21756828E+02 0.23983629E+03 0.14359380E+04 0.14613480E+04 0.12500000E+03 0.0000E+00 0.9000E+01
       24  1    1    2    0    0 0.16324285E+01 -.24354588E+03 0.44478097E+03 0.51343411E+03 0.80419002E+02 0.0000E+00 0.9000E+01
       21  1    1    2  502  501 0.20124400E+02 0.37095947E+01 0.49569812E+02 0.53632838E+02 0.75000000E+00 0.0000E+00 0.9000E+01
#aMCatNLO 1  0  0  2  1 0.35744797D+02 0.00000000D+00  -5  6  0 0.00000000D+00 0.00000000D+00 0.00000000D+00 0.00000000D+00 0.00000000D+00
  <mgrwgt>
 0.4898894579D+01    5    4    0
 0.311629633662026D+03 0.000000000000000D+00 0.000000000000000D+00 0.311629633662026D+03
 0.311629633662026D+03 0.000000000000000D+00 0.000000000000000D+00 -.311629633662026D+03
 0.308771990064322D+03 -.217631761355214D+02 0.239835116301514D+03 0.147379181031158D+03
 0.293460212172141D+03 0.162639544164266D+01 -.243546993172239D+03 -.142596974471326D+03
 0.210270650875888D+02 0.201367806938788D+02 0.371187687072482D+01 -.478220655983245D+01
 0.000000000000000D+00 0.000000000000000D+00 0.000000000000000D+00 -.000000000000000D+00
 0.598399792002520D+03 0.000000000000000D+00 0.000000000000000D+00 0.598399792002520D+03
 0.639204025492384D+03 0.000000000000000D+00 0.000000000000000D+00 -.639204025492384D+03
 0.209878970439044D+03 -.421871791632724D+02 0.701698022327558D+02 0.147379181031158D+03
 0.543542187556951D+03 -.313339976707323D+02 -.517354015313904D+03 -.142596974471326D+03
 0.216452690758809D+02 0.184563829919058D+02 -.102474436149935D+02 -.478220655983245D+01
 0.462537390423029D+03 0.550647938420988D+02 0.457431656696142D+03 -.408042334898640D+02
 0.311629633662026D+03 0.000000000000000D+00 0.000000000000000D+00 0.311629633662026D+03
 0.311629633662026D+03 0.000000000000000D+00 0.000000000000000D+00 -.311629633662026D+03
 0.308771990064322D+03 -.217631761355214D+02 0.239835116301514D+03 0.147379181031158D+03
 0.293460212172141D+03 0.162639544164266D+01 -.243546993172239D+03 -.142596974471326D+03
 0.000000000000000D+00 0.000000000000000D+00 0.000000000000000D+00 -.000000000000000D+00
 0.210270650875888D+02 0.201367806938788D+02 0.371187687072482D+01 -.478220655983245D+01
 0.598399792002520D+03 0.000000000000000D+00 0.000000000000000D+00 0.598399792002520D+03
 0.639204025492384D+03 0.000000000000000D+00 0.000000000000000D+00 -.639204025492384D+03
 0.209878970439044D+03 -.421871791632724D+02 0.701698022327558D+02 0.147379181031158D+03
 0.543542187556951D+03 -.313339976707323D+02 -.517354015313904D+03 -.142596974471326D+03
 0.462537390423029D+03 0.550647938420988D+02 0.457431656696142D+03 -.408042334898640D+02
 0.216452690758809D+02 0.184563829919058D+02 -.102474436149935D+02 -.478220655983245D+01
0.216532060525D-01 0.000000000000D+00 0.000000000000D+00 0.273173957394D-04 0.000000000000D+00  6 2 -1 25 24 21 21 2 0.30451567D+00 0.75481607D-02 0.75155774D+05 0.75155774D+05 0.75155774D+05 0.11751410D+01  1  2  2  2  6  2       -1 0.244056260326D+01 0.100000000000D+01
0.110590752792D-01 0.114267107651D-02 -.831540126618D-04 0.273173957394D-04 0.000000000000D+00  6 2 -1 25 24 21 21 4 0.30451567D+00 0.75481607D-02 0.75155774D+05 0.75155774D+05 0.75155774D+05 0.11751410D+01  1  2  3  2  6  2       -1 0.172133942038D+01 0.100000000000D+01
-.483117425139D-03 0.000000000000D+00 0.000000000000D+00 0.273173957394D-04 0.000000000000D+00  6 2 -1 25 24 21 21 4 0.30451567D+00 0.75481607D-02 0.75155774D+05 0.75155774D+05 0.75155774D+05 0.11751410D+01  1  2 15  2  6  2       -1 -.751969805400D-01 0.100000000000D+01
0.265626415858D-01 0.000000000000D+00 -.151643824286D-01 0.273173957394D-04 0.000000000000D+00  6 2 -1 25 24 21 21 4 0.30451567D+00 0.39471995D-01 0.75155774D+05 0.75155774D+05 0.75155774D+05 0.11751410D+01  1  2  5  2  6  2       -1 0.281038586829D+00 0.100000000000D+01
0.480655848148D-02 0.000000000000D+00 -.306450926295D-02 0.273173957394D-04 0.000000000000D+00  6 2 21 25 24 1 21 4 0.30451567D+00 0.39471995D-01 0.75155774D+05 0.75155774D+05 0.75155774D+05 0.11751410D+01  3  4  5  5  5  2       -1 0.531150949406D+00 0.100000000000D+01
  </mgrwgt>
  </event>
  <event>
  6     66 -.46179844E-03 0.72739852E+02 0.75467711E-02 0.11695525E+00
        2 -1    0    0  502    0 0.00000000E+00 0.00000000E+00 0.48703135E+04 0.48703135E+04 0.32000000E+00 0.0000E+00 0.9000E+01
       -1 -1    0    0    0  503 0.00000000E+00 0.00000000E+00 -.10919792E+03 0.10919839E+03 0.32000000E+00 0.0000E+00 0.9000E+01
       25  1    1    2    0    0 -.46582481E+02 -.53420505E+02 0.21269198E+04 0.21317684E+04 0.12500000E+03 0.0000E+00 0.9000E+01
       24  1    1    2    0    0 0.98877199E+02 0.89116084E+01 0.27221771E+04 0.27251736E+04 0.80419002E+02 0.0000E+00 0.9000E+01
       21  1    1    2  502  501 -.58594774E+02 0.49662392E+02 -.75925748E+02 0.10800455E+03 0.75000000E+00 0.0000E+00 0.9000E+01
       21  1    1    2  501  503 0.63000559E+01 -.51534960E+01 -.12055552E+02 0.14565303E+02 0.75000000E+00 0.0000E+00 0.9000E+01
#aMCatNLO 2  0  0  2  5 0.81393627D+01 0.00000000D+00  -5  6  0 0.00000000D+00 0.00000000D+00 0.00000000D+00 0.00000000D+00 0.00000000D+00
  <mgrwgt>
 -.1943366967D+00    2    2    0
 0.683276255707300D+03 0.000000000000000D+00 0.000000000000000D+00 0.683276255707300D+03
 0.683276255707300D+03 0.000000000000000D+00 0.000000000000000D+00 -.683276255707300D+03
 0.316084465285492D+03 -.451252608757187D+02 -.546125224232252D+02 0.281541422210457D+03
 0.393326786601741D+03 0.100689511644647D+03 0.742912195931761D+01 0.371544311618085D+03
 0.657141259527368D+03 -.555642507689286D+02 0.471834004639076D+02 -.653085733828542D+03
 0.000000000000000D+00 0.000000000000000D+00 -.000000000000000D+00 -.000000000000000D+00
 0.683462995993033D+03 0.000000000000000D+00 0.000000000000000D+00 0.683462995993033D+03
 0.778135744015527D+03 0.000000000000000D+00 0.000000000000000D+00 -.778135744015527D+03
 0.316092154652417D+03 -.465824726088293D+02 -.534205115865484D+02 0.281541422210457D+03
 0.392897582735935D+03 0.988772089752305D+02 0.891160001806323D+01 0.371544311618085D+03
 0.657587013357423D+03 -.585947922421139D+02 0.496624075944117D+02 -.653085733828542D+03
 0.950219892627852D+02 0.630005587571262D+01 -.515349602592662D+01 -.946727480224934D+02
-.968522365100D+00 0.000000000000D+00 0.000000000000D+00 0.466428983452D-04 0.000000000000D+00  6 2 -1 25 24 21 21 4 0.74907269D+00 0.17494012D-01 0.31756698D+05 0.31756698D+05 0.31756698D+05 0.12123131D+01  1  2 13  2  6  2       -1 -.473078375957D+00 0.100000000000D+01
0.536784342051D+00 0.000000000000D+00 0.000000000000D+00 0.468574723992D-04 0.124741289192D-05  6 2 -1 25 24 21 21 4 0.74927742D+00 0.16799680D-01 0.31756698D+05 0.31756698D+05 0.31756698D+05 0.12123131D+01  1  2  1  2  6  2       -1 0.278741679263D+00 0.100000000000D+01
  </mgrwgt>
  </event>
  <event>
  5     66 0.46179844E-03 0.25480359E+03 0.75467711E-02 0.10040094E+00
        2 -1    0    0  502    0 0.00000000E+00 0.00000000E+00 0.23123885E+03 0.23123908E+03 0.32000000E+00 0.0000E+00 0.9000E+01
       -1 -1    0    0    0  501 0.00000000E+00 0.00000000E+00 -.93678699E+03 0.93678705E+03 0.32000000E+00 0.0000E+00 0.9000E+01
       25  1    1    2    0    0 0.19035747E+03 -.19066364E+03 -.15709044E+03 0.33599255E+03 0.12500000E+03 0.0000E+00 0.9000E+01
       24  1    1    2    0    0 0.13842698E+03 -.89023513E+02 -.23799756E+03 0.30032860E+03 0.80419002E+02 0.0000E+00 0.9000E+01
       21  1    1    2  502  501 -.32878445E+03 0.27968715E+03 -.31046013E+03 0.53170497E+03 0.75000000E+00 0.0000E+00 0.9000E+01
#aMCatNLO 1  0  0  2  5 0.15234227D+03 0.00000000D+00  -5  6  0 0.00000000D+00 0.00000000D+00 0.00000000D+00 0.00000000D+00 0.00000000D+00
  <mgrwgt>
 0.8467996082D-02    9    4    0
 0.465426377083475D+03 0.000000000000000D+00 0.000000000000000D+00 0.465426377083475D+03
 0.465426377083475D+03 0.000000000000000D+00 0.000000000000000D+00 -.465426377083475D+03
 0.302532683194923D+03 0.190357628381520D+03 -.190663773199491D+03 0.575527871385577D+02
 0.196457523015624D+03 0.138427087191092D+03 -.890236023465472D+02 -.710005785335422D+02
 0.431862547956403D+03 -.328784715572611D+03 0.279687375546038D+03 0.134477913949845D+02
 0.000000000000000D+00 -.000000000000000D+00 0.000000000000000D+00 -.000000000000000D+00
 0.517971630687568D+03 0.000000000000000D+00 0.000000000000000D+00 0.517971630687568D+03
 0.596787935088066D+03 0.000000000000000D+00 0.000000000000000D+00 -.596787935088066D+03
 0.342351029793862D+03 0.198759505552488D+03 -.242407844852496D+03 0.575527871385577D+02
 0.217083259979163D+03 0.143814909513050D+03 -.122205218622061D+03 -.710005785335422D+02
 0.383802168631309D+03 -.318157815523141D+03 0.214240206250452D+03 0.134477913949845D+02
 0.171523107371301D+03 -.244165995423979D+02 0.150372857224105D+03 -.788163044004977D+02
 0.465426377083475D+03 0.000000000000000D+00 0.000000000000000D+00 0.465426377083475D+03
 0.465426377083475D+03 0.000000000000000D+00 0.000000000000000D+00 -.465426377083475D+03
 0.302532683194923D+03 0.190357628381520D+03 -.190663773199491D+03 0.575527871385577D+02
 0.196457523015624D+03 0.138427087191092D+03 -.890236023465472D+02 -.710005785335422D+02
 0.000000000000000D+00 -.000000000000000D+00 0.000000000000000D+00 -.000000000000000D+00
 0.431862547956403D+03 -.328784715572611D+03 0.279687375546038D+03 0.134477913949845D+02
 0.517971630687568D+03 0.000000000000000D+00 0.000000000000000D+00 0.517971630687568D+03
 0.596787935088066D+03 0.000000000000000D+00 0.000000000000000D+00 -.596787935088066D+03
 0.342351029793862D+03 0.198759505552488D+03 -.242407844852496D+03 0.575527871385577D+02
 0.217083259979163D+03 0.143814909513050D+03 -.122205218622061D+03 -.710005785335422D+02
 0.171523107371301D+03 -.244165995423979D+02 0.150372857224105D+03 -.788163044004977D+02
 0.383802168631309D+03 -.318157815523141D+03 0.214240206250452D+03 0.134477913949845D+02
0.696931830022D-03 0.000000000000D+00 0.000000000000D+00 0.371466858542D-06 0.000000000000D+00  6 2 -1 25 24 21 21 2 0.35575230D-01 0.14412110D+00 0.20786298D+06 0.20786298D+06 0.20786298D+06 0.11354618D+01  1  2  2  2  6  2       -1 0.612158273671D-02 0.100000000000D+01
-.849619656877D-04 0.367781030916D-04 -.267640173365D-05 0.371466858542D-06 0.000000000000D+00  6 2 -1 25 24 21 21 4 0.35575230D-01 0.14412110D+00 0.20786298D+06 0.20786298D+06 0.20786298D+06 0.11354618D+01  1  2  3  2  6  2       -1 -.962150511803D-03 0.100000000000D+01
0.397456568718D-04 0.000000000000D+00 0.000000000000D+00 0.371466858542D-06 0.000000000000D+00  6 2 -1 25 24 21 21 4 0.35575230D-01 0.14412110D+00 0.20786298D+06 0.20786298D+06 0.20786298D+06 0.11354618D+01  1  2 15  2  6  2       -1 0.450099097774D-03 0.100000000000D+01
0.660489154350D-03 0.000000000000D+00 0.000000000000D+00 0.363515300822D-06 0.000000000000D+00  6 2 -1 25 24 21 21 4 0.35575230D-01 0.19991913D+00 0.29080756D+06 0.29080756D+06 0.29080756D+06 0.11232433D+01  1  2 12  2  6  2       -1 0.279191542895D-02 0.100000000000D+01
-.927355364217D-03 0.000000000000D+00 0.000000000000D+00 0.371466858542D-06 0.000000000000D+00  6 2 -1 25 24 21 21 4 0.35575230D-01 0.14412110D+00 0.20786298D+06 0.20786298D+06 0.20786298D+06 0.11354618D+01  1  2  4  2  6  2       -1 -.105018219751D-01 0.100000000000D+01
-.157797158501D-02 0.000000000000D+00 -.491437560135D-03 0.371466858542D-06 0.000000000000D+00  6 2 -1 25 24 21 21 4 0.35575230D-01 0.19692466D+00 0.20786298D+06 0.20786298D+06 0.20786298D+06 0.11354618D+01  1  2  5  2  6  2       -1 -.738747928770D-02 0.100000000000D+01
0.167224920543D-02 0.000000000000D+00 0.468427830809D-03 0.371466858542D-06 0.000000000000D+00  6 2 -1 25 24 21 21 4 0.35575230D-01 0.14412110D+00 0.20786298D+06 0.20786298D+06 0.20786298D+06 0.11354618D+01  1  2  6  2  6  2       -1 0.189373611573D-01 0.100000000000D+01
0.271837775131D-04 0.000000000000D+00 0.000000000000D+00 0.363515300822D-06 0.000000000000D+00  6 2 21 25 24 1 21 4 0.35575230D-01 0.19991913D+00 0.29080756D+06 0.29080756D+06 0.29080756D+06 0.11232433D+01  3  4 12  5  5  2       -1 0.885824909225D-03 0.100000000000D+01
-.510578797168D-04 0.000000000000D+00 -.195496170150D-04 0.371466858542D-06 0.000000000000D+00  6 2 21 25 24 1 21 4 0.35575230D-01 0.19692466D+00 0.20786298D+06 0.20786298D+06 0.20786298D+06 0.11354618D+01  3  4  5  5  5  2       -1 -.186733547302D-02 0.100000000000D+01
  </mgrwgt>
  </event>
  <event>
  6     66 0.46179844E-03 0.45526115E+02 0.75467711E-02 0.11332998E+00
        2 -1    0    0  502    0 0.00000000E+00 0.00000000E+00 0.17109541E+04 0.17109542E+04 0.32000000E+00 0.0000E+00 0.9000E+01
       21 -1    0    0  503  501 0.00000000E+00 0.00000000E+00 -.37037942E+02 0.37045535E+02 0.75000000E+00 0.0000E+00 0.9000E+01
       25  1    1    2    0    0 0.12018739E+03 0.16038509E+01 0.63973390E+03 0.66282127E+03 0.12500000E+03 0.0000E+00 0.9000E+01
       24  1    1    2    0    0 -.92651244E+02 -.75271843E+02 0.81970639E+03 0.83224749E+03 0.80419002E+02 0.0000E+00 0.9000E+01
        1  1    1    2  503    0 0.35222283E+02 0.38879197E+02 0.14000971E+03 0.14951596E+03 0.32000000E+00 0.0000E+00 0.9000E+01
       21  1    1    2  502  501 -.62758428E+02 0.34788795E+02 0.74466198E+02 0.10341498E+03 0.75000000E+00 0.0000E+00 0.9000E+01
#aMCatNLO 2  0  0  2  5 0.52461425D+02 0.00000000D+00  -5  6  0 0.00000000D+00 0.00000000D+00 0.00000000D+00 0.00000000D+00 0.00000000D+00
  <mgrwgt>
 0.1898579969D-01    1    2    0
 0.223343325161986D+03 0.000000000000000D+00 0.000000000000000D+00 0.223343325161986D+03
 0.223343325161986D+03 0.000000000000000D+00 0.000000000000000D+00 -.223343325161986D+03
 0.184722007266016D+03 0.134278916480176D+03 0.171574580487586D+02 0.131154180490326D+02
 0.149526180197340D+03 -.804001044582508D+02 -.617495170955668D+02 0.749245150241468D+02
 0.000000000000000D+00 0.000000000000000D+00 0.000000000000000D+00 -.000000000000000D+00
 0.112438462860615D+03 -.538788120219257D+02 0.445920590468081D+02 -.880399330731794D+02
 0.245663352054586D+03 0.000000000000000D+00 0.000000000000000D+00 0.245663352054586D+03
 0.257981668487108D+03 0.000000000000000D+00 0.000000000000000D+00 -.257981668487108D+03
 0.173910050200743D+03 0.120187854851846D+03 0.160340772591784D+01 0.131154180490326D+02
 0.162268249313002D+03 -.926508623872394D+02 -.752721962482379D+02 0.749245150241468D+02
 0.538882365998015D+02 0.352222826028970D+02 0.388791966525298D+02 -.123183164325226D+02
 0.113578484428148D+03 -.627592750675035D+02 0.347895918697903D+02 -.880399330731794D+02
0.321844414556D-05 0.000000000000D+00 0.000000000000D+00 0.433046464009D-05 0.855675408965D-09  6 2 21 25 24 1 21 4 0.26322380D+00 0.56987205D-02 0.48745599D+05 0.48745599D+05 0.48745599D+05 0.11933761D+01  1  2  1  5  5  2       -1 0.189857996908D-01 0.100000000000D+01
  </mgrwgt>
  </event>
  <event>
  6     66 -.46179844E-03 0.81462858E+02 0.75467711E-02 0.11626960E+00
        2 -1    0    0  502    0 0.00000000E+00 0.00000000E+00 0.89264152E+03 0.89264157E+03 0.32000000E+00 0.0000E+00 0.9000E+01
       -1 -1    0    0    0  501 0.00000000E+00 0.00000000E+00 -.41100840E+02 0.41102086E+02 0.32000000E+00 0.0000E+00 0.9000E+01
       25  1    1    2    0    0 0.23608957E+02 0.16356468E+02 0.21307651E+03 0.24869965E+03 0.12500000E+03 0.0000E+00 0.9000E+01
       24  1    1    2    0    0 -.90529168E+02 -.76552223E+02 0.31952144E+03 0.35016702E+03 0.80419002E+02 0.0000E+00 0.9000E+01
       21  1    1    2  502  503 0.56955432E+02 0.66410098E+02 0.30068676E+03 0.31315701E+03 0.75000000E+00 0.0000E+00 0.9000E+01
       21  1    1    2  503  501 0.99647783E+01 -.62143430E+01 0.18255959E+02 0.21719977E+02 0.75000000E+00 0.0000E+00 0.9000E+01
#aMCatNLO 2  0  0  5  2 0.12341628D+02 0.00000000D+00  -5  6  0 0.00000000D+00 0.00000000D+00 0.00000000D+00 0.00000000D+00 0.00000000D+00
  <mgrwgt>
 -.6053518032D-01    4    2    0
 0.191543532475343D+03 0.000000000000000D+00 0.000000000000000D+00 0.191543532475343D+03
 0.191543532475343D+03 -.000000000000000D+00 -.000000000000000D+00 -.191543532475343D+03
 0.132151020256190D+03 0.208179547418666D+02 0.138459184378429D+02 -.348395674159428D+02
 0.146681892641455D+03 -.935862940178413D+02 -.793021552749985D+02 -.106555865866692D+01
 0.104254152053042D+03 0.727683392759747D+02 0.654562368371555D+02 0.359051260746097D+02
 0.000000000000000D+00 0.000000000000000D+00 0.000000000000000D+00 0.000000000000000D+00
 0.191543532475343D+03 0.000000000000000D+00 0.000000000000000D+00 0.191543532475343D+03
 0.191543532475343D+03 -.000000000000000D+00 -.000000000000000D+00 -.191543532475343D+03
 0.132554647907723D+03 0.236337531325502D+02 0.163787722610869D+02 -.334502049923378D+02
 0.143229383892694D+03 -.905023717445925D+02 -.765281199086067D+02 0.456100611381204D+00
 0.948346187780226D+02 0.567959276274596D+02 0.664264872055941D+02 0.368150692140364D+02
 0.124684143722475D+02 0.100726909845827D+02 -.627713955807431D+01 -.382096483307985D+01
-.645665844945D-04 0.000000000000D+00 0.000000000000D+00 0.242675334128D-05 0.000000000000D+00  6 2 -1 25 24 21 21 4 0.13732956D+00 0.63233064D-02 0.34365545D+05 0.34365545D+05 0.34365545D+05 0.12087543D+01  1  2 13  3  6  5       21 -.586843136442D-01 0.100000000000D+01
-.853191657490D-04 0.000000000000D+00 0.000000000000D+00 0.242675334128D-05 0.000000000000D+00  6 2 -1 25 24 21 21 4 0.13732956D+00 0.63233064D-02 0.34365545D+05 0.34365545D+05 0.34365545D+05 0.12087543D+01  1  2 13  3  6  5       21 -.775462527850D-01 0.100000000000D+01
-.214981754369D-04 0.000000000000D+00 0.000000000000D+00 0.242552061729D-05 0.000000000000D+00  6 2 -1 25 24 21 21 4 0.13732956D+00 0.63233064D-02 0.34601596D+05 0.34601596D+05 0.34601596D+05 0.12084472D+01  1  2  8  3  6  5       21 -.195217418100D-01 0.100000000000D+01
0.104761295708D-03 0.000000000000D+00 0.000000000000D+00 0.242552061729D-05 0.874555201005D-07  6 2 -1 25 24 21 21 4 0.13732956D+00 0.63233064D-02 0.34365545D+05 0.34365545D+05 0.34365545D+05 0.12087543D+01  1  2  1  3  6  5       21 0.952171279190D-01 0.100000000000D+01
  </mgrwgt>
  </event>
  <event>
  6     66 0.46179844E-03 0.85356007E+02 0.75467711E-02 0.11636439E+00
        2 -1    0    0  502    0 0.00000000E+00 0.00000000E+00 0.20079309E+04 0.20079309E+04 0.32000000E+00 0.0000E+00 0.9000E+01
       21 -1    0    0  503  501 0.00000000E+00 0.00000000E+00 -.12105517E+03 0.12105749E+03 0.75000000E+00 0.0000E+00 0.9000E+01
       25  1    1    2    0    0 0.23915814E+02 -.65374866E+02 0.58988150E+03 0.60698519E+03 0.12500000E+03 0.0000E+00 0.9000E+01
       24  1    1    2    0    0 -.47787495E+01 -.35203024E+02 0.13630470E+04 0.13658794E+04 0.80419002E+02 0.0000E+00 0.9000E+01
        1  1    1    2  503    0 -.51979315E+02 0.88709606E+02 -.64054723E+02 0.12113775E+03 0.32000000E+00 0.0000E+00 0.9000E+01
       21  1    1    2  502  501 0.32842250E+02 0.11868284E+02 -.19981037E+01 0.34986062E+02 0.75000000E+00 0.0000E+00 0.9000E+01
#aMCatNLO 2  0  0  2  5 0.10281655D+03 0.00000000D+00  -5  6  0 0.00000000D+00 0.00000000D+00 0.00000000D+00 0.00000000D+00 0.00000000D+00
  <mgrwgt>
 0.1865264514D+00    1    2    0
 0.231712882224469D+03 0.000000000000000D+00 0.000000000000000D+00 0.231712882224469D+03
 0.231712882224469D+03 0.000000000000000D+00 0.000000000000000D+00 -.231712882224469D+03
 0.131359451289648D+03 0.870980409560480D+01 -.394240054085103D+02 0.438808937301445D+00
 0.173485619499974D+03 -.241110483518078D+02 -.221017236273237D+01 0.151801899541551D+03
 0.000000000000000D+00 -.000000000000000D+00 0.000000000000000D+00 -.000000000000000D+00
 0.158580693659315D+03 0.154012442562030D+02 0.416341777712427D+02 -.152240708478852D+03
 0.240769509668892D+03 0.000000000000000D+00 0.000000000000000D+00 0.240769509668892D+03
 0.100956655623621D+04 0.000000000000000D+00 0.000000000000000D+00 -.100956655623621D+04
 0.143077070989455D+03 0.239157707505595D+02 -.653750074496718D+02 0.438808937301445D+00
 0.175422752553974D+03 -.477874874741644D+01 -.352033097197997D+02 0.151801899541551D+03
 0.775641761542940D+03 -.519793151662878D+02 0.887096062083617D+02 -.768797046567321D+03
 0.156194480818738D+03 0.328422931631447D+02 0.118687109611099D+02 -.152240708478852D+03
0.344995013196D-03 0.000000000000D+00 0.000000000000D+00 0.135159503646D-04 0.225258021351D-07  6 2 21 25 24 1 21 4 0.30891258D+00 0.18624050D-01 0.33990568D+05 0.33990568D+05 0.33990568D+05 0.12092469D+01  1  2  1  5  5  2       -1 0.186526451382D+00 0.100000000000D+01
  </mgrwgt>
  </event>
  <event>
  5     66 0.46179844E-03 0.12835924E+03 0.75467711E-02 0.10130779E+00
        2 -1    0    0  502    0 0.00000000E+00 0.00000000E+00 0.19708465E+03 0.19708491E+03 0.32000000E+00 0.0000E+00 0.9000E+01
       -1 -1    0    0    0  501 0.00000000E+00 0.00000000E+00 -.51044816E+03 0.51044826E+03 0.32000000E+00 0.0000E+00 0.9000E+01
       25  1    1    2    0    0 -.11112642E+02 0.71651389E+02 0.27360593E+02 0.14707486E+03 0.12500000E+03 0.0000E+00 0.9000E+01
       24  1    1    2    0    0 0.81112525E+02 0.35940615E+02 0.64065956E+02 0.13580365E+03 0.80419002E+02 0.0000E+00 0.9000E+01
       21  1    1    2  502  501 -.69999883E+02 -.10759200E+03 -.40479006E+03 0.42465466E+03 0.75000000E+00 0.0000E+00 0.9000E+01
#aMCatNLO 1  0  0  2  5 0.10281655D+03 0.00000000D+00  -5  6  0 0.00000000D+00 0.00000000D+00 0.00000000D+00 0.00000000D+00 0.00000000D+00
  <mgrwgt>
 0.1890078662D-01    5    4    0
 0.317177590719979D+03 0.000000000000000D+00 0.000000000000000D+00 0.317177590719979D+03
 0.317177590719979D+03 0.000000000000000D+00 0.000000000000000D+00 -.317177590719979D+03
 0.177557110057400D+03 -.111125682308510D+02 0.716515018670487D+02 0.103170249778930D+03
 0.183117734136196D+03 0.811126008571376D+02 0.359407315417291D+02 0.138542045600749D+03
 0.273680337246363D+03 -.700000326262867D+02 -.107592233408778D+03 -.241712295379678D+03
 0.000000000000000D+00 0.000000000000000D+00 -.000000000000000D+00 -.000000000000000D+00
 0.405053255478563D+03 0.000000000000000D+00 0.000000000000000D+00 0.405053255478563D+03
 0.269375544649709D+04 0.000000000000000D+00 0.000000000000000D+00 -.269375544649709D+04
 0.261117857296073D+03 -.823635019481339D+02 0.187429155966422D+03 0.103170249778930D+03
 0.213865508587532D+03 0.166333649325842D+02 0.140714862686259D+03 0.138542045600749D+03
 0.294161264671940D+03 -.162230607314164D+03 0.422758317027581D+02 -.241712295379678D+03
 0.232966407142010D+04 0.227960744329714D+03 -.370419850355439D+03 -.228870219101852D+04
 0.317177590719979D+03 0.000000000000000D+00 0.000000000000000D+00 0.317177590719979D+03
 0.317177590719979D+03 0.000000000000000D+00 0.000000000000000D+00 -.317177590719979D+03
 0.177557110057400D+03 -.111125682308510D+02 0.716515018670487D+02 0.103170249778930D+03
 0.183117734136196D+03 0.811126008571376D+02 0.359407315417291D+02 0.138542045600749D+03
 0.000000000000000D+00 0.000000000000000D+00 -.000000000000000D+00 -.000000000000000D+00
 0.273680337246363D+03 -.700000326262867D+02 -.107592233408778D+03 -.241712295379678D+03
 0.405053255478563D+03 0.000000000000000D+00 0.000000000000000D+00 0.405053255478563D+03
 0.269375544649709D+04 0.000000000000000D+00 0.000000000000000D+00 -.269375544649709D+04
 0.261117857296073D+03 -.823635019481339D+02 0.187429155966422D+03 0.103170249778930D+03
 0.213865508587532D+03 0.166333649325842D+02 0.140714862686259D+03 0.138542045600749D+03
 0.232966407142010D+04 0.227960744329714D+03 -.370419850355439D+03 -.228870219101852D+04
 0.294161264671940D+03 -.162230607314164D+03 0.422758317027581D+02 -.241712295379678D+03
0.407959964339D-03 0.000000000000D+00 0.000000000000D+00 0.433334482037D-05 0.000000000000D+00  6 2 -1 25 24 21 21 2 0.30320743D-01 0.78530514D-01 0.38535460D+05 0.38535460D+05 0.38535460D+05 0.12036488D+01  1  2  2  2  6  2       -1 0.199673493216D-01 0.100000000000D+01
-.209199927084D-04 0.215286387841D-04 -.156667368139D-05 0.433334482037D-05 0.000000000000D+00  6 2 -1 25 24 21 21 4 0.30320743D-01 0.78530514D-01 0.38535460D+05 0.38535460D+05 0.38535460D+05 0.12036488D+01  1  2  3  2  6  2       -1 -.148341944477D-02 0.100000000000D+01
0.643468276709D-05 0.000000000000D+00 0.000000000000D+00 0.433334482037D-05 0.000000000000D+00  6 2 -1 25 24 21 21 4 0.30320743D-01 0.78530514D-01 0.38535460D+05 0.38535460D+05 0.38535460D+05 0.12036488D+01  1  2 15  2  6  2       -1 0.456278052801D-03 0.100000000000D+01
-.182323022548D-02 0.000000000000D+00 -.393280231000D-03 0.433334482037D-05 0.000000000000D+00  6 2 -1 25 24 21 21 4 0.30320743D-01 0.68132084D+00 0.38535460D+05 0.38535460D+05 0.38535460D+05 0.12036488D+01  1  2  5  2  6  2       -1 -.223395207174D-04 0.100000000000D+01
-.528142684877D-03 0.000000000000D+00 -.102507254337D-03 0.433334482037D-05 0.000000000000D+00  6 2 21 25 24 1 21 4 0.30320743D-01 0.68132084D+00 0.38535460D+05 0.38535460D+05 0.38535460D+05 0.12036488D+01  3  4  5  5  5  2       -1 -.170817858739D-04 0.100000000000D+01
  </mgrwgt>
  </event>
  <event>
  5     66 0.46179844E-03 0.87319635E+02 0.75467711E-02 0.10729545E+00
        2 -1    0    0  502    0 0.00000000E+00 0.00000000E+00 0.55616603E+02 0.55617524E+02 0.32000000E+00 0.0000E+00 0.9000E+01
       -1 -1    0    0    0  501 0.00000000E+00 0.00000000E+00 -.73114370E+03 0.73114377E+03 0.32000000E+00 0.0000E+00 0.9000E+01
       25  1    1    2    0    0 0.60372598E+02 0.93175060E+02 -.53026201E+03 0.55599392E+03 0.12500000E+03 0.0000E+00 0.9000E+01
       24  1    1    2    0    0 -.14418929E+02 -.18928393E+02 -.36967666E+02 0.91651590E+02 0.80419002E+02 0.0000E+00 0.9000E+01
       21  1    1    2  502  501 -.45953669E+02 -.74246666E+02 -.10829743E+03 0.13911579E+03 0.75000000E+00 0.0000E+00 0.9000E+01
#aMCatNLO 1  0  0  2  5 0.55035940D+01 0.00000000D+00  -5  6  0 0.00000000D+00 0.00000000D+00 0.00000000D+00 0.00000000D+00 0.00000000D+00
  <mgrwgt>
 0.9156223125D-01    3    2    0
 0.201653462126232D+03 0.000000000000000D+00 0.000000000000000D+00 0.201653462126232D+03
 0.201653462126232D+03 0.000000000000000D+00 0.000000000000000D+00 -.201653462126232D+03
 0.196447298700864D+03 0.603733758058575D+02 0.931763158060413D+02 -.103149264822800D+03
 0.116871610694716D+03 -.144184665170395D+02 -.189276461557408D+02 0.813978468161587D+02
 0.899880148568830D+02 -.459549092888180D+02 -.742486696503006D+02 0.217514180066412D+02
 0.000000000000000D+00 -.000000000000000D+00 0.000000000000000D+00 0.000000000000000D+00
 0.526905883541774D+03 0.000000000000000D+00 0.000000000000000D+00 0.526905883541774D+03
 0.283001245642057D+03 0.000000000000000D+00 0.000000000000000D+00 -.283001245642057D+03
 0.209842361596982D+03 0.132999975373468D+03 0.894720279033909D+01 -.103149264822800D+03
 0.138716537121682D+03 0.312693761223247D+02 -.719143822004619D+02 0.813978468161587D+02
 0.120085303381872D+03 -.840310264825375D+01 -.117799591548102D+03 0.217514180066412D+02
 0.341262927083295D+03 -.155866248847539D+03 0.180766770958225D+03 0.243904637899717D+03
0.935624339023D-03 0.000000000000D+00 0.000000000000D+00 0.183366699967D-05 0.000000000000D+00  6 2 -1 25 24 21 21 2 0.85564767D-02 0.11248372D+00 0.28624007D+05 0.28624007D+05 0.28624007D+05 0.12170443D+01  1  2  2  2  6  2       -1 0.944854199712D-01 0.100000000000D+01
-.595930914439D-04 0.493742528512D-04 -.359304381739D-05 0.183366699967D-05 0.000000000000D+00  6 2 -1 25 24 21 21 4 0.85564767D-02 0.11248372D+00 0.28624007D+05 0.28624007D+05 0.28624007D+05 0.12170443D+01  1  2  3  2  6  2       -1 -.891398702752D-02 0.100000000000D+01
0.400505621255D-04 0.000000000000D+00 0.000000000000D+00 0.183366699967D-05 0.000000000000D+00  6 2 -1 25 24 21 21 4 0.85564767D-02 0.11248372D+00 0.28624007D+05 0.28624007D+05 0.28624007D+05 0.12170443D+01  1  2 15  2  6  2       -1 0.599079830533D-02 0.100000000000D+01
  </mgrwgt>
  </event>
  <event>
  5     66 0.46179844E-03 0.27831297E+02 0.75467711E-02 0.12420720E+00
        2 -1    0    0  502    0 0.00000000E+00 0.00000000E+00 0.84184527E+02 0.84185135E+02 0.32000000E+00 0.0000E+00 0.9000E+01
       -1 -1    0    0    0  501 -.00000000E+00 -.00000000E+00 -.22094746E+03 0.22094769E+03 0.32000000E+00 0.0000E+00 0.9000E+01
       25  1    1    2    0    0 0.24444664E+02 0.47482112E+02 -.12513932E+03 0.18476185E+03 0.12500000E+03 0.0000E+00 0.9000E+01
       24  1    1    2    0    0 -.18295166E+01 -.20184046E+02 0.38918868E+00 0.82934373E+02 0.80419002E+02 0.0000E+00 0.9000E+01
       21  1    1    2  502  501 -.22615147E+02 -.27298066E+02 -.12012804E+02 0.37436603E+02 0.75000000E+00 0.0000E+00 0.9000E+01
#aMCatNLO 1  0  0  5  2 0.11300849D+02 0.00000000D+00  -5  6  0 0.00000000D+00 0.00000000D+00 0.00000000D+00 0.00000000D+00 0.00000000D+00
  <mgrwgt>
 0.5326203925D+00   14    2    0
 0.136383597216325D+03 0.000000000000000D+00 0.000000000000000D+00 0.136383597216325D+03
 0.136383597216325D+03 -.000000000000000D+00 -.000000000000000D+00 -.136383597216325D+03
 0.143943063579505D+03 0.244472757814618D+02 0.474852643975164D+02 -.473506697377820D+02
 0.929695664676510D+02 -.182782975854664D+01 -.201820101967024D+02 0.420174944232330D+02
 0.358545643854942D+02 -.226194460229151D+02 -.273032542008140D+02 0.533317531454895D+01
 0.000000000000000D+00 0.000000000000000D+00 0.000000000000000D+00 -.000000000000000D+00
 0.136383597216325D+03 0.000000000000000D+00 0.000000000000000D+00 0.136383597216325D+03
 0.136383597216325D+03 -.000000000000000D+00 -.000000000000000D+00 -.136383597216325D+03
 0.140529559750521D+03 0.187899529626782D+02 0.406564798702193D+02 -.460167955848515D+02
 0.945916266852440D+02 -.555786959690094D+01 -.246844293002727D+02 0.428969570045908D+02
 0.260682654937123D+02 -.119964632697537D+02 -.180907658725643D+02 0.144348025622862D+02
 0.115777425031729D+02 -.123562009602348D+01 0.211871530261771D+01 -.113149639820255D+02
0.321066099904D-03 0.000000000000D+00 0.000000000000D+00 0.167831275580D-04 0.000000000000D+00  6 2 -1 25 24 21 21 2 0.12951530D-01 0.33991982D-01 0.16169751D+05 0.16169751D+05 0.16169751D+05 0.12441218D+01  1  2  2  3  6  5       21 0.207297317185D+00 0.100000000000D+01
0.202083238552D-04 0.169431235780D-04 -.123297836228D-05 0.167831275580D-04 0.000000000000D+00  6 2 -1 25 24 21 21 4 0.12951530D-01 0.33991982D-01 0.16169751D+05 0.16169751D+05 0.16169751D+05 0.12441218D+01  1  2  3  3  6  5       21 0.201955323641D-01 0.100000000000D+01
0.119630335473D-04 0.000000000000D+00 0.000000000000D+00 0.167831275580D-04 0.000000000000D+00  6 2 -1 25 24 21 21 4 0.12951530D-01 0.33991982D-01 0.16169751D+05 0.16169751D+05 0.16169751D+05 0.12441218D+01  1  2 15  3  6  5       21 0.119554611708D-01 0.100000000000D+01
0.189648456706D-03 0.000000000000D+00 0.000000000000D+00 0.169240281749D-04 0.000000000000D+00  6 2 -1 25 24 21 21 4 0.12951530D-01 0.33991982D-01 0.14550029D+05 0.14550029D+05 0.14550029D+05 0.12493333D+01  1  2 12  3  6  5       21 0.192119794965D+00 0.100000000000D+01
0.210054783766D-03 0.000000000000D+00 0.000000000000D+00 0.169240281749D-04 0.000000000000D+00  6 2 -1 25 24 21 21 4 0.12951530D-01 0.33991982D-01 0.14550029D+05 0.14550029D+05 0.14550029D+05 0.12493333D+01  1  2 12  3  6  5       21 0.212792040016D+00 0.100000000000D+01
-.136627876267D-03 0.000000000000D+00 0.000000000000D+00 0.167831275580D-04 0.000000000000D+00  6 2 -1 25 24 21 21 4 0.12951530D-01 0.33991982D-01 0.16169751D+05 0.16169751D+05 0.16169751D+05 0.12441218D+01  1  2  4  3  6  5       21 -.136541393376D+00 0.100000000000D+01
0.296967230404D-05 0.000000000000D+00 0.000000000000D+00 0.169240281749D-04 0.000000000000D+00  6 2 -1 25 24 1 -1 4 0.12951530D-01 0.33991982D-01 0.14550029D+05 0.14550029D+05 0.14550029D+05 0.12493333D+01  1  2 12  6  6  5       21 0.300837056137D-02 0.100000000000D+01
0.315097858351D-05 0.000000000000D+00 0.000000000000D+00 0.169240281749D-04 0.000000000000D+00  6 2 -1 25 24 1 -1 4 0.12951530D-01 0.33991982D-01 0.14550029D+05 0.14550029D+05 0.14550029D+05 0.12493333D+01  1  2 12  6  6  5       21 0.319203947090D-02 0.100000000000D+01
0.296967230404D-05 0.000000000000D+00 0.000000000000D+00 0.169240281749D-04 0.000000000000D+00  6 2 -1 25 24 2 -2 4 0.12951530D-01 0.33991982D-01 0.14550029D+05 0.14550029D+05 0.14550029D+05 0.12493333D+01  1  2 12  7  6  5       21 0.300837056137D-02 0.100000000000D+01
0.315097858351D-05 0.000000000000D+00 0.000000000000D+00 0.169240281749D-04 0.000000000000D+00  6 2 -1 25 24 2 -2 4 0.12951530D-01 0.33991982D-01 0.14550029D+05 0.14550029D+05 0.14550029D+05 0.12493333D+01  1  2 12  7  6  5       21 0.319203947090D-02 0.100000000000D+01
0.296967230404D-05 0.000000000000D+00 0.000000000000D+00 0.169240281749D-04 0.000000000000D+00  6 2 -1 25 24 3 -3 4 0.12951530D-01 0.33991982D-01 0.14550029D+05 0.14550029D+05 0.14550029D+05 0.12493333D+01  1  2 12  8  6  5       21 0.300837056137D-02 0.100000000000D+01
0.296967230404D-05 0.000000000000D+00 0.000000000000D+00 0.169240281749D-04 0.000000000000D+00  6 2 -1 25 24 4 -4 4 0.12951530D-01 0.33991982D-01 0.14550029D+05 0.14550029D+05 0.14550029D+05 0.12493333D+01  1  2 12  8  6  5       21 0.300837056137D-02 0.100000000000D+01
0.315097858351D-05 0.000000000000D+00 0.000000000000D+00 0.169240281749D-04 0.000000000000D+00  6 2 -1 25 24 3 -3 4 0.12951530D-01 0.33991982D-01 0.14550029D+05 0.14550029D+05 0.14550029D+05 0.12493333D+01  1  2 12  8  6  5       21 0.319203947090D-02 0.100000000000D+01
0.315097858351D-05 0.000000000000D+00 0.000000000000D+00 0.169240281749D-04 0.000000000000D+00  6 2 -1 25 24 4 -4 4 0.12951530D-01 0.33991982D-01 0.14550029D+05 0.14550029D+05 0.14550029D+05 0.12493333D+01  1  2 12  8  6  5       21 0.319203947090D-02 0.100000000000D+01
  </mgrwgt>
  </event>
  <event>
  5     66 0.46179844E-03 0.23547400E+02 0.75467711E-02 0.11076682E+00
        2 -1    0    0  502    0 0.00000000E+00 0.00000000E+00 0.59544764E+03 0.59544772E+03 0.32000000E+00 0.0000E+00 0.9000E+01
       -1 -1    0    0    0  501 0.00000000E+00 0.00000000E+00 -.20200580E+03 0.20200605E+03 0.32000000E+00 0.0000E+00 0.9000E+01
       25  1    1    2    0    0 -.10986750E+02 -.90067179E+02 -.30801927E+02 0.15750100E+03 0.12500000E+03 0.0000E+00 0.9000E+01
       24  1    1    2    0    0 -.48565737E+01 0.72646873E+02 -.80231540E+02 0.13492765E+03 0.80419002E+02 0.0000E+00 0.9000E+01
       21  1    1    2  502  501 0.15843324E+02 0.17420305E+02 0.50447531E+03 0.50502513E+03 0.75000000E+00 0.0000E+00 0.9000E+01
#aMCatNLO 1  0  0  2  5 0.31725242D+02 0.00000000D+00  -5  6  0 0.00000000D+00 0.00000000D+00 0.00000000D+00 0.00000000D+00 0.00000000D+00
  <mgrwgt>
 0.1707727028D+00    7    4    0
 0.346819850498453D+03 0.000000000000000D+00 0.000000000000000D+00 0.346819850498453D+03
 0.346819850498453D+03 0.000000000000000D+00 0.000000000000000D+00 -.346819850498453D+03
 0.198544943981860D+03 -.109867651657704D+02 -.900671950253112D+02 -.124748892388769D+03
 0.200630332696401D+03 -.485658857539981D+01 0.726468571088786D+02 -.168772515958936D+03
 0.294464424318645D+03 0.158433537411703D+02 0.174203379164326D+02 0.293521408347705D+03
 0.000000000000000D+00 0.000000000000000D+00 -.000000000000000D+00 -.000000000000000D+00
 0.385641864631241D+03 0.000000000000000D+00 0.000000000000000D+00 0.385641864631241D+03
 0.584861714732551D+03 0.000000000000000D+00 0.000000000000000D+00 -.584861714732551D+03
 0.194422171991710D+03 -.491108185741931D+02 -.648137509231029D+02 -.124748892388769D+03
 0.216559280329417D+03 -.453306090262744D+02 0.994569237641200D+02 -.168772515958936D+03
 0.301702515619235D+03 -.419943108741465D+02 0.557321148599222D+02 0.293521408347705D+03
 0.257819611423431D+03 0.136435738474614D+03 -.903752877009392D+02 -.199219850101310D+03
 0.346819850498453D+03 0.000000000000000D+00 0.000000000000000D+00 0.346819850498453D+03
 0.346819850498453D+03 0.000000000000000D+00 0.000000000000000D+00 -.346819850498453D+03
 0.198544943981860D+03 -.109867651657704D+02 -.900671950253112D+02 -.124748892388769D+03
 0.200630332696401D+03 -.485658857539981D+01 0.726468571088786D+02 -.168772515958936D+03
 0.000000000000000D+00 0.000000000000000D+00 -.000000000000000D+00 -.000000000000000D+00
 0.294464424318645D+03 0.158433537411703D+02 0.174203379164326D+02 0.293521408347705D+03
 0.385641864631241D+03 0.000000000000000D+00 0.000000000000000D+00 0.385641864631241D+03
 0.584861714732551D+03 0.000000000000000D+00 0.000000000000000D+00 -.584861714732551D+03
 0.194422171991710D+03 -.491108185741931D+02 -.648137509231029D+02 -.124748892388769D+03
 0.216559280329417D+03 -.453306090262744D+02 0.994569237641200D+02 -.168772515958936D+03
 0.257819611423431D+03 0.136435738474614D+03 -.903752877009392D+02 -.199219850101310D+03
 0.301702515619235D+03 -.419943108741465D+02 0.557321148599222D+02 0.293521408347705D+03
0.435741188460D-02 0.000000000000D+00 0.000000000000D+00 0.122148284703D-03 0.000000000000D+00  6 2 -1 25 24 21 21 2 0.91607355D-01 0.31077841D-01 0.20519021D+05 0.20519021D+05 0.20519021D+05 0.12326030D+01  1  2  2  2  6  2       -1 0.373930838170D+00 0.100000000000D+01
0.144174906537D-02 0.229946942586D-03 -.167336089698D-04 0.122148284703D-03 0.000000000000D+00  6 2 -1 25 24 21 21 4 0.91607355D-01 0.31077841D-01 0.20519021D+05 0.20519021D+05 0.20519021D+05 0.12326030D+01  1  2  3  2  6  2       -1 0.187974428193D+00 0.100000000000D+01
0.195264953250D-03 0.000000000000D+00 0.000000000000D+00 0.122148284703D-03 0.000000000000D+00  6 2 -1 25 24 21 21 4 0.91607355D-01 0.31077841D-01 0.20519021D+05 0.20519021D+05 0.20519021D+05 0.12326030D+01  1  2 15  2  6  2       -1 0.254585342311D-01 0.100000000000D+01
-.603553417980D-02 0.000000000000D+00 0.000000000000D+00 0.122148284703D-03 0.000000000000D+00  6 2 -1 25 24 21 21 4 0.91607355D-01 0.31077841D-01 0.20519021D+05 0.20519021D+05 0.20519021D+05 0.12326030D+01  1  2  4  2  6  2       -1 -.786909534773D+00 0.100000000000D+01
-.330917534606D-02 0.000000000000D+00 -.232672310611D-02 0.122148284703D-03 0.000000000000D+00  6 2 -1 25 24 21 21 4 0.91607355D-01 0.56960995D-01 0.20519021D+05 0.20519021D+05 0.20519021D+05 0.12326030D+01  1  2  5  2  6  2       -1 -.147211919961D+00 0.100000000000D+01
0.427933594533D-02 0.000000000000D+00 0.195650550104D-02 0.122148284703D-03 0.000000000000D+00  6 2 -1 25 24 21 21 4 0.91607355D-01 0.31077841D-01 0.20519021D+05 0.20519021D+05 0.20519021D+05 0.12326030D+01  1  2  6  2  6  2       -1 0.557937401655D+00 0.100000000000D+01
-.920904854576D-04 0.000000000000D+00 -.154033708702D-03 0.122148284703D-03 0.000000000000D+00  6 2 21 25 24 1 21 4 0.91607355D-01 0.56960995D-01 0.20519021D+05 0.20519021D+05 0.20519021D+05 0.12326030D+01  3  4  5  5  5  2       -1 -.404070447307D-01 0.100000000000D+01
  </mgrwgt>
  </event>
  <event>
  6     66 0.46179844E-03 0.29429422E+02 0.75467711E-02 0.11295584E+00
        2 -1    0    0  502    0 0.00000000E+00 0.00000000E+00 0.18016084E+03 0.18016112E+03 0.32000000E+00 0.0000E+00 0.9000E+01
       -1 -1    0    0    0  503 0.00000000E+00 0.00000000E+00 -.47464900E+03 0.47464911E+03 0.32000000E+00 0.0000E+00 0.9000E+01
       25  1    1    2    0    0 -.22064169E+02 0.14547315E+03 -.11432444E+02 0.19340364E+03 0.12500000E+03 0.0000E+00 0.9000E+01
       24  1    1    2    0    0 0.32633875E+02 -.17711251E+03 -.28534524E+02 0.19928685E+03 0.80419002E+02 0.0000E+00 0.9000E+01
       21  1    1    2  502  501 0.95150544E+01 0.38975649E+02 -.18828948E+03 0.19251787E+03 0.75000000E+00 0.0000E+00 0.9000E+01
       21  1    1    2  501  503 -.20084761E+02 -.73362891E+01 -.66231711E+02 0.69601873E+02 0.75000000E+00 0.0000E+00 0.9000E+01
#aMCatNLO 2  0  0  2  1 0.21382674D+02 0.00000000D+00  -5  6  0 0.00000000D+00 0.00000000D+00 0.00000000D+00 0.00000000D+00 0.00000000D+00
  <mgrwgt>
 0.6273986397D-01    1    2    0
 0.269216729152177D+03 0.000000000000000D+00 0.000000000000000D+00 0.269216729152177D+03
 0.269216729152177D+03 0.000000000000000D+00 0.000000000000000D+00 -.269216729152177D+03
 0.204199554904725D+03 -.296968836542379D+02 0.142684949806239D+03 0.695094124799347D+02
 0.205699079347353D+03 0.249891500376999D+02 -.179905105541186D+03 0.534283695295501D+02
 0.128534824052276D+03 0.470773361653807D+01 0.372201557349472D+02 -.122937782009485D+03
 0.000000000000000D+00 -.000000000000000D+00 -.000000000000000D+00 -.000000000000000D+00
 0.271969816701218D+03 0.000000000000000D+00 0.000000000000000D+00 0.271969816701218D+03
 0.314415196090867D+03 0.000000000000000D+00 0.000000000000000D+00 -.314415196090867D+03
 0.205196871498820D+03 -.220641951219038D+02 0.145472914809665D+03 0.695094124799347D+02
 0.204342118793394D+03 0.326338595392636D+02 -.177112749681067D+03 0.534283695295501D+02
 0.129318883145031D+03 0.951509613123851D+01 0.389761239488987D+02 -.122937782009485D+03
 0.475271393548403D+02 -.200847605485983D+02 -.733628907749682D+01 -.424453793896495D+02
0.721224182575D-03 0.000000000000D+00 0.000000000000D+00 0.142302696375D-04 0.646495050682D-07  6 2 -1 25 24 21 21 4 0.27716783D-01 0.73022165D-01 0.51031340D+05 0.51031340D+05 0.51031340D+05 0.11914046D+01  1  2  1  2  6  2       -1 0.627398639662D-01 0.100000000000D+01
  </mgrwgt>
  </event>
  <event>
  6     66 0.46179844E-03 0.17386094E+02 0.75467711E-02 0.12150271E+00
        2 -1    0    0  503    0 0.00000000E+00 0.00000000E+00 0.76237087E+03 0.76237094E+03 0.32000000E+00 0.0000E+00 0.9000E+01
       -1 -1    0    0    0  501 0.00000000E+00 0.00000000E+00 -.58246903E+02 0.58247782E+02 0.32000000E+00 0.0000E+00 0.9000E+01
       25  1    1    2    0    0 -.99997888E+01 0.66886041E+02 0.70660793E+02 0.15871889E+03 0.12500000E+03 0.0000E+00 0.9000E+01
       24  1    1    2    0    0 -.14376707E+02 -.58681494E+02 0.18491350E+03 0.21050041E+03 0.80419002E+02 0.0000E+00 0.9000E+01
       21  1    1    2  502  501 0.22944978E+02 0.33045592E+01 0.99941184E+02 0.10259725E+03 0.75000000E+00 0.0000E+00 0.9000E+01
       21  1    1    2  503  502 0.14315181E+01 -.11509107E+02 0.34860850E+03 0.34880217E+03 0.75000000E+00 0.0000E+00 0.9000E+01
#aMCatNLO 2  0  0  1  5 0.11597793D+02 0.00000000D+00  -5  6  0 0.00000000D+00 0.00000000D+00 0.00000000D+00 0.00000000D+00 0.00000000D+00
  <mgrwgt>
 0.2861146211D-01    2    2    0
 0.154987980366706D+03 0.000000000000000D+00 0.000000000000000D+00 0.154987980366706D+03
 0.154987980366706D+03 0.000000000000000D+00 0.000000000000000D+00 -.154987980366706D+03
 0.158017142909634D+03 -.926664682430380D+01 0.609761143476671D+02 -.744342675722515D+02
 0.110436328051763D+03 -.138732665126131D+02 -.627399669523110D+02 0.400024452037489D+02
 0.415224897720145D+02 0.231399133369169D+02 0.176385260464386D+01 0.344318223685026D+02
 0.000000000000000D+00 0.000000000000000D+00 -.000000000000000D+00 0.000000000000000D+00
 0.285835075502697D+03 0.000000000000000D+00 0.000000000000000D+00 0.285835075502697D+03
 0.155353634979651D+03 0.000000000000000D+00 0.000000000000000D+00 -.155353634979651D+03
 0.160434486620617D+03 -.100017196826945D+02 0.668859470411546D+02 -.744342675722515D+02
 0.108248195250943D+03 -.143780497912136D+02 -.586816145196967D+02 0.400024452037489D+02
 0.415101694702923D+02 0.229482514061582D+02 0.330477461198683D+01 0.344318223685026D+02
 0.130995859140496D+03 0.143151806774986D+01 -.115091071334447D+02 0.130481440523046D+03
-.103763860260D-02 0.000000000000D+00 0.000000000000D+00 0.346644477994D-04 0.000000000000D+00  6 2 -1 25 24 21 21 4 0.12131544D+00 0.89399814D-02 0.19250287D+05 0.19250287D+05 0.19250287D+05 0.12356570D+01  1  2 13  1  6  1        2 -.709254368765D+00 0.100000000000D+01
0.103927742348D-02 0.000000000000D+00 0.000000000000D+00 0.349035662856D-04 0.124218837102D-05  6 2 -1 25 24 21 21 4 0.11728709D+00 0.89610730D-02 0.19250287D+05 0.19250287D+05 0.19250287D+05 0.12356570D+01  1  2  1  1  6  1        2 0.737865830872D+00 0.100000000000D+01
  </mgrwgt>
  </event>
  <event>
  6     66 -.46179844E-03 0.62876750E+02 0.75467711E-02 0.11603957E+00
        2 -1    0    0  503    0 0.00000000E+00 0.00000000E+00 0.97187508E+03 0.97187514E+03 0.32000000E+00 0.0000E+00 0.9000E+01
       -1 -1    0    0    0  501 0.00000000E+00 0.00000000E+00 -.25947555E+03 0.25947575E+03 0.32000000E+00 0.0000E+00 0.9000E+01
       25  1    1    2    0    0 -.25688912E+02 -.28290416E+02 0.56173377E+03 0.57674093E+03 0.12500000E+03 0.0000E+00 0.9000E+01
       24  1    1    2    0    0 0.85800444E+02 0.72710161E+01 0.26098359E+03 0.28634636E+03 0.80419002E+02 0.0000E+00 0.9000E+01
       21  1    1    2  502  501 -.55317807E+02 0.63639637E+02 -.22795394E+03 0.24305066E+03 0.75000000E+00 0.0000E+00 0.9000E+01
       21  1    1    2  503  502 -.47937253E+01 -.42620237E+02 0.11763611E+03 0.12521294E+03 0.75000000E+00 0.0000E+00 0.9000E+01
#aMCatNLO 2  0  0  1  5 0.42888978D+02 0.00000000D+00  -5  6  0 0.00000000D+00 0.00000000D+00 0.00000000D+00 0.00000000D+00 0.00000000D+00
  <mgrwgt>
 -.4896596143D+00    2    2    0
 0.465821356590671D+03 0.000000000000000D+00 0.000000000000000D+00 0.465821356590671D+03
 0.465821356590671D+03 0.000000000000000D+00 0.000000000000000D+00 -.465821356590671D+03
 0.327577725125137D+03 -.273689694054470D+02 -.432278315300678D+02 0.298436693610306D+03
 0.172591877512879D+03 0.849113478525541D+02 -.633947803177932D+00 0.126926755828295D+03
 0.431473110543326D+03 -.575423784471071D+02 0.438617793332457D+02 -.425363449438600D+03
 0.000000000000000D+00 -.000000000000000D+00 -.000000000000000D+00 0.000000000000000D+00
 0.532891438521885D+03 0.000000000000000D+00 0.000000000000000D+00 0.532891438521885D+03
 0.473222012472515D+03 0.000000000000000D+00 0.000000000000000D+00 -.473222012472515D+03
 0.325806272343203D+03 -.256888802478128D+02 -.282904301263746D+02 0.298436693610306D+03
 0.173182573788546D+03 0.858004603941367D+02 0.727100823223739D+01 0.126926755828295D+03
 0.433640560142404D+03 -.553178548838242D+02 0.636396591235773D+02 -.425363449438600D+03
 0.734840447202478D+02 -.479372526249967D+01 -.426202372294401D+02 0.596694260493705D+02
-.149349868786D-01 0.000000000000D+00 0.000000000000D+00 0.256934629569D-04 0.000000000000D+00  6 2 -1 25 24 21 21 4 0.15055624D+00 0.39294884D-01 0.35295494D+05 0.35295494D+05 0.35295494D+05 0.12075580D+01  1  2 13  1  6  1        2 -.641343615029D+00 0.100000000000D+01
0.359744273677D-02 0.000000000000D+00 0.000000000000D+00 0.262659692338D-04 0.429684250625D-07  6 2 -1 25 24 21 21 4 0.14951867D+00 0.39919175D-01 0.35295494D+05 0.35295494D+05 0.35295494D+05 0.12075580D+01  1  2  1  1  6  1        2 0.151684000777D+00 0.100000000000D+01
  </mgrwgt>
  </event>
  <event>
  5     66 0.46179844E-03 0.47417296E+02 0.75467711E-02 0.12286094E+00
        2 -1    0    0  502    0 0.00000000E+00 0.00000000E+00 0.46190840E+03 0.46190851E+03 0.32000000E+00 0.0000E+00 0.9000E+01
       -1 -1    0    0    0  501 0.00000000E+00 0.00000000E+00 -.38022627E+02 0.38023974E+02 0.32000000E+00 0.0000E+00 0.9000E+01
       25  1    1    2    0    0 -.42904852E+02 -.22406333E+02 0.24284183E+03 0.27738065E+03 0.12500000E+03 0.0000E+00 0.9000E+01
       24  1    1    2    0    0 0.27308689E+01 -.43641983E+01 0.10295471E+03 0.13074170E+03 0.80419002E+02 0.0000E+00 0.9000E+01
       21  1    1    2  502  501 0.40173983E+02 0.26770531E+02 0.78089231E+02 0.91810134E+02 0.75000000E+00 0.0000E+00 0.9000E+01
#aMCatNLO 1  0  0  5  1 0.15213272D+02 0.00000000D+00  -5  6  0 0.00000000D+00 0.00000000D+00 0.00000000D+00 0.00000000D+00 0.00000000D+00
  <mgrwgt>
 0.2340116036D+00   20    2    0
 0.132526733888426D+03 0.000000000000000D+00 0.000000000000000D+00 0.132526733888426D+03
 0.132526733888426D+03 -.000000000000000D+00 -.000000000000000D+00 -.132526733888426D+03
 0.134820646261745D+03 -.429073176442295D+02 -.224079756250335D+02 0.144378453863372D+02
 0.819494569045350D+02 0.272937014912244D+01 -.436519694299084D+01 -.148994337750027D+02
 0.482833646105710D+02 0.401779474951071D+02 0.267731725680243D+02 0.461588388665461D+00
 0.000000000000000D+00 0.000000000000000D+00 0.000000000000000D+00 0.000000000000000D+00
 0.132526733888426D+03 0.000000000000000D+00 0.000000000000000D+00 0.132526733888426D+03
 0.132526733888426D+03 -.000000000000000D+00 -.000000000000000D+00 -.132526733888426D+03
 0.132863625902809D+03 -.380730750959675D+02 -.191866062408441D+02 0.144933840678127D+02
 0.820140215035667D+02 0.569046762889600D+01 -.239202561993175D+01 -.148654149089434D+02
 0.196822379270555D+02 0.398028505295220D+01 0.163723884829045D+02 0.101731369832183D+02
 0.304935824434205D+02 0.284023224141193D+02 0.520624337787137D+01 -.980110614208755D+01
0.103714013775D-03 0.000000000000D+00 0.000000000000D+00 0.114518862490D-04 0.000000000000D+00  6 2 -1 25 24 21 21 2 0.71062943D-01 0.58497471D-02 0.17280434D+05 0.17280434D+05 0.17280434D+05 0.12408759D+01  1  2  2  3  6  5       21 0.163016575906D+00 0.100000000000D+01
0.493273441509D-06 0.547313887290D-05 -.398289121422D-06 0.114518862490D-04 0.000000000000D+00  6 2 -1 25 24 21 21 4 0.71062943D-01 0.58497471D-02 0.17280434D+05 0.17280434D+05 0.17280434D+05 0.12408759D+01  1  2  3  3  6  5       21 0.119381981981D-02 0.100000000000D+01
0.293397731907D-05 0.000000000000D+00 0.000000000000D+00 0.114518862490D-04 0.000000000000D+00  6 2 -1 25 24 21 21 4 0.71062943D-01 0.58497471D-02 0.17280434D+05 0.17280434D+05 0.17280434D+05 0.12408759D+01  1  2 15  3  6  5       21 0.710080855691D-02 0.100000000000D+01
0.186750379552D-04 0.000000000000D+00 0.000000000000D+00 0.114826992359D-04 0.000000000000D+00  6 2 -1 25 24 21 21 4 0.71062943D-01 0.58497471D-02 0.16699246D+05 0.16699246D+05 0.16699246D+05 0.12425442D+01  1  2 12  3  6  5       21 0.453854944219D-01 0.100000000000D+01
0.187157217439D-04 0.000000000000D+00 0.000000000000D+00 0.114826992359D-04 0.000000000000D+00  6 2 -1 25 24 21 21 4 0.71062943D-01 0.58497471D-02 0.16699246D+05 0.16699246D+05 0.16699246D+05 0.12425442D+01  1  2 12  3  6  5       21 0.454843672524D-01 0.100000000000D+01
-.646792672365D-04 0.000000000000D+00 0.000000000000D+00 0.114518862490D-04 0.000000000000D+00  6 2 -1 25 24 21 21 4 0.71062943D-01 0.58497471D-02 0.17280434D+05 0.17280434D+05 0.17280434D+05 0.12408759D+01  1  2  4  3  6  5       21 -.156536688700D+00 0.100000000000D+01
-.254171310743D-04 0.000000000000D+00 0.000000000000D+00 0.114518862490D-04 0.000000000000D+00  6 2 -1 25 24 21 21 4 0.71062943D-01 0.58497471D-02 0.17280434D+05 0.17280434D+05 0.17280434D+05 0.12408759D+01  1  2  5  3  6  5       21 -.615145115989D-01 0.100000000000D+01
0.773110025534D-04 0.000000000000D+00 -.000000000000D+00 0.114518862490D-04 0.000000000000D+00  6 2 -1 25 24 21 21 4 0.71062943D-01 0.58497471D-02 0.17280434D+05 0.17280434D+05 0.17280434D+05 0.12408759D+01  1  2  6  3  6  5       21 0.187108000088D+00 0.100000000000D+01
0.113662548541D-05 0.000000000000D+00 0.000000000000D+00 0.114826992359D-04 0.000000000000D+00  6 2 -1 25 24 1 -1 4 0.71062943D-01 0.58497471D-02 0.16699246D+05 0.16699246D+05 0.16699246D+05 0.12425442D+01  1  2 12  6  6  5       21 0.276231350915D-02 0.100000000000D+01
0.113889522216D-05 0.000000000000D+00 0.000000000000D+00 0.114826992359D-04 0.000000000000D+00  6 2 -1 25 24 1 -1 4 0.71062943D-01 0.58497471D-02 0.16699246D+05 0.16699246D+05 0.16699246D+05 0.12425442D+01  1  2 12  6  6  5       21 0.276782959564D-02 0.100000000000D+01
-.199847571231D-05 0.000000000000D+00 0.000000000000D+00 0.114518862490D-04 0.000000000000D+00  6 2 -1 25 24 1 -1 4 0.71062943D-01 0.58497471D-02 0.17280434D+05 0.17280434D+05 0.17280434D+05 0.12408759D+01  1  2  5  6  6  5       21 -.483670863660D-02 0.100000000000D+01
0.113662548541D-05 0.000000000000D+00 0.000000000000D+00 0.114826992359D-04 0.000000000000D+00  6 2 -1 25 24 2 -2 4 0.71062943D-01 0.58497471D-02 0.16699246D+05 0.16699246D+05 0.16699246D+05 0.12425442D+01  1  2 12  7  6  5       21 0.276231350915D-02 0.100000000000D+01
0.113889522216D-05 0.000000000000D+00 0.000000000000D+00 0.114826992359D-04 0.000000000000D+00  6 2 -1 25 24 2 -2 4 0.71062943D-01 0.58497471D-02 0.16699246D+05 0.16699246D+05 0.16699246D+05 0.12425442D+01  1  2 12  7  6  5       21 0.276782959564D-02 0.100000000000D+01
-.199847571231D-05 0.000000000000D+00 0.000000000000D+00 0.114518862490D-04 0.000000000000D+00  6 2 -1 25 24 2 -2 4 0.71062943D-01 0.58497471D-02 0.17280434D+05 0.17280434D+05 0.17280434D+05 0.12408759D+01  1  2  5  7  6  5       21 -.483670863660D-02 0.100000000000D+01
0.113662548541D-05 0.000000000000D+00 0.000000000000D+00 0.114826992359D-04 0.000000000000D+00  6 2 -1 25 24 3 -3 4 0.71062943D-01 0.58497471D-02 0.16699246D+05 0.16699246D+05 0.16699246D+05 0.12425442D+01  1  2 12  8  6  5       21 0.276231350915D-02 0.100000000000D+01
0.113662548541D-05 0.000000000000D+00 0.000000000000D+00 0.114826992359D-04 0.000000000000D+00  6 2 -1 25 24 4 -4 4 0.71062943D-01 0.58497471D-02 0.16699246D+05 0.16699246D+05 0.16699246D+05 0.12425442D+01  1  2 12  8  6  5       21 0.276231350915D-02 0.100000000000D+01
0.113889522216D-05 0.000000000000D+00 0.000000000000D+00 0.114826992359D-04 0.000000000000D+00  6 2 -1 25 24 3 -3 4 0.71062943D-01 0.58497471D-02 0.16699246D+05 0.16699246D+05 0.16699246D+05 0.12425442D+01  1  2 12  8  6  5       21 0.276782959564D-02 0.100000000000D+01
0.113889522216D-05 0.000000000000D+00 0.000000000000D+00 0.114826992359D-04 0.000000000000D+00  6 2 -1 25 24 4 -4 4 0.71062943D-01 0.58497471D-02 0.16699246D+05 0.16699246D+05 0.16699246D+05 0.12425442D+01  1  2 12  8  6  5       21 0.276782959564D-02 0.100000000000D+01
-.199847571231D-05 0.000000000000D+00 0.000000000000D+00 0.114518862490D-04 0.000000000000D+00  6 2 -1 25 24 3 -3 4 0.71062943D-01 0.58497471D-02 0.17280434D+05 0.17280434D+05 0.17280434D+05 0.12408759D+01  1  2  5  8  6  5       21 -.483670863660D-02 0.100000000000D+01
-.199847571231D-05 0.000000000000D+00 0.000000000000D+00 0.114518862490D-04 0.000000000000D+00  6 2 -1 25 24 4 -4 4 0.71062943D-01 0.58497471D-02 0.17280434D+05 0.17280434D+05 0.17280434D+05 0.12408759D+01  1  2  5  8  6  5       21 -.483670863660D-02 0.100000000000D+01
  </mgrwgt>
  </event>
  <event>
  5     66 -.46179844E-03 0.40805316E+02 0.75467711E-02 0.12228879E+00
        2 -1    0    0  502    0 0.00000000E+00 0.00000000E+00 0.11760638E+04 0.11760639E+04 0.32000000E+00 0.0000E+00 0.9000E+01
       -1 -1    0    0    0  501 0.00000000E+00 0.00000000E+00 -.17928566E+03 0.17928595E+03 0.32000000E+00 0.0000E+00 0.9000E+01
       25  1    1    2    0    0 0.36487839E+02 0.40621410E+02 0.38361592E+02 0.14169712E+03 0.12500000E+03 0.0000E+00 0.9000E+01
       24  1    1    2    0    0 -.24859388E+02 -.85935663E+00 -.11329290E+03 0.14114257E+03 0.80419002E+02 0.0000E+00 0.9000E+01
       21  1    1    2  502  501 -.11628452E+02 -.39762054E+02 0.10717095E+04 0.10725102E+04 0.75000000E+00 0.0000E+00 0.9000E+01
#aMCatNLO 1  0  0  5  2 0.36675249D+01 0.00000000D+00  -5  6  0 0.00000000D+00 0.00000000D+00 0.00000000D+00 0.00000000D+00 0.00000000D+00
  <mgrwgt>
 -.3628135436D+00   20    2    0
 0.459185812927649D+03 0.000000000000000D+00 0.000000000000000D+00 0.459185812927649D+03
 0.459185812927649D+03 -.000000000000000D+00 -.000000000000000D+00 -.459185812927649D+03
 0.167482565598467D+03 0.364878427881588D+02 0.406214220616213D+02 -.971799731313150D+02
 0.331266395195258D+03 -.248593808252209D+02 -.859333718169829D+00 -.320392698671236D+03
 0.419622665061573D+03 -.116284619629380D+02 -.397620883434515D+02 0.417572671802551D+03
 0.000000000000000D+00 0.000000000000000D+00 0.000000000000000D+00 0.000000000000000D+00
 0.459185812927649D+03 0.000000000000000D+00 0.000000000000000D+00 0.459185812927649D+03
 0.459185812927649D+03 -.000000000000000D+00 -.000000000000000D+00 -.459185812927649D+03
 0.167362257440740D+03 0.364823416776357D+02 0.406026116941537D+02 -.969824308057420D+02
 0.330889508756422D+03 -.248702592756567D+02 -.896531234801790D+00 -.320002058565257D+03
 0.413310153092583D+03 -.847161089523359D+01 -.412948029724170D+02 0.411154780716123D+03
 0.680970656555330D+01 -.314047150674545D+01 0.158872251306498D+01 0.582970865487634D+01
0.226106508312D-02 0.000000000000D+00 0.000000000000D+00 0.521514318377D-04 0.000000000000D+00  6 2 -1 25 24 21 21 2 0.18093293D+00 0.27582435D-01 0.17162459D+05 0.17162459D+05 0.17162459D+05 0.12412094D+01  1  2  2  3  6  5       21 0.100412957099D+00 0.100000000000D+01
0.458912305291D-03 0.119319682560D-03 -.868308527131D-05 0.521514318377D-04 0.000000000000D+00  6 2 -1 25 24 21 21 4 0.18093293D+00 0.27582435D-01 0.17162459D+05 0.17162459D+05 0.17162459D+05 0.12412094D+01  1  2  3  3  6  5       21 0.313976059310D-01 0.100000000000D+01
0.749514380755D-04 0.000000000000D+00 0.000000000000D+00 0.521514318377D-04 0.000000000000D+00  6 2 -1 25 24 21 21 4 0.18093293D+00 0.27582435D-01 0.17162459D+05 0.17162459D+05 0.17162459D+05 0.12412094D+01  1  2 15  3  6  5       21 0.512798565112D-02 0.100000000000D+01
0.251597327249D-03 0.000000000000D+00 0.000000000000D+00 0.520202731285D-04 0.000000000000D+00  6 2 -1 25 24 21 21 4 0.18093293D+00 0.27582435D-01 0.17722846D+05 0.17722846D+05 0.17722846D+05 0.12396477D+01  1  2 12  3  6  5       21 0.171157080427D-01 0.100000000000D+01
-.643379231012D-01 0.000000000000D+00 0.000000000000D+00 0.521514318377D-04 0.000000000000D+00  6 2 -1 25 24 21 21 4 0.18093293D+00 0.27582435D-01 0.17162459D+05 0.17162459D+05 0.17162459D+05 0.12412094D+01  1  2  4  3  6  5       21 -.440183610825D+01 0.100000000000D+01
-.277163908107D+00 0.000000000000D+00 0.000000000000D+00 0.521514318377D-04 0.000000000000D+00  6 2 -1 25 24 21 21 4 0.18093293D+00 0.27582435D-01 0.17162459D+05 0.17162459D+05 0.17162459D+05 0.12412094D+01  1  2  5  3  6  5       21 -.189628455474D+02 0.100000000000D+01
0.281606375466D+00 0.000000000000D+00 -.000000000000D+00 0.521514318377D-04 0.000000000000D+00  6 2 -1 25 24 21 21 4 0.18093293D+00 0.27582435D-01 0.17162459D+05 0.17162459D+05 0.17162459D+05 0.12412094D+01  1  2  6  3  6  5       21 0.192667877993D+02 0.100000000000D+01
0.523175102428D-01 0.000000000000D+00 0.000000000000D+00 0.521514318377D-04 0.150457210077D-04  6 2 -1 25 24 21 21 4 0.18093293D+00 0.27582435D-01 0.17722846D+05 0.17722846D+05 0.17722846D+05 0.12396477D+01  1  2 11  3  6  5       21 0.355906495759D+01 0.100000000000D+01
0.108905231550D-04 0.000000000000D+00 0.000000000000D+00 0.520202731285D-04 0.000000000000D+00  6 2 -1 25 24 1 -1 4 0.18093293D+00 0.27582435D-01 0.17722846D+05 0.17722846D+05 0.17722846D+05 0.12396477D+01  1  2 12  6  6  5       21 0.740862459829D-03 0.100000000000D+01
-.370256158813D-03 0.000000000000D+00 0.000000000000D+00 0.521514318377D-04 0.000000000000D+00  6 2 -1 25 24 1 -1 4 0.18093293D+00 0.27582435D-01 0.17162459D+05 0.17162459D+05 0.17162459D+05 0.12412094D+01  1  2  5  6  6  5       21 -.253319791906D-01 0.100000000000D+01
0.319332578764D-03 0.000000000000D+00 0.000000000000D+00 0.521514318377D-04 0.796221636412D-07  6 2 -1 25 24 1 -1 4 0.18093293D+00 0.27582435D-01 0.17722846D+05 0.17722846D+05 0.17722846D+05 0.12396477D+01  1  2 11  6  6  5       21 0.217236138651D-01 0.100000000000D+01
0.108905231550D-04 0.000000000000D+00 0.000000000000D+00 0.520202731285D-04 0.000000000000D+00  6 2 -1 25 24 2 -2 4 0.18093293D+00 0.27582435D-01 0.17722846D+05 0.17722846D+05 0.17722846D+05 0.12396477D+01  1  2 12  7  6  5       21 0.740862459829D-03 0.100000000000D+01
-.370256158813D-03 0.000000000000D+00 0.000000000000D+00 0.521514318377D-04 0.000000000000D+00  6 2 -1 25 24 2 -2 4 0.18093293D+00 0.27582435D-01 0.17162459D+05 0.17162459D+05 0.17162459D+05 0.12412094D+01  1  2  5  7  6  5       21 -.253319791906D-01 0.100000000000D+01
0.799009931428D-03 0.000000000000D+00 0.000000000000D+00 0.521514318377D-04 0.256005402640D-06  6 2 -1 25 24 2 -2 4 0.18093293D+00 0.27582435D-01 0.17722846D+05 0.17722846D+05 0.17722846D+05 0.12396477D+01  1  2 11  7  6  5       21 0.543551907289D-01 0.100000000000D+01
0.108905231550D-04 0.000000000000D+00 0.000000000000D+00 0.520202731285D-04 0.000000000000D+00  6 2 -1 25 24 3 -3 4 0.18093293D+00 0.27582435D-01 0.17722846D+05 0.17722846D+05 0.17722846D+05 0.12396477D+01  1  2 12  8  6  5       21 0.740862459829D-03 0.100000000000D+01
0.108905231550D-04 0.000000000000D+00 0.000000000000D+00 0.520202731285D-04 0.000000000000D+00  6 2 -1 25 24 4 -4 4 0.18093293D+00 0.27582435D-01 0.17722846D+05 0.17722846D+05 0.17722846D+05 0.12396477D+01  1  2 12  8  6  5       21 0.740862459829D-03 0.100000000000D+01
-.370256158813D-03 0.000000000000D+00 0.000000000000D+00 0.521514318377D-04 0.000000000000D+00  6 2 -1 25 24 3 -3 4 0.18093293D+00 0.27582435D-01 0.17162459D+05 0.17162459D+05 0.17162459D+05 0.12412094D+01  1  2  5  8  6  5       21 -.253319791906D-01 0.100000000000D+01
-.370256158813D-03 0.000000000000D+00 0.000000000000D+00 0.521514318377D-04 0.000000000000D+00  6 2 -1 25 24 4 -4 4 0.18093293D+00 0.27582435D-01 0.17162459D+05 0.17162459D+05 0.17162459D+05 0.12412094D+01  1  2  5  8  6  5       21 -.253319791906D-01 0.100000000000D+01
0.325209062349D-03 0.000000000000D+00 0.000000000000D+00 0.521514318377D-04 0.793366762136D-07  6 2 -1 25 24 3 -3 4 0.18093293D+00 0.27582435D-01 0.17722846D+05 0.17722846D+05 0.17722846D+05 0.12396477D+01  1  2 11  8  6  5       21 0.221233803429D-01 0.100000000000D+01
0.325209062349D-03 0.000000000000D+00 0.000000000000D+00 0.521514318377D-04 0.793366762136D-07  6 2 -1 25 24 4 -4 4 0.18093293D+00 0.27582435D-01 0.17722846D+05 0.17722846D+05 0.17722846D+05 0.12396477D+01  1  2 11  8  6  5       21 0.221233803429D-01 0.100000000000D+01
  </mgrwgt>
  </event>
  <event>
  5     66 0.46179844E-03 0.35956149E+02 0.75467711E-02 0.11387541E+00
        2 -1    0    0  502    0 0.00000000E+00 0.00000000E+00 0.28334072E+04 0.28334072E+04 0.32000000E+00 0.0000E+00 0.9000E+01
       -1 -1    0    0    0  501 0.00000000E+00 0.00000000E+00 -.23607389E+02 0.23609557E+02 0.32000000E+00 0.0000E+00 0.9000E+01
       25  1    1    2    0    0 -.51642914E+02 0.12922811E+03 0.84265080E+03 0.86316410E+03 0.12500000E+03 0.0000E+00 0.9000E+01
       24  1    1    2    0    0 0.35039437E+02 -.97335362E+02 0.31309537E+03 0.33940811E+03 0.80419002E+02 0.0000E+00 0.9000E+01
       21  1    1    2  502  501 0.16603477E+02 -.31892748E+02 0.16540536E+04 0.16544446E+04 0.75000000E+00 0.0000E+00 0.9000E+01
#aMCatNLO 1  0  0  5  2 0.36675249D+01 0.00000000D+00  -5  6  0 0.00000000D+00 0.00000000D+00 0.00000000D+00 0.00000000D+00 0.00000000D+00
  <mgrwgt>
 0.1576939440D+00   10    2    0
 0.258635784225320D+03 0.000000000000000D+00 0.000000000000000D+00 0.258635784225320D+03
 0.258635784225320D+03 -.000000000000000D+00 -.000000000000000D+00 -.258635784225320D+03
 0.190218032340763D+03 -.516429871584030D+02 0.129228251233746D+03 -.345102997381408D+02
 0.173911543996342D+03 0.350393703312774D+02 -.973352337285346D+02 -.114350793537344D+03
 0.153141992113536D+03 0.166036168271256D+02 -.318930175052119D+02 0.148861093275484D+03
 0.000000000000000D+00 0.000000000000000D+00 0.000000000000000D+00 0.000000000000000D+00
 0.258635784225320D+03 0.000000000000000D+00 0.000000000000000D+00 0.258635784225320D+03
 0.258635784225320D+03 -.000000000000000D+00 -.000000000000000D+00 -.258635784225320D+03
 0.185173779463972D+03 -.498694376902284D+02 0.125821532997365D+03 -.186093960037627D+02
 0.166969205852471D+03 0.366498712894597D+02 -.100428760626093D+03 -.999117146395117D+02
 0.780870691011203D+02 -.848300721383267D+01 -.641706147522583D+02 0.436779252223644D+02
 0.870415140330780D+02 0.217025736146013D+02 0.387778423809860D+02 0.748431854209101D+02
0.986433043909D-03 0.000000000000D+00 0.000000000000D+00 0.188088452425D-04 0.000000000000D+00  6 2 -1 25 24 21 21 2 0.43590897D+00 0.36320742D-02 0.31337579D+05 0.31337579D+05 0.31337579D+05 0.12129152D+01  1  2  2  3  6  5       21 0.124887963856D+00 0.100000000000D+01
0.133808003621D-03 0.520555018712D-04 -.378816262239D-05 0.188088452425D-04 0.000000000000D+00  6 2 -1 25 24 21 21 4 0.43590897D+00 0.36320742D-02 0.31337579D+05 0.31337579D+05 0.31337579D+05 0.12129152D+01  1  2  3  3  6  5       21 0.249227468727D-01 0.100000000000D+01
0.283427065073D-05 0.000000000000D+00 0.000000000000D+00 0.188088452425D-04 0.000000000000D+00  6 2 -1 25 24 21 21 4 0.43590897D+00 0.36320742D-02 0.31337579D+05 0.31337579D+05 0.31337579D+05 0.12129152D+01  1  2 15  3  6  5       21 0.527904221610D-03 0.100000000000D+01
-.227221305730D-03 0.000000000000D+00 0.000000000000D+00 0.188088452425D-04 0.000000000000D+00  6 2 -1 25 24 21 21 4 0.43590897D+00 0.36320742D-02 0.31337579D+05 0.31337579D+05 0.31337579D+05 0.12129152D+01  1  2  4  3  6  5       21 -.423216768322D-01 0.100000000000D+01
-.301290179662D-03 0.000000000000D+00 0.000000000000D+00 0.188088452425D-04 0.000000000000D+00  6 2 -1 25 24 21 21 4 0.43590897D+00 0.36320742D-02 0.31337579D+05 0.31337579D+05 0.31337579D+05 0.12129152D+01  1  2  5  3  6  5       21 -.561175615789D-01 0.100000000000D+01
0.623829626249D-03 0.000000000000D+00 -.000000000000D+00 0.188088452425D-04 0.000000000000D+00  6 2 -1 25 24 21 21 4 0.43590897D+00 0.36320742D-02 0.31337579D+05 0.31337579D+05 0.31337579D+05 0.12129152D+01  1  2  6  3  6  5       21 0.116192958911D+00 0.100000000000D+01
-.139570088564D-04 0.000000000000D+00 0.000000000000D+00 0.188088452425D-04 0.000000000000D+00  6 2 -1 25 24 1 -1 4 0.43590897D+00 0.36320742D-02 0.31337579D+05 0.31337579D+05 0.31337579D+05 0.12129152D+01  1  2  5  6  6  5       21 -.259959785226D-02 0.100000000000D+01
-.139570088564D-04 0.000000000000D+00 0.000000000000D+00 0.188088452425D-04 0.000000000000D+00  6 2 -1 25 24 2 -2 4 0.43590897D+00 0.36320742D-02 0.31337579D+05 0.31337579D+05 0.31337579D+05 0.12129152D+01  1  2  5  7  6  5       21 -.259959785226D-02 0.100000000000D+01
-.139570088564D-04 0.000000000000D+00 0.000000000000D+00 0.188088452425D-04 0.000000000000D+00  6 2 -1 25 24 3 -3 4 0.43590897D+00 0.36320742D-02 0.31337579D+05 0.31337579D+05 0.31337579D+05 0.12129152D+01  1  2  5  8  6  5       21 -.259959785226D-02 0.100000000000D+01
-.139570088564D-04 0.000000000000D+00 0.000000000000D+00 0.188088452425D-04 0.000000000000D+00  6 2 -1 25 24 4 -4 4 0.43590897D+00 0.36320742D-02 0.31337579D+05 0.31337579D+05 0.31337579D+05 0.12129152D+01  1  2  5  8  6  5       21 -.259959785226D-02 0.100000000000D+01
  </mgrwgt>
  </event>
  <event>
  5     66 0.46179844E-03 0.41896605E+02 0.75467711E-02 0.11656920E+00
        2 -1    0    0  502    0 0.00000000E+00 0.00000000E+00 0.97403323E+03 0.97403328E+03 0.32000000E+00 0.0000E+00 0.9000E+01
       -1 -1    0    0    0  501 0.00000000E+00 0.00000000E+00 -.52146268E+02 0.52147250E+02 0.32000000E+00 0.0000E+00 0.9000E+01
       25  1    1    2    0    0 -.12661853E+03 0.39044179E+02 0.17115025E+03 0.24994821E+03 0.12500000E+03 0.0000E+00 0.9000E+01
       24  1    1    2    0    0 0.10775242E+03 0.16578079E+01 0.38607750E+03 0.40882317E+03 0.80419002E+02 0.0000E+00 0.9000E+01
       21  1    1    2  502  501 0.18866110E+02 -.40701987E+02 0.36465921E+03 0.36740915E+03 0.75000000E+00 0.0000E+00 0.9000E+01
#aMCatNLO 1  0  0  5  2 0.84452668D+01 0.00000000D+00  -5  6  0 0.00000000D+00 0.00000000D+00 0.00000000D+00 0.00000000D+00 0.00000000D+00
  <mgrwgt>
 0.1315408400D+00   14    2    0
 0.225372421119599D+03 0.000000000000000D+00 0.000000000000000D+00 0.225372421119599D+03
 0.225372421119599D+03 -.000000000000000D+00 -.000000000000000D+00 -.225372421119599D+03
 0.218995887792568D+03 -.126618840209292D+03 0.390448564243273D+02 -.121562195442961D+03
 0.141113940472287D+03 0.107752214454967D+03 0.165824417387045D+01 0.428093301460814D+02
 0.906350139743426D+02 0.188666257543247D+02 -.407031005981977D+02 0.787528652968800D+02
 0.000000000000000D+00 0.000000000000000D+00 0.000000000000000D+00 -.000000000000000D+00
 0.225372421119599D+03 0.000000000000000D+00 0.000000000000000D+00 0.225372421119599D+03
 0.225372421119599D+03 -.000000000000000D+00 -.000000000000000D+00 -.225372421119599D+03
 0.215029667559547D+03 -.125396527802358D+03 0.364078239464651D+02 -.116460032205752D+03
 0.142759143151782D+03 0.108551664136741D+03 -.664988323339659D-01 0.461463843665986D+02
 0.840798268917722D+02 0.921628256434287D+01 -.392939103001831D+02 0.737595149059817D+02
 0.887620463609709D+01 0.762858110127457D+01 0.295258518605199D+01 -.344586706682866D+01
0.219279107607D-03 0.000000000000D+00 0.000000000000D+00 0.795026743120D-05 0.000000000000D+00  6 2 -1 25 24 21 21 2 0.14985135D+00 0.80225823D-02 0.32667962D+05 0.32667962D+05 0.32667962D+05 0.12110341D+01  1  2  2  3  6  5       21 0.849055768944D-01 0.100000000000D+01
0.111607530776D-04 0.115716764223D-04 -.842089510724D-06 0.795026743120D-05 0.000000000000D+00  6 2 -1 25 24 21 21 4 0.14985135D+00 0.80225823D-02 0.32667962D+05 0.32667962D+05 0.32667962D+05 0.12110341D+01  1  2  3  3  6  5       21 0.633789748152D-02 0.100000000000D+01
0.970699082477D-05 0.000000000000D+00 0.000000000000D+00 0.795026743120D-05 0.000000000000D+00  6 2 -1 25 24 21 21 4 0.14985135D+00 0.80225823D-02 0.32667962D+05 0.32667962D+05 0.32667962D+05 0.12110341D+01  1  2 15  3  6  5       21 0.551234421852D-02 0.100000000000D+01
0.167212317301D-03 0.000000000000D+00 0.000000000000D+00 0.794077117246D-05 0.000000000000D+00  6 2 -1 25 24 21 21 4 0.14985135D+00 0.80225823D-02 0.33196325D+05 0.33196325D+05 0.33196325D+05 0.12103106D+01  1  2 12  3  6  5       21 0.947409894130D-01 0.100000000000D+01
-.114776737707D-03 0.000000000000D+00 0.000000000000D+00 0.795026743120D-05 0.000000000000D+00  6 2 -1 25 24 21 21 4 0.14985135D+00 0.80225823D-02 0.32667962D+05 0.32667962D+05 0.32667962D+05 0.12110341D+01  1  2  4  3  6  5       21 -.651786838929D-01 0.100000000000D+01
0.526677684338D-06 0.000000000000D+00 0.000000000000D+00 0.795026743120D-05 0.534492935581D-06  6 2 -1 25 24 21 21 4 0.14985135D+00 0.80225823D-02 0.33196325D+05 0.33196325D+05 0.33196325D+05 0.12103106D+01  1  2 11  3  6  5       21 0.298410821172D-03 0.100000000000D+01
0.217022107601D-05 0.000000000000D+00 0.000000000000D+00 0.794077117246D-05 0.000000000000D+00  6 2 -1 25 24 1 -1 4 0.14985135D+00 0.80225823D-02 0.33196325D+05 0.33196325D+05 0.33196325D+05 0.12103106D+01  1  2 12  6  6  5       21 0.122962766921D-02 0.100000000000D+01
0.170838112393D-08 0.000000000000D+00 0.000000000000D+00 0.794077117246D-05 0.264219884977D-08  6 2 -1 25 24 1 -1 4 0.14985135D+00 0.80225823D-02 0.33196325D+05 0.33196325D+05 0.33196325D+05 0.12103106D+01  1  2 11  6  6  5       21 0.967953321786D-06 0.100000000000D+01
0.217022107601D-05 0.000000000000D+00 0.000000000000D+00 0.794077117246D-05 0.000000000000D+00  6 2 -1 25 24 2 -2 4 0.14985135D+00 0.80225823D-02 0.33196325D+05 0.33196325D+05 0.33196325D+05 0.12103106D+01  1  2 12  7  6  5       21 0.122962766921D-02 0.100000000000D+01
0.289047954066D-08 0.000000000000D+00 0.000000000000D+00 0.794077117246D-05 0.325020139106D-08  6 2 -1 25 24 2 -2 4 0.14985135D+00 0.80225823D-02 0.33196325D+05 0.33196325D+05 0.33196325D+05 0.12103106D+01  1  2 11  7  6  5       21 0.163771961289D-05 0.100000000000D+01
0.217022107601D-05 0.000000000000D+00 0.000000000000D+00 0.794077117246D-05 0.000000000000D+00  6 2 -1 25 24 3 -3 4 0.14985135D+00 0.80225823D-02 0.33196325D+05 0.33196325D+05 0.33196325D+05 0.12103106D+01  1  2 12  8  6  5       21 0.122962766921D-02 0.100000000000D+01
0.217022107601D-05 0.000000000000D+00 0.000000000000D+00 0.794077117246D-05 0.000000000000D+00  6 2 -1 25 24 4 -4 4 0.14985135D+00 0.80225823D-02 0.33196325D+05 0.33196325D+05 0.33196325D+05 0.12103106D+01  1  2 12  8  6  5       21 0.122962766921D-02 0.100000000000D+01
0.281397821715D-08 0.000000000000D+00 0.000000000000D+00 0.794077117246D-05 0.243087278453D-08  6 2 -1 25 24 3 -3 4 0.14985135D+00 0.80225823D-02 0.33196325D+05 0.33196325D+05 0.33196325D+05 0.12103106D+01  1  2 11  8  6  5       21 0.159437465362D-05 0.100000000000D+01
0.281397821715D-08 0.000000000000D+00 0.000000000000D+00 0.794077117246D-05 0.243087278453D-08  6 2 -1 25 24 4 -4 4 0.14985135D+00 0.80225823D-02 0.33196325D+05 0.33196325D+05 0.33196325D+05 0.12103106D+01  1  2 11  8  6  5       21 0.159437465362D-05 0.100000000000D+01
  </mgrwgt>
  </event>
  <event>
  6     66 0.46179844E-03 0.23637004E+02 0.75467711E-02 0.11446804E+00
        2 -1    0    0  502    0 0.00000000E+00 0.00000000E+00 0.76226807E+03 0.76226813E+03 0.32000000E+00 0.0000E+00 0.9000E+01
       -1 -1    0    0    0  501 0.00000000E+00 0.00000000E+00 -.64360473E+02 0.64361268E+02 0.32000000E+00 0.0000E+00 0.9000E+01
       25  1    1    2    0    0 -.10741307E+03 0.49713606E+02 0.38110207E+03 0.41817795E+03 0.12500000E+03 0.0000E+00 0.9000E+01
       24  1    1    2    0    0 0.12342492E+03 -.86604486E+02 0.27059415E+03 0.32003509E+03 0.80419002E+02 0.0000E+00 0.9000E+01
        4  1    1    2  502    0 -.35981185E+02 0.15047688E+02 0.76370269E+01 0.39771916E+02 0.15500000E+01 0.0000E+00 0.9000E+01
       -4  1    1    2    0  501 0.19969336E+02 0.21843192E+02 0.38574347E+02 0.48644446E+02 0.15500000E+01 0.0000E+00 0.9000E+01
#aMCatNLO 2  0  0  5  1 0.28470358D+02 0.00000000D+00  -5  6  0 0.00000000D+00 0.00000000D+00 0.00000000D+00 0.00000000D+00 0.00000000D+00
  <mgrwgt>
 0.4848214578D-03    2    2    0
 0.221495574735365D+03 0.000000000000000D+00 0.000000000000000D+00 0.221495574735365D+03
 0.221495574735365D+03 -.000000000000000D+00 -.000000000000000D+00 -.221495574735365D+03
 0.179546321566455D+03 -.104840729002624D+03 0.437869917045854D+02 0.608523005950131D+02
 0.175849460070861D+03 0.125906141514076D+03 -.923211493238033D+02 0.895910539130293D+01
 0.875953678334132D+02 -.210654125114519D+02 0.485341576192179D+02 -.698114059863161D+02
 0.000000000000000D+00 0.000000000000000D+00 0.000000000000000D+00 0.000000000000000D+00
 0.221495574735365D+03 0.000000000000000D+00 0.000000000000000D+00 0.221495574735365D+03
 0.221495574735365D+03 -.000000000000000D+00 -.000000000000000D+00 -.221495574735365D+03
 0.179933651988884D+03 -.107453408268598D+03 0.498065361703914D+02 0.521938035041176D+02
 0.170812489395907D+03 0.123386622891895D+03 -.865162445365357D+02 0.609345455315484D+00
 0.614096001242443D+02 -.361957042741283D+02 0.140622483656873D+02 -.475737653588735D+02
 0.308354079616946D+02 0.202624896508312D+02 0.226474600004570D+02 -.522938360055954D+01
-.218554703592D-05 0.000000000000D+00 0.000000000000D+00 0.674378700978D-05 0.000000000000D+00  6 2 -1 25 24 4 -4 4 0.11727208D+00 0.99016775D-02 0.42483161D+05 0.42483161D+05 0.42483161D+05 0.11993531D+01  1  2 13  8  6  5       21 -.119373351405D-02 0.100000000000D+01
0.307318241490D-05 0.000000000000D+00 0.000000000000D+00 0.674378700978D-05 0.121763661628D-08  6 2 -1 25 24 4 -4 4 0.11727208D+00 0.99016775D-02 0.42483161D+05 0.42483161D+05 0.42483161D+05 0.11993531D+01  1  2  1  8  6  5       21 0.167855497190D-02 0.100000000000D+01
  </mgrwgt>
  </event>
  <event>
  6     66 -.46179844E-03 0.17514974E+02 0.75467711E-02 0.11907013E+00
        2 -1    0    0  503    0 0.00000000E+00 0.00000000E+00 0.23451526E+04 0.23451527E+04 0.32000000E+00 0.0000E+00 0.9000E+01
       -1 -1    0    0    0  501 0.00000000E+00 0.00000000E+00 -.21259528E+02 0.21261936E+02 0.32000000E+00 0.0000E+00 0.9000E+01
       25  1    1    2    0    0 -.32365088E+02 0.36511840E+02 0.11033494E+04 0.11114789E+04 0.12500000E+03 0.0000E+00 0.9000E+01
       24  1    1    2    0    0 0.87038758E+02 -.40488319E+02 0.60691717E+03 0.61970212E+03 0.80419002E+02 0.0000E+00 0.9000E+01
       21  1    1    2  502  501 -.30158223E+02 -.57208899E+01 0.11902034E+02 0.32931260E+02 0.75000000E+00 0.0000E+00 0.9000E+01
       21  1    1    2  503  502 -.24515447E+02 0.96973691E+01 0.60172454E+03 0.60230228E+03 0.75000000E+00 0.0000E+00 0.9000E+01
#aMCatNLO 2  0  0  1  5 0.26363727D+02 0.00000000D+00  -5  6  0 0.00000000D+00 0.00000000D+00 0.00000000D+00 0.00000000D+00 0.00000000D+00
  <mgrwgt>
 -.1054285584D+00    2    2    0
 0.190743707707804D+03 0.000000000000000D+00 0.000000000000000D+00 0.190743707707804D+03
 0.190743707707804D+03 0.000000000000000D+00 0.000000000000000D+00 -.190743707707804D+03
 0.161913040661556D+03 -.426485451323969D+02 0.405797895513394D+02 0.844109887060301D+02
 0.119228429122668D+03 0.791833401359683D+02 -.373808633304869D+02 0.899288931698047D+01
 0.100345945631385D+03 -.365347950035714D+02 -.319892622085254D+01 -.934038780230105D+02
 0.000000000000000D+00 -.000000000000000D+00 0.000000000000000D+00 0.000000000000000D+00
 0.257228597384950D+03 0.000000000000000D+00 0.000000000000000D+00 0.257228597384950D+03
 0.193830205872287D+03 0.000000000000000D+00 0.000000000000000D+00 -.193830205872287D+03
 0.158526969983718D+03 -.323646239336783D+02 0.365118654072994D+02 0.844109887060301D+02
 0.125551560433896D+03 0.870390948482271D+02 -.404882980964821D+02 0.899288931698047D+01
 0.983187685363377D+02 -.301590235718058D+02 -.572093645828914D+01 -.934038780230105D+02
 0.686615043032853D+02 -.245154473427430D+02 0.969736914747175D+01 0.633983915126632D+02
-.557710740076D-03 0.000000000000D+00 0.000000000000D+00 0.188584804356D-04 0.000000000000D+00  6 2 -1 25 24 21 21 4 0.36476603D+00 0.32187653D-02 0.25039033D+05 0.25039033D+05 0.25039033D+05 0.12232250D+01  1  2 13  1  6  1        2 -.230528404864D+00 0.100000000000D+01
0.300255727168D-03 0.000000000000D+00 0.000000000000D+00 0.190750875942D-04 0.156064303577D-06  6 2 -1 25 24 21 21 4 0.36078913D+00 0.32708494D-02 0.25039033D+05 0.25039033D+05 0.25039033D+05 0.12232250D+01  1  2  1  1  6  1        2 0.125099846473D+00 0.100000000000D+01
  </mgrwgt>
  </event>
  <event>
  6     66 -.46179844E-03 0.90146631E+01 0.75467711E-02 0.12033306E+00
        2 -1    0    0  502    0 0.00000000E+00 0.00000000E+00 0.35268891E+04 0.35268891E+04 0.32000000E+00 0.0000E+00 0.9000E+01
       -1 -1    0    0    0  501 0.00000000E+00 0.00000000E+00 -.64729320E+01 0.64808371E+01 0.32000000E+00 0.0000E+00 0.9000E+01
       25  1    1    2    0    0 0.77601044E+02 0.53629187E+02 0.22211903E+04 0.22267037E+04 0.12500000E+03 0.0000E+00 0.9000E+01
       24  1    1    2    0    0 -.55797009E+02 -.36859982E+02 0.93724253E+03 0.94306031E+03 0.80419002E+02 0.0000E+00 0.9000E+01
        4  1    1    2  502    0 -.17461458E+02 -.41115727E+01 0.27466465E+03 0.27525421E+03 0.15500000E+01 0.0000E+00 0.9000E+01
       -4  1    1    2    0  501 -.43425773E+01 -.12657632E+02 0.87318614E+02 0.88351663E+02 0.15500000E+01 0.0000E+00 0.9000E+01
#aMCatNLO 2  0  0  5  1 0.10137990D+02 0.00000000D+00  -5  6  0 0.00000000D+00 0.00000000D+00 0.00000000D+00 0.00000000D+00 0.00000000D+00
  <mgrwgt>
 -.6121340227D-02    2    2    0
 0.151140016567435D+03 0.000000000000000D+00 0.000000000000000D+00 0.151140016567435D+03
 0.151140016567435D+03 -.000000000000000D+00 -.000000000000000D+00 -.151140016567435D+03
 0.161875404975438D+03 0.804634280649782D+02 0.558306098100328D+02 0.314201605380061D+02
 0.106621485287339D+03 -.538847336542379D+02 -.353892754179087D+02 -.272939523505643D+02
 0.337831428720932D+02 -.265786944107403D+02 -.204413343921241D+02 -.412620818744173D+01
 0.000000000000000D+00 0.000000000000000D+00 0.000000000000000D+00 -.000000000000000D+00
 0.151140016567435D+03 0.000000000000000D+00 0.000000000000000D+00 0.151140016567435D+03
 0.151140016567435D+03 -.000000000000000D+00 -.000000000000000D+00 -.151140016567435D+03
 0.159688086926893D+03 0.776728787395197D+02 0.536844339664081D+02 0.309869418367326D+02
 0.108128775997116D+03 -.557483506750140D+02 -.368225594653427D+02 -.275832694889665D+02
 0.172622736347579D+02 -.161875847845041D+02 -.308122203322629D+01 0.514337055516202D+01
 0.172008965761035D+02 -.573694328000155D+01 -.137806524678391D+02 -.854704290292802D+01
-.625057702929D-05 0.000000000000D+00 0.000000000000D+00 0.179434818815D-04 0.000000000000D+00  6 2 -1 25 24 4 -4 4 0.54259893D+00 0.99644489D-03 0.21405084D+05 0.21405084D+05 0.21405084D+05 0.12305929D+01  1  2 13  8  6  5       21 -.307730809334D-02 0.100000000000D+01
-.618298745262D-05 0.000000000000D+00 0.000000000000D+00 0.179434818815D-04 0.000000000000D+00  6 2 -1 25 24 4 -4 4 0.54259893D+00 0.99644489D-03 0.21405084D+05 0.21405084D+05 0.21405084D+05 0.12305929D+01  1  2 13  8  6  5       21 -.304403213332D-02 0.100000000000D+01
  </mgrwgt>
  </event>
  <event>
  6     66 -.46179844E-03 0.36961366E+02 0.75467711E-02 0.12039221E+00
        2 -1    0    0  502    0 0.00000000E+00 0.00000000E+00 0.40071559E+03 0.40071571E+03 0.32000000E+00 0.0000E+00 0.9000E+01
       -1 -1    0    0    0  501 0.00000000E+00 0.00000000E+00 -.66114895E+02 0.66115669E+02 0.32000000E+00 0.0000E+00 0.9000E+01
       25  1    1    2    0    0 -.13435121E+02 -.35187374E+02 0.23203373E+03 0.26623919E+03 0.12500000E+03 0.0000E+00 0.9000E+01
       24  1    1    2    0    0 -.75848608E+01 0.22067541E+02 0.83709489E+02 0.11840186E+03 0.80419002E+02 0.0000E+00 0.9000E+01
       21  1    1    2  502  503 0.33360132E+02 0.38972422E+02 0.10928249E+02 0.52457003E+02 0.75000000E+00 0.0000E+00 0.9000E+01
       21  1    1    2  503  501 -.12340151E+02 -.25852589E+02 0.79292213E+01 0.29733327E+02 0.75000000E+00 0.0000E+00 0.9000E+01
#aMCatNLO 2  0  0  5  1 0.33851271D+02 0.00000000D+00  -5  6  0 0.00000000D+00 0.00000000D+00 0.00000000D+00 0.00000000D+00 0.00000000D+00
  <mgrwgt>
 -.7041180688D-01    2    2    0
 0.162768176868711D+03 0.000000000000000D+00 0.000000000000000D+00 0.162768176868711D+03
 0.162768176868711D+03 -.000000000000000D+00 -.000000000000000D+00 -.162768176868711D+03
 0.152037481841833D+03 -.192315521976449D+02 -.388052751397004D+02 0.749312612079037D+02
 0.839037642575366D+02 -.108753316812920D+02 0.200137609553150D+02 0.733500071296118D+01
 0.895951076380519D+02 0.301068838789369D+02 0.187915141843855D+02 -.822662619208649D+02
 0.000000000000000D+00 0.000000000000000D+00 -.000000000000000D+00 0.000000000000000D+00
 0.162768176868711D+03 0.000000000000000D+00 0.000000000000000D+00 0.162768176868711D+03
 0.162768176868711D+03 -.000000000000000D+00 -.000000000000000D+00 -.162768176868711D+03
 0.143246086119707D+03 -.133940506174934D+02 -.351617398543521D+02 0.589804429203895D+02
 0.837555058496110D+02 -.756085244719857D+01 0.220825264838821D+02 -.172172591140921D+01
 0.636400230767519D+02 0.333000148519687D+02 0.391102944488394D+02 -.375705525138140D+02
 0.348947386913519D+02 -.123451117872768D+02 -.260310810783693D+02 -.196881644951664D+02
-.676137719612D-04 0.000000000000D+00 0.000000000000D+00 0.243937331513D-04 0.000000000000D+00  6 2 -1 25 24 21 21 4 0.61648621D-01 0.10171592D-01 0.21675858D+05 0.21675858D+05 0.21675858D+05 0.12299972D+01  1  2 13  3  6  5       21 -.805105180733D-01 0.100000000000D+01
0.848102797072D-05 0.000000000000D+00 0.000000000000D+00 0.250033331317D-04 0.271195391477D-07  6 2 -1 25 24 21 21 4 0.61648621D-01 0.10171592D-01 0.21675858D+05 0.21675858D+05 0.21675858D+05 0.12299972D+01  1  2  1  3  6  5       21 0.100987111932D-01 0.100000000000D+01
  </mgrwgt>
  </event>
  <event>
  5     66 -.46179844E-03 0.20003925E+02 0.75467711E-02 0.12291588E+00
        2 -1    0    0  502    0 0.00000000E+00 0.00000000E+00 0.77549385E+03 0.77549392E+03 0.32000000E+00 0.0000E+00 0.9000E+01
       -1 -1    0    0    0  501 0.00000000E+00 0.00000000E+00 -.23513943E+02 0.23516120E+02 0.32000000E+00 0.0000E+00 0.9000E+01
       25  1    1    2    0    0 -.54127852E+02 -.28642891E+02 0.52210415E+03 0.54034062E+03 0.12500000E+03 0.0000E+00 0.9000E+01
       24  1    1    2    0    0 0.56230146E+02 0.87607504E+01 0.19451664E+03 0.21804248E+03 0.80419002E+02 0.0000E+00 0.9000E+01
       21  1    1    2  502  501 -.21022945E+01 0.19882140E+02 0.35359113E+02 0.40626943E+02 0.75000000E+00 0.0000E+00 0.9000E+01
#aMCatNLO 1  0  0  5  1 0.33851271D+02 0.00000000D+00  -5  6  0 0.00000000D+00 0.00000000D+00 0.00000000D+00 0.00000000D+00 0.00000000D+00
  <mgrwgt>
 -.1115972931D+00    1    2    0
 0.135040046318346D+03 0.000000000000000D+00 0.000000000000000D+00 0.135040046318346D+03
 0.135040046318346D+03 -.000000000000000D+00 -.000000000000000D+00 -.135040046318346D+03
 0.144868954828118D+03 -.541271801396514D+02 -.286492417370125D+02 0.401432857526059D+02
 0.103470506964092D+03 0.562306257989296D+02 0.875621420171557D+01 -.316287099349648D+02
 0.217406308444806D+02 -.210344565927824D+01 0.198930275352970D+02 -.851457581764116D+01
 0.000000000000000D+00 0.000000000000000D+00 0.000000000000000D+00 -.000000000000000D+00
 0.135040046318346D+03 0.000000000000000D+00 0.000000000000000D+00 0.135040046318346D+03
 0.135040046318346D+03 -.000000000000000D+00 -.000000000000000D+00 -.135040046318346D+03
 0.144072735999118D+03 -.544446284510002D+02 -.256470210849879D+02 0.388582809780640D+02
 0.103836966549960D+03 0.560028656331722D+02 0.109102224257315D+02 -.325506644390072D+02
 0.104191763269394D+02 -.576314928332138D+01 0.829028503464367D+01 0.257225965142892D+01
 0.117512137606745D+02 0.420491210114943D+01 0.644651362461277D+01 -.887987619048571D+01
-.408407951593D-04 0.000000000000D+00 0.000000000000D+00 0.524570942794D-04 0.000000000000D+00  6 2 -1 25 24 21 21 4 0.11930692D+00 0.36177022D-02 0.16604617D+05 0.16604617D+05 0.16604617D+05 0.12428220D+01  1  2 14  3  6  5       21 -.111597293086D+00 0.100000000000D+01
  </mgrwgt>
  </event>
  <event>
  5     66 -.46179844E-03 0.20444050E+02 0.75467711E-02 0.12118953E+00
        2 -1    0    0  502    0 0.00000000E+00 0.00000000E+00 0.35406467E+04 0.35406468E+04 0.32000000E+00 0.0000E+00 0.9000E+01
       -1 -1    0    0    0  501 0.00000000E+00 0.00000000E+00 -.58078793E+01 0.58166883E+01 0.32000000E+00 0.0000E+00 0.9000E+01
       25  1    1    2    0    0 0.53860588E+02 -.61959620E+02 0.16263122E+04 0.16331737E+04 0.12500000E+03 0.0000E+00 0.9000E+01
       24  1    1    2    0    0 -.64324275E+02 0.44409892E+02 0.17214281E+04 0.17250773E+04 0.80419002E+02 0.0000E+00 0.9000E+01
       21  1    1    2  502  501 0.10463686E+02 0.17549728E+02 0.18709863E+03 0.18821249E+03 0.75000000E+00 0.0000E+00 0.9000E+01
#aMCatNLO 1  0  0  5  1 0.70653168D+00 0.00000000D+00  -5  6  0 0.00000000D+00 0.00000000D+00 0.00000000D+00 0.00000000D+00 0.00000000D+00
  <mgrwgt>
 -.5135241132D+01   18    2    0
 0.143454853361147D+03 0.000000000000000D+00 0.000000000000000D+00 0.143454853361147D+03
 0.143454853361147D+03 -.000000000000000D+00 -.000000000000000D+00 -.143454853361147D+03
 0.150707714302853D+03 0.538571935243575D+02 -.619653140380095D+02 -.186418269555643D+02
 0.114854066069924D+03 -.643268621140810D+02 0.444055525502121D+02 0.247879456932239D+02
 0.213479263495165D+02 0.104696685897235D+02 0.175597614877973D+02 -.614611873765948D+01
 0.000000000000000D+00 0.000000000000000D+00 0.000000000000000D+00 -.000000000000000D+00
 0.143454853361147D+03 0.000000000000000D+00 0.000000000000000D+00 0.143454853361147D+03
 0.143454853361147D+03 -.000000000000000D+00 -.000000000000000D+00 -.143454853361147D+03
 0.150680609366738D+03 0.539621693251014D+02 -.617892482908222D+02 -.187034519946402D+02
 0.114851115952769D+03 -.642468540861513D+02 0.445397422693532D+02 0.247409777462055D+02
 0.205487000887729D+02 0.957220550243711D+01 0.172941570704619D+02 -.561552209323786D+01
 0.829281314013118D+00 0.712479258612787D+00 -.446510489929392D-01 -.422003658327423D+00
0.585689849533D-03 0.000000000000D+00 0.000000000000D+00 0.494267207558D-04 0.000000000000D+00  6 2 -1 25 24 21 21 2 0.54471556D+00 0.89419862D-03 0.19900978D+05 0.19900978D+05 0.19900978D+05 0.12340634D+01  1  2  2  3  6  5       21 0.219150972767D+00 0.100000000000D+01
0.147875331681D-03 0.309077025010D-04 -.224920323788D-05 0.494267207558D-04 0.000000000000D+00  6 2 -1 25 24 21 21 4 0.54471556D+00 0.89419862D-03 0.19900978D+05 0.19900978D+05 0.19900978D+05 0.12340634D+01  1  2  3  3  6  5       21 0.842648396990D-01 0.100000000000D+01
0.156406869188D-04 0.000000000000D+00 0.000000000000D+00 0.494267207558D-04 0.000000000000D+00  6 2 -1 25 24 21 21 4 0.54471556D+00 0.89419862D-03 0.19900978D+05 0.19900978D+05 0.19900978D+05 0.12340634D+01  1  2 15  3  6  5       21 0.891264256864D-02 0.100000000000D+01
-.102642486972D-01 0.000000000000D+00 0.000000000000D+00 0.494267207558D-04 0.000000000000D+00  6 2 -1 25 24 21 21 4 0.54471556D+00 0.89419862D-03 0.19900978D+05 0.19900978D+05 0.19900978D+05 0.12340634D+01  1  2  4  3  6  5       21 -.584894898472D+01 0.100000000000D+01
-.940260513231D-02 0.000000000000D+00 0.000000000000D+00 0.494267207558D-04 0.000000000000D+00  6 2 -1 25 24 21 21 4 0.54471556D+00 0.89419862D-03 0.19900978D+05 0.19900978D+05 0.19900978D+05 0.12340634D+01  1  2  5  3  6  5       21 -.535795257545D+01 0.100000000000D+01
0.102297112752D-01 0.000000000000D+00 -.000000000000D+00 0.494267207558D-04 0.000000000000D+00  6 2 -1 25 24 21 21 4 0.54471556D+00 0.89419862D-03 0.19900978D+05 0.19900978D+05 0.19900978D+05 0.12340634D+01  1  2  6  3  6  5       21 0.582926828276D+01 0.100000000000D+01
0.368884405294D-11 0.000000000000D+00 0.000000000000D+00 0.494264850236D-04 0.000000000000D+00  6 2 -1 25 24 1 -1 4 0.54471556D+00 0.89419862D-03 0.19902203D+05 0.19902203D+05 0.19902203D+05 0.12340605D+01  1  2 12  6  6  5       21 0.210201789503D-08 0.100000000000D+01
0.367616599471D-11 0.000000000000D+00 0.000000000000D+00 0.494264850236D-04 0.000000000000D+00  6 2 -1 25 24 1 -1 4 0.54471556D+00 0.89419862D-03 0.19902203D+05 0.19902203D+05 0.19902203D+05 0.12340605D+01  1  2 12  6  6  5       21 0.209479354375D-08 0.100000000000D+01
-.306826000036D-04 0.000000000000D+00 0.000000000000D+00 0.494267207558D-04 0.000000000000D+00  6 2 -1 25 24 1 -1 4 0.54471556D+00 0.89419862D-03 0.19900978D+05 0.19900978D+05 0.19900978D+05 0.12340634D+01  1  2  5  6  6  5       21 -.174840816345D-01 0.100000000000D+01
0.368884405294D-11 0.000000000000D+00 0.000000000000D+00 0.494264850236D-04 0.000000000000D+00  6 2 -1 25 24 2 -2 4 0.54471556D+00 0.89419862D-03 0.19902203D+05 0.19902203D+05 0.19902203D+05 0.12340605D+01  1  2 12  7  6  5       21 0.210201789503D-08 0.100000000000D+01
0.367616599471D-11 0.000000000000D+00 0.000000000000D+00 0.494264850236D-04 0.000000000000D+00  6 2 -1 25 24 2 -2 4 0.54471556D+00 0.89419862D-03 0.19902203D+05 0.19902203D+05 0.19902203D+05 0.12340605D+01  1  2 12  7  6  5       21 0.209479354375D-08 0.100000000000D+01
-.306826000036D-04 0.000000000000D+00 0.000000000000D+00 0.494267207558D-04 0.000000000000D+00  6 2 -1 25 24 2 -2 4 0.54471556D+00 0.89419862D-03 0.19900978D+05 0.19900978D+05 0.19900978D+05 0.12340634D+01  1  2  5  7  6  5       21 -.174840816345D-01 0.100000000000D+01
0.368884405294D-11 0.000000000000D+00 0.000000000000D+00 0.494264850236D-04 0.000000000000D+00  6 2 -1 25 24 3 -3 4 0.54471556D+00 0.89419862D-03 0.19902203D+05 0.19902203D+05 0.19902203D+05 0.12340605D+01  1  2 12  8  6  5       21 0.210201789503D-08 0.100000000000D+01
0.368884405294D-11 0.000000000000D+00 0.000000000000D+00 0.494264850236D-04 0.000000000000D+00  6 2 -1 25 24 4 -4 4 0.54471556D+00 0.89419862D-03 0.19902203D+05 0.19902203D+05 0.19902203D+05 0.12340605D+01  1  2 12  8  6  5       21 0.210201789503D-08 0.100000000000D+01
0.367616599471D-11 0.000000000000D+00 0.000000000000D+00 0.494264850236D-04 0.000000000000D+00  6 2 -1 25 24 3 -3 4 0.54471556D+00 0.89419862D-03 0.19902203D+05 0.19902203D+05 0.19902203D+05 0.12340605D+01  1  2 12  8  6  5       21 0.209479354375D-08 0.100000000000D+01
0.367616599471D-11 0.000000000000D+00 0.000000000000D+00 0.494264850236D-04 0.000000000000D+00  6 2 -1 25 24 4 -4 4 0.54471556D+00 0.89419862D-03 0.19902203D+05 0.19902203D+05 0.19902203D+05 0.12340605D+01  1  2 12  8  6  5       21 0.209479354375D-08 0.100000000000D+01
-.306826000036D-04 0.000000000000D+00 0.000000000000D+00 0.494267207558D-04 0.000000000000D+00  6 2 -1 25 24 3 -3 4 0.54471556D+00 0.89419862D-03 0.19900978D+05 0.19900978D+05 0.19900978D+05 0.12340634D+01  1  2  5  8  6  5       21 -.174840816345D-01 0.100000000000D+01
-.306826000036D-04 0.000000000000D+00 0.000000000000D+00 0.494267207558D-04 0.000000000000D+00  6 2 -1 25 24 4 -4 4 0.54471556D+00 0.89419862D-03 0.19900978D+05 0.19900978D+05 0.19900978D+05 0.12340634D+01  1  2  5  8  6  5       21 -.174840816345D-01 0.100000000000D+01
  </mgrwgt>
  </event>
  <event>
  5     66 0.46179844E-03 0.32408575E+02 0.75467711E-02 0.11615617E+00
        2 -1    0    0  502    0 0.00000000E+00 0.00000000E+00 0.83806184E+02 0.83806795E+02 0.32000000E+00 0.0000E+00 0.9000E+01
       -1 -1    0    0    0  501 0.00000000E+00 0.00000000E+00 -.27065016E+03 0.27065035E+03 0.32000000E+00 0.0000E+00 0.9000E+01
       25  1    1    2    0    0 0.78406811E+02 -.48146246E+02 -.54201666E+02 0.16440350E+03 0.12500000E+03 0.0000E+00 0.9000E+01
       24  1    1    2    0    0 -.59713129E+02 0.21679680E+02 -.89289991E+02 0.13592492E+03 0.80419002E+02 0.0000E+00 0.9000E+01
       21  1    1    2  502  501 -.18693682E+02 0.26466566E+02 -.43352324E+02 0.54128729E+02 0.75000000E+00 0.0000E+00 0.9000E+01
#aMCatNLO 1  0  0  2  1 0.74691478D+02 0.00000000D+00  -5  6  0 0.00000000D+00 0.00000000D+00 0.00000000D+00 0.00000000D+00 0.00000000D+00
  <mgrwgt>
 0.1983975025D+00    4    2    0
 0.150606438397815D+03 0.000000000000000D+00 0.000000000000000D+00 0.150606438397815D+03
 0.150606438397815D+03 0.000000000000000D+00 0.000000000000000D+00 -.150606438397815D+03
 0.159845247806592D+03 0.784088710847532D+02 -.481491631734339D+02 0.381996108260733D+02
 0.104563382298315D+03 -.597117811643969D+02 0.216777720296356D+02 -.207572241231649D+02
 0.368042466907237D+02 -.186970899203563D+02 0.264713911437983D+02 -.174423867029084D+02
 0.000000000000000D+00 -.000000000000000D+00 0.000000000000000D+00 0.000000000000000D+00
 0.231562446667024D+03 0.000000000000000D+00 0.000000000000000D+00 0.231562446667024D+03
 0.173424200004278D+03 0.000000000000000D+00 0.000000000000000D+00 -.173424200004278D+03
 0.182350982525601D+03 0.921403862669293D+02 -.876231691926833D+02 0.381996108260733D+02
 0.977884033096098D+02 -.515918886292913D+02 -.166449446856321D+01 -.207572241231649D+02
 0.301959393793028D+02 -.160085329151079D+02 0.187425925370702D+02 -.174423867029084D+02
 0.946513214567888D+02 -.245399647225301D+02 0.705450711241763D+02 0.581382466627456D+02
0.403183836159D-03 0.000000000000D+00 0.000000000000D+00 0.196341465411D-04 0.000000000000D+00  6 2 -1 25 24 21 21 2 0.12893321D-01 0.41638548D-01 0.21040178D+05 0.21040178D+05 0.21040178D+05 0.12314092D+01  1  2  2  2  6  2       -1 0.181537862811D+00 0.100000000000D+01
0.439421717152D-04 0.212765955756D-04 -.154833209159D-05 0.196341465411D-04 0.000000000000D+00  6 2 -1 25 24 21 21 4 0.12893321D-01 0.41638548D-01 0.21040178D+05 0.21040178D+05 0.21040178D+05 0.12314092D+01  1  2  3  2  6  2       -1 0.300020160792D-01 0.100000000000D+01
0.932963676932D-05 0.000000000000D+00 0.000000000000D+00 0.196341465411D-04 0.000000000000D+00  6 2 -1 25 24 21 21 4 0.12893321D-01 0.41638548D-01 0.21040178D+05 0.21040178D+05 0.21040178D+05 0.12314092D+01  1  2 15  2  6  2       -1 0.636991531006D-02 0.100000000000D+01
-.285784952271D-04 0.000000000000D+00 0.000000000000D+00 0.196341465411D-04 0.000000000000D+00  6 2 -1 25 24 21 21 4 0.12893321D-01 0.41638548D-01 0.21040178D+05 0.21040178D+05 0.21040178D+05 0.12314092D+01  1  2  4  2  6  2       -1 -.195122917201D-01 0.100000000000D+01
  </mgrwgt>
  </event>
  <event>
  6     66 0.46179844E-03 0.21491482E+02 0.75467711E-02 0.12244968E+00
        2 -1    0    0  502    0 0.00000000E+00 0.00000000E+00 0.11650566E+04 0.11650566E+04 0.32000000E+00 0.0000E+00 0.9000E+01
       -1 -1    0    0    0  501 0.00000000E+00 0.00000000E+00 -.15305945E+02 0.15309290E+02 0.32000000E+00 0.0000E+00 0.9000E+01
       25  1    1    2    0    0 0.53720776E+02 -.37523750E+02 0.59058717E+03 0.60721673E+03 0.12500000E+03 0.0000E+00 0.9000E+01
       24  1    1    2    0    0 -.28869884E+02 0.45071715E+02 0.42852177E+03 0.43927560E+03 0.80419002E+02 0.0000E+00 0.9000E+01
       21  1    1    2  502  503 -.22684405E+02 -.54260914E+01 0.85609294E+02 0.88732962E+02 0.75000000E+00 0.0000E+00 0.9000E+01
       21  1    1    2  503  501 -.21664862E+01 -.21218737E+01 0.45032396E+02 0.45140616E+02 0.75000000E+00 0.0000E+00 0.9000E+01
#aMCatNLO 2  0  0  5  1 0.49966480D+01 0.00000000D+00  -5  6  0 0.00000000D+00 0.00000000D+00 0.00000000D+00 0.00000000D+00 0.00000000D+00
  <mgrwgt>
 0.2230060601D+00    4    2    0
 0.133545093271380D+03 0.000000000000000D+00 0.000000000000000D+00 0.133545093271380D+03
 0.133545093271380D+03 -.000000000000000D+00 -.000000000000000D+00 -.133545093271380D+03
 0.141698292012614D+03 0.553835106354669D+02 -.370187270862574D+02 -.396062544255335D+01
 0.964718174209798D+02 -.277347958745120D+02 0.454164754885298D+02 0.277857052011445D+01
 0.289200771091672D+02 -.276487147609549D+02 -.839774840227235D+01 0.118205492243891D+01
 0.000000000000000D+00 0.000000000000000D+00 0.000000000000000D+00 0.000000000000000D+00
 0.133545093271380D+03 0.000000000000000D+00 0.000000000000000D+00 0.133545093271380D+03
 0.133545093271380D+03 -.000000000000000D+00 -.000000000000000D+00 -.133545093271380D+03
 0.141175960479286D+03 0.536803894040607D+02 -.375360163607706D+02 -.388781255224364D+01
 0.966487714629269D+02 -.288975308079760D+02 0.450633178277059D+02 0.282828048180619D+01
 0.234110540228345D+02 -.224775288342511D+02 -.530056044171825D+01 -.383955817369384D+01
 0.585440057771273D+01 -.230532976183363D+01 -.222674102521706D+01 0.489909024413130D+01
-.186503855376D-04 0.000000000000D+00 0.000000000000D+00 0.280826242668D-04 0.000000000000D+00  6 2 -1 25 24 21 21 4 0.17923973D+00 0.23550215D-02 0.17427827D+05 0.17427827D+05 0.17427827D+05 0.12404629D+01  1  2 13  3  6  5       21 -.546550455428D-01 0.100000000000D+01
-.187679489283D-04 0.000000000000D+00 0.000000000000D+00 0.280826242668D-04 0.000000000000D+00  6 2 -1 25 24 21 21 4 0.17923973D+00 0.23550215D-02 0.17427827D+05 0.17427827D+05 0.17427827D+05 0.12404629D+01  1  2 13  3  6  5       21 -.549995656309D-01 0.100000000000D+01
-.923876370752D-04 0.000000000000D+00 0.000000000000D+00 0.280339368502D-04 0.000000000000D+00  6 2 -1 25 24 21 21 4 0.17923973D+00 0.23550215D-02 0.17818330D+05 0.17818330D+05 0.17818330D+05 0.12393871D+01  1  2  8  3  6  5       21 -.269971609595D+00 0.100000000000D+01
0.205641112623D-03 0.000000000000D+00 0.000000000000D+00 0.280339368502D-04 0.273987128430D-04  6 2 -1 25 24 21 21 4 0.17923973D+00 0.23550215D-02 0.17427827D+05 0.17427827D+05 0.17427827D+05 0.12404629D+01  1  2  1  3  6  5       21 0.602632280881D+00 0.100000000000D+01
  </mgrwgt>
  </event>
  <event>
  5     66 -.46179844E-03 0.30128371E+02 0.75467711E-02 0.11436257E+00
        4 -1    0    0  502    0 0.00000000E+00 0.00000000E+00 0.98572454E+01 0.99783660E+01 0.15500000E+01 0.0000E+00 0.9000E+01
       -3 -1    0    0    0  501 0.00000000E+00 0.00000000E+00 -.16614064E+04 0.16614065E+04 0.50000000E+00 0.0000E+00 0.9000E+01
       25  1    1    2    0    0 0.27521295E+02 0.68842633E+01 -.95343581E+03 0.96201333E+03 0.12500000E+03 0.0000E+00 0.9000E+01
       24  1    1    2    0    0 -.42717881E+02 0.19123484E+02 -.58307485E+03 0.59045238E+03 0.80419002E+02 0.0000E+00 0.9000E+01
       21  1    1    2  502  501 0.15196586E+02 -.26007748E+02 -.11503853E+03 0.11891916E+03 0.75000000E+00 0.0000E+00 0.9000E+01
#aMCatNLO 1  0  0  1  5 0.13208572D+03 0.00000000D+00  -5  6  0 0.00000000D+00 0.00000000D+00 0.00000000D+00 0.00000000D+00 0.00000000D+00
  <mgrwgt>
 -.3168895685D-01    5    4    0
 0.128367323057402D+03 0.000000000000000D+00 0.000000000000000D+00 0.128367323057402D+03
 0.128367323057402D+03 0.000000000000000D+00 0.000000000000000D+00 -.128367323057402D+03
 0.129504979244265D+03 0.275194458878922D+02 0.688742807909523D+01 -.184873762750754D+02
 0.930792232406097D+02 -.427192098588270D+02 0.191257588918545D+02 0.240838131384449D+01
 0.341504436299297D+02 0.151997639709348D+02 -.260131869709497D+02 0.160789949612309D+02
 0.000000000000000D+00 0.000000000000000D+00 -.000000000000000D+00 0.000000000000000D+00
 0.105773195707481D+04 0.000000000000000D+00 0.000000000000000D+00 0.105773195707481D+04
 0.149135405220004D+03 0.000000000000000D+00 0.000000000000000D+00 -.149135405220004D+03
 0.131593603724553D+03 -.356790698153999D+02 0.878051460828768D+01 -.184873762750754D+02
 0.126938661285846D+03 -.959742048578266D+02 0.207209911931657D+02 0.240838131384449D+01
 0.301878696200435D+02 -.373227096340898D+00 -.255467041860200D+02 0.160789949612309D+02
 0.918147227664374D+03 0.132026501769567D+03 -.395480161543338D+01 0.908596551854809D+03
 0.128367323057402D+03 0.000000000000000D+00 0.000000000000000D+00 0.128367323057402D+03
 0.128367323057402D+03 0.000000000000000D+00 0.000000000000000D+00 -.128367323057402D+03
 0.129504979244265D+03 0.275194458878922D+02 0.688742807909523D+01 -.184873762750754D+02
 0.930792232406097D+02 -.427192098588270D+02 0.191257588918545D+02 0.240838131384449D+01
 0.000000000000000D+00 0.000000000000000D+00 -.000000000000000D+00 0.000000000000000D+00
 0.341504436299297D+02 0.151997639709348D+02 -.260131869709497D+02 0.160789949612309D+02
 0.105773195707481D+04 0.000000000000000D+00 0.000000000000000D+00 0.105773195707481D+04
 0.149135405220004D+03 0.000000000000000D+00 0.000000000000000D+00 -.149135405220004D+03
 0.131593603724553D+03 -.356790698153999D+02 0.878051460828768D+01 -.184873762750754D+02
 0.126938661285846D+03 -.959742048578266D+02 0.207209911931657D+02 0.240838131384449D+01
 0.918147227664374D+03 0.132026501769567D+03 -.395480161543338D+01 0.908596551854809D+03
 0.301878696200435D+02 -.373227096340898D+00 -.255467041860200D+02 0.160789949612309D+02
0.181199944214D-03 0.000000000000D+00 0.000000000000D+00 0.280872840783D-04 0.000000000000D+00  6 4 -3 25 24 21 21 2 0.15258220D-02 0.25561031D+00 0.15794839D+05 0.15794839D+05 0.15794839D+05 0.12452743D+01  1  2  2  1  6  1        4 0.663586053064D-02 0.100000000000D+01
0.167150382684D-04 0.956218376233D-05 -.695855496823D-06 0.280872840783D-04 0.000000000000D+00  6 4 -3 25 24 21 21 4 0.15258220D-02 0.25561031D+00 0.15794839D+05 0.15794839D+05 0.15794839D+05 0.12452743D+01  1  2  3  1  6  1        4 0.949241211233D-03 0.100000000000D+01
0.690320333357D-05 0.000000000000D+00 0.000000000000D+00 0.280872840783D-04 0.000000000000D+00  6 4 -3 25 24 21 21 4 0.15258220D-02 0.25561031D+00 0.15794839D+05 0.15794839D+05 0.15794839D+05 0.12452743D+01  1  2 15  1  6  1        4 0.392030516984D-03 0.100000000000D+01
-.320994818476D-02 0.000000000000D+00 -.308539635318D-03 0.280872840783D-04 0.000000000000D+00  6 4 -3 25 24 21 21 4 0.14741747D-01 0.25561031D+00 0.15794839D+05 0.15794839D+05 0.15794839D+05 0.12452743D+01  1  2  5  1  6  1        4 -.472358577761D-02 0.100000000000D+01
-.916974163813D-03 0.000000000000D+00 -.835816408699D-04 0.280872840783D-04 0.000000000000D+00  6 21 -3 25 24 -4 21 4 0.14741747D-01 0.25561031D+00 0.15794839D+05 0.15794839D+05 0.15794839D+05 0.12452743D+01  3  4  5  4  5  1        4 -.349425033301D-01 0.100000000000D+01
  </mgrwgt>
  </event>
  <event>
  5     66 0.46179844E-03 0.39726464E+02 0.75467711E-02 0.12241566E+00
        2 -1    0    0  502    0 0.00000000E+00 0.00000000E+00 0.25997252E+04 0.25997252E+04 0.32000000E+00 0.0000E+00 0.9000E+01
       -1 -1    0    0    0  501 0.00000000E+00 0.00000000E+00 -.97769039E+01 0.97821393E+01 0.32000000E+00 0.0000E+00 0.9000E+01
       25  1    1    2    0    0 0.12617273E+02 0.38700697E+02 0.13274297E+04 0.13339234E+04 0.12500000E+03 0.0000E+00 0.9000E+01
       24  1    1    2    0    0 -.30025728E+02 -.28932620E+01 0.11879280E+04 0.11910290E+04 0.80419002E+02 0.0000E+00 0.9000E+01
       21  1    1    2  502  501 0.17408455E+02 -.35807435E+02 0.74590518E+02 0.84554921E+02 0.75000000E+00 0.0000E+00 0.9000E+01
#aMCatNLO 1  0  0  5  1 0.12090867D+02 0.00000000D+00  -5  6  0 0.00000000D+00 0.00000000D+00 0.00000000D+00 0.00000000D+00 0.00000000D+00
  <mgrwgt>
 0.1640233778D+00   15    2    0
 0.159449426224473D+03 0.000000000000000D+00 0.000000000000000D+00 0.159449426224473D+03
 0.159449426224473D+03 -.000000000000000D+00 -.000000000000000D+00 -.159449426224473D+03
 0.134552627933024D+03 0.126169942771379D+02 0.387012700071227D+02 0.286780898758810D+02
 0.982348446232953D+02 -.300259309064375D+02 -.289284357248467D+01 0.476753990340870D+02
 0.861113798926277D+02 0.174089366292995D+02 -.358084264346381D+02 -.763534889099680D+02
 0.000000000000000D+00 0.000000000000000D+00 0.000000000000000D+00 -.000000000000000D+00
 0.159449426224473D+03 0.000000000000000D+00 0.000000000000000D+00 0.159449426224473D+03
 0.159449426224473D+03 -.000000000000000D+00 -.000000000000000D+00 -.159449426224473D+03
 0.133860802779292D+03 0.131143514921073D+02 0.376782563892780D+02 0.264967413302411D+02
 0.973871567219087D+02 -.296634527192708D+02 -.363842463672236D+01 0.460856135788767D+02
 0.698553327342515D+02 0.207931531562409D+02 -.369136831208485D+02 -.555409064716060D+02
 0.177955602134948D+02 -.424405192907747D+01 0.287385136829284D+01 -.170414484375118D+02
0.683768871112D-04 0.000000000000D+00 0.000000000000D+00 0.200889132922D-04 0.000000000000D+00  6 2 -1 25 24 21 21 2 0.39995812D+00 0.15045433D-02 0.16533745D+05 0.16533745D+05 0.16533745D+05 0.12430312D+01  1  2  2  3  6  5       21 0.443849615286D-01 0.100000000000D+01
0.179390184066D-05 0.360834746661D-05 -.262585250555D-06 0.200889132922D-04 0.000000000000D+00  6 2 -1 25 24 21 21 4 0.39995812D+00 0.15045433D-02 0.16533745D+05 0.16533745D+05 0.16533745D+05 0.12430312D+01  1  2  3  3  6  5       21 0.179924063075D-02 0.100000000000D+01
0.304414485547D-05 0.000000000000D+00 0.000000000000D+00 0.200889132922D-04 0.000000000000D+00  6 2 -1 25 24 21 21 4 0.39995812D+00 0.15045433D-02 0.16533745D+05 0.16533745D+05 0.16533745D+05 0.12430312D+01  1  2 15  3  6  5       21 0.305320446510D-02 0.100000000000D+01
0.132793503896D-03 0.000000000000D+00 0.000000000000D+00 0.200004259568D-04 0.000000000000D+00  6 2 -1 25 24 21 21 4 0.39995812D+00 0.15045433D-02 0.17489729D+05 0.17489729D+05 0.17489729D+05 0.12402905D+01  1  2 12  3  6  5       21 0.132002276573D+00 0.100000000000D+01
-.565454846379D-04 0.000000000000D+00 0.000000000000D+00 0.200889132922D-04 0.000000000000D+00  6 2 -1 25 24 21 21 4 0.39995812D+00 0.15045433D-02 0.16533745D+05 0.16533745D+05 0.16533745D+05 0.12430312D+01  1  2  4  3  6  5       21 -.567137683567D-01 0.100000000000D+01
-.233856166748D-03 0.000000000000D+00 0.000000000000D+00 0.200889132922D-04 0.000000000000D+00  6 2 -1 25 24 21 21 4 0.39995812D+00 0.15045433D-02 0.16533745D+05 0.16533745D+05 0.16533745D+05 0.12430312D+01  1  2  5  3  6  5       21 -.234552140718D+00 0.100000000000D+01
0.274708673852D-03 0.000000000000D+00 -.000000000000D+00 0.200889132922D-04 0.000000000000D+00  6 2 -1 25 24 21 21 4 0.39995812D+00 0.15045433D-02 0.16533745D+05 0.16533745D+05 0.16533745D+05 0.12430312D+01  1  2  6  3  6  5       21 0.275526228030D+00 0.100000000000D+01
0.173344983310D-05 0.000000000000D+00 0.000000000000D+00 0.200004259568D-04 0.000000000000D+00  6 2 -1 25 24 1 -1 4 0.39995812D+00 0.15045433D-02 0.17489729D+05 0.17489729D+05 0.17489729D+05 0.12402905D+01  1  2 12  6  6  5       21 0.172312136951D-02 0.100000000000D+01
-.208606915760D-05 0.000000000000D+00 0.000000000000D+00 0.200889132922D-04 0.000000000000D+00  6 2 -1 25 24 1 -1 4 0.39995812D+00 0.15045433D-02 0.16533745D+05 0.16533745D+05 0.16533745D+05 0.12430312D+01  1  2  5  6  6  5       21 -.209227746013D-02 0.100000000000D+01
0.173344983310D-05 0.000000000000D+00 0.000000000000D+00 0.200004259568D-04 0.000000000000D+00  6 2 -1 25 24 2 -2 4 0.39995812D+00 0.15045433D-02 0.17489729D+05 0.17489729D+05 0.17489729D+05 0.12402905D+01  1  2 12  7  6  5       21 0.172312136951D-02 0.100000000000D+01
-.208606915760D-05 0.000000000000D+00 0.000000000000D+00 0.200889132922D-04 0.000000000000D+00  6 2 -1 25 24 2 -2 4 0.39995812D+00 0.15045433D-02 0.16533745D+05 0.16533745D+05 0.16533745D+05 0.12430312D+01  1  2  5  7  6  5       21 -.209227746013D-02 0.100000000000D+01
0.173344983310D-05 0.000000000000D+00 0.000000000000D+00 0.200004259568D-04 0.000000000000D+00  6 2 -1 25 24 3 -3 4 0.39995812D+00 0.15045433D-02 0.17489729D+05 0.17489729D+05 0.17489729D+05 0.12402905D+01  1  2 12  8  6  5       21 0.172312136951D-02 0.100000000000D+01
0.173344983310D-05 0.000000000000D+00 0.000000000000D+00 0.200004259568D-04 0.000000000000D+00  6 2 -1 25 24 4 -4 4 0.39995812D+00 0.15045433D-02 0.17489729D+05 0.17489729D+05 0.17489729D+05 0.12402905D+01  1  2 12  8  6  5       21 0.172312136951D-02 0.100000000000D+01
-.208606915760D-05 0.000000000000D+00 0.000000000000D+00 0.200889132922D-04 0.000000000000D+00  6 2 -1 25 24 3 -3 4 0.39995812D+00 0.15045433D-02 0.16533745D+05 0.16533745D+05 0.16533745D+05 0.12430312D+01  1  2  5  8  6  5       21 -.209227746013D-02 0.100000000000D+01
-.208606915760D-05 0.000000000000D+00 0.000000000000D+00 0.200889132922D-04 0.000000000000D+00  6 2 -1 25 24 4 -4 4 0.39995812D+00 0.15045433D-02 0.16533745D+05 0.16533745D+05 0.16533745D+05 0.12430312D+01  1  2  5  8  6  5       21 -.209227746013D-02 0.100000000000D+01
  </mgrwgt>
  </event>
  <event>
  6     66 -.46179844E-03 0.85975912E+01 0.75467711E-02 0.12423733E+00
        2 -1    0    0  502    0 0.00000000E+00 0.00000000E+00 0.39406638E+03 0.39406651E+03 0.32000000E+00 0.0000E+00 0.9000E+01
       -1 -1    0    0    0  501 0.00000000E+00 0.00000000E+00 -.52915837E+02 0.52916805E+02 0.32000000E+00 0.0000E+00 0.9000E+01
       25  1    1    2    0    0 0.21739249E+02 -.69247250E+01 0.21556296E+03 0.25022577E+03 0.12500000E+03 0.0000E+00 0.9000E+01
       24  1    1    2    0    0 -.40757469E+02 0.26673701E+01 0.12392234E+03 0.15327181E+03 0.80419002E+02 0.0000E+00 0.9000E+01
       21  1    1    2  502  503 0.77841793E+01 -.24244085E+00 -.18426577E+02 0.20018828E+02 0.75000000E+00 0.0000E+00 0.9000E+01
       21  1    1    2  503  501 0.11234041E+02 0.44997958E+01 0.20091819E+02 0.23466902E+02 0.75000000E+00 0.0000E+00 0.9000E+01
#aMCatNLO 2  0  0  5  1 0.12729168D+02 0.00000000D+00  -5  6  0 0.00000000D+00 0.00000000D+00 0.00000000D+00 0.00000000D+00 0.00000000D+00
  <mgrwgt>
 -.3222016299D+00    2    2    0
 0.144404284897072D+03 0.000000000000000D+00 0.000000000000000D+00 0.144404284897072D+03
 0.144404284897072D+03 -.000000000000000D+00 -.000000000000000D+00 -.144404284897072D+03
 0.134045935635145D+03 0.195520285113055D+02 -.741434882978608D+01 0.436584295735063D+02
 0.920391199235515D+02 -.422573086165044D+02 0.233162101080634D+01 0.145899641494703D+02
 0.627235142354466D+02 0.227052801051989D+02 0.508272781897974D+01 -.582483937229766D+02
 0.000000000000000D+00 0.000000000000000D+00 0.000000000000000D+00 0.000000000000000D+00
 0.144404284897072D+03 0.000000000000000D+00 0.000000000000000D+00 0.144404284897072D+03
 0.144404284897072D+03 -.000000000000000D+00 -.000000000000000D+00 -.144404284897072D+03
 0.132620111386567D+03 0.217719199528417D+02 -.691741138031469D+01 0.379634938532790D+02
 0.908177947399191D+02 -.407350957048093D+02 0.267237848558030D+01 0.106848611690268D+02
 0.525664857084251D+02 0.749716273157562D+01 -.343616787622235D+00 -.520279722669796D+02
 0.128041779592322D+02 0.114660130203920D+02 0.458864968235663D+01 0.337961724467377D+01
-.176326834042D-03 0.000000000000D+00 0.000000000000D+00 0.540817920647D-04 0.000000000000D+00  6 2 -1 25 24 21 21 4 0.60625681D-01 0.81409825D-02 0.14055587D+05 0.14055587D+05 0.14055587D+05 0.12510551D+01  1  2 13  3  6  5       21 -.316697504659D+00 0.100000000000D+01
-.307679222067D-05 0.000000000000D+00 0.000000000000D+00 0.539461155684D-04 0.000000000000D+00  6 2 -1 25 24 21 21 4 0.60625681D-01 0.81409825D-02 0.14505739D+05 0.14505739D+05 0.14505739D+05 0.12494848D+01  1  2  8  3  6  5       21 -.550412519223D-02 0.100000000000D+01
  </mgrwgt>
  </event>
  <event>
  5     66 0.46179844E-03 0.40766110E+02 0.75467711E-02 0.12139861E+00
        2 -1    0    0  502    0 0.00000000E+00 0.00000000E+00 0.13905550E+03 0.13905587E+03 0.32000000E+00 0.0000E+00 0.9000E+01
       -1 -1    0    0    0  501 0.00000000E+00 0.00000000E+00 -.23928422E+03 0.23928443E+03 0.32000000E+00 0.0000E+00 0.9000E+01
       25  1    1    2    0    0 0.18531288E+02 0.19584060E+02 -.17133061E+03 0.21378990E+03 0.12500000E+03 0.0000E+00 0.9000E+01
       24  1    1    2    0    0 -.15905915E+02 -.62181602E+02 0.64288489E+02 0.12132508E+03 0.80419002E+02 0.0000E+00 0.9000E+01
       21  1    1    2  502  501 -.26253726E+01 0.42597541E+02 0.68134001E+01 0.43225317E+02 0.75000000E+00 0.0000E+00 0.9000E+01
#aMCatNLO 1  0  0  1  5 0.56721015D+01 0.00000000D+00  -5  6  0 0.00000000D+00 0.00000000D+00 0.00000000D+00 0.00000000D+00 0.00000000D+00
  <mgrwgt>
 0.3556848264D+00   11    4    0
 0.182411339461200D+03 0.000000000000000D+00 0.000000000000000D+00 0.182411339461200D+03
 0.182411339461200D+03 0.000000000000000D+00 0.000000000000000D+00 -.182411339461200D+03
 0.174641766830114D+03 0.185314502232610D+02 0.195814300436394D+02 -.118944943867374D+03
 0.143482892364864D+03 -.159057823047166D+02 -.621837629898622D+02 0.100001550771537D+03
 0.466980197274221D+02 -.262566791854446D+01 0.426023329462228D+02 0.189433930958373D+02
 0.000000000000000D+00 -.000000000000000D+00 -.000000000000000D+00 0.000000000000000D+00
 0.191461856237266D+03 0.000000000000000D+00 0.000000000000000D+00 0.191461856237266D+03
 0.183324253809827D+03 0.000000000000000D+00 0.000000000000000D+00 -.183324253809827D+03
 0.175081887565586D+03 0.203466681148291D+02 0.216051100099151D+02 -.118944943867374D+03
 0.142615409679697D+03 -.144208076680541D+02 -.605282518599859D+02 0.100001550771537D+03
 0.471694726741209D+02 -.213845480183855D+01 0.431454982753904D+02 0.189433930958373D+02
 0.991934012768938D+01 -.378740564493644D+01 -.422235642531964D+01 0.813760242743858D+01
 0.182411339461200D+03 0.000000000000000D+00 0.000000000000000D+00 0.182411339461200D+03
 0.182411339461200D+03 0.000000000000000D+00 0.000000000000000D+00 -.182411339461200D+03
 0.174641766830114D+03 0.185314502232610D+02 0.195814300436394D+02 -.118944943867374D+03
 0.143482892364864D+03 -.159057823047166D+02 -.621837629898622D+02 0.100001550771537D+03
 0.000000000000000D+00 -.000000000000000D+00 -.000000000000000D+00 0.000000000000000D+00
 0.466980197274221D+02 -.262566791854446D+01 0.426023329462228D+02 0.189433930958373D+02
 0.191461856237266D+03 0.000000000000000D+00 0.000000000000000D+00 0.191461856237266D+03
 0.183324253809827D+03 0.000000000000000D+00 0.000000000000000D+00 -.183324253809827D+03
 0.175081887565586D+03 0.203466681148291D+02 0.216051100099151D+02 -.118944943867374D+03
 0.142615409679697D+03 -.144208076680541D+02 -.605282518599859D+02 0.100001550771537D+03
 0.991934012768938D+01 -.378740564493644D+01 -.422235642531964D+01 0.813760242743858D+01
 0.471694726741209D+02 -.213845480183855D+01 0.431454982753904D+02 0.189433930958373D+02
0.169479641857D-03 0.000000000000D+00 0.000000000000D+00 0.618803814363D-05 0.000000000000D+00  6 2 -1 25 24 21 21 2 0.21393198D-01 0.36813002D-01 0.18693836D+05 0.18693836D+05 0.18693836D+05 0.12370683D+01  1  2  2  1  6  1        2 0.530187621011D-01 0.100000000000D+01
0.356757395485D-05 0.894368641473D-05 -.650846449747D-06 0.618803814363D-05 0.000000000000D+00  6 2 -1 25 24 21 21 4 0.21393198D-01 0.36813002D-01 0.18693836D+05 0.18693836D+05 0.18693836D+05 0.12370683D+01  1  2  3  1  6  1        2 0.170793918648D-02 0.100000000000D+01
0.692298221815D-05 0.000000000000D+00 0.000000000000D+00 0.618803814363D-05 0.000000000000D+00  6 2 -1 25 24 21 21 4 0.21393198D-01 0.36813002D-01 0.18693836D+05 0.18693836D+05 0.18693836D+05 0.12370683D+01  1  2 15  1  6  1        2 0.331430623928D-02 0.100000000000D+01
0.127508994375D-02 0.000000000000D+00 0.000000000000D+00 0.616863670073D-05 0.000000000000D+00  6 2 -1 25 24 21 21 4 0.23150918D-01 0.36813002D-01 0.19463800D+05 0.19463800D+05 0.19463800D+05 0.12351275D+01  1  2 12  1  6  1        2 0.555762243739D+00 0.100000000000D+01
-.153126716663D-02 0.000000000000D+00 0.000000000000D+00 0.618803814363D-05 0.000000000000D+00  6 2 -1 25 24 21 21 4 0.21393198D-01 0.36813002D-01 0.18693836D+05 0.18693836D+05 0.18693836D+05 0.12370683D+01  1  2  4  1  6  1        2 -.733078341739D+00 0.100000000000D+01
-.101480653518D-01 0.000000000000D+00 -.101730606067D-02 0.618803814363D-05 0.000000000000D+00  6 2 -1 25 24 21 21 4 0.22545744D-01 0.36813002D-01 0.18693836D+05 0.18693836D+05 0.18693836D+05 0.12370683D+01  1  2  5  1  6  1        2 -.458127712617D+01 0.100000000000D+01
0.101888152846D-01 0.000000000000D+00 0.101590711802D-02 0.618803814363D-05 0.000000000000D+00  6 2 -1 25 24 21 21 4 0.21393198D-01 0.36813002D-01 0.18693836D+05 0.18693836D+05 0.18693836D+05 0.12370683D+01  1  2  6  1  6  1        2 0.487779009166D+01 0.100000000000D+01
0.720585464117D-03 0.000000000000D+00 0.000000000000D+00 0.618803814363D-05 0.466753792372D-06  6 2 -1 25 24 21 21 4 0.22454643D-01 0.36997240D-01 0.19463800D+05 0.19463800D+05 0.19463800D+05 0.12351275D+01  1  2 11  1  6  1        2 0.322156070420D+00 0.100000000000D+01
0.311614909519D-04 0.000000000000D+00 0.000000000000D+00 0.616863670073D-05 0.000000000000D+00  6 21 -1 25 24 -2 21 4 0.23150918D-01 0.36813002D-01 0.19463800D+05 0.19463800D+05 0.19463800D+05 0.12351275D+01  3  4 12  4  5  1        2 0.838940938474D-01 0.100000000000D+01
-.914551131543D-04 0.000000000000D+00 -.926656213316D-05 0.618803814363D-05 0.000000000000D+00  6 21 -1 25 24 -2 21 4 0.22545744D-01 0.36813002D-01 0.18693836D+05 0.18693836D+05 0.18693836D+05 0.12370683D+01  3  4  5  4  5  1        2 -.260425490563D+00 0.100000000000D+01
0.116125282495D-04 0.000000000000D+00 0.000000000000D+00 0.618803814363D-05 0.147401062314D-07  6 21 -1 25 24 -2 21 4 0.22454643D-01 0.36997240D-01 0.19463800D+05 0.19463800D+05 0.19463800D+05 0.12351275D+01  3  4 11  4  5  1        2 0.328222776680D-01 0.100000000000D+01
  </mgrwgt>
  </event>
  <event>
  5     66 0.46179844E-03 0.14370673E+03 0.75467711E-02 0.10977368E+00
        2 -1    0    0  502    0 0.00000000E+00 0.00000000E+00 0.30881908E+04 0.30881909E+04 0.32000000E+00 0.0000E+00 0.9000E+01
       -1 -1    0    0    0  501 0.00000000E+00 0.00000000E+00 -.34546821E+02 0.34548303E+02 0.32000000E+00 0.0000E+00 0.9000E+01
       25  1    1    2    0    0 -.94141823E+02 0.34277496E+02 0.35827605E+03 0.39245937E+03 0.12500000E+03 0.0000E+00 0.9000E+01
       24  1    1    2    0    0 0.27529169E+02 0.16038895E+03 0.65895900E+03 0.68350322E+03 0.80419002E+02 0.0000E+00 0.9000E+01
       21  1    1    2  502  501 0.66612654E+02 -.19466645E+03 0.20364090E+04 0.20467766E+04 0.75000000E+00 0.0000E+00 0.9000E+01
#aMCatNLO 1  0  0  5  2 0.38973091D+02 0.00000000D+00  -5  6  0 0.00000000D+00 0.00000000D+00 0.00000000D+00 0.00000000D+00 0.00000000D+00
  <mgrwgt>
 0.2957477593D-01   15    2    0
 0.326633610416574D+03 0.000000000000000D+00 0.000000000000000D+00 0.326633610416574D+03
 0.326633610416574D+03 -.000000000000000D+00 -.000000000000000D+00 -.326633610416574D+03
 0.201297199331680D+03 -.941419051446004D+02 0.342777366798526D+02 -.121892989636934D+03
 0.187023324152406D+03 0.275290929076389D+02 0.160389175763265D+03 -.450329786302064D+02
 0.264946697349062D+03 0.666128122369615D+02 -.194666912443118D+03 0.166925968267141D+03
 0.000000000000000D+00 0.000000000000000D+00 -.000000000000000D+00 0.000000000000000D+00
 0.326633610416574D+03 0.000000000000000D+00 0.000000000000000D+00 0.326633610416574D+03
 0.326633610416574D+03 -.000000000000000D+00 -.000000000000000D+00 -.326633610416574D+03
 0.194464565820074D+03 -.913095845170420D+02 0.260006636499016D+02 -.114795438170163D+03
 0.179390158921320D+03 0.301513787313523D+02 0.152725900971176D+03 -.384617562857807D+02
 0.239893700469709D+03 0.928400996370170D+02 -.155463038351521D+03 0.157356115645222D+03
 0.395187956220460D+02 -.316818938513272D+02 -.232635262695569D+02 -.409892118927770D+01
0.340163382622D-03 0.000000000000D+00 0.000000000000D+00 0.936561275010D-06 0.000000000000D+00  6 2 -1 25 24 21 21 2 0.47510640D+00 0.53150108D-02 0.74929465D+05 0.74929465D+05 0.74929465D+05 0.11752651D+01  1  2  2  3  6  5       21 0.158249235593D-01 0.100000000000D+01
-.321168568187D-04 0.179509148745D-04 -.130631695634D-05 0.936561275010D-06 0.000000000000D+00  6 2 -1 25 24 21 21 4 0.47510640D+00 0.53150108D-02 0.74929465D+05 0.74929465D+05 0.74929465D+05 0.11752651D+01  1  2  3  3  6  5       21 -.206375788240D-02 0.100000000000D+01
0.136683683250D-04 0.000000000000D+00 0.000000000000D+00 0.936561275010D-06 0.000000000000D+00  6 2 -1 25 24 21 21 4 0.47510640D+00 0.53150108D-02 0.74929465D+05 0.74929465D+05 0.74929465D+05 0.11752651D+01  1  2 15  3  6  5       21 0.878298988892D-03 0.100000000000D+01
0.458748071526D-03 0.000000000000D+00 0.000000000000D+00 0.935346691679D-06 0.000000000000D+00  6 2 -1 25 24 21 21 4 0.47510640D+00 0.53150108D-02 0.76332104D+05 0.76332104D+05 0.76332104D+05 0.11745027D+01  1  2 12  3  6  5       21 0.293803304001D-01 0.100000000000D+01
-.310360045301D-03 0.000000000000D+00 0.000000000000D+00 0.936561275010D-06 0.000000000000D+00  6 2 -1 25 24 21 21 4 0.47510640D+00 0.53150108D-02 0.74929465D+05 0.74929465D+05 0.74929465D+05 0.11752651D+01  1  2  4  3  6  5       21 -.199430471508D-01 0.100000000000D+01
-.649369165988D-03 0.000000000000D+00 0.000000000000D+00 0.936561275010D-06 0.000000000000D+00  6 2 -1 25 24 21 21 4 0.47510640D+00 0.53150108D-02 0.74929465D+05 0.74929465D+05 0.74929465D+05 0.11752651D+01  1  2  5  3  6  5       21 -.417270202517D-01 0.100000000000D+01
0.750189350992D-03 0.000000000000D+00 -.000000000000D+00 0.936561275010D-06 0.000000000000D+00  6 2 -1 25 24 21 21 4 0.47510640D+00 0.53150108D-02 0.74929465D+05 0.74929465D+05 0.74929465D+05 0.11752651D+01  1  2  6  3  6  5       21 0.482055014019D-01 0.100000000000D+01
0.398237583291D-05 0.000000000000D+00 0.000000000000D+00 0.935346691679D-06 0.000000000000D+00  6 2 -1 25 24 1 -1 4 0.47510640D+00 0.53150108D-02 0.76332104D+05 0.76332104D+05 0.76332104D+05 0.11745027D+01  1  2 12  6  6  5       21 0.255049612218D-03 0.100000000000D+01
-.778369412563D-05 0.000000000000D+00 0.000000000000D+00 0.936561275010D-06 0.000000000000D+00  6 2 -1 25 24 1 -1 4 0.47510640D+00 0.53150108D-02 0.74929465D+05 0.74929465D+05 0.74929465D+05 0.11752651D+01  1  2  5  6  6  5       21 -.500162895660D-03 0.100000000000D+01
0.398237583291D-05 0.000000000000D+00 0.000000000000D+00 0.935346691679D-06 0.000000000000D+00  6 2 -1 25 24 2 -2 4 0.47510640D+00 0.53150108D-02 0.76332104D+05 0.76332104D+05 0.76332104D+05 0.11745027D+01  1  2 12  7  6  5       21 0.255049612218D-03 0.100000000000D+01
-.778369412563D-05 0.000000000000D+00 0.000000000000D+00 0.936561275010D-06 0.000000000000D+00  6 2 -1 25 24 2 -2 4 0.47510640D+00 0.53150108D-02 0.74929465D+05 0.74929465D+05 0.74929465D+05 0.11752651D+01  1  2  5  7  6  5       21 -.500162895660D-03 0.100000000000D+01
0.398237583291D-05 0.000000000000D+00 0.000000000000D+00 0.935346691679D-06 0.000000000000D+00  6 2 -1 25 24 3 -3 4 0.47510640D+00 0.53150108D-02 0.76332104D+05 0.76332104D+05 0.76332104D+05 0.11745027D+01  1  2 12  8  6  5       21 0.255049612218D-03 0.100000000000D+01
0.398237583291D-05 0.000000000000D+00 0.000000000000D+00 0.935346691679D-06 0.000000000000D+00  6 2 -1 25 24 4 -4 4 0.47510640D+00 0.53150108D-02 0.76332104D+05 0.76332104D+05 0.76332104D+05 0.11745027D+01  1  2 12  8  6  5       21 0.255049612218D-03 0.100000000000D+01
-.778369412563D-05 0.000000000000D+00 0.000000000000D+00 0.936561275010D-06 0.000000000000D+00  6 2 -1 25 24 3 -3 4 0.47510640D+00 0.53150108D-02 0.74929465D+05 0.74929465D+05 0.74929465D+05 0.11752651D+01  1  2  5  8  6  5       21 -.500162895660D-03 0.100000000000D+01
-.778369412563D-05 0.000000000000D+00 0.000000000000D+00 0.936561275010D-06 0.000000000000D+00  6 2 -1 25 24 4 -4 4 0.47510640D+00 0.53150108D-02 0.74929465D+05 0.74929465D+05 0.74929465D+05 0.11752651D+01  1  2  5  8  6  5       21 -.500162895660D-03 0.100000000000D+01
  </mgrwgt>
  </event>
  <event>
  5     66 0.46179844E-03 0.72149464E+02 0.75467711E-02 0.11381510E+00
        2 -1    0    0  502    0 0.00000000E+00 0.00000000E+00 0.47247268E+03 0.47247279E+03 0.32000000E+00 0.0000E+00 0.9000E+01
       -1 -1    0    0    0  501 0.00000000E+00 0.00000000E+00 -.12028181E+03 0.12028223E+03 0.32000000E+00 0.0000E+00 0.9000E+01
       25  1    1    2    0    0 -.42339447E+02 -.72393148E+01 0.63844899E+02 0.14678627E+03 0.12500000E+03 0.0000E+00 0.9000E+01
       24  1    1    2    0    0 0.72977174E+02 0.72560094E+02 -.17458607E+02 0.13176742E+03 0.80419002E+02 0.0000E+00 0.9000E+01
       21  1    1    2  502  501 -.30637727E+02 -.65320780E+02 0.30580458E+03 0.31420134E+03 0.75000000E+00 0.0000E+00 0.9000E+01
#aMCatNLO 1  0  0  5  2 0.13554865D+02 0.00000000D+00  -5  6  0 0.00000000D+00 0.00000000D+00 0.00000000D+00 0.00000000D+00 0.00000000D+00
  <mgrwgt>
 0.2170315693D+00    4    2    0
 0.238390492830393D+03 0.000000000000000D+00 0.000000000000000D+00 0.238390492830393D+03
 0.238390492830393D+03 -.000000000000000D+00 -.000000000000000D+00 -.238390492830393D+03
 0.135329917959774D+03 -.423393570380835D+02 -.723912262878368D+01 -.290544427612429D+02
 0.176715982132140D+03 0.729772919406285D+02 0.725603453824098D+02 -.119040470116486D+03
 0.164735085568872D+03 -.306379349025450D+02 -.653212227536262D+02 0.148094912877729D+03
 0.000000000000000D+00 0.000000000000000D+00 0.000000000000000D+00 0.000000000000000D+00
 0.238390492830393D+03 0.000000000000000D+00 0.000000000000000D+00 0.238390492830393D+03
 0.238390492830393D+03 -.000000000000000D+00 -.000000000000000D+00 -.238390492830393D+03
 0.136455184481727D+03 -.495294967260960D+02 -.225687692803711D+02 0.570061217512811D+01
 0.140645747802820D+03 0.645814117052399D+02 0.546600148016099D+02 -.784572142297312D+02
 0.920642008296271D+02 0.596838717835042D+02 -.699053714663980D+02 0.518570761546089D+01
 0.107615852546612D+03 -.747357867626482D+02 0.378141259451592D+02 0.675708944391421D+02
0.969794100678D-03 0.000000000000D+00 0.000000000000D+00 0.575013361135D-05 0.000000000000D+00  6 2 -1 25 24 21 21 2 0.72688146D-01 0.18504935D-01 0.28044460D+05 0.28044460D+05 0.28044460D+05 0.12179829D+01  1  2  2  3  6  5       21 0.246701824185D+00 0.100000000000D+01
-.136630115592D-04 0.511774407136D-04 -.372426469925D-05 0.575013361135D-05 0.000000000000D+00  6 2 -1 25 24 21 21 4 0.72688146D-01 0.18504935D-01 0.28044460D+05 0.28044460D+05 0.28044460D+05 0.12179829D+01  1  2  3  3  6  5       21 -.515610354655D-02 0.100000000000D+01
0.282906115587D-04 0.000000000000D+00 0.000000000000D+00 0.575013361135D-05 0.000000000000D+00  6 2 -1 25 24 21 21 4 0.72688146D-01 0.18504935D-01 0.28044460D+05 0.28044460D+05 0.28044460D+05 0.12179829D+01  1  2 15  3  6  5       21 0.106762203896D-01 0.100000000000D+01
-.932499610779D-04 0.000000000000D+00 0.000000000000D+00 0.575013361135D-05 0.000000000000D+00  6 2 -1 25 24 21 21 4 0.72688146D-01 0.18504935D-01 0.28044460D+05 0.28044460D+05 0.28044460D+05 0.12179829D+01  1  2  4  3  6  5       21 -.351903716795D-01 0.100000000000D+01
  </mgrwgt>
  </event>
  <event>
  6     66 0.46179844E-03 0.11184965E+03 0.75467711E-02 0.10590227E+00
        2 -1    0    0  502    0 0.00000000E+00 0.00000000E+00 0.23803968E+04 0.23803968E+04 0.32000000E+00 0.0000E+00 0.9000E+01
       -1 -1    0    0    0  501 0.00000000E+00 0.00000000E+00 -.58705417E+02 0.58706289E+02 0.32000000E+00 0.0000E+00 0.9000E+01
       25  1    1    2    0    0 -.17755369E+03 0.28743214E+03 0.96229745E+03 0.10275135E+04 0.12500000E+03 0.0000E+00 0.9000E+01
       24  1    1    2    0    0 0.13622873E+03 -.17558751E+03 0.64867469E+03 0.69038780E+03 0.80419002E+02 0.0000E+00 0.9000E+01
       21  1    1    2  502  503 0.41236241E+02 -.86100723E+02 0.51247510E+03 0.52129171E+03 0.75000000E+00 0.0000E+00 0.9000E+01
       21  1    1    2  503  501 0.88709333E-01 -.25743912E+02 0.19824411E+03 0.19991009E+03 0.75000000E+00 0.0000E+00 0.9000E+01
#aMCatNLO 2  0  0  5  2 0.12175976D+02 0.00000000D+00  -5  6  0 0.00000000D+00 0.00000000D+00 0.00000000D+00 0.00000000D+00 0.00000000D+00
  <mgrwgt>
 0.9626712355D-01    6    2    0
 0.373822516124782D+03 0.000000000000000D+00 0.000000000000000D+00 0.373822516124782D+03
 0.373822516124782D+03 -.000000000000000D+00 -.000000000000000D+00 -.373822516124782D+03
 0.365003277612495D+03 -.177941056527503D+03 0.288480548247650D+03 -.521377632093599D+02
 0.237361215436512D+03 0.135976124690772D+03 -.174903825004387D+03 -.281474004491049D+02
 0.145280539200558D+03 0.419649318367309D+02 -.113576723243263D+03 0.802851636584648D+02
 0.000000000000000D+00 0.000000000000000D+00 0.000000000000000D+00 0.000000000000000D+00
 0.373822516124782D+03 0.000000000000000D+00 0.000000000000000D+00 0.373822516124782D+03
 0.373822516124782D+03 -.000000000000000D+00 -.000000000000000D+00 -.373822516124782D+03
 0.363878601448667D+03 -.177552960715961D+03 0.287430179555267D+03 -.513952781300088D+02
 0.237954383795360D+03 0.136229208212974D+03 -.175588787326509D+03 -.276632139841224D+02
 0.108944790139541D+03 0.412042062195592D+02 -.858688516317944D+02 0.528934873855143D+02
 0.368672568659961D+02 0.119546283428217D+00 -.259725405969634D+02 0.261650047286168D+02
-.369898411139D-02 0.000000000000D+00 0.000000000000D+00 0.101841826078D-05 0.000000000000D+00  6 2 -1 25 24 21 21 4 0.36621496D+00 0.90316713D-02 0.12880474D+06 0.12880474D+06 0.12880474D+06 0.11536062D+01  1  2 13  3  6  5       21 -.244050866388D+00 0.100000000000D+01
-.378655295275D-02 0.000000000000D+00 0.000000000000D+00 0.101841826078D-05 0.000000000000D+00  6 2 -1 25 24 21 21 4 0.36621496D+00 0.90316713D-02 0.12880474D+06 0.12880474D+06 0.12880474D+06 0.11536062D+01  1  2 13  3  6  5       21 -.249828466659D+00 0.100000000000D+01
-.219913340559D-05 0.000000000000D+00 0.000000000000D+00 0.101837226678D-05 0.000000000000D+00  6 2 -1 25 24 21 21 4 0.36621496D+00 0.90316713D-02 0.12889114D+06 0.12889114D+06 0.12889114D+06 0.11535801D+01  1  2  8  3  6  5       21 -.145077832630D-03 0.100000000000D+01
-.164369646751D-09 0.000000000000D+00 0.000000000000D+00 0.101837226678D-05 0.000000000000D+00  6 2 -1 25 24 21 21 4 0.36621496D+00 0.90316713D-02 0.12889114D+06 0.12889114D+06 0.12889114D+06 0.11535801D+01  1  2  9  3  6  5       21 -.108435404784D-07 0.100000000000D+01
0.207854010824D-09 0.000000000000D+00 0.000000000000D+00 0.101837226678D-05 0.000000000000D+00  6 2 -1 25 24 21 21 4 0.36621496D+00 0.90316713D-02 0.12889114D+06 0.12889114D+06 0.12889114D+06 0.11535801D+01  1  2 10  3  6  5       21 0.137122237865D-07 0.100000000000D+01
0.894681927846D-02 0.000000000000D+00 0.000000000000D+00 0.101837226678D-05 0.447090393694D-07  6 2 -1 25 24 21 21 4 0.36621496D+00 0.90316713D-02 0.12880474D+06 0.12880474D+06 0.12880474D+06 0.11536062D+01  1  2  1  3  6  5       21 0.590291531560D+00 0.100000000000D+01
  </mgrwgt>
  </event>
  <event>
  5     66 0.46179844E-03 0.25636482E+02 0.75467711E-02 0.10762702E+00
        2 -1    0    0  502    0 0.00000000E+00 0.00000000E+00 0.25817069E+03 0.25817089E+03 0.32000000E+00 0.0000E+00 0.9000E+01
       -1 -1    0    0    0  501 0.00000000E+00 0.00000000E+00 -.85342302E+02 0.85342902E+02 0.32000000E+00 0.0000E+00 0.9000E+01
       25  1    1    2    0    0 0.73853644E+02 -.30900384E+02 0.30033575E+02 0.15144705E+03 0.12500000E+03 0.0000E+00 0.9000E+01
       24  1    1    2    0    0 -.54884696E+02 0.13669563E+02 0.13114425E+03 0.16390612E+03 0.80419002E+02 0.0000E+00 0.9000E+01
       21  1    1    2  502  501 -.18968948E+02 0.17230821E+02 0.11650567E+02 0.28160617E+02 0.75000000E+00 0.0000E+00 0.9000E+01
#aMCatNLO 1  0  0  2  5 0.56361861D+00 0.00000000D+00  -5  6  0 0.00000000D+00 0.00000000D+00 0.00000000D+00 0.00000000D+00 0.00000000D+00
  <mgrwgt>
 0.4545843922D+00    3    2    0
 0.148435232717708D+03 0.000000000000000D+00 0.000000000000000D+00 0.148435232717708D+03
 0.148435232717708D+03 0.000000000000000D+00 0.000000000000000D+00 -.148435232717708D+03
 0.157759879624550D+03 0.738579051073726D+02 -.309042544510834D+02 -.534145722544469D+02
 0.113308994215504D+03 -.548816358201546D+02 0.136667829653827D+02 0.563288319498956D+02
 0.258015915953624D+02 -.189762692872180D+02 0.172374714857007D+02 -.291425969544872D+01
 0.000000000000000D+00 0.000000000000000D+00 -.000000000000000D+00 0.000000000000000D+00
 0.384397573351738D+03 0.000000000000000D+00 0.000000000000000D+00 0.384397573351738D+03
 0.288709976811103D+03 0.000000000000000D+00 0.000000000000000D+00 -.288709976811103D+03
 0.139851229843848D+03 -.261913823688856D+02 0.198560179622696D+02 -.534145722544469D+02
 0.199292433883385D+03 -.159970287252623D+03 0.669837901007892D+02 0.563288319498956D+02
 0.560752957641767D+02 -.465011968872933D+02 0.312023167972596D+02 -.291425969544872D+01
 0.277888590671432D+03 0.232662866508802D+03 -.118042124860318D+03 0.956875965406353D+02
0.404822358472D-03 0.000000000000D+00 0.000000000000D+00 0.273065778753D-04 0.000000000000D+00  6 2 -1 25 24 21 21 2 0.39718629D-01 0.13129646D-01 0.18549674D+05 0.18549674D+05 0.18549674D+05 0.12374417D+01  1  2  2  2  6  2       -1 0.345815053201D+00 0.100000000000D+01
0.692791527449D-04 0.213630627736D-04 -.155462444871D-05 0.273065778753D-04 0.000000000000D+00  6 2 -1 25 24 21 21 4 0.39718629D-01 0.13129646D-01 0.18549674D+05 0.18549674D+05 0.18549674D+05 0.12374417D+01  1  2  3  2  6  2       -1 0.906215392553D-01 0.100000000000D+01
0.138737898387D-04 0.000000000000D+00 0.000000000000D+00 0.273065778753D-04 0.000000000000D+00  6 2 -1 25 24 21 21 4 0.39718629D-01 0.13129646D-01 0.18549674D+05 0.18549674D+05 0.18549674D+05 0.12374417D+01  1  2 15  2  6  2       -1 0.181477997445D-01 0.100000000000D+01
  </mgrwgt>
  </event>
  <event>
  5     66 0.46179844E-03 0.32396085E+02 0.75467711E-02 0.12295813E+00
        2 -1    0    0  502    0 0.00000000E+00 0.00000000E+00 0.10992050E+04 0.10992051E+04 0.32000000E+00 0.0000E+00 0.9000E+01
       -1 -1    0    0    0  501 0.00000000E+00 0.00000000E+00 -.16306997E+02 0.16310137E+02 0.32000000E+00 0.0000E+00 0.9000E+01
       25  1    1    2    0    0 0.25403005E+02 0.53879160E+02 0.43579809E+03 0.45726715E+03 0.12500000E+03 0.0000E+00 0.9000E+01
       24  1    1    2    0    0 -.22740637E+02 -.21600315E+02 0.51814756E+03 0.52528833E+03 0.80419002E+02 0.0000E+00 0.9000E+01
       21  1    1    2  502  501 -.26623670E+01 -.32278845E+02 0.12895237E+03 0.13295973E+03 0.75000000E+00 0.0000E+00 0.9000E+01
#aMCatNLO 1  0  0  5  5 0.32196677D+01 0.00000000D+00  -5  6  0 0.00000000D+00 0.00000000D+00 0.00000000D+00 0.00000000D+00 0.00000000D+00
  <mgrwgt>
 0.3406068679D+00    9    2    0
 0.133889919128093D+03 0.000000000000000D+00 0.000000000000000D+00 0.133889919128093D+03
 0.133889919128093D+03 -.000000000000000D+00 -.000000000000000D+00 -.133889919128093D+03
 0.142520267607371D+03 0.254033842748708D+02 0.538837640436207D+02 -.337377343452615D+02
 0.928596483172599D+02 -.227403900465117D+02 -.215973149960478D+02 0.342363692106604D+02
 0.323999223315549D+02 -.266299422835909D+01 -.322864490475729D+02 -.498634865398969D+00
 0.000000000000000D+00 0.000000000000000D+00 0.000000000000000D+00 0.000000000000000D+00
 0.133889919128093D+03 0.000000000000000D+00 0.000000000000000D+00 0.133889919128093D+03
 0.133889919128093D+03 -.000000000000000D+00 -.000000000000000D+00 -.133889919128093D+03
 0.140694499299116D+03 0.250010466150878D+02 0.490057758699448D+02 -.338130704397578D+02
 0.937057483978816D+02 -.230054266684744D+02 -.248106495574271D+02 0.341867421784608D+02
 0.283402851791141D+02 0.861349993037681D+00 -.283129196059469D+02 -.899123801371697D+00
 0.503930538007409D+01 -.285696993965108D+01 0.411779329342927D+01 0.525452062668669D+00
0.131819107706D-03 0.000000000000D+00 0.000000000000D+00 0.211599836475D-04 0.000000000000D+00  6 2 -1 25 24 21 21 2 0.16910871D+00 0.25090139D-02 0.16535835D+05 0.16535835D+05 0.16535835D+05 0.12430250D+01  1  2  2  3  6  5       21 0.250189879226D+00 0.100000000000D+01
0.120310217465D-04 0.695628542680D-05 -.506220082359D-06 0.211599836475D-04 0.000000000000D+00  6 2 -1 25 24 21 21 4 0.16910871D+00 0.25090139D-02 0.16535835D+05 0.16535835D+05 0.16535835D+05 0.12430250D+01  1  2  3  3  6  5       21 0.352820338757D-01 0.100000000000D+01
0.394067294302D-05 0.000000000000D+00 0.000000000000D+00 0.211599836475D-04 0.000000000000D+00  6 2 -1 25 24 21 21 4 0.16910871D+00 0.25090139D-02 0.16535835D+05 0.16535835D+05 0.16535835D+05 0.12430250D+01  1  2 15  3  6  5       21 0.115563714536D-01 0.100000000000D+01
-.830953859966D-04 0.000000000000D+00 0.000000000000D+00 0.211599836475D-04 0.000000000000D+00  6 2 -1 25 24 21 21 4 0.16910871D+00 0.25090139D-02 0.16535835D+05 0.16535835D+05 0.16535835D+05 0.12430250D+01  1  2  4  3  6  5       21 -.243684558587D+00 0.100000000000D+01
0.898049894446D-04 0.000000000000D+00 0.000000000000D+00 0.211599836475D-04 0.222535974881D-05  6 2 -1 25 24 21 21 4 0.16910871D+00 0.25090139D-02 0.16532270D+05 0.16532270D+05 0.16532270D+05 0.12430356D+01  1  2 11  3  6  5       21 0.263368335825D+00 0.100000000000D+01
0.187504074528D-05 0.000000000000D+00 0.000000000000D+00 0.211603427952D-04 0.713476837742D-07  6 2 -1 25 24 1 -1 4 0.16910871D+00 0.25090139D-02 0.16532270D+05 0.16532270D+05 0.16532270D+05 0.12430356D+01  1  2 11  6  6  5       21 0.549887443606D-02 0.100000000000D+01
0.208634894229D-05 0.000000000000D+00 0.000000000000D+00 0.211603427952D-04 0.668074632545D-07  6 2 -1 25 24 2 -2 4 0.16910871D+00 0.25090139D-02 0.16532270D+05 0.16532270D+05 0.16532270D+05 0.12430356D+01  1  2 11  7  6  5       21 0.611857149897D-02 0.100000000000D+01
0.209320569778D-05 0.000000000000D+00 0.000000000000D+00 0.211603427952D-04 0.658841684855D-07  6 2 -1 25 24 3 -3 4 0.16910871D+00 0.25090139D-02 0.16532270D+05 0.16532270D+05 0.16532270D+05 0.12430356D+01  1  2 11  8  6  5       21 0.613868009532D-02 0.100000000000D+01
0.209320569778D-05 0.000000000000D+00 0.000000000000D+00 0.211603427952D-04 0.658841684855D-07  6 2 -1 25 24 4 -4 4 0.16910871D+00 0.25090139D-02 0.16532270D+05 0.16532270D+05 0.16532270D+05 0.12430356D+01  1  2 11  8  6  5       21 0.613868009532D-02 0.100000000000D+01
  </mgrwgt>
  </event>
  <event>
  5     66 0.46179844E-03 0.20991517E+02 0.75467711E-02 0.93111297E-01
        2 -1    0    0  502    0 0.00000000E+00 0.00000000E+00 0.93593314E+03 0.93593319E+03 0.32000000E+00 0.0000E+00 0.9000E+01
       -1 -1    0    0    0  501 0.00000000E+00 0.00000000E+00 -.39512367E+02 0.39513663E+02 0.32000000E+00 0.0000E+00 0.9000E+01
       25  1    1    2    0    0 0.29076064E+02 0.15724537E+02 0.82591346E+03 0.83597292E+03 0.12500000E+03 0.0000E+00 0.9000E+01
       24  1    1    2    0    0 -.23412321E+02 0.44877591E+01 0.80461312E+02 0.11623044E+03 0.80419002E+02 0.0000E+00 0.9000E+01
       21  1    1    2  502  501 -.56637429E+01 -.20212296E+02 -.99540085E+01 0.23243487E+02 0.75000000E+00 0.0000E+00 0.9000E+01
#aMCatNLO 1  0  0  1  5 0.59645564D+01 0.00000000D+00  -5  6  0 0.00000000D+00 0.00000000D+00 0.00000000D+00 0.00000000D+00 0.00000000D+00
  <mgrwgt>
 0.6229099371D+00    3    2    0
 0.192305985310515D+03 0.000000000000000D+00 0.000000000000000D+00 0.192305985310515D+03
 0.192305985310515D+03 0.000000000000000D+00 0.000000000000000D+00 -.192305985310515D+03
 0.195214098372881D+03 0.290761835451538D+02 0.157249648095530D+02 0.146256094695994D+03
 0.107248881860400D+03 -.234122550453749D+02 0.448799403677113D+01 -.668343544081321D+02
 0.821489903877487D+02 -.566392849977883D+01 -.202129588463241D+02 -.794217402878622D+02
 0.000000000000000D+00 0.000000000000000D+00 -.000000000000000D+00 -.000000000000000D+00
 0.928563352727760D+03 0.000000000000000D+00 0.000000000000000D+00 0.928563352727760D+03
 0.113120636760918D+04 0.000000000000000D+00 0.000000000000000D+00 -.113120636760918D+04
 0.471368694380550D+03 -.416308245697749D+03 0.108903835425403D+03 0.146256094695994D+03
 0.355352208211075D+03 -.332504125865450D+03 0.691531002878192D+02 -.668343544081321D+02
 0.229104278819958D+03 -.213631132518711D+03 0.232958571860649D+02 -.794217402878622D+02
 0.100394453892535D+04 0.962443504081911D+03 -.201352792899287D+03 -.202643014881415D+03
0.782761069173D-03 0.000000000000D+00 0.000000000000D+00 0.312603531460D-04 0.000000000000D+00  6 2 -1 25 24 21 21 2 0.14398982D+00 0.60789295D-02 0.13708464D+05 0.13708464D+05 0.13708464D+05 0.12523050D+01  1  2  2  1  6  1        2 0.513037388522D+00 0.100000000000D+01
0.848220648012D-04 0.413074364780D-04 -.300600861135D-05 0.312603531460D-04 0.000000000000D+00  6 2 -1 25 24 21 21 4 0.14398982D+00 0.60789295D-02 0.13708464D+05 0.13708464D+05 0.13708464D+05 0.12523050D+01  1  2  3  1  6  1        2 0.871864314655D-01 0.100000000000D+01
0.220709032876D-04 0.000000000000D+00 0.000000000000D+00 0.312603531460D-04 0.000000000000D+00  6 2 -1 25 24 21 21 4 0.14398982D+00 0.60789295D-02 0.13708464D+05 0.13708464D+05 0.13708464D+05 0.12523050D+01  1  2 15  1  6  1        2 0.226861171250D-01 0.100000000000D+01
  </mgrwgt>
  </event>
  <event>
  5     66 0.46179844E-03 0.41211877E+03 0.75467711E-02 0.10607254E+00
        2 -1    0    0  502    0 0.00000000E+00 0.00000000E+00 0.42511447E+03 0.42511459E+03 0.32000000E+00 0.0000E+00 0.9000E+01
       -1 -1    0    0    0  501 -.00000000E+00 -.00000000E+00 -.59061348E+03 0.59061357E+03 0.32000000E+00 0.0000E+00 0.9000E+01
       25  1    1    2    0    0 -.38107762E+02 0.29997219E+03 -.19764595E+03 0.38226227E+03 0.12500000E+03 0.0000E+00 0.9000E+01
       24  1    1    2    0    0 0.14129519E+02 0.11144815E+03 -.13084680E+03 0.19028514E+03 0.80419002E+02 0.0000E+00 0.9000E+01
       21  1    1    2  502  501 0.23978243E+02 -.41142035E+03 0.16299374E+03 0.44318075E+03 0.75000000E+00 0.0000E+00 0.9000E+01
#aMCatNLO 1  0  0  5  2 0.21158655D+03 0.00000000D+00  -5  6  0 0.00000000D+00 0.00000000D+00 0.00000000D+00 0.00000000D+00 0.00000000D+00
  <mgrwgt>
 0.6606353201D-02    4    2    0
 0.501077282715319D+03 0.000000000000000D+00 0.000000000000000D+00 0.501077282715319D+03
 0.501077282715319D+03 -.000000000000000D+00 -.000000000000000D+00 -.501077282715319D+03
 0.354800095842570D+03 -.381077725652424D+02 0.299972375257238D+03 -.137195042776856D+03
 0.171254066885790D+03 0.141295135358332D+02 0.111448240383533D+03 -.101194792520203D+03
 0.476100402702278D+03 0.239782590294092D+02 -.411420615640771D+03 0.238389835297059D+03
 0.000000000000000D+00 0.000000000000000D+00 0.000000000000000D+00 -.000000000000000D+00
 0.501077282715319D+03 0.000000000000000D+00 0.000000000000000D+00 0.501077282715319D+03
 0.501077282715319D+03 -.000000000000000D+00 -.000000000000000D+00 -.501077282715319D+03
 0.290109516216223D+03 -.345393262660986D+02 0.238744728517993D+03 -.101717849688069D+03
 0.142907045564204D+03 0.158678456029863D+02 0.816218193585923D+02 -.839124412589221D+02
 0.321496730987844D+03 0.179146452410545D+02 -.102882554767078D+03 0.304063140558596D+03
 0.247641272662368D+03 0.756835422057710D+00 -.217483993109508D+03 -.118432849611604D+03
0.617629027490D-03 0.000000000000D+00 0.000000000000D+00 0.787494535786D-06 0.000000000000D+00  6 2 -1 25 24 21 21 2 0.65402242D-01 0.90863629D-01 0.19249180D+06 0.19249180D+06 0.19249180D+06 0.11383153D+01  1  2  2  3  6  5       21 0.836113021366D-02 0.100000000000D+01
-.701231516009D-04 0.325931792277D-04 -.237185809102D-05 0.787494535786D-06 0.000000000000D+00  6 2 -1 25 24 21 21 4 0.65402242D-01 0.90863629D-01 0.19249180D+06 0.19249180D+06 0.19249180D+06 0.11383153D+01  1  2  3  3  6  5       21 -.123005312533D-02 0.100000000000D+01
0.182390332366D-04 0.000000000000D+00 0.000000000000D+00 0.787494535786D-06 0.000000000000D+00  6 2 -1 25 24 21 21 4 0.65402242D-01 0.90863629D-01 0.19249180D+06 0.19249180D+06 0.19249180D+06 0.11383153D+01  1  2 15  3  6  5       21 0.319936844300D-03 0.100000000000D+01
-.481526133544D-04 0.000000000000D+00 0.000000000000D+00 0.787494535786D-06 0.000000000000D+00  6 2 -1 25 24 21 21 4 0.65402242D-01 0.90863629D-01 0.19249180D+06 0.19249180D+06 0.19249180D+06 0.11383153D+01  1  2  4  3  6  5       21 -.844660731827D-03 0.100000000000D+01
  </mgrwgt>
  </event>
  <event>
  5     66 0.46179844E-03 0.29102157E+02 0.75467711E-02 0.10969523E+00
        2 -1    0    0  502    0 0.00000000E+00 0.00000000E+00 0.21916705E+03 0.21916728E+03 0.32000000E+00 0.0000E+00 0.9000E+01
       -1 -1    0    0    0  501 -.00000000E+00 -.00000000E+00 -.99372145E+03 0.99372151E+03 0.32000000E+00 0.0000E+00 0.9000E+01
       25  1    1    2    0    0 -.20087364E+03 0.15109797E+03 -.71221319E+03 0.76554127E+03 0.12500000E+03 0.0000E+00 0.9000E+01
       24  1    1    2    0    0 0.17216862E+03 -.15588312E+03 0.11235306E+03 0.27024435E+03 0.80419002E+02 0.0000E+00 0.9000E+01
       21  1    1    2  502  501 0.28705020E+02 0.47851511E+01 -.17469428E+03 0.17710317E+03 0.75000000E+00 0.0000E+00 0.9000E+01
#aMCatNLO 1  0  0  5  2 0.31620010D+01 0.00000000D+00  -5  6  0 0.00000000D+00 0.00000000D+00 0.00000000D+00 0.00000000D+00 0.00000000D+00
  <mgrwgt>
 0.8992815798D+00   25    2    0
 0.466681013491711D+03 0.000000000000000D+00 0.000000000000000D+00 0.466681013491711D+03
 0.466681013491711D+03 -.000000000000000D+00 -.000000000000000D+00 -.466681013491711D+03
 0.403774574054644D+03 -.200874124546160D+03 0.151097887770856D+03 -.290220469732941D+03
 0.444415856472443D+03 0.172168093142638D+03 -.155883207486895D+03 0.370265865098297D+03
 0.851715964563355D+02 0.287060314035221D+02 0.478531971603895D+01 -.800453953653560D+02
 0.000000000000000D+00 0.000000000000000D+00 0.000000000000000D+00 -.000000000000000D+00
 0.466681013491711D+03 0.000000000000000D+00 0.000000000000000D+00 0.466681013491711D+03
 0.466681013491711D+03 -.000000000000000D+00 -.000000000000000D+00 -.466681013491711D+03
 0.403981040312424D+03 -.200742632004015D+03 0.151119807688855D+03 -.290587130396535D+03
 0.444127510998842D+03 0.172312736923649D+03 -.155859095246253D+03 0.369862532834237D+03
 0.638605626028601D+01 0.460197791782651D+01 0.150728652736909D+01 -.416312396257741D+01
 0.788674194118693D+02 0.238279171625401D+02 0.323200103002920D+01 -.751122784751249D+02
0.324045645662D-01 0.000000000000D+00 0.000000000000D+00 0.690734487457D-05 0.000000000000D+00  6 2 -1 25 24 21 21 2 0.33718029D-01 0.15288025D+00 0.77175032D+05 0.77175032D+05 0.77175032D+05 0.11740520D+01  1  2  2  3  6  5       21 0.283697561913D+00 0.100000000000D+01
0.583381889442D-02 0.171003585274D-02 -.124442060252D-03 0.690734487457D-05 0.000000000000D+00  6 2 -1 25 24 21 21 4 0.33718029D-01 0.15288025D+00 0.77175032D+05 0.77175032D+05 0.77175032D+05 0.11740520D+01  1  2  3  3  6  5       21 0.704007125039D-01 0.100000000000D+01
0.131669913626D-03 0.000000000000D+00 0.000000000000D+00 0.690734487457D-05 0.000000000000D+00  6 2 -1 25 24 21 21 4 0.33718029D-01 0.15288025D+00 0.77175032D+05 0.77175032D+05 0.77175032D+05 0.11740520D+01  1  2 15  3  6  5       21 0.158895157741D-02 0.100000000000D+01
0.533485608093D-04 0.000000000000D+00 0.000000000000D+00 0.690770929917D-05 0.000000000000D+00  6 2 -1 25 24 21 21 4 0.33718029D-01 0.15288025D+00 0.77116780D+05 0.77116780D+05 0.77116780D+05 0.11740830D+01  1  2 12  3  6  5       21 0.643874664265D-03 0.100000000000D+01
0.429498182400D-04 0.000000000000D+00 0.000000000000D+00 0.690770929917D-05 0.000000000000D+00  6 2 -1 25 24 21 21 4 0.33718029D-01 0.15288025D+00 0.77116780D+05 0.77116780D+05 0.77116780D+05 0.11740830D+01  1  2 12  3  6  5       21 0.518370118706D-03 0.100000000000D+01
-.922679739826D-01 0.000000000000D+00 0.000000000000D+00 0.690734487457D-05 0.000000000000D+00  6 2 -1 25 24 21 21 4 0.33718029D-01 0.15288025D+00 0.77175032D+05 0.77175032D+05 0.77175032D+05 0.11740520D+01  1  2  4  3  6  5       21 -.111346122107D+01 0.100000000000D+01
-.432834965971D-02 0.000000000000D+00 0.000000000000D+00 0.690734487457D-05 0.000000000000D+00  6 2 -1 25 24 21 21 4 0.33718029D-01 0.15288025D+00 0.77175032D+05 0.77175032D+05 0.77175032D+05 0.11740520D+01  1  2  5  3  6  5       21 -.522331778762D-01 0.100000000000D+01
0.146195350867D+00 0.000000000000D+00 -.000000000000D+00 0.690734487457D-05 0.000000000000D+00  6 2 -1 25 24 21 21 4 0.33718029D-01 0.15288025D+00 0.77175032D+05 0.77175032D+05 0.77175032D+05 0.11740520D+01  1  2  6  3  6  5       21 0.176424003762D+01 0.100000000000D+01
0.315858604921D-02 0.000000000000D+00 0.000000000000D+00 0.690734487457D-05 0.350708933457D-05  6 2 -1 25 24 21 21 4 0.33718029D-01 0.15288025D+00 0.77116780D+05 0.77116780D+05 0.77116780D+05 0.11740830D+01  1  2 11  3  6  5       21 0.381216194239D-01 0.100000000000D+01
0.581308849701D-04 0.000000000000D+00 0.000000000000D+00 0.690770929917D-05 0.000000000000D+00  6 2 -1 25 24 1 -1 4 0.33718029D-01 0.15288025D+00 0.77116780D+05 0.77116780D+05 0.77116780D+05 0.11740830D+01  1  2 12  6  6  5       21 0.701593510223D-03 0.100000000000D+01
0.548174231331D-04 0.000000000000D+00 0.000000000000D+00 0.690770929917D-05 0.000000000000D+00  6 2 -1 25 24 1 -1 4 0.33718029D-01 0.15288025D+00 0.77116780D+05 0.77116780D+05 0.77116780D+05 0.11740830D+01  1  2 12  6  6  5       21 0.661602663320D-03 0.100000000000D+01
-.436303939229D-02 0.000000000000D+00 0.000000000000D+00 0.690734487457D-05 0.000000000000D+00  6 2 -1 25 24 1 -1 4 0.33718029D-01 0.15288025D+00 0.77175032D+05 0.77175032D+05 0.77175032D+05 0.11740520D+01  1  2  5  6  6  5       21 -.526518027828D-01 0.100000000000D+01
0.234183687532D-02 0.000000000000D+00 0.000000000000D+00 0.690734487457D-05 0.254775949132D-07  6 2 -1 25 24 1 -1 4 0.33718029D-01 0.15288025D+00 0.77116780D+05 0.77116780D+05 0.77116780D+05 0.11740830D+01  1  2 11  6  6  5       21 0.282641070160D-01 0.100000000000D+01
0.581308849701D-04 0.000000000000D+00 0.000000000000D+00 0.690770929917D-05 0.000000000000D+00  6 2 -1 25 24 2 -2 4 0.33718029D-01 0.15288025D+00 0.77116780D+05 0.77116780D+05 0.77116780D+05 0.11740830D+01  1  2 12  7  6  5       21 0.701593510223D-03 0.100000000000D+01
0.548174231331D-04 0.000000000000D+00 0.000000000000D+00 0.690770929917D-05 0.000000000000D+00  6 2 -1 25 24 2 -2 4 0.33718029D-01 0.15288025D+00 0.77116780D+05 0.77116780D+05 0.77116780D+05 0.11740830D+01  1  2 12  7  6  5       21 0.661602663320D-03 0.100000000000D+01
-.436303939229D-02 0.000000000000D+00 0.000000000000D+00 0.690734487457D-05 0.000000000000D+00  6 2 -1 25 24 2 -2 4 0.33718029D-01 0.15288025D+00 0.77175032D+05 0.77175032D+05 0.77175032D+05 0.11740520D+01  1  2  5  7  6  5       21 -.526518027828D-01 0.100000000000D+01
0.227136443963D-02 0.000000000000D+00 0.000000000000D+00 0.690734487457D-05 0.245352579976D-07  6 2 -1 25 24 2 -2 4 0.33718029D-01 0.15288025D+00 0.77116780D+05 0.77116780D+05 0.77116780D+05 0.11740830D+01  1  2 11  7  6  5       21 0.274135608123D-01 0.100000000000D+01
0.581308849701D-04 0.000000000000D+00 0.000000000000D+00 0.690770929917D-05 0.000000000000D+00  6 2 -1 25 24 3 -3 4 0.33718029D-01 0.15288025D+00 0.77116780D+05 0.77116780D+05 0.77116780D+05 0.11740830D+01  1  2 12  8  6  5       21 0.701593510223D-03 0.100000000000D+01
0.581308849701D-04 0.000000000000D+00 0.000000000000D+00 0.690770929917D-05 0.000000000000D+00  6 2 -1 25 24 4 -4 4 0.33718029D-01 0.15288025D+00 0.77116780D+05 0.77116780D+05 0.77116780D+05 0.11740830D+01  1  2 12  8  6  5       21 0.701593510223D-03 0.100000000000D+01
0.548174231331D-04 0.000000000000D+00 0.000000000000D+00 0.690770929917D-05 0.000000000000D+00  6 2 -1 25 24 3 -3 4 0.33718029D-01 0.15288025D+00 0.77116780D+05 0.77116780D+05 0.77116780D+05 0.11740830D+01  1  2 12  8  6  5       21 0.661602663320D-03 0.100000000000D+01
0.548174231331D-04 0.000000000000D+00 0.000000000000D+00 0.690770929917D-05 0.000000000000D+00  6 2 -1 25 24 4 -4 4 0.33718029D-01 0.15288025D+00 0.77116780D+05 0.77116780D+05 0.77116780D+05 0.11740830D+01  1  2 12  8  6  5       21 0.661602663320D-03 0.100000000000D+01
-.436303939229D-02 0.000000000000D+00 0.000000000000D+00 0.690734487457D-05 0.000000000000D+00  6 2 -1 25 24 3 -3 4 0.33718029D-01 0.15288025D+00 0.77175032D+05 0.77175032D+05 0.77175032D+05 0.11740520D+01  1  2  5  8  6  5       21 -.526518027828D-01 0.100000000000D+01
-.436303939229D-02 0.000000000000D+00 0.000000000000D+00 0.690734487457D-05 0.000000000000D+00  6 2 -1 25 24 4 -4 4 0.33718029D-01 0.15288025D+00 0.77175032D+05 0.77175032D+05 0.77175032D+05 0.11740520D+01  1  2  5  8  6  5       21 -.526518027828D-01 0.100000000000D+01
0.228853574227D-02 0.000000000000D+00 0.000000000000D+00 0.690734487457D-05 0.246730223233D-07  6 2 -1 25 24 3 -3 4 0.33718029D-01 0.15288025D+00 0.77116780D+05 0.77116780D+05 0.77116780D+05 0.11740830D+01  1  2 11  8  6  5       21 0.276208047669D-01 0.100000000000D+01
0.228853574227D-02 0.000000000000D+00 0.000000000000D+00 0.690734487457D-05 0.246730223233D-07  6 2 -1 25 24 4 -4 4 0.33718029D-01 0.15288025D+00 0.77116780D+05 0.77116780D+05 0.77116780D+05 0.11740830D+01  1  2 11  8  6  5       21 0.276208047669D-01 0.100000000000D+01
  </mgrwgt>
  </event>
  <event>
  6     66 -.46179844E-03 0.28628467E+02 0.75467711E-02 0.11766185E+00
        2 -1    0    0  502    0 0.00000000E+00 0.00000000E+00 0.25970745E+03 0.25970765E+03 0.32000000E+00 0.0000E+00 0.9000E+01
       -1 -1    0    0    0  501 0.00000000E+00 0.00000000E+00 -.20470023E+03 0.20470048E+03 0.32000000E+00 0.0000E+00 0.9000E+01
       25  1    1    2    0    0 -.96075238E+02 -.61533945E+02 -.63589823E+02 0.18079144E+03 0.12500000E+03 0.0000E+00 0.9000E+01
       24  1    1    2    0    0 0.68668067E+02 0.62904920E+02 0.16853532E+03 0.20867128E+03 0.80419002E+02 0.0000E+00 0.9000E+01
       21  1    1    2  503  501 0.33937082E+02 0.11111857E+02 -.49227062E+02 0.60819939E+02 0.75000000E+00 0.0000E+00 0.9000E+01
       21  1    1    2  502  503 -.65299111E+01 -.12482832E+02 -.71121891E+00 0.14125479E+02 0.75000000E+00 0.0000E+00 0.9000E+01
#aMCatNLO 2  0  0  5  1 0.14518429D+02 0.00000000D+00  -5  6  0 0.00000000D+00 0.00000000D+00 0.00000000D+00 0.00000000D+00 0.00000000D+00
  <mgrwgt>
 -.1298667182D+00    3    2    0
 0.230569469540368D+03 0.000000000000000D+00 0.000000000000000D+00 0.230569469540368D+03
 0.230569469540368D+03 -.000000000000000D+00 -.000000000000000D+00 -.230569469540368D+03
 0.188401257088745D+03 -.989048368498502D+02 -.613924013228855D+02 -.794911314558643D+02
 0.193873701529043D+03 0.657946031628673D+02 0.630486583256211D+02 0.151048777115811D+03
 0.788639804629479D+02 0.331102336869829D+02 -.165625700273567D+01 -.715576456599468D+02
 0.000000000000000D+00 -.000000000000000D+00 0.000000000000000D+00 0.000000000000000D+00
 0.230569469540368D+03 0.000000000000000D+00 0.000000000000000D+00 0.230569469540368D+03
 0.230569469540368D+03 -.000000000000000D+00 -.000000000000000D+00 -.230569469540368D+03
 0.189676909256920D+03 -.960373054568982D+02 -.615358424412732D+02 -.856884237273563D+02
 0.189997324036880D+03 0.687060704588882D+02 0.629030194230734D+02 0.144756530824566D+03
 0.669440971786101D+02 0.339440185640780D+02 0.113184306712425D+02 -.565792265581724D+02
 0.145206086083260D+02 -.661278356606804D+01 -.126856076530427D+02 -.248888053903700D+01
-.578119987188D-03 0.000000000000D+00 0.000000000000D+00 0.110996450560D-04 0.000000000000D+00  6 2 -1 25 24 21 21 4 0.39955027D-01 0.31492378D-01 0.29304035D+05 0.29304035D+05 0.29304035D+05 0.12159697D+01  1  2 13  3  6  5       21 -.171732690162D+00 0.100000000000D+01
-.130708888948D-03 0.000000000000D+00 0.000000000000D+00 0.111846267756D-04 0.000000000000D+00  6 2 -1 25 24 21 21 4 0.39955027D-01 0.31492378D-01 0.26487430D+05 0.26487430D+05 0.26487430D+05 0.12206157D+01  1  2  8  3  6  5       21 -.393868831707D-01 0.100000000000D+01
0.273529166232D-03 0.000000000000D+00 0.000000000000D+00 0.111846267756D-04 0.125583379014D-06  6 2 -1 25 24 21 21 4 0.39955027D-01 0.31492378D-01 0.29304035D+05 0.29304035D+05 0.29304035D+05 0.12159697D+01  1  2  1  3  6  5       21 0.812528551095D-01 0.100000000000D+01
  </mgrwgt>
  </event>
  <event>
  5     66 0.46179844E-03 0.97038966E+02 0.75467711E-02 0.11597372E+00
        2 -1    0    0  502    0 0.00000000E+00 0.00000000E+00 0.71423910E+03 0.71423917E+03 0.32000000E+00 0.0000E+00 0.9000E+01
       -1 -1    0    0    0  501 0.00000000E+00 0.00000000E+00 -.12081990E+03 0.12082032E+03 0.32000000E+00 0.0000E+00 0.9000E+01
       25  1    1    2    0    0 -.68679014E+01 -.96725557E+02 0.26591604E+03 0.30941775E+03 0.12500000E+03 0.0000E+00 0.9000E+01
       24  1    1    2    0    0 -.74767805E+02 0.42536398E+02 0.39135445E+03 0.40868704E+03 0.80419002E+02 0.0000E+00 0.9000E+01
       21  1    1    2  502  501 0.81635707E+02 0.54189159E+02 -.63851293E+02 0.11695471E+03 0.75000000E+00 0.0000E+00 0.9000E+01
#aMCatNLO 1  0  0  5  1 0.37319333D+02 0.00000000D+00  -5  6  0 0.00000000D+00 0.00000000D+00 0.00000000D+00 0.00000000D+00 0.00000000D+00
  <mgrwgt>
 0.3274994012D-01   15    2    0
 0.293759257270689D+03 0.000000000000000D+00 0.000000000000000D+00 0.293759257270689D+03
 0.293759257270689D+03 -.000000000000000D+00 -.000000000000000D+00 -.293759257270689D+03
 0.171199106728828D+03 -.686802705056959D+01 -.967256405446006D+02 0.654302285676749D+02
 0.185595716662829D+03 -.747679414826007D+02 0.425363078218120D+02 0.143453726102046D+03
 0.230723691149721D+03 0.816359685331702D+02 0.541893327227885D+02 -.208883954669721D+03
 0.000000000000000D+00 0.000000000000000D+00 0.000000000000000D+00 0.000000000000000D+00
 0.293759257270689D+03 0.000000000000000D+00 0.000000000000000D+00 0.293759257270689D+03
 0.293759257270689D+03 -.000000000000000D+00 -.000000000000000D+00 -.293759257270689D+03
 0.167860180151876D+03 -.439190744415778D+01 -.950820112519714D+02 0.590945206081084D+02
 0.179710498959282D+03 -.721001429062288D+02 0.443071721514691D+02 0.136627564461441D+03
 0.195330633848183D+03 0.587706107314820D+02 0.110101872586966D+02 -.185953885709092D+03
 0.446172015820371D+02 0.177214396189045D+02 0.397646518418057D+02 -.976819936045690D+01
0.140072993020D-03 0.000000000000D+00 0.000000000000D+00 0.440494128822D-05 0.000000000000D+00  6 2 -1 25 24 21 21 2 0.10988298D+00 0.18587715D-01 0.34958546D+05 0.34958546D+05 0.34958546D+05 0.12079873D+01  1  2  2  3  6  5       21 0.217019963564D-01 0.100000000000D+01
-.411252298466D-05 0.739185492141D-05 -.537917175263D-06 0.440494128822D-05 0.000000000000D+00  6 2 -1 25 24 21 21 4 0.10988298D+00 0.18587715D-01 0.34958546D+05 0.34958546D+05 0.34958546D+05 0.12079873D+01  1  2  3  3  6  5       21 -.929776077245D-03 0.100000000000D+01
0.499873959069D-05 0.000000000000D+00 0.000000000000D+00 0.440494128822D-05 0.000000000000D+00  6 2 -1 25 24 21 21 4 0.10988298D+00 0.18587715D-01 0.34958546D+05 0.34958546D+05 0.34958546D+05 0.12079873D+01  1  2 15  3  6  5       21 0.113013556523D-02 0.100000000000D+01
0.199020536283D-03 0.000000000000D+00 0.000000000000D+00 0.439931270886D-05 0.000000000000D+00  6 2 -1 25 24 21 21 4 0.10988298D+00 0.18587715D-01 0.35567014D+05 0.35567014D+05 0.35567014D+05 0.12072153D+01  1  2 12  3  6  5       21 0.448807206510D-01 0.100000000000D+01
-.204075139602D-03 0.000000000000D+00 0.000000000000D+00 0.440494128822D-05 0.000000000000D+00  6 2 -1 25 24 21 21 4 0.10988298D+00 0.18587715D-01 0.34958546D+05 0.34958546D+05 0.34958546D+05 0.12079873D+01  1  2  4  3  6  5       21 -.461381452383D-01 0.100000000000D+01
-.322000890200D-03 0.000000000000D+00 0.000000000000D+00 0.440494128822D-05 0.000000000000D+00  6 2 -1 25 24 21 21 4 0.10988298D+00 0.18587715D-01 0.34958546D+05 0.34958546D+05 0.34958546D+05 0.12079873D+01  1  2  5  3  6  5       21 -.727992829891D-01 0.100000000000D+01
0.381951816289D-03 0.000000000000D+00 -.000000000000D+00 0.440494128822D-05 0.000000000000D+00  6 2 -1 25 24 21 21 4 0.10988298D+00 0.18587715D-01 0.34958546D+05 0.34958546D+05 0.34958546D+05 0.12079873D+01  1  2  6  3  6  5       21 0.863532344427D-01 0.100000000000D+01
0.234788950217D-05 0.000000000000D+00 0.000000000000D+00 0.439931270886D-05 0.000000000000D+00  6 2 -1 25 24 1 -1 4 0.10988298D+00 0.18587715D-01 0.35567014D+05 0.35567014D+05 0.35567014D+05 0.12072153D+01  1  2 12  6  6  5       21 0.529467837011D-03 0.100000000000D+01
-.394412285666D-05 0.000000000000D+00 0.000000000000D+00 0.440494128822D-05 0.000000000000D+00  6 2 -1 25 24 1 -1 4 0.10988298D+00 0.18587715D-01 0.34958546D+05 0.34958546D+05 0.34958546D+05 0.12079873D+01  1  2  5  6  6  5       21 -.891703485066D-03 0.100000000000D+01
0.234788950217D-05 0.000000000000D+00 0.000000000000D+00 0.439931270886D-05 0.000000000000D+00  6 2 -1 25 24 2 -2 4 0.10988298D+00 0.18587715D-01 0.35567014D+05 0.35567014D+05 0.35567014D+05 0.12072153D+01  1  2 12  7  6  5       21 0.529467837011D-03 0.100000000000D+01
-.394412285666D-05 0.000000000000D+00 0.000000000000D+00 0.440494128822D-05 0.000000000000D+00  6 2 -1 25 24 2 -2 4 0.10988298D+00 0.18587715D-01 0.34958546D+05 0.34958546D+05 0.34958546D+05 0.12079873D+01  1  2  5  7  6  5       21 -.891703485066D-03 0.100000000000D+01
0.234788950217D-05 0.000000000000D+00 0.000000000000D+00 0.439931270886D-05 0.000000000000D+00  6 2 -1 25 24 3 -3 4 0.10988298D+00 0.18587715D-01 0.35567014D+05 0.35567014D+05 0.35567014D+05 0.12072153D+01  1  2 12  8  6  5       21 0.529467837011D-03 0.100000000000D+01
0.234788950217D-05 0.000000000000D+00 0.000000000000D+00 0.439931270886D-05 0.000000000000D+00  6 2 -1 25 24 4 -4 4 0.10988298D+00 0.18587715D-01 0.35567014D+05 0.35567014D+05 0.35567014D+05 0.12072153D+01  1  2 12  8  6  5       21 0.529467837011D-03 0.100000000000D+01
-.394412285666D-05 0.000000000000D+00 0.000000000000D+00 0.440494128822D-05 0.000000000000D+00  6 2 -1 25 24 3 -3 4 0.10988298D+00 0.18587715D-01 0.34958546D+05 0.34958546D+05 0.34958546D+05 0.12079873D+01  1  2  5  8  6  5       21 -.891703485066D-03 0.100000000000D+01
-.394412285666D-05 0.000000000000D+00 0.000000000000D+00 0.440494128822D-05 0.000000000000D+00  6 2 -1 25 24 4 -4 4 0.10988298D+00 0.18587715D-01 0.34958546D+05 0.34958546D+05 0.34958546D+05 0.12079873D+01  1  2  5  8  6  5       21 -.891703485066D-03 0.100000000000D+01
  </mgrwgt>
  </event>
  <event>
  6     66 -.46179844E-03 0.30562661E+02 0.75467711E-02 0.11928645E+00
        2 -1    0    0  502    0 0.00000000E+00 0.00000000E+00 0.12126644E+04 0.12126644E+04 0.32000000E+00 0.0000E+00 0.9000E+01
       -1 -1    0    0    0  501 0.00000000E+00 0.00000000E+00 -.63824683E+02 0.63825486E+02 0.32000000E+00 0.0000E+00 0.9000E+01
       25  1    1    2    0    0 0.40852140E+02 -.80635026E+02 0.55666560E+03 0.57764391E+03 0.12500000E+03 0.0000E+00 0.9000E+01
       24  1    1    2    0    0 -.26030147E+02 0.59760882E+02 0.60579439E+03 0.61457545E+03 0.80419002E+02 0.0000E+00 0.9000E+01
       21  1    1    2  503  501 -.30829411E+02 0.23283018E+02 -.38520629E+02 0.54561460E+02 0.75000000E+00 0.0000E+00 0.9000E+01
       21  1    1    2  502  503 0.16007418E+02 -.24088738E+01 0.24900350E+02 0.29709090E+02 0.75000000E+00 0.0000E+00 0.9000E+01
#aMCatNLO 2  0  0  5  1 0.16563421D+02 0.00000000D+00  -5  6  0 0.00000000D+00 0.00000000D+00 0.00000000D+00 0.00000000D+00 0.00000000D+00
  <mgrwgt>
 -.6258247464D+00    3    2    0
 0.278205786654887D+03 0.000000000000000D+00 0.000000000000000D+00 0.278205786654887D+03
 0.278205786654887D+03 -.000000000000000D+00 -.000000000000000D+00 -.278205786654887D+03
 0.178422571957463D+03 0.411900533053002D+02 -.811109171568945D+02 0.890730756771654D+02
 0.162163641363236D+03 -.257236823125568D+02 0.593292810687877D+02 0.125092602506931D+03
 0.215825359989076D+03 -.154663709927434D+02 0.217816360881067D+02 -.214165678184097D+03
 0.000000000000000D+00 0.000000000000000D+00 0.000000000000000D+00 -.000000000000000D+00
 0.278205786654887D+03 0.000000000000000D+00 0.000000000000000D+00 0.278205786654887D+03
 0.278205786654887D+03 -.000000000000000D+00 -.000000000000000D+00 -.278205786654887D+03
 0.175826388810529D+03 0.408508848458091D+02 -.806332586317845D+02 0.843765477599410D+02
 0.159113361185556D+03 -.260312824415400D+02 0.597624812081941D+02 0.120833207057016D+03
 0.204673816291441D+03 -.308961339295242D+02 0.232907712115099D+02 -.200983432053203D+03
 0.167980070222485D+02 0.160765315252551D+02 -.241999378791953D+01 -.422632276375334D+01
-.177158010664D-02 0.000000000000D+00 0.000000000000D+00 0.660073984829D-04 0.000000000000D+00  6 2 -1 25 24 21 21 4 0.18656382D+00 0.98192470D-02 0.24449564D+05 0.24449564D+05 0.24449564D+05 0.12243356D+01  1  2 13  3  6  5       21 -.560809738202D+00 0.100000000000D+01
-.380839089942D-03 0.000000000000D+00 0.000000000000D+00 0.669738134823D-04 0.000000000000D+00  6 2 -1 25 24 21 21 4 0.18656382D+00 0.98192470D-02 0.20235893D+05 0.20235893D+05 0.20235893D+05 0.12332658D+01  1  2  8  3  6  5       21 -.124150119821D+00 0.100000000000D+01
0.186805934795D-03 0.000000000000D+00 0.000000000000D+00 0.669738134823D-04 0.440977901392D-06  6 2 -1 25 24 21 21 4 0.18656382D+00 0.98192470D-02 0.24449564D+05 0.24449564D+05 0.24449564D+05 0.12243356D+01  1  2  1  3  6  5       21 0.591351116410D-01 0.100000000000D+01
  </mgrwgt>
  </event>
  <event>
  5     66 0.46179844E-03 0.25215448E+02 0.75467711E-02 0.12450394E+00
        2 -1    0    0  502    0 0.00000000E+00 0.00000000E+00 0.10811747E+04 0.10811747E+04 0.32000000E+00 0.0000E+00 0.9000E+01
       -1 -1    0    0    0  501 0.00000000E+00 0.00000000E+00 -.28432330E+02 0.28434130E+02 0.32000000E+00 0.0000E+00 0.9000E+01
       25  1    1    2    0    0 -.27987236E+02 0.55371957E+00 0.13788632E+03 0.18820529E+03 0.12500000E+03 0.0000E+00 0.9000E+01
       24  1    1    2    0    0 0.13787587E+02 -.21385286E+02 0.71864354E+03 0.72357666E+03 0.80419002E+02 0.0000E+00 0.9000E+01
       21  1    1    2  502  501 0.14199649E+02 0.20831566E+02 0.19621248E+03 0.19782690E+03 0.75000000E+00 0.0000E+00 0.9000E+01
#aMCatNLO 1  0  0  5  2 0.11511445D+02 0.00000000D+00  -5  6  0 0.00000000D+00 0.00000000D+00 0.00000000D+00 0.00000000D+00 0.00000000D+00
  <mgrwgt>
 0.2083421203D+00   20    2    0
 0.175332084809938D+03 0.000000000000000D+00 0.000000000000000D+00 0.175332084809938D+03
 0.175332084809938D+03 -.000000000000000D+00 -.000000000000000D+00 -.175332084809938D+03
 0.181587635205159D+03 -.279887530327909D+02 0.551494025965556D+00 -.128706623051849D+03
 0.132149418924046D+03 0.137864832343026D+02 -.213869053814124D+02 0.101728983705871D+03
 0.369271154906715D+02 0.142022697984883D+02 0.208354113554468D+02 0.269776393459779D+02
 0.000000000000000D+00 0.000000000000000D+00 0.000000000000000D+00 0.000000000000000D+00
 0.175332084809938D+03 0.000000000000000D+00 0.000000000000000D+00 0.175332084809938D+03
 0.175332084809938D+03 -.000000000000000D+00 -.000000000000000D+00 -.175332084809938D+03
 0.179266197420707D+03 -.264161758104627D+02 0.285854027845283D+01 -.125719465241892D+03
 0.133714479614807D+03 0.149451005837131D+02 -.196871581282589D+02 0.103929812266086D+03
 0.184244986336754D+02 0.886408048201974D+01 -.138286710301727D+01 0.160927904878543D+02
 0.192589939506868D+02 0.260699474472977D+01 0.182114849528233D+02 0.569686248795168D+01
0.192784300950D-03 0.000000000000D+00 0.000000000000D+00 0.163161052792D-04 0.000000000000D+00  6 2 -1 25 24 21 21 2 0.16633471D+00 0.43743467D-02 0.14120614D+05 0.14120614D+05 0.14120614D+05 0.12508248D+01  1  2  2  3  6  5       21 0.168166413563D+00 0.100000000000D+01
0.143577141522D-04 0.101735070624D-04 -.740342476918D-06 0.163161052792D-04 0.000000000000D+00  6 2 -1 25 24 21 21 4 0.16633471D+00 0.43743467D-02 0.14120614D+05 0.14120614D+05 0.14120614D+05 0.12508248D+01  1  2  3  3  6  5       21 0.195950269204D-01 0.100000000000D+01
0.960538366744D-05 0.000000000000D+00 0.000000000000D+00 0.163161052792D-04 0.000000000000D+00  6 2 -1 25 24 21 21 4 0.16633471D+00 0.43743467D-02 0.14120614D+05 0.14120614D+05 0.14120614D+05 0.12508248D+01  1  2 15  3  6  5       21 0.131091725012D-01 0.100000000000D+01
0.489654231816D-04 0.000000000000D+00 0.000000000000D+00 0.162983081821D-04 0.000000000000D+00  6 2 -1 25 24 21 21 4 0.16633471D+00 0.43743467D-02 0.14315280D+05 0.14315280D+05 0.14315280D+05 0.12501424D+01  1  2 12  3  6  5       21 0.666989965554D-01 0.100000000000D+01
0.573093747180D-04 0.000000000000D+00 0.000000000000D+00 0.162983081821D-04 0.000000000000D+00  6 2 -1 25 24 21 21 4 0.16633471D+00 0.43743467D-02 0.14315280D+05 0.14315280D+05 0.14315280D+05 0.12501424D+01  1  2 12  3  6  5       21 0.780648371553D-01 0.100000000000D+01
-.251312772728D-03 0.000000000000D+00 0.000000000000D+00 0.163161052792D-04 0.000000000000D+00  6 2 -1 25 24 21 21 4 0.16633471D+00 0.43743467D-02 0.14120614D+05 0.14120614D+05 0.14120614D+05 0.12508248D+01  1  2  4  3  6  5       21 -.342984997112D+00 0.100000000000D+01
-.874438981665D-04 0.000000000000D+00 0.000000000000D+00 0.163161052792D-04 0.000000000000D+00  6 2 -1 25 24 21 21 4 0.16633471D+00 0.43743467D-02 0.14120614D+05 0.14120614D+05 0.14120614D+05 0.12508248D+01  1  2  5  3  6  5       21 -.119341109624D+00 0.100000000000D+01
0.235269230253D-03 0.000000000000D+00 -.000000000000D+00 0.163161052792D-04 0.000000000000D+00  6 2 -1 25 24 21 21 4 0.16633471D+00 0.43743467D-02 0.14120614D+05 0.14120614D+05 0.14120614D+05 0.12508248D+01  1  2  6  3  6  5       21 0.321089196474D+00 0.100000000000D+01
0.189863761050D-05 0.000000000000D+00 0.000000000000D+00 0.162983081821D-04 0.000000000000D+00  6 2 -1 25 24 1 -1 4 0.16633471D+00 0.43743467D-02 0.14315280D+05 0.14315280D+05 0.14315280D+05 0.12501424D+01  1  2 12  6  6  5       21 0.258625812286D-02 0.100000000000D+01
0.222187665694D-05 0.000000000000D+00 0.000000000000D+00 0.162983081821D-04 0.000000000000D+00  6 2 -1 25 24 1 -1 4 0.16633471D+00 0.43743467D-02 0.14315280D+05 0.14315280D+05 0.14315280D+05 0.12501424D+01  1  2 12  6  6  5       21 0.302656311043D-02 0.100000000000D+01
-.339006837285D-05 0.000000000000D+00 0.000000000000D+00 0.163161052792D-04 0.000000000000D+00  6 2 -1 25 24 1 -1 4 0.16633471D+00 0.43743467D-02 0.14120614D+05 0.14120614D+05 0.14120614D+05 0.12508248D+01  1  2  5  6  6  5       21 -.462667527181D-02 0.100000000000D+01
0.189863761050D-05 0.000000000000D+00 0.000000000000D+00 0.162983081821D-04 0.000000000000D+00  6 2 -1 25 24 2 -2 4 0.16633471D+00 0.43743467D-02 0.14315280D+05 0.14315280D+05 0.14315280D+05 0.12501424D+01  1  2 12  7  6  5       21 0.258625812286D-02 0.100000000000D+01
0.222187665694D-05 0.000000000000D+00 0.000000000000D+00 0.162983081821D-04 0.000000000000D+00  6 2 -1 25 24 2 -2 4 0.16633471D+00 0.43743467D-02 0.14315280D+05 0.14315280D+05 0.14315280D+05 0.12501424D+01  1  2 12  7  6  5       21 0.302656311043D-02 0.100000000000D+01
-.339006837285D-05 0.000000000000D+00 0.000000000000D+00 0.163161052792D-04 0.000000000000D+00  6 2 -1 25 24 2 -2 4 0.16633471D+00 0.43743467D-02 0.14120614D+05 0.14120614D+05 0.14120614D+05 0.12508248D+01  1  2  5  7  6  5       21 -.462667527181D-02 0.100000000000D+01
0.189863761050D-05 0.000000000000D+00 0.000000000000D+00 0.162983081821D-04 0.000000000000D+00  6 2 -1 25 24 3 -3 4 0.16633471D+00 0.43743467D-02 0.14315280D+05 0.14315280D+05 0.14315280D+05 0.12501424D+01  1  2 12  8  6  5       21 0.258625812286D-02 0.100000000000D+01
0.189863761050D-05 0.000000000000D+00 0.000000000000D+00 0.162983081821D-04 0.000000000000D+00  6 2 -1 25 24 4 -4 4 0.16633471D+00 0.43743467D-02 0.14315280D+05 0.14315280D+05 0.14315280D+05 0.12501424D+01  1  2 12  8  6  5       21 0.258625812286D-02 0.100000000000D+01
0.222187665694D-05 0.000000000000D+00 0.000000000000D+00 0.162983081821D-04 0.000000000000D+00  6 2 -1 25 24 3 -3 4 0.16633471D+00 0.43743467D-02 0.14315280D+05 0.14315280D+05 0.14315280D+05 0.12501424D+01  1  2 12  8  6  5       21 0.302656311043D-02 0.100000000000D+01
0.222187665694D-05 0.000000000000D+00 0.000000000000D+00 0.162983081821D-04 0.000000000000D+00  6 2 -1 25 24 4 -4 4 0.16633471D+00 0.43743467D-02 0.14315280D+05 0.14315280D+05 0.14315280D+05 0.12501424D+01  1  2 12  8  6  5       21 0.302656311043D-02 0.100000000000D+01
-.339006837285D-05 0.000000000000D+00 0.000000000000D+00 0.163161052792D-04 0.000000000000D+00  6 2 -1 25 24 3 -3 4 0.16633471D+00 0.43743467D-02 0.14120614D+05 0.14120614D+05 0.14120614D+05 0.12508248D+01  1  2  5  8  6  5       21 -.462667527181D-02 0.100000000000D+01
-.339006837285D-05 0.000000000000D+00 0.000000000000D+00 0.163161052792D-04 0.000000000000D+00  6 2 -1 25 24 4 -4 4 0.16633471D+00 0.43743467D-02 0.14120614D+05 0.14120614D+05 0.14120614D+05 0.12508248D+01  1  2  5  8  6  5       21 -.462667527181D-02 0.100000000000D+01
  </mgrwgt>
  </event>
  <event>
  5     66 -.46179844E-03 0.36162157E+02 0.75467711E-02 0.11274728E+00
        2 -1    0    0  502    0 0.00000000E+00 0.00000000E+00 0.54843425E+03 0.54843434E+03 0.32000000E+00 0.0000E+00 0.9000E+01
       -1 -1    0    0    0  501 0.00000000E+00 0.00000000E+00 -.16133597E+03 0.16133629E+03 0.32000000E+00 0.0000E+00 0.9000E+01
       25  1    1    2    0    0 -.19553303E+03 0.10167874E+02 -.17935991E+02 0.23298766E+03 0.12500000E+03 0.0000E+00 0.9000E+01
       24  1    1    2    0    0 0.17050086E+03 0.15921184E+02 0.39694840E+03 0.43972637E+03 0.80419002E+02 0.0000E+00 0.9000E+01
       21  1    1    2  502  501 0.25032168E+02 -.26089059E+02 0.80858623E+01 0.37056607E+02 0.75000000E+00 0.0000E+00 0.9000E+01
#aMCatNLO 1  0  0  5  1 0.62069367D-01 0.00000000D+00  -5  6  0 0.00000000D+00 0.00000000D+00 0.00000000D+00 0.00000000D+00 0.00000000D+00
  <mgrwgt>
 -.1140000369D+00   15    2    0
 0.297459778554404D+03 0.000000000000000D+00 0.000000000000000D+00 0.297459778554404D+03
 0.297459778554404D+03 -.000000000000000D+00 -.000000000000000D+00 -.297459778554404D+03
 0.289637954949845D+03 -.195535286947060D+03 0.101702296404333D+02 -.172996135607477D+03
 0.266332829290207D+03 0.170498780332994D+03 0.159233503819403D+02 0.187463523974483D+03
 0.389487728687563D+02 0.250365066140660D+02 -.260935800223735D+02 -.144673883670062D+02
 0.000000000000000D+00 0.000000000000000D+00 0.000000000000000D+00 -.000000000000000D+00
 0.297459778554404D+03 0.000000000000000D+00 0.000000000000000D+00 0.297459778554404D+03
 0.297459778554404D+03 -.000000000000000D+00 -.000000000000000D+00 -.297459778554404D+03
 0.289637132717821D+03 -.195533043770653D+03 0.101678917542432D+02 -.172997431830818D+03
 0.266333182293007D+03 0.170500843021093D+03 0.159212006045047D+02 0.187462332046621D+03
 0.386750575982113D+02 0.248992166769965D+02 -.258992756559077D+02 -.143184010837888D+02
 0.274184499769173D+00 0.132984072563836D+00 -.189816702840218D+00 -.146499132014072D+00
0.258772863013D-03 0.000000000000D+00 0.000000000000D+00 0.694855880281D-05 0.000000000000D+00  6 2 -1 25 24 21 21 2 0.84374531D-01 0.24820951D-01 0.52359614D+05 0.52359614D+05 0.52359614D+05 0.11903035D+01  1  2  2  3  6  5       21 0.330590426737D-01 0.100000000000D+01
0.536435477208D-04 0.136558191536D-04 -.993755930429D-06 0.694855880281D-05 0.000000000000D+00  6 2 -1 25 24 21 21 4 0.84374531D-01 0.24820951D-01 0.52359614D+05 0.52359614D+05 0.52359614D+05 0.11903035D+01  1  2  3  3  6  5       21 0.970966971563D-02 0.100000000000D+01
0.504338160938D-05 0.000000000000D+00 0.000000000000D+00 0.694855880281D-05 0.000000000000D+00  6 2 -1 25 24 21 21 4 0.84374531D-01 0.24820951D-01 0.52359614D+05 0.52359614D+05 0.52359614D+05 0.11903035D+01  1  2 15  3  6  5       21 0.912869706750D-03 0.100000000000D+01
-.516760455230D+00 0.000000000000D+00 0.000000000000D+00 0.694855880281D-05 0.000000000000D+00  6 2 -1 25 24 21 21 4 0.84374531D-01 0.24820951D-01 0.52359614D+05 0.52359614D+05 0.52359614D+05 0.11903035D+01  1  2  4  3  6  5       21 -.935354493795D+02 0.100000000000D+01
-.454698441796D+00 0.000000000000D+00 0.000000000000D+00 0.694855880281D-05 0.000000000000D+00  6 2 -1 25 24 21 21 4 0.84374531D-01 0.24820951D-01 0.52359614D+05 0.52359614D+05 0.52359614D+05 0.11903035D+01  1  2  5  3  6  5       21 -.823020079326D+02 0.100000000000D+01
0.462185836705D+00 0.000000000000D+00 -.000000000000D+00 0.694855880281D-05 0.000000000000D+00  6 2 -1 25 24 21 21 4 0.84374531D-01 0.24820951D-01 0.52359614D+05 0.52359614D+05 0.52359614D+05 0.11903035D+01  1  2  6  3  6  5       21 0.836572525927D+02 0.100000000000D+01
0.508400148972D+00 0.000000000000D+00 0.000000000000D+00 0.694855880281D-05 0.167001514694D-01  6 2 -1 25 24 21 21 4 0.84374531D-01 0.24820951D-01 0.52358747D+05 0.52358747D+05 0.52358747D+05 0.11903042D+01  1  2 11  3  6  5       21 0.920224242658D+02 0.100000000000D+01
-.263318679723D-03 0.000000000000D+00 0.000000000000D+00 0.694855880281D-05 0.000000000000D+00  6 2 -1 25 24 1 -1 4 0.84374531D-01 0.24820951D-01 0.52359614D+05 0.52359614D+05 0.52359614D+05 0.11903035D+01  1  2  5  6  6  5       21 -.476616017898D-01 0.100000000000D+01
0.262262080233D-03 0.000000000000D+00 0.000000000000D+00 0.694855880281D-05 0.172279806296D-04  6 2 -1 25 24 1 -1 4 0.84374531D-01 0.24820951D-01 0.52358747D+05 0.52358747D+05 0.52358747D+05 0.11903042D+01  1  2 11  6  6  5       21 0.474704668456D-01 0.100000000000D+01
-.263318679723D-03 0.000000000000D+00 0.000000000000D+00 0.694855880281D-05 0.000000000000D+00  6 2 -1 25 24 2 -2 4 0.84374531D-01 0.24820951D-01 0.52359614D+05 0.52359614D+05 0.52359614D+05 0.11903035D+01  1  2  5  7  6  5       21 -.476616017898D-01 0.100000000000D+01
0.263855986194D-03 0.000000000000D+00 0.000000000000D+00 0.694855880281D-05 0.173217710272D-04  6 2 -1 25 24 2 -2 4 0.84374531D-01 0.24820951D-01 0.52358747D+05 0.52358747D+05 0.52358747D+05 0.11903042D+01  1  2 11  7  6  5       21 0.477589700864D-01 0.100000000000D+01
-.263318679723D-03 0.000000000000D+00 0.000000000000D+00 0.694855880281D-05 0.000000000000D+00  6 2 -1 25 24 3 -3 4 0.84374531D-01 0.24820951D-01 0.52359614D+05 0.52359614D+05 0.52359614D+05 0.11903035D+01  1  2  5  8  6  5       21 -.476616017898D-01 0.100000000000D+01
-.263318679723D-03 0.000000000000D+00 0.000000000000D+00 0.694855880281D-05 0.000000000000D+00  6 2 -1 25 24 4 -4 4 0.84374531D-01 0.24820951D-01 0.52359614D+05 0.52359614D+05 0.52359614D+05 0.11903035D+01  1  2  5  8  6  5       21 -.476616017898D-01 0.100000000000D+01
0.263850087518D-03 0.000000000000D+00 0.000000000000D+00 0.694855880281D-05 0.173213824967D-04  6 2 -1 25 24 3 -3 4 0.84374531D-01 0.24820951D-01 0.52358747D+05 0.52358747D+05 0.52358747D+05 0.11903042D+01  1  2 11  8  6  5       21 0.477579024029D-01 0.100000000000D+01
0.263850087518D-03 0.000000000000D+00 0.000000000000D+00 0.694855880281D-05 0.173213824967D-04  6 2 -1 25 24 4 -4 4 0.84374531D-01 0.24820951D-01 0.52358747D+05 0.52358747D+05 0.52358747D+05 0.11903042D+01  1  2 11  8  6  5       21 0.477579024029D-01 0.100000000000D+01
  </mgrwgt>
  </event>
  <event>
  5     66 -.46179844E-03 0.37851767E+02 0.75467711E-02 0.12369600E+00
        2 -1    0    0  502    0 0.00000000E+00 0.00000000E+00 0.59175436E+03 0.59175445E+03 0.32000000E+00 0.0000E+00 0.9000E+01
       -1 -1    0    0    0  501 0.00000000E+00 0.00000000E+00 -.34187527E+02 0.34189024E+02 0.32000000E+00 0.0000E+00 0.9000E+01
       25  1    1    2    0    0 0.51849528E+01 0.14718901E+02 0.22637253E+03 0.25906187E+03 0.12500000E+03 0.0000E+00 0.9000E+01
       24  1    1    2    0    0 -.54818509E+01 0.23129216E+02 0.31453423E+03 0.32552113E+03 0.80419002E+02 0.0000E+00 0.9000E+01
       21  1    1    2  502  501 0.29689814E+00 -.37848118E+02 0.16660084E+02 0.41360477E+02 0.75000000E+00 0.0000E+00 0.9000E+01
#aMCatNLO 1  0  0  5  1 0.18131799D+01 0.00000000D+00  -5  6  0 0.00000000D+00 0.00000000D+00 0.00000000D+00 0.00000000D+00 0.00000000D+00
  <mgrwgt>
 -.2966913343D+00   25    2    0
 0.142236120186437D+03 0.000000000000000D+00 0.000000000000000D+00 0.142236120186437D+03
 0.142236120186437D+03 -.000000000000000D+00 -.000000000000000D+00 -.142236120186437D+03
 0.126340206308002D+03 0.518494187416458D+01 0.147202895435459D+02 -.965801136178141D+01
 0.997786108299464D+02 -.548185951221483D+01 0.231303130518239D+02 0.540693356644626D+02
 0.583534232349254D+02 0.296917638050241D+00 -.378506025953698D+02 -.444113243026813D+02
 0.000000000000000D+00 0.000000000000000D+00 0.000000000000000D+00 -.000000000000000D+00
 0.142236120186437D+03 0.000000000000000D+00 0.000000000000000D+00 0.142236120186437D+03
 0.142236120186437D+03 -.000000000000000D+00 -.000000000000000D+00 -.142236120186437D+03
 0.126339067327723D+03 0.518528438534756D+01 0.146766267461570D+02 -.970924232038807D+01
 0.997486911091647D+02 -.548158904946084D+01 0.230958348770501D+02 0.540288813177350D+02
 0.144660415567501D+02 0.422635584403797D+00 -.106622470715073D+02 -.976750863171112D+01
 0.439184403792361D+02 -.126330920290524D+00 -.271102145516999D+02 -.345521303656359D+02
0.127183504829D-04 0.000000000000D+00 0.000000000000D+00 0.178327854682D-04 0.000000000000D+00  6 2 -1 25 24 21 21 2 0.91039255D-01 0.52597413D-02 0.15336465D+05 0.15336465D+05 0.15336465D+05 0.12467257D+01  1  2  2  3  6  5       21 0.178958000896D-01 0.100000000000D+01
0.247911116978D-06 0.671165794220D-06 -.488418146728D-07 0.178327854682D-04 0.000000000000D+00  6 2 -1 25 24 21 21 4 0.91039255D-01 0.52597413D-02 0.15336465D+05 0.15336465D+05 0.15336465D+05 0.12467257D+01  1  2  3  3  6  5       21 0.542198343481D-03 0.100000000000D+01
0.532916399831D-06 0.000000000000D+00 0.000000000000D+00 0.178327854682D-04 0.000000000000D+00  6 2 -1 25 24 21 21 4 0.91039255D-01 0.52597413D-02 0.15336465D+05 0.15336465D+05 0.15336465D+05 0.12467257D+01  1  2 15  3  6  5       21 0.116552413108D-02 0.100000000000D+01
0.343883462567D-07 0.000000000000D+00 0.000000000000D+00 0.178337579208D-04 0.000000000000D+00  6 2 -1 25 24 21 21 4 0.91039255D-01 0.52597413D-02 0.15325910D+05 0.15325910D+05 0.15325910D+05 0.12467597D+01  1  2 12  3  6  5       21 0.752161545470D-04 0.100000000000D+01
0.341329096074D-07 0.000000000000D+00 0.000000000000D+00 0.178337579208D-04 0.000000000000D+00  6 2 -1 25 24 21 21 4 0.91039255D-01 0.52597413D-02 0.15325910D+05 0.15325910D+05 0.15325910D+05 0.12467597D+01  1  2 12  3  6  5       21 0.746574489219D-04 0.100000000000D+01
-.590500288715D-03 0.000000000000D+00 0.000000000000D+00 0.178327854682D-04 0.000000000000D+00  6 2 -1 25 24 21 21 4 0.91039255D-01 0.52597413D-02 0.15336465D+05 0.15336465D+05 0.15336465D+05 0.12467257D+01  1  2  4  3  6  5       21 -.129146398221D+01 0.100000000000D+01
-.103192298196D-03 0.000000000000D+00 0.000000000000D+00 0.178327854682D-04 0.000000000000D+00  6 2 -1 25 24 21 21 4 0.91039255D-01 0.52597413D-02 0.15336465D+05 0.15336465D+05 0.15336465D+05 0.12467257D+01  1  2  5  3  6  5       21 -.225688520239D+00 0.100000000000D+01
0.457762688785D-03 0.000000000000D+00 -.000000000000D+00 0.178327854682D-04 0.000000000000D+00  6 2 -1 25 24 21 21 4 0.91039255D-01 0.52597413D-02 0.15336465D+05 0.15336465D+05 0.15336465D+05 0.12467257D+01  1  2  6  3  6  5       21 0.100115789317D+01 0.100000000000D+01
0.960916209253D-04 0.000000000000D+00 0.000000000000D+00 0.178327854682D-04 0.324296698829D-04  6 2 -1 25 24 21 21 4 0.91039255D-01 0.52597413D-02 0.15325910D+05 0.15325910D+05 0.15325910D+05 0.12467597D+01  1  2 11  3  6  5       21 0.210177080230D+00 0.100000000000D+01
0.267248127125D-08 0.000000000000D+00 0.000000000000D+00 0.178337579208D-04 0.000000000000D+00  6 2 -1 25 24 1 -1 4 0.91039255D-01 0.52597413D-02 0.15325910D+05 0.15325910D+05 0.15325910D+05 0.12467597D+01  1  2 12  6  6  5       21 0.584540363824D-05 0.100000000000D+01
0.264733465534D-08 0.000000000000D+00 0.000000000000D+00 0.178337579208D-04 0.000000000000D+00  6 2 -1 25 24 1 -1 4 0.91039255D-01 0.52597413D-02 0.15325910D+05 0.15325910D+05 0.15325910D+05 0.12467597D+01  1  2 12  6  6  5       21 0.579040152402D-05 0.100000000000D+01
-.794325157152D-05 0.000000000000D+00 0.000000000000D+00 0.178327854682D-04 0.000000000000D+00  6 2 -1 25 24 1 -1 4 0.91039255D-01 0.52597413D-02 0.15336465D+05 0.15336465D+05 0.15336465D+05 0.12467257D+01  1  2  5  6  6  5       21 -.173724272490D-01 0.100000000000D+01
0.681345503973D-05 0.000000000000D+00 0.000000000000D+00 0.178327854682D-04 0.427315679435D-06  6 2 -1 25 24 1 -1 4 0.91039255D-01 0.52597413D-02 0.15325910D+05 0.15325910D+05 0.15325910D+05 0.12467597D+01  1  2 11  6  6  5       21 0.149027779190D-01 0.100000000000D+01
0.267248127125D-08 0.000000000000D+00 0.000000000000D+00 0.178337579208D-04 0.000000000000D+00  6 2 -1 25 24 2 -2 4 0.91039255D-01 0.52597413D-02 0.15325910D+05 0.15325910D+05 0.15325910D+05 0.12467597D+01  1  2 12  7  6  5       21 0.584540363824D-05 0.100000000000D+01
0.264733465534D-08 0.000000000000D+00 0.000000000000D+00 0.178337579208D-04 0.000000000000D+00  6 2 -1 25 24 2 -2 4 0.91039255D-01 0.52597413D-02 0.15325910D+05 0.15325910D+05 0.15325910D+05 0.12467597D+01  1  2 12  7  6  5       21 0.579040152402D-05 0.100000000000D+01
-.794325157152D-05 0.000000000000D+00 0.000000000000D+00 0.178327854682D-04 0.000000000000D+00  6 2 -1 25 24 2 -2 4 0.91039255D-01 0.52597413D-02 0.15336465D+05 0.15336465D+05 0.15336465D+05 0.12467257D+01  1  2  5  7  6  5       21 -.173724272490D-01 0.100000000000D+01
0.665298597672D-05 0.000000000000D+00 0.000000000000D+00 0.178327854682D-04 0.417080517953D-06  6 2 -1 25 24 2 -2 4 0.91039255D-01 0.52597413D-02 0.15325910D+05 0.15325910D+05 0.15325910D+05 0.12467597D+01  1  2 11  7  6  5       21 0.145517908214D-01 0.100000000000D+01
0.267248127125D-08 0.000000000000D+00 0.000000000000D+00 0.178337579208D-04 0.000000000000D+00  6 2 -1 25 24 3 -3 4 0.91039255D-01 0.52597413D-02 0.15325910D+05 0.15325910D+05 0.15325910D+05 0.12467597D+01  1  2 12  8  6  5       21 0.584540363824D-05 0.100000000000D+01
0.267248127125D-08 0.000000000000D+00 0.000000000000D+00 0.178337579208D-04 0.000000000000D+00  6 2 -1 25 24 4 -4 4 0.91039255D-01 0.52597413D-02 0.15325910D+05 0.15325910D+05 0.15325910D+05 0.12467597D+01  1  2 12  8  6  5       21 0.584540363824D-05 0.100000000000D+01
0.264733465534D-08 0.000000000000D+00 0.000000000000D+00 0.178337579208D-04 0.000000000000D+00  6 2 -1 25 24 3 -3 4 0.91039255D-01 0.52597413D-02 0.15325910D+05 0.15325910D+05 0.15325910D+05 0.12467597D+01  1  2 12  8  6  5       21 0.579040152402D-05 0.100000000000D+01
0.264733465534D-08 0.000000000000D+00 0.000000000000D+00 0.178337579208D-04 0.000000000000D+00  6 2 -1 25 24 4 -4 4 0.91039255D-01 0.52597413D-02 0.15325910D+05 0.15325910D+05 0.15325910D+05 0.12467597D+01  1  2 12  8  6  5       21 0.579040152402D-05 0.100000000000D+01
-.794325157152D-05 0.000000000000D+00 0.000000000000D+00 0.178327854682D-04 0.000000000000D+00  6 2 -1 25 24 3 -3 4 0.91039255D-01 0.52597413D-02 0.15336465D+05 0.15336465D+05 0.15336465D+05 0.12467257D+01  1  2  5  8  6  5       21 -.173724272490D-01 0.100000000000D+01
-.794325157152D-05 0.000000000000D+00 0.000000000000D+00 0.178327854682D-04 0.000000000000D+00  6 2 -1 25 24 4 -4 4 0.91039255D-01 0.52597413D-02 0.15336465D+05 0.15336465D+05 0.15336465D+05 0.12467257D+01  1  2  5  8  6  5       21 -.173724272490D-01 0.100000000000D+01
0.671192143415D-05 0.000000000000D+00 0.000000000000D+00 0.178327854682D-04 0.420720625103D-06  6 2 -1 25 24 3 -3 4 0.91039255D-01 0.52597413D-02 0.15325910D+05 0.15325910D+05 0.15325910D+05 0.12467597D+01  1  2 11  8  6  5       21 0.146806978192D-01 0.100000000000D+01
0.671192143415D-05 0.000000000000D+00 0.000000000000D+00 0.178327854682D-04 0.420720625103D-06  6 2 -1 25 24 4 -4 4 0.91039255D-01 0.52597413D-02 0.15325910D+05 0.15325910D+05 0.15325910D+05 0.12467597D+01  1  2 11  8  6  5       21 0.146806978192D-01 0.100000000000D+01
  </mgrwgt>
  </event>
  <event>
  5     66 0.46179844E-03 0.69248730E+02 0.75467711E-02 0.10689593E+00
        2 -1    0    0  502    0 0.00000000E+00 0.00000000E+00 0.32116872E+03 0.32116888E+03 0.32000000E+00 0.0000E+00 0.9000E+01
       -1 -1    0    0    0  501 0.00000000E+00 0.00000000E+00 -.23521890E+03 0.23521912E+03 0.32000000E+00 0.0000E+00 0.9000E+01
       25  1    1    2    0    0 0.51233428E+02 -.90666338E+02 -.11135692E+02 0.16307744E+03 0.12500000E+03 0.0000E+00 0.9000E+01
       24  1    1    2    0    0 -.96420383E+02 0.14313970E+03 -.77439382E+02 0.20554790E+03 0.80419002E+02 0.0000E+00 0.9000E+01
       21  1    1    2  502  501 0.45186956E+02 -.52473364E+02 0.17452489E+03 0.18776266E+03 0.75000000E+00 0.0000E+00 0.9000E+01
#aMCatNLO 1  0  0  2  5 0.99775778D+01 0.00000000D+00  -5  6  0 0.00000000D+00 0.00000000D+00 0.00000000D+00 0.00000000D+00 0.00000000D+00
  <mgrwgt>
 0.2206909431D+00    3    2    0
 0.274854613192329D+03 0.000000000000000D+00 0.000000000000000D+00 0.274854613192329D+03
 0.274854613192329D+03 0.000000000000000D+00 0.000000000000000D+00 -.274854613192329D+03
 0.166799866210101D+03 0.512332819303914D+02 -.906661686326587D+02 -.367694445949740D+02
 0.220153814818686D+03 -.964205755717468D+02 0.143139925207398D+03 -.110519322486539D+03
 0.162755545355872D+03 0.451872936413554D+02 -.524737565747393D+02 0.147288767081513D+03
 0.000000000000000D+00 -.000000000000000D+00 0.000000000000000D+00 0.000000000000000D+00
 0.414782365730884D+03 0.000000000000000D+00 0.000000000000000D+00 0.414782365730884D+03
 0.368770404050501D+03 0.000000000000000D+00 0.000000000000000D+00 -.368770404050501D+03
 0.208371605133491D+03 0.107830900999193D+03 -.121713723793938D+03 -.367694445949740D+02
 0.179194263639212D+03 -.361757218266750D+02 0.110091619455180D+03 -.110519322486539D+03
 0.195686536959867D+03 0.992611504846838D+02 -.821368604428627D+02 0.147288767081513D+03
 0.200300364048814D+03 -.170916329657202D+03 0.937589647816200D+02 0.460119616803828D+02
0.168080513445D-02 0.000000000000D+00 0.000000000000D+00 0.461726387280D-05 0.000000000000D+00  6 2 -1 25 24 21 21 2 0.49410601D-01 0.36187552D-01 0.44594474D+05 0.44594474D+05 0.44594474D+05 0.11972343D+01  1  2  2  2  6  2       -1 0.205742046199D+00 0.100000000000D+01
0.373895969642D-04 0.886985237992D-04 -.645473428244D-05 0.461726387280D-05 0.000000000000D+00  6 2 -1 25 24 21 21 4 0.49410601D-01 0.36187552D-01 0.44594474D+05 0.44594474D+05 0.44594474D+05 0.11972343D+01  1  2  3  2  6  2       -1 0.656016538902D-02 0.100000000000D+01
0.478114915524D-04 0.000000000000D+00 0.000000000000D+00 0.461726387280D-05 0.000000000000D+00  6 2 -1 25 24 21 21 4 0.49410601D-01 0.36187552D-01 0.44594474D+05 0.44594474D+05 0.44594474D+05 0.11972343D+01  1  2 15  2  6  2       -1 0.838873156028D-02 0.100000000000D+01
  </mgrwgt>
  </event>
  <event>
  6     66 -.46179844E-03 0.26184251E+02 0.75467711E-02 0.11997536E+00
        2 -1    0    0  502    0 0.00000000E+00 0.00000000E+00 0.10048396E+04 0.10048396E+04 0.32000000E+00 0.0000E+00 0.9000E+01
       -1 -1    0    0    0  501 0.00000000E+00 0.00000000E+00 -.40102031E+02 0.40103308E+02 0.32000000E+00 0.0000E+00 0.9000E+01
       25  1    1    2    0    0 -.35765646E+02 -.58151112E+02 0.40415214E+03 0.42851451E+03 0.12500000E+03 0.0000E+00 0.9000E+01
       24  1    1    2    0    0 0.50466177E+02 0.75391357E+02 0.56554199E+03 0.57839057E+03 0.80419002E+02 0.0000E+00 0.9000E+01
       21  1    1    2  503  501 -.21002736E+02 -.21282522E+02 -.57955404E+01 0.30466563E+02 0.75000000E+00 0.0000E+00 0.9000E+01
       21  1    1    2  502  503 0.63022043E+01 0.40422774E+01 0.83892958E+00 0.75712673E+01 0.75000000E+00 0.0000E+00 0.9000E+01
#aMCatNLO 2  0  0  5  1 0.10717511D+02 0.00000000D+00  -5  6  0 0.00000000D+00 0.00000000D+00 0.00000000D+00 0.00000000D+00 0.00000000D+00
  <mgrwgt>
 -.3700620061D+00    3    2    0
 0.200740630575866D+03 0.000000000000000D+00 0.000000000000000D+00 0.200740630575866D+03
 0.200740630575866D+03 -.000000000000000D+00 -.000000000000000D+00 -.200740630575866D+03
 0.144232346706987D+03 -.355579846638433D+02 -.579075747328052D+02 0.236709178490153D+02
 0.147468694323954D+03 0.506778058674013D+02 0.756395475844689D+02 0.836075276809692D+02
 0.109780220120792D+03 -.151198212035581D+02 -.177319728516637D+02 -.107278445529985D+03
 0.000000000000000D+00 0.000000000000000D+00 0.000000000000000D+00 -.000000000000000D+00
 0.200740630575866D+03 0.000000000000000D+00 0.000000000000000D+00 0.200740630575866D+03
 0.200740630575866D+03 -.000000000000000D+00 -.000000000000000D+00 -.200740630575866D+03
 0.144146947783882D+03 -.357667713899554D+02 -.581524321626231D+02 0.221895302636029D+02
 0.146416011619077D+03 0.504650332211661D+02 0.753900156134339D+02 0.820978591186156D+02
 0.930850714672662D+02 -.210547470455047D+02 -.213142491749905D+02 -.881318951289615D+02
 0.178332302815070D+02 0.635648521429405D+01 0.407666572417958D+01 -.161554942532570D+02
-.567223904304D-03 0.000000000000D+00 0.000000000000D+00 0.468125486118D-04 0.000000000000D+00  6 2 -1 25 24 21 21 4 0.15459080D+00 0.61696454D-02 0.22676419D+05 0.22676419D+05 0.22676419D+05 0.12278660D+01  1  2 13  3  6  5       21 -.482557255100D+00 0.100000000000D+01
-.456427020480D-05 0.000000000000D+00 0.000000000000D+00 0.471599919659D-04 0.000000000000D+00  6 2 -1 25 24 21 21 4 0.15459080D+00 0.61696454D-02 0.20600473D+05 0.20600473D+05 0.20600473D+05 0.12324142D+01  1  2  8  3  6  5       21 -.393571078945D-02 0.100000000000D+01
0.136859249109D-03 0.000000000000D+00 0.000000000000D+00 0.471599919659D-04 0.965545602239D-06  6 2 -1 25 24 21 21 4 0.15459080D+00 0.61696454D-02 0.22676419D+05 0.22676419D+05 0.22676419D+05 0.12278660D+01  1  2  1  3  6  5       21 0.116430959774D+00 0.100000000000D+01
  </mgrwgt>
  </event>
  <event>
  6     66 0.46179844E-03 0.11637364E+02 0.75467711E-02 0.11223153E+00
        2 -1    0    0  502    0 0.00000000E+00 0.00000000E+00 0.36329540E+04 0.36329540E+04 0.32000000E+00 0.0000E+00 0.9000E+01
       21 -1    0    0  503  501 0.00000000E+00 0.00000000E+00 -.27818479E+02 0.27828587E+02 0.75000000E+00 0.0000E+00 0.9000E+01
       25  1    1    2    0    0 0.17902535E+03 -.14017725E+02 0.19439394E+04 0.19562137E+04 0.12500000E+03 0.0000E+00 0.9000E+01
       24  1    1    2    0    0 -.19664545E+03 0.25652950E+02 0.16454504E+04 0.16593076E+04 0.80419002E+02 0.0000E+00 0.9000E+01
        1  1    1    2  503    0 0.19810941E+02 0.69513545E+01 0.16207824E+02 0.26525284E+02 0.32000000E+00 0.0000E+00 0.9000E+01
       21  1    1    2  502  501 -.21908406E+01 -.18586580E+02 -.46215337E+00 0.18735976E+02 0.75000000E+00 0.0000E+00 0.9000E+01
#aMCatNLO 2  0  0  2  5 0.26017921D+02 0.00000000D+00  -5  6  0 0.00000000D+00 0.00000000D+00 0.00000000D+00 0.00000000D+00 0.00000000D+00
  <mgrwgt>
 0.3255494787D+00    1    2    0
 0.285912325196184D+03 0.000000000000000D+00 0.000000000000000D+00 0.285912325196184D+03
 0.285912325196184D+03 0.000000000000000D+00 0.000000000000000D+00 -.285912325196184D+03
 0.238141729956766D+03 0.187165838031819D+03 -.111612122844122D+02 0.770120767217087D+02
 0.212007319322610D+03 -.189192897234641D+03 0.282680623534595D+02 0.434379071633522D+02
 0.000000000000000D+00 0.000000000000000D+00 0.000000000000000D+00 -.000000000000000D+00
 0.121675601112992D+03 0.202705920282183D+01 -.171068500690472D+02 -.120449983885061D+03
 0.287797219934399D+03 0.000000000000000D+00 0.000000000000000D+00 0.287797219934399D+03
 0.351224770099235D+03 0.000000000000000D+00 0.000000000000000D+00 -.351224770099235D+03
 0.231953486266793D+03 0.179025324782623D+03 -.140175931174079D+02 0.770120767217087D+02
 0.218361145052989D+03 -.196645472937134D+03 0.256530682196250D+02 0.434379071633522D+02
 0.668120412144269D+02 0.198109414667854D+02 0.695135451009955D+01 -.634275501648361D+02
 0.121895317499426D+03 -.219079331227450D+01 -.185868296123166D+02 -.120449983885061D+03
0.437749556016D-03 0.000000000000D+00 0.000000000000D+00 0.619368754098D-04 0.849137016645D-07  6 2 21 25 24 1 21 4 0.55891603D+00 0.42805389D-02 0.55814857D+05 0.55814857D+05 0.55814857D+05 0.11875786D+01  1  2  1  5  5  2       -1 0.325549478749D+00 0.100000000000D+01
  </mgrwgt>
  </event>
  <event>
  6     66 0.46179844E-03 0.33587186E+02 0.75467711E-02 0.12125915E+00
        2 -1    0    0  503    0 0.00000000E+00 0.00000000E+00 0.13845064E+02 0.13848762E+02 0.32000000E+00 0.0000E+00 0.9000E+01
       -1 -1    0    0    0  501 0.00000000E+00 0.00000000E+00 -.19217816E+04 0.19217817E+04 0.32000000E+00 0.0000E+00 0.9000E+01
       25  1    1    2    0    0 -.47249219E+02 -.30030149E+02 -.97446916E+03 0.98404748E+03 0.12500000E+03 0.0000E+00 0.9000E+01
       24  1    1    2    0    0 0.16576762E+02 0.19306764E+02 -.40291670E+03 0.41165109E+03 0.80419002E+02 0.0000E+00 0.9000E+01
       21  1    1    2  502  501 -.11582481E+02 0.13068302E+02 -.43587596E+03 0.43622626E+03 0.75000000E+00 0.0000E+00 0.9000E+01
       21  1    1    2  503  502 0.42254938E+02 -.23449173E+01 -.94674751E+02 0.10370559E+03 0.75000000E+00 0.0000E+00 0.9000E+01
#aMCatNLO 2  0  0  1  1 0.23561627D+03 0.00000000D+00  -5  6  0 0.00000000D+00 0.00000000D+00 0.00000000D+00 0.00000000D+00 0.00000000D+00
  <mgrwgt>
 0.1888189496D-01    1    2    0
 0.128684875124600D+03 0.000000000000000D+00 0.000000000000000D+00 0.128684875124600D+03
 0.128684875124600D+03 0.000000000000000D+00 0.000000000000000D+00 -.128684875124600D+03
 0.131356692926819D+03 -.253658611908393D+02 -.312462893042626D+02 -.313420921955328D+01
 0.939341567074346D+02 0.315901453546244D+02 0.184723638862723D+02 0.318942679943151D+02
 0.320789006149475D+02 -.622428416378518D+01 0.127739254179903D+02 -.287600587747618D+02
 0.000000000000000D+00 0.000000000000000D+00 -.000000000000000D+00 0.000000000000000D+00
 0.193515743722080D+03 0.000000000000000D+00 0.000000000000000D+00 0.193515743722080D+03
 0.137508447715683D+03 0.000000000000000D+00 0.000000000000000D+00 -.137508447715683D+03
 0.137000540061730D+03 -.472483636047099D+02 -.300319304482914D+02 -.313420921955328D+01
 0.901774216712420D+02 0.165772388142412D+02 0.193054978517747D+02 0.318942679943151D+02
 0.336479702093440D+02 -.115838133013139D+02 0.130713498875002D+02 -.287600587747618D+02
 0.701982594954466D+02 0.422549380917826D+02 -.234491729098344D+01 0.560072960063966D+02
0.343216675184D-03 0.000000000000D+00 0.000000000000D+00 0.118512505344D-03 0.186992612431D-06  6 2 -1 25 24 21 21 4 0.21302665D-02 0.29565486D+00 0.19754161D+05 0.19754161D+05 0.19754161D+05 0.12344178D+01  1  2  1  1  6  1        2 0.188818949580D-01 0.100000000000D+01
  </mgrwgt>
  </event>
  <event>
  6     66 -.46179844E-03 0.12731541E+02 0.75467711E-02 0.11811038E+00
        2 -1    0    0  502    0 0.00000000E+00 0.00000000E+00 0.55538961E+03 0.55538971E+03 0.32000000E+00 0.0000E+00 0.9000E+01
       -1 -1    0    0    0  501 0.00000000E+00 0.00000000E+00 -.52397434E+02 0.52398411E+02 0.32000000E+00 0.0000E+00 0.9000E+01
       25  1    1    2    0    0 -.94223372E+02 0.54791601E+02 0.30855581E+03 0.35030251E+03 0.12500000E+03 0.0000E+00 0.9000E+01
       24  1    1    2    0    0 0.10324549E+03 -.59533379E+02 0.15700353E+03 0.21288772E+03 0.80419002E+02 0.0000E+00 0.9000E+01
       21  1    1    2  503  501 0.13037497E+01 -.31701178E+01 0.28696147E+02 0.28909873E+02 0.75000000E+00 0.0000E+00 0.9000E+01
       21  1    1    2  502  503 -.10325866E+02 0.79118958E+01 0.87366929E+01 0.15688018E+02 0.75000000E+00 0.0000E+00 0.9000E+01
#aMCatNLO 2  0  0  5  1 0.78459171D+01 0.00000000D+00  -5  6  0 0.00000000D+00 0.00000000D+00 0.00000000D+00 0.00000000D+00 0.00000000D+00
  <mgrwgt>
 -.2665668707D+00    3    2    0
 0.170591076674132D+03 0.000000000000000D+00 0.000000000000000D+00 0.170591076674132D+03
 0.170591076674132D+03 -.000000000000000D+00 -.000000000000000D+00 -.170591076674132D+03
 0.164610793623847D+03 -.880488897356795D+02 0.515464612515914D+02 0.325893959168484D+02
 0.153018818880569D+03 0.108810255721528D+03 -.624580689475611D+02 -.347399028552334D+02
 0.235525408438485D+02 -.207613659858489D+02 0.109116076959697D+02 0.215050693838498D+01
 0.000000000000000D+00 0.000000000000000D+00 0.000000000000000D+00 -.000000000000000D+00
 0.170591076674132D+03 0.000000000000000D+00 0.000000000000000D+00 0.170591076674132D+03
 0.170591076674132D+03 -.000000000000000D+00 -.000000000000000D+00 -.170591076674132D+03
 0.168786921687368D+03 -.937465700872115D+02 0.545410066401427D+02 0.331795739011401D+02
 0.148167970123281D+03 0.103663051733504D+03 -.597528389214280D+02 -.342067443965330D+02
 0.827726247560779D+01 0.204508580206210D+01 -.324658685595153D+01 0.733419197588062D+01
 0.159499990620074D+02 -.119615674483543D+02 0.845841913723678D+01 -.630702148048767D+01
-.113146885434D-03 0.000000000000D+00 0.000000000000D+00 0.325526847311D-04 0.000000000000D+00  6 2 -1 25 24 21 21 4 0.85444638D-01 0.80612259D-02 0.26919955D+05 0.26919955D+05 0.26919955D+05 0.12198674D+01  1  2 13  3  6  5       21 -.130582493234D+00 0.100000000000D+01
-.117102497480D-03 0.000000000000D+00 0.000000000000D+00 0.325526847311D-04 0.000000000000D+00  6 2 -1 25 24 21 21 4 0.85444638D-01 0.80612259D-02 0.26919955D+05 0.26919955D+05 0.26919955D+05 0.12198674D+01  1  2 13  3  6  5       21 -.135147653656D+00 0.100000000000D+01
-.728224376852D-06 0.000000000000D+00 0.000000000000D+00 0.324682969830D-04 0.000000000000D+00  6 2 -1 25 24 21 21 4 0.85444638D-01 0.80612259D-02 0.27860592D+05 0.27860592D+05 0.27860592D+05 0.12182852D+01  1  2  8  3  6  5       21 -.836723856281D-03 0.100000000000D+01
  </mgrwgt>
  </event>
  <event>
  5     66 -.46179844E-03 0.37240858E+02 0.75467711E-02 0.12139108E+00
        2 -1    0    0  502    0 0.00000000E+00 0.00000000E+00 0.48309228E+03 0.48309238E+03 0.32000000E+00 0.0000E+00 0.9000E+01
       -1 -1    0    0    0  501 0.00000000E+00 0.00000000E+00 -.47865969E+02 0.47867038E+02 0.32000000E+00 0.0000E+00 0.9000E+01
       25  1    1    2    0    0 0.15325794E+01 0.67379063E+02 0.25370146E+03 0.29074339E+03 0.12500000E+03 0.0000E+00 0.9000E+01
       24  1    1    2    0    0 0.30674265E+02 -.48686293E+02 0.17692868E+03 0.20268754E+03 0.80419002E+02 0.0000E+00 0.9000E+01
       21  1    1    2  502  501 -.32206844E+02 -.18692770E+02 0.45961679E+01 0.37528492E+02 0.75000000E+00 0.0000E+00 0.9000E+01
#aMCatNLO 1  0  0  2  5 0.10695114D+01 0.00000000D+00  -5  6  0 0.00000000D+00 0.00000000D+00 0.00000000D+00 0.00000000D+00 0.00000000D+00
  <mgrwgt>
 -.6035033255D+00   11    4    0
 0.152065748864335D+03 0.000000000000000D+00 0.000000000000000D+00 0.152065748864335D+03
 0.152065748864335D+03 0.000000000000000D+00 0.000000000000000D+00 -.152065748864335D+03
 0.144528261637908D+03 0.153381865123357D+01 0.673797819236584D+02 0.268520166903877D+02
 0.100663428718982D+03 0.306751278349998D+02 -.486857920630015D+02 0.188318907865260D+02
 0.589398073717805D+02 -.322089464862333D+02 -.186939898606568D+02 -.456839074769137D+02
 0.000000000000000D+00 -.000000000000000D+00 -.000000000000000D+00 -.000000000000000D+00
 0.152198039866214D+03 0.000000000000000D+00 0.000000000000000D+00 0.152198039866214D+03
 0.154243788614974D+03 0.000000000000000D+00 0.000000000000000D+00 -.154243788614974D+03
 0.144677812916584D+03 0.193702350822944D+01 0.676896350257089D+02 0.268520166903877D+02
 0.100645261142496D+03 0.309557880584500D+02 -.484701115240661D+02 0.188318907865260D+02
 0.588103041900283D+02 -.320447818262529D+02 -.185678333219658D+02 -.456839074769137D+02
 0.230845023207975D+01 -.848029740426543D+00 -.651690179677077D+00 -.204574874876012D+01
 0.152065748864335D+03 0.000000000000000D+00 0.000000000000000D+00 0.152065748864335D+03
 0.152065748864335D+03 0.000000000000000D+00 0.000000000000000D+00 -.152065748864335D+03
 0.144528261637908D+03 0.153381865123357D+01 0.673797819236584D+02 0.268520166903877D+02
 0.100663428718982D+03 0.306751278349998D+02 -.486857920630015D+02 0.188318907865260D+02
 0.000000000000000D+00 -.000000000000000D+00 -.000000000000000D+00 -.000000000000000D+00
 0.589398073717805D+02 -.322089464862333D+02 -.186939898606568D+02 -.456839074769137D+02
 0.152198039866214D+03 0.000000000000000D+00 0.000000000000000D+00 0.152198039866214D+03
 0.154243788614974D+03 0.000000000000000D+00 0.000000000000000D+00 -.154243788614974D+03
 0.144677812916584D+03 0.193702350822944D+01 0.676896350257089D+02 0.268520166903877D+02
 0.100645261142496D+03 0.309557880584500D+02 -.484701115240661D+02 0.188318907865260D+02
 0.230845023207975D+01 -.848029740426543D+00 -.651690179677077D+00 -.204574874876012D+01
 0.588103041900283D+02 -.320447818262529D+02 -.185678333219658D+02 -.456839074769137D+02
0.580818742546D-04 0.000000000000D+00 0.000000000000D+00 0.180600141928D-04 0.000000000000D+00  6 2 -1 25 24 21 21 2 0.74321979D-01 0.73640856D-02 0.19340327D+05 0.19340327D+05 0.19340327D+05 0.12354329D+01  1  2  2  2  6  2       -1 0.613023658245D-01 0.100000000000D+01
0.279136041304D-05 0.306506471231D-05 -.223049690446D-06 0.180600141928D-04 0.000000000000D+00  6 2 -1 25 24 21 21 4 0.74321979D-01 0.73640856D-02 0.19340327D+05 0.19340327D+05 0.19340327D+05 0.12354329D+01  1  2  3  2  6  2       -1 0.449666818550D-02 0.100000000000D+01
0.174206851141D-05 0.000000000000D+00 0.000000000000D+00 0.180600141928D-04 0.000000000000D+00  6 2 -1 25 24 21 21 4 0.74321979D-01 0.73640856D-02 0.19340327D+05 0.19340327D+05 0.19340327D+05 0.12354329D+01  1  2 15  2  6  2       -1 0.280633916552D-02 0.100000000000D+01
0.218544381029D-08 0.000000000000D+00 0.000000000000D+00 0.180499668709D-04 0.000000000000D+00  6 2 -1 25 24 21 21 4 0.74321979D-01 0.75428109D-02 0.19479356D+05 0.19479356D+05 0.19479356D+05 0.12350892D+01  1  2 12  2  6  2       -1 0.339273824583D-05 0.100000000000D+01
-.237319283382D-02 0.000000000000D+00 0.000000000000D+00 0.180600141928D-04 0.000000000000D+00  6 2 -1 25 24 21 21 4 0.74321979D-01 0.73640856D-02 0.19340327D+05 0.19340327D+05 0.19340327D+05 0.12354329D+01  1  2  4  2  6  2       -1 -.382303219034D+01 0.100000000000D+01
-.132233552328D-01 0.000000000000D+00 -.815958049252D-03 0.180600141928D-04 0.000000000000D+00  6 2 -1 25 24 21 21 4 0.74321979D-01 0.74753215D-02 0.19340327D+05 0.19340327D+05 0.19340327D+05 0.12354329D+01  1  2  5  2  6  2       -1 -.208268226121D+02 0.100000000000D+01
0.132341926227D-01 0.000000000000D+00 0.815866357633D-03 0.180600141928D-04 0.000000000000D+00  6 2 -1 25 24 21 21 4 0.74321979D-01 0.73640856D-02 0.19340327D+05 0.19340327D+05 0.19340327D+05 0.12354329D+01  1  2  6  2  6  2       -1 0.213192723697D+02 0.100000000000D+01
0.225467410801D-02 0.000000000000D+00 0.000000000000D+00 0.180600141928D-04 0.962945954561D-03  6 2 -1 25 24 21 21 4 0.74386636D-01 0.74695615D-02 0.19479356D+05 0.19479356D+05 0.19479356D+05 0.12350892D+01  1  2 11  2  6  2       -1 0.354862612485D+01 0.100000000000D+01
0.315034980375D-09 0.000000000000D+00 0.000000000000D+00 0.180499668709D-04 0.000000000000D+00  6 2 21 25 24 1 21 4 0.74321979D-01 0.75428109D-02 0.19479356D+05 0.19479356D+05 0.19479356D+05 0.12350892D+01  3  4 12  5  5  2       -1 0.784393887798D-05 0.100000000000D+01
-.362818819941D-04 0.000000000000D+00 -.224296820906D-05 0.180600141928D-04 0.000000000000D+00  6 2 21 25 24 1 21 4 0.74321979D-01 0.74753215D-02 0.19340327D+05 0.19340327D+05 0.19340327D+05 0.12354329D+01  3  4  5  5  5  2       -1 -.918389073433D+00 0.100000000000D+01
0.111579615736D-05 0.000000000000D+00 0.000000000000D+00 0.180600141928D-04 0.952799684875D-06  6 2 21 25 24 1 21 4 0.74386636D-01 0.74695615D-02 0.19479356D+05 0.19479356D+05 0.19479356D+05 0.12350892D+01  3  4 11  5  5  2       -1 0.282254459764D-01 0.100000000000D+01
  </mgrwgt>
  </event>
  <event>
  5     66 0.46179844E-03 0.15014167E+03 0.75467711E-02 0.11087662E+00
        2 -1    0    0  502    0 0.00000000E+00 0.00000000E+00 0.74335245E+03 0.74335252E+03 0.32000000E+00 0.0000E+00 0.9000E+01
       -1 -1    0    0    0  501 0.00000000E+00 0.00000000E+00 -.77624559E+02 0.77625218E+02 0.32000000E+00 0.0000E+00 0.9000E+01
       25  1    1    2    0    0 -.15143654E+02 0.17246398E+03 0.21794782E+03 0.30512195E+03 0.12500000E+03 0.0000E+00 0.9000E+01
       24  1    1    2    0    0 -.49192270E+02 -.28693971E+02 0.17837094E+03 0.20378084E+03 0.80419002E+02 0.0000E+00 0.9000E+01
       21  1    1    2  502  501 0.64335924E+02 -.14377001E+03 0.26940914E+03 0.31207495E+03 0.75000000E+00 0.0000E+00 0.9000E+01
#aMCatNLO 1  0  0  1  5 0.43001101D+02 0.00000000D+00  -5  6  0 0.00000000D+00 0.00000000D+00 0.00000000D+00 0.00000000D+00 0.00000000D+00
  <mgrwgt>
 0.2040959565D-01    9    4    0
 0.240213874051611D+03 0.000000000000000D+00 0.000000000000000D+00 0.240213874051611D+03
 0.240213874051611D+03 0.000000000000000D+00 0.000000000000000D+00 -.240213874051611D+03
 0.219397585715930D+03 -.151439766390443D+02 0.172464701445835D+03 -.503675227178562D+02
 0.101062038573159D+03 -.491924189124361D+02 -.286936388785756D+02 0.224299062780366D+02
 0.159968123814133D+03 0.643363955514805D+02 -.143771062567260D+03 0.279376164398195D+02
 0.000000000000000D+00 0.000000000000000D+00 -.000000000000000D+00 0.000000000000000D+00
 0.284650515669486D+03 0.000000000000000D+00 0.000000000000000D+00 0.284650515669486D+03
 0.251806929164380D+03 0.000000000000000D+00 0.000000000000000D+00 -.251806929164380D+03
 0.224970351281338D+03 -.345114869965212D+02 0.176801382563044D+03 -.503675227178562D+02
 0.105201491361656D+03 -.581822913127188D+02 -.266806692627172D+02 0.224299062780366D+02
 0.152176491856273D+03 0.507317594522194D+02 -.140724776937915D+03 0.279376164398195D+02
 0.541091103345990D+02 0.419620188570206D+02 -.939593636241213D+01 0.328435865051056D+02
 0.240213874051611D+03 0.000000000000000D+00 0.000000000000000D+00 0.240213874051611D+03
 0.240213874051611D+03 0.000000000000000D+00 0.000000000000000D+00 -.240213874051611D+03
 0.219397585715930D+03 -.151439766390443D+02 0.172464701445835D+03 -.503675227178562D+02
 0.101062038573159D+03 -.491924189124361D+02 -.286936388785756D+02 0.224299062780366D+02
 0.000000000000000D+00 0.000000000000000D+00 -.000000000000000D+00 0.000000000000000D+00
 0.159968123814133D+03 0.643363955514805D+02 -.143771062567260D+03 0.279376164398195D+02
 0.284650515669486D+03 0.000000000000000D+00 0.000000000000000D+00 0.284650515669486D+03
 0.251806929164380D+03 0.000000000000000D+00 0.000000000000000D+00 -.251806929164380D+03
 0.224970351281338D+03 -.345114869965212D+02 0.176801382563044D+03 -.503675227178562D+02
 0.105201491361656D+03 -.581822913127188D+02 -.266806692627172D+02 0.224299062780366D+02
 0.541091103345990D+02 0.419620188570206D+02 -.939593636241213D+01 0.328435865051056D+02
 0.152176491856273D+03 0.507317594522194D+02 -.140724776937915D+03 0.279376164398195D+02
0.434691247189D-04 0.000000000000D+00 0.000000000000D+00 0.923209712586D-06 0.000000000000D+00  6 2 -1 25 24 21 21 2 0.11436197D+00 0.11942296D-01 0.55128467D+05 0.55128467D+05 0.55128467D+05 0.11881047D+01  1  2  2  1  6  1        2 0.125194485812D-01 0.100000000000D+01
-.397256998123D-05 0.229392873355D-05 -.166932884604D-06 0.923209712586D-06 0.000000000000D+00  6 2 -1 25 24 21 21 4 0.11436197D+00 0.11942296D-01 0.55128467D+05 0.55128467D+05 0.55128467D+05 0.11881047D+01  1  2  3  1  6  1        2 -.161504759108D-02 0.100000000000D+01
0.223598824850D-05 0.000000000000D+00 0.000000000000D+00 0.923209712586D-06 0.000000000000D+00  6 2 -1 25 24 21 21 4 0.11436197D+00 0.11942296D-01 0.55128467D+05 0.55128467D+05 0.55128467D+05 0.11881047D+01  1  2 15  1  6  1        2 0.909040608847D-03 0.100000000000D+01
0.125706239109D-03 0.000000000000D+00 0.000000000000D+00 0.911256743575D-06 0.000000000000D+00  6 2 -1 25 24 21 21 4 0.14512823D+00 0.11942296D-01 0.66211851D+05 0.66211851D+05 0.66211851D+05 0.11803884D+01  1  2 12  1  6  1        2 0.365452722864D-01 0.100000000000D+01
-.147006438076D-03 0.000000000000D+00 0.000000000000D+00 0.923209712586D-06 0.000000000000D+00  6 2 -1 25 24 21 21 4 0.11436197D+00 0.11942296D-01 0.55128467D+05 0.55128467D+05 0.55128467D+05 0.11881047D+01  1  2  4  1  6  1        2 -.597654402087D-01 0.100000000000D+01
-.326139124017D-03 0.000000000000D+00 -.682363649808D-04 0.923209712586D-06 0.000000000000D+00  6 2 -1 25 24 21 21 4 0.13949286D+00 0.11942296D-01 0.55128467D+05 0.55128467D+05 0.55128467D+05 0.11881047D+01  1  2  5  1  6  1        2 -.102689647568D+00 0.100000000000D+01
0.334399056271D-03 0.000000000000D+00 0.669118554171D-04 0.923209712586D-06 0.000000000000D+00  6 2 -1 25 24 21 21 4 0.11436197D+00 0.11942296D-01 0.55128467D+05 0.55128467D+05 0.55128467D+05 0.11881047D+01  1  2  6  1  6  1        2 0.135949874475D+00 0.100000000000D+01
0.410531220327D-05 0.000000000000D+00 0.000000000000D+00 0.911256743575D-06 0.000000000000D+00  6 21 -1 25 24 -2 21 4 0.14512823D+00 0.11942296D-01 0.66211851D+05 0.66211851D+05 0.66211851D+05 0.11803884D+01  3  4 12  4  5  1        2 0.104723236902D-02 0.100000000000D+01
-.850778113550D-05 0.000000000000D+00 -.194254489881D-05 0.923209712586D-06 0.000000000000D+00  6 21 -1 25 24 -2 21 4 0.13949286D+00 0.11942296D-01 0.55128467D+05 0.55128467D+05 0.55128467D+05 0.11881047D+01  3  4  5  4  5  1        2 -.249113730379D-02 0.100000000000D+01
  </mgrwgt>
  </event>
  <event>
  5     66 0.46179844E-03 0.89138260E+02 0.75467711E-02 0.94161746E-01
        2 -1    0    0  502    0 0.00000000E+00 0.00000000E+00 0.14625814E+04 0.14625814E+04 0.32000000E+00 0.0000E+00 0.9000E+01
       -1 -1    0    0    0  501 0.00000000E+00 0.00000000E+00 -.10001347E+04 0.10001348E+04 0.32000000E+00 0.0000E+00 0.9000E+01
       25  1    1    2    0    0 -.13223804E+03 -.21679788E+03 -.57862790E+03 0.64414554E+03 0.12500000E+03 0.0000E+00 0.9000E+01
       24  1    1    2    0    0 0.44583039E+02 0.20060440E+03 -.35589605E+03 0.41875887E+03 0.80419002E+02 0.0000E+00 0.9000E+01
       21  1    1    2  502  501 0.87655000E+02 0.16193475E+02 0.13969706E+04 0.13998118E+04 0.75000000E+00 0.0000E+00 0.9000E+01
#aMCatNLO 1  0  0  2  2 0.17628317D+02 0.00000000D+00  -5  6  0 0.00000000D+00 0.00000000D+00 0.00000000D+00 0.00000000D+00 0.00000000D+00
  <mgrwgt>
 0.7755528484D+00    6    4    0
 0.120945380693515D+04 0.000000000000000D+00 0.000000000000000D+00 0.120945380693515D+04
 0.120945380693515D+04 0.000000000000000D+00 0.000000000000000D+00 -.120945380693515D+04
 0.766433702686900D+03 -.132238045053840D+03 -.216797878611256D+03 -.712255150830339D+03
 0.494383189797888D+03 0.445830356056721D+02 0.200604401674772D+03 -.442399987980622D+03
 0.115809072138551D+04 0.876550094481676D+02 0.161934769364841D+02 0.115465513881096D+04
 0.000000000000000D+00 -.000000000000000D+00 -.000000000000000D+00 -.000000000000000D+00
 0.146875074622874D+04 0.000000000000000D+00 0.000000000000000D+00 0.146875074622874D+04
 0.215612691442159D+04 0.000000000000000D+00 0.000000000000000D+00 -.215612691442159D+04
 0.735772722226342D+03 -.132142955530761D+03 0.311020608900432D+02 -.712255150830339D+03
 0.590132357975487D+03 0.446516853361610D+02 0.379575370126571D+03 -.442399987980622D+03
 0.122843851924529D+04 0.878060765209352D+02 0.410027802604892D+03 0.115465513881096D+04
 0.107053406120321D+04 -.314806326335039D+00 -.820705233621506D+03 -.687376168192846D+03
 0.120945380693515D+04 0.000000000000000D+00 0.000000000000000D+00 0.120945380693515D+04
 0.120945380693515D+04 0.000000000000000D+00 0.000000000000000D+00 -.120945380693515D+04
 0.766433702686900D+03 -.132238045053840D+03 -.216797878611256D+03 -.712255150830339D+03
 0.494383189797888D+03 0.445830356056721D+02 0.200604401674772D+03 -.442399987980622D+03
 0.000000000000000D+00 -.000000000000000D+00 -.000000000000000D+00 -.000000000000000D+00
 0.115809072138551D+04 0.876550094481676D+02 0.161934769364841D+02 0.115465513881096D+04
 0.146875074622874D+04 0.000000000000000D+00 0.000000000000000D+00 0.146875074622874D+04
 0.215612691442159D+04 0.000000000000000D+00 0.000000000000000D+00 -.215612691442159D+04
 0.735772722226342D+03 -.132142955530761D+03 0.311020608900432D+02 -.712255150830339D+03
 0.590132357975487D+03 0.446516853361610D+02 0.379575370126571D+03 -.442399987980622D+03
 0.107053406120321D+04 -.314806326335039D+00 -.820705233621506D+03 -.687376168192846D+03
 0.122843851924529D+04 0.878060765209352D+02 0.410027802604892D+03 0.115465513881096D+04
0.641324811639D+00 0.000000000000D+00 0.000000000000D+00 0.214929139576D-04 0.000000000000D+00  6 2 -1 25 24 21 21 2 0.22501252D+00 0.15386689D+00 0.87869260D+05 0.87869260D+05 0.87869260D+05 0.11687664D+01  1  2  2  2  6  2       -1 0.507879668396D+00 0.100000000000D+01
0.168126939021D+00 0.338436401117D-01 -.246285614140D-02 0.214929139576D-04 0.000000000000D+00  6 2 -1 25 24 21 21 4 0.22501252D+00 0.15386689D+00 0.87869260D+05 0.87869260D+05 0.87869260D+05 0.11687664D+01  1  2  3  2  6  2       -1 0.181876070593D+00 0.100000000000D+01
0.191079395888D-01 0.000000000000D+00 0.000000000000D+00 0.214929139576D-04 0.000000000000D+00  6 2 -1 25 24 21 21 4 0.22501252D+00 0.15386689D+00 0.87869260D+05 0.87869260D+05 0.87869260D+05 0.11687664D+01  1  2 15  2  6  2       -1 0.206705539860D-01 0.100000000000D+01
0.246239169999D+00 0.000000000000D+00 -.289154187389D+00 0.214929139576D-04 0.000000000000D+00  6 2 -1 25 24 21 21 4 0.22501252D+00 0.29931640D+00 0.87869260D+05 0.87869260D+05 0.87869260D+05 0.11687664D+01  1  2  5  2  6  2       -1 0.292571729088D-01 0.100000000000D+01
0.142920205625D-03 0.000000000000D+00 0.235146320849D+00 0.214929139576D-04 0.000000000000D+00  6 2 -1 25 24 21 21 4 0.22501252D+00 0.15386689D+00 0.87869260D+05 0.87869260D+05 0.87869260D+05 0.11687664D+01  1  2  6  2  6  2       -1 0.154607973943D-03 0.100000000000D+01
0.346873321317D-01 0.000000000000D+00 -.208554647343D-01 0.214929139576D-04 0.000000000000D+00  6 2 21 25 24 1 21 4 0.22501252D+00 0.29931640D+00 0.87869260D+05 0.87869260D+05 0.87869260D+05 0.11687664D+01  3  4  5  5  5  2       -1 0.357147745708D-01 0.100000000000D+01
  </mgrwgt>
  </event>
  <event>
  5     66 0.46179844E-03 0.31163758E+02 0.75467711E-02 0.12312555E+00
        2 -1    0    0  502    0 0.00000000E+00 0.00000000E+00 0.47193936E+03 0.47193947E+03 0.32000000E+00 0.0000E+00 0.9000E+01
       -1 -1    0    0    0  501 0.00000000E+00 0.00000000E+00 -.22583970E+03 0.22583993E+03 0.32000000E+00 0.0000E+00 0.9000E+01
       25  1    1    2    0    0 -.12229120E+01 0.17581509E+02 0.27017259E+03 0.29820938E+03 0.12500000E+03 0.0000E+00 0.9000E+01
       24  1    1    2    0    0 0.10146333E+02 0.13182680E+02 0.17744188E+03 0.19552383E+03 0.80419002E+02 0.0000E+00 0.9000E+01
       21  1    1    2  502  501 -.89234212E+01 -.30764190E+02 -.20151481E+03 0.20404619E+03 0.75000000E+00 0.0000E+00 0.9000E+01
#aMCatNLO 1  0  0  5  1 0.15112691D+02 0.00000000D+00  -5  6  0 0.00000000D+00 0.00000000D+00 0.00000000D+00 0.00000000D+00 0.00000000D+00
  <mgrwgt>
 0.2408817151D+00   15    2    0
 0.326470153990813D+03 0.000000000000000D+00 0.000000000000000D+00 0.326470153990813D+03
 0.326470153990813D+03 -.000000000000000D+00 -.000000000000000D+00 -.326470153990813D+03
 0.216857722286472D+03 -.122290240496307D+01 0.175815425735719D+02 0.176328289238336D+03
 0.142071527455036D+03 0.101463395879724D+02 0.131827020149799D+02 0.115932614563747D+03
 0.294011058240117D+03 -.892343718300925D+01 -.307642445885516D+02 -.292260903802083D+03
 0.000000000000000D+00 -.000000000000000D+00 0.000000000000000D+00 0.000000000000000D+00
 0.326470153990813D+03 0.000000000000000D+00 0.000000000000000D+00 0.326470153990813D+03
 0.326470153990813D+03 -.000000000000000D+00 -.000000000000000D+00 -.326470153990813D+03
 0.214114790177002D+03 -.132518053315764D+01 0.172289307618557D+02 0.172978470376805D+03
 0.140260183730669D+03 0.100793368021451D+02 0.129517046930925D+02 0.113738135649228D+03
 0.281961284196480D+03 0.651102742107680D+01 -.307219417182129D+02 -.280206949601028D+03
 0.166040498774749D+02 -.152651836900642D+02 0.541306263264939D+00 -.650965642500595D+01
0.660974991419D-03 0.000000000000D+00 0.000000000000D+00 0.132725046494D-03 0.000000000000D+00  6 2 -1 25 24 21 21 2 0.72606082D-01 0.34744595D-01 0.14446853D+05 0.14446853D+05 0.14446853D+05 0.12496871D+01  1  2  2  3  6  5       21 0.624853429641D-01 0.100000000000D+01
0.138696739028D-03 0.348806085878D-04 -.253831800576D-05 0.132725046494D-03 0.000000000000D+00  6 2 -1 25 24 21 21 4 0.72606082D-01 0.34744595D-01 0.14446853D+05 0.14446853D+05 0.14446853D+05 0.12496871D+01  1  2  3  3  6  5       21 0.204767937762D-01 0.100000000000D+01
0.143445040849D-04 0.000000000000D+00 0.000000000000D+00 0.132725046494D-03 0.000000000000D+00  6 2 -1 25 24 21 21 4 0.72606082D-01 0.34744595D-01 0.14446853D+05 0.14446853D+05 0.14446853D+05 0.12496871D+01  1  2 15  3  6  5       21 0.211778196104D-02 0.100000000000D+01
0.181888406396D-02 0.000000000000D+00 0.000000000000D+00 0.131494732496D-03 0.000000000000D+00  6 2 -1 25 24 21 21 4 0.72606082D-01 0.34744595D-01 0.16249154D+05 0.16249154D+05 0.16249154D+05 0.12438815D+01  1  2 12  3  6  5       21 0.263538870669D+00 0.100000000000D+01
-.997778926667D-03 0.000000000000D+00 0.000000000000D+00 0.132725046494D-03 0.000000000000D+00  6 2 -1 25 24 21 21 4 0.72606082D-01 0.34744595D-01 0.14446853D+05 0.14446853D+05 0.14446853D+05 0.12496871D+01  1  2  4  3  6  5       21 -.147309255133D+00 0.100000000000D+01
-.572194419475D-02 0.000000000000D+00 0.000000000000D+00 0.132725046494D-03 0.000000000000D+00  6 2 -1 25 24 21 21 4 0.72606082D-01 0.34744595D-01 0.14446853D+05 0.14446853D+05 0.14446853D+05 0.12496871D+01  1  2  5  3  6  5       21 -.844771636997D+00 0.100000000000D+01
0.604205435541D-02 0.000000000000D+00 -.000000000000D+00 0.132725046494D-03 0.000000000000D+00  6 2 -1 25 24 21 21 4 0.72606082D-01 0.34744595D-01 0.14446853D+05 0.14446853D+05 0.14446853D+05 0.12496871D+01  1  2  6  3  6  5       21 0.892031794600D+00 0.100000000000D+01
0.131839621815D-04 0.000000000000D+00 0.000000000000D+00 0.131494732496D-03 0.000000000000D+00  6 2 -1 25 24 1 -1 4 0.72606082D-01 0.34744595D-01 0.16249154D+05 0.16249154D+05 0.16249154D+05 0.12438815D+01  1  2 12  6  6  5       21 0.191022977940D-02 0.100000000000D+01
-.259570405130D-04 0.000000000000D+00 0.000000000000D+00 0.132725046494D-03 0.000000000000D+00  6 2 -1 25 24 1 -1 4 0.72606082D-01 0.34744595D-01 0.14446853D+05 0.14446853D+05 0.14446853D+05 0.12496871D+01  1  2  5  6  6  5       21 -.383222395386D-02 0.100000000000D+01
0.131839621815D-04 0.000000000000D+00 0.000000000000D+00 0.131494732496D-03 0.000000000000D+00  6 2 -1 25 24 2 -2 4 0.72606082D-01 0.34744595D-01 0.16249154D+05 0.16249154D+05 0.16249154D+05 0.12438815D+01  1  2 12  7  6  5       21 0.191022977940D-02 0.100000000000D+01
-.259570405130D-04 0.000000000000D+00 0.000000000000D+00 0.132725046494D-03 0.000000000000D+00  6 2 -1 25 24 2 -2 4 0.72606082D-01 0.34744595D-01 0.14446853D+05 0.14446853D+05 0.14446853D+05 0.12496871D+01  1  2  5  7  6  5       21 -.383222395386D-02 0.100000000000D+01
0.131839621815D-04 0.000000000000D+00 0.000000000000D+00 0.131494732496D-03 0.000000000000D+00  6 2 -1 25 24 3 -3 4 0.72606082D-01 0.34744595D-01 0.16249154D+05 0.16249154D+05 0.16249154D+05 0.12438815D+01  1  2 12  8  6  5       21 0.191022977940D-02 0.100000000000D+01
0.131839621815D-04 0.000000000000D+00 0.000000000000D+00 0.131494732496D-03 0.000000000000D+00  6 2 -1 25 24 4 -4 4 0.72606082D-01 0.34744595D-01 0.16249154D+05 0.16249154D+05 0.16249154D+05 0.12438815D+01  1  2 12  8  6  5       21 0.191022977940D-02 0.100000000000D+01
-.259570405130D-04 0.000000000000D+00 0.000000000000D+00 0.132725046494D-03 0.000000000000D+00  6 2 -1 25 24 3 -3 4 0.72606082D-01 0.34744595D-01 0.14446853D+05 0.14446853D+05 0.14446853D+05 0.12496871D+01  1  2  5  8  6  5       21 -.383222395386D-02 0.100000000000D+01
-.259570405130D-04 0.000000000000D+00 0.000000000000D+00 0.132725046494D-03 0.000000000000D+00  6 2 -1 25 24 4 -4 4 0.72606082D-01 0.34744595D-01 0.14446853D+05 0.14446853D+05 0.14446853D+05 0.12496871D+01  1  2  5  8  6  5       21 -.383222395386D-02 0.100000000000D+01
  </mgrwgt>
  </event>
  <event>
  5     66 0.46179844E-03 0.41839539E+02 0.75467711E-02 0.11978655E+00
        2 -1    0    0  502    0 0.00000000E+00 0.00000000E+00 0.21228301E+03 0.21228325E+03 0.32000000E+00 0.0000E+00 0.9000E+01
       -1 -1    0    0    0  501 0.00000000E+00 0.00000000E+00 -.10217699E+03 0.10217749E+03 0.32000000E+00 0.0000E+00 0.9000E+01
       25  1    1    2    0    0 -.30373174E+02 -.89275527E+02 0.62184707E+02 0.16847726E+03 0.12500000E+03 0.0000E+00 0.9000E+01
       24  1    1    2    0    0 0.15545837E+02 0.50157559E+02 0.34112621E+02 0.10192321E+03 0.80419002E+02 0.0000E+00 0.9000E+01
       21  1    1    2  502  501 0.14827337E+02 0.39117968E+02 0.13808689E+02 0.44060274E+02 0.75000000E+00 0.0000E+00 0.9000E+01
#aMCatNLO 1  0  0  1  5 0.96579658D+01 0.00000000D+00  -5  6  0 0.00000000D+00 0.00000000D+00 0.00000000D+00 0.00000000D+00 0.00000000D+00
  <mgrwgt>
 0.4246779764D+00   11    4    0
 0.147277140340898D+03 0.000000000000000D+00 0.000000000000000D+00 0.147277140340898D+03
 0.147277140340898D+03 0.000000000000000D+00 0.000000000000000D+00 -.147277140340898D+03
 0.156620394271893D+03 -.303744388356488D+02 -.892788638356133D+02 0.340966853589741D+01
 0.960586660988465D+02 0.155450611797384D+02 0.501555129519402D+02 -.168136009381871D+01
 0.418752203110571D+02 0.148293776559104D+02 0.391233508836730D+02 -.172830844207871D+01
 0.000000000000000D+00 -.000000000000000D+00 -.000000000000000D+00 0.000000000000000D+00
 0.161063236644767D+03 0.000000000000000D+00 0.000000000000000D+00 0.161063236644767D+03
 0.149057545666212D+03 0.000000000000000D+00 0.000000000000000D+00 -.149057545666212D+03
 0.153701682468439D+03 -.276352352485459D+02 -.849933828416178D+02 0.340966853589741D+01
 0.977704387641221D+02 0.172559848268815D+02 0.528322511128171D+02 -.168136009381871D+01
 0.432404515771719D+02 0.155806911177303D+02 0.402987799669006D+02 -.172830844207871D+01
 0.154082095012457D+02 -.520144069606581D+01 -.813764823809993D+01 0.120056909785542D+02
 0.147277140340898D+03 0.000000000000000D+00 0.000000000000000D+00 0.147277140340898D+03
 0.147277140340898D+03 0.000000000000000D+00 0.000000000000000D+00 -.147277140340898D+03
 0.156620394271893D+03 -.303744388356488D+02 -.892788638356133D+02 0.340966853589741D+01
 0.960586660988465D+02 0.155450611797384D+02 0.501555129519402D+02 -.168136009381871D+01
 0.000000000000000D+00 -.000000000000000D+00 -.000000000000000D+00 0.000000000000000D+00
 0.418752203110571D+02 0.148293776559104D+02 0.391233508836730D+02 -.172830844207871D+01
 0.161063236644767D+03 0.000000000000000D+00 0.000000000000000D+00 0.161063236644767D+03
 0.149057545666212D+03 0.000000000000000D+00 0.000000000000000D+00 -.149057545666212D+03
 0.153701682468439D+03 -.276352352485459D+02 -.849933828416178D+02 0.340966853589741D+01
 0.977704387641221D+02 0.172559848268815D+02 0.528322511128171D+02 -.168136009381871D+01
 0.154082095012457D+02 -.520144069606581D+01 -.813764823809993D+01 0.120056909785542D+02
 0.432404515771719D+02 0.155806911177303D+02 0.402987799669006D+02 -.172830844207871D+01
0.645935411777D-04 0.000000000000D+00 0.000000000000D+00 0.127084197920D-04 0.000000000000D+00  6 2 -1 25 24 21 21 2 0.32658982D-01 0.15719594D-01 0.21677669D+05 0.21677669D+05 0.21677669D+05 0.12299933D+01  1  2  2  1  6  1        2 0.509567632223D-01 0.100000000000D+01
0.405053995725D-05 0.340869481655D-05 -.248056205992D-06 0.127084197920D-04 0.000000000000D+00  6 2 -1 25 24 21 21 4 0.32658982D-01 0.15719594D-01 0.21677669D+05 0.21677669D+05 0.21677669D+05 0.12299933D+01  1  2  3  1  6  1        2 0.483427245429D-02 0.100000000000D+01
0.327611001324D-05 0.000000000000D+00 0.000000000000D+00 0.127084197920D-04 0.000000000000D+00  6 2 -1 25 24 21 21 4 0.32658982D-01 0.15719594D-01 0.21677669D+05 0.21677669D+05 0.21677669D+05 0.12299933D+01  1  2 15  1  6  1        2 0.390999929919D-02 0.100000000000D+01
0.671805700135D-03 0.000000000000D+00 0.000000000000D+00 0.126445686863D-04 0.000000000000D+00  6 2 -1 25 24 21 21 4 0.37039883D-01 0.15719594D-01 0.23147143D+05 0.23147143D+05 0.23147143D+05 0.12268994D+01  1  2 12  1  6  1        2 0.694547928730D+00 0.100000000000D+01
-.406671064459D-03 0.000000000000D+00 0.000000000000D+00 0.127084197920D-04 0.000000000000D+00  6 2 -1 25 24 21 21 4 0.32658982D-01 0.15719594D-01 0.21677669D+05 0.21677669D+05 0.21677669D+05 0.12299933D+01  1  2  4  1  6  1        2 -.485357198204D+00 0.100000000000D+01
-.170502976556D-02 0.000000000000D+00 -.208997065035D-03 0.127084197920D-04 0.000000000000D+00  6 2 -1 25 24 21 21 4 0.36050358D-01 0.15719594D-01 0.21677669D+05 0.21677669D+05 0.21677669D+05 0.12299933D+01  1  2  5  1  6  1        2 -.182985567788D+01 0.100000000000D+01
0.171830104325D-02 0.000000000000D+00 0.207981205240D-03 0.127084197920D-04 0.000000000000D+00  6 2 -1 25 24 21 21 4 0.32658982D-01 0.15719594D-01 0.21677669D+05 0.21677669D+05 0.21677669D+05 0.12299933D+01  1  2  6  1  6  1        2 0.205077236349D+01 0.100000000000D+01
0.819261080906D-09 0.000000000000D+00 0.000000000000D+00 0.127084197920D-04 0.333083510329D-06  6 2 -1 25 24 21 21 4 0.35716074D-01 0.15909626D-01 0.23147143D+05 0.23147143D+05 0.23147143D+05 0.12268994D+01  1  2 11  1  6  1        2 0.864171109054D-06 0.100000000000D+01
0.132846710796D-04 0.000000000000D+00 0.000000000000D+00 0.126445686863D-04 0.000000000000D+00  6 21 -1 25 24 -2 21 4 0.37039883D-01 0.15719594D-01 0.23147143D+05 0.23147143D+05 0.23147143D+05 0.12268994D+01  3  4 12  4  5  1        2 0.569179294452D-01 0.100000000000D+01
-.267314080949D-04 0.000000000000D+00 -.335925363908D-05 0.127084197920D-04 0.000000000000D+00  6 21 -1 25 24 -2 21 4 0.36050358D-01 0.15719594D-01 0.21677669D+05 0.21677669D+05 0.21677669D+05 0.12299933D+01  3  4  5  4  5  1        2 -.122049367045D+00 0.100000000000D+01
0.218510120725D-10 0.000000000000D+00 0.000000000000D+00 0.127084197920D-04 0.171658625032D-07  6 21 -1 25 24 -2 21 4 0.35716074D-01 0.15909626D-01 0.23147143D+05 0.23147143D+05 0.23147143D+05 0.12268994D+01  3  4 11  4  5  1        2 0.987344894312D-07 0.100000000000D+01
  </mgrwgt>
  </event>
  <event>
  5     66 0.46179844E-03 0.57622072E+02 0.75467711E-02 0.12176847E+00
        2 -1    0    0  502    0 0.00000000E+00 0.00000000E+00 0.42395018E+03 0.42395030E+03 0.32000000E+00 0.0000E+00 0.9000E+01
       -1 -1    0    0    0  501 0.00000000E+00 0.00000000E+00 -.50314224E+02 0.50315242E+02 0.32000000E+00 0.0000E+00 0.9000E+01
       25  1    1    2    0    0 0.37541772E+02 0.16211920E+02 0.15530305E+03 0.20350983E+03 0.12500000E+03 0.0000E+00 0.9000E+01
       24  1    1    2    0    0 0.18667480E+02 0.50319483E+01 0.18354086E+03 0.20131631E+03 0.80419002E+02 0.0000E+00 0.9000E+01
       21  1    1    2  502  501 -.56209253E+02 -.21243868E+02 0.34792047E+02 0.69439405E+02 0.75000000E+00 0.0000E+00 0.9000E+01
#aMCatNLO 1  0  0  5  2 0.16484684D+01 0.00000000D+00  -5  6  0 0.00000000D+00 0.00000000D+00 0.00000000D+00 0.00000000D+00 0.00000000D+00
  <mgrwgt>
 0.2021151346D+00   25    2    0
 0.146051341636585D+03 0.000000000000000D+00 0.000000000000000D+00 0.146051341636585D+03
 0.146051341636585D+03 -.000000000000000D+00 -.000000000000000D+00 -.146051341636585D+03
 0.131772242970469D+03 0.375433036466073D+02 0.162124989551916D+02 -.815961067667287D+01
 0.920911612557916D+02 0.186685508825878D+02 0.503235281739074D+01 0.404935384985704D+02
 0.682392790469102D+02 -.562118545291951D+02 -.212448517725824D+02 -.323339278218976D+02
 0.000000000000000D+00 0.000000000000000D+00 0.000000000000000D+00 -.000000000000000D+00
 0.146051341636585D+03 0.000000000000000D+00 0.000000000000000D+00 0.146051341636585D+03
 0.146051341636585D+03 -.000000000000000D+00 -.000000000000000D+00 -.146051341636585D+03
 0.131682959174145D+03 0.372398180519270D+02 0.160977988349394D+02 -.833418028295194D+01
 0.919904658164106D+02 0.184564991880038D+02 0.495220945871146D+01 0.403715630852948D+02
 0.663232229191822D+02 -.553260298202973D+02 -.209729307129650D+02 -.299655885979281D+02
 0.210603536343292D+01 -.370287419633616D+00 -.770775806859089D-01 -.207179420441479D+01
0.327655307774D-04 0.000000000000D+00 0.000000000000D+00 0.751592121101D-05 0.000000000000D+00  6 2 -1 25 24 21 21 2 0.65223193D-01 0.77407374D-02 0.18813223D+05 0.18813223D+05 0.18813223D+05 0.12367616D+01  1  2  2  3  6  5       21 0.370066650658D-01 0.100000000000D+01
-.111940267036D-05 0.172908456304D-05 -.125828265548D-06 0.751592121101D-05 0.000000000000D+00  6 2 -1 25 24 21 21 4 0.65223193D-01 0.77407374D-02 0.18813223D+05 0.18813223D+05 0.18813223D+05 0.12367616D+01  1  2  3  3  6  5       21 -.193384228435D-02 0.100000000000D+01
0.143600250631D-05 0.000000000000D+00 0.000000000000D+00 0.751592121101D-05 0.000000000000D+00  6 2 -1 25 24 21 21 4 0.65223193D-01 0.77407374D-02 0.18813223D+05 0.18813223D+05 0.18813223D+05 0.12367616D+01  1  2 15  3  6  5       21 0.248078947878D-02 0.100000000000D+01
0.486996992912D-08 0.000000000000D+00 0.000000000000D+00 0.751891107295D-05 0.000000000000D+00  6 2 -1 25 24 21 21 4 0.65223193D-01 0.77407374D-02 0.18717421D+05 0.18717421D+05 0.18717421D+05 0.12370076D+01  1  2 12  3  6  5       21 0.841859537437D-05 0.100000000000D+01
0.430190072618D-08 0.000000000000D+00 0.000000000000D+00 0.751891107295D-05 0.000000000000D+00  6 2 -1 25 24 21 21 4 0.65223193D-01 0.77407374D-02 0.18717421D+05 0.18717421D+05 0.18717421D+05 0.12370076D+01  1  2 12  3  6  5       21 0.743658833247D-05 0.100000000000D+01
-.292035747841D-03 0.000000000000D+00 0.000000000000D+00 0.751592121101D-05 0.000000000000D+00  6 2 -1 25 24 21 21 4 0.65223193D-01 0.77407374D-02 0.18813223D+05 0.18813223D+05 0.18813223D+05 0.12367616D+01  1  2  4  3  6  5       21 -.504511104603D+00 0.100000000000D+01
-.851157956909D-03 0.000000000000D+00 0.000000000000D+00 0.751592121101D-05 0.000000000000D+00  6 2 -1 25 24 21 21 4 0.65223193D-01 0.77407374D-02 0.18813223D+05 0.18813223D+05 0.18813223D+05 0.12367616D+01  1  2  5  3  6  5       21 -.147043176805D+01 0.100000000000D+01
0.878056616912D-03 0.000000000000D+00 -.000000000000D+00 0.751592121101D-05 0.000000000000D+00  6 2 -1 25 24 21 21 4 0.65223193D-01 0.77407374D-02 0.18813223D+05 0.18813223D+05 0.18813223D+05 0.12367616D+01  1  2  6  3  6  5       21 0.151690098550D+01 0.100000000000D+01
0.361636322062D-03 0.000000000000D+00 0.000000000000D+00 0.751592121101D-05 0.315370826512D-03  6 2 -1 25 24 21 21 4 0.65223193D-01 0.77407374D-02 0.18717421D+05 0.18717421D+05 0.18717421D+05 0.12370076D+01  1  2 11  3  6  5       21 0.625151676997D+00 0.100000000000D+01
0.384881602368D-09 0.000000000000D+00 0.000000000000D+00 0.751891107295D-05 0.000000000000D+00  6 2 -1 25 24 1 -1 4 0.65223193D-01 0.77407374D-02 0.18717421D+05 0.18717421D+05 0.18717421D+05 0.12370076D+01  1  2 12  6  6  5       21 0.665335212440D-06 0.100000000000D+01
0.379757922622D-09 0.000000000000D+00 0.000000000000D+00 0.751891107295D-05 0.000000000000D+00  6 2 -1 25 24 1 -1 4 0.65223193D-01 0.77407374D-02 0.18717421D+05 0.18717421D+05 0.18717421D+05 0.12370076D+01  1  2 12  6  6  5       21 0.656478035244D-06 0.100000000000D+01
-.200044721665D-05 0.000000000000D+00 0.000000000000D+00 0.751592121101D-05 0.000000000000D+00  6 2 -1 25 24 1 -1 4 0.65223193D-01 0.77407374D-02 0.18813223D+05 0.18813223D+05 0.18813223D+05 0.12367616D+01  1  2  5  6  6  5       21 -.345590511582D-02 0.100000000000D+01
0.153755685125D-06 0.000000000000D+00 0.000000000000D+00 0.751592121101D-05 0.267841741718D-06  6 2 -1 25 24 1 -1 4 0.65223193D-01 0.77407374D-02 0.18717421D+05 0.18717421D+05 0.18717421D+05 0.12370076D+01  1  2 11  6  6  5       21 0.265793612366D-03 0.100000000000D+01
0.384881602368D-09 0.000000000000D+00 0.000000000000D+00 0.751891107295D-05 0.000000000000D+00  6 2 -1 25 24 2 -2 4 0.65223193D-01 0.77407374D-02 0.18717421D+05 0.18717421D+05 0.18717421D+05 0.12370076D+01  1  2 12  7  6  5       21 0.665335212440D-06 0.100000000000D+01
0.379757922622D-09 0.000000000000D+00 0.000000000000D+00 0.751891107295D-05 0.000000000000D+00  6 2 -1 25 24 2 -2 4 0.65223193D-01 0.77407374D-02 0.18717421D+05 0.18717421D+05 0.18717421D+05 0.12370076D+01  1  2 12  7  6  5       21 0.656478035244D-06 0.100000000000D+01
-.200044721665D-05 0.000000000000D+00 0.000000000000D+00 0.751592121101D-05 0.000000000000D+00  6 2 -1 25 24 2 -2 4 0.65223193D-01 0.77407374D-02 0.18813223D+05 0.18813223D+05 0.18813223D+05 0.12367616D+01  1  2  5  7  6  5       21 -.345590511582D-02 0.100000000000D+01
0.212064686047D-05 0.000000000000D+00 0.000000000000D+00 0.751592121101D-05 0.973304255030D-07  6 2 -1 25 24 2 -2 4 0.65223193D-01 0.77407374D-02 0.18717421D+05 0.18717421D+05 0.18717421D+05 0.12370076D+01  1  2 11  7  6  5       21 0.366590925817D-02 0.100000000000D+01
0.384881602368D-09 0.000000000000D+00 0.000000000000D+00 0.751891107295D-05 0.000000000000D+00  6 2 -1 25 24 3 -3 4 0.65223193D-01 0.77407374D-02 0.18717421D+05 0.18717421D+05 0.18717421D+05 0.12370076D+01  1  2 12  8  6  5       21 0.665335212440D-06 0.100000000000D+01
0.384881602368D-09 0.000000000000D+00 0.000000000000D+00 0.751891107295D-05 0.000000000000D+00  6 2 -1 25 24 4 -4 4 0.65223193D-01 0.77407374D-02 0.18717421D+05 0.18717421D+05 0.18717421D+05 0.12370076D+01  1  2 12  8  6  5       21 0.665335212440D-06 0.100000000000D+01
0.379757922622D-09 0.000000000000D+00 0.000000000000D+00 0.751891107295D-05 0.000000000000D+00  6 2 -1 25 24 3 -3 4 0.65223193D-01 0.77407374D-02 0.18717421D+05 0.18717421D+05 0.18717421D+05 0.12370076D+01  1  2 12  8  6  5       21 0.656478035244D-06 0.100000000000D+01
0.379757922622D-09 0.000000000000D+00 0.000000000000D+00 0.751891107295D-05 0.000000000000D+00  6 2 -1 25 24 4 -4 4 0.65223193D-01 0.77407374D-02 0.18717421D+05 0.18717421D+05 0.18717421D+05 0.12370076D+01  1  2 12  8  6  5       21 0.656478035244D-06 0.100000000000D+01
-.200044721665D-05 0.000000000000D+00 0.000000000000D+00 0.751592121101D-05 0.000000000000D+00  6 2 -1 25 24 3 -3 4 0.65223193D-01 0.77407374D-02 0.18813223D+05 0.18813223D+05 0.18813223D+05 0.12367616D+01  1  2  5  8  6  5       21 -.345590511582D-02 0.100000000000D+01
-.200044721665D-05 0.000000000000D+00 0.000000000000D+00 0.751592121101D-05 0.000000000000D+00  6 2 -1 25 24 4 -4 4 0.65223193D-01 0.77407374D-02 0.18813223D+05 0.18813223D+05 0.18813223D+05 0.12367616D+01  1  2  5  8  6  5       21 -.345590511582D-02 0.100000000000D+01
0.211795379390D-05 0.000000000000D+00 0.000000000000D+00 0.751592121101D-05 0.971827333752D-07  6 2 -1 25 24 3 -3 4 0.65223193D-01 0.77407374D-02 0.18717421D+05 0.18717421D+05 0.18717421D+05 0.12370076D+01  1  2 11  8  6  5       21 0.366125382126D-02 0.100000000000D+01
0.211795379390D-05 0.000000000000D+00 0.000000000000D+00 0.751592121101D-05 0.971827333752D-07  6 2 -1 25 24 4 -4 4 0.65223193D-01 0.77407374D-02 0.18717421D+05 0.18717421D+05 0.18717421D+05 0.12370076D+01  1  2 11  8  6  5       21 0.366125382126D-02 0.100000000000D+01
  </mgrwgt>
  </event>
  <event>
  6     66 0.46179844E-03 0.14139322E+02 0.75467711E-02 0.11175195E+00
        2 -1    0    0  502    0 0.00000000E+00 0.00000000E+00 0.20826028E+03 0.20826053E+03 0.32000000E+00 0.0000E+00 0.9000E+01
       -1 -1    0    0    0  503 0.00000000E+00 0.00000000E+00 -.39852841E+03 0.39852854E+03 0.32000000E+00 0.0000E+00 0.9000E+01
       25  1    1    2    0    0 0.15365232E+03 -.11216292E+03 -.30206233E+02 0.22962355E+03 0.12500000E+03 0.0000E+00 0.9000E+01
       24  1    1    2    0    0 -.18441676E+03 0.90903837E+02 -.22293810E+02 0.22189475E+03 0.80419002E+02 0.0000E+00 0.9000E+01
       21  1    1    2  502  501 0.15360644E+02 0.51962264E+01 -.53403822E+00 0.16241855E+02 0.75000000E+00 0.0000E+00 0.9000E+01
       21  1    1    2  501  503 0.15403795E+02 0.16062855E+02 -.13723405E+03 0.13902891E+03 0.75000000E+00 0.0000E+00 0.9000E+01
#aMCatNLO 2  0  0  2  1 0.11047049D+03 0.00000000D+00  -5  6  0 0.00000000D+00 0.00000000D+00 0.00000000D+00 0.00000000D+00 0.00000000D+00
  <mgrwgt>
 0.1503793064D+01    1    2    0
 0.232105392734130D+03 0.000000000000000D+00 0.000000000000000D+00 0.232105392734130D+03
 0.232105392734130D+03 0.000000000000000D+00 0.000000000000000D+00 -.232105392734130D+03
 0.229141698815263D+03 0.161219466043573D+03 -.104266802475245D+03 -.419950070344149D+01
 0.218075152980454D+03 -.177146918773274D+03 0.984896832422795D+02 0.288233534630012D+01
 0.169939336725429D+02 0.159274527297003D+02 0.577711923296513D+01 0.131716535714136D+01
 0.000000000000000D+00 0.000000000000000D+00 0.000000000000000D+00 -.000000000000000D+00
 0.233376518637634D+03 0.000000000000000D+00 0.000000000000000D+00 0.233376518637634D+03
 0.355635393392640D+03 0.000000000000000D+00 0.000000000000000D+00 -.355635393392640D+03
 0.227663066029719D+03 0.153644794622384D+03 -.112165560281842D+03 -.419950070344149D+01
 0.220795858424347D+03 -.184424215254199D+03 0.909010237224971D+02 0.288233534630012D+01
 0.162850325188437D+02 0.153756256614732D+02 0.520168194721594D+01 0.131716535714136D+01
 0.124267955057364D+03 0.154037949703413D+02 0.160628546121287D+02 -.122258874755006D+03
0.146743748794D-01 0.000000000000D+00 0.000000000000D+00 0.590742657156D-04 0.532713050607D-06  6 2 -1 25 24 21 21 4 0.32039917D-01 0.61311796D-01 0.59265033D+05 0.59265033D+05 0.59265033D+05 0.11850386D+01  1  2  1  2  6  2       -1 0.150379306430D+01 0.100000000000D+01
  </mgrwgt>
  </event>
  <event>
  6     66 0.46179844E-03 0.16266093E+02 0.75467711E-02 0.10583434E+00
        2 -1    0    0  502    0 0.00000000E+00 0.00000000E+00 0.12148326E+04 0.12148327E+04 0.32000000E+00 0.0000E+00 0.9000E+01
       -1 -1    0    0    0  503 0.00000000E+00 0.00000000E+00 -.11821676E+03 0.11821719E+03 0.32000000E+00 0.0000E+00 0.9000E+01
       25  1    1    2    0    0 0.11416046E+03 0.31210368E+03 0.39579465E+03 0.53171395E+03 0.12500000E+03 0.0000E+00 0.9000E+01
       24  1    1    2    0    0 -.11181842E+03 -.28184144E+03 0.61128891E+03 0.68708028E+03 0.80419002E+02 0.0000E+00 0.9000E+01
       21  1    1    2  502  501 -.22011065E+02 -.98714384E+01 0.81206181E+02 0.84716814E+02 0.75000000E+00 0.0000E+00 0.9000E+01
       21  1    1    2  501  503 0.19669027E+02 -.20390804E+02 0.83261403E+01 0.29538832E+02 0.75000000E+00 0.0000E+00 0.9000E+01
#aMCatNLO 2  0  0  2  5 0.10417955D+02 0.00000000D+00  -5  6  0 0.00000000D+00 0.00000000D+00 0.00000000D+00 0.00000000D+00 0.00000000D+00
  <mgrwgt>
 0.1307906479D+01    1    2    0
 0.358456346244831D+03 0.000000000000000D+00 0.000000000000000D+00 0.358456346244831D+03
 0.358456346244831D+03 0.000000000000000D+00 0.000000000000000D+00 -.358456346244831D+03
 0.360210405810983D+03 0.124117246479840D+03 0.301786506002768D+03 -.874434124186416D+02
 0.326264106412642D+03 -.102938904810927D+03 -.291042279768120D+03 0.684033949637866D+02
 0.304381802660361D+02 -.211783416689130D+02 -.107442262346483D+02 0.190400174548550D+02
 0.000000000000000D+00 0.000000000000000D+00 -.000000000000000D+00 -.000000000000000D+00
 0.364411956059478D+03 0.000000000000000D+00 0.000000000000000D+00 0.364411956059478D+03
 0.394090307095717D+03 0.000000000000000D+00 0.000000000000000D+00 -.394090307095717D+03
 0.365669886636501D+03 0.114163601475471D+03 0.312105411224292D+03 -.874434124186416D+02
 0.321064998394265D+03 -.111815415410931D+03 -.281840035611423D+03 0.684033949637866D+02
 0.307373890904530D+02 -.220172126324180D+02 -.987457195607036D+01 0.190400174548550D+02
 0.410299890339766D+02 0.196690265678787D+02 -.203908036567986D+02 -.296783510362387D+02
0.141323370371D-01 0.000000000000D+00 0.000000000000D+00 0.238460324288D-04 0.908433188877D-07  6 2 -1 25 24 21 21 4 0.18689563D+00 0.18187061D-01 0.13003803D+06 0.13003803D+06 0.13003803D+06 0.11532361D+01  1  2  1  2  6  2       -1 0.130790647946D+01 0.100000000000D+01
  </mgrwgt>
  </event>
  <event>
  5     66 0.46179844E-03 0.34876739E+02 0.75467711E-02 0.12381170E+00
        4 -1    0    0  502    0 0.00000000E+00 0.00000000E+00 0.10332722E+03 0.10333885E+03 0.15500000E+01 0.0000E+00 0.9000E+01
       -3 -1    0    0    0  501 -.00000000E+00 -.00000000E+00 -.16066994E+03 0.16067072E+03 0.50000000E+00 0.0000E+00 0.9000E+01
       25  1    1    2    0    0 0.11503802E+02 -.22519319E+01 -.37237542E+02 0.13095436E+03 0.12500000E+03 0.0000E+00 0.9000E+01
       24  1    1    2    0    0 -.37099004E+02 -.21430607E+02 0.30824857E+01 0.91171951E+02 0.80419002E+02 0.0000E+00 0.9000E+01
       21  1    1    2  502  501 0.25595202E+02 0.23682539E+02 -.23187660E+02 0.41883255E+02 0.75000000E+00 0.0000E+00 0.9000E+01
#aMCatNLO 1  0  0  5  1 0.90052587D+01 0.00000000D+00  -5  6  0 0.00000000D+00 0.00000000D+00 0.00000000D+00 0.00000000D+00 0.00000000D+00
  <mgrwgt>
 0.7242267949D-01   25    2    0
 0.128853464891075D+03 0.000000000000000D+00 0.000000000000000D+00 0.128853464891075D+03
 0.128853464891075D+03 -.000000000000000D+00 -.000000000000000D+00 -.128853464891075D+03
 0.125870992077766D+03 0.115013335197814D+02 -.225421569708472D+01 -.900802339577849D+01
 0.940889696496572D+02 -.371008486990441D+02 -.214323144768207D+02 0.234457070130310D+02
 0.377469680547261D+02 0.255995151792626D+02 0.236865301739054D+02 -.144376836172525D+02
 0.000000000000000D+00 0.000000000000000D+00 0.000000000000000D+00 -.000000000000000D+00
 0.128853464891075D+03 0.000000000000000D+00 0.000000000000000D+00 0.128853464891075D+03
 0.128853464891075D+03 -.000000000000000D+00 -.000000000000000D+00 -.128853464891075D+03
 0.126133817960748D+03 0.134894599721004D+02 -.414656749478476D+00 -.101292923146885D+02
 0.930073557891580D+02 -.356248008661485D+02 -.200665678489186D+02 0.226132415750707D+02
 0.114332762222808D+02 0.680413233500167D+01 0.728526410093283D+01 0.559897448845915D+01
 0.271324798099625D+02 0.153312085590464D+02 0.131959604974642D+02 -.180829237488413D+02
0.184485384503D-03 0.000000000000D+00 0.000000000000D+00 0.210096124861D-04 0.000000000000D+00  6 4 -3 25 24 21 21 2 0.15897450D-01 0.24719406D-01 0.15818843D+05 0.15818843D+05 0.15818843D+05 0.12451996D+01  1  2  2  3  6  5       21 0.287170620177D-01 0.100000000000D+01
0.111640244702D-04 0.973556120969D-05 -.708472452611D-06 0.210096124861D-04 0.000000000000D+00  6 4 -3 25 24 21 21 4 0.15897450D-01 0.24719406D-01 0.15818843D+05 0.15818843D+05 0.15818843D+05 0.12451996D+01  1  2  3  3  6  5       21 0.269449096713D-02 0.100000000000D+01
0.907521022957D-05 0.000000000000D+00 0.000000000000D+00 0.210096124861D-04 0.000000000000D+00  6 4 -3 25 24 21 21 4 0.15897450D-01 0.24719406D-01 0.15818843D+05 0.15818843D+05 0.15818843D+05 0.12451996D+01  1  2 15  3  6  5       21 0.219034561002D-02 0.100000000000D+01
0.258120816734D-04 0.000000000000D+00 0.000000000000D+00 0.210819944921D-04 0.000000000000D+00  6 4 -3 25 24 21 21 4 0.15897450D-01 0.24719406D-01 0.15146175D+05 0.15146175D+05 0.15146175D+05 0.12473427D+01  1  2 12  3  6  5       21 0.624686432937D-02 0.100000000000D+01
0.238938550978D-04 0.000000000000D+00 0.000000000000D+00 0.210819944921D-04 0.000000000000D+00  6 4 -3 25 24 21 21 4 0.15897450D-01 0.24719406D-01 0.15146175D+05 0.15146175D+05 0.15146175D+05 0.12473427D+01  1  2 12  3  6  5       21 0.578262818901D-02 0.100000000000D+01
-.373105083544D-04 0.000000000000D+00 0.000000000000D+00 0.210096124861D-04 0.000000000000D+00  6 4 -3 25 24 21 21 4 0.15897450D-01 0.24719406D-01 0.15818843D+05 0.15818843D+05 0.15818843D+05 0.12451996D+01  1  2  4  3  6  5       21 -.900507052887D-02 0.100000000000D+01
-.379640759474D-04 0.000000000000D+00 0.000000000000D+00 0.210096124861D-04 0.000000000000D+00  6 4 -3 25 24 21 21 4 0.15897450D-01 0.24719406D-01 0.15818843D+05 0.15818843D+05 0.15818843D+05 0.12451996D+01  1  2  5  3  6  5       21 -.916281220890D-02 0.100000000000D+01
0.171270481987D-03 0.000000000000D+00 -.000000000000D+00 0.210096124861D-04 0.000000000000D+00  6 4 -3 25 24 21 21 4 0.15897450D-01 0.24719406D-01 0.15818843D+05 0.15818843D+05 0.15818843D+05 0.12451996D+01  1  2  6  3  6  5       21 0.413369540602D-01 0.100000000000D+01
0.186184543379D-07 0.000000000000D+00 0.000000000000D+00 0.210096124861D-04 0.419676836089D-05  6 4 -3 25 24 21 21 4 0.15897450D-01 0.24719406D-01 0.15146175D+05 0.15146175D+05 0.15146175D+05 0.12473427D+01  1  2 11  3  6  5       21 0.450591160150D-05 0.100000000000D+01
0.271841658614D-05 0.000000000000D+00 0.000000000000D+00 0.210819944921D-04 0.000000000000D+00  6 4 -3 25 24 3 -3 4 0.15897450D-01 0.24719406D-01 0.15146175D+05 0.15146175D+05 0.15146175D+05 0.12473427D+01  1  2 12  6  6  5       21 0.657892680612D-03 0.100000000000D+01
0.256474312746D-05 0.000000000000D+00 0.000000000000D+00 0.210819944921D-04 0.000000000000D+00  6 4 -3 25 24 3 -3 4 0.15897450D-01 0.24719406D-01 0.15146175D+05 0.15146175D+05 0.15146175D+05 0.12473427D+01  1  2 12  6  6  5       21 0.620701676047D-03 0.100000000000D+01
-.155045078082D-05 0.000000000000D+00 0.000000000000D+00 0.210096124861D-04 0.000000000000D+00  6 4 -3 25 24 3 -3 4 0.15897450D-01 0.24719406D-01 0.15818843D+05 0.15818843D+05 0.15818843D+05 0.12451996D+01  1  2  5  6  6  5       21 -.374208748382D-03 0.100000000000D+01
0.206326002353D-09 0.000000000000D+00 0.000000000000D+00 0.210096124861D-04 0.115651849861D-07  6 4 -3 25 24 3 -3 4 0.15897450D-01 0.24719406D-01 0.15146175D+05 0.15146175D+05 0.15146175D+05 0.12473427D+01  1  2 11  6  6  5       21 0.499336148331D-07 0.100000000000D+01
0.271841658614D-05 0.000000000000D+00 0.000000000000D+00 0.210819944921D-04 0.000000000000D+00  6 4 -3 25 24 4 -4 4 0.15897450D-01 0.24719406D-01 0.15146175D+05 0.15146175D+05 0.15146175D+05 0.12473427D+01  1  2 12  7  6  5       21 0.657892680612D-03 0.100000000000D+01
0.256474312746D-05 0.000000000000D+00 0.000000000000D+00 0.210819944921D-04 0.000000000000D+00  6 4 -3 25 24 4 -4 4 0.15897450D-01 0.24719406D-01 0.15146175D+05 0.15146175D+05 0.15146175D+05 0.12473427D+01  1  2 12  7  6  5       21 0.620701676047D-03 0.100000000000D+01
-.155045078082D-05 0.000000000000D+00 0.000000000000D+00 0.210096124861D-04 0.000000000000D+00  6 4 -3 25 24 4 -4 4 0.15897450D-01 0.24719406D-01 0.15818843D+05 0.15818843D+05 0.15818843D+05 0.12451996D+01  1  2  5  7  6  5       21 -.374208748382D-03 0.100000000000D+01
0.144639363663D-09 0.000000000000D+00 0.000000000000D+00 0.210096124861D-04 0.864741526261D-08  6 4 -3 25 24 4 -4 4 0.15897450D-01 0.24719406D-01 0.15146175D+05 0.15146175D+05 0.15146175D+05 0.12473427D+01  1  2 11  7  6  5       21 0.350046343772D-07 0.100000000000D+01
0.271841658614D-05 0.000000000000D+00 0.000000000000D+00 0.210819944921D-04 0.000000000000D+00  6 4 -3 25 24 1 -1 4 0.15897450D-01 0.24719406D-01 0.15146175D+05 0.15146175D+05 0.15146175D+05 0.12473427D+01  1  2 12  8  6  5       21 0.657892680612D-03 0.100000000000D+01
0.271841658614D-05 0.000000000000D+00 0.000000000000D+00 0.210819944921D-04 0.000000000000D+00  6 4 -3 25 24 2 -2 4 0.15897450D-01 0.24719406D-01 0.15146175D+05 0.15146175D+05 0.15146175D+05 0.12473427D+01  1  2 12  8  6  5       21 0.657892680612D-03 0.100000000000D+01
0.256474312746D-05 0.000000000000D+00 0.000000000000D+00 0.210819944921D-04 0.000000000000D+00  6 4 -3 25 24 1 -1 4 0.15897450D-01 0.24719406D-01 0.15146175D+05 0.15146175D+05 0.15146175D+05 0.12473427D+01  1  2 12  8  6  5       21 0.620701676047D-03 0.100000000000D+01
0.256474312746D-05 0.000000000000D+00 0.000000000000D+00 0.210819944921D-04 0.000000000000D+00  6 4 -3 25 24 2 -2 4 0.15897450D-01 0.24719406D-01 0.15146175D+05 0.15146175D+05 0.15146175D+05 0.12473427D+01  1  2 12  8  6  5       21 0.620701676047D-03 0.100000000000D+01
-.155045078082D-05 0.000000000000D+00 0.000000000000D+00 0.210096124861D-04 0.000000000000D+00  6 4 -3 25 24 1 -1 4 0.15897450D-01 0.24719406D-01 0.15818843D+05 0.15818843D+05 0.15818843D+05 0.12451996D+01  1  2  5  8  6  5       21 -.374208748382D-03 0.100000000000D+01
-.155045078082D-05 0.000000000000D+00 0.000000000000D+00 0.210096124861D-04 0.000000000000D+00  6 4 -3 25 24 2 -2 4 0.15897450D-01 0.24719406D-01 0.15818843D+05 0.15818843D+05 0.15818843D+05 0.12451996D+01  1  2  5  8  6  5       21 -.374208748382D-03 0.100000000000D+01
0.173073211248D-09 0.000000000000D+00 0.000000000000D+00 0.210096124861D-04 0.900786819553D-08  6 4 -3 25 24 1 -1 4 0.15897450D-01 0.24719406D-01 0.15146175D+05 0.15146175D+05 0.15146175D+05 0.12473427D+01  1  2 11  8  6  5       21 0.418860006486D-07 0.100000000000D+01
0.173073211248D-09 0.000000000000D+00 0.000000000000D+00 0.210096124861D-04 0.900786819553D-08  6 4 -3 25 24 2 -2 4 0.15897450D-01 0.24719406D-01 0.15146175D+05 0.15146175D+05 0.15146175D+05 0.12473427D+01  1  2 11  8  6  5       21 0.418860006486D-07 0.100000000000D+01
  </mgrwgt>
  </event>
  <event>
  5     66 0.46179844E-03 0.25175804E+02 0.75467711E-02 0.10874367E+00
        2 -1    0    0  502    0 0.00000000E+00 0.00000000E+00 0.13296489E+04 0.13296490E+04 0.32000000E+00 0.0000E+00 0.9000E+01
       -1 -1    0    0    0  501 0.00000000E+00 0.00000000E+00 -.27767123E+02 0.27768967E+02 0.32000000E+00 0.0000E+00 0.9000E+01
       25  1    1    2    0    0 0.27005971E+02 -.37871778E+02 0.85394880E+03 0.86430153E+03 0.12500000E+03 0.0000E+00 0.9000E+01
       24  1    1    2    0    0 -.43444185E+02 0.56939736E+02 0.45450350E+03 0.46708690E+03 0.80419002E+02 0.0000E+00 0.9000E+01
       21  1    1    2  502  501 0.16438214E+02 -.19067958E+02 -.65704733E+01 0.26029512E+02 0.75000000E+00 0.0000E+00 0.9000E+01
#aMCatNLO 1  0  0  1  5 0.25229140D+01 0.00000000D+00  -5  6  0 0.00000000D+00 0.00000000D+00 0.00000000D+00 0.00000000D+00 0.00000000D+00
  <mgrwgt>
 0.6320557138D+00    3    2    0
 0.192150472053158D+03 0.000000000000000D+00 0.000000000000000D+00 0.192150472053158D+03
 0.192150472053158D+03 0.000000000000000D+00 0.000000000000000D+00 -.192150472053158D+03
 0.159974077508401D+03 0.270058237680249D+02 -.378716063847279D+02 0.883353405331893D+02
 0.110128277443489D+03 -.434442865566553D+02 0.569398534365715D+02 0.230536026361310D+02
 0.114198589154426D+03 0.164384627886304D+02 -.190682470518436D+02 -.111388943169320D+03
 0.000000000000000D+00 -.000000000000000D+00 -.000000000000000D+00 -.000000000000000D+00
 0.241549120402098D+03 0.000000000000000D+00 0.000000000000000D+00 0.241549120402098D+03
 0.891780893965654D+03 0.000000000000000D+00 0.000000000000000D+00 -.891780893965654D+03
 0.196458491367147D+03 0.121729361319201D+03 -.187021131415704D+02 0.883353405331893D+02
 0.109293287118346D+03 0.148679683416000D+02 0.687406835698576D+02 0.230536026361310D+02
 0.139538986322883D+03 0.838703499326509D+02 -.542184892949431D+01 -.111388943169320D+03
 0.688039249559376D+03 -.220467679593452D+03 -.446167214987928D+02 -.650231773563556D+03
0.757544713250D-03 0.000000000000D+00 0.000000000000D+00 0.492383106739D-04 0.000000000000D+00  6 2 -1 25 24 21 21 2 0.20456152D+00 0.42720099D-02 0.17720656D+05 0.17720656D+05 0.17720656D+05 0.12396537D+01  1  2  2  1  6  1        2 0.491875330346D+00 0.100000000000D+01
0.118707406368D-03 0.399767328169D-04 -.290917116498D-05 0.492383106739D-04 0.000000000000D+00  6 2 -1 25 24 21 21 4 0.20456152D+00 0.42720099D-02 0.17720656D+05 0.17720656D+05 0.17720656D+05 0.12396537D+01  1  2  3  1  6  1        2 0.118447341244D+00 0.100000000000D+01
0.217807596752D-04 0.000000000000D+00 0.000000000000D+00 0.492383106739D-04 0.000000000000D+00  6 2 -1 25 24 21 21 4 0.20456152D+00 0.42720099D-02 0.17720656D+05 0.17720656D+05 0.17720656D+05 0.12396537D+01  1  2 15  1  6  1        2 0.217330422149D-01 0.100000000000D+01
  </mgrwgt>
  </event>
  <event>
  5     66 0.46179844E-03 0.41983243E+02 0.75467711E-02 0.10376675E+00
        2 -1    0    0  502    0 0.00000000E+00 0.00000000E+00 0.94547857E+03 0.94547862E+03 0.32000000E+00 0.0000E+00 0.9000E+01
       -1 -1    0    0    0  501 0.00000000E+00 0.00000000E+00 -.10975805E+03 0.10975852E+03 0.32000000E+00 0.0000E+00 0.9000E+01
       25  1    1    2    0    0 0.13598337E+03 0.23137828E+02 0.12591877E+02 0.18657543E+03 0.12500000E+03 0.0000E+00 0.9000E+01
       24  1    1    2    0    0 -.13171702E+03 -.64903477E+02 0.29761259E+03 0.34147079E+03 0.80419002E+02 0.0000E+00 0.9000E+01
       21  1    1    2  502  501 -.42663501E+01 0.41765649E+02 0.52551605E+03 0.52719091E+03 0.75000000E+00 0.0000E+00 0.9000E+01
#aMCatNLO 1  0  0  2  5 0.60960787D+03 0.00000000D+00  -5  6  0 0.00000000D+00 0.00000000D+00 0.00000000D+00 0.00000000D+00 0.00000000D+00
  <mgrwgt>
 0.4197300500D+00    5    4    0
 0.322139966158803D+03 0.000000000000000D+00 0.000000000000000D+00 0.322139966158803D+03
 0.322139966158803D+03 0.000000000000000D+00 0.000000000000000D+00 -.322139966158803D+03
 0.289250611995375D+03 0.135983388198936D+03 0.231376686184155D+02 -.221391244100891D+03
 0.173234743392612D+03 -.131717012059275D+03 -.649035727170411D+02 0.445108452702737D+02
 0.181794576929619D+03 -.426637613966154D+01 0.417659040986256D+02 0.176880398830618D+03
 0.000000000000000D+00 0.000000000000000D+00 -.000000000000000D+00 -.000000000000000D+00
 0.404800876825260D+03 0.000000000000000D+00 0.000000000000000D+00 0.404800876825260D+03
 0.864272748859473D+03 0.000000000000000D+00 0.000000000000000D+00 -.864272748859473D+03
 0.306373644540517D+03 0.843390979056021D+02 0.148703206653279D+03 -.221391244100891D+03
 0.187452401437893D+03 -.162990808262667D+03 0.111340884526094D+02 0.445108452702737D+02
 0.221077353115600D+03 -.391978529524051D+02 0.126696680674921D+03 0.176880398830618D+03
 0.554170226590724D+03 0.117849563309470D+03 -.286533975780809D+03 -.459471872034213D+03
 0.322139966158803D+03 0.000000000000000D+00 0.000000000000000D+00 0.322139966158803D+03
 0.322139966158803D+03 0.000000000000000D+00 0.000000000000000D+00 -.322139966158803D+03
 0.289250611995375D+03 0.135983388198936D+03 0.231376686184155D+02 -.221391244100891D+03
 0.173234743392612D+03 -.131717012059275D+03 -.649035727170411D+02 0.445108452702737D+02
 0.000000000000000D+00 0.000000000000000D+00 -.000000000000000D+00 -.000000000000000D+00
 0.181794576929619D+03 -.426637613966154D+01 0.417659040986256D+02 0.176880398830618D+03
 0.404800876825260D+03 0.000000000000000D+00 0.000000000000000D+00 0.404800876825260D+03
 0.864272748859473D+03 0.000000000000000D+00 0.000000000000000D+00 -.864272748859473D+03
 0.306373644540517D+03 0.843390979056021D+02 0.148703206653279D+03 -.221391244100891D+03
 0.187452401437893D+03 -.162990808262667D+03 0.111340884526094D+02 0.445108452702737D+02
 0.554170226590724D+03 0.117849563309470D+03 -.286533975780809D+03 -.459471872034213D+03
 0.221077353115600D+03 -.391978529524051D+02 0.126696680674921D+03 0.176880398830618D+03
0.290592949745D-02 0.000000000000D+00 0.000000000000D+00 0.896322179508D-05 0.000000000000D+00  6 2 -1 25 24 21 21 2 0.14545828D+00 0.16885894D-01 0.39115364D+05 0.39115364D+05 0.39115364D+05 0.12029878D+01  1  2  2  2  6  2       -1 0.363723914126D+00 0.100000000000D+01
0.326565320485D-03 0.153350112637D-03 -.111595344190D-04 0.896322179508D-05 0.000000000000D+00  6 2 -1 25 24 21 21 4 0.14545828D+00 0.16885894D-01 0.39115364D+05 0.39115364D+05 0.39115364D+05 0.12029878D+01  1  2  3  2  6  2       -1 0.591533450221D-01 0.100000000000D+01
0.111466507831D-03 0.000000000000D+00 0.000000000000D+00 0.896322179508D-05 0.000000000000D+00  6 2 -1 25 24 21 21 4 0.14545828D+00 0.16885894D-01 0.39115364D+05 0.39115364D+05 0.39115364D+05 0.12029878D+01  1  2 15  2  6  2       -1 0.201908052769D-01 0.100000000000D+01
-.682059599931D-03 0.000000000000D+00 -.154998810542D-02 0.896322179508D-05 0.000000000000D+00  6 2 -1 25 24 21 21 4 0.14545828D+00 0.55272405D-01 0.39115364D+05 0.39115364D+05 0.39115364D+05 0.12029878D+01  1  2  5  2  6  2       -1 -.162201296715D-01 0.100000000000D+01
-.306168536417D-04 0.000000000000D+00 -.212540829600D-03 0.896322179508D-05 0.000000000000D+00  6 2 21 25 24 1 21 4 0.14545828D+00 0.55272405D-01 0.39115364D+05 0.39115364D+05 0.39115364D+05 0.12029878D+01  3  4  5  5  5  2       -1 -.711788475760D-02 0.100000000000D+01
  </mgrwgt>
  </event>
  <event>
  5     66 0.46179844E-03 0.80012515E+02 0.75467711E-02 0.11688929E+00
        2 -1    0    0  502    0 0.00000000E+00 0.00000000E+00 0.22692094E+04 0.22692094E+04 0.32000000E+00 0.0000E+00 0.9000E+01
       -1 -1    0    0    0  501 0.00000000E+00 0.00000000E+00 -.21844470E+02 0.21846814E+02 0.32000000E+00 0.0000E+00 0.9000E+01
       25  1    1    2    0    0 -.11064810E+03 -.16080376E+02 0.12635778E+04 0.12746590E+04 0.12500000E+03 0.0000E+00 0.9000E+01
       24  1    1    2    0    0 0.29233303E+02 -.11978232E+01 0.11353442E+03 0.14217349E+03 0.80419002E+02 0.0000E+00 0.9000E+01
       21  1    1    2  502  501 0.81414801E+02 0.17278200E+02 0.87025263E+03 0.87422371E+03 0.75000000E+00 0.0000E+00 0.9000E+01
#aMCatNLO 1  0  0  5  2 0.30263787D+02 0.00000000D+00  -5  6  0 0.00000000D+00 0.00000000D+00 0.00000000D+00 0.00000000D+00 0.00000000D+00
  <mgrwgt>
 0.1308062692D+00    9    2    0
 0.222648573357374D+03 0.000000000000000D+00 0.000000000000000D+00 0.222648573357374D+03
 0.222648573357374D+03 -.000000000000000D+00 -.000000000000000D+00 -.222648573357374D+03
 0.180991558822778D+03 -.110648935000678D+03 -.160805528981799D+02 0.680527249035900D+02
 0.158488205503571D+03 0.292325753983837D+02 -.119797763604699D+01 -.133399088132315D+03
 0.105817382388399D+03 0.814163596022941D+02 0.172785305342269D+02 0.653463632287247D+02
 0.000000000000000D+00 0.000000000000000D+00 0.000000000000000D+00 -.000000000000000D+00
 0.222648573357374D+03 0.000000000000000D+00 0.000000000000000D+00 0.222648573357374D+03
 0.222648573357374D+03 -.000000000000000D+00 -.000000000000000D+00 -.222648573357374D+03
 0.176675285272663D+03 -.934693990693550D+02 -.124346377823087D+02 0.818413565809699D+02
 0.152197308375256D+03 0.441554932956841D+02 0.196902828030449D+01 -.121421662242568D+03
 0.331381794280456D+02 -.239469230307721D+02 -.188815810432469D+02 0.129680264678524D+02
 0.832863736387836D+02 0.732608288044430D+02 0.293471905452511D+02 0.266122791937459D+02
0.391128463798D-03 0.000000000000D+00 0.000000000000D+00 0.203739298926D-05 0.000000000000D+00  6 2 -1 25 24 21 21 2 0.34910931D+00 0.33608698D-02 0.28310700D+05 0.28310700D+05 0.28310700D+05 0.12175491D+01  1  2  2  3  6  5       21 0.113550619641D+00 0.100000000000D+01
-.247650929148D-04 0.206404160980D-04 -.150203628747D-05 0.203739298926D-05 0.000000000000D+00  6 2 -1 25 24 21 21 4 0.34910931D+00 0.33608698D-02 0.28310700D+05 0.28310700D+05 0.28310700D+05 0.12175491D+01  1  2  3  3  6  5       21 -.106581784072D-01 0.100000000000D+01
0.143617106224D-04 0.000000000000D+00 0.000000000000D+00 0.203739298926D-05 0.000000000000D+00  6 2 -1 25 24 21 21 4 0.34910931D+00 0.33608698D-02 0.28310700D+05 0.28310700D+05 0.28310700D+05 0.12175491D+01  1  2 15  3  6  5       21 0.618086411275D-02 0.100000000000D+01
0.570879643833D-04 0.000000000000D+00 0.000000000000D+00 0.201876818662D-05 0.000000000000D+00  6 2 -1 25 24 21 21 4 0.34910931D+00 0.33608698D-02 0.31997501D+05 0.31997501D+05 0.31997501D+05 0.12119712D+01  1  2 12  3  6  5       21 0.240935348156D-01 0.100000000000D+01
-.241426993509D-04 0.000000000000D+00 0.000000000000D+00 0.203739298926D-05 0.000000000000D+00  6 2 -1 25 24 21 21 4 0.34910931D+00 0.33608698D-02 0.28310700D+05 0.28310700D+05 0.28310700D+05 0.12175491D+01  1  2  4  3  6  5       21 -.103903182515D-01 0.100000000000D+01
0.475648270657D-05 0.000000000000D+00 0.000000000000D+00 0.201876818662D-05 0.000000000000D+00  6 2 -1 25 24 1 -1 4 0.34910931D+00 0.33608698D-02 0.31997501D+05 0.31997501D+05 0.31997501D+05 0.12119712D+01  1  2 12  6  6  5       21 0.200743682015D-02 0.100000000000D+01
0.475648270657D-05 0.000000000000D+00 0.000000000000D+00 0.201876818662D-05 0.000000000000D+00  6 2 -1 25 24 2 -2 4 0.34910931D+00 0.33608698D-02 0.31997501D+05 0.31997501D+05 0.31997501D+05 0.12119712D+01  1  2 12  7  6  5       21 0.200743682015D-02 0.100000000000D+01
0.475648270657D-05 0.000000000000D+00 0.000000000000D+00 0.201876818662D-05 0.000000000000D+00  6 2 -1 25 24 3 -3 4 0.34910931D+00 0.33608698D-02 0.31997501D+05 0.31997501D+05 0.31997501D+05 0.12119712D+01  1  2 12  8  6  5       21 0.200743682015D-02 0.100000000000D+01
0.475648270657D-05 0.000000000000D+00 0.000000000000D+00 0.201876818662D-05 0.000000000000D+00  6 2 -1 25 24 4 -4 4 0.34910931D+00 0.33608698D-02 0.31997501D+05 0.31997501D+05 0.31997501D+05 0.12119712D+01  1  2 12  8  6  5       21 0.200743682015D-02 0.100000000000D+01
  </mgrwgt>
  </event>
  <event>
  5     66 0.46179844E-03 0.25345576E+02 0.75467711E-02 0.10683286E+00
        2 -1    0    0  502    0 0.00000000E+00 0.00000000E+00 0.33360032E+04 0.33360033E+04 0.32000000E+00 0.0000E+00 0.9000E+01
       -1 -1    0    0    0  501 0.00000000E+00 0.00000000E+00 -.32216958E+02 0.32218548E+02 0.32000000E+00 0.0000E+00 0.9000E+01
       25  1    1    2    0    0 -.23482466E+03 -.14503886E+03 0.10070635E+04 0.10516562E+04 0.12500000E+03 0.0000E+00 0.9000E+01
       24  1    1    2    0    0 0.21269576E+03 0.15737529E+03 0.21426489E+04 0.21604208E+04 0.80419002E+02 0.0000E+00 0.9000E+01
       21  1    1    2  502  501 0.22128902E+02 -.12336431E+02 0.15407388E+03 0.15614480E+03 0.75000000E+00 0.0000E+00 0.9000E+01
#aMCatNLO 1  0  0  1  1 0.64443588D+02 0.00000000D+00  -5  6  0 0.00000000D+00 0.00000000D+00 0.00000000D+00 0.00000000D+00 0.00000000D+00
  <mgrwgt>
 0.5474030761D+01    7    4    0
 0.327839258877705D+03 0.000000000000000D+00 0.000000000000000D+00 0.327839258877705D+03
 0.327839258877705D+03 0.000000000000000D+00 0.000000000000000D+00 -.327839258877705D+03
 0.328042611158102D+03 -.234829346193926D+03 -.145036246675316D+03 -.125724381294544D+03
 0.301856702535721D+03 0.212691441452470D+03 0.157377696162256D+03 0.121015967520403D+03
 0.257792040615877D+02 0.221379047414560D+02 -.123414494869394D+02 0.470841377414126D+01
 0.000000000000000D+00 0.000000000000000D+00 -.000000000000000D+00 0.000000000000000D+00
 0.371564926922218D+03 0.000000000000000D+00 0.000000000000000D+00 0.371564926922218D+03
 0.354053374321289D+03 0.000000000000000D+00 0.000000000000000D+00 -.354053374321289D+03
 0.317578820159508D+03 -.237775849777852D+03 -.113522386446151D+03 -.125724381294544D+03
 0.316765867801454D+03 0.209868155960110D+03 0.187573696899756D+03 0.121015967520403D+03
 0.244931484279573D+02 0.219084704947016D+02 -.988757200874969D+01 0.470841377414126D+01
 0.667804648545870D+02 0.599922332304059D+01 -.641637384448561D+02 0.175115526009291D+02
 0.327839258877705D+03 0.000000000000000D+00 0.000000000000000D+00 0.327839258877705D+03
 0.327839258877705D+03 0.000000000000000D+00 0.000000000000000D+00 -.327839258877705D+03
 0.328042611158102D+03 -.234829346193926D+03 -.145036246675316D+03 -.125724381294544D+03
 0.301856702535721D+03 0.212691441452470D+03 0.157377696162256D+03 0.121015967520403D+03
 0.000000000000000D+00 0.000000000000000D+00 -.000000000000000D+00 0.000000000000000D+00
 0.257792040615877D+02 0.221379047414560D+02 -.123414494869394D+02 0.470841377414126D+01
 0.371564926922218D+03 0.000000000000000D+00 0.000000000000000D+00 0.371564926922218D+03
 0.354053374321289D+03 0.000000000000000D+00 0.000000000000000D+00 -.354053374321289D+03
 0.317578820159508D+03 -.237775849777852D+03 -.113522386446151D+03 -.125724381294544D+03
 0.316765867801454D+03 0.209868155960110D+03 0.187573696899756D+03 0.121015967520403D+03
 0.667804648545870D+02 0.599922332304059D+01 -.641637384448561D+02 0.175115526009291D+02
 0.244931484279573D+02 0.219084704947016D+02 -.988757200874969D+01 0.470841377414126D+01
0.279322817710D-01 0.000000000000D+00 0.000000000000D+00 0.192308175812D-04 0.000000000000D+00  6 2 -1 25 24 21 21 2 0.51323139D+00 0.49565786D-02 0.91468844D+05 0.91468844D+05 0.91468844D+05 0.11671460D+01  1  2  2  1  6  1        2 0.991349725554D+00 0.100000000000D+01
0.130018279772D-01 0.147402700566D-02 -.107267316739D-03 0.192308175812D-04 0.000000000000D+00  6 2 -1 25 24 21 21 4 0.51323139D+00 0.49565786D-02 0.91468844D+05 0.91468844D+05 0.91468844D+05 0.11671460D+01  1  2  3  1  6  1        2 0.628601325893D+00 0.100000000000D+01
0.104808799615D-03 0.000000000000D+00 0.000000000000D+00 0.192308175812D-04 0.000000000000D+00  6 2 -1 25 24 21 21 4 0.51323139D+00 0.49565786D-02 0.91468844D+05 0.91468844D+05 0.91468844D+05 0.11671460D+01  1  2 15  1  6  1        2 0.506720674343D-02 0.100000000000D+01
-.146162488646D-02 0.000000000000D+00 0.000000000000D+00 0.192308175812D-04 0.000000000000D+00  6 2 -1 25 24 21 21 4 0.51323139D+00 0.49565786D-02 0.91468844D+05 0.91468844D+05 0.91468844D+05 0.11671460D+01  1  2  4  1  6  1        2 -.706653974499D-01 0.100000000000D+01
-.138998377055D+00 0.000000000000D+00 -.321191000594D-01 0.192308175812D-04 0.000000000000D+00  6 2 -1 25 24 21 21 4 0.59259454D+00 0.49565786D-02 0.91468844D+05 0.91468844D+05 0.91468844D+05 0.11671460D+01  1  2  5  1  6  1        2 -.298676107463D+01 0.100000000000D+01
0.142910050652D+00 0.000000000000D+00 0.320244964237D-01 0.192308175812D-04 0.000000000000D+00  6 2 -1 25 24 21 21 4 0.51323139D+00 0.49565786D-02 0.91468844D+05 0.91468844D+05 0.91468844D+05 0.11671460D+01  1  2  6  1  6  1        2 0.690929363784D+01 0.100000000000D+01
-.285692743203D-02 0.000000000000D+00 -.707897055291D-03 0.192308175812D-04 0.000000000000D+00  6 21 -1 25 24 -2 21 4 0.59259454D+00 0.49565786D-02 0.91468844D+05 0.91468844D+05 0.91468844D+05 0.11671460D+01  3  4  5  4  5  1        2 -.285466325825D-02 0.100000000000D+01
  </mgrwgt>
  </event>
  <event>
  5     66 0.46179844E-03 0.20932972E+02 0.75467711E-02 0.10813878E+00
        2 -1    0    0  502    0 0.00000000E+00 0.00000000E+00 0.51176207E+03 0.51176217E+03 0.32000000E+00 0.0000E+00 0.9000E+01
       -1 -1    0    0    0  501 0.00000000E+00 0.00000000E+00 -.81580255E+02 0.81580882E+02 0.32000000E+00 0.0000E+00 0.9000E+01
       25  1    1    2    0    0 0.11406468E+03 -.89966906E+02 0.13215355E+03 0.23279681E+03 0.12500000E+03 0.0000E+00 0.9000E+01
       24  1    1    2    0    0 -.10162172E+03 0.10679121E+03 0.29492172E+03 0.33937792E+03 0.80419002E+02 0.0000E+00 0.9000E+01
       21  1    1    2  502  501 -.12442959E+02 -.16824306E+02 0.31065469E+01 0.21168317E+02 0.75000000E+00 0.0000E+00 0.9000E+01
#aMCatNLO 1  0  0  1  5 0.19313907D+03 0.00000000D+00  -5  6  0 0.00000000D+00 0.00000000D+00 0.00000000D+00 0.00000000D+00 0.00000000D+00
  <mgrwgt>
 0.7413196661D+00    3    2    0
 0.204327911947333D+03 0.000000000000000D+00 0.000000000000000D+00 0.204327911947333D+03
 0.204327911947333D+03 0.000000000000000D+00 0.000000000000000D+00 -.204327911947333D+03
 0.198890913293230D+03 0.114066940763344D+03 -.899638512059003D+02 -.531773813919934D+02
 0.182300693296478D+03 -.101619651372174D+03 0.106794011555166D+03 0.709564117818761D+02
 0.274642173049570D+02 -.124472893911705D+02 -.168301603492652D+02 -.177790303898827D+02
 0.000000000000000D+00 -.000000000000000D+00 -.000000000000000D+00 -.000000000000000D+00
 0.318068407100153D+03 0.000000000000000D+00 0.000000000000000D+00 0.318068407100153D+03
 0.327288729552937D+03 0.000000000000000D+00 0.000000000000000D+00 -.327288729552937D+03
 0.240968638900863D+03 0.195955623179547D+03 -.348488850085716D+02 -.531773813919934D+02
 0.189974121991294D+03 -.323132239714589D+02 0.153440523511893D+03 0.709564117818761D+02
 0.210553412064447D+02 -.341439991975733D+01 -.107505974207666D+02 -.177790303898827D+02
 0.193359034554488D+03 -.160227999288330D+03 -.107841041082554D+03 -.922032245278453D+01
0.124033239650D-02 0.000000000000D+00 0.000000000000D+00 0.351698858056D-04 0.000000000000D+00  6 2 -1 25 24 21 21 2 0.78732682D-01 0.12550864D-01 0.36196556D+05 0.36196556D+05 0.36196556D+05 0.12064319D+01  1  2  2  1  6  1        2 0.525040537476D+00 0.100000000000D+01
0.374286843485D-03 0.654541388145D-04 -.476320298960D-05 0.351698858056D-04 0.000000000000D+00  6 2 -1 25 24 21 21 4 0.78732682D-01 0.12550864D-01 0.36196556D+05 0.36196556D+05 0.36196556D+05 0.12064319D+01  1  2  3  1  6  1        2 0.230602981425D+00 0.100000000000D+01
-.232487438278D-04 0.000000000000D+00 0.000000000000D+00 0.351698858056D-04 0.000000000000D+00  6 2 -1 25 24 21 21 4 0.78732682D-01 0.12550864D-01 0.36196556D+05 0.36196556D+05 0.36196556D+05 0.12064319D+01  1  2 15  1  6  1        2 -.143238527733D-01 0.100000000000D+01
  </mgrwgt>
  </event>
  <event>
  6     66 -.46179844E-03 0.60066192E+02 0.75467711E-02 0.11613456E+00
        2 -1    0    0  503    0 0.00000000E+00 0.00000000E+00 0.12336799E+04 0.12336800E+04 0.32000000E+00 0.0000E+00 0.9000E+01
       -1 -1    0    0    0  501 0.00000000E+00 0.00000000E+00 -.44436850E+02 0.44438002E+02 0.32000000E+00 0.0000E+00 0.9000E+01
       25  1    1    2    0    0 0.21098792E+02 0.12545348E+03 0.75342821E+03 0.77424983E+03 0.12500000E+03 0.0000E+00 0.9000E+01
       24  1    1    2    0    0 0.18475988E+01 -.28861248E+02 0.16215203E+03 0.18329453E+03 0.80419002E+02 0.0000E+00 0.9000E+01
       21  1    1    2  502  501 0.35420873E+01 -.76581854E+02 0.43743483E+02 0.88268803E+02 0.75000000E+00 0.0000E+00 0.9000E+01
       21  1    1    2  503  502 -.26488478E+02 -.20010377E+02 0.22991935E+03 0.23230481E+03 0.75000000E+00 0.0000E+00 0.9000E+01
#aMCatNLO 2  0  0  1  5 0.33197208D+02 0.00000000D+00  -5  6  0 0.00000000D+00 0.00000000D+00 0.00000000D+00 0.00000000D+00 0.00000000D+00
  <mgrwgt>
 -.1566450455D-01    2    2    0
 0.207557883365687D+03 0.000000000000000D+00 0.000000000000000D+00 0.207557883365687D+03
 0.207557883365687D+03 0.000000000000000D+00 0.000000000000000D+00 -.207557883365687D+03
 0.202040544366861D+03 0.801296369609387D+01 0.115568657403291D+03 0.108512945803086D+03
 0.883224550676256D+02 -.372987182310282D+01 -.330743711115024D+02 -.150271137136859D+02
 0.124752767296888D+03 -.428309187299106D+01 -.824942862917882D+02 -.934858320894003D+02
 0.000000000000000D+00 -.000000000000000D+00 -.000000000000000D+00 0.000000000000000D+00
 0.256216456392174D+03 0.000000000000000D+00 0.000000000000000D+00 0.256216456392174D+03
 0.213960883757559D+03 0.000000000000000D+00 0.000000000000000D+00 -.213960883757559D+03
 0.208767790866517D+03 0.210988854239707D+02 0.125454247159228D+03 0.108512945803086D+03
 0.867721012392494D+02 0.184760424613865D+01 -.288609391927846D+02 -.150271137136859D+02
 0.120901165470366D+03 0.354198824499440D+01 -.765829310611547D+02 -.934858320894003D+02
 0.537362825736007D+02 -.264884779151038D+02 -.200103769052886D+02 0.422555726346149D+02
-.249114576184D-03 0.000000000000D+00 0.000000000000D+00 0.333423120685D-05 0.000000000000D+00  6 2 -1 25 24 21 21 4 0.19405771D+00 0.66318607D-02 0.34907989D+05 0.34907989D+05 0.34907989D+05 0.12080521D+01  1  2 13  1  6  1        2 -.127503556252D+00 0.100000000000D+01
0.220816455645D-03 0.000000000000D+00 0.000000000000D+00 0.338150882083D-05 0.145852612719D-07  6 2 -1 25 24 21 21 4 0.18979473D+00 0.68364484D-02 0.34907989D+05 0.34907989D+05 0.34907989D+05 0.12080521D+01  1  2  1  1  6  1        2 0.111839051703D+00 0.100000000000D+01
  </mgrwgt>
  </event>
  <event>
  6     66 0.46179844E-03 0.36771138E+02 0.75467711E-02 0.11269101E+00
        2 -1    0    0  502    0 0.00000000E+00 0.00000000E+00 0.23273062E+04 0.23273062E+04 0.32000000E+00 0.0000E+00 0.9000E+01
       -1 -1    0    0    0  503 0.00000000E+00 0.00000000E+00 -.26858891E+02 0.26860797E+02 0.32000000E+00 0.0000E+00 0.9000E+01
       25  1    1    2    0    0 -.10997710E+03 0.12014686E+03 0.12994437E+04 0.13155642E+04 0.12500000E+03 0.0000E+00 0.9000E+01
       24  1    1    2    0    0 0.15446062E+03 -.95570056E+02 0.91278303E+03 0.93414763E+03 0.80419002E+02 0.0000E+00 0.9000E+01
       21  1    1    2  502  501 -.41000460E+02 -.12744763E+02 0.74503720E+02 0.85993218E+02 0.75000000E+00 0.0000E+00 0.9000E+01
       21  1    1    2  501  503 -.34830673E+01 -.11832039E+02 0.13716773E+02 0.18461887E+02 0.75000000E+00 0.0000E+00 0.9000E+01
#aMCatNLO 2  0  0  2  5 0.12334055D+02 0.00000000D+00  -5  6  0 0.00000000D+00 0.00000000D+00 0.00000000D+00 0.00000000D+00 0.00000000D+00
  <mgrwgt>
 0.2423136875D+00    2    2    0
 0.237818094547709D+03 0.000000000000000D+00 0.000000000000000D+00 0.237818094547709D+03
 0.237818094547709D+03 0.000000000000000D+00 0.000000000000000D+00 -.237818094547709D+03
 0.210778567596755D+03 -.111526858922815D+03 0.114878524109494D+03 0.562786726511453D+02
 0.200148099858817D+03 0.153001177080615D+03 -.100531399030016D+03 -.872488072918310D+01
 0.647095216398471D+02 -.414743181577993D+02 -.143471250794784D+02 -.475537919219622D+02
 0.000000000000000D+00 -.000000000000000D+00 -.000000000000000D+00 -.000000000000000D+00
 0.239548487710782D+03 0.000000000000000D+00 0.000000000000000D+00 0.239548487710782D+03
 0.260941650984043D+03 0.000000000000000D+00 0.000000000000000D+00 -.260941650984043D+03
 0.212890463330801D+03 -.109975862822215D+03 0.120147284523363D+03 0.562786726511453D+02
 0.198834962859778D+03 0.154461801127474D+03 -.955696340361154D+02 -.872488072918310D+01
 0.640706575395978D+02 -.410028710111795D+02 -.127456110186887D+02 -.475537919219622D+02
 0.246940549646473D+02 -.348306729407957D+01 -.118320394685588D+02 -.213931632732610D+02
-.316837082170D-05 0.000000000000D+00 0.000000000000D+00 0.861995007206D-05 0.000000000000D+00  6 2 -1 25 24 21 21 4 0.35545248D+00 0.37660106D-02 0.49945533D+05 0.49945533D+05 0.49945533D+05 0.11923286D+01  1  2  8  2  6  2       -1 -.100142942736D-02 0.100000000000D+01
0.909911835165D-03 0.000000000000D+00 0.000000000000D+00 0.861995007206D-05 0.373216092224D-06  6 2 -1 25 24 21 21 4 0.35803879D+00 0.41321877D-02 0.52723655D+05 0.52723655D+05 0.52723655D+05 0.11900071D+01  1  2  1  2  6  2       -1 0.243315116959D+00 0.100000000000D+01
  </mgrwgt>
  </event>
  <event>
  6     66 0.46179844E-03 0.29088917E+02 0.75467711E-02 0.12162151E+00
        2 -1    0    0  502    0 0.00000000E+00 0.00000000E+00 0.13807226E+04 0.13807227E+04 0.32000000E+00 0.0000E+00 0.9000E+01
       21 -1    0    0  503  501 0.00000000E+00 0.00000000E+00 -.80877769E+02 0.80881246E+02 0.75000000E+00 0.0000E+00 0.9000E+01
       25  1    1    2    0    0 0.41894407E+02 -.32609518E+02 0.11761110E+04 0.11839260E+04 0.12500000E+03 0.0000E+00 0.9000E+01
       24  1    1    2    0    0 -.23551107E+02 0.52535953E+02 0.18124675E+03 0.20647586E+03 0.80419002E+02 0.0000E+00 0.9000E+01
        1  1    1    2  503    0 -.17797350E+02 -.27876713E+02 -.51435795E+02 0.61152271E+02 0.32000000E+00 0.0000E+00 0.9000E+01
       21  1    1    2  502  501 -.54594886E+00 0.79502784E+01 -.60771236E+01 0.10049822E+02 0.75000000E+00 0.0000E+00 0.9000E+01
#aMCatNLO 2  0  0  2  5 0.14949379D+02 0.00000000D+00  -5  6  0 0.00000000D+00 0.00000000D+00 0.00000000D+00 0.00000000D+00 0.00000000D+00
  <mgrwgt>
 0.1493157993D+01    1    2    0
 0.183174461588628D+03 0.000000000000000D+00 0.000000000000000D+00 0.183174461588628D+03
 0.183174461588628D+03 0.000000000000000D+00 0.000000000000000D+00 -.183174461588628D+03
 0.188178593527854D+03 0.328006473690669D+02 -.468537932149096D+02 0.128510788090595D+03
 0.117916305991863D+03 -.293251672344975D+02 0.434915887518234D+02 -.684511178791635D+02
 0.000000000000000D+00 -.000000000000000D+00 -.000000000000000D+00 -.000000000000000D+00
 0.602540236575397D+02 -.347548013456940D+01 0.336220446308620D+01 -.600596702114320D+02
 0.184568771355163D+03 0.000000000000000D+00 0.000000000000000D+00 0.184568771355163D+03
 0.605044182783713D+03 0.000000000000000D+00 0.000000000000000D+00 -.605044182783713D+03
 0.186972092677975D+03 0.418946269003064D+02 -.326095234801044D+02 0.128510788090595D+03
 0.120280648286675D+03 -.235510655034823D+02 0.525357989625731D+02 -.684511178791635D+02
 0.421774143873561D+03 -.177973504128170D+02 -.278767132666348D+02 -.420475411428550D+03
 0.605860693006645D+02 -.546210984007161D+00 0.795043778416612D+01 -.600596702114320D+02
0.560835343454D-03 0.000000000000D+00 0.000000000000D+00 0.583768409702D-03 0.914203455708D-06  6 2 21 25 24 1 21 4 0.21241907D+00 0.12443000D-01 0.19009938D+05 0.19009938D+05 0.19009938D+05 0.12362609D+01  1  2  1  5  5  2       -1 0.149315799328D+01 0.100000000000D+01
  </mgrwgt>
  </event>
  <event>
  5     66 0.46179844E-03 0.28397470E+02 0.75467711E-02 0.12346890E+00
        2 -1    0    0  502    0 0.00000000E+00 0.00000000E+00 0.38921424E+03 0.38921437E+03 0.32000000E+00 0.0000E+00 0.9000E+01
       -1 -1    0    0    0  501 0.00000000E+00 0.00000000E+00 -.56359133E+02 0.56360042E+02 0.32000000E+00 0.0000E+00 0.9000E+01
       25  1    1    2    0    0 -.24477103E+02 -.15769287E+02 0.80469681E+02 0.15148653E+03 0.12500000E+03 0.0000E+00 0.9000E+01
       24  1    1    2    0    0 0.43335468E+02 -.12358358E+02 0.24152074E+03 0.25851533E+03 0.80419002E+02 0.0000E+00 0.9000E+01
       21  1    1    2  502  501 -.18858365E+02 0.28127645E+02 0.10864677E+02 0.35572546E+02 0.75000000E+00 0.0000E+00 0.9000E+01
#aMCatNLO 1  0  0  5  1 0.11975100D+02 0.00000000D+00  -5  6  0 0.00000000D+00 0.00000000D+00 0.00000000D+00 0.00000000D+00 0.00000000D+00
  <mgrwgt>
 0.3252587201D+00   20    2    0
 0.148108098104951D+03 0.000000000000000D+00 0.000000000000000D+00 0.148108098104951D+03
 0.148108098104951D+03 -.000000000000000D+00 -.000000000000000D+00 -.148108098104951D+03
 0.137445496745008D+03 -.244756598931675D+02 -.157714392365234D+02 -.491779254613763D+02
 0.117471229801952D+03 0.433367018823826D+02 -.123601976076886D+02 0.728109171887631D+02
 0.412994696629425D+02 -.188610419892151D+02 0.281316368442121D+02 -.236329917273869D+02
 0.000000000000000D+00 0.000000000000000D+00 0.000000000000000D+00 -.000000000000000D+00
 0.148108098104951D+03 0.000000000000000D+00 0.000000000000000D+00 0.148108098104951D+03
 0.148108098104951D+03 -.000000000000000D+00 -.000000000000000D+00 -.148108098104951D+03
 0.138221394057336D+03 -.260855011838576D+02 -.133703274319684D+02 -.511950656558068D+02
 0.115722324701704D+03 0.419748966555374D+02 -.103290367568690D+02 0.711045675778166D+02
 0.223549816840354D+02 -.786108723878054D+01 0.208401186398378D+02 -.190734595585779D+01
 0.199174957668271D+02 -.802830823289924D+01 0.285924554899966D+01 -.180021559661520D+02
0.144541217017D-03 0.000000000000D+00 0.000000000000D+00 0.157145736825D-04 0.000000000000D+00  6 2 -1 25 24 21 21 2 0.59879193D-01 0.86707159D-02 0.16179915D+05 0.16179915D+05 0.16179915D+05 0.12440910D+01  1  2  2  3  6  5       21 0.151810451210D+00 0.100000000000D+01
0.762798420067D-05 0.762764957983D-05 -.555076331922D-06 0.157145736825D-04 0.000000000000D+00  6 2 -1 25 24 21 21 4 0.59879193D-01 0.86707159D-02 0.16179915D+05 0.16179915D+05 0.16179915D+05 0.12440910D+01  1  2  3  3  6  5       21 0.124000664108D-01 0.100000000000D+01
0.595133620129D-05 0.000000000000D+00 0.000000000000D+00 0.157145736825D-04 0.000000000000D+00  6 2 -1 25 24 21 21 4 0.59879193D-01 0.86707159D-02 0.16179915D+05 0.16179915D+05 0.16179915D+05 0.12440910D+01  1  2 15  3  6  5       21 0.967450406128D-02 0.100000000000D+01
0.557958084898D-04 0.000000000000D+00 0.000000000000D+00 0.157530916822D-04 0.000000000000D+00  6 2 -1 25 24 21 21 4 0.59879193D-01 0.86707159D-02 0.15685959D+05 0.15685959D+05 0.15685959D+05 0.12456147D+01  1  2 12  3  6  5       21 0.910582328192D-01 0.100000000000D+01
0.507475366343D-04 0.000000000000D+00 0.000000000000D+00 0.157530916822D-04 0.000000000000D+00  6 2 -1 25 24 21 21 4 0.59879193D-01 0.86707159D-02 0.15685959D+05 0.15685959D+05 0.15685959D+05 0.12456147D+01  1  2 12  3  6  5       21 0.828195007998D-01 0.100000000000D+01
-.123364803159D-03 0.000000000000D+00 0.000000000000D+00 0.157145736825D-04 0.000000000000D+00  6 2 -1 25 24 21 21 4 0.59879193D-01 0.86707159D-02 0.16179915D+05 0.16179915D+05 0.16179915D+05 0.12440910D+01  1  2  4  3  6  5       21 -.200542071363D+00 0.100000000000D+01
-.947981868192D-04 0.000000000000D+00 0.000000000000D+00 0.157145736825D-04 0.000000000000D+00  6 2 -1 25 24 21 21 4 0.59879193D-01 0.86707159D-02 0.16179915D+05 0.16179915D+05 0.16179915D+05 0.12440910D+01  1  2  5  3  6  5       21 -.154104122564D+00 0.100000000000D+01
0.194573518448D-03 0.000000000000D+00 -.000000000000D+00 0.157145736825D-04 0.000000000000D+00  6 2 -1 25 24 21 21 4 0.59879193D-01 0.86707159D-02 0.16179915D+05 0.16179915D+05 0.16179915D+05 0.12440910D+01  1  2  6  3  6  5       21 0.316299101710D+00 0.100000000000D+01
0.184389225844D-05 0.000000000000D+00 0.000000000000D+00 0.157530916822D-04 0.000000000000D+00  6 2 -1 25 24 1 -1 4 0.59879193D-01 0.86707159D-02 0.15685959D+05 0.15685959D+05 0.15685959D+05 0.12456147D+01  1  2 12  6  6  5       21 0.300921476196D-02 0.100000000000D+01
0.167795142073D-05 0.000000000000D+00 0.000000000000D+00 0.157530916822D-04 0.000000000000D+00  6 2 -1 25 24 1 -1 4 0.59879193D-01 0.86707159D-02 0.15685959D+05 0.15685959D+05 0.15685959D+05 0.12456147D+01  1  2 12  6  6  5       21 0.273840088106D-02 0.100000000000D+01
-.109919364454D-05 0.000000000000D+00 0.000000000000D+00 0.157145736825D-04 0.000000000000D+00  6 2 -1 25 24 1 -1 4 0.59879193D-01 0.86707159D-02 0.16179915D+05 0.16179915D+05 0.16179915D+05 0.12440910D+01  1  2  5  6  6  5       21 -.178685139246D-02 0.100000000000D+01
0.184389225844D-05 0.000000000000D+00 0.000000000000D+00 0.157530916822D-04 0.000000000000D+00  6 2 -1 25 24 2 -2 4 0.59879193D-01 0.86707159D-02 0.15685959D+05 0.15685959D+05 0.15685959D+05 0.12456147D+01  1  2 12  7  6  5       21 0.300921476196D-02 0.100000000000D+01
0.167795142073D-05 0.000000000000D+00 0.000000000000D+00 0.157530916822D-04 0.000000000000D+00  6 2 -1 25 24 2 -2 4 0.59879193D-01 0.86707159D-02 0.15685959D+05 0.15685959D+05 0.15685959D+05 0.12456147D+01  1  2 12  7  6  5       21 0.273840088106D-02 0.100000000000D+01
-.109919364454D-05 0.000000000000D+00 0.000000000000D+00 0.157145736825D-04 0.000000000000D+00  6 2 -1 25 24 2 -2 4 0.59879193D-01 0.86707159D-02 0.16179915D+05 0.16179915D+05 0.16179915D+05 0.12440910D+01  1  2  5  7  6  5       21 -.178685139246D-02 0.100000000000D+01
0.184389225844D-05 0.000000000000D+00 0.000000000000D+00 0.157530916822D-04 0.000000000000D+00  6 2 -1 25 24 3 -3 4 0.59879193D-01 0.86707159D-02 0.15685959D+05 0.15685959D+05 0.15685959D+05 0.12456147D+01  1  2 12  8  6  5       21 0.300921476196D-02 0.100000000000D+01
0.184389225844D-05 0.000000000000D+00 0.000000000000D+00 0.157530916822D-04 0.000000000000D+00  6 2 -1 25 24 4 -4 4 0.59879193D-01 0.86707159D-02 0.15685959D+05 0.15685959D+05 0.15685959D+05 0.12456147D+01  1  2 12  8  6  5       21 0.300921476196D-02 0.100000000000D+01
0.167795142073D-05 0.000000000000D+00 0.000000000000D+00 0.157530916822D-04 0.000000000000D+00  6 2 -1 25 24 3 -3 4 0.59879193D-01 0.86707159D-02 0.15685959D+05 0.15685959D+05 0.15685959D+05 0.12456147D+01  1  2 12  8  6  5       21 0.273840088106D-02 0.100000000000D+01
0.167795142073D-05 0.000000000000D+00 0.000000000000D+00 0.157530916822D-04 0.000000000000D+00  6 2 -1 25 24 4 -4 4 0.59879193D-01 0.86707159D-02 0.15685959D+05 0.15685959D+05 0.15685959D+05 0.12456147D+01  1  2 12  8  6  5       21 0.273840088106D-02 0.100000000000D+01
-.109919364454D-05 0.000000000000D+00 0.000000000000D+00 0.157145736825D-04 0.000000000000D+00  6 2 -1 25 24 3 -3 4 0.59879193D-01 0.86707159D-02 0.16179915D+05 0.16179915D+05 0.16179915D+05 0.12440910D+01  1  2  5  8  6  5       21 -.178685139246D-02 0.100000000000D+01
-.109919364454D-05 0.000000000000D+00 0.000000000000D+00 0.157145736825D-04 0.000000000000D+00  6 2 -1 25 24 4 -4 4 0.59879193D-01 0.86707159D-02 0.16179915D+05 0.16179915D+05 0.16179915D+05 0.12440910D+01  1  2  5  8  6  5       21 -.178685139246D-02 0.100000000000D+01
  </mgrwgt>
  </event>
  <event>
  5     66 0.46179844E-03 0.35695430E+02 0.75467711E-02 0.11301332E+00
        2 -1    0    0  502    0 0.00000000E+00 0.00000000E+00 0.32008777E+03 0.32008793E+03 0.32000000E+00 0.0000E+00 0.9000E+01
       -1 -1    0    0    0  501 0.00000000E+00 0.00000000E+00 -.19537277E+03 0.19537303E+03 0.32000000E+00 0.0000E+00 0.9000E+01
       25  1    1    2    0    0 0.14956319E+03 -.71334778E+02 0.16879816E+03 0.26753619E+03 0.12500000E+03 0.0000E+00 0.9000E+01
       24  1    1    2    0    0 -.16069471E+03 0.10524396E+03 -.36233113E+02 0.21137440E+03 0.80419002E+02 0.0000E+00 0.9000E+01
       21  1    1    2  502  501 0.11131528E+02 -.33909181E+02 -.78500528E+01 0.36550366E+02 0.75000000E+00 0.0000E+00 0.9000E+01
#aMCatNLO 1  0  0  5  2 0.55790738D+01 0.00000000D+00  -5  6  0 0.00000000D+00 0.00000000D+00 0.00000000D+00 0.00000000D+00 0.00000000D+00
  <mgrwgt>
 0.5517901534D+00   19    2    0
 0.250073074995355D+03 0.000000000000000D+00 0.000000000000000D+00 0.250073074995355D+03
 0.250073074995355D+03 -.000000000000000D+00 -.000000000000000D+00 -.250073074995355D+03
 0.233636510884969D+03 0.149562253888488D+03 -.713319403978169D+02 0.107256261865589D+03
 0.226883171906868D+03 -.160695618015042D+03 0.105246714976025D+03 -.900489038115952D+02
 0.396264671988740D+02 0.111333641265532D+02 -.339147745782082D+02 -.172073580539935D+02
 0.000000000000000D+00 -.000000000000000D+00 0.000000000000000D+00 0.000000000000000D+00
 0.250073074995355D+03 0.000000000000000D+00 0.000000000000000D+00 0.250073074995355D+03
 0.250073074995355D+03 -.000000000000000D+00 -.000000000000000D+00 -.250073074995355D+03
 0.234777195048672D+03 0.150839449852957D+03 -.752225715435138D+02 0.105282270175753D+03
 0.225060035566129D+03 -.159463331185170D+03 0.101492887330064D+03 -.919534854336276D+02
 0.627710794890937D+01 0.431506454029225D+01 0.306619066764147D+01 0.337354072230382D+01
 0.340318114270004D+02 0.430881679192033D+01 -.293365064541920D+02 -.167023254644295D+02
0.299119406287D-02 0.000000000000D+00 0.000000000000D+00 0.103478504499D-04 0.000000000000D+00  6 2 -1 25 24 21 21 2 0.49244304D-01 0.30057382D-01 0.50964326D+05 0.50964326D+05 0.50964326D+05 0.11914610D+01  1  2  2  3  6  5       21 0.501199702200D+00 0.100000000000D+01
0.622665521815D-03 0.157849647372D-03 -.114869728009D-04 0.103478504499D-04 0.000000000000D+00  6 2 -1 25 24 21 21 4 0.49244304D-01 0.30057382D-01 0.50964326D+05 0.50964326D+05 0.50964326D+05 0.11914610D+01  1  2  3  3  6  5       21 0.148108743280D+00 0.100000000000D+01
-.110794724390D-04 0.000000000000D+00 0.000000000000D+00 0.103478504499D-04 0.000000000000D+00  6 2 -1 25 24 21 21 4 0.49244304D-01 0.30057382D-01 0.50964326D+05 0.50964326D+05 0.50964326D+05 0.11914610D+01  1  2 15  3  6  5       21 -.263539040088D-02 0.100000000000D+01
0.131373816149D-03 0.000000000000D+00 0.000000000000D+00 0.103521358417D-04 0.000000000000D+00  6 2 -1 25 24 21 21 4 0.49244304D-01 0.30057382D-01 0.50672333D+05 0.50672333D+05 0.50672333D+05 0.11917077D+01  1  2 12  3  6  5       21 0.312737633960D-01 0.100000000000D+01
0.960629138074D-04 0.000000000000D+00 0.000000000000D+00 0.103521358417D-04 0.000000000000D+00  6 2 -1 25 24 21 21 4 0.49244304D-01 0.30057382D-01 0.50672333D+05 0.50672333D+05 0.50672333D+05 0.11917077D+01  1  2 12  3  6  5       21 0.228679422247D-01 0.100000000000D+01
-.909578042608D-03 0.000000000000D+00 0.000000000000D+00 0.103478504499D-04 0.000000000000D+00  6 2 -1 25 24 21 21 4 0.49244304D-01 0.30057382D-01 0.50964326D+05 0.50964326D+05 0.50964326D+05 0.11914610D+01  1  2  4  3  6  5       21 -.216354456905D+00 0.100000000000D+01
0.634607354692D-04 0.000000000000D+00 0.000000000000D+00 0.103478504499D-04 0.154604836847D-05  6 2 -1 25 24 21 21 4 0.49244304D-01 0.30057382D-01 0.50672333D+05 0.50672333D+05 0.50672333D+05 0.11917077D+01  1  2 11  3  6  5       21 0.151069374718D-01 0.100000000000D+01
0.204197108516D-04 0.000000000000D+00 0.000000000000D+00 0.103521358417D-04 0.000000000000D+00  6 2 -1 25 24 1 -1 4 0.49244304D-01 0.30057382D-01 0.50672333D+05 0.50672333D+05 0.50672333D+05 0.11917077D+01  1  2 12  6  6  5       21 0.486094736764D-02 0.100000000000D+01
0.189481515831D-04 0.000000000000D+00 0.000000000000D+00 0.103521358417D-04 0.000000000000D+00  6 2 -1 25 24 1 -1 4 0.49244304D-01 0.30057382D-01 0.50672333D+05 0.50672333D+05 0.50672333D+05 0.11917077D+01  1  2 12  6  6  5       21 0.451064014710D-02 0.100000000000D+01
0.163120374204D-04 0.000000000000D+00 0.000000000000D+00 0.103521358417D-04 0.171553756271D-07  6 2 -1 25 24 1 -1 4 0.49244304D-01 0.30057382D-01 0.50672333D+05 0.50672333D+05 0.50672333D+05 0.11917077D+01  1  2 11  6  6  5       21 0.388310862657D-02 0.100000000000D+01
0.204197108516D-04 0.000000000000D+00 0.000000000000D+00 0.103521358417D-04 0.000000000000D+00  6 2 -1 25 24 2 -2 4 0.49244304D-01 0.30057382D-01 0.50672333D+05 0.50672333D+05 0.50672333D+05 0.11917077D+01  1  2 12  7  6  5       21 0.486094736764D-02 0.100000000000D+01
0.189481515831D-04 0.000000000000D+00 0.000000000000D+00 0.103521358417D-04 0.000000000000D+00  6 2 -1 25 24 2 -2 4 0.49244304D-01 0.30057382D-01 0.50672333D+05 0.50672333D+05 0.50672333D+05 0.11917077D+01  1  2 12  7  6  5       21 0.451064014710D-02 0.100000000000D+01
0.130462608545D-04 0.000000000000D+00 0.000000000000D+00 0.103521358417D-04 0.177505467234D-07  6 2 -1 25 24 2 -2 4 0.49244304D-01 0.30057382D-01 0.50672333D+05 0.50672333D+05 0.50672333D+05 0.11917077D+01  1  2 11  7  6  5       21 0.310568488550D-02 0.100000000000D+01
0.204197108516D-04 0.000000000000D+00 0.000000000000D+00 0.103521358417D-04 0.000000000000D+00  6 2 -1 25 24 3 -3 4 0.49244304D-01 0.30057382D-01 0.50672333D+05 0.50672333D+05 0.50672333D+05 0.11917077D+01  1  2 12  8  6  5       21 0.486094736764D-02 0.100000000000D+01
0.204197108516D-04 0.000000000000D+00 0.000000000000D+00 0.103521358417D-04 0.000000000000D+00  6 2 -1 25 24 4 -4 4 0.49244304D-01 0.30057382D-01 0.50672333D+05 0.50672333D+05 0.50672333D+05 0.11917077D+01  1  2 12  8  6  5       21 0.486094736764D-02 0.100000000000D+01
0.189481515831D-04 0.000000000000D+00 0.000000000000D+00 0.103521358417D-04 0.000000000000D+00  6 2 -1 25 24 3 -3 4 0.49244304D-01 0.30057382D-01 0.50672333D+05 0.50672333D+05 0.50672333D+05 0.11917077D+01  1  2 12  8  6  5       21 0.451064014710D-02 0.100000000000D+01
0.189481515831D-04 0.000000000000D+00 0.000000000000D+00 0.103521358417D-04 0.000000000000D+00  6 2 -1 25 24 4 -4 4 0.49244304D-01 0.30057382D-01 0.50672333D+05 0.50672333D+05 0.50672333D+05 0.11917077D+01  1  2 12  8  6  5       21 0.451064014710D-02 0.100000000000D+01
0.162732879892D-04 0.000000000000D+00 0.000000000000D+00 0.103521358417D-04 0.167444990744D-07  6 2 -1 25 24 3 -3 4 0.49244304D-01 0.30057382D-01 0.50672333D+05 0.50672333D+05 0.50672333D+05 0.11917077D+01  1  2 11  8  6  5       21 0.387388425767D-02 0.100000000000D+01
0.162732879892D-04 0.000000000000D+00 0.000000000000D+00 0.103521358417D-04 0.167444990744D-07  6 2 -1 25 24 4 -4 4 0.49244304D-01 0.30057382D-01 0.50672333D+05 0.50672333D+05 0.50672333D+05 0.11917077D+01  1  2 11  8  6  5       21 0.387388425767D-02 0.100000000000D+01
  </mgrwgt>
  </event>
  <event>
  5     66 0.46179844E-03 0.36686181E+02 0.75467711E-02 0.11233690E+00
        2 -1    0    0  502    0 0.00000000E+00 0.00000000E+00 0.88982524E+03 0.88982529E+03 0.32000000E+00 0.0000E+00 0.9000E+01
       -1 -1    0    0    0  501 0.00000000E+00 0.00000000E+00 -.81569823E+02 0.81570451E+02 0.32000000E+00 0.0000E+00 0.9000E+01
       25  1    1    2    0    0 -.50244357E+01 -.17518456E+03 0.43694863E+03 0.48709751E+03 0.12500000E+03 0.0000E+00 0.9000E+01
       24  1    1    2    0    0 0.39205771E+02 0.18850351E+03 0.14275027E+03 0.25281519E+03 0.80419002E+02 0.0000E+00 0.9000E+01
       21  1    1    2  502  501 -.34181335E+02 -.13318955E+02 0.22855651E+03 0.23148305E+03 0.75000000E+00 0.0000E+00 0.9000E+01
#aMCatNLO 1  0  0  2  2 0.84889536D+01 0.00000000D+00  -5  6  0 0.00000000D+00 0.00000000D+00 0.00000000D+00 0.00000000D+00 0.00000000D+00
  <mgrwgt>
 0.6258695869D+00    6    4    0
 0.269412732290503D+03 0.000000000000000D+00 0.000000000000000D+00 0.269412732290503D+03
 0.269412732290503D+03 0.000000000000000D+00 0.000000000000000D+00 -.269412732290503D+03
 0.222702975498744D+03 -.502371933604809D+01 -.175184279019865D+03 0.570687823973579D+02
 0.241646934222669D+03 0.392065485893145D+02 0.188503815783932D+03 -.121881839695073D+03
 0.744755548595925D+02 -.341828292532664D+02 -.133195367640671D+02 0.648130572977149D+02
 0.000000000000000D+00 0.000000000000000D+00 0.000000000000000D+00 0.000000000000000D+00
 0.274890371608280D+03 0.000000000000000D+00 0.000000000000000D+00 0.274890371608280D+03
 0.272755294419918D+03 0.000000000000000D+00 0.000000000000000D+00 -.272755294419918D+03
 0.224553423311006D+03 -.773541064111821D+01 -.177433247782337D+03 0.570687823973579D+02
 0.239305627709991D+03 0.362905592735333D+02 0.186085410388513D+03 -.121881839695073D+03
 0.750332792393260D+02 -.350892932111575D+02 -.140713218665204D+02 0.648130572977149D+02
 0.875333576787472D+01 0.653414457874238D+01 0.541915926034496D+01 0.213507718836205D+01
 0.269412732290503D+03 0.000000000000000D+00 0.000000000000000D+00 0.269412732290503D+03
 0.269412732290503D+03 0.000000000000000D+00 0.000000000000000D+00 -.269412732290503D+03
 0.222702975498744D+03 -.502371933604809D+01 -.175184279019865D+03 0.570687823973579D+02
 0.241646934222669D+03 0.392065485893145D+02 0.188503815783932D+03 -.121881839695073D+03
 0.000000000000000D+00 0.000000000000000D+00 0.000000000000000D+00 0.000000000000000D+00
 0.744755548595925D+02 -.341828292532664D+02 -.133195367640671D+02 0.648130572977149D+02
 0.274890371608280D+03 0.000000000000000D+00 0.000000000000000D+00 0.274890371608280D+03
 0.272755294419918D+03 0.000000000000000D+00 0.000000000000000D+00 -.272755294419918D+03
 0.224553423311006D+03 -.773541064111821D+01 -.177433247782337D+03 0.570687823973579D+02
 0.239305627709991D+03 0.362905592735333D+02 0.186085410388513D+03 -.121881839695073D+03
 0.875333576787472D+01 0.653414457874238D+01 0.541915926034496D+01 0.213507718836205D+01
 0.750332792393260D+02 -.350892932111575D+02 -.140713218665204D+02 0.648130572977149D+02
0.296349221278D-02 0.000000000000D+00 0.000000000000D+00 0.104356793769D-04 0.000000000000D+00  6 2 -1 25 24 21 21 2 0.13689624D+00 0.12549256D-01 0.53040548D+05 0.53040548D+05 0.53040548D+05 0.11897510D+01  1  2  2  2  6  2       -1 0.628931614061D+00 0.100000000000D+01
0.427653560772D-03 0.156387780580D-03 -.113805904025D-04 0.104356793769D-04 0.000000000000D+00  6 2 -1 25 24 21 21 4 0.13689624D+00 0.12549256D-01 0.53040548D+05 0.53040548D+05 0.53040548D+05 0.11897510D+01  1  2  3  2  6  2       -1 0.128470637594D+00 0.100000000000D+01
-.680968709727D-05 0.000000000000D+00 0.000000000000D+00 0.104356793769D-04 0.000000000000D+00  6 2 -1 25 24 21 21 4 0.13689624D+00 0.12549256D-01 0.53040548D+05 0.53040548D+05 0.53040548D+05 0.11897510D+01  1  2 15  2  6  2       -1 -.204568586222D-02 0.100000000000D+01
-.433879305685D-03 0.000000000000D+00 0.000000000000D+00 0.104356793769D-04 0.000000000000D+00  6 2 -1 25 24 21 21 4 0.13689624D+00 0.12549256D-01 0.53040548D+05 0.53040548D+05 0.53040548D+05 0.11897510D+01  1  2  4  2  6  2       -1 -.130340902434D+00 0.100000000000D+01
0.280117257212D-05 0.000000000000D+00 0.000000000000D+00 0.104356793769D-04 0.326804030316D-06  6 2 -1 25 24 21 21 4 0.13967959D+00 0.12704953D-01 0.55088036D+05 0.55088036D+05 0.55088036D+05 0.11881360D+01  1  2 11  2  6  2       -1 0.799141586644D-03 0.100000000000D+01
0.137432715740D-07 0.000000000000D+00 0.000000000000D+00 0.104073667515D-04 0.260080275534D-08  6 2 21 25 24 1 21 4 0.13967959D+00 0.12704953D-01 0.55088036D+05 0.55088036D+05 0.55088036D+05 0.11881360D+01  3  4 11  5  5  2       -1 0.547819232906D-04 0.100000000000D+01
  </mgrwgt>
  </event>
  <event>
  5     66 0.46179844E-03 0.25721734E+02 0.75467711E-02 0.11077042E+00
        2 -1    0    0  502    0 0.00000000E+00 0.00000000E+00 0.16505436E+04 0.16505437E+04 0.32000000E+00 0.0000E+00 0.9000E+01
       -1 -1    0    0    0  501 0.00000000E+00 0.00000000E+00 -.31380243E+02 0.31381874E+02 0.32000000E+00 0.0000E+00 0.9000E+01
       25  1    1    2    0    0 -.46700163E+01 0.13438543E+03 0.34674578E+03 0.39235047E+03 0.12500000E+03 0.0000E+00 0.9000E+01
       24  1    1    2    0    0 -.23949863E+01 -.10965729E+03 0.12433090E+04 0.12507257E+04 0.80419002E+02 0.0000E+00 0.9000E+01
       21  1    1    2  502  501 0.70650025E+01 -.24728147E+02 0.29108644E+02 0.38849339E+02 0.75000000E+00 0.0000E+00 0.9000E+01
#aMCatNLO 1  0  0  1  1 0.15546460D+03 0.00000000D+00  -5  6  0 0.00000000D+00 0.00000000D+00 0.00000000D+00 0.00000000D+00 0.00000000D+00
  <mgrwgt>
 0.4518906156D+00    4    2    0
 0.227587034402925D+03 0.000000000000000D+00 0.000000000000000D+00 0.227587034402925D+03
 0.227587034402925D+03 0.000000000000000D+00 0.000000000000000D+00 -.227587034402925D+03
 0.216326408990045D+03 -.467060644725222D+01 0.134387497289497D+03 -.114412854322442D+03
 0.198841506182401D+03 -.239552876653207D+01 -.109655386356559D+03 0.145054080643868D+03
 0.400061536334040D+02 0.706613521378429D+01 -.247321109329385D+02 -.306412263214263D+02
 0.000000000000000D+00 0.000000000000000D+00 -.000000000000000D+00 -.000000000000000D+00
 0.318207215002838D+03 0.000000000000000D+00 0.000000000000000D+00 0.318207215002838D+03
 0.318248737096039D+03 0.000000000000000D+00 0.000000000000000D+00 -.318248737096039D+03
 0.266788793394602D+03 -.515208033001428D+02 0.199515828630331D+03 -.114412854322442D+03
 0.180193950860701D+03 -.391525707495665D+02 -.585579530438046D+02 0.145054080643868D+03
 0.340086017539479D+02 -.111461025787445D+00 -.147542474975001D+02 -.306412263214263D+02
 0.155464606089626D+03 0.907848350754967D+02 -.126203628089026D+03 -.415220932019190D-01
0.111594483795D-02 0.000000000000D+00 0.000000000000D+00 0.161778946992D-04 0.000000000000D+00  6 2 -1 25 24 21 21 2 0.25392992D+00 0.48278575D-02 0.29811565D+05 0.29811565D+05 0.29811565D+05 0.12151857D+01  1  2  2  1  6  1        2 0.395314078577D+00 0.100000000000D+01
0.184608464389D-03 0.588900270106D-04 -.428552201274D-05 0.161778946992D-04 0.000000000000D+00  6 2 -1 25 24 21 21 4 0.25392992D+00 0.48278575D-02 0.29811565D+05 0.29811565D+05 0.29811565D+05 0.12151857D+01  1  2  3  1  6  1        2 0.965687187698D-01 0.100000000000D+01
-.121659880055D-04 0.000000000000D+00 0.000000000000D+00 0.161778946992D-04 0.000000000000D+00  6 2 -1 25 24 21 21 4 0.25392992D+00 0.48278575D-02 0.29811565D+05 0.29811565D+05 0.29811565D+05 0.12151857D+01  1  2 15  1  6  1        2 -.636403037176D-02 0.100000000000D+01
-.642862561683D-04 0.000000000000D+00 0.000000000000D+00 0.161778946992D-04 0.000000000000D+00  6 2 -1 25 24 21 21 4 0.25392992D+00 0.48278575D-02 0.29811565D+05 0.29811565D+05 0.29811565D+05 0.12151857D+01  1  2  4  1  6  1        2 -.336281514134D-01 0.100000000000D+01
  </mgrwgt>
  </event>
  <event>
  5     66 0.46179844E-03 0.29068450E+02 0.75467711E-02 0.11978500E+00
        2 -1    0    0  502    0 0.00000000E+00 0.00000000E+00 0.12088144E+03 0.12088186E+03 0.32000000E+00 0.0000E+00 0.9000E+01
       -1 -1    0    0    0  501 -.00000000E+00 -.00000000E+00 -.20027893E+03 0.20027918E+03 0.32000000E+00 0.0000E+00 0.9000E+01
       25  1    1    2    0    0 -.19082452E+01 -.10254812E+03 -.70337597E+02 0.17632963E+03 0.12500000E+03 0.0000E+00 0.9000E+01
       24  1    1    2    0    0 -.14814111E+02 0.78779515E+02 -.16711232E+02 0.11476999E+03 0.80419002E+02 0.0000E+00 0.9000E+01
       21  1    1    2  502  501 0.16722356E+02 0.23768610E+02 0.76513400E+01 0.30061429E+02 0.75000000E+00 0.0000E+00 0.9000E+01
#aMCatNLO 1  0  0  5  2 0.14028939D+02 0.00000000D+00  -5  6  0 0.00000000D+00 0.00000000D+00 0.00000000D+00 0.00000000D+00 0.00000000D+00
  <mgrwgt>
 0.1925985535D+00    9    2    0
 0.155595996502566D+03 0.000000000000000D+00 0.000000000000000D+00 0.155595996502566D+03
 0.155595996502566D+03 -.000000000000000D+00 -.000000000000000D+00 -.155595996502566D+03
 0.164034839228285D+03 -.191052588294694D+01 -.102551366213789D+03 -.276042688580088D+02
 0.114181446748628D+03 -.148156985115840D+02 0.787772580527856D+02 0.120343474496123D+02
 0.329757070282191D+02 0.167262243945310D+02 0.237741081610034D+02 0.155699214083965D+02
 0.000000000000000D+00 0.000000000000000D+00 0.000000000000000D+00 -.000000000000000D+00
 0.155595996502566D+03 0.000000000000000D+00 0.000000000000000D+00 0.155595996502566D+03
 0.155595996502566D+03 -.000000000000000D+00 -.000000000000000D+00 -.155595996502566D+03
 0.157135116443288D+03 0.501859918700498D+01 -.927025345235947D+02 -.211541621140519D+02
 0.119279391124522D+03 -.977886578177212D+01 0.859364473164777D+02 0.167229781830403D+02
 0.148272648382831D+02 -.140732122552821D+02 0.435124530309761D+01 -.169090026750136D+01
 0.199502205990396D+02 0.188334788500493D+02 0.241484190401951D+01 0.612208419851297D+01
0.255605296920D-03 0.000000000000D+00 0.000000000000D+00 0.238895020123D-04 0.000000000000D+00  6 2 -1 25 24 21 21 2 0.18597197D-01 0.30812195D-01 0.23151057D+05 0.23151057D+05 0.23151057D+05 0.12268915D+01  1  2  2  3  6  5       21 0.125499234812D+00 0.100000000000D+01
0.390899680408D-04 0.134886620985D-04 -.981591642594D-06 0.238895020123D-04 0.000000000000D+00  6 2 -1 25 24 21 21 4 0.18597197D-01 0.30812195D-01 0.23151057D+05 0.23151057D+05 0.23151057D+05 0.12268915D+01  1  2  3  3  6  5       21 0.288900869870D-01 0.100000000000D+01
0.111091204171D-04 0.000000000000D+00 0.000000000000D+00 0.238895020123D-04 0.000000000000D+00  6 2 -1 25 24 21 21 4 0.18597197D-01 0.30812195D-01 0.23151057D+05 0.23151057D+05 0.23151057D+05 0.12268915D+01  1  2 15  3  6  5       21 0.821037906361D-02 0.100000000000D+01
0.102163446397D-03 0.000000000000D+00 0.000000000000D+00 0.238511082822D-04 0.000000000000D+00  6 2 -1 25 24 21 21 4 0.18597197D-01 0.30812195D-01 0.23642778D+05 0.23642778D+05 0.23642778D+05 0.12259052D+01  1  2 12  3  6  5       21 0.753006184713D-01 0.100000000000D+01
-.783006762750D-04 0.000000000000D+00 0.000000000000D+00 0.238895020123D-04 0.000000000000D+00  6 2 -1 25 24 21 21 4 0.18597197D-01 0.30812195D-01 0.23151057D+05 0.23151057D+05 0.23151057D+05 0.12268915D+01  1  2  4  3  6  5       21 -.578694090096D-01 0.100000000000D+01
0.426275960254D-05 0.000000000000D+00 0.000000000000D+00 0.238511082822D-04 0.000000000000D+00  6 2 -1 25 24 1 -1 4 0.18597197D-01 0.30812195D-01 0.23642778D+05 0.23642778D+05 0.23642778D+05 0.12259052D+01  1  2 12  6  6  5       21 0.314191078888D-02 0.100000000000D+01
0.426275960254D-05 0.000000000000D+00 0.000000000000D+00 0.238511082822D-04 0.000000000000D+00  6 2 -1 25 24 2 -2 4 0.18597197D-01 0.30812195D-01 0.23642778D+05 0.23642778D+05 0.23642778D+05 0.12259052D+01  1  2 12  7  6  5       21 0.314191078888D-02 0.100000000000D+01
0.426275960254D-05 0.000000000000D+00 0.000000000000D+00 0.238511082822D-04 0.000000000000D+00  6 2 -1 25 24 3 -3 4 0.18597197D-01 0.30812195D-01 0.23642778D+05 0.23642778D+05 0.23642778D+05 0.12259052D+01  1  2 12  8  6  5       21 0.314191078888D-02 0.100000000000D+01
0.426275960254D-05 0.000000000000D+00 0.000000000000D+00 0.238511082822D-04 0.000000000000D+00  6 2 -1 25 24 4 -4 4 0.18597197D-01 0.30812195D-01 0.23642778D+05 0.23642778D+05 0.23642778D+05 0.12259052D+01  1  2 12  8  6  5       21 0.314191078888D-02 0.100000000000D+01
  </mgrwgt>
  </event>
  <event>
  5     66 0.46179844E-03 0.52359226E+02 0.75467711E-02 0.11568995E+00
        2 -1    0    0  502    0 0.00000000E+00 0.00000000E+00 0.22805624E+04 0.22805624E+04 0.32000000E+00 0.0000E+00 0.9000E+01
       -1 -1    0    0    0  501 0.00000000E+00 0.00000000E+00 -.87451175E+01 0.87509702E+01 0.32000000E+00 0.0000E+00 0.9000E+01
       25  1    1    2    0    0 0.38409066E+02 0.17608977E+02 0.13623814E+04 0.13687562E+04 0.12500000E+03 0.0000E+00 0.9000E+01
       24  1    1    2    0    0 -.19631699E+02 0.31263582E+02 0.63914784E+03 0.64524413E+03 0.80419002E+02 0.0000E+00 0.9000E+01
       21  1    1    2  502  501 -.18777368E+02 -.48872559E+02 0.27028803E+03 0.27531309E+03 0.75000000E+00 0.0000E+00 0.9000E+01
#aMCatNLO 1  0  0  2  2 0.21371194D+03 0.00000000D+00  -5  6  0 0.00000000D+00 0.00000000D+00 0.00000000D+00 0.00000000D+00 0.00000000D+00
  <mgrwgt>
 0.1956883336D-01    5    4    0
 0.141246278068218D+03 0.000000000000000D+00 0.000000000000000D+00 0.141246278068218D+03
 0.141246278068218D+03 0.000000000000000D+00 0.000000000000000D+00 -.141246278068218D+03
 0.136040357264201D+03 0.384098366961256D+02 0.176109818665803D+02 0.331136915375404D+02
 0.889899844199319D+02 -.196311946379498D+02 0.312648931818993D+02 -.944055210782455D+01
 0.574622144523029D+02 -.187786420581758D+02 -.488758750484796D+02 -.236731394297158D+02
 0.000000000000000D+00 -.000000000000000D+00 0.000000000000000D+00 -.000000000000000D+00
 0.167650981730379D+03 0.000000000000000D+00 0.000000000000000D+00 0.167650981730379D+03
 0.267072806962075D+03 0.000000000000000D+00 0.000000000000000D+00 -.267072806962075D+03
 0.146268273811695D+03 0.655832140290144D+02 -.192803888506954D+02 0.331136915375404D+02
 0.815313643987987D+02 -.321780714389615D+01 0.898159893578577D+01 -.944055210782455D+01
 0.699780819528462D+02 -.651198464697777D+01 -.655294474209726D+02 -.236731394297158D+02
 0.136946068529114D+03 -.558534222381405D+02 0.758282373358822D+02 -.994218252316965D+02
 0.141246278068218D+03 0.000000000000000D+00 0.000000000000000D+00 0.141246278068218D+03
 0.141246278068218D+03 0.000000000000000D+00 0.000000000000000D+00 -.141246278068218D+03
 0.136040357264201D+03 0.384098366961256D+02 0.176109818665803D+02 0.331136915375404D+02
 0.889899844199319D+02 -.196311946379498D+02 0.312648931818993D+02 -.944055210782455D+01
 0.000000000000000D+00 -.000000000000000D+00 0.000000000000000D+00 -.000000000000000D+00
 0.574622144523029D+02 -.187786420581758D+02 -.488758750484796D+02 -.236731394297158D+02
 0.167650981730379D+03 0.000000000000000D+00 0.000000000000000D+00 0.167650981730379D+03
 0.267072806962075D+03 0.000000000000000D+00 0.000000000000000D+00 -.267072806962075D+03
 0.146268273811695D+03 0.655832140290144D+02 -.192803888506954D+02 0.331136915375404D+02
 0.815313643987987D+02 -.321780714389615D+01 0.898159893578577D+01 -.944055210782455D+01
 0.136946068529114D+03 -.558534222381405D+02 0.758282373358822D+02 -.994218252316965D+02
 0.699780819528462D+02 -.651198464697777D+01 -.655294474209726D+02 -.236731394297158D+02
0.861030102083D-04 0.000000000000D+00 0.000000000000D+00 0.957805853438D-05 0.000000000000D+00  6 2 -1 25 24 21 21 2 0.35085620D+00 0.13458546D-02 0.18604380D+05 0.18604380D+05 0.18604380D+05 0.12372996D+01  1  2  2  2  6  2       -1 0.959359321304D-01 0.100000000000D+01
-.791805188976D-06 0.454378068202D-05 -.330658230643D-06 0.957805853438D-05 0.000000000000D+00  6 2 -1 25 24 21 21 4 0.35085620D+00 0.13458546D-02 0.18604380D+05 0.18604380D+05 0.18604380D+05 0.12372996D+01  1  2  3  2  6  2       -1 -.135061340102D-02 0.100000000000D+01
0.678923815982D-06 0.000000000000D+00 0.000000000000D+00 0.957805853438D-05 0.000000000000D+00  6 2 -1 25 24 21 21 4 0.35085620D+00 0.13458546D-02 0.18604380D+05 0.18604380D+05 0.18604380D+05 0.12372996D+01  1  2 15  2  6  2       -1 0.115806718231D-02 0.100000000000D+01
-.740666744295D-04 0.000000000000D+00 -.437439162289D-04 0.957805853438D-05 0.000000000000D+00  6 2 -1 25 24 21 21 4 0.35085620D+00 0.31581708D-02 0.18604380D+05 0.18604380D+05 0.18604380D+05 0.12372996D+01  1  2  5  2  6  2       -1 -.368610797057D-01 0.100000000000D+01
-.412955966803D-05 0.000000000000D+00 -.407021895601D-05 0.957805853438D-05 0.000000000000D+00  6 2 21 25 24 1 21 4 0.35085620D+00 0.31581708D-02 0.18604380D+05 0.18604380D+05 0.18604380D+05 0.12372996D+01  3  4  5  5  5  2       -1 -.393134728432D-01 0.100000000000D+01
  </mgrwgt>
  </event>
  <event>
  5     66 0.46179844E-03 0.27967555E+02 0.75467711E-02 0.11423877E+00
        2 -1    0    0  502    0 0.00000000E+00 0.00000000E+00 0.15620027E+03 0.15620060E+03 0.32000000E+00 0.0000E+00 0.9000E+01
       -1 -1    0    0    0  501 -.00000000E+00 -.00000000E+00 -.29702051E+03 0.29702068E+03 0.32000000E+00 0.0000E+00 0.9000E+01
       25  1    1    2    0    0 0.13896048E+03 0.58336369E+02 -.28108494E+02 0.19780858E+03 0.12500000E+03 0.0000E+00 0.9000E+01
       24  1    1    2    0    0 -.15576601E+03 -.80685666E+02 -.71904980E+02 0.20593875E+03 0.80419002E+02 0.0000E+00 0.9000E+01
       21  1    1    2  502  501 0.16805531E+02 0.22349297E+02 -.40806761E+02 0.49473944E+02 0.75000000E+00 0.0000E+00 0.9000E+01
#aMCatNLO 1  0  0  5  1 0.13775438D+02 0.00000000D+00  -5  6  0 0.00000000D+00 0.00000000D+00 0.00000000D+00 0.00000000D+00 0.00000000D+00
  <mgrwgt>
 0.2069079402D+00   20    2    0
 0.215394514156002D+03 0.000000000000000D+00 0.000000000000000D+00 0.215394514156002D+03
 0.215394514156002D+03 -.000000000000000D+00 -.000000000000000D+00 -.215394514156002D+03
 0.198919425341833D+03 0.138959024180704D+03 0.583344318066362D+02 0.350916149937321D+02
 0.193159366193459D+03 -.155767426521585D+03 -.806875472447380D+02 -.832786577455227D+01
 0.387102367767129D+02 0.168084023408807D+02 0.223531154381018D+02 -.267637492191798D+02
 0.000000000000000D+00 0.000000000000000D+00 0.000000000000000D+00 -.000000000000000D+00
 0.215394514156002D+03 0.000000000000000D+00 0.000000000000000D+00 0.215394514156002D+03
 0.215394514156002D+03 -.000000000000000D+00 -.000000000000000D+00 -.215394514156002D+03
 0.200858679668197D+03 0.141282657968812D+03 0.614245800103779D+02 0.313917302146256D+02
 0.190324114917498D+03 -.153538502118964D+03 -.777233509181535D+02 -.118769463195350D+02
 0.216289104524949D+02 0.526279442251967D+01 0.206775735018092D+02 -.354269901425681D+01
 0.179773232738140D+02 0.699304972763235D+01 -.437880259403363D+01 -.159720848808338D+02
0.517684703183D-03 0.000000000000D+00 0.000000000000D+00 0.213722270167D-04 0.000000000000D+00  6 2 -1 25 24 21 21 2 0.24030849D-01 0.45695501D-01 0.43419515D+05 0.43419515D+05 0.43419515D+05 0.11983993D+01  1  2  2  3  6  5       21 0.920061357231D-01 0.100000000000D+01
0.120079813500D-03 0.273189723333D-04 -.198804556973D-05 0.213722270167D-04 0.000000000000D+00  6 2 -1 25 24 21 21 4 0.24030849D-01 0.45695501D-01 0.43419515D+05 0.43419515D+05 0.43419515D+05 0.11983993D+01  1  2  3  3  6  5       21 0.306495812969D-01 0.100000000000D+01
0.433782909955D-05 0.000000000000D+00 0.000000000000D+00 0.213722270167D-04 0.000000000000D+00  6 2 -1 25 24 21 21 4 0.24030849D-01 0.45695501D-01 0.43419515D+05 0.43419515D+05 0.43419515D+05 0.11983993D+01  1  2 15  3  6  5       21 0.110720229956D-02 0.100000000000D+01
0.156851535129D-03 0.000000000000D+00 0.000000000000D+00 0.213633855035D-04 0.000000000000D+00  6 2 -1 25 24 21 21 4 0.24030849D-01 0.45695501D-01 0.43666637D+05 0.43666637D+05 0.43666637D+05 0.11981514D+01  1  2 12  3  6  5       21 0.400041076764D-01 0.100000000000D+01
0.134051017602D-03 0.000000000000D+00 0.000000000000D+00 0.213633855035D-04 0.000000000000D+00  6 2 -1 25 24 21 21 4 0.24030849D-01 0.45695501D-01 0.43666637D+05 0.43666637D+05 0.43666637D+05 0.11981514D+01  1  2 12  3  6  5       21 0.341889630717D-01 0.100000000000D+01
-.295899814706D-03 0.000000000000D+00 0.000000000000D+00 0.213722270167D-04 0.000000000000D+00  6 2 -1 25 24 21 21 4 0.24030849D-01 0.45695501D-01 0.43419515D+05 0.43419515D+05 0.43419515D+05 0.11983993D+01  1  2  4  3  6  5       21 -.755264782830D-01 0.100000000000D+01
-.228822006311D-03 0.000000000000D+00 0.000000000000D+00 0.213722270167D-04 0.000000000000D+00  6 2 -1 25 24 21 21 4 0.24030849D-01 0.45695501D-01 0.43419515D+05 0.43419515D+05 0.43419515D+05 0.11983993D+01  1  2  5  3  6  5       21 -.584053096063D-01 0.100000000000D+01
0.543177993379D-03 0.000000000000D+00 -.000000000000D+00 0.213722270167D-04 0.000000000000D+00  6 2 -1 25 24 21 21 4 0.24030849D-01 0.45695501D-01 0.43419515D+05 0.43419515D+05 0.43419515D+05 0.11983993D+01  1  2  6  3  6  5       21 0.138642604293D+00 0.100000000000D+01
0.503387404844D-05 0.000000000000D+00 0.000000000000D+00 0.213633855035D-04 0.000000000000D+00  6 2 -1 25 24 1 -1 4 0.24030849D-01 0.45695501D-01 0.43666637D+05 0.43666637D+05 0.43666637D+05 0.11981514D+01  1  2 12  6  6  5       21 0.128386145088D-02 0.100000000000D+01
0.431435498384D-05 0.000000000000D+00 0.000000000000D+00 0.213633855035D-04 0.000000000000D+00  6 2 -1 25 24 1 -1 4 0.24030849D-01 0.45695501D-01 0.43666637D+05 0.43666637D+05 0.43666637D+05 0.11981514D+01  1  2 12  6  6  5       21 0.110035213354D-02 0.100000000000D+01
-.518693169141D-05 0.000000000000D+00 0.000000000000D+00 0.213722270167D-04 0.000000000000D+00  6 2 -1 25 24 1 -1 4 0.24030849D-01 0.45695501D-01 0.43419515D+05 0.43419515D+05 0.43419515D+05 0.11983993D+01  1  2  5  6  6  5       21 -.132393014215D-02 0.100000000000D+01
0.503387404844D-05 0.000000000000D+00 0.000000000000D+00 0.213633855035D-04 0.000000000000D+00  6 2 -1 25 24 2 -2 4 0.24030849D-01 0.45695501D-01 0.43666637D+05 0.43666637D+05 0.43666637D+05 0.11981514D+01  1  2 12  7  6  5       21 0.128386145088D-02 0.100000000000D+01
0.431435498384D-05 0.000000000000D+00 0.000000000000D+00 0.213633855035D-04 0.000000000000D+00  6 2 -1 25 24 2 -2 4 0.24030849D-01 0.45695501D-01 0.43666637D+05 0.43666637D+05 0.43666637D+05 0.11981514D+01  1  2 12  7  6  5       21 0.110035213354D-02 0.100000000000D+01
-.518693169141D-05 0.000000000000D+00 0.000000000000D+00 0.213722270167D-04 0.000000000000D+00  6 2 -1 25 24 2 -2 4 0.24030849D-01 0.45695501D-01 0.43419515D+05 0.43419515D+05 0.43419515D+05 0.11983993D+01  1  2  5  7  6  5       21 -.132393014215D-02 0.100000000000D+01
0.503387404844D-05 0.000000000000D+00 0.000000000000D+00 0.213633855035D-04 0.000000000000D+00  6 2 -1 25 24 3 -3 4 0.24030849D-01 0.45695501D-01 0.43666637D+05 0.43666637D+05 0.43666637D+05 0.11981514D+01  1  2 12  8  6  5       21 0.128386145088D-02 0.100000000000D+01
0.503387404844D-05 0.000000000000D+00 0.000000000000D+00 0.213633855035D-04 0.000000000000D+00  6 2 -1 25 24 4 -4 4 0.24030849D-01 0.45695501D-01 0.43666637D+05 0.43666637D+05 0.43666637D+05 0.11981514D+01  1  2 12  8  6  5       21 0.128386145088D-02 0.100000000000D+01
0.431435498384D-05 0.000000000000D+00 0.000000000000D+00 0.213633855035D-04 0.000000000000D+00  6 2 -1 25 24 3 -3 4 0.24030849D-01 0.45695501D-01 0.43666637D+05 0.43666637D+05 0.43666637D+05 0.11981514D+01  1  2 12  8  6  5       21 0.110035213354D-02 0.100000000000D+01
0.431435498384D-05 0.000000000000D+00 0.000000000000D+00 0.213633855035D-04 0.000000000000D+00  6 2 -1 25 24 4 -4 4 0.24030849D-01 0.45695501D-01 0.43666637D+05 0.43666637D+05 0.43666637D+05 0.11981514D+01  1  2 12  8  6  5       21 0.110035213354D-02 0.100000000000D+01
-.518693169141D-05 0.000000000000D+00 0.000000000000D+00 0.213722270167D-04 0.000000000000D+00  6 2 -1 25 24 3 -3 4 0.24030849D-01 0.45695501D-01 0.43419515D+05 0.43419515D+05 0.43419515D+05 0.11983993D+01  1  2  5  8  6  5       21 -.132393014215D-02 0.100000000000D+01
-.518693169141D-05 0.000000000000D+00 0.000000000000D+00 0.213722270167D-04 0.000000000000D+00  6 2 -1 25 24 4 -4 4 0.24030849D-01 0.45695501D-01 0.43419515D+05 0.43419515D+05 0.43419515D+05 0.11983993D+01  1  2  5  8  6  5       21 -.132393014215D-02 0.100000000000D+01
  </mgrwgt>
  </event>
  <event>
  5     66 -.46179844E-03 0.23794610E+02 0.75467711E-02 0.11066217E+00
        2 -1    0    0  502    0 0.00000000E+00 0.00000000E+00 0.17422876E+04 0.17422877E+04 0.32000000E+00 0.0000E+00 0.9000E+01
       -1 -1    0    0    0  501 0.00000000E+00 0.00000000E+00 -.39890619E+02 0.39891902E+02 0.32000000E+00 0.0000E+00 0.9000E+01
       25  1    1    2    0    0 -.19671628E+03 -.89578854E+02 0.77520280E+03 0.81442375E+03 0.12500000E+03 0.0000E+00 0.9000E+01
       24  1    1    2    0    0 0.20695283E+03 0.11105003E+03 0.88660054E+03 0.92070045E+03 0.80419002E+02 0.0000E+00 0.9000E+01
       21  1    1    2  502  501 -.10236550E+02 -.21471175E+02 0.40593669E+02 0.47055358E+02 0.75000000E+00 0.0000E+00 0.9000E+01
#aMCatNLO 1  0  0  2  2 0.21371194D+03 0.00000000D+00  -5  6  0 0.00000000D+00 0.00000000D+00 0.00000000D+00 0.00000000D+00 0.00000000D+00
  <mgrwgt>
 -.9561926770D-01    1    2    0
 0.263632512247800D+03 0.000000000000000D+00 0.000000000000000D+00 0.263632512247800D+03
 0.263632512247800D+03 0.000000000000000D+00 0.000000000000000D+00 -.263632512247800D+03
 0.249864801506717D+03 -.196714537154353D+03 -.895751978258893D+02 -.933240797396408D+01
 0.249417565012748D+03 0.206954570796302D+03 0.111053679693600D+03 0.240580887758675D+02
 0.279826579761352D+02 -.102400336419490D+02 -.214784818677105D+02 -.147256808019034D+02
 0.000000000000000D+00 -.000000000000000D+00 0.000000000000000D+00 -.000000000000000D+00
 0.274852368661626D+03 0.000000000000000D+00 0.000000000000000D+00 0.274852368661626D+03
 0.483283839354240D+03 0.000000000000000D+00 0.000000000000000D+00 -.483283839354240D+03
 0.253762371332010D+03 -.181242432853679D+03 -.125834922810530D+03 -.933240797396408D+01
 0.249197522096403D+03 0.222272697080391D+03 0.751548106356346D+02 0.240580887758675D+02
 0.308064861671896D+02 -.843395204232864D+01 -.257111331496182D+02 -.147256808019034D+02
 0.224369828420262D+03 -.325963121843827D+02 0.763912453245140D+02 -.208431470692614D+03
-.331389377356D-03 0.000000000000D+00 0.000000000000D+00 0.269762960082D-04 0.000000000000D+00  6 2 -1 25 24 21 21 4 0.26804435D+00 0.61371193D-02 0.68053062D+05 0.68053062D+05 0.68053062D+05 0.11792463D+01  1  2 14  2  6  2       -1 -.956192677012D-01 0.100000000000D+01
  </mgrwgt>
  </event>
  <event>
  5     66 -.46179844E-03 0.31186166E+02 0.75467711E-02 0.11807190E+00
        2 -1    0    0  502    0 0.00000000E+00 0.00000000E+00 0.67038302E+03 0.67038310E+03 0.32000000E+00 0.0000E+00 0.9000E+01
       -1 -1    0    0    0  501 0.00000000E+00 0.00000000E+00 -.42358126E+02 0.42359335E+02 0.32000000E+00 0.0000E+00 0.9000E+01
       25  1    1    2    0    0 -.69696013E+02 0.55697231E+02 0.22762851E+03 0.27458961E+03 0.12500000E+03 0.0000E+00 0.9000E+01
       24  1    1    2    0    0 0.10057372E+03 -.60019814E+02 0.36069212E+03 0.38766412E+03 0.80419002E+02 0.0000E+00 0.9000E+01
       21  1    1    2  502  501 -.30877707E+02 0.43225833E+01 0.39704261E+02 0.50488695E+02 0.75000000E+00 0.0000E+00 0.9000E+01
#aMCatNLO 1  0  0  2  5 0.76160009D+01 0.00000000D+00  -5  6  0 0.00000000D+00 0.00000000D+00 0.00000000D+00 0.00000000D+00 0.00000000D+00
  <mgrwgt>
 -.3779848235D+00   11    4    0
 0.168512986610796D+03 0.000000000000000D+00 0.000000000000000D+00 0.168512986610796D+03
 0.168512986610796D+03 0.000000000000000D+00 0.000000000000000D+00 -.168512986610796D+03
 0.156529744221153D+03 -.696922595461864D+02 0.556967051583151D+02 -.302890544552702D+02
 0.147709764981573D+03 0.100577261990932D+03 -.600203097355116D+02 0.404071219737533D+02
 0.327864640188668D+02 -.308850024447451D+02 0.432360457719653D+01 -.101180675184830D+02
 0.000000000000000D+00 -.000000000000000D+00 -.000000000000000D+00 -.000000000000000D+00
 0.169043723589992D+03 0.000000000000000D+00 0.000000000000000D+00 0.169043723589992D+03
 0.198288171493896D+03 0.000000000000000D+00 0.000000000000000D+00 -.198288171493896D+03
 0.155443351659166D+03 -.663291101607826D+02 0.567508405269885D+02 -.302890544552702D+02
 0.149510587606690D+03 0.103781373048380D+03 -.590160228592065D+02 0.404071219737533D+02
 0.321580749006765D+02 -.301848837837552D+02 0.454304765219663D+01 -.101180675184830D+02
 0.302198809173544D+02 -.726737910384265D+01 -.227786531997864D+01 -.292444479039039D+02
 0.168512986610796D+03 0.000000000000000D+00 0.000000000000000D+00 0.168512986610796D+03
 0.168512986610796D+03 0.000000000000000D+00 0.000000000000000D+00 -.168512986610796D+03
 0.156529744221153D+03 -.696922595461864D+02 0.556967051583151D+02 -.302890544552702D+02
 0.147709764981573D+03 0.100577261990932D+03 -.600203097355116D+02 0.404071219737533D+02
 0.000000000000000D+00 -.000000000000000D+00 -.000000000000000D+00 -.000000000000000D+00
 0.327864640188668D+02 -.308850024447451D+02 0.432360457719653D+01 -.101180675184830D+02
 0.169043723589992D+03 0.000000000000000D+00 0.000000000000000D+00 0.169043723589992D+03
 0.198288171493896D+03 0.000000000000000D+00 0.000000000000000D+00 -.198288171493896D+03
 0.155443351659166D+03 -.663291101607826D+02 0.567508405269885D+02 -.302890544552702D+02
 0.149510587606690D+03 0.103781373048380D+03 -.590160228592065D+02 0.404071219737533D+02
 0.302198809173544D+02 -.726737910384265D+01 -.227786531997864D+01 -.292444479039039D+02
 0.321580749006765D+02 -.301848837837552D+02 0.454304765219663D+01 -.101180675184830D+02
0.217120241622D-04 0.000000000000D+00 0.000000000000D+00 0.187452357997D-04 0.000000000000D+00  6 2 -1 25 24 21 21 2 0.10313595D+00 0.65167337D-02 0.26704937D+05 0.26704937D+05 0.26704937D+05 0.12202377D+01  1  2  2  2  6  2       -1 0.186954299597D-01 0.100000000000D+01
0.353745929086D-05 0.114577499343D-05 -.833798896901D-07 0.187452357997D-04 0.000000000000D+00  6 2 -1 25 24 21 21 4 0.10313595D+00 0.65167337D-02 0.26704937D+05 0.26704937D+05 0.26704937D+05 0.12202377D+01  1  2  3  2  6  2       -1 0.453539880471D-02 0.100000000000D+01
0.105290494583D-05 0.000000000000D+00 0.000000000000D+00 0.187452357997D-04 0.000000000000D+00  6 2 -1 25 24 21 21 4 0.10313595D+00 0.65167337D-02 0.26704937D+05 0.26704937D+05 0.26704937D+05 0.12202377D+01  1  2 15  2  6  2       -1 0.134993605301D-02 0.100000000000D+01
0.695248656567D-03 0.000000000000D+00 0.000000000000D+00 0.186792063997D-04 0.000000000000D+00  6 2 -1 25 24 21 21 4 0.10313595D+00 0.78278202D-02 0.27981167D+05 0.27981167D+05 0.27981167D+05 0.12180867D+01  1  2 12  2  6  2       -1 0.671950338103D+00 0.100000000000D+01
-.991625176750D-03 0.000000000000D+00 0.000000000000D+00 0.187452357997D-04 0.000000000000D+00  6 2 -1 25 24 21 21 4 0.10313595D+00 0.65167337D-02 0.26704937D+05 0.26704937D+05 0.26704937D+05 0.12202377D+01  1  2  4  2  6  2       -1 -.127136887567D+01 0.100000000000D+01
-.887269040538D-03 0.000000000000D+00 -.302632331227D-04 0.187452357997D-04 0.000000000000D+00  6 2 -1 25 24 21 21 4 0.10313595D+00 0.76860747D-02 0.26704937D+05 0.26704937D+05 0.26704937D+05 0.12202377D+01  1  2  5  2  6  2       -1 -.887061527182D+00 0.100000000000D+01
0.880650638544D-03 0.000000000000D+00 0.298557165489D-04 0.187452357997D-04 0.000000000000D+00  6 2 -1 25 24 21 21 4 0.10313595D+00 0.65167337D-02 0.26704937D+05 0.26704937D+05 0.26704937D+05 0.12202377D+01  1  2  6  2  6  2       -1 0.112908772229D+01 0.100000000000D+01
0.107232774545D-04 0.000000000000D+00 0.000000000000D+00 0.187452357997D-04 0.174842777151D-05  6 2 -1 25 24 21 21 4 0.10346078D+00 0.76681996D-02 0.27981167D+05 0.27981167D+05 0.27981167D+05 0.12180867D+01  1  2 11  2  6  2       -1 0.106526558913D-01 0.100000000000D+01
0.185993205771D-04 0.000000000000D+00 0.000000000000D+00 0.186792063997D-04 0.000000000000D+00  6 2 21 25 24 1 21 4 0.10313595D+00 0.78278202D-02 0.27981167D+05 0.27981167D+05 0.27981167D+05 0.12180867D+01  3  4 12  5  5  2       -1 0.284315066123D+00 0.100000000000D+01
-.216030158661D-04 0.000000000000D+00 -.745338455042D-06 0.187452357997D-04 0.000000000000D+00  6 2 21 25 24 1 21 4 0.10313595D+00 0.76860747D-02 0.26704937D+05 0.26704937D+05 0.26704937D+05 0.12202377D+01  3  4  5  5  5  2       -1 -.343264112870D+00 0.100000000000D+01
0.197883603436D-06 0.000000000000D+00 0.000000000000D+00 0.187452357997D-04 0.643955099137D-07  6 2 21 25 24 1 21 4 0.10346078D+00 0.76681996D-02 0.27981167D+05 0.27981167D+05 0.27981167D+05 0.12180867D+01  3  4 11  5  5  2       -1 0.312314501363D-02 0.100000000000D+01
  </mgrwgt>
  </event>
  <event>
  6     66 0.46179844E-03 0.41949505E+02 0.75467711E-02 0.12103352E+00
       21 -1    0    0  502  503 0.00000000E+00 0.00000000E+00 0.27716531E+03 0.27716633E+03 0.75000000E+00 0.0000E+00 0.9000E+01
       -3 -1    0    0    0  501 0.00000000E+00 0.00000000E+00 -.20219097E+03 0.20219159E+03 0.50000000E+00 0.0000E+00 0.9000E+01
       25  1    1    2    0    0 0.89831940E+01 -.27227044E+02 0.18718247E+02 0.12960472E+03 0.12500000E+03 0.0000E+00 0.9000E+01
       24  1    1    2    0    0 0.99655416E+01 -.17332395E+02 0.52273548E+01 0.83031712E+02 0.80419002E+02 0.0000E+00 0.9000E+01
       -4  1    1    2    0  503 -.38088527E+02 0.36026570E+02 0.15345482E+03 0.16217100E+03 0.15500000E+01 0.0000E+00 0.9000E+01
       21  1    1    2  502  501 0.19139791E+02 0.85328692E+01 -.10242608E+03 0.10455049E+03 0.75000000E+00 0.0000E+00 0.9000E+01
#aMCatNLO 2  0  0  1  1 0.25464322D+02 0.00000000D+00  -5  6  0 0.00000000D+00 0.00000000D+00 0.00000000D+00 0.00000000D+00 0.00000000D+00
  <mgrwgt>
 0.2121100532D-02    1    2    0
 0.151409797790348D+03 0.000000000000000D+00 0.000000000000000D+00 0.151409797790348D+03
 0.151409797790348D+03 0.000000000000000D+00 0.000000000000000D+00 -.151409797790348D+03
 0.136236463139711D+03 -.817022846223360D+01 -.110027443459453D+02 0.524171810816881D+02
 0.850107246667876D+02 -.774340686083511D+00 -.717424193860395D+01 0.265995865214120D+02
 0.000000000000000D+00 -.000000000000000D+00 0.000000000000000D+00 0.000000000000000D+00
 0.815724077741981D+02 0.894456914831711D+01 0.181769862845492D+02 -.790167676031002D+02
 0.356833273311580D+03 0.000000000000000D+00 0.000000000000000D+00 0.356833273311580D+03
 0.157044444319023D+03 0.000000000000000D+00 0.000000000000000D+00 -.157044444319023D+03
 0.138544548133568D+03 0.898310262774635D+01 -.272274642991840D+02 0.524171810816881D+02
 0.870315193778184D+02 0.996547557663959D+01 -.173326485068599D+02 0.265995865214120D+02
 0.206553203336595D+03 -.380885268628448D+02 0.360265699145780D+02 0.199788828992557D+03
 0.817484467826225D+02 0.191399486584588D+02 0.853354289146590D+01 -.790167676031002D+02
0.351324369689D-05 0.000000000000D+00 0.000000000000D+00 0.864768596067D-04 0.349569600975D-07  6 21 -3 25 24 -4 21 4 0.42640170D-01 0.31105865D-01 0.20234595D+05 0.20234595D+05 0.20234595D+05 0.12332689D+01  1  2  1  4  5  1        4 0.212110053183D-02 0.100000000000D+01
  </mgrwgt>
  </event>
  <event>
  6     66 0.46179844E-03 0.52684848E+02 0.75467711E-02 0.11997805E+00
        2 -1    0    0  502    0 0.00000000E+00 0.00000000E+00 0.15135331E+04 0.15135331E+04 0.32000000E+00 0.0000E+00 0.9000E+01
       -1 -1    0    0    0  501 0.00000000E+00 0.00000000E+00 -.39858073E+02 0.39859358E+02 0.32000000E+00 0.0000E+00 0.9000E+01
       25  1    1    2    0    0 -.92534794E+01 -.62971108E+02 0.11722662E+04 0.11806286E+04 0.12500000E+03 0.0000E+00 0.9000E+01
       24  1    1    2    0    0 -.44870386E+02 0.50338719E+02 0.29688478E+03 0.31488907E+03 0.80419002E+02 0.0000E+00 0.9000E+01
       21  1    1    2  502  503 0.47952255E+02 0.91434738E+01 0.87315500E+01 0.49596617E+02 0.75000000E+00 0.0000E+00 0.9000E+01
       21  1    1    2  503  501 0.61716102E+01 0.34889155E+01 -.42075351E+01 0.82781131E+01 0.75000000E+00 0.0000E+00 0.9000E+01
#aMCatNLO 2  0  0  5  2 0.64835624D+01 0.00000000D+00  -5  6  0 0.00000000D+00 0.00000000D+00 0.00000000D+00 0.00000000D+00 0.00000000D+00
  <mgrwgt>
 0.1354191981D+00    3    2    0
 0.245616642561931D+03 0.000000000000000D+00 0.000000000000000D+00 0.245616642561931D+03
 0.245616642561931D+03 -.000000000000000D+00 -.000000000000000D+00 -.245616642561931D+03
 0.216916499712316D+03 -.935404110641126D+01 -.629945791674131D+02 0.165444712088188D+03
 0.105119748286422D+03 -.449191441444047D+02 0.503273389393541D+02 -.568990070632167D+01
 0.169197037125124D+03 0.542731852508160D+02 0.126672402280590D+02 -.159754811381866D+03
 0.000000000000000D+00 0.000000000000000D+00 0.000000000000000D+00 -.000000000000000D+00
 0.245616642561931D+03 0.000000000000000D+00 0.000000000000000D+00 0.245616642561931D+03
 0.245616642561931D+03 -.000000000000000D+00 -.000000000000000D+00 -.245616642561931D+03
 0.216681583504286D+03 -.925428939571935D+01 -.629712973409153D+02 0.165151089820526D+03
 0.105112299345488D+03 -.448707790634570D+02 0.503386272412325D+02 -.583226482865140D+01
 0.130453344236349D+03 0.479188056371523D+02 0.912666518870994D+01 -.120989946157892D+03
 0.389860580377388D+02 0.620626282202410D+01 0.350600491097285D+01 -.383288788339828D+02
-.378313223324D-03 0.000000000000D+00 0.000000000000D+00 0.907587993250D-05 0.000000000000D+00  6 2 -1 25 24 21 21 4 0.23285134D+00 0.61321127D-02 0.22669808D+05 0.22669808D+05 0.22669808D+05 0.12278797D+01  1  2 13  3  6  5       21 -.170259758394D+00 0.100000000000D+01
-.338951233259D-03 0.000000000000D+00 0.000000000000D+00 0.907587993250D-05 0.000000000000D+00  6 2 -1 25 24 21 21 4 0.23285134D+00 0.61321127D-02 0.22669808D+05 0.22669808D+05 0.22669808D+05 0.12278797D+01  1  2 13  3  6  5       21 -.152544905978D+00 0.100000000000D+01
0.101816276513D-02 0.000000000000D+00 0.000000000000D+00 0.907654664804D-05 0.296882439420D-05  6 2 -1 25 24 21 21 4 0.23285134D+00 0.61321127D-02 0.22669808D+05 0.22669808D+05 0.22669808D+05 0.12278797D+01  1  2  1  3  6  5       21 0.458223862423D+00 0.100000000000D+01
  </mgrwgt>
  </event>
  <event>
  5     66 0.46179844E-03 0.20954309E+02 0.75467711E-02 0.11385098E+00
        2 -1    0    0  502    0 0.00000000E+00 0.00000000E+00 0.33425327E+03 0.33425342E+03 0.32000000E+00 0.0000E+00 0.9000E+01
       -1 -1    0    0    0  501 0.00000000E+00 0.00000000E+00 -.16111403E+03 0.16111435E+03 0.32000000E+00 0.0000E+00 0.9000E+01
       25  1    1    2    0    0 -.11948720E+03 -.10014094E+03 0.16997117E+03 0.26233681E+03 0.12500000E+03 0.0000E+00 0.9000E+01
       24  1    1    2    0    0 0.12508673E+03 0.12033131E+03 0.35437118E+02 0.19454902E+03 0.80419002E+02 0.0000E+00 0.9000E+01
       21  1    1    2  502  501 -.55995311E+01 -.20190363E+02 -.32269061E+02 0.38481948E+02 0.75000000E+00 0.0000E+00 0.9000E+01
#aMCatNLO 1  0  0  5  1 0.10627372D+02 0.00000000D+00  -5  6  0 0.00000000D+00 0.00000000D+00 0.00000000D+00 0.00000000D+00 0.00000000D+00
  <mgrwgt>
 0.4239466884D+00    9    2    0
 0.232062509537492D+03 0.000000000000000D+00 0.000000000000000D+00 0.232062509537492D+03
 0.232062509537492D+03 -.000000000000000D+00 -.000000000000000D+00 -.232062509537492D+03
 0.216589612824972D+03 -.119486939780109D+03 -.100140004750962D+03 0.835518465034338D+02
 0.194425845568153D+03 0.125086965409822D+03 0.120332151223437D+03 -.347507976458447D+02
 0.531095606818595D+02 -.560002562971292D+01 -.201921464724750D+02 -.488010488575891D+02
 0.000000000000000D+00 0.000000000000000D+00 0.000000000000000D+00 0.000000000000000D+00
 0.232062509537492D+03 0.000000000000000D+00 0.000000000000000D+00 0.232062509537492D+03
 0.232062509537492D+03 -.000000000000000D+00 -.000000000000000D+00 -.232062509537492D+03
 0.215742495263510D+03 -.120367570218656D+03 -.103315315004705D+03 0.758776514374379D+02
 0.193527151166608D+03 0.124296732134851D+03 0.117482788186421D+03 -.416372326750258D+02
 0.116046843551601D+02 0.850762986906761D+01 0.784642984281676D+01 0.849983361955085D+00
 0.432506882897059D+02 -.124367917852626D+02 -.220139030245328D+02 -.350904021243672D+02
0.219396626042D-02 0.000000000000D+00 0.000000000000D+00 0.359124460412D-04 0.000000000000D+00  6 2 -1 25 24 21 21 2 0.51423615D-01 0.24786811D-01 0.42451378D+05 0.42451378D+05 0.42451378D+05 0.11993859D+01  1  2  2  3  6  5       21 0.490812529450D+00 0.100000000000D+01
0.560188382464D-03 0.115778780405D-03 -.842540812459D-05 0.359124460412D-04 0.000000000000D+00  6 2 -1 25 24 21 21 4 0.51423615D-01 0.24786811D-01 0.42451378D+05 0.42451378D+05 0.42451378D+05 0.11993859D+01  1  2  3  3  6  5       21 0.180275887745D+00 0.100000000000D+01
-.304998638052D-04 0.000000000000D+00 0.000000000000D+00 0.359124460412D-04 0.000000000000D+00  6 2 -1 25 24 21 21 4 0.51423615D-01 0.24786811D-01 0.42451378D+05 0.42451378D+05 0.42451378D+05 0.11993859D+01  1  2 15  3  6  5       21 -.981525178977D-02 0.100000000000D+01
0.232762940811D-03 0.000000000000D+00 0.000000000000D+00 0.357169025119D-04 0.000000000000D+00  6 2 -1 25 24 21 21 4 0.51423615D-01 0.24786811D-01 0.45755671D+05 0.45755671D+05 0.45755671D+05 0.11961161D+01  1  2 12  3  6  5       21 0.741412249379D-01 0.100000000000D+01
-.106734617334D-02 0.000000000000D+00 0.000000000000D+00 0.359124460412D-04 0.000000000000D+00  6 2 -1 25 24 21 21 4 0.51423615D-01 0.24786811D-01 0.42451378D+05 0.42451378D+05 0.42451378D+05 0.11993859D+01  1  2  4  3  6  5       21 -.343485843252D+00 0.100000000000D+01
0.251298678017D-04 0.000000000000D+00 0.000000000000D+00 0.357169025119D-04 0.000000000000D+00  6 2 -1 25 24 1 -1 4 0.51423615D-01 0.24786811D-01 0.45755671D+05 0.45755671D+05 0.45755671D+05 0.11961161D+01  1  2 12  6  6  5       21 0.800453532187D-02 0.100000000000D+01
0.251298678017D-04 0.000000000000D+00 0.000000000000D+00 0.357169025119D-04 0.000000000000D+00  6 2 -1 25 24 2 -2 4 0.51423615D-01 0.24786811D-01 0.45755671D+05 0.45755671D+05 0.45755671D+05 0.11961161D+01  1  2 12  7  6  5       21 0.800453532187D-02 0.100000000000D+01
0.251298678017D-04 0.000000000000D+00 0.000000000000D+00 0.357169025119D-04 0.000000000000D+00  6 2 -1 25 24 3 -3 4 0.51423615D-01 0.24786811D-01 0.45755671D+05 0.45755671D+05 0.45755671D+05 0.11961161D+01  1  2 12  8  6  5       21 0.800453532187D-02 0.100000000000D+01
0.251298678017D-04 0.000000000000D+00 0.000000000000D+00 0.357169025119D-04 0.000000000000D+00  6 2 -1 25 24 4 -4 4 0.51423615D-01 0.24786811D-01 0.45755671D+05 0.45755671D+05 0.45755671D+05 0.11961161D+01  1  2 12  8  6  5       21 0.800453532187D-02 0.100000000000D+01
  </mgrwgt>
  </event>
  <event>
  5     66 0.46179844E-03 0.31336051E+02 0.75467711E-02 0.12364664E+00
        2 -1    0    0  502    0 0.00000000E+00 0.00000000E+00 0.29006545E+02 0.29008310E+02 0.32000000E+00 0.0000E+00 0.9000E+01
       -1 -1    0    0    0  501 -.00000000E+00 -.00000000E+00 -.14760253E+04 0.14760254E+04 0.32000000E+00 0.0000E+00 0.9000E+01
       25  1    1    2    0    0 -.93114641E+01 -.37546752E+01 -.55913032E+03 0.57302052E+03 0.12500000E+03 0.0000E+00 0.9000E+01
       24  1    1    2    0    0 -.11915949E+02 0.31082798E+02 -.65582163E+02 0.10897874E+03 0.80419002E+02 0.0000E+00 0.9000E+01
       21  1    1    2  502  501 0.21227413E+02 -.27328123E+02 -.82230629E+03 0.82303440E+03 0.75000000E+00 0.0000E+00 0.9000E+01
#aMCatNLO 1  0  0  5  1 0.19347681D+01 0.00000000D+00  -5  6  0 0.00000000D+00 0.00000000D+00 0.00000000D+00 0.00000000D+00 0.00000000D+00
  <mgrwgt>
 0.6387121833D-01   20    2    0
 0.206919669500889D+03 0.000000000000000D+00 0.000000000000000D+00 0.206919669500889D+03
 0.206919669500889D+03 -.000000000000000D+00 -.000000000000000D+00 -.206919669500889D+03
 0.128897934308733D+03 -.931159781694194D+01 -.375450301736700D+01 -.298140121796208D+02
 0.167017476129963D+03 -.119161219994302D+02 0.310830209081496D+02 0.142546389733905D+03
 0.117923928563082D+03 0.212277198163722D+02 -.273285178907826D+02 -.112732377554284D+03
 0.000000000000000D+00 0.000000000000000D+00 0.000000000000000D+00 -.000000000000000D+00
 0.206919669500889D+03 0.000000000000000D+00 0.000000000000000D+00 0.206919669500889D+03
 0.206919669500889D+03 -.000000000000000D+00 -.000000000000000D+00 -.206919669500889D+03
 0.128939041535091D+03 -.927727086654084D+01 -.379869545472191D+01 -.299963096080012D+02
 0.166802262785370D+03 -.118716791355502D+02 0.310258052669424D+02 0.142310370521580D+03
 0.114656612256144D+03 0.191140382348691D+02 -.277612982568447D+02 -.109590613628660D+03
 0.344142242517259D+01 0.203491176722193D+01 0.534188444624222D+00 -.272344728491897D+01
0.104702582356D-02 0.000000000000D+00 0.000000000000D+00 0.153787351958D-04 0.000000000000D+00  6 2 -1 25 24 21 21 2 0.44626839D-02 0.22708096D+00 0.15257625D+05 0.15257625D+05 0.15257625D+05 0.12469803D+01  1  2  2  3  6  5       21 0.380124077309D-01 0.100000000000D+01
0.489167084440D-04 0.552530707015D-04 -.402085485069D-05 0.153787351958D-04 0.000000000000D+00  6 2 -1 25 24 21 21 4 0.44626839D-02 0.22708096D+00 0.15257625D+05 0.15257625D+05 0.15257625D+05 0.12469803D+01  1  2  3  3  6  5       21 0.276149585697D-02 0.100000000000D+01
0.515457262660D-04 0.000000000000D+00 0.000000000000D+00 0.153787351958D-04 0.000000000000D+00  6 2 -1 25 24 21 21 4 0.44626839D-02 0.22708096D+00 0.15257625D+05 0.15257625D+05 0.15257625D+05 0.12469803D+01  1  2 15  3  6  5       21 0.290991184925D-02 0.100000000000D+01
0.128392246747D-05 0.000000000000D+00 0.000000000000D+00 0.153671606448D-04 0.000000000000D+00  6 2 -1 25 24 21 21 4 0.44626839D-02 0.22708096D+00 0.15403344D+05 0.15403344D+05 0.15403344D+05 0.12465110D+01  1  2 12  3  6  5       21 0.723697261155D-04 0.100000000000D+01
-.286072544637D-01 0.000000000000D+00 0.000000000000D+00 0.153787351958D-04 0.000000000000D+00  6 2 -1 25 24 21 21 4 0.44626839D-02 0.22708096D+00 0.15257625D+05 0.15257625D+05 0.15257625D+05 0.12469803D+01  1  2  4  3  6  5       21 -.161496587144D+01 0.100000000000D+01
-.625901750834D-01 0.000000000000D+00 0.000000000000D+00 0.153787351958D-04 0.000000000000D+00  6 2 -1 25 24 21 21 4 0.44626839D-02 0.22708096D+00 0.15257625D+05 0.15257625D+05 0.15257625D+05 0.12469803D+01  1  2  5  3  6  5       21 -.353340432497D+01 0.100000000000D+01
0.644246248529D-01 0.000000000000D+00 -.000000000000D+00 0.153787351958D-04 0.000000000000D+00  6 2 -1 25 24 21 21 4 0.44626839D-02 0.22708096D+00 0.15257625D+05 0.15257625D+05 0.15257625D+05 0.12469803D+01  1  2  6  3  6  5       21 0.363696455213D+01 0.100000000000D+01
0.272390585435D-01 0.000000000000D+00 0.000000000000D+00 0.153787351958D-04 0.197196255441D-04  6 2 -1 25 24 21 21 4 0.44626839D-02 0.22708096D+00 0.15403344D+05 0.15403344D+05 0.15403344D+05 0.12465110D+01  1  2 11  3  6  5       21 0.153536000528D+01 0.100000000000D+01
0.744781425769D-07 0.000000000000D+00 0.000000000000D+00 0.153671606448D-04 0.000000000000D+00  6 2 -1 25 24 1 -1 4 0.44626839D-02 0.22708096D+00 0.15403344D+05 0.15403344D+05 0.15403344D+05 0.12465110D+01  1  2 12  6  6  5       21 0.419804381997D-05 0.100000000000D+01
-.154325378588D-03 0.000000000000D+00 0.000000000000D+00 0.153787351958D-04 0.000000000000D+00  6 2 -1 25 24 1 -1 4 0.44626839D-02 0.22708096D+00 0.15257625D+05 0.15257625D+05 0.15257625D+05 0.12469803D+01  1  2  5  6  6  5       21 -.871213348469D-02 0.100000000000D+01
0.125301954849D-03 0.000000000000D+00 0.000000000000D+00 0.153787351958D-04 0.177179125979D-06  6 2 -1 25 24 1 -1 4 0.44626839D-02 0.22708096D+00 0.15403344D+05 0.15403344D+05 0.15403344D+05 0.12465110D+01  1  2 11  6  6  5       21 0.706278485184D-02 0.100000000000D+01
0.744781425769D-07 0.000000000000D+00 0.000000000000D+00 0.153671606448D-04 0.000000000000D+00  6 2 -1 25 24 2 -2 4 0.44626839D-02 0.22708096D+00 0.15403344D+05 0.15403344D+05 0.15403344D+05 0.12465110D+01  1  2 12  7  6  5       21 0.419804381997D-05 0.100000000000D+01
-.154325378588D-03 0.000000000000D+00 0.000000000000D+00 0.153787351958D-04 0.000000000000D+00  6 2 -1 25 24 2 -2 4 0.44626839D-02 0.22708096D+00 0.15257625D+05 0.15257625D+05 0.15257625D+05 0.12469803D+01  1  2  5  7  6  5       21 -.871213348469D-02 0.100000000000D+01
0.141510485169D-03 0.000000000000D+00 0.000000000000D+00 0.153787351958D-04 0.149586803620D-06  6 2 -1 25 24 2 -2 4 0.44626839D-02 0.22708096D+00 0.15403344D+05 0.15403344D+05 0.15403344D+05 0.12465110D+01  1  2 11  7  6  5       21 0.797639679470D-02 0.100000000000D+01
0.744781425769D-07 0.000000000000D+00 0.000000000000D+00 0.153671606448D-04 0.000000000000D+00  6 2 -1 25 24 3 -3 4 0.44626839D-02 0.22708096D+00 0.15403344D+05 0.15403344D+05 0.15403344D+05 0.12465110D+01  1  2 12  8  6  5       21 0.419804381997D-05 0.100000000000D+01
0.744781425769D-07 0.000000000000D+00 0.000000000000D+00 0.153671606448D-04 0.000000000000D+00  6 2 -1 25 24 4 -4 4 0.44626839D-02 0.22708096D+00 0.15403344D+05 0.15403344D+05 0.15403344D+05 0.12465110D+01  1  2 12  8  6  5       21 0.419804381997D-05 0.100000000000D+01
-.154325378588D-03 0.000000000000D+00 0.000000000000D+00 0.153787351958D-04 0.000000000000D+00  6 2 -1 25 24 3 -3 4 0.44626839D-02 0.22708096D+00 0.15257625D+05 0.15257625D+05 0.15257625D+05 0.12469803D+01  1  2  5  8  6  5       21 -.871213348469D-02 0.100000000000D+01
-.154325378588D-03 0.000000000000D+00 0.000000000000D+00 0.153787351958D-04 0.000000000000D+00  6 2 -1 25 24 4 -4 4 0.44626839D-02 0.22708096D+00 0.15257625D+05 0.15257625D+05 0.15257625D+05 0.12469803D+01  1  2  5  8  6  5       21 -.871213348469D-02 0.100000000000D+01
0.141514376693D-03 0.000000000000D+00 0.000000000000D+00 0.153787351958D-04 0.149581764439D-06  6 2 -1 25 24 3 -3 4 0.44626839D-02 0.22708096D+00 0.15403344D+05 0.15403344D+05 0.15403344D+05 0.12465110D+01  1  2 11  8  6  5       21 0.797661614480D-02 0.100000000000D+01
0.141514376693D-03 0.000000000000D+00 0.000000000000D+00 0.153787351958D-04 0.149581764439D-06  6 2 -1 25 24 4 -4 4 0.44626839D-02 0.22708096D+00 0.15403344D+05 0.15403344D+05 0.15403344D+05 0.12465110D+01  1  2 11  8  6  5       21 0.797661614480D-02 0.100000000000D+01
  </mgrwgt>
  </event>
  <event>
  5     66 -.46179844E-03 0.69184094E+02 0.75467711E-02 0.11380030E+00
        2 -1    0    0  502    0 0.00000000E+00 0.00000000E+00 0.53775345E+03 0.53775355E+03 0.32000000E+00 0.0000E+00 0.9000E+01
       -1 -1    0    0    0  501 0.00000000E+00 0.00000000E+00 -.99543764E+02 0.99544279E+02 0.32000000E+00 0.0000E+00 0.9000E+01
       25  1    1    2    0    0 -.30223919E+02 0.10311657E+03 0.58153417E+02 0.17479511E+03 0.12500000E+03 0.0000E+00 0.9000E+01
       24  1    1    2    0    0 0.50418179E+02 -.16928439E+03 0.28969810E+03 0.34869959E+03 0.80419002E+02 0.0000E+00 0.9000E+01
       21  1    1    2  502  501 -.20194260E+02 0.66167824E+02 0.90358165E+02 0.11380312E+03 0.75000000E+00 0.0000E+00 0.9000E+01
#aMCatNLO 1  0  0  1  5 0.10278555D+01 0.00000000D+00  -5  6  0 0.00000000D+00 0.00000000D+00 0.00000000D+00 0.00000000D+00 0.00000000D+00
  <mgrwgt>
 -.1641374118D+00   11    4    0
 0.231365937769638D+03 0.000000000000000D+00 0.000000000000000D+00 0.231365937769638D+03
 0.231365937769638D+03 0.000000000000000D+00 0.000000000000000D+00 -.231365937769638D+03
 0.185664369685064D+03 -.302234689925863D+02 0.103115095001436D+03 -.854404896723509D+02
 0.205902374166465D+03 0.504186782378349D+02 -.169286028507657D+03 0.687660466354661D+02
 0.711651316877473D+02 -.201952092452486D+02 0.661709335062210D+02 0.166744430368848D+02
 0.000000000000000D+00 -.000000000000000D+00 0.000000000000000D+00 0.000000000000000D+00
 0.243566446022912D+03 0.000000000000000D+00 0.000000000000000D+00 0.243566446022912D+03
 0.231388157991155D+03 0.000000000000000D+00 0.000000000000000D+00 -.231388157991155D+03
 0.185558781713942D+03 -.298174913882962D+02 0.103043201634170D+03 -.854404896723509D+02
 0.206078730202746D+03 0.508692296141009D+02 -.169365815311717D+03 0.687660466354661D+02
 0.710955051969356D+02 -.200396299600408D+02 0.661433824330282D+02 0.166744430368848D+02
 0.122215869004430D+02 -.101210826576392D+01 0.179231244519025D+00 0.121782880317572D+02
 0.231365937769638D+03 0.000000000000000D+00 0.000000000000000D+00 0.231365937769638D+03
 0.231365937769638D+03 0.000000000000000D+00 0.000000000000000D+00 -.231365937769638D+03
 0.185664369685064D+03 -.302234689925863D+02 0.103115095001436D+03 -.854404896723509D+02
 0.205902374166465D+03 0.504186782378349D+02 -.169286028507657D+03 0.687660466354661D+02
 0.000000000000000D+00 -.000000000000000D+00 0.000000000000000D+00 0.000000000000000D+00
 0.711651316877473D+02 -.201952092452486D+02 0.661709335062210D+02 0.166744430368848D+02
 0.243566446022912D+03 0.000000000000000D+00 0.000000000000000D+00 0.243566446022912D+03
 0.231388157991155D+03 0.000000000000000D+00 0.000000000000000D+00 -.231388157991155D+03
 0.185558781713942D+03 -.298174913882962D+02 0.103043201634170D+03 -.854404896723509D+02
 0.206078730202746D+03 0.508692296141009D+02 -.169365815311717D+03 0.687660466354661D+02
 0.122215869004430D+02 -.101210826576392D+01 0.179231244519025D+00 0.121782880317572D+02
 0.710955051969356D+02 -.200396299600408D+02 0.661433824330282D+02 0.166744430368848D+02
0.250579150948D-04 0.000000000000D+00 0.000000000000D+00 0.304498642791D-05 0.000000000000D+00  6 2 -1 25 24 21 21 2 0.82731347D-01 0.15314472D-01 0.45817585D+05 0.45817585D+05 0.45817585D+05 0.11960573D+01  1  2  2  1  6  1        2 0.722982255506D-02 0.100000000000D+01
0.668269842761D-06 0.132234250886D-05 -.962289918646D-07 0.304498642791D-05 0.000000000000D+00  6 2 -1 25 24 21 21 4 0.82731347D-01 0.15314472D-01 0.45817585D+05 0.45817585D+05 0.45817585D+05 0.11960573D+01  1  2  3  1  6  1        2 0.275828136705D-03 0.100000000000D+01
-.336269217519D-07 0.000000000000D+00 0.000000000000D+00 0.304498642791D-05 0.000000000000D+00  6 2 -1 25 24 21 21 4 0.82731347D-01 0.15314472D-01 0.45817585D+05 0.45817585D+05 0.45817585D+05 0.11960573D+01  1  2 15  1  6  1        2 -.138794998314D-04 0.100000000000D+01
0.231126689329D-06 0.000000000000D+00 0.000000000000D+00 0.304392972642D-05 0.000000000000D+00  6 2 -1 25 24 21 21 4 0.87128354D-01 0.15314472D-01 0.46037117D+05 0.46037117D+05 0.46037117D+05 0.11958498D+01  1  2 12  1  6  1        2 0.898865134629D-04 0.100000000000D+01
-.407506436487D-01 0.000000000000D+00 0.000000000000D+00 0.304498642791D-05 0.000000000000D+00  6 2 -1 25 24 21 21 4 0.82731347D-01 0.15314472D-01 0.45817585D+05 0.45817585D+05 0.45817585D+05 0.11960573D+01  1  2  4  1  6  1        2 -.168198134764D+02 0.100000000000D+01
-.392819763735D-01 0.000000000000D+00 -.143755104059D-03 0.304498642791D-05 0.000000000000D+00  6 2 -1 25 24 21 21 4 0.87097721D-01 0.15314472D-01 0.45817585D+05 0.45817585D+05 0.45817585D+05 0.11960573D+01  1  2  5  1  6  1        2 -.152931488343D+02 0.100000000000D+01
0.392376514931D-01 0.000000000000D+00 0.143565178209D-03 0.304498642791D-05 0.000000000000D+00  6 2 -1 25 24 21 21 4 0.82731347D-01 0.15314472D-01 0.45817585D+05 0.45817585D+05 0.45817585D+05 0.11960573D+01  1  2  6  1  6  1        2 0.161953265096D+02 0.100000000000D+01
0.404881720438D-01 0.000000000000D+00 0.000000000000D+00 0.304498642791D-05 0.115593195415D-04  6 2 -1 25 24 21 21 4 0.87093979D-01 0.15315943D-01 0.46037117D+05 0.46037117D+05 0.46037117D+05 0.11958498D+01  1  2 11  1  6  1        2 0.157507860219D+02 0.100000000000D+01
0.412930601684D-08 0.000000000000D+00 0.000000000000D+00 0.304392972642D-05 0.000000000000D+00  6 21 -1 25 24 -2 21 4 0.87128354D-01 0.15314472D-01 0.46037117D+05 0.46037117D+05 0.46037117D+05 0.11958498D+01  3  4 12  4  5  1        2 0.266150032571D-05 0.100000000000D+01
-.351110024356D-03 0.000000000000D+00 -.128539280610D-05 0.304498642791D-05 0.000000000000D+00  6 21 -1 25 24 -2 21 4 0.87097721D-01 0.15314472D-01 0.45817585D+05 0.45817585D+05 0.45817585D+05 0.11960573D+01  3  4  5  4  5  1        2 -.226677474028D+00 0.100000000000D+01
0.343869696608D-03 0.000000000000D+00 0.000000000000D+00 0.304498642791D-05 0.196332870767D-06  6 21 -1 25 24 -2 21 4 0.87093979D-01 0.15315943D-01 0.46037117D+05 0.46037117D+05 0.46037117D+05 0.11958498D+01  3  4 11  4  5  1        2 0.221805522254D+00 0.100000000000D+01
  </mgrwgt>
  </event>
  <event>
  6     66 0.46179844E-03 0.34942373E+02 0.75467711E-02 0.12169505E+00
       21 -1    0    0  502  503 0.00000000E+00 0.00000000E+00 0.25647520E+03 0.25647520E+03 0.00000000E+00 0.0000E+00 0.9000E+01
       -1 -1    0    0    0  501 0.00000000E+00 0.00000000E+00 -.18234329E+03 0.18234329E+03 0.00000000E+00 0.0000E+00 0.9000E+01
       25  1    1    2    0    0 0.10848511E+02 0.77714174E+02 -.46090184E+02 0.15461723E+03 0.12500000E+03 0.0000E+00 0.9000E+01
       24  1    1    2    0    0 -.44043370E+01 -.43431017E+02 -.53738913E+02 0.10611663E+03 0.80419002E+02 0.0000E+00 0.9000E+01
       -2  1    1    2    0  503 -.68254309E+01 -.34490501E+02 0.17411096E+03 0.17762547E+03 0.00000000E+00 0.0000E+00 0.9000E+01
       21  1    1    2  502  501 0.38125665E+00 0.20734360E+00 -.14995281E+00 0.45916647E+00 0.00000000E+00 0.0000E+00 0.9000E+01
#aMCatNLO 2  0  0  1  5 0.89145874D+02 0.00000000D+00  -5  6  0 0.00000000D+00 0.00000000D+00 0.00000000D+00 0.00000000D+00 0.00000000D+00
  <mgrwgt>
 0.1042107919D+00    1    2    0
 0.119362686498131D+03 0.000000000000000D+00 0.000000000000000D+00 0.119362686498131D+03
 0.119362686498131D+03 0.000000000000000D+00 0.000000000000000D+00 -.119362686498131D+03
 0.138328164465051D+03 0.677345120564919D+01 0.571219419875732D+02 0.141733971440620D+02
 0.999984854663015D+02 -.714285482538919D+01 -.572693894735253D+02 -.142013307635821D+02
 0.000000000000000D+00 -.000000000000000D+00 -.000000000000000D+00 0.000000000000000D+00
 0.398723064908609D+00 0.369403619739994D+00 0.147447485952143D+00 0.279336195201552D-01
 0.383884979247697D+03 0.000000000000000D+00 0.000000000000000D+00 0.383884979247697D+03
 0.121824335051601D+03 0.000000000000000D+00 0.000000000000000D+00 -.121824335051601D+03
 0.148266882005238D+03 0.108485112052887D+02 0.777141744959084D+02 0.141733971440620D+02
 0.925988401624156D+02 -.440433695017362D+01 -.434310173220330D+02 -.142013307635821D+02
 0.264408703311979D+03 -.682543090053670D+01 -.344905007744335D+02 0.262060644196096D+03
 0.434888819665489D+00 0.381256645421665D+00 0.207343600558021D+00 0.279336195201552D-01
0.681518585210D-04 0.000000000000D+00 0.000000000000D+00 0.142560026531D+00 0.199972342514D-03  6 21 -1 25 24 -2 21 4 0.39457723D-01 0.28052814D-01 0.18862909D+05 0.18862909D+05 0.18862909D+05 0.12366346D+01  1  2  1  4  5  1        2 0.104210791894D+00 0.100000000000D+01
  </mgrwgt>
  </event>
  <event>
  5     66 0.46179844E-03 0.44133624E+02 0.75467711E-02 0.11401389E+00
        2 -1    0    0  502    0 0.00000000E+00 0.00000000E+00 0.15757501E+04 0.15757501E+04 0.32000000E+00 0.0000E+00 0.9000E+01
       -1 -1    0    0    0  501 0.00000000E+00 0.00000000E+00 -.52780711E+02 0.52781681E+02 0.32000000E+00 0.0000E+00 0.9000E+01
       25  1    1    2    0    0 0.56277083E+02 -.14879452E+03 0.10964591E+04 0.11149684E+04 0.12500000E+03 0.0000E+00 0.9000E+01
       24  1    1    2    0    0 -.89684136E+02 0.11995511E+03 0.43638873E+03 0.46833195E+03 0.80419002E+02 0.0000E+00 0.9000E+01
       21  1    1    2  502  501 0.33407052E+02 0.28839411E+02 -.98784310E+01 0.45231501E+02 0.75000000E+00 0.0000E+00 0.9000E+01
#aMCatNLO 1  0  0  5  1 0.80950115D+01 0.00000000D+00  -5  6  0 0.00000000D+00 0.00000000D+00 0.00000000D+00 0.00000000D+00 0.00000000D+00
  <mgrwgt>
 0.1993515130D+00   20    2    0
 0.288392140076728D+03 0.000000000000000D+00 0.000000000000000D+00 0.288392140076728D+03
 0.288392140076728D+03 -.000000000000000D+00 -.000000000000000D+00 -.288392140076728D+03
 0.252933588303757D+03 0.562769091795792D+02 -.148794671861153D+03 0.151800708862441D+03
 0.170058004117834D+03 -.896842527570027D+02 0.119955009518991D+03 -.447652866488860D+01
 0.153792687731865D+03 0.334073435774235D+02 0.288396623421625D+02 -.147324180197553D+03
 0.000000000000000D+00 0.000000000000000D+00 0.000000000000000D+00 -.000000000000000D+00
 0.288392140076728D+03 0.000000000000000D+00 0.000000000000000D+00 0.288392140076728D+03
 0.288392140076728D+03 -.000000000000000D+00 -.000000000000000D+00 -.288392140076728D+03
 0.252244631372092D+03 0.565123586822771D+02 -.148591414629979D+03 0.150762392095874D+03
 0.170090900205119D+03 -.895257188233397D+02 0.120091867605478D+03 -.517565284865587D+01
 0.138661116041754D+03 0.294337655412718D+02 0.339034682990136D+02 -.131191133028509D+03
 0.157876325344909D+02 0.357959459979077D+01 -.540392127451244D+01 -.143956062187091D+02
0.214322149317D-03 0.000000000000D+00 0.000000000000D+00 0.972661752882D-05 0.000000000000D+00  6 2 -1 25 24 21 21 2 0.24242317D+00 0.81201864D-02 0.43357473D+05 0.43357473D+05 0.43357473D+05 0.11984618D+01  1  2  2  3  6  5       21 0.368713282924D-01 0.100000000000D+01
0.230208861593D-04 0.113100905467D-04 -.823053485696D-06 0.972661752882D-05 0.000000000000D+00  6 2 -1 25 24 21 21 4 0.24242317D+00 0.81201864D-02 0.43357473D+05 0.43357473D+05 0.43357473D+05 0.11984618D+01  1  2  3  3  6  5       21 0.568842630970D-02 0.100000000000D+01
0.412240362158D-05 0.000000000000D+00 0.000000000000D+00 0.972661752882D-05 0.000000000000D+00  6 2 -1 25 24 21 21 4 0.24242317D+00 0.81201864D-02 0.43357473D+05 0.43357473D+05 0.43357473D+05 0.11984618D+01  1  2 15  3  6  5       21 0.101863972820D-02 0.100000000000D+01
0.113835659503D-02 0.000000000000D+00 0.000000000000D+00 0.970244294440D-05 0.000000000000D+00  6 2 -1 25 24 21 21 4 0.24242317D+00 0.81201864D-02 0.44864397D+05 0.44864397D+05 0.44864397D+05 0.11969715D+01  1  2 12  3  6  5       21 0.279798559846D+00 0.100000000000D+01
-.817013830415D-03 0.000000000000D+00 0.000000000000D+00 0.972661752882D-05 0.000000000000D+00  6 2 -1 25 24 21 21 4 0.24242317D+00 0.81201864D-02 0.43357473D+05 0.43357473D+05 0.43357473D+05 0.11984618D+01  1  2  4  3  6  5       21 -.201882887399D+00 0.100000000000D+01
-.358920666813D-02 0.000000000000D+00 0.000000000000D+00 0.972661752882D-05 0.000000000000D+00  6 2 -1 25 24 21 21 4 0.24242317D+00 0.81201864D-02 0.43357473D+05 0.43357473D+05 0.43357473D+05 0.11984618D+01  1  2  5  3  6  5       21 -.886887563785D+00 0.100000000000D+01
0.396040103465D-02 0.000000000000D+00 -.000000000000D+00 0.972661752882D-05 0.000000000000D+00  6 2 -1 25 24 21 21 4 0.24242317D+00 0.81201864D-02 0.43357473D+05 0.43357473D+05 0.43357473D+05 0.11984618D+01  1  2  6  3  6  5       21 0.978609132881D+00 0.100000000000D+01
0.437722720708D-05 0.000000000000D+00 0.000000000000D+00 0.972661752882D-05 0.605039354043D-06  6 2 -1 25 24 21 21 4 0.24242317D+00 0.81201864D-02 0.44864397D+05 0.44864397D+05 0.44864397D+05 0.11969715D+01  1  2 11  3  6  5       21 0.107588595174D-02 0.100000000000D+01
0.140741284649D-04 0.000000000000D+00 0.000000000000D+00 0.970244294440D-05 0.000000000000D+00  6 2 -1 25 24 1 -1 4 0.24242317D+00 0.81201864D-02 0.44864397D+05 0.44864397D+05 0.44864397D+05 0.11969715D+01  1  2 12  6  6  5       21 0.345930343159D-02 0.100000000000D+01
-.292153185078D-04 0.000000000000D+00 0.000000000000D+00 0.972661752882D-05 0.000000000000D+00  6 2 -1 25 24 1 -1 4 0.24242317D+00 0.81201864D-02 0.43357473D+05 0.43357473D+05 0.43357473D+05 0.11984618D+01  1  2  5  6  6  5       21 -.721906121668D-02 0.100000000000D+01
0.765728021305D-07 0.000000000000D+00 0.000000000000D+00 0.972661752882D-05 0.200723503194D-07  6 2 -1 25 24 1 -1 4 0.24242317D+00 0.81201864D-02 0.44864397D+05 0.44864397D+05 0.44864397D+05 0.11969715D+01  1  2 11  6  6  5       21 0.188209563269D-04 0.100000000000D+01
0.140741284649D-04 0.000000000000D+00 0.000000000000D+00 0.970244294440D-05 0.000000000000D+00  6 2 -1 25 24 2 -2 4 0.24242317D+00 0.81201864D-02 0.44864397D+05 0.44864397D+05 0.44864397D+05 0.11969715D+01  1  2 12  7  6  5       21 0.345930343159D-02 0.100000000000D+01
-.292153185078D-04 0.000000000000D+00 0.000000000000D+00 0.972661752882D-05 0.000000000000D+00  6 2 -1 25 24 2 -2 4 0.24242317D+00 0.81201864D-02 0.43357473D+05 0.43357473D+05 0.43357473D+05 0.11984618D+01  1  2  5  7  6  5       21 -.721906121668D-02 0.100000000000D+01
0.108779958271D-06 0.000000000000D+00 0.000000000000D+00 0.972661752882D-05 0.148942313844D-07  6 2 -1 25 24 2 -2 4 0.24242317D+00 0.81201864D-02 0.44864397D+05 0.44864397D+05 0.44864397D+05 0.11969715D+01  1  2 11  7  6  5       21 0.267372067745D-04 0.100000000000D+01
0.140741284649D-04 0.000000000000D+00 0.000000000000D+00 0.970244294440D-05 0.000000000000D+00  6 2 -1 25 24 3 -3 4 0.24242317D+00 0.81201864D-02 0.44864397D+05 0.44864397D+05 0.44864397D+05 0.11969715D+01  1  2 12  8  6  5       21 0.345930343159D-02 0.100000000000D+01
0.140741284649D-04 0.000000000000D+00 0.000000000000D+00 0.970244294440D-05 0.000000000000D+00  6 2 -1 25 24 4 -4 4 0.24242317D+00 0.81201864D-02 0.44864397D+05 0.44864397D+05 0.44864397D+05 0.11969715D+01  1  2 12  8  6  5       21 0.345930343159D-02 0.100000000000D+01
-.292153185078D-04 0.000000000000D+00 0.000000000000D+00 0.972661752882D-05 0.000000000000D+00  6 2 -1 25 24 3 -3 4 0.24242317D+00 0.81201864D-02 0.43357473D+05 0.43357473D+05 0.43357473D+05 0.11984618D+01  1  2  5  8  6  5       21 -.721906121668D-02 0.100000000000D+01
-.292153185078D-04 0.000000000000D+00 0.000000000000D+00 0.972661752882D-05 0.000000000000D+00  6 2 -1 25 24 4 -4 4 0.24242317D+00 0.81201864D-02 0.43357473D+05 0.43357473D+05 0.43357473D+05 0.11984618D+01  1  2  5  8  6  5       21 -.721906121668D-02 0.100000000000D+01
0.108759109361D-06 0.000000000000D+00 0.000000000000D+00 0.972661752882D-05 0.148863294292D-07  6 2 -1 25 24 3 -3 4 0.24242317D+00 0.81201864D-02 0.44864397D+05 0.44864397D+05 0.44864397D+05 0.11969715D+01  1  2 11  8  6  5       21 0.267320822861D-04 0.100000000000D+01
0.108759109361D-06 0.000000000000D+00 0.000000000000D+00 0.972661752882D-05 0.148863294292D-07  6 2 -1 25 24 4 -4 4 0.24242317D+00 0.81201864D-02 0.44864397D+05 0.44864397D+05 0.44864397D+05 0.11969715D+01  1  2 11  8  6  5       21 0.267320822861D-04 0.100000000000D+01
  </mgrwgt>
  </event>
  <event>
  5     66 -.46179844E-03 0.21564486E+02 0.75467711E-02 0.12060759E+00
        2 -1    0    0  502    0 0.00000000E+00 0.00000000E+00 0.11025751E+04 0.11025751E+04 0.32000000E+00 0.0000E+00 0.9000E+01
       -1 -1    0    0    0  501 0.00000000E+00 0.00000000E+00 -.24149430E+02 0.24151550E+02 0.32000000E+00 0.0000E+00 0.9000E+01
       25  1    1    2    0    0 0.75694794E+02 0.43764267E+02 0.81271261E+03 0.82690495E+03 0.12500000E+03 0.0000E+00 0.9000E+01
       24  1    1    2    0    0 -.81717507E+02 -.23069200E+02 0.21589300E+03 0.24553399E+03 0.80419002E+02 0.0000E+00 0.9000E+01
       21  1    1    2  502  501 0.60227126E+01 -.20695067E+02 0.49820049E+02 0.54287739E+02 0.75000000E+00 0.0000E+00 0.9000E+01
#aMCatNLO 1  0  0  5  1 0.37000402D+01 0.00000000D+00  -5  6  0 0.00000000D+00 0.00000000D+00 0.00000000D+00 0.00000000D+00 0.00000000D+00
  <mgrwgt>
 -.3846829522D+00   20    2    0
 0.163180208309892D+03 0.000000000000000D+00 0.000000000000000D+00 0.163180208309892D+03
 0.163180208309892D+03 -.000000000000000D+00 -.000000000000000D+00 -.163180208309892D+03
 0.169279967856787D+03 0.756931023327553D+02 0.437700802541023D+02 0.733855697762668D+02
 0.134283737496759D+03 -.817188489299660D+02 -.230645878861655D+02 -.659921261737382D+02
 0.227967112662388D+02 0.602574659721075D+01 -.207054923679368D+02 -.739344360252867D+01
 0.000000000000000D+00 0.000000000000000D+00 0.000000000000000D+00 -.000000000000000D+00
 0.163180208309892D+03 0.000000000000000D+00 0.000000000000000D+00 0.163180208309892D+03
 0.163180208309892D+03 -.000000000000000D+00 -.000000000000000D+00 -.163180208309892D+03
 0.169082753635811D+03 0.758974338979221D+02 0.430679621688433D+02 0.731348599465544D+02
 0.134379956369798D+03 -.815566074370820D+02 -.236220773090076D+02 -.661911925148589D+02
 0.158535224127199D+02 0.759165652214362D+01 -.133045374380368D+02 -.408536506328164D+01
 0.704418420145565D+01 -.193248298298365D+01 -.614134742179891D+01 -.285830236841379D+01
0.146977291546D-03 0.000000000000D+00 0.000000000000D+00 0.339400382241D-04 0.000000000000D+00  6 2 -1 25 24 21 21 2 0.16962710D+00 0.37154636D-02 0.21178956D+05 0.21178956D+05 0.21178956D+05 0.12310969D+01  1  2  2  3  6  5       21 0.154669381876D+00 0.100000000000D+01
0.349257720645D-04 0.775620476456D-05 -.564431499545D-06 0.339400382241D-04 0.000000000000D+00  6 2 -1 25 24 21 21 4 0.16962710D+00 0.37154636D-02 0.21178956D+05 0.21178956D+05 0.21178956D+05 0.12310969D+01  1  2  3  3  6  5       21 0.557037749920D-01 0.100000000000D+01
-.142282566474D-06 0.000000000000D+00 0.000000000000D+00 0.339400382241D-04 0.000000000000D+00  6 2 -1 25 24 21 21 4 0.16962710D+00 0.37154636D-02 0.21178956D+05 0.21178956D+05 0.21178956D+05 0.12310969D+01  1  2 15  3  6  5       21 -.226929158603D-03 0.100000000000D+01
0.501889007889D-05 0.000000000000D+00 0.000000000000D+00 0.339383924245D-04 0.000000000000D+00  6 2 -1 25 24 21 21 4 0.16962710D+00 0.37154636D-02 0.21192274D+05 0.21192274D+05 0.21192274D+05 0.12310671D+01  1  2 12  3  6  5       21 0.800404851609D-02 0.100000000000D+01
0.496629802000D-05 0.000000000000D+00 0.000000000000D+00 0.339383924245D-04 0.000000000000D+00  6 2 -1 25 24 21 21 4 0.16962710D+00 0.37154636D-02 0.21192274D+05 0.21192274D+05 0.21192274D+05 0.12310671D+01  1  2 12  3  6  5       21 0.792017551143D-02 0.100000000000D+01
-.698920513774D-03 0.000000000000D+00 0.000000000000D+00 0.339400382241D-04 0.000000000000D+00  6 2 -1 25 24 21 21 4 0.16962710D+00 0.37154636D-02 0.21178956D+05 0.21178956D+05 0.21178956D+05 0.12310969D+01  1  2  4  3  6  5       21 -.111472155761D+01 0.100000000000D+01
-.372111695694D-03 0.000000000000D+00 0.000000000000D+00 0.339400382241D-04 0.000000000000D+00  6 2 -1 25 24 21 21 4 0.16962710D+00 0.37154636D-02 0.21178956D+05 0.21178956D+05 0.21178956D+05 0.12310969D+01  1  2  5  3  6  5       21 -.593487987339D+00 0.100000000000D+01
0.736635163827D-03 0.000000000000D+00 -.000000000000D+00 0.339400382241D-04 0.000000000000D+00  6 2 -1 25 24 21 21 4 0.16962710D+00 0.37154636D-02 0.21178956D+05 0.21178956D+05 0.21178956D+05 0.12310969D+01  1  2  6  3  6  5       21 0.117487336690D+01 0.100000000000D+01
0.263742151025D-06 0.000000000000D+00 0.000000000000D+00 0.339383924245D-04 0.000000000000D+00  6 2 -1 25 24 1 -1 4 0.16962710D+00 0.37154636D-02 0.21192274D+05 0.21192274D+05 0.21192274D+05 0.12310671D+01  1  2 12  6  6  5       21 0.420611916053D-03 0.100000000000D+01
0.261531287407D-06 0.000000000000D+00 0.000000000000D+00 0.339383924245D-04 0.000000000000D+00  6 2 -1 25 24 1 -1 4 0.16962710D+00 0.37154636D-02 0.21192274D+05 0.21192274D+05 0.21192274D+05 0.12310671D+01  1  2 12  6  6  5       21 0.417086064842D-03 0.100000000000D+01
-.126602074079D-04 0.000000000000D+00 0.000000000000D+00 0.339400382241D-04 0.000000000000D+00  6 2 -1 25 24 1 -1 4 0.16962710D+00 0.37154636D-02 0.21178956D+05 0.21178956D+05 0.21178956D+05 0.12310969D+01  1  2  5  6  6  5       21 -.201920044459D-01 0.100000000000D+01
0.263742151025D-06 0.000000000000D+00 0.000000000000D+00 0.339383924245D-04 0.000000000000D+00  6 2 -1 25 24 2 -2 4 0.16962710D+00 0.37154636D-02 0.21192274D+05 0.21192274D+05 0.21192274D+05 0.12310671D+01  1  2 12  7  6  5       21 0.420611916053D-03 0.100000000000D+01
0.261531287407D-06 0.000000000000D+00 0.000000000000D+00 0.339383924245D-04 0.000000000000D+00  6 2 -1 25 24 2 -2 4 0.16962710D+00 0.37154636D-02 0.21192274D+05 0.21192274D+05 0.21192274D+05 0.12310671D+01  1  2 12  7  6  5       21 0.417086064842D-03 0.100000000000D+01
-.126602074079D-04 0.000000000000D+00 0.000000000000D+00 0.339400382241D-04 0.000000000000D+00  6 2 -1 25 24 2 -2 4 0.16962710D+00 0.37154636D-02 0.21178956D+05 0.21178956D+05 0.21178956D+05 0.12310969D+01  1  2  5  7  6  5       21 -.201920044459D-01 0.100000000000D+01
0.263742151025D-06 0.000000000000D+00 0.000000000000D+00 0.339383924245D-04 0.000000000000D+00  6 2 -1 25 24 3 -3 4 0.16962710D+00 0.37154636D-02 0.21192274D+05 0.21192274D+05 0.21192274D+05 0.12310671D+01  1  2 12  8  6  5       21 0.420611916053D-03 0.100000000000D+01
0.263742151025D-06 0.000000000000D+00 0.000000000000D+00 0.339383924245D-04 0.000000000000D+00  6 2 -1 25 24 4 -4 4 0.16962710D+00 0.37154636D-02 0.21192274D+05 0.21192274D+05 0.21192274D+05 0.12310671D+01  1  2 12  8  6  5       21 0.420611916053D-03 0.100000000000D+01
0.261531287407D-06 0.000000000000D+00 0.000000000000D+00 0.339383924245D-04 0.000000000000D+00  6 2 -1 25 24 3 -3 4 0.16962710D+00 0.37154636D-02 0.21192274D+05 0.21192274D+05 0.21192274D+05 0.12310671D+01  1  2 12  8  6  5       21 0.417086064842D-03 0.100000000000D+01
0.261531287407D-06 0.000000000000D+00 0.000000000000D+00 0.339383924245D-04 0.000000000000D+00  6 2 -1 25 24 4 -4 4 0.16962710D+00 0.37154636D-02 0.21192274D+05 0.21192274D+05 0.21192274D+05 0.12310671D+01  1  2 12  8  6  5       21 0.417086064842D-03 0.100000000000D+01
-.126602074079D-04 0.000000000000D+00 0.000000000000D+00 0.339400382241D-04 0.000000000000D+00  6 2 -1 25 24 3 -3 4 0.16962710D+00 0.37154636D-02 0.21178956D+05 0.21178956D+05 0.21178956D+05 0.12310969D+01  1  2  5  8  6  5       21 -.201920044459D-01 0.100000000000D+01
-.126602074079D-04 0.000000000000D+00 0.000000000000D+00 0.339400382241D-04 0.000000000000D+00  6 2 -1 25 24 4 -4 4 0.16962710D+00 0.37154636D-02 0.21178956D+05 0.21178956D+05 0.21178956D+05 0.12310969D+01  1  2  5  8  6  5       21 -.201920044459D-01 0.100000000000D+01
  </mgrwgt>
  </event>
  <event>
  5     66 0.46179844E-03 0.39429737E+02 0.75467711E-02 0.12018279E+00
        2 -1    0    0  502    0 0.00000000E+00 0.00000000E+00 0.37347380E+02 0.37348751E+02 0.32000000E+00 0.0000E+00 0.9000E+01
       -1 -1    0    0    0  501 0.00000000E+00 0.00000000E+00 -.87118457E+03 0.87118463E+03 0.32000000E+00 0.0000E+00 0.9000E+01
       25  1    1    2    0    0 0.19030180E+02 0.43420472E+02 -.37204769E+03 0.39533779E+03 0.12500000E+03 0.0000E+00 0.9000E+01
       24  1    1    2    0    0 0.18852103E+02 -.54355633E+02 -.46329647E+03 0.47373069E+03 0.80419002E+02 0.0000E+00 0.9000E+01
       21  1    1    2  502  501 -.37882283E+02 0.10935161E+02 0.15069615E+01 0.39464902E+02 0.75000000E+00 0.0000E+00 0.9000E+01
#aMCatNLO 1  0  0  2  5 0.26283323D+02 0.00000000D+00  -5  6  0 0.00000000D+00 0.00000000D+00 0.00000000D+00 0.00000000D+00 0.00000000D+00
  <mgrwgt>
 0.3348531384D-01    9    4    0
 0.180380461515011D+03 0.000000000000000D+00 0.000000000000000D+00 0.180380461515011D+03
 0.180380461515011D+03 0.000000000000000D+00 0.000000000000000D+00 -.180380461515011D+03
 0.135686658016586D+03 0.190305584992614D+02 0.434203628383625D+02 -.232029976059388D+02
 0.122204308667871D+03 0.188524439068953D+02 -.543557311462778D+02 -.718102844508541D+02
 0.102869956345564D+03 -.378830024061567D+02 0.109353683079153D+02 0.950132820567929D+02
 0.000000000000000D+00 -.000000000000000D+00 0.000000000000000D+00 -.000000000000000D+00
 0.185850608679072D+03 0.000000000000000D+00 0.000000000000000D+00 0.185850608679072D+03
 0.215454129659739D+03 0.000000000000000D+00 0.000000000000000D+00 -.215454129659739D+03
 0.133527717080346D+03 0.223020379346953D+02 0.341890513870611D+02 -.232029976059388D+02
 0.126719633839780D+03 0.218773550343480D+02 -.628912873926580D+02 -.718102844508541D+02
 0.101469743856730D+03 -.353998767305167D+02 0.392859753739555D+01 0.950132820567929D+02
 0.395876435619559D+02 -.877951623852661D+01 0.247736384682014D+02 -.296035209806665D+02
 0.180380461515011D+03 0.000000000000000D+00 0.000000000000000D+00 0.180380461515011D+03
 0.180380461515011D+03 0.000000000000000D+00 0.000000000000000D+00 -.180380461515011D+03
 0.135686658016586D+03 0.190305584992614D+02 0.434203628383625D+02 -.232029976059388D+02
 0.122204308667871D+03 0.188524439068953D+02 -.543557311462778D+02 -.718102844508541D+02
 0.000000000000000D+00 -.000000000000000D+00 0.000000000000000D+00 -.000000000000000D+00
 0.102869956345564D+03 -.378830024061567D+02 0.109353683079153D+02 0.950132820567929D+02
 0.185850608679072D+03 0.000000000000000D+00 0.000000000000000D+00 0.185850608679072D+03
 0.215454129659739D+03 0.000000000000000D+00 0.000000000000000D+00 -.215454129659739D+03
 0.133527717080346D+03 0.223020379346953D+02 0.341890513870611D+02 -.232029976059388D+02
 0.126719633839780D+03 0.218773550343480D+02 -.628912873926580D+02 -.718102844508541D+02
 0.395876435619559D+02 -.877951623852661D+01 0.247736384682014D+02 -.296035209806665D+02
 0.101469743856730D+03 -.353998767305167D+02 0.392859753739555D+01 0.950132820567929D+02
0.159224345782D-03 0.000000000000D+00 0.000000000000D+00 0.188693129649D-04 0.000000000000D+00  6 2 -1 25 24 21 21 2 0.57458608D-02 0.13402851D+00 0.18495643D+05 0.18495643D+05 0.18495643D+05 0.12375824D+01  1  2  2  2  6  2       -1 0.181435958414D-01 0.100000000000D+01
0.696942247292D-05 0.840249957254D-05 -.611463412535D-06 0.188693129649D-04 0.000000000000D+00  6 2 -1 25 24 21 21 4 0.57458608D-02 0.13402851D+00 0.18495643D+05 0.18495643D+05 0.18495643D+05 0.12375824D+01  1  2  3  2  6  2       -1 0.121635107394D-02 0.100000000000D+01
0.661451915716D-05 0.000000000000D+00 0.000000000000D+00 0.188693129649D-04 0.000000000000D+00  6 2 -1 25 24 21 21 4 0.57458608D-02 0.13402851D+00 0.18495643D+05 0.18495643D+05 0.18495643D+05 0.12375824D+01  1  2 15  2  6  2       -1 0.115441093027D-02 0.100000000000D+01
0.574021111981D-03 0.000000000000D+00 0.000000000000D+00 0.186062974667D-04 0.000000000000D+00  6 2 -1 25 24 21 21 4 0.57458608D-02 0.16360752D+00 0.22172010D+05 0.22172010D+05 0.22172010D+05 0.12289269D+01  1  2 12  2  6  2       -1 0.583047967476D-01 0.100000000000D+01
-.596540099443D-03 0.000000000000D+00 0.000000000000D+00 0.188693129649D-04 0.000000000000D+00  6 2 -1 25 24 21 21 4 0.57458608D-02 0.13402851D+00 0.18495643D+05 0.18495643D+05 0.18495643D+05 0.12375824D+01  1  2  4  2  6  2       -1 -.104112240781D+00 0.100000000000D+01
-.927030099110D-03 0.000000000000D+00 -.168547031388D-03 0.188693129649D-04 0.000000000000D+00  6 2 -1 25 24 21 21 4 0.57458608D-02 0.16255358D+00 0.18495643D+05 0.18495643D+05 0.18495643D+05 0.12375824D+01  1  2  5  2  6  2       -1 -.984944379495D-01 0.100000000000D+01
0.944995278899D-03 0.000000000000D+00 0.165457334412D-03 0.188693129649D-04 0.000000000000D+00  6 2 -1 25 24 21 21 4 0.57458608D-02 0.13402851D+00 0.18495643D+05 0.18495643D+05 0.18495643D+05 0.12375824D+01  1  2  6  2  6  2       -1 0.164927011789D+00 0.100000000000D+01
0.163899661304D-04 0.000000000000D+00 0.000000000000D+00 0.186062974667D-04 0.000000000000D+00  6 2 21 25 24 1 21 4 0.57458608D-02 0.16360752D+00 0.22172010D+05 0.22172010D+05 0.22172010D+05 0.12289269D+01  3  4 12  5  5  2       -1 0.141675596750D-01 0.100000000000D+01
-.239819384638D-04 0.000000000000D+00 -.469199392823D-05 0.188693129649D-04 0.000000000000D+00  6 2 21 25 24 1 21 4 0.57458608D-02 0.16255358D+00 0.18495643D+05 0.18495643D+05 0.18495643D+05 0.12375824D+01  3  4  5  5  5  2       -1 -.218217334851D-01 0.100000000000D+01
  </mgrwgt>
  </event>
  <event>
  6     66 -.46179844E-03 0.14074766E+02 0.75467711E-02 0.12155508E+00
        2 -1    0    0  502    0 0.00000000E+00 0.00000000E+00 0.79432354E+03 0.79432361E+03 0.32000000E+00 0.0000E+00 0.9000E+01
       -1 -1    0    0    0  501 0.00000000E+00 0.00000000E+00 -.78781774E+02 0.78782424E+02 0.32000000E+00 0.0000E+00 0.9000E+01
       25  1    1    2    0    0 -.54831892E+01 0.57662400E+02 0.25860661E+02 0.14017415E+03 0.12500000E+03 0.0000E+00 0.9000E+01
       24  1    1    2    0    0 -.17964040E+02 -.72798058E+02 0.13372720E+03 0.17312552E+03 0.80419002E+02 0.0000E+00 0.9000E+01
       21  1    1    2  502  503 0.12811265E+02 0.14659579E+02 0.54144111E+03 0.54179154E+03 0.75000000E+00 0.0000E+00 0.9000E+01
       21  1    1    2  503  501 0.10635964E+02 0.47607837E+00 0.14512799E+02 0.18014833E+02 0.75000000E+00 0.0000E+00 0.9000E+01
#aMCatNLO 2  0  0  5  2 0.10661471D+02 0.00000000D+00  -5  6  0 0.00000000D+00 0.00000000D+00 0.00000000D+00 0.00000000D+00 0.00000000D+00
  <mgrwgt>
 -.6369789468D+00    2    2    0
 0.250157010277877D+03 0.000000000000000D+00 0.000000000000000D+00 0.250157010277877D+03
 0.250157010277877D+03 -.000000000000000D+00 -.000000000000000D+00 -.250157010277877D+03
 0.210669366123729D+03 -.605647812879705D+01 0.572923309863188D+02 -.159491346805410D+03
 0.111352042894432D+03 -.182685961425998D+02 -.729946551285280D+02 -.164347260408819D+02
 0.178292611537592D+03 0.243250742713968D+02 0.157023241422092D+02 0.175926072846291D+03
 0.000000000000000D+00 0.000000000000000D+00 0.000000000000000D+00 0.000000000000000D+00
 0.250157010277877D+03 0.000000000000000D+00 0.000000000000000D+00 0.250157010277877D+03
 0.250157010277877D+03 -.000000000000000D+00 -.000000000000000D+00 -.250157010277877D+03
 0.207620724202667D+03 -.548054684727629D+01 0.576641061992196D+02 -.155326042829075D+03
 0.110867301404226D+03 -.179626288851857D+02 -.727971471168683D+02 -.142218810803346D+02
 0.171113140896425D+03 0.127507934552263D+02 0.146559705395374D+02 0.170006843336514D+03
 0.107128540524358D+02 0.106923822772358D+02 0.477070378111274D+00 -.458919427104405D+00
-.685719063110D-03 0.000000000000D+00 0.000000000000D+00 0.411434273592D-04 0.000000000000D+00  6 2 -1 25 24 21 21 4 0.12220368D+00 0.12120328D-01 0.19300048D+05 0.19300048D+05 0.19300048D+05 0.12355330D+01  1  2 13  3  6  5       21 -.291388647867D+00 0.100000000000D+01
-.812292401544D-03 0.000000000000D+00 0.000000000000D+00 0.411694214123D-04 0.000000000000D+00  6 2 -1 25 24 21 21 4 0.12220368D+00 0.12120328D-01 0.19143907D+05 0.19143907D+05 0.19143907D+05 0.12359232D+01  1  2  8  3  6  5       21 -.345590298978D+00 0.100000000000D+01
  </mgrwgt>
  </event>
  <event>
  6     66 0.46179844E-03 0.20869895E+02 0.75467711E-02 0.11590664E+00
        2 -1    0    0  502    0 0.00000000E+00 0.00000000E+00 0.71558426E+03 0.71558433E+03 0.32000000E+00 0.0000E+00 0.9000E+01
       -1 -1    0    0    0  501 0.00000000E+00 0.00000000E+00 -.67040237E+02 0.67041001E+02 0.32000000E+00 0.0000E+00 0.9000E+01
       25  1    1    2    0    0 -.33740528E+02 -.10468170E+03 0.17890064E+03 0.24439132E+03 0.12500000E+03 0.0000E+00 0.9000E+01
       24  1    1    2    0    0 0.33805004E+02 0.10917419E+03 0.35970700E+03 0.38589912E+03 0.80419002E+02 0.0000E+00 0.9000E+01
       21  1    1    2  503  501 -.19553270E+02 -.31799436E+02 -.55989619E-01 0.37337650E+02 0.75000000E+00 0.0000E+00 0.9000E+01
       21  1    1    2  502  503 0.19488794E+02 0.27306940E+02 0.10999237E+03 0.11499725E+03 0.75000000E+00 0.0000E+00 0.9000E+01
#aMCatNLO 2  0  0  5  2 0.35987817D+00 0.00000000D+00  -5  6  0 0.00000000D+00 0.00000000D+00 0.00000000D+00 0.00000000D+00 0.00000000D+00
  <mgrwgt>
 0.1105165023D-01    1    2    0
 0.219028002286582D+03 0.000000000000000D+00 0.000000000000000D+00 0.219028002286582D+03
 0.219028002286582D+03 -.000000000000000D+00 -.000000000000000D+00 -.219028002286582D+03
 0.163549001577686D+03 -.336668674346857D+02 -.995492574983847D+02 -.893102937591813D+01
 0.177778042546493D+03 0.338785234113405D+02 0.114296841689353D+03 0.104528915083811D+03
 0.967289604489855D+02 -.211655976654725D+00 -.147475841909682D+02 -.955978857078924D+02
 0.000000000000000D+00 0.000000000000000D+00 0.000000000000000D+00 0.000000000000000D+00
 0.219028002286582D+03 0.000000000000000D+00 0.000000000000000D+00 0.219028002286582D+03
 0.219028002286582D+03 -.000000000000000D+00 -.000000000000000D+00 -.219028002286582D+03
 0.171881492389108D+03 -.337412956223209D+02 -.104735201125773D+03 -.425477383744170D+02
 0.156716755245384D+03 0.338043028439775D+02 0.109125364449794D+03 0.710059811790761D+02
 0.663942309932104D+02 -.201031222404139D+02 -.323102187595884D+02 -.544068759356232D+02
 0.430635259454630D+02 0.200401150187574D+02 0.279200554355676D+02 0.259486331309642D+02
0.194813989569D-04 0.000000000000D+00 0.000000000000D+00 0.888608654946D-04 0.337614669500D-07  6 2 -1 25 24 21 21 4 0.11008995D+00 0.10313947D-01 0.35846104D+05 0.35846104D+05 0.35846104D+05 0.12068661D+01  1  2  1  3  6  5       21 0.110516502287D-01 0.100000000000D+01
  </mgrwgt>
  </event>
  <event>
  5     66 0.46179844E-03 0.70927056E+02 0.75467711E-02 0.10449343E+00
        2 -1    0    0  502    0 0.00000000E+00 0.00000000E+00 0.96849263E+03 0.96849268E+03 0.32000000E+00 0.0000E+00 0.9000E+01
       -1 -1    0    0    0  501 0.00000000E+00 0.00000000E+00 -.62265294E+02 0.62266117E+02 0.32000000E+00 0.0000E+00 0.9000E+01
       25  1    1    2    0    0 0.89940908E+02 0.85023074E+02 0.17839266E+03 0.25053389E+03 0.12500000E+03 0.0000E+00 0.9000E+01
       24  1    1    2    0    0 -.10522245E+03 -.15428217E+03 0.45578794E+03 0.49908377E+03 0.80419002E+02 0.0000E+00 0.9000E+01
       21  1    1    2  502  501 0.15281541E+02 0.69259096E+02 0.27204673E+03 0.28114113E+03 0.75000000E+00 0.0000E+00 0.9000E+01
#aMCatNLO 1  0  0  1  5 0.27515025D+03 0.00000000D+00  -5  6  0 0.00000000D+00 0.00000000D+00 0.00000000D+00 0.00000000D+00 0.00000000D+00
  <mgrwgt>
 0.3464516494D+00    3    2    0
 0.245568584760773D+03 0.000000000000000D+00 0.000000000000000D+00 0.245568584760773D+03
 0.245568584760773D+03 0.000000000000000D+00 0.000000000000000D+00 -.245568584760773D+03
 0.196636740158492D+03 0.899406864426548D+02 0.850220681525844D+02 -.878801936128938D+02
 0.206434956372838D+03 -.105222682712310D+03 -.154283225241614D+03 0.356798081574823D+02
 0.880654729902164D+02 0.152819962696557D+02 0.692611570890295D+02 0.522003854554115D+02
 0.000000000000000D+00 -.000000000000000D+00 0.000000000000000D+00 -.000000000000000D+00
 0.414437118906666D+03 0.000000000000000D+00 0.000000000000000D+00 0.414437118906666D+03
 0.423832999839633D+03 0.000000000000000D+00 0.000000000000000D+00 -.423832999839633D+03
 0.207328435396013D+03 0.139913629440081D+03 -.783121901256953D+01 -.878801936128938D+02
 0.284797849722941D+03 -.444542043805003D+02 -.267195385916715D+03 0.356798081574823D+02
 0.708331998866847D+02 0.349387261131236D+02 0.327375530864117D+02 0.522003854554115D+02
 0.275310633740660D+03 -.130398151172704D+03 0.242289051842873D+03 -.939588093296631D+01
0.115351236660D-02 0.000000000000D+00 0.000000000000D+00 0.318029132929D-05 0.000000000000D+00  6 2 -1 25 24 21 21 2 0.14899893D+00 0.95793434D-02 0.50661382D+05 0.50661382D+05 0.50661382D+05 0.11917170D+01  1  2  2  1  6  1        2 0.333130053197D+00 0.100000000000D+01
0.241156847654D-04 0.608725199633D-04 -.442979121451D-05 0.318029132929D-05 0.000000000000D+00  6 2 -1 25 24 21 21 4 0.14899893D+00 0.95793434D-02 0.50661382D+05 0.50661382D+05 0.50661382D+05 0.11917170D+01  1  2  3  1  6  1        2 0.989093631705D-02 0.100000000000D+01
0.836449755723D-05 0.000000000000D+00 0.000000000000D+00 0.318029132929D-05 0.000000000000D+00  6 2 -1 25 24 21 21 4 0.14899893D+00 0.95793434D-02 0.50661382D+05 0.50661382D+05 0.50661382D+05 0.11917170D+01  1  2 15  1  6  1        2 0.343065989904D-02 0.100000000000D+01
  </mgrwgt>
  </event>
  <event>
  5     66 0.46179844E-03 0.34788798E+02 0.75467711E-02 0.11487520E+00
        2 -1    0    0  502    0 0.00000000E+00 0.00000000E+00 0.40954803E+03 0.40954815E+03 0.32000000E+00 0.0000E+00 0.9000E+01
       -1 -1    0    0    0  501 0.00000000E+00 0.00000000E+00 -.11969931E+03 0.11969974E+03 0.32000000E+00 0.0000E+00 0.9000E+01
       25  1    1    2    0    0 0.39010705E+02 -.36107896E+01 0.23877036E+03 0.27234382E+03 0.12500000E+03 0.0000E+00 0.9000E+01
       24  1    1    2    0    0 -.10597671E+02 0.23682342E+02 -.82963196E+02 0.11841990E+03 0.80419002E+02 0.0000E+00 0.9000E+01
       21  1    1    2  502  501 -.28413034E+02 -.20071552E+02 0.13404155E+03 0.13848418E+03 0.75000000E+00 0.0000E+00 0.9000E+01
#aMCatNLO 1  0  0  1  5 0.11203169D+02 0.00000000D+00  -5  6  0 0.00000000D+00 0.00000000D+00 0.00000000D+00 0.00000000D+00 0.00000000D+00
  <mgrwgt>
 0.2009386831D+00    7    4    0
 0.221410850022750D+03 0.000000000000000D+00 0.000000000000000D+00 0.221410850022750D+03
 0.221410850022750D+03 0.000000000000000D+00 0.000000000000000D+00 -.221410850022750D+03
 0.169209898191955D+03 0.390112101019570D+02 -.361043293424359D+01 0.107107795731870D+03
 0.195836915388871D+03 -.105970869024584D+02 0.236827546729042D+02 -.176668362631632D+03
 0.777748864646738D+02 -.284141231994987D+02 -.200723217386606D+02 0.695605668997623D+02
 0.000000000000000D+00 0.000000000000000D+00 -.000000000000000D+00 0.000000000000000D+00
 0.321196957495893D+03 0.000000000000000D+00 0.000000000000000D+00 0.321196957495893D+03
 0.266856039206203D+03 0.000000000000000D+00 0.000000000000000D+00 -.266856039206203D+03
 0.164924311232528D+03 -.259272288572737D+01 0.980950136457979D+01 0.107107795731870D+03
 0.207278127551321D+03 -.607900056751221D+02 0.398731872551969D+02 -.176668362631632D+03
 0.860423559739609D+02 -.488114407575638D+02 -.134928798002627D+02 0.695605668997623D+02
 0.129808201944286D+03 0.112194169318413D+03 -.361898088195140D+02 0.543409182896900D+02
 0.221410850022750D+03 0.000000000000000D+00 0.000000000000000D+00 0.221410850022750D+03
 0.221410850022750D+03 0.000000000000000D+00 0.000000000000000D+00 -.221410850022750D+03
 0.169209898191955D+03 0.390112101019570D+02 -.361043293424359D+01 0.107107795731870D+03
 0.195836915388871D+03 -.105970869024584D+02 0.236827546729042D+02 -.176668362631632D+03
 0.000000000000000D+00 0.000000000000000D+00 -.000000000000000D+00 0.000000000000000D+00
 0.777748864646738D+02 -.284141231994987D+02 -.200723217386606D+02 0.695605668997623D+02
 0.321196957495893D+03 0.000000000000000D+00 0.000000000000000D+00 0.321196957495893D+03
 0.266856039206203D+03 0.000000000000000D+00 0.000000000000000D+00 -.266856039206203D+03
 0.164924311232528D+03 -.259272288572737D+01 0.980950136457979D+01 0.107107795731870D+03
 0.207278127551321D+03 -.607900056751221D+02 0.398731872551969D+02 -.176668362631632D+03
 0.129808201944286D+03 0.112194169318413D+03 -.361898088195140D+02 0.543409182896900D+02
 0.860423559739609D+02 -.488114407575638D+02 -.134928798002627D+02 0.695605668997623D+02
0.381892438932D-03 0.000000000000D+00 0.000000000000D+00 0.688293918799D-05 0.000000000000D+00  6 2 -1 25 24 21 21 2 0.63007431D-01 0.18415322D-01 0.15660701D+05 0.15660701D+05 0.15660701D+05 0.12456941D+01  1  2  2  1  6  1        2 0.118677281729D+00 0.100000000000D+01
-.450075846289D-06 0.201530176753D-04 -.146656752009D-05 0.688293918799D-05 0.000000000000D+00  6 2 -1 25 24 21 21 4 0.63007431D-01 0.18415322D-01 0.15660701D+05 0.15660701D+05 0.15660701D+05 0.12456941D+01  1  2  3  1  6  1        2 -.217037627161D-03 0.100000000000D+01
0.156569578082D-04 0.000000000000D+00 0.000000000000D+00 0.688293918799D-05 0.000000000000D+00  6 2 -1 25 24 21 21 4 0.63007431D-01 0.18415322D-01 0.15660701D+05 0.15660701D+05 0.15660701D+05 0.12456941D+01  1  2 15  1  6  1        2 0.755016959755D-02 0.100000000000D+01
-.106104913575D-03 0.000000000000D+00 0.000000000000D+00 0.688293918799D-05 0.000000000000D+00  6 2 -1 25 24 21 21 4 0.63007431D-01 0.18415322D-01 0.15660701D+05 0.15660701D+05 0.15660701D+05 0.12456941D+01  1  2  4  1  6  1        2 -.511663953137D-01 0.100000000000D+01
-.268470759882D-03 0.000000000000D+00 -.315157542659D-03 0.688293918799D-05 0.000000000000D+00  6 2 -1 25 24 21 21 4 0.10577135D+00 0.18415322D-01 0.15660701D+05 0.15660701D+05 0.15660701D+05 0.12456941D+01  1  2  5  1  6  1        2 -.728085435807D-01 0.100000000000D+01
0.413078758926D-03 0.000000000000D+00 0.277133814686D-03 0.688293918799D-05 0.000000000000D+00  6 2 -1 25 24 21 21 4 0.63007431D-01 0.18415322D-01 0.15660701D+05 0.15660701D+05 0.15660701D+05 0.12456941D+01  1  2  6  1  6  1        2 0.199196722968D+00 0.100000000000D+01
-.789376193951D-06 0.000000000000D+00 -.182797497540D-04 0.688293918799D-05 0.000000000000D+00  6 21 -1 25 24 -2 21 4 0.10577135D+00 0.18415322D-01 0.15660701D+05 0.15660701D+05 0.15660701D+05 0.12456941D+01  3  4  5  4  5  1        2 -.293514660459D-03 0.100000000000D+01
  </mgrwgt>
  </event>
  <event>
  5     66 0.46179844E-03 0.30723781E+02 0.75467711E-02 0.12267363E+00
        2 -1    0    0  502    0 0.00000000E+00 0.00000000E+00 0.23062133E+03 0.23062155E+03 0.32000000E+00 0.0000E+00 0.9000E+01
       -1 -1    0    0    0  501 0.00000000E+00 0.00000000E+00 -.10070017E+03 0.10070068E+03 0.32000000E+00 0.0000E+00 0.9000E+01
       25  1    1    2    0    0 -.14323669E+02 0.58081279E+02 0.92674046E+02 0.16670957E+03 0.12500000E+03 0.0000E+00 0.9000E+01
       24  1    1    2    0    0 -.11983740E+02 -.42213765E+02 0.73236434E+02 0.11728769E+03 0.80419002E+02 0.0000E+00 0.9000E+01
       21  1    1    2  502  501 0.26307409E+02 -.15867514E+02 -.35989323E+02 0.47324957E+02 0.75000000E+00 0.0000E+00 0.9000E+01
#aMCatNLO 1  0  0  5  1 0.10149881D+01 0.00000000D+00  -5  6  0 0.00000000D+00 0.00000000D+00 0.00000000D+00 0.00000000D+00 0.00000000D+00
  <mgrwgt>
 0.1405150551D+00   25    2    0
 0.152393330183629D+03 0.000000000000000D+00 0.000000000000000D+00 0.152393330183629D+03
 0.152393330183629D+03 -.000000000000000D+00 -.000000000000000D+00 -.152393330183629D+03
 0.141720307927278D+03 -.143244400651001D+02 0.580817437776125D+02 0.296810905388537D+02
 0.962809383625261D+02 -.119842640970941D+02 -.422134487874280D+02 0.296176517151565D+02
 0.667854140774534D+02 0.263087041621941D+02 -.158682949901846D+02 -.592987422540102D+02
 0.000000000000000D+00 0.000000000000000D+00 -.000000000000000D+00 0.000000000000000D+00
 0.152393330183629D+03 0.000000000000000D+00 0.000000000000000D+00 0.152393330183629D+03
 0.152393330183629D+03 -.000000000000000D+00 -.000000000000000D+00 -.152393330183629D+03
 0.141714478009457D+03 -.143173319802094D+02 0.580774564821545D+02 0.296650692064743D+02
 0.962782667971316D+02 -.119794350244302D+02 -.422163614793297D+02 0.296067671830467D+02
 0.485029389784540D+02 0.193588224182927D+02 -.105506759710642D+02 -.432024804921923D+02
 0.182909765822145D+02 0.693794458634690D+01 -.531041903176053D+01 -.160693558973287D+02
0.955114279267D-05 0.000000000000D+00 0.000000000000D+00 0.291216062394D-04 0.000000000000D+00  6 2 -1 25 24 21 21 2 0.35480260D-01 0.15492390D-01 0.17018953D+05 0.17018953D+05 0.17018953D+05 0.12416186D+01  1  2  2  3  6  5       21 0.713832799975D-02 0.100000000000D+01
0.688127177631D-06 0.504027652547D-06 -.366789031975D-07 0.291216062394D-04 0.000000000000D+00  6 2 -1 25 24 21 21 4 0.35480260D-01 0.15492390D-01 0.17018953D+05 0.17018953D+05 0.17018953D+05 0.12416186D+01  1  2  3  3  6  5       21 0.792841336434D-03 0.100000000000D+01
0.294209731064D-06 0.000000000000D+00 0.000000000000D+00 0.291216062394D-04 0.000000000000D+00  6 2 -1 25 24 21 21 4 0.35480260D-01 0.15492390D-01 0.17018953D+05 0.17018953D+05 0.17018953D+05 0.12416186D+01  1  2 15  3  6  5       21 0.338980415178D-03 0.100000000000D+01
0.158237635003D-07 0.000000000000D+00 0.000000000000D+00 0.291205780032D-04 0.000000000000D+00  6 2 -1 25 24 21 21 4 0.35480260D-01 0.15492390D-01 0.17026607D+05 0.17026607D+05 0.17026607D+05 0.12415967D+01  1  2 12  3  6  5       21 0.182306595045D-04 0.100000000000D+01
0.157622079046D-07 0.000000000000D+00 0.000000000000D+00 0.291205780032D-04 0.000000000000D+00  6 2 -1 25 24 21 21 4 0.35480260D-01 0.15492390D-01 0.17026607D+05 0.17026607D+05 0.17026607D+05 0.12415967D+01  1  2 12  3  6  5       21 0.181597409076D-04 0.100000000000D+01
-.384233103919D-02 0.000000000000D+00 0.000000000000D+00 0.291216062394D-04 0.000000000000D+00  6 2 -1 25 24 21 21 4 0.35480260D-01 0.15492390D-01 0.17018953D+05 0.17018953D+05 0.17018953D+05 0.12416186D+01  1  2  4  3  6  5       21 -.442702886205D+01 0.100000000000D+01
-.291617643033D-02 0.000000000000D+00 0.000000000000D+00 0.291216062394D-04 0.000000000000D+00  6 2 -1 25 24 21 21 4 0.35480260D-01 0.15492390D-01 0.17018953D+05 0.17018953D+05 0.17018953D+05 0.12416186D+01  1  2  5  3  6  5       21 -.335993882157D+01 0.100000000000D+01
0.405655914896D-02 0.000000000000D+00 -.000000000000D+00 0.291216062394D-04 0.000000000000D+00  6 2 -1 25 24 21 21 4 0.35480260D-01 0.15492390D-01 0.17018953D+05 0.17018953D+05 0.17018953D+05 0.12416186D+01  1  2  6  3  6  5       21 0.467385663804D+01 0.100000000000D+01
0.282146575745D-02 0.000000000000D+00 0.000000000000D+00 0.291216062394D-04 0.155430380447D-03  6 2 -1 25 24 21 21 4 0.35480260D-01 0.15492390D-01 0.17026607D+05 0.17026607D+05 0.17026607D+05 0.12415967D+01  1  2 11  3  6  5       21 0.325062881070D+01 0.100000000000D+01
0.410614469596D-09 0.000000000000D+00 0.000000000000D+00 0.291205780032D-04 0.000000000000D+00  6 2 -1 25 24 1 -1 4 0.35480260D-01 0.15492390D-01 0.17026607D+05 0.17026607D+05 0.17026607D+05 0.12415967D+01  1  2 12  6  6  5       21 0.473071566237D-06 0.100000000000D+01
0.409657274457D-09 0.000000000000D+00 0.000000000000D+00 0.291205780032D-04 0.000000000000D+00  6 2 -1 25 24 1 -1 4 0.35480260D-01 0.15492390D-01 0.17026607D+05 0.17026607D+05 0.17026607D+05 0.12415967D+01  1  2 12  6  6  5       21 0.471968775573D-06 0.100000000000D+01
-.785615213373D-04 0.000000000000D+00 0.000000000000D+00 0.291216062394D-04 0.000000000000D+00  6 2 -1 25 24 1 -1 4 0.35480260D-01 0.15492390D-01 0.17018953D+05 0.17018953D+05 0.17018953D+05 0.12416186D+01  1  2  5  6  6  5       21 -.905164388127D-01 0.100000000000D+01
0.775607133967D-04 0.000000000000D+00 0.000000000000D+00 0.291216062394D-04 0.752270107489D-05  6 2 -1 25 24 1 -1 4 0.35480260D-01 0.15492390D-01 0.17026607D+05 0.17026607D+05 0.17026607D+05 0.12415967D+01  1  2 11  6  6  5       21 0.893581957818D-01 0.100000000000D+01
0.410614469596D-09 0.000000000000D+00 0.000000000000D+00 0.291205780032D-04 0.000000000000D+00  6 2 -1 25 24 2 -2 4 0.35480260D-01 0.15492390D-01 0.17026607D+05 0.17026607D+05 0.17026607D+05 0.12415967D+01  1  2 12  7  6  5       21 0.473071566237D-06 0.100000000000D+01
0.409657274457D-09 0.000000000000D+00 0.000000000000D+00 0.291205780032D-04 0.000000000000D+00  6 2 -1 25 24 2 -2 4 0.35480260D-01 0.15492390D-01 0.17026607D+05 0.17026607D+05 0.17026607D+05 0.12415967D+01  1  2 12  7  6  5       21 0.471968775573D-06 0.100000000000D+01
-.785615213373D-04 0.000000000000D+00 0.000000000000D+00 0.291216062394D-04 0.000000000000D+00  6 2 -1 25 24 2 -2 4 0.35480260D-01 0.15492390D-01 0.17018953D+05 0.17018953D+05 0.17018953D+05 0.12416186D+01  1  2  5  7  6  5       21 -.905164388127D-01 0.100000000000D+01
0.773635710667D-04 0.000000000000D+00 0.000000000000D+00 0.291216062394D-04 0.749857829811D-05  6 2 -1 25 24 2 -2 4 0.35480260D-01 0.15492390D-01 0.17026607D+05 0.17026607D+05 0.17026607D+05 0.12415967D+01  1  2 11  7  6  5       21 0.891310668379D-01 0.100000000000D+01
0.410614469596D-09 0.000000000000D+00 0.000000000000D+00 0.291205780032D-04 0.000000000000D+00  6 2 -1 25 24 3 -3 4 0.35480260D-01 0.15492390D-01 0.17026607D+05 0.17026607D+05 0.17026607D+05 0.12415967D+01  1  2 12  8  6  5       21 0.473071566237D-06 0.100000000000D+01
0.410614469596D-09 0.000000000000D+00 0.000000000000D+00 0.291205780032D-04 0.000000000000D+00  6 2 -1 25 24 4 -4 4 0.35480260D-01 0.15492390D-01 0.17026607D+05 0.17026607D+05 0.17026607D+05 0.12415967D+01  1  2 12  8  6  5       21 0.473071566237D-06 0.100000000000D+01
0.409657274457D-09 0.000000000000D+00 0.000000000000D+00 0.291205780032D-04 0.000000000000D+00  6 2 -1 25 24 3 -3 4 0.35480260D-01 0.15492390D-01 0.17026607D+05 0.17026607D+05 0.17026607D+05 0.12415967D+01  1  2 12  8  6  5       21 0.471968775573D-06 0.100000000000D+01
0.409657274457D-09 0.000000000000D+00 0.000000000000D+00 0.291205780032D-04 0.000000000000D+00  6 2 -1 25 24 4 -4 4 0.35480260D-01 0.15492390D-01 0.17026607D+05 0.17026607D+05 0.17026607D+05 0.12415967D+01  1  2 12  8  6  5       21 0.471968775573D-06 0.100000000000D+01
-.785615213373D-04 0.000000000000D+00 0.000000000000D+00 0.291216062394D-04 0.000000000000D+00  6 2 -1 25 24 3 -3 4 0.35480260D-01 0.15492390D-01 0.17018953D+05 0.17018953D+05 0.17018953D+05 0.12416186D+01  1  2  5  8  6  5       21 -.905164388127D-01 0.100000000000D+01
-.785615213373D-04 0.000000000000D+00 0.000000000000D+00 0.291216062394D-04 0.000000000000D+00  6 2 -1 25 24 4 -4 4 0.35480260D-01 0.15492390D-01 0.17018953D+05 0.17018953D+05 0.17018953D+05 0.12416186D+01  1  2  5  8  6  5       21 -.905164388127D-01 0.100000000000D+01
0.773641476850D-04 0.000000000000D+00 0.000000000000D+00 0.291216062394D-04 0.749861525660D-05  6 2 -1 25 24 3 -3 4 0.35480260D-01 0.15492390D-01 0.17026607D+05 0.17026607D+05 0.17026607D+05 0.12415967D+01  1  2 11  8  6  5       21 0.891317311636D-01 0.100000000000D+01
0.773641476850D-04 0.000000000000D+00 0.000000000000D+00 0.291216062394D-04 0.749861525660D-05  6 2 -1 25 24 4 -4 4 0.35480260D-01 0.15492390D-01 0.17026607D+05 0.17026607D+05 0.17026607D+05 0.12415967D+01  1  2 11  8  6  5       21 0.891317311636D-01 0.100000000000D+01
  </mgrwgt>
  </event>
  <event>
  5     66 -.46179844E-03 0.33317924E+02 0.75467711E-02 0.11900237E+00
        2 -1    0    0  502    0 0.00000000E+00 0.00000000E+00 0.17697697E+04 0.17697697E+04 0.32000000E+00 0.0000E+00 0.9000E+01
       -1 -1    0    0    0  501 0.00000000E+00 0.00000000E+00 -.12841374E+02 0.12845361E+02 0.32000000E+00 0.0000E+00 0.9000E+01
       25  1    1    2    0    0 -.32222314E+02 -.90687564E+02 0.10707670E+04 0.10823259E+04 0.12500000E+03 0.0000E+00 0.9000E+01
       24  1    1    2    0    0 0.12865119E+02 0.63576370E+02 0.57621626E+03 0.58540572E+03 0.80419002E+02 0.0000E+00 0.9000E+01
       21  1    1    2  502  501 0.19357195E+02 0.27111194E+02 0.10994509E+03 0.11488343E+03 0.75000000E+00 0.0000E+00 0.9000E+01
#aMCatNLO 1  0  0  2  5 0.22152912D+02 0.00000000D+00  -5  6  0 0.00000000D+00 0.00000000D+00 0.00000000D+00 0.00000000D+00 0.00000000D+00
  <mgrwgt>
 -.9707859399D-01    7    4    0
 0.150764234725717D+03 0.000000000000000D+00 0.000000000000000D+00 0.150764234725717D+03
 0.150764234725717D+03 0.000000000000000D+00 0.000000000000000D+00 -.150764234725717D+03
 0.159555029915388D+03 -.322242515907254D+02 -.906902787158714D+02 0.238679393152319D+02
 0.103413176983451D+03 0.128638627901784D+02 0.635746112165193D+02 -.445635077432956D+01
 0.385602625525949D+02 0.193603888005470D+02 0.271156674993521D+02 -.194115885409023D+02
 0.000000000000000D+00 -.000000000000000D+00 -.000000000000000D+00 -.000000000000000D+00
 0.157171745474721D+03 0.000000000000000D+00 0.000000000000000D+00 0.157171745474721D+03
 0.171614561428379D+03 0.000000000000000D+00 0.000000000000000D+00 -.171614561428379D+03
 0.153521673623203D+03 -.243201939315167D+02 -.823574763579305D+02 0.238679393152319D+02
 0.107731048291459D+03 0.181944929907616D+02 0.691943940951245D+02 -.445635077432956D+01
 0.410884254960574D+02 0.213712309223061D+02 0.292355849766897D+02 -.194115885409023D+02
 0.264451594923802D+02 -.152455299815509D+02 -.160725027138837D+02 -.144428159536587D+02
 0.150764234725717D+03 0.000000000000000D+00 0.000000000000000D+00 0.150764234725717D+03
 0.150764234725717D+03 0.000000000000000D+00 0.000000000000000D+00 -.150764234725717D+03
 0.159555029915388D+03 -.322242515907254D+02 -.906902787158714D+02 0.238679393152319D+02
 0.103413176983451D+03 0.128638627901784D+02 0.635746112165193D+02 -.445635077432956D+01
 0.000000000000000D+00 -.000000000000000D+00 -.000000000000000D+00 -.000000000000000D+00
 0.385602625525949D+02 0.193603888005470D+02 0.271156674993521D+02 -.194115885409023D+02
 0.157171745474721D+03 0.000000000000000D+00 0.000000000000000D+00 0.157171745474721D+03
 0.171614561428379D+03 0.000000000000000D+00 0.000000000000000D+00 -.171614561428379D+03
 0.153521673623203D+03 -.243201939315167D+02 -.823574763579305D+02 0.238679393152319D+02
 0.107731048291459D+03 0.181944929907616D+02 0.691943940951245D+02 -.445635077432956D+01
 0.264451594923802D+02 -.152455299815509D+02 -.160725027138837D+02 -.144428159536587D+02
 0.410884254960574D+02 0.213712309223061D+02 0.292355849766897D+02 -.194115885409023D+02
0.936985823947D-04 0.000000000000D+00 0.000000000000D+00 0.192996247724D-04 0.000000000000D+00  6 2 -1 25 24 21 21 2 0.27227257D+00 0.19759049D-02 0.21667068D+05 0.21667068D+05 0.21667068D+05 0.12300164D+01  1  2  2  2  6  2       -1 0.108958641502D+00 0.100000000000D+01
0.981261289189D-05 0.494461003846D-05 -.359827227799D-06 0.192996247724D-04 0.000000000000D+00  6 2 -1 25 24 21 21 4 0.27227257D+00 0.19759049D-02 0.21667068D+05 0.21667068D+05 0.21667068D+05 0.12300164D+01  1  2  3  2  6  2       -1 0.172637502833D-01 0.100000000000D+01
0.285345968576D-05 0.000000000000D+00 0.000000000000D+00 0.192996247724D-04 0.000000000000D+00  6 2 -1 25 24 21 21 4 0.27227257D+00 0.19759049D-02 0.21667068D+05 0.21667068D+05 0.21667068D+05 0.12300164D+01  1  2 15  2  6  2       -1 0.502021388199D-02 0.100000000000D+01
-.554168660797D-04 0.000000000000D+00 0.000000000000D+00 0.192996247724D-04 0.000000000000D+00  6 2 -1 25 24 21 21 4 0.27227257D+00 0.19759049D-02 0.21667068D+05 0.21667068D+05 0.21667068D+05 0.12300164D+01  1  2  4  2  6  2       -1 -.974972668366D-01 0.100000000000D+01
-.593258194303D-03 0.000000000000D+00 -.124124126035D-03 0.192996247724D-04 0.000000000000D+00  6 2 -1 25 24 21 21 4 0.27227257D+00 0.23553436D-02 0.21667068D+05 0.21667068D+05 0.21667068D+05 0.12300164D+01  1  2  5  2  6  2       -1 -.809354859737D+00 0.100000000000D+01
0.607554923435D-03 0.000000000000D+00 0.122233425548D-03 0.192996247724D-04 0.000000000000D+00  6 2 -1 25 24 21 21 4 0.27227257D+00 0.19759049D-02 0.21667068D+05 0.21667068D+05 0.21667068D+05 0.12300164D+01  1  2  6  2  6  2       -1 0.106889740757D+01 0.100000000000D+01
-.142092117107D-04 0.000000000000D+00 -.321156991744D-05 0.192996247724D-04 0.000000000000D+00  6 2 21 25 24 1 21 4 0.27227257D+00 0.23553436D-02 0.21667068D+05 0.21667068D+05 0.21667068D+05 0.12300164D+01  3  4  5  5  5  2       -1 -.390366480650D+00 0.100000000000D+01
  </mgrwgt>
  </event>
  <event>
  5     66 0.46179844E-03 0.24241741E+02 0.75467711E-02 0.12110256E+00
        2 -1    0    0  502    0 0.00000000E+00 0.00000000E+00 0.42232604E+04 0.42232604E+04 0.32000000E+00 0.0000E+00 0.9000E+01
       -1 -1    0    0    0  501 0.00000000E+00 0.00000000E+00 -.48318725E+01 0.48424572E+01 0.32000000E+00 0.0000E+00 0.9000E+01
       25  1    1    2    0    0 0.43415057E+02 -.13588356E+02 0.24821390E+04 0.24857008E+04 0.12500000E+03 0.0000E+00 0.9000E+01
       24  1    1    2    0    0 -.37723381E+02 -.99740460E+01 0.16587916E+04 0.16611982E+04 0.80419002E+02 0.0000E+00 0.9000E+01
       21  1    1    2  502  501 -.56916757E+01 0.23562402E+02 0.77497935E+02 0.81203906E+02 0.75000000E+00 0.0000E+00 0.9000E+01
#aMCatNLO 1  0  0  1  5 0.37912807D+01 0.00000000D+00  -5  6  0 0.00000000D+00 0.00000000D+00 0.00000000D+00 0.00000000D+00 0.00000000D+00
  <mgrwgt>
 0.4187139474D+00    7    4    0
 0.142928857285422D+03 0.000000000000000D+00 0.000000000000000D+00 0.142928857285422D+03
 0.142928857285422D+03 0.000000000000000D+00 0.000000000000000D+00 -.142928857285422D+03
 0.136686729168922D+03 0.434152888106908D+02 -.135893162228191D+02 0.314436816066230D+02
 0.917344118825483D+02 -.377232253025607D+02 -.997469074551211D+01 0.206264438614641D+02
 0.574365735193742D+02 -.569206350813015D+01 0.235640069683312D+02 -.520701254680871D+02
 0.000000000000000D+00 0.000000000000000D+00 -.000000000000000D+00 0.000000000000000D+00
 0.170387102878866D+03 0.000000000000000D+00 0.000000000000000D+00 0.170387102878866D+03
 0.153252294388153D+03 0.000000000000000D+00 0.000000000000000D+00 -.153252294388153D+03
 0.133930507950139D+03 0.363802608229736D+02 -.390473118231895D+00 0.314436816066230D+02
 0.932879147536292D+02 -.425331082948454D+02 -.950577255497508D+00 0.206264438614641D+02
 0.603910160003486D+02 -.875513664722887D+01 0.293108244438873D+02 -.520701254680871D+02
 0.360299585629024D+02 0.149079841191007D+02 -.279697740701579D+02 0.171348084907135D+02
 0.142928857285422D+03 0.000000000000000D+00 0.000000000000000D+00 0.142928857285422D+03
 0.142928857285422D+03 0.000000000000000D+00 0.000000000000000D+00 -.142928857285422D+03
 0.136686729168922D+03 0.434152888106908D+02 -.135893162228191D+02 0.314436816066230D+02
 0.917344118825483D+02 -.377232253025607D+02 -.997469074551211D+01 0.206264438614641D+02
 0.000000000000000D+00 0.000000000000000D+00 -.000000000000000D+00 0.000000000000000D+00
 0.574365735193742D+02 -.569206350813015D+01 0.235640069683312D+02 -.520701254680871D+02
 0.170387102878866D+03 0.000000000000000D+00 0.000000000000000D+00 0.170387102878866D+03
 0.153252294388153D+03 0.000000000000000D+00 0.000000000000000D+00 -.153252294388153D+03
 0.133930507950139D+03 0.363802608229736D+02 -.390473118231895D+00 0.314436816066230D+02
 0.932879147536292D+02 -.425331082948454D+02 -.950577255497508D+00 0.206264438614641D+02
 0.360299585629024D+02 0.149079841191007D+02 -.279697740701579D+02 0.171348084907135D+02
 0.603910160003486D+02 -.875513664722887D+01 0.293108244438873D+02 -.520701254680871D+02
0.587246360180D-03 0.000000000000D+00 0.000000000000D+00 0.475024034205D-04 0.000000000000D+00  6 2 -1 25 24 21 21 2 0.64973319D+00 0.74418015D-03 0.15208814D+05 0.15208814D+05 0.15208814D+05 0.12471386D+01  1  2  2  1  6  1        2 0.938401109806D-01 0.100000000000D+01
0.633663826607D-04 0.309898418245D-04 -.225518064861D-05 0.475024034205D-04 0.000000000000D+00  6 2 -1 25 24 21 21 4 0.64973319D+00 0.74418015D-03 0.15208814D+05 0.15208814D+05 0.15208814D+05 0.12471386D+01  1  2  3  1  6  1        2 0.157491299192D-01 0.100000000000D+01
0.289411589688D-04 0.000000000000D+00 0.000000000000D+00 0.475024034205D-04 0.000000000000D+00  6 2 -1 25 24 21 21 4 0.64973319D+00 0.74418015D-03 0.15208814D+05 0.15208814D+05 0.15208814D+05 0.12471386D+01  1  2 15  1  6  1        2 0.719305810861D-02 0.100000000000D+01
-.384999477910D-03 0.000000000000D+00 0.000000000000D+00 0.475024034205D-04 0.000000000000D+00  6 2 -1 25 24 21 21 4 0.64973319D+00 0.74418015D-03 0.15208814D+05 0.15208814D+05 0.15208814D+05 0.12471386D+01  1  2  4  1  6  1        2 -.956880690014D-01 0.100000000000D+01
-.161936088600D-02 0.000000000000D+00 -.390445619374D-03 0.475024034205D-04 0.000000000000D+00  6 2 -1 25 24 21 21 4 0.78069428D+00 0.74418015D-03 0.15208814D+05 0.15208814D+05 0.15208814D+05 0.12471386D+01  1  2  5  1  6  1        2 -.582356116477D-01 0.100000000000D+01
0.183420766464D-02 0.000000000000D+00 0.449400930570D-03 0.475024034205D-04 0.000000000000D+00  6 2 -1 25 24 21 21 4 0.64973319D+00 0.74418015D-03 0.15208814D+05 0.15208814D+05 0.15208814D+05 0.12471386D+01  1  2  6  1  6  1        2 0.455875396326D+00 0.100000000000D+01
-.395007185671D-04 0.000000000000D+00 -.104590319262D-04 0.475024034205D-04 0.000000000000D+00  6 21 -1 25 24 -2 21 4 0.78069428D+00 0.74418015D-03 0.15208814D+05 0.15208814D+05 0.15208814D+05 0.12471386D+01  3  4  5  4  5  1        2 -.200672845126D-04 0.100000000000D+01
  </mgrwgt>
  </event>
  <event>
  5     66 0.46179844E-03 0.71383287E+02 0.75467711E-02 0.11499552E+00
        2 -1    0    0  502    0 0.00000000E+00 0.00000000E+00 0.84923860E+03 0.84923866E+03 0.32000000E+00 0.0000E+00 0.9000E+01
       -1 -1    0    0    0  501 0.00000000E+00 0.00000000E+00 -.83877907E+02 0.83878517E+02 0.32000000E+00 0.0000E+00 0.9000E+01
       25  1    1    2    0    0 0.43470478E+02 -.12599318E+03 0.60222270E+03 0.62933388E+03 0.12500000E+03 0.0000E+00 0.9000E+01
       24  1    1    2    0    0 0.33261775E+02 0.11252072E+03 0.17440951E+03 0.22506255E+03 0.80419002E+02 0.0000E+00 0.9000E+01
       21  1    1    2  502  501 -.76732254E+02 0.13472454E+02 -.11271511E+02 0.78720742E+02 0.75000000E+00 0.0000E+00 0.9000E+01
#aMCatNLO 1  0  0  5  1 0.32282892D+02 0.00000000D+00  -5  6  0 0.00000000D+00 0.00000000D+00 0.00000000D+00 0.00000000D+00 0.00000000D+00
  <mgrwgt>
 0.3500344622D-01   15    2    0
 0.266894490550599D+03 0.000000000000000D+00 0.000000000000000D+00 0.266894490550599D+03
 0.266894490550599D+03 -.000000000000000D+00 -.000000000000000D+00 -.266894490550599D+03
 0.236657144097518D+03 0.434708830147211D+02 -.125993249506293D+03 0.150391446768621D+03
 0.143359148979459D+03 0.332620205723707D+02 0.112520681291771D+03 -.178147105175227D+02
 0.153772688024220D+03 -.767329035870918D+02 0.134725682145217D+02 -.132576736251099D+03
 0.000000000000000D+00 -.000000000000000D+00 0.000000000000000D+00 0.000000000000000D+00
 0.266894490550599D+03 0.000000000000000D+00 0.000000000000000D+00 0.266894490550599D+03
 0.266894490550599D+03 -.000000000000000D+00 -.000000000000000D+00 -.266894490550599D+03
 0.230953099138236D+03 0.392636467944693D+02 -.125254553662370D+03 0.143122314223867D+03
 0.143763328595702D+03 0.306786894653709D+02 0.112974256002654D+03 -.222781100607610D+02
 0.115491625790158D+03 -.281461173276299D+02 0.188726888985403D+02 -.110408031051967D+03
 0.435809275771026D+02 -.417962189322102D+02 -.659239123882516D+01 -.104361731111396D+02
0.173189930148D-03 0.000000000000D+00 0.000000000000D+00 0.319939425788D-05 0.000000000000D+00  6 2 -1 25 24 21 21 2 0.13065214D+00 0.12904345D-01 0.40578324D+05 0.40578324D+05 0.40578324D+05 0.12013677D+01  1  2  2  3  6  5       21 0.381245371116D-01 0.100000000000D+01
-.242179857002D-05 0.913948370704D-05 -.665094933724D-06 0.319939425788D-05 0.000000000000D+00  6 2 -1 25 24 21 21 4 0.13065214D+00 0.12904345D-01 0.40578324D+05 0.40578324D+05 0.40578324D+05 0.12013677D+01  1  2  3  3  6  5       21 -.769434873613D-03 0.100000000000D+01
0.318683396805D-05 0.000000000000D+00 0.000000000000D+00 0.319939425788D-05 0.000000000000D+00  6 2 -1 25 24 21 21 4 0.13065214D+00 0.12904345D-01 0.40578324D+05 0.40578324D+05 0.40578324D+05 0.12013677D+01  1  2 15  3  6  5       21 0.101249592835D-02 0.100000000000D+01
0.170279753863D-03 0.000000000000D+00 0.000000000000D+00 0.320336668130D-05 0.000000000000D+00  6 2 -1 25 24 21 21 4 0.13065214D+00 0.12904345D-01 0.39897629D+05 0.39897629D+05 0.39897629D+05 0.12021133D+01  1  2 12  3  6  5       21 0.542325581093D-01 0.100000000000D+01
-.252167689220D-03 0.000000000000D+00 0.000000000000D+00 0.319939425788D-05 0.000000000000D+00  6 2 -1 25 24 21 21 4 0.13065214D+00 0.12904345D-01 0.40578324D+05 0.40578324D+05 0.40578324D+05 0.12013677D+01  1  2  4  3  6  5       21 -.801167431867D-01 0.100000000000D+01
-.284971176150D-03 0.000000000000D+00 0.000000000000D+00 0.319939425788D-05 0.000000000000D+00  6 2 -1 25 24 21 21 4 0.13065214D+00 0.12904345D-01 0.40578324D+05 0.40578324D+05 0.40578324D+05 0.12013677D+01  1  2  5  3  6  5       21 -.905388101300D-01 0.100000000000D+01
0.356498053989D-03 0.000000000000D+00 -.000000000000D+00 0.319939425788D-05 0.000000000000D+00  6 2 -1 25 24 21 21 4 0.13065214D+00 0.12904345D-01 0.40578324D+05 0.40578324D+05 0.40578324D+05 0.12013677D+01  1  2  6  3  6  5       21 0.113263769543D+00 0.100000000000D+01
0.288183222635D-05 0.000000000000D+00 0.000000000000D+00 0.320336668130D-05 0.000000000000D+00  6 2 -1 25 24 1 -1 4 0.13065214D+00 0.12904345D-01 0.39897629D+05 0.39897629D+05 0.39897629D+05 0.12021133D+01  1  2 12  6  6  5       21 0.917837441803D-03 0.100000000000D+01
-.305014761805D-05 0.000000000000D+00 0.000000000000D+00 0.319939425788D-05 0.000000000000D+00  6 2 -1 25 24 1 -1 4 0.13065214D+00 0.12904345D-01 0.40578324D+05 0.40578324D+05 0.40578324D+05 0.12013677D+01  1  2  5  6  6  5       21 -.969069011784D-03 0.100000000000D+01
0.288183222635D-05 0.000000000000D+00 0.000000000000D+00 0.320336668130D-05 0.000000000000D+00  6 2 -1 25 24 2 -2 4 0.13065214D+00 0.12904345D-01 0.39897629D+05 0.39897629D+05 0.39897629D+05 0.12021133D+01  1  2 12  7  6  5       21 0.917837441803D-03 0.100000000000D+01
-.305014761805D-05 0.000000000000D+00 0.000000000000D+00 0.319939425788D-05 0.000000000000D+00  6 2 -1 25 24 2 -2 4 0.13065214D+00 0.12904345D-01 0.40578324D+05 0.40578324D+05 0.40578324D+05 0.12013677D+01  1  2  5  7  6  5       21 -.969069011784D-03 0.100000000000D+01
0.288183222635D-05 0.000000000000D+00 0.000000000000D+00 0.320336668130D-05 0.000000000000D+00  6 2 -1 25 24 3 -3 4 0.13065214D+00 0.12904345D-01 0.39897629D+05 0.39897629D+05 0.39897629D+05 0.12021133D+01  1  2 12  8  6  5       21 0.917837441803D-03 0.100000000000D+01
0.288183222635D-05 0.000000000000D+00 0.000000000000D+00 0.320336668130D-05 0.000000000000D+00  6 2 -1 25 24 4 -4 4 0.13065214D+00 0.12904345D-01 0.39897629D+05 0.39897629D+05 0.39897629D+05 0.12021133D+01  1  2 12  8  6  5       21 0.917837441803D-03 0.100000000000D+01
-.305014761805D-05 0.000000000000D+00 0.000000000000D+00 0.319939425788D-05 0.000000000000D+00  6 2 -1 25 24 3 -3 4 0.13065214D+00 0.12904345D-01 0.40578324D+05 0.40578324D+05 0.40578324D+05 0.12013677D+01  1  2  5  8  6  5       21 -.969069011784D-03 0.100000000000D+01
-.305014761805D-05 0.000000000000D+00 0.000000000000D+00 0.319939425788D-05 0.000000000000D+00  6 2 -1 25 24 4 -4 4 0.13065214D+00 0.12904345D-01 0.40578324D+05 0.40578324D+05 0.40578324D+05 0.12013677D+01  1  2  5  8  6  5       21 -.969069011784D-03 0.100000000000D+01
  </mgrwgt>
  </event>
  <event>
  5     66 0.46179844E-03 0.21475938E+02 0.75467711E-02 0.10997323E+00
        2 -1    0    0  502    0 0.00000000E+00 0.00000000E+00 0.53836591E+03 0.53836600E+03 0.32000000E+00 0.0000E+00 0.9000E+01
       -1 -1    0    0    0  501 0.00000000E+00 0.00000000E+00 -.24807226E+02 0.24809290E+02 0.32000000E+00 0.0000E+00 0.9000E+01
       25  1    1    2    0    0 -.11403935E+02 -.13539996E+02 0.24288954E+03 0.27374022E+03 0.12500000E+03 0.0000E+00 0.9000E+01
       24  1    1    2    0    0 -.84626614E+01 0.54135641E+01 0.21344451E+03 0.22831272E+03 0.80419002E+02 0.0000E+00 0.9000E+01
       21  1    1    2  502  501 0.19866596E+02 0.81264315E+01 0.57224630E+02 0.61122347E+02 0.75000000E+00 0.0000E+00 0.9000E+01
#aMCatNLO 1  0  0  1  1 0.28235751D+02 0.00000000D+00  -5  6  0 0.00000000D+00 0.00000000D+00 0.00000000D+00 0.00000000D+00 0.00000000D+00
  <mgrwgt>
 0.4546805669D+00    5    4    0
 0.115568042957875D+03 0.000000000000000D+00 0.000000000000000D+00 0.115568042957875D+03
 0.115568042957875D+03 0.000000000000000D+00 0.000000000000000D+00 -.115568042957875D+03
 0.127309992574530D+03 -.114104280974732D+02 -.135426516248019D+02 -.164083188330934D+02
 0.820462448209657D+02 -.846684597615713D+01 0.541185240869775D+01 0.127825939297862D+02
 0.217798485202556D+02 0.198772740736304D+02 0.813079921610413D+01 0.362572490330727D+01
 0.000000000000000D+00 -.000000000000000D+00 0.000000000000000D+00 0.000000000000000D+00
 0.297004288380173D+03 0.000000000000000D+00 0.000000000000000D+00 0.297004288380173D+03
 0.254196198474560D+03 0.000000000000000D+00 0.000000000000000D+00 -.254196198474560D+03
 0.186580846855441D+03 0.287424386755936D+02 -.134506697622626D+03 -.164083188330934D+02
 0.106853495493927D+03 0.156971790718659D+02 -.673844003201929D+02 0.127825939297862D+02
 0.289649867840710D+02 0.263685454184586D+02 -.114247271670545D+02 0.362572490330727D+01
 0.228801157721294D+03 -.708081631659181D+02 0.213315825109874D+03 0.428080899056135D+02
 0.115568042957875D+03 0.000000000000000D+00 0.000000000000000D+00 0.115568042957875D+03
 0.115568042957875D+03 0.000000000000000D+00 0.000000000000000D+00 -.115568042957875D+03
 0.127309992574530D+03 -.114104280974732D+02 -.135426516248019D+02 -.164083188330934D+02
 0.820462448209657D+02 -.846684597615713D+01 0.541185240869775D+01 0.127825939297862D+02
 0.000000000000000D+00 -.000000000000000D+00 0.000000000000000D+00 0.000000000000000D+00
 0.217798485202556D+02 0.198772740736304D+02 0.813079921610413D+01 0.362572490330727D+01
 0.297004288380173D+03 0.000000000000000D+00 0.000000000000000D+00 0.297004288380173D+03
 0.254196198474560D+03 0.000000000000000D+00 0.000000000000000D+00 -.254196198474560D+03
 0.186580846855441D+03 0.287424386755936D+02 -.134506697622626D+03 -.164083188330934D+02
 0.106853495493927D+03 0.156971790718659D+02 -.673844003201929D+02 0.127825939297862D+02
 0.228801157721294D+03 -.708081631659181D+02 0.213315825109874D+03 0.428080899056135D+02
 0.289649867840710D+02 0.263685454184586D+02 -.114247271670545D+02 0.362572490330727D+01
0.122298052839D-03 0.000000000000D+00 0.000000000000D+00 0.578915583867D-04 0.000000000000D+00  6 2 -1 25 24 21 21 2 0.82825690D-01 0.38166623D-02 0.13083756D+05 0.13083756D+05 0.13083756D+05 0.12546468D+01  1  2  2  1  6  1        2 0.308395859262D+00 0.100000000000D+01
0.213174787533D-04 0.645384555772D-05 -.469656724720D-06 0.578915583867D-04 0.000000000000D+00  6 2 -1 25 24 21 21 4 0.82825690D-01 0.38166623D-02 0.13083756D+05 0.13083756D+05 0.13083756D+05 0.12546468D+01  1  2  3  1  6  1        2 0.846189864549D-01 0.100000000000D+01
0.412443745152D-05 0.000000000000D+00 0.000000000000D+00 0.578915583867D-04 0.000000000000D+00  6 2 -1 25 24 21 21 4 0.82825690D-01 0.38166623D-02 0.13083756D+05 0.13083756D+05 0.13083756D+05 0.12546468D+01  1  2 15  1  6  1        2 0.163718102353D-01 0.100000000000D+01
0.104761670356D-03 0.000000000000D+00 -.102176553005D-03 0.578915583867D-04 0.000000000000D+00  6 2 -1 25 24 21 21 4 0.34716672D+00 0.38166623D-02 0.13083756D+05 0.13083756D+05 0.13083756D+05 0.12546468D+01  1  2  5  1  6  1        2 0.431619198198D-01 0.100000000000D+01
0.184077773477D-04 0.000000000000D+00 -.175748658369D-04 0.578915583867D-04 0.000000000000D+00  6 21 -1 25 24 -2 21 4 0.34716672D+00 0.38166623D-02 0.13083756D+05 0.13083756D+05 0.13083756D+05 0.12546468D+01  3  4  5  4  5  1        2 0.213199116702D-02 0.100000000000D+01
  </mgrwgt>
  </event>
  <event>
  5     66 -.46179844E-03 0.20240045E+02 0.75467711E-02 0.12380951E+00
        2 -1    0    0  502    0 0.00000000E+00 0.00000000E+00 0.25247180E+04 0.25247180E+04 0.32000000E+00 0.0000E+00 0.9000E+01
       -1 -1    0    0    0  501 0.00000000E+00 0.00000000E+00 -.79360717E+01 0.79425207E+01 0.32000000E+00 0.0000E+00 0.9000E+01
       25  1    1    2    0    0 -.18724920E+02 -.19530446E+02 0.15316483E+04 0.15369787E+04 0.12500000E+03 0.0000E+00 0.9000E+01
       24  1    1    2    0    0 0.38225449E+02 0.24946166E+02 0.95443840E+03 0.95890738E+03 0.80419002E+02 0.0000E+00 0.9000E+01
       21  1    1    2  502  501 -.19500530E+02 -.54157193E+01 0.30695294E+02 0.36774505E+02 0.75000000E+00 0.0000E+00 0.9000E+01
#aMCatNLO 1  0  0  2  1 0.51442482D+01 0.00000000D+00  -5  6  0 0.00000000D+00 0.00000000D+00 0.00000000D+00 0.00000000D+00 0.00000000D+00
  <mgrwgt>
 -.6187612941D+00    9    4    0
 0.141578725480412D+03 0.000000000000000D+00 0.000000000000000D+00 0.141578725480412D+03
 0.141578725480412D+03 0.000000000000000D+00 0.000000000000000D+00 -.141578725480412D+03
 0.133567822801190D+03 -.187240972816260D+02 -.195302179465764D+02 0.385141799315198D+02
 0.934947003285439D+02 0.382260249434677D+02 0.249463254505736D+02 0.138019889396109D+02
 0.560949278310903D+02 -.195019276618417D+02 -.541610750399722D+01 -.523161688711307D+02
 0.000000000000000D+00 0.000000000000000D+00 -.000000000000000D+00 -.000000000000000D+00
 0.142213785907676D+03 0.000000000000000D+00 0.000000000000000D+00 0.142213785907676D+03
 0.152417594278088D+03 0.000000000000000D+00 0.000000000000000D+00 -.152417594278088D+03
 0.133616542001185D+03 -.205644704979744D+02 -.179482810791138D+02 0.385141799315198D+02
 0.932789082727410D+02 0.369395232162997D+02 0.260521688165728D+02 0.138019889396109D+02
 0.563087257617722D+02 -.202761671037529D+02 -.475059145186009D+01 -.523161688711307D+02
 0.114272041500661D+02 0.390111438542767D+01 -.335329628559889D+01 -.102038083704118D+02
 0.141578725480412D+03 0.000000000000000D+00 0.000000000000000D+00 0.141578725480412D+03
 0.141578725480412D+03 0.000000000000000D+00 0.000000000000000D+00 -.141578725480412D+03
 0.133567822801190D+03 -.187240972816260D+02 -.195302179465764D+02 0.385141799315198D+02
 0.934947003285439D+02 0.382260249434677D+02 0.249463254505736D+02 0.138019889396109D+02
 0.000000000000000D+00 0.000000000000000D+00 -.000000000000000D+00 -.000000000000000D+00
 0.560949278310903D+02 -.195019276618417D+02 -.541610750399722D+01 -.523161688711307D+02
 0.142213785907676D+03 0.000000000000000D+00 0.000000000000000D+00 0.142213785907676D+03
 0.152417594278088D+03 0.000000000000000D+00 0.000000000000000D+00 -.152417594278088D+03
 0.133616542001185D+03 -.205644704979744D+02 -.179482810791138D+02 0.385141799315198D+02
 0.932789082727410D+02 0.369395232162997D+02 0.260521688165728D+02 0.138019889396109D+02
 0.114272041500661D+02 0.390111438542767D+01 -.335329628559889D+01 -.102038083704118D+02
 0.563087257617722D+02 -.202761671037529D+02 -.475059145186009D+01 -.523161688711307D+02
0.639643955478D-04 0.000000000000D+00 0.000000000000D+00 0.684152590262D-04 0.000000000000D+00  6 2 -1 25 24 21 21 2 0.38841865D+00 0.12214317D-02 0.14472686D+05 0.14472686D+05 0.14472686D+05 0.12495983D+01  1  2  2  2  6  2       -1 0.619947885833D-01 0.100000000000D+01
0.912004998093D-05 0.337549388951D-05 -.245640121116D-06 0.684152590262D-04 0.000000000000D+00  6 2 -1 25 24 21 21 4 0.38841865D+00 0.12214317D-02 0.14472686D+05 0.14472686D+05 0.14472686D+05 0.12495983D+01  1  2  3  2  6  2       -1 0.138024098473D-01 0.100000000000D+01
0.219155269098D-05 0.000000000000D+00 0.000000000000D+00 0.684152590262D-04 0.000000000000D+00  6 2 -1 25 24 21 21 4 0.38841865D+00 0.12214317D-02 0.14472686D+05 0.14472686D+05 0.14472686D+05 0.12495983D+01  1  2 15  2  6  2       -1 0.331672616994D-02 0.100000000000D+01
-.446301501793D-03 0.000000000000D+00 0.000000000000D+00 0.684152590262D-04 0.000000000000D+00  6 2 -1 25 24 21 21 4 0.38841865D+00 0.12214317D-02 0.14472686D+05 0.14472686D+05 0.14472686D+05 0.12495983D+01  1  2  4  2  6  2       -1 -.675438868875D+00 0.100000000000D+01
-.227357706498D-02 0.000000000000D+00 -.177593705853D-03 0.684152590262D-04 0.000000000000D+00  6 2 -1 25 24 21 21 4 0.38841865D+00 0.13218769D-02 0.14472686D+05 0.14472686D+05 0.14472686D+05 0.12495983D+01  1  2  5  2  6  2       -1 -.307408075703D+01 0.100000000000D+01
0.228103835004D-02 0.000000000000D+00 0.177040558964D-03 0.684152590262D-04 0.000000000000D+00  6 2 -1 25 24 21 21 4 0.38841865D+00 0.12214317D-02 0.14472686D+05 0.14472686D+05 0.14472686D+05 0.12495983D+01  1  2  6  2  6  2       -1 0.345215500469D+01 0.100000000000D+01
0.212946244215D-03 0.000000000000D+00 0.000000000000D+00 0.684152590262D-04 0.587013516690D-05  6 2 -1 25 24 21 21 4 0.39016093D+00 0.13149411D-02 0.15149561D+05 0.15149561D+05 0.15149561D+05 0.12473316D+01  1  2 11  2  6  2       -1 0.284058737742D+00 0.100000000000D+01
-.296639360083D-04 0.000000000000D+00 -.234648236479D-05 0.684152590262D-04 0.000000000000D+00  6 2 21 25 24 1 21 4 0.38841865D+00 0.13218769D-02 0.14472686D+05 0.14472686D+05 0.14472686D+05 0.12495983D+01  3  4  5  5  5  2       -1 -.895779789446D+00 0.100000000000D+01
0.708811963822D-05 0.000000000000D+00 0.000000000000D+00 0.684152590262D-04 0.388258039487D-06  6 2 21 25 24 1 21 4 0.39016093D+00 0.13149411D-02 0.15149561D+05 0.15149561D+05 0.15149561D+05 0.12473316D+01  3  4 11  5  5  2       -1 0.211210454266D+00 0.100000000000D+01
  </mgrwgt>
  </event>
  <event>
  5     66 0.46179844E-03 0.25754828E+02 0.75467711E-02 0.12419767E+00
        2 -1    0    0  502    0 0.00000000E+00 0.00000000E+00 0.12512927E+04 0.12512927E+04 0.32000000E+00 0.0000E+00 0.9000E+01
       -1 -1    0    0    0  501 0.00000000E+00 0.00000000E+00 -.18312070E+02 0.18314866E+02 0.32000000E+00 0.0000E+00 0.9000E+01
       25  1    1    2    0    0 -.17928202E+02 0.12372108E+02 0.99659572E+03 0.10046405E+04 0.12500000E+03 0.0000E+00 0.9000E+01
       24  1    1    2    0    0 -.77430307E+01 -.10318417E+02 0.21960076E+03 0.23421814E+03 0.80419002E+02 0.0000E+00 0.9000E+01
       21  1    1    2  502  501 0.25671233E+02 -.20536912E+01 0.16784157E+02 0.30748988E+02 0.75000000E+00 0.0000E+00 0.9000E+01
#aMCatNLO 1  0  0  5  1 0.11805012D+02 0.00000000D+00  -5  6  0 0.00000000D+00 0.00000000D+00 0.00000000D+00 0.00000000D+00 0.00000000D+00
  <mgrwgt>
 0.2621033198D+00   15    2    0
 0.151378864413114D+03 0.000000000000000D+00 0.000000000000000D+00 0.151378864413114D+03
 0.151378864413114D+03 -.000000000000000D+00 -.000000000000000D+00 -.151378864413114D+03
 0.154302910312423D+03 -.179292048928713D+02 0.123721886136065D+02 0.878058124027239D+02
 0.878640344192534D+02 -.774360154011121D+01 -.103183715806945D+02 -.329611958698090D+02
 0.605907840945513D+02 0.256728064329825D+02 -.205381703291200D+01 -.548446165329148D+02
 0.000000000000000D+00 0.000000000000000D+00 0.000000000000000D+00 0.000000000000000D+00
 0.151378864413114D+03 0.000000000000000D+00 0.000000000000000D+00 0.151378864413114D+03
 0.151378864413114D+03 -.000000000000000D+00 -.000000000000000D+00 -.151378864413114D+03
 0.152140440977653D+03 -.162883362720146D+02 0.122409196021300D+02 0.843004375413235D+02
 0.885722043985732D+02 -.679886351058845D+01 -.103939503477350D+02 -.349794323679689D+02
 0.475269062755261D+02 0.158134752899447D+02 -.126960276692586D+02 -.429831560125402D+02
 0.145181771744754D+02 0.727372449265836D+01 0.108490584148637D+02 -.633784916081437D+01
0.122009803128D-03 0.000000000000D+00 0.000000000000D+00 0.327988257296D-04 0.000000000000D+00  6 2 -1 25 24 21 21 2 0.19250679D+00 0.28174598D-02 0.13699058D+05 0.13699058D+05 0.13699058D+05 0.12523394D+01  1  2  2  3  6  5       21 0.162789964214D+00 0.100000000000D+01
0.881042871929D-05 0.643863420256D-05 -.468549769931D-06 0.327988257296D-04 0.000000000000D+00  6 2 -1 25 24 21 21 4 0.19250679D+00 0.28174598D-02 0.13699058D+05 0.13699058D+05 0.13699058D+05 0.12523394D+01  1  2  3  3  6  5       21 0.184363115830D-01 0.100000000000D+01
0.344445080834D-05 0.000000000000D+00 0.000000000000D+00 0.327988257296D-04 0.000000000000D+00  6 2 -1 25 24 21 21 4 0.19250679D+00 0.28174598D-02 0.13699058D+05 0.13699058D+05 0.13699058D+05 0.12523394D+01  1  2 15  3  6  5       21 0.720770468250D-02 0.100000000000D+01
0.138344363510D-03 0.000000000000D+00 0.000000000000D+00 0.326390506168D-04 0.000000000000D+00  6 2 -1 25 24 21 21 4 0.19250679D+00 0.28174598D-02 0.14564064D+05 0.14564064D+05 0.14564064D+05 0.12492854D+01  1  2 12  3  6  5       21 0.287088206492D+00 0.100000000000D+01
-.163842394015D-03 0.000000000000D+00 0.000000000000D+00 0.327988257296D-04 0.000000000000D+00  6 2 -1 25 24 21 21 4 0.19250679D+00 0.28174598D-02 0.13699058D+05 0.13699058D+05 0.13699058D+05 0.12523394D+01  1  2  4  3  6  5       21 -.342849312196D+00 0.100000000000D+01
-.202473879690D-03 0.000000000000D+00 0.000000000000D+00 0.327988257296D-04 0.000000000000D+00  6 2 -1 25 24 21 21 4 0.19250679D+00 0.28174598D-02 0.13699058D+05 0.13699058D+05 0.13699058D+05 0.12523394D+01  1  2  5  3  6  5       21 -.423687842251D+00 0.100000000000D+01
0.275605706298D-03 0.000000000000D+00 -.000000000000D+00 0.327988257296D-04 0.000000000000D+00  6 2 -1 25 24 21 21 4 0.19250679D+00 0.28174598D-02 0.13699058D+05 0.13699058D+05 0.13699058D+05 0.12523394D+01  1  2  6  3  6  5       21 0.576720252471D+00 0.100000000000D+01
0.196885557820D-05 0.000000000000D+00 0.000000000000D+00 0.326390506168D-04 0.000000000000D+00  6 2 -1 25 24 1 -1 4 0.19250679D+00 0.28174598D-02 0.14564064D+05 0.14564064D+05 0.14564064D+05 0.12492854D+01  1  2 12  6  6  5       21 0.408571193251D-02 0.100000000000D+01
-.477225238077D-05 0.000000000000D+00 0.000000000000D+00 0.327988257296D-04 0.000000000000D+00  6 2 -1 25 24 1 -1 4 0.19250679D+00 0.28174598D-02 0.13699058D+05 0.13699058D+05 0.13699058D+05 0.12523394D+01  1  2  5  6  6  5       21 -.998620324253D-02 0.100000000000D+01
0.196885557820D-05 0.000000000000D+00 0.000000000000D+00 0.326390506168D-04 0.000000000000D+00  6 2 -1 25 24 2 -2 4 0.19250679D+00 0.28174598D-02 0.14564064D+05 0.14564064D+05 0.14564064D+05 0.12492854D+01  1  2 12  7  6  5       21 0.408571193251D-02 0.100000000000D+01
-.477225238077D-05 0.000000000000D+00 0.000000000000D+00 0.327988257296D-04 0.000000000000D+00  6 2 -1 25 24 2 -2 4 0.19250679D+00 0.28174598D-02 0.13699058D+05 0.13699058D+05 0.13699058D+05 0.12523394D+01  1  2  5  7  6  5       21 -.998620324253D-02 0.100000000000D+01
0.196885557820D-05 0.000000000000D+00 0.000000000000D+00 0.326390506168D-04 0.000000000000D+00  6 2 -1 25 24 3 -3 4 0.19250679D+00 0.28174598D-02 0.14564064D+05 0.14564064D+05 0.14564064D+05 0.12492854D+01  1  2 12  8  6  5       21 0.408571193251D-02 0.100000000000D+01
0.196885557820D-05 0.000000000000D+00 0.000000000000D+00 0.326390506168D-04 0.000000000000D+00  6 2 -1 25 24 4 -4 4 0.19250679D+00 0.28174598D-02 0.14564064D+05 0.14564064D+05 0.14564064D+05 0.12492854D+01  1  2 12  8  6  5       21 0.408571193251D-02 0.100000000000D+01
-.477225238077D-05 0.000000000000D+00 0.000000000000D+00 0.327988257296D-04 0.000000000000D+00  6 2 -1 25 24 3 -3 4 0.19250679D+00 0.28174598D-02 0.13699058D+05 0.13699058D+05 0.13699058D+05 0.12523394D+01  1  2  5  8  6  5       21 -.998620324253D-02 0.100000000000D+01
-.477225238077D-05 0.000000000000D+00 0.000000000000D+00 0.327988257296D-04 0.000000000000D+00  6 2 -1 25 24 4 -4 4 0.19250679D+00 0.28174598D-02 0.13699058D+05 0.13699058D+05 0.13699058D+05 0.12523394D+01  1  2  5  8  6  5       21 -.998620324253D-02 0.100000000000D+01
  </mgrwgt>
  </event>
  <event>
  5     66 0.46179844E-03 0.26239550E+02 0.75467711E-02 0.11375118E+00
        2 -1    0    0  502    0 0.00000000E+00 0.00000000E+00 0.10902985E+03 0.10903032E+03 0.32000000E+00 0.0000E+00 0.9000E+01
       -1 -1    0    0    0  501 -.00000000E+00 -.00000000E+00 -.55222582E+03 0.55222591E+03 0.32000000E+00 0.0000E+00 0.9000E+01
       25  1    1    2    0    0 0.77396246E+02 0.13091293E+03 -.26824879E+03 0.33273231E+03 0.12500000E+03 0.0000E+00 0.9000E+01
       24  1    1    2    0    0 -.10294688E+03 -.13687876E+03 -.43059344E+02 0.19404943E+03 0.80419002E+02 0.0000E+00 0.9000E+01
       21  1    1    2  502  501 0.25550638E+02 0.59658281E+01 -.13188783E+03 0.13447449E+03 0.75000000E+00 0.0000E+00 0.9000E+01
#aMCatNLO 1  0  0  5  1 0.19273240D+02 0.00000000D+00  -5  6  0 0.00000000D+00 0.00000000D+00 0.00000000D+00 0.00000000D+00 0.00000000D+00
  <mgrwgt>
 0.1478776974D+00   15    2    0
 0.245375799668770D+03 0.000000000000000D+00 0.000000000000000D+00 0.245375799668770D+03
 0.245375799668770D+03 -.000000000000000D+00 -.000000000000000D+00 -.245375799668770D+03
 0.206079974156478D+03 0.773954627488845D+02 0.130912751394324D+03 -.609569488786011D+02
 0.222583882863008D+03 -.102947729314814D+03 -.136878959726677D+03 0.117227489818171D+03
 0.620877423180547D+02 0.255522665659299D+02 0.596620833235294D+01 -.562705409395697D+02
 0.000000000000000D+00 0.000000000000000D+00 0.000000000000000D+00 -.000000000000000D+00
 0.245375799668770D+03 0.000000000000000D+00 0.000000000000000D+00 0.245375799668770D+03
 0.245375799668770D+03 -.000000000000000D+00 -.000000000000000D+00 -.245375799668770D+03
 0.209035809539348D+03 0.798548005786926D+02 0.131486983109323D+03 -.663728390768102D+02
 0.218017814510163D+03 -.100337401149067D+03 -.136269473221342D+03 0.111479092605054D+03
 0.379377286964341D+02 0.256491719246122D+02 -.112287962798764D+02 -.255989330311043D+02
 0.257602465915963D+02 -.516657135423767D+01 0.160112863918951D+02 -.195073204971399D+02
0.103163801460D-02 0.000000000000D+00 0.000000000000D+00 0.203507001788D-04 0.000000000000D+00  6 2 -1 25 24 21 21 2 0.16773866D-01 0.84957862D-01 0.42499926D+05 0.42499926D+05 0.42499926D+05 0.11993358D+01  1  2  2  3  6  5       21 0.830274482521D-01 0.100000000000D+01
0.197463983262D-03 0.544410337134D-04 -.396176161259D-05 0.203507001788D-04 0.000000000000D+00  6 2 -1 25 24 21 21 4 0.16773866D-01 0.84957862D-01 0.42499926D+05 0.42499926D+05 0.42499926D+05 0.11993358D+01  1  2  3  3  6  5       21 0.228593478764D-01 0.100000000000D+01
-.266476412774D-05 0.000000000000D+00 0.000000000000D+00 0.203507001788D-04 0.000000000000D+00  6 2 -1 25 24 21 21 4 0.16773866D-01 0.84957862D-01 0.42499926D+05 0.42499926D+05 0.42499926D+05 0.11993358D+01  1  2 15  3  6  5       21 -.308485472633D-03 0.100000000000D+01
0.451343286297D-03 0.000000000000D+00 0.000000000000D+00 0.202238359040D-04 0.000000000000D+00  6 2 -1 25 24 21 21 4 0.16773866D-01 0.84957862D-01 0.46311755D+05 0.46311755D+05 0.46311755D+05 0.11955917D+01  1  2 12  3  6  5       21 0.516006702500D-01 0.100000000000D+01
-.687343984476D-03 0.000000000000D+00 0.000000000000D+00 0.203507001788D-04 0.000000000000D+00  6 2 -1 25 24 21 21 4 0.16773866D-01 0.84957862D-01 0.42499926D+05 0.42499926D+05 0.42499926D+05 0.11993358D+01  1  2  4  3  6  5       21 -.795701321948D-01 0.100000000000D+01
-.628541437577D-03 0.000000000000D+00 0.000000000000D+00 0.203507001788D-04 0.000000000000D+00  6 2 -1 25 24 21 21 4 0.16773866D-01 0.84957862D-01 0.42499926D+05 0.42499926D+05 0.42499926D+05 0.11993358D+01  1  2  5  3  6  5       21 -.727628762418D-01 0.100000000000D+01
0.129324300512D-02 0.000000000000D+00 -.000000000000D+00 0.203507001788D-04 0.000000000000D+00  6 2 -1 25 24 21 21 4 0.16773866D-01 0.84957862D-01 0.42499926D+05 0.42499926D+05 0.42499926D+05 0.11993358D+01  1  2  6  3  6  5       21 0.149711817083D+00 0.100000000000D+01
0.116664960061D-04 0.000000000000D+00 0.000000000000D+00 0.202238359040D-04 0.000000000000D+00  6 2 -1 25 24 1 -1 4 0.16773866D-01 0.84957862D-01 0.46311755D+05 0.46311755D+05 0.46311755D+05 0.11955917D+01  1  2 12  6  6  5       21 0.133379410232D-02 0.100000000000D+01
-.259476210770D-04 0.000000000000D+00 0.000000000000D+00 0.203507001788D-04 0.000000000000D+00  6 2 -1 25 24 1 -1 4 0.16773866D-01 0.84957862D-01 0.42499926D+05 0.42499926D+05 0.42499926D+05 0.11993358D+01  1  2  5  6  6  5       21 -.300381713650D-02 0.100000000000D+01
0.116664960061D-04 0.000000000000D+00 0.000000000000D+00 0.202238359040D-04 0.000000000000D+00  6 2 -1 25 24 2 -2 4 0.16773866D-01 0.84957862D-01 0.46311755D+05 0.46311755D+05 0.46311755D+05 0.11955917D+01  1  2 12  7  6  5       21 0.133379410232D-02 0.100000000000D+01
-.259476210770D-04 0.000000000000D+00 0.000000000000D+00 0.203507001788D-04 0.000000000000D+00  6 2 -1 25 24 2 -2 4 0.16773866D-01 0.84957862D-01 0.42499926D+05 0.42499926D+05 0.42499926D+05 0.11993358D+01  1  2  5  7  6  5       21 -.300381713650D-02 0.100000000000D+01
0.116664960061D-04 0.000000000000D+00 0.000000000000D+00 0.202238359040D-04 0.000000000000D+00  6 2 -1 25 24 3 -3 4 0.16773866D-01 0.84957862D-01 0.46311755D+05 0.46311755D+05 0.46311755D+05 0.11955917D+01  1  2 12  8  6  5       21 0.133379410232D-02 0.100000000000D+01
0.116664960061D-04 0.000000000000D+00 0.000000000000D+00 0.202238359040D-04 0.000000000000D+00  6 2 -1 25 24 4 -4 4 0.16773866D-01 0.84957862D-01 0.46311755D+05 0.46311755D+05 0.46311755D+05 0.11955917D+01  1  2 12  8  6  5       21 0.133379410232D-02 0.100000000000D+01
-.259476210770D-04 0.000000000000D+00 0.000000000000D+00 0.203507001788D-04 0.000000000000D+00  6 2 -1 25 24 3 -3 4 0.16773866D-01 0.84957862D-01 0.42499926D+05 0.42499926D+05 0.42499926D+05 0.11993358D+01  1  2  5  8  6  5       21 -.300381713650D-02 0.100000000000D+01
-.259476210770D-04 0.000000000000D+00 0.000000000000D+00 0.203507001788D-04 0.000000000000D+00  6 2 -1 25 24 4 -4 4 0.16773866D-01 0.84957862D-01 0.42499926D+05 0.42499926D+05 0.42499926D+05 0.11993358D+01  1  2  5  8  6  5       21 -.300381713650D-02 0.100000000000D+01
  </mgrwgt>
  </event>
  <event>
  5     66 0.46179844E-03 0.81494993E+02 0.75467711E-02 0.11116090E+00
        2 -1    0    0  502    0 0.00000000E+00 0.00000000E+00 0.79654359E+03 0.79654365E+03 0.32000000E+00 0.0000E+00 0.9000E+01
       -1 -1    0    0    0  501 0.00000000E+00 0.00000000E+00 -.85997433E+02 0.85998028E+02 0.32000000E+00 0.0000E+00 0.9000E+01
       25  1    1    2    0    0 0.13763042E+03 -.59005020E+02 0.38501737E+03 0.43160989E+03 0.12500000E+03 0.0000E+00 0.9000E+01
       24  1    1    2    0    0 -.16614798E+03 0.13534488E+03 0.25968846E+03 0.34616283E+03 0.80419002E+02 0.0000E+00 0.9000E+01
       21  1    1    2  502  501 0.28517560E+02 -.76339857E+02 0.65840325E+02 0.10476896E+03 0.75000000E+00 0.0000E+00 0.9000E+01
#aMCatNLO 1  0  0  5  2 0.12251088D+01 0.00000000D+00  -5  6  0 0.00000000D+00 0.00000000D+00 0.00000000D+00 0.00000000D+00 0.00000000D+00
  <mgrwgt>
 0.1393762174D-01   25    2    0
 0.261726947217122D+03 0.000000000000000D+00 0.000000000000000D+00 0.261726947217122D+03
 0.261726947217122D+03 -.000000000000000D+00 -.000000000000000D+00 -.261726947217122D+03
 0.205062703108364D+03 0.137630008141595D+03 -.590039158208339D+02 0.632631882129060D+02
 0.231124466100598D+03 -.166148445940547D+03 0.135346122512380D+03 -.320534539218658D+02
 0.872667252252815D+02 0.285184377989518D+02 -.763422066915463D+02 -.312097342910402D+02
 0.000000000000000D+00 0.000000000000000D+00 -.000000000000000D+00 0.000000000000000D+00
 0.261726947217122D+03 0.000000000000000D+00 0.000000000000000D+00 0.261726947217122D+03
 0.261726947217122D+03 -.000000000000000D+00 -.000000000000000D+00 -.261726947217122D+03
 0.205085942171516D+03 0.137651054002370D+03 -.590602543715154D+02 0.632401562457503D+02
 0.231073843719733D+03 -.166124729267602D+03 0.135282634352167D+03 -.320794087468145D+02
 0.823826136502533D+02 0.277525792936070D+02 -.714729568770300D+02 -.301381122443522D+02
 0.491149489274141D+01 0.721095971624623D+00 -.474942310362158D+01 -.102263525458359D+01
0.259105832500D-04 0.000000000000D+00 0.000000000000D+00 0.236045944023D-05 0.000000000000D+00  6 2 -1 25 24 21 21 2 0.12254522D+00 0.13230425D-01 0.63868966D+05 0.63868966D+05 0.63868966D+05 0.11818936D+01  1  2  2  3  6  5       21 0.576859582834D-02 0.100000000000D+01
0.690254787418D-06 0.136733904362D-05 -.995034620934D-07 0.236045944023D-05 0.000000000000D+00  6 2 -1 25 24 21 21 4 0.12254522D+00 0.13230425D-01 0.63868966D+05 0.63868966D+05 0.63868966D+05 0.11818936D+01  1  2  3  3  6  5       21 0.214663959322D-03 0.100000000000D+01
-.237343669521D-06 0.000000000000D+00 0.000000000000D+00 0.236045944023D-05 0.000000000000D+00  6 2 -1 25 24 21 21 4 0.12254522D+00 0.13230425D-01 0.63868966D+05 0.63868966D+05 0.63868966D+05 0.11818936D+01  1  2 15  3  6  5       21 -.738120658460D-04 0.100000000000D+01
0.483381383528D-08 0.000000000000D+00 0.000000000000D+00 0.236048725690D-05 0.000000000000D+00  6 2 -1 25 24 21 21 4 0.12254522D+00 0.13230425D-01 0.63858343D+05 0.63858343D+05 0.63858343D+05 0.11819006D+01  1  2 12  3  6  5       21 0.150331407032D-05 0.100000000000D+01
0.481060870703D-08 0.000000000000D+00 0.000000000000D+00 0.236048725690D-05 0.000000000000D+00  6 2 -1 25 24 21 21 4 0.12254522D+00 0.13230425D-01 0.63858343D+05 0.63858343D+05 0.63858343D+05 0.11819006D+01  1  2 12  3  6  5       21 0.149609728519D-05 0.100000000000D+01
-.418551076323D-02 0.000000000000D+00 0.000000000000D+00 0.236045944023D-05 0.000000000000D+00  6 2 -1 25 24 21 21 4 0.12254522D+00 0.13230425D-01 0.63868966D+05 0.63868966D+05 0.63868966D+05 0.11818936D+01  1  2  4  3  6  5       21 -.130166183357D+01 0.100000000000D+01
-.403421599810D-02 0.000000000000D+00 0.000000000000D+00 0.236045944023D-05 0.000000000000D+00  6 2 -1 25 24 21 21 4 0.12254522D+00 0.13230425D-01 0.63868966D+05 0.63868966D+05 0.63868966D+05 0.11818936D+01  1  2  5  3  6  5       21 -.125461031882D+01 0.100000000000D+01
0.435827210698D-02 0.000000000000D+00 -.000000000000D+00 0.236045944023D-05 0.000000000000D+00  6 2 -1 25 24 21 21 4 0.12254522D+00 0.13230425D-01 0.63868966D+05 0.63868966D+05 0.63868966D+05 0.11818936D+01  1  2  6  3  6  5       21 0.135538929007D+01 0.100000000000D+01
0.388750563859D-02 0.000000000000D+00 0.000000000000D+00 0.236045944023D-05 0.112398275656D-04  6 2 -1 25 24 21 21 4 0.12254522D+00 0.13230425D-01 0.63858343D+05 0.63858343D+05 0.63858343D+05 0.11819006D+01  1  2 11  3  6  5       21 0.120901261904D+01 0.100000000000D+01
0.421137105509D-09 0.000000000000D+00 0.000000000000D+00 0.236048725690D-05 0.000000000000D+00  6 2 -1 25 24 1 -1 4 0.12254522D+00 0.13230425D-01 0.63858343D+05 0.63858343D+05 0.63858343D+05 0.11819006D+01  1  2 12  6  6  5       21 0.130973462739D-06 0.100000000000D+01
0.420744117072D-09 0.000000000000D+00 0.000000000000D+00 0.236048725690D-05 0.000000000000D+00  6 2 -1 25 24 1 -1 4 0.12254522D+00 0.13230425D-01 0.63858343D+05 0.63858343D+05 0.63858343D+05 0.11819006D+01  1  2 12  6  6  5       21 0.130851243501D-06 0.100000000000D+01
-.185608993292D-04 0.000000000000D+00 0.000000000000D+00 0.236045944023D-05 0.000000000000D+00  6 2 -1 25 24 1 -1 4 0.12254522D+00 0.13230425D-01 0.63868966D+05 0.63868966D+05 0.63868966D+05 0.11818936D+01  1  2  5  6  6  5       21 -.577229772429D-02 0.100000000000D+01
0.186098298135D-04 0.000000000000D+00 0.000000000000D+00 0.236045944023D-05 0.107248833098D-06  6 2 -1 25 24 1 -1 4 0.12254522D+00 0.13230425D-01 0.63858343D+05 0.63858343D+05 0.63858343D+05 0.11819006D+01  1  2 11  6  6  5       21 0.578764924721D-02 0.100000000000D+01
0.421137105509D-09 0.000000000000D+00 0.000000000000D+00 0.236048725690D-05 0.000000000000D+00  6 2 -1 25 24 2 -2 4 0.12254522D+00 0.13230425D-01 0.63858343D+05 0.63858343D+05 0.63858343D+05 0.11819006D+01  1  2 12  7  6  5       21 0.130973462739D-06 0.100000000000D+01
0.420744117072D-09 0.000000000000D+00 0.000000000000D+00 0.236048725690D-05 0.000000000000D+00  6 2 -1 25 24 2 -2 4 0.12254522D+00 0.13230425D-01 0.63858343D+05 0.63858343D+05 0.63858343D+05 0.11819006D+01  1  2 12  7  6  5       21 0.130851243501D-06 0.100000000000D+01
-.185608993292D-04 0.000000000000D+00 0.000000000000D+00 0.236045944023D-05 0.000000000000D+00  6 2 -1 25 24 2 -2 4 0.12254522D+00 0.13230425D-01 0.63868966D+05 0.63868966D+05 0.63868966D+05 0.11818936D+01  1  2  5  7  6  5       21 -.577229772429D-02 0.100000000000D+01
0.184282869081D-04 0.000000000000D+00 0.000000000000D+00 0.236045944023D-05 0.106026541439D-06  6 2 -1 25 24 2 -2 4 0.12254522D+00 0.13230425D-01 0.63858343D+05 0.63858343D+05 0.63858343D+05 0.11819006D+01  1  2 11  7  6  5       21 0.573118947994D-02 0.100000000000D+01
0.421137105509D-09 0.000000000000D+00 0.000000000000D+00 0.236048725690D-05 0.000000000000D+00  6 2 -1 25 24 3 -3 4 0.12254522D+00 0.13230425D-01 0.63858343D+05 0.63858343D+05 0.63858343D+05 0.11819006D+01  1  2 12  8  6  5       21 0.130973462739D-06 0.100000000000D+01
0.421137105509D-09 0.000000000000D+00 0.000000000000D+00 0.236048725690D-05 0.000000000000D+00  6 2 -1 25 24 4 -4 4 0.12254522D+00 0.13230425D-01 0.63858343D+05 0.63858343D+05 0.63858343D+05 0.11819006D+01  1  2 12  8  6  5       21 0.130973462739D-06 0.100000000000D+01
0.420744117072D-09 0.000000000000D+00 0.000000000000D+00 0.236048725690D-05 0.000000000000D+00  6 2 -1 25 24 3 -3 4 0.12254522D+00 0.13230425D-01 0.63858343D+05 0.63858343D+05 0.63858343D+05 0.11819006D+01  1  2 12  8  6  5       21 0.130851243501D-06 0.100000000000D+01
0.420744117072D-09 0.000000000000D+00 0.000000000000D+00 0.236048725690D-05 0.000000000000D+00  6 2 -1 25 24 4 -4 4 0.12254522D+00 0.13230425D-01 0.63858343D+05 0.63858343D+05 0.63858343D+05 0.11819006D+01  1  2 12  8  6  5       21 0.130851243501D-06 0.100000000000D+01
-.185608993292D-04 0.000000000000D+00 0.000000000000D+00 0.236045944023D-05 0.000000000000D+00  6 2 -1 25 24 3 -3 4 0.12254522D+00 0.13230425D-01 0.63868966D+05 0.63868966D+05 0.63868966D+05 0.11818936D+01  1  2  5  8  6  5       21 -.577229772429D-02 0.100000000000D+01
-.185608993292D-04 0.000000000000D+00 0.000000000000D+00 0.236045944023D-05 0.000000000000D+00  6 2 -1 25 24 4 -4 4 0.12254522D+00 0.13230425D-01 0.63868966D+05 0.63868966D+05 0.63868966D+05 0.11818936D+01  1  2  5  8  6  5       21 -.577229772429D-02 0.100000000000D+01
0.184320550791D-04 0.000000000000D+00 0.000000000000D+00 0.236045944023D-05 0.106047082748D-06  6 2 -1 25 24 3 -3 4 0.12254522D+00 0.13230425D-01 0.63858343D+05 0.63858343D+05 0.63858343D+05 0.11819006D+01  1  2 11  8  6  5       21 0.573236137954D-02 0.100000000000D+01
0.184320550791D-04 0.000000000000D+00 0.000000000000D+00 0.236045944023D-05 0.106047082748D-06  6 2 -1 25 24 4 -4 4 0.12254522D+00 0.13230425D-01 0.63858343D+05 0.63858343D+05 0.63858343D+05 0.11819006D+01  1  2 11  8  6  5       21 0.573236137954D-02 0.100000000000D+01
  </mgrwgt>
  </event>
  <event>
  5     66 -.46179844E-03 0.21530156E+02 0.75467711E-02 0.11997387E+00
        2 -1    0    0  502    0 0.00000000E+00 0.00000000E+00 0.16007392E+04 0.16007393E+04 0.32000000E+00 0.0000E+00 0.9000E+01
       -1 -1    0    0    0  501 0.00000000E+00 0.00000000E+00 -.18253103E+02 0.18255908E+02 0.32000000E+00 0.0000E+00 0.9000E+01
       25  1    1    2    0    0 0.48309404E+02 0.87848961E+02 0.49955051E+03 0.52462077E+03 0.12500000E+03 0.0000E+00 0.9000E+01
       24  1    1    2    0    0 -.56424581E+02 -.67915143E+02 0.10344491E+04 0.10413205E+04 0.80419002E+02 0.0000E+00 0.9000E+01
       21  1    1    2  502  501 0.81151772E+01 -.19933818E+02 0.48486547E+02 0.53053943E+02 0.75000000E+00 0.0000E+00 0.9000E+01
#aMCatNLO 1  0  0  5  2 0.33286277D+01 0.00000000D+00  -5  6  0 0.00000000D+00 0.00000000D+00 0.00000000D+00 0.00000000D+00 0.00000000D+00
  <mgrwgt>
 -.6582141378D+00   20    2    0
 0.170940790435427D+03 0.000000000000000D+00 0.000000000000000D+00 0.170940790435427D+03
 0.170940790435427D+03 -.000000000000000D+00 -.000000000000000D+00 -.170940790435427D+03
 0.172067994507243D+03 0.483078048430367D+02 0.878528897911926D+02 -.626946607003188D+02
 0.143007493997759D+03 -.564259108494348D+02 -.679118776130383D+02 0.786639742768688D+02
 0.268060923658521D+02 0.811810600639813D+01 -.199410121781543D+02 -.159693135765499D+02
 0.000000000000000D+00 0.000000000000000D+00 0.000000000000000D+00 0.000000000000000D+00
 0.170940790435427D+03 0.000000000000000D+00 0.000000000000000D+00 0.170940790435427D+03
 0.170940790435427D+03 -.000000000000000D+00 -.000000000000000D+00 -.170940790435427D+03
 0.172030346437927D+03 0.484572307947947D+02 0.874858454681213D+02 -.629885999366651D+02
 0.142969562456061D+03 -.563017242761308D+02 -.682169248702023D+02 0.784196840040482D+02
 0.183282917575702D+02 0.228602261602928D+01 -.141950845147487D+02 -.113666158098514D+02
 0.855338021929498D+01 0.555847086530676D+01 -.507383608317021D+01 -.406446825753167D+01
0.182013451273D-03 0.000000000000D+00 0.000000000000D+00 0.334994745918D-04 0.000000000000D+00  6 2 -1 25 24 21 21 2 0.24626779D+00 0.28083879D-02 0.22680091D+05 0.22680091D+05 0.22680091D+05 0.12278584D+01  1  2  2  3  6  5       21 0.154818883080D+00 0.100000000000D+01
0.399749740273D-04 0.960511370926D-05 -.698979578130D-06 0.334994745918D-04 0.000000000000D+00  6 2 -1 25 24 21 21 4 0.24626779D+00 0.28083879D-02 0.22680091D+05 0.22680091D+05 0.22680091D+05 0.12278584D+01  1  2  3  3  6  5       21 0.512631372885D-01 0.100000000000D+01
-.158737401210D-05 0.000000000000D+00 0.000000000000D+00 0.334994745918D-04 0.000000000000D+00  6 2 -1 25 24 21 21 4 0.24626779D+00 0.28083879D-02 0.22680091D+05 0.22680091D+05 0.22680091D+05 0.12278584D+01  1  2 15  3  6  5       21 -.203561788070D-02 0.100000000000D+01
0.697643698950D-05 0.000000000000D+00 0.000000000000D+00 0.334937920906D-04 0.000000000000D+00  6 2 -1 25 24 21 21 4 0.24626779D+00 0.28083879D-02 0.22730301D+05 0.22730301D+05 0.22730301D+05 0.12277542D+01  1  2 12  3  6  5       21 0.894363817608D-02 0.100000000000D+01
0.686612072188D-05 0.000000000000D+00 0.000000000000D+00 0.334937920906D-04 0.000000000000D+00  6 2 -1 25 24 21 21 4 0.24626779D+00 0.28083879D-02 0.22730301D+05 0.22730301D+05 0.22730301D+05 0.12277542D+01  1  2 12  3  6  5       21 0.880221515685D-02 0.100000000000D+01
-.134369624453D-02 0.000000000000D+00 0.000000000000D+00 0.334994745918D-04 0.000000000000D+00  6 2 -1 25 24 21 21 4 0.24626779D+00 0.28083879D-02 0.22680091D+05 0.22680091D+05 0.22680091D+05 0.12278584D+01  1  2  4  3  6  5       21 -.172313020167D+01 0.100000000000D+01
-.784265604333D-03 0.000000000000D+00 0.000000000000D+00 0.334994745918D-04 0.000000000000D+00  6 2 -1 25 24 21 21 4 0.24626779D+00 0.28083879D-02 0.22680091D+05 0.22680091D+05 0.22680091D+05 0.12278584D+01  1  2  5  3  6  5       21 -.100572711612D+01 0.100000000000D+01
0.155465985115D-02 0.000000000000D+00 -.000000000000D+00 0.334994745918D-04 0.000000000000D+00  6 2 -1 25 24 21 21 4 0.24626779D+00 0.28083879D-02 0.22680091D+05 0.22680091D+05 0.22680091D+05 0.12278584D+01  1  2  6  3  6  5       21 0.199366587035D+01 0.100000000000D+01
0.279121362002D-06 0.000000000000D+00 0.000000000000D+00 0.334937920906D-04 0.000000000000D+00  6 2 -1 25 24 1 -1 4 0.24626779D+00 0.28083879D-02 0.22730301D+05 0.22730301D+05 0.22730301D+05 0.12277542D+01  1  2 12  6  6  5       21 0.357827422897D-03 0.100000000000D+01
0.275460368413D-06 0.000000000000D+00 0.000000000000D+00 0.334937920906D-04 0.000000000000D+00  6 2 -1 25 24 1 -1 4 0.24626779D+00 0.28083879D-02 0.22730301D+05 0.22730301D+05 0.22730301D+05 0.12277542D+01  1  2 12  6  6  5       21 0.353134109953D-03 0.100000000000D+01
-.287860668468D-04 0.000000000000D+00 0.000000000000D+00 0.334994745918D-04 0.000000000000D+00  6 2 -1 25 24 1 -1 4 0.24626779D+00 0.28083879D-02 0.22680091D+05 0.22680091D+05 0.22680091D+05 0.12278584D+01  1  2  5  6  6  5       21 -.369146980747D-01 0.100000000000D+01
0.279121362002D-06 0.000000000000D+00 0.000000000000D+00 0.334937920906D-04 0.000000000000D+00  6 2 -1 25 24 2 -2 4 0.24626779D+00 0.28083879D-02 0.22730301D+05 0.22730301D+05 0.22730301D+05 0.12277542D+01  1  2 12  7  6  5       21 0.357827422897D-03 0.100000000000D+01
0.275460368413D-06 0.000000000000D+00 0.000000000000D+00 0.334937920906D-04 0.000000000000D+00  6 2 -1 25 24 2 -2 4 0.24626779D+00 0.28083879D-02 0.22730301D+05 0.22730301D+05 0.22730301D+05 0.12277542D+01  1  2 12  7  6  5       21 0.353134109953D-03 0.100000000000D+01
-.287860668468D-04 0.000000000000D+00 0.000000000000D+00 0.334994745918D-04 0.000000000000D+00  6 2 -1 25 24 2 -2 4 0.24626779D+00 0.28083879D-02 0.22680091D+05 0.22680091D+05 0.22680091D+05 0.12278584D+01  1  2  5  7  6  5       21 -.369146980747D-01 0.100000000000D+01
0.279121362002D-06 0.000000000000D+00 0.000000000000D+00 0.334937920906D-04 0.000000000000D+00  6 2 -1 25 24 3 -3 4 0.24626779D+00 0.28083879D-02 0.22730301D+05 0.22730301D+05 0.22730301D+05 0.12277542D+01  1  2 12  8  6  5       21 0.357827422897D-03 0.100000000000D+01
0.279121362002D-06 0.000000000000D+00 0.000000000000D+00 0.334937920906D-04 0.000000000000D+00  6 2 -1 25 24 4 -4 4 0.24626779D+00 0.28083879D-02 0.22730301D+05 0.22730301D+05 0.22730301D+05 0.12277542D+01  1  2 12  8  6  5       21 0.357827422897D-03 0.100000000000D+01
0.275460368413D-06 0.000000000000D+00 0.000000000000D+00 0.334937920906D-04 0.000000000000D+00  6 2 -1 25 24 3 -3 4 0.24626779D+00 0.28083879D-02 0.22730301D+05 0.22730301D+05 0.22730301D+05 0.12277542D+01  1  2 12  8  6  5       21 0.353134109953D-03 0.100000000000D+01
0.275460368413D-06 0.000000000000D+00 0.000000000000D+00 0.334937920906D-04 0.000000000000D+00  6 2 -1 25 24 4 -4 4 0.24626779D+00 0.28083879D-02 0.22730301D+05 0.22730301D+05 0.22730301D+05 0.12277542D+01  1  2 12  8  6  5       21 0.353134109953D-03 0.100000000000D+01
-.287860668468D-04 0.000000000000D+00 0.000000000000D+00 0.334994745918D-04 0.000000000000D+00  6 2 -1 25 24 3 -3 4 0.24626779D+00 0.28083879D-02 0.22680091D+05 0.22680091D+05 0.22680091D+05 0.12278584D+01  1  2  5  8  6  5       21 -.369146980747D-01 0.100000000000D+01
-.287860668468D-04 0.000000000000D+00 0.000000000000D+00 0.334994745918D-04 0.000000000000D+00  6 2 -1 25 24 4 -4 4 0.24626779D+00 0.28083879D-02 0.22680091D+05 0.22680091D+05 0.22680091D+05 0.12278584D+01  1  2  5  8  6  5       21 -.369146980747D-01 0.100000000000D+01
  </mgrwgt>
  </event>
  <event>
  6     66 0.46179844E-03 0.22190803E+02 0.75467711E-02 0.11730182E+00
        2 -1    0    0  502    0 0.00000000E+00 0.00000000E+00 0.21891300E+03 0.21891323E+03 0.32000000E+00 0.0000E+00 0.9000E+01
       -1 -1    0    0    0  503 0.00000000E+00 0.00000000E+00 -.26149279E+03 0.26149299E+03 0.32000000E+00 0.0000E+00 0.9000E+01
       25  1    1    2    0    0 -.53944724E+02 0.95753023E+02 0.10435202E+03 0.19645106E+03 0.12500000E+03 0.0000E+00 0.9000E+01
       24  1    1    2    0    0 0.77356165E+02 -.10778891E+03 -.30074244E+02 0.15803196E+03 0.80419002E+02 0.0000E+00 0.9000E+01
       21  1    1    2  502  501 -.34300154E+01 -.13900072E+01 0.22561939E+01 0.43988677E+01 0.75000000E+00 0.0000E+00 0.9000E+01
       21  1    1    2  501  503 -.19981426E+02 0.13425889E+02 -.11911377E+03 0.12152433E+03 0.75000000E+00 0.0000E+00 0.9000E+01
#aMCatNLO 2  0  0  2  2 0.32855012D+03 0.00000000D+00  -5  6  0 0.00000000D+00 0.00000000D+00 0.00000000D+00 0.00000000D+00 0.00000000D+00
  <mgrwgt>
 0.8428378356D+00    1    2    0
 0.174899435059448D+03 0.000000000000000D+00 0.000000000000000D+00 0.174899435059448D+03
 0.174899435059448D+03 0.000000000000000D+00 0.000000000000000D+00 -.174899435059448D+03
 0.185467917001656D+03 -.642900418874874D+02 0.102736840288018D+03 0.639161982495235D+02
 0.160169728319302D+03 0.680134290270940D+02 -.101483191325799D+03 -.652875276436181D+02
 0.416122479793739D+01 -.372338713960666D+01 -.125364896221899D+01 0.137132939409460D+01
 0.000000000000000D+00 -.000000000000000D+00 0.000000000000000D+00 -.000000000000000D+00
 0.176282766629638D+03 0.000000000000000D+00 0.000000000000000D+00 0.176282766629638D+03
 0.324726417987308D+03 0.000000000000000D+00 0.000000000000000D+00 -.324726417987308D+03
 0.178290966281099D+03 -.539128853506976D+02 0.957642368107112D+02 0.639161982495235D+02
 0.168328780599866D+03 0.773846928114797D+02 -.107779916851536D+03 -.652875276436181D+02
 0.400649487866776D+01 -.349038195532675D+01 -.141020945664545D+01 0.137132939409460D+01
 0.150382942857314D+03 -.199814255054553D+02 0.134258894974702D+02 -.148443651357671D+03
0.362782607417D-02 0.000000000000D+00 0.000000000000D+00 0.888171169981D-03 0.936661883580D-05  6 2 -1 25 24 21 21 4 0.33678779D-01 0.40229481D-01 0.30525299D+05 0.30525299D+05 0.30525299D+05 0.12141080D+01  1  2  1  2  6  2       -1 0.842837835608D+00 0.100000000000D+01
  </mgrwgt>
  </event>
  <event>
  5     66 -.46179844E-03 0.20140762E+02 0.75467711E-02 0.12022429E+00
        2 -1    0    0  502    0 0.00000000E+00 0.00000000E+00 0.33600933E+03 0.33600948E+03 0.32000000E+00 0.0000E+00 0.9000E+01
       -1 -1    0    0    0  501 0.00000000E+00 0.00000000E+00 -.55542474E+02 0.55543396E+02 0.32000000E+00 0.0000E+00 0.9000E+01
       25  1    1    2    0    0 -.30572868E+02 0.42936843E+02 0.13984039E+03 0.19482969E+03 0.12500000E+03 0.0000E+00 0.9000E+01
       24  1    1    2    0    0 0.44289771E+02 -.57675477E+02 0.13931422E+03 0.17653247E+03 0.80419002E+02 0.0000E+00 0.9000E+01
       21  1    1    2  502  501 -.13716902E+02 0.14738635E+02 0.13122472E+01 0.20190722E+02 0.75000000E+00 0.0000E+00 0.9000E+01
#aMCatNLO 1  0  0  1  5 0.32538593D+02 0.00000000D+00  -5  6  0 0.00000000D+00 0.00000000D+00 0.00000000D+00 0.00000000D+00 0.00000000D+00
  <mgrwgt>
 -.7105368944D-01    7    4    0
 0.136612589336263D+03 0.000000000000000D+00 0.000000000000000D+00 0.136612589336263D+03
 0.136612589336263D+03 0.000000000000000D+00 0.000000000000000D+00 -.136612589336263D+03
 0.135657864489056D+03 -.305703500280918D+02 0.429341369088486D+02 0.412049491183677D+00
 0.109980500467216D+03 0.442918120707965D+02 -.576776708640970D+02 0.184395280803722D+02
 0.275868137162547D+02 -.137214620427048D+02 0.147435339552485D+02 -.188515775715559D+02
 0.000000000000000D+00 -.000000000000000D+00 -.000000000000000D+00 0.000000000000000D+00
 0.188973631838937D+03 0.000000000000000D+00 0.000000000000000D+00 0.188973631838937D+03
 0.142084673496668D+03 0.000000000000000D+00 0.000000000000000D+00 -.142084673496668D+03
 0.140055155430148D+03 -.257806953541734D+02 0.576682973984411D+02 0.412049491183677D+00
 0.106036856349943D+03 0.480444405938529D+02 -.461336588881145D+02 0.184395280803722D+02
 0.288641250148157D+02 -.127408028681051D+02 0.177602837311404D+02 -.188515775715559D+02
 0.561021685406979D+02 -.952294237157437D+01 -.292949222414670D+02 0.468889583422681D+02
 0.136612589336263D+03 0.000000000000000D+00 0.000000000000000D+00 0.136612589336263D+03
 0.136612589336263D+03 0.000000000000000D+00 0.000000000000000D+00 -.136612589336263D+03
 0.135657864489056D+03 -.305703500280918D+02 0.429341369088486D+02 0.412049491183677D+00
 0.109980500467216D+03 0.442918120707965D+02 -.576776708640970D+02 0.184395280803722D+02
 0.000000000000000D+00 -.000000000000000D+00 -.000000000000000D+00 0.000000000000000D+00
 0.275868137162547D+02 -.137214620427048D+02 0.147435339552485D+02 -.188515775715559D+02
 0.188973631838937D+03 0.000000000000000D+00 0.000000000000000D+00 0.188973631838937D+03
 0.142084673496668D+03 0.000000000000000D+00 0.000000000000000D+00 -.142084673496668D+03
 0.140055155430148D+03 -.257806953541734D+02 0.576682973984411D+02 0.412049491183677D+00
 0.106036856349943D+03 0.480444405938529D+02 -.461336588881145D+02 0.184395280803722D+02
 0.561021685406979D+02 -.952294237157437D+01 -.292949222414670D+02 0.468889583422681D+02
 0.288641250148157D+02 -.127408028681051D+02 0.177602837311404D+02 -.188515775715559D+02
0.774610384786D-04 0.000000000000D+00 0.000000000000D+00 0.561097529569D-04 0.000000000000D+00  6 2 -1 25 24 21 21 2 0.51693825D-01 0.85450786D-02 0.17453274D+05 0.17453274D+05 0.17453274D+05 0.12403919D+01  1  2  2  1  6  1        2 0.968864817117D-01 0.100000000000D+01
0.151023743990D-04 0.408773130459D-05 -.297470783718D-06 0.561097529569D-04 0.000000000000D+00  6 2 -1 25 24 21 21 4 0.51693825D-01 0.85450786D-02 0.17453274D+05 0.17453274D+05 0.17453274D+05 0.12403919D+01  1  2  3  1  6  1        2 0.290631688488D-01 0.100000000000D+01
0.196377565645D-05 0.000000000000D+00 0.000000000000D+00 0.561097529569D-04 0.000000000000D+00  6 2 -1 25 24 21 21 4 0.51693825D-01 0.85450786D-02 0.17453274D+05 0.17453274D+05 0.17453274D+05 0.12403919D+01  1  2 15  1  6  1        2 0.377911062040D-02 0.100000000000D+01
-.234522661431D-03 0.000000000000D+00 0.000000000000D+00 0.561097529569D-04 0.000000000000D+00  6 2 -1 25 24 21 21 4 0.51693825D-01 0.85450786D-02 0.17453274D+05 0.17453274D+05 0.17453274D+05 0.12403919D+01  1  2  4  1  6  1        2 -.451317887371D+00 0.100000000000D+01
-.495008729630D-03 0.000000000000D+00 -.828146254662D-04 0.561097529569D-04 0.000000000000D+00  6 2 -1 25 24 21 21 4 0.73310980D-01 0.85450786D-02 0.17453274D+05 0.17453274D+05 0.17453274D+05 0.12403919D+01  1  2  5  1  6  1        2 -.655410148699D+00 0.100000000000D+01
0.498044840594D-03 0.000000000000D+00 0.780053072150D-04 0.561097529569D-04 0.000000000000D+00  6 2 -1 25 24 21 21 4 0.51693825D-01 0.85450786D-02 0.17453274D+05 0.17453274D+05 0.17453274D+05 0.12403919D+01  1  2  6  1  6  1        2 0.958442753042D+00 0.100000000000D+01
-.190201352952D-04 0.000000000000D+00 -.357285214148D-05 0.561097529569D-04 0.000000000000D+00  6 21 -1 25 24 -2 21 4 0.73310980D-01 0.85450786D-02 0.17453274D+05 0.17453274D+05 0.17453274D+05 0.12403919D+01  3  4  5  4  5  1        2 -.524971675963D-01 0.100000000000D+01
  </mgrwgt>
  </event>
  <event>
  6     66 0.46179844E-03 0.26950290E+02 0.75467711E-02 0.11042034E+00
        2 -1    0    0  502    0 0.00000000E+00 0.00000000E+00 0.48874443E+03 0.48874453E+03 0.32000000E+00 0.0000E+00 0.9000E+01
       -1 -1    0    0    0  501 0.00000000E+00 0.00000000E+00 -.44498958E+03 0.44498970E+03 0.32000000E+00 0.0000E+00 0.9000E+01
       25  1    1    2    0    0 0.81446220E+01 0.20185027E+03 -.20665246E+03 0.31486522E+03 0.12500000E+03 0.0000E+00 0.9000E+01
       24  1    1    2    0    0 -.37623136E+02 -.19361651E+03 -.11677377E+03 0.24291188E+03 0.80419002E+02 0.0000E+00 0.9000E+01
        3  1    1    2  502    0 0.35977015E+02 0.26093655E+02 0.17058503E+03 0.17628025E+03 0.50000000E+00 0.0000E+00 0.9000E+01
       -3  1    1    2    0  501 -.64985011E+01 -.34327411E+02 0.19659605E+03 0.19967688E+03 0.50000000E+00 0.0000E+00 0.9000E+01
#aMCatNLO 2  0  0  5  1 0.36376992D+00 0.00000000D+00  -5  6  0 0.00000000D+00 0.00000000D+00 0.00000000D+00 0.00000000D+00 0.00000000D+00
  <mgrwgt>
 0.4131537149D-01    1    2    0
 0.466354244451089D+03 0.000000000000000D+00 0.000000000000000D+00 0.466354244451089D+03
 0.466354244451089D+03 -.000000000000000D+00 -.000000000000000D+00 -.466354244451089D+03
 0.326820815294993D+03 0.791316162659496D+01 0.201914916225946D+03 -.224398292748907D+03
 0.249736129501677D+03 -.378001401201901D+02 -.193567070402246D+03 -.130398838518194D+03
 0.356151544105508D+03 0.298869784935952D+02 -.834784582370053D+01 0.354797131267101D+03
 0.000000000000000D+00 0.000000000000000D+00 0.000000000000000D+00 0.000000000000000D+00
 0.466354244451089D+03 0.000000000000000D+00 0.000000000000000D+00 0.466354244451089D+03
 0.466354244451089D+03 -.000000000000000D+00 -.000000000000000D+00 -.466354244451089D+03
 0.324907049676824D+03 0.814448091785824D+01 0.201850305553444D+03 -.221652233257997D+03
 0.248657719351210D+03 -.376232440289180D+02 -.193616479923421D+03 -.128298852876315D+03
 0.168157044514077D+03 0.359429450872539D+02 0.260912963530964D+02 0.162185512832617D+03
 0.190986675360067D+03 -.646418197619406D+01 -.343251219831197D+02 0.187765573301695D+03
0.130175844300D-02 0.000000000000D+00 0.000000000000D+00 0.358039958809D-04 0.195521797335D-08  6 2 -1 25 24 3 -3 4 0.75191467D-01 0.68459953D-01 0.70200038D+05 0.70200038D+05 0.70200038D+05 0.11779571D+01  1  2  1  8  6  5       21 0.413153714875D-01 0.100000000000D+01
  </mgrwgt>
  </event>
  <event>
  6     66 0.46179844E-03 0.14499970E+02 0.75467711E-02 0.11744751E+00
        2 -1    0    0  502    0 0.00000000E+00 0.00000000E+00 0.47843762E+02 0.47844833E+02 0.32000000E+00 0.0000E+00 0.9000E+01
       -1 -1    0    0    0  503 0.00000000E+00 0.00000000E+00 -.16535390E+04 0.16535390E+04 0.32000000E+00 0.0000E+00 0.9000E+01
       25  1    1    2    0    0 -.38334542E+02 0.11096138E+03 -.27029151E+03 0.32010072E+03 0.12500000E+03 0.0000E+00 0.9000E+01
       24  1    1    2    0    0 0.44402001E+02 -.10610701E+03 -.90986010E+03 0.92062091E+03 0.80419002E+02 0.0000E+00 0.9000E+01
       21  1    1    2  502  501 -.17109589E+02 -.12583345E+02 0.10986312E+02 0.23923632E+02 0.75000000E+00 0.0000E+00 0.9000E+01
       21  1    1    2  501  503 0.11042130E+02 0.77289719E+01 -.43652990E+03 0.43673858E+03 0.75000000E+00 0.0000E+00 0.9000E+01
#aMCatNLO 2  0  0  2  5 0.42365795D+02 0.00000000D+00  -5  6  0 0.00000000D+00 0.00000000D+00 0.00000000D+00 0.00000000D+00 0.00000000D+00
  <mgrwgt>
 0.4326871099D+00    1    2    0
 0.240934872055299D+03 0.000000000000000D+00 0.000000000000000D+00 0.240934872055299D+03
 0.240934872055299D+03 0.000000000000000D+00 0.000000000000000D+00 -.240934872055299D+03
 0.185179779478271D+03 -.341028799697220D+02 0.113923356813531D+03 0.672682174412894D+02
 0.207841765788357D+03 0.491709165945892D+02 -.102768985029716D+03 -.154115996343214D+03
 0.888481988439694D+02 -.150680366248672D+02 -.111543717838147D+02 0.868477789019249D+02
 0.000000000000000D+00 0.000000000000000D+00 0.000000000000000D+00 -.000000000000000D+00
 0.241554266008465D+03 0.000000000000000D+00 0.000000000000000D+00 0.241554266008465D+03
 0.327509868287824D+03 0.000000000000000D+00 0.000000000000000D+00 -.327509868287824D+03
 0.184206399672432D+03 -.383343271578341D+02 0.110961542724979D+03 0.672682174412894D+02
 0.208444662354542D+03 0.444022107381206D+02 -.106106854926693D+03 -.154115996343214D+03
 0.894071460051041D+02 -.171100136134536D+02 -.125836596714869D+02 0.868477789019249D+02
 0.870059262642115D+02 0.110421300331670D+02 0.772897187320088D+01 -.859556022793588D+02
0.242880388393D-01 0.000000000000D+00 0.000000000000D+00 0.358062451614D-04 0.660950039239D-06  6 2 -1 25 24 21 21 4 0.73606144D-02 0.25438900D+00 0.30024171D+05 0.30024171D+05 0.30024171D+05 0.12148617D+01  1  2  1  2  6  2       -1 0.432687109863D+00 0.100000000000D+01
  </mgrwgt>
  </event>
  <event>
  5     66 0.46179844E-03 0.94223838E+02 0.75467711E-02 0.11493245E+00
        2 -1    0    0  502    0 0.00000000E+00 0.00000000E+00 0.10608001E+03 0.10608049E+03 0.32000000E+00 0.0000E+00 0.9000E+01
       -1 -1    0    0    0  501 0.00000000E+00 0.00000000E+00 -.53540142E+03 0.53540152E+03 0.32000000E+00 0.0000E+00 0.9000E+01
       25  1    1    2    0    0 -.16173710E+02 -.31891739E+01 -.37816090E+03 0.39862567E+03 0.12500000E+03 0.0000E+00 0.9000E+01
       24  1    1    2    0    0 -.81491905E+02 0.30635144E+02 -.72842235E+02 0.13911380E+03 0.80419002E+02 0.0000E+00 0.9000E+01
       21  1    1    2  502  501 0.97665615E+02 -.27445970E+02 0.21681723E+02 0.10374253E+03 0.75000000E+00 0.0000E+00 0.9000E+01
#aMCatNLO 1  0  0  2  5 0.49231807D+02 0.00000000D+00  -5  6  0 0.00000000D+00 0.00000000D+00 0.00000000D+00 0.00000000D+00 0.00000000D+00
  <mgrwgt>
 0.8206314892D-01    9    4    0
 0.238318217085626D+03 0.000000000000000D+00 0.000000000000000D+00 0.238318217085626D+03
 0.238318217085626D+03 0.000000000000000D+00 0.000000000000000D+00 -.238318217085626D+03
 0.195870139928867D+03 -.161741560034784D+02 -.318904867272221D+01 -.149894424052038D+03
 0.121615398615663D+03 -.814921814829693D+02 0.306352214857136D+02 0.272689711530166D+02
 0.159150895626721D+03 0.976663374864477D+02 -.274461728129914D+02 0.122625452899022D+03
 0.000000000000000D+00 -.000000000000000D+00 0.000000000000000D+00 -.000000000000000D+00
 0.251683195079676D+03 0.000000000000000D+00 0.000000000000000D+00 0.251683195079676D+03
 0.289676206086708D+03 0.000000000000000D+00 0.000000000000000D+00 -.289676206086708D+03
 0.197034683739330D+03 -.136973799115132D+02 -.232746647220809D+02 -.149894424052038D+03
 0.118091750944053D+03 -.799811261297675D+02 0.183811958787169D+02 0.272689711530166D+02
 0.164045832028466D+03 0.997036907583783D+02 -.439682539610032D+02 0.122625452899022D+03
 0.621871344545349D+02 -.602518471709762D+01 0.488617228043672D+02 -.379930110070318D+02
 0.238318217085626D+03 0.000000000000000D+00 0.000000000000000D+00 0.238318217085626D+03
 0.238318217085626D+03 0.000000000000000D+00 0.000000000000000D+00 -.238318217085626D+03
 0.195870139928867D+03 -.161741560034784D+02 -.318904867272221D+01 -.149894424052038D+03
 0.121615398615663D+03 -.814921814829693D+02 0.306352214857136D+02 0.272689711530166D+02
 0.000000000000000D+00 -.000000000000000D+00 0.000000000000000D+00 -.000000000000000D+00
 0.159150895626721D+03 0.976663374864477D+02 -.274461728129914D+02 0.122625452899022D+03
 0.251683195079676D+03 0.000000000000000D+00 0.000000000000000D+00 0.251683195079676D+03
 0.289676206086708D+03 0.000000000000000D+00 0.000000000000000D+00 -.289676206086708D+03
 0.197034683739330D+03 -.136973799115132D+02 -.232746647220809D+02 -.149894424052038D+03
 0.118091750944053D+03 -.799811261297675D+02 0.183811958787169D+02 0.272689711530166D+02
 0.621871344545349D+02 -.602518471709762D+01 0.488617228043672D+02 -.379930110070318D+02
 0.164045832028466D+03 0.997036907583783D+02 -.439682539610032D+02 0.122625452899022D+03
0.402160780138D-03 0.000000000000D+00 0.000000000000D+00 0.233482199379D-05 0.000000000000D+00  6 2 -1 25 24 21 21 2 0.16320046D-01 0.82369494D-01 0.29937779D+05 0.29937779D+05 0.29937779D+05 0.12149930D+01  1  2  2  2  6  2       -1 0.365721993262D-01 0.100000000000D+01
-.287992402179D-04 0.212226074261D-04 -.154440328709D-05 0.233482199379D-05 0.000000000000D+00  6 2 -1 25 24 21 21 4 0.16320046D-01 0.82369494D-01 0.29937779D+05 0.29937779D+05 0.29937779D+05 0.12149930D+01  1  2  3  2  6  2       -1 -.386616137041D-02 0.100000000000D+01
0.139278065469D-04 0.000000000000D+00 0.000000000000D+00 0.233482199379D-05 0.000000000000D+00  6 2 -1 25 24 21 21 4 0.16320046D-01 0.82369494D-01 0.29937779D+05 0.29937779D+05 0.29937779D+05 0.12149930D+01  1  2 15  2  6  2       -1 0.186974195286D-02 0.100000000000D+01
0.821674309914D-03 0.000000000000D+00 0.000000000000D+00 0.228432935701D-05 0.000000000000D+00  6 2 -1 25 24 21 21 4 0.16320046D-01 0.10371768D+00 0.40197067D+05 0.40197067D+05 0.40197067D+05 0.12017836D+01  1  2 12  2  6  2       -1 0.641943822347D-01 0.100000000000D+01
-.677599693360D-03 0.000000000000D+00 0.000000000000D+00 0.233482199379D-05 0.000000000000D+00  6 2 -1 25 24 21 21 4 0.16320046D-01 0.82369494D-01 0.29937779D+05 0.29937779D+05 0.29937779D+05 0.12149930D+01  1  2  4  2  6  2       -1 -.909645441771D-01 0.100000000000D+01
-.148168587649D-02 0.000000000000D+00 -.384688643376D-03 0.233482199379D-05 0.000000000000D+00  6 2 -1 25 24 21 21 4 0.16320046D-01 0.10393517D+00 0.29937779D+05 0.29937779D+05 0.29937779D+05 0.12149930D+01  1  2  5  2  6  2       -1 -.120495176149D+00 0.100000000000D+01
0.153950229877D-02 0.000000000000D+00 0.374515917089D-03 0.233482199379D-05 0.000000000000D+00  6 2 -1 25 24 21 21 4 0.16320046D-01 0.82369494D-01 0.29937779D+05 0.29937779D+05 0.29937779D+05 0.12149930D+01  1  2  6  2  6  2       -1 0.206670879930D+00 0.100000000000D+01
0.261773122513D-04 0.000000000000D+00 0.000000000000D+00 0.228432935701D-05 0.000000000000D+00  6 2 21 25 24 1 21 4 0.16320046D-01 0.10371768D+00 0.40197067D+05 0.40197067D+05 0.40197067D+05 0.12017836D+01  3  4 12  5  5  2       -1 0.176034033967D-01 0.100000000000D+01
-.418042052626D-04 0.000000000000D+00 -.123387126342D-04 0.233482199379D-05 0.000000000000D+00  6 2 21 25 24 1 21 4 0.16320046D-01 0.10393517D+00 0.29937779D+05 0.29937779D+05 0.29937779D+05 0.12149930D+01  3  4  5  5  5  2       -1 -.295215762254D-01 0.100000000000D+01
  </mgrwgt>
  </event>
  <event>
  5     66 0.46179844E-03 0.30868791E+03 0.75467711E-02 0.10552255E+00
        2 -1    0    0  502    0 0.00000000E+00 0.00000000E+00 0.31797825E+04 0.31797826E+04 0.32000000E+00 0.0000E+00 0.9000E+01
       -1 -1    0    0    0  501 0.00000000E+00 0.00000000E+00 -.52556919E+02 0.52557894E+02 0.32000000E+00 0.0000E+00 0.9000E+01
       25  1    1    2    0    0 -.85991433E+02 -.32828144E+03 0.16374469E+04 0.16769080E+04 0.12500000E+03 0.0000E+00 0.9000E+01
       24  1    1    2    0    0 -.58494711E+02 0.55496397E+02 0.66702300E+03 0.67667450E+03 0.80419002E+02 0.0000E+00 0.9000E+01
       21  1    1    2  502  501 0.14448614E+03 0.27278504E+03 0.82275574E+03 0.87875793E+03 0.75000000E+00 0.0000E+00 0.9000E+01
#aMCatNLO 1  0  0  5  1 0.17717892D+03 0.00000000D+00  -5  6  0 0.00000000D+00 0.00000000D+00 0.00000000D+00 0.00000000D+00 0.00000000D+00
  <mgrwgt>
 0.1070688709D-01    3    2    0
 0.408804568453796D+03 0.000000000000000D+00 0.000000000000000D+00 0.408804568453796D+03
 0.408804568453796D+03 -.000000000000000D+00 -.000000000000000D+00 -.408804568453796D+03
 0.366522418546634D+03 -.859916036695641D+02 -.328281757810208D+03 0.595836796837067D+02
 0.123911213775937D+03 -.584947682337433D+02 0.554962879324938D+02 0.488395030692339D+02
 0.327175504585022D+03 0.144486371903307D+03 0.272785469877714D+03 -.108423182752941D+03
 0.000000000000000D+00 0.000000000000000D+00 0.000000000000000D+00 0.000000000000000D+00
 0.408804568453796D+03 0.000000000000000D+00 0.000000000000000D+00 0.408804568453796D+03
 0.408804568453796D+03 -.000000000000000D+00 -.000000000000000D+00 -.408804568453796D+03
 0.280252301585793D+03 -.422948148536254D+02 -.245783672265642D+03 0.267934250936216D+02
 0.131182946889072D+03 -.412603350999379D+02 0.880343251089505D+02 0.359067117706855D+02
 0.187272247461066D+03 0.118352774769381D+03 -.448110560606745D+02 -.138041604700300D+03
 0.218901640971661D+03 -.347976248158180D+02 0.202560403217366D+03 0.753414678359930D+02
0.593942208799D-03 0.000000000000D+00 0.000000000000D+00 0.258835163398D-06 0.000000000000D+00  6 2 -1 25 24 21 21 2 0.48919739D+00 0.80857561D-02 0.15374827D+06 0.15374827D+06 0.15374827D+06 0.11467913D+01  1  2  2  3  6  5       21 0.118133331171D-01 0.100000000000D+01
-.625923567105D-04 0.313431914639D-04 -.228089447037D-05 0.258835163398D-06 0.000000000000D+00  6 2 -1 25 24 21 21 4 0.48919739D+00 0.80857561D-02 0.15374827D+06 0.15374827D+06 0.15374827D+06 0.11467913D+01  1  2  3  3  6  5       21 -.163726247063D-02 0.100000000000D+01
0.202930517216D-04 0.000000000000D+00 0.000000000000D+00 0.258835163398D-06 0.000000000000D+00  6 2 -1 25 24 21 21 4 0.48919739D+00 0.80857561D-02 0.15374827D+06 0.15374827D+06 0.15374827D+06 0.11467913D+01  1  2 15  3  6  5       21 0.530816440609D-03 0.100000000000D+01
  </mgrwgt>
  </event>
  <event>
  6     66 -.46179844E-03 0.43714328E+02 0.75467711E-02 0.12101984E+00
        2 -1    0    0  502    0 0.00000000E+00 0.00000000E+00 0.14958656E+04 0.14958656E+04 0.32000000E+00 0.0000E+00 0.9000E+01
       -1 -1    0    0    0  501 0.00000000E+00 0.00000000E+00 -.19015294E+03 0.19015321E+03 0.32000000E+00 0.0000E+00 0.9000E+01
       25  1    1    2    0    0 -.26615429E+01 0.49045076E+02 0.13702256E+04 0.13767918E+04 0.12500000E+03 0.0000E+00 0.9000E+01
       24  1    1    2    0    0 0.29653664E+02 -.11311132E+02 0.96825655E+02 0.12980641E+03 0.80419002E+02 0.0000E+00 0.9000E+01
       21  1    1    2  503  501 -.95092099E+01 0.95503958E+01 -.95730150E+02 0.96677087E+02 0.75000000E+00 0.0000E+00 0.9000E+01
       21  1    1    2  502  503 -.17482911E+02 -.47284340E+02 -.65608450E+02 0.82743532E+02 0.75000000E+00 0.0000E+00 0.9000E+01
#aMCatNLO 2  0  0  5  1 0.31413844D+02 0.00000000D+00  -5  6  0 0.00000000D+00 0.00000000D+00 0.00000000D+00 0.00000000D+00 0.00000000D+00
  <mgrwgt>
 -.2009603711D+00    2    2    0
 0.533332453449858D+03 0.000000000000000D+00 0.000000000000000D+00 0.533332453449858D+03
 0.533332453449858D+03 -.000000000000000D+00 -.000000000000000D+00 -.533332453449858D+03
 0.500814314640694D+03 -.255032752316165D+01 0.492005505427679D+02 0.482454950648080D+03
 0.866337321205857D+02 0.296729413846142D+02 -.112841828519868D+02 -.551102111400841D+01
 0.479216860138436D+03 -.271226138614524D+02 -.379163676907810D+02 -.476943929534072D+03
 0.000000000000000D+00 0.000000000000000D+00 -.000000000000000D+00 0.000000000000000D+00
 0.533332453449858D+03 0.000000000000000D+00 0.000000000000000D+00 0.533332453449858D+03
 0.533332453449858D+03 -.000000000000000D+00 -.000000000000000D+00 -.533332453449858D+03
 0.498917033994055D+03 -.266147439507330D+01 0.490451715042796D+02 0.480500462555016D+03
 0.866528587137828D+02 0.296536759464124D+02 -.113111151912633D+02 -.584979870554420D+01
 0.269582461385428D+03 -.948455896225772D+01 0.958926422931600D+01 -.269244856291550D+03
 0.211512552806451D+03 -.175076425890813D+02 -.473233205423322D+02 -.205405807557922D+03
-.557902957887D-02 0.000000000000D+00 0.000000000000D+00 0.189842287241D-04 0.000000000000D+00  6 2 -1 25 24 21 21 4 0.23013319D+00 0.29254322D-01 0.20264158D+05 0.20264158D+05 0.20264158D+05 0.12331992D+01  1  2 13  3  6  5       21 -.226142333383D+00 0.100000000000D+01
0.621249947218D-03 0.000000000000D+00 0.000000000000D+00 0.191700075818D-04 0.205482166303D-06  6 2 -1 25 24 21 21 4 0.23013319D+00 0.29254322D-01 0.20264158D+05 0.20264158D+05 0.20264158D+05 0.12331992D+01  1  2  1  3  6  5       21 0.251819623274D-01 0.100000000000D+01
  </mgrwgt>
  </event>
  <event>
  5     66 -.46179844E-03 0.30457662E+02 0.75467711E-02 0.11469910E+00
        2 -1    0    0  502    0 0.00000000E+00 0.00000000E+00 0.14678876E+03 0.14678911E+03 0.32000000E+00 0.0000E+00 0.9000E+01
       -1 -1    0    0    0  501 0.00000000E+00 0.00000000E+00 -.25572415E+03 0.25572435E+03 0.32000000E+00 0.0000E+00 0.9000E+01
       25  1    1    2    0    0 0.18940547E+02 -.69685022E+02 -.17137931E+03 0.22407725E+03 0.12500000E+03 0.0000E+00 0.9000E+01
       24  1    1    2    0    0 0.80244968E+00 0.92866503E+02 0.76678087E+02 0.14481566E+03 0.80419002E+02 0.0000E+00 0.9000E+01
       21  1    1    2  502  501 -.19742997E+02 -.23181481E+02 -.14234158E+02 0.33620540E+02 0.75000000E+00 0.0000E+00 0.9000E+01
#aMCatNLO 1  0  0  1  1 0.93426281D+02 0.00000000D+00  -5  6  0 0.00000000D+00 0.00000000D+00 0.00000000D+00 0.00000000D+00 0.00000000D+00
  <mgrwgt>
 -.1677061836D+00    5    4    0
 0.193746074336162D+03 0.000000000000000D+00 0.000000000000000D+00 0.193746074336162D+03
 0.193746074336162D+03 0.000000000000000D+00 0.000000000000000D+00 -.193746074336162D+03
 0.184582560189624D+03 0.189433144771703D+02 -.696817726638305D+02 -.115027487676647D+03
 0.171988096831914D+03 0.805028338416662D+00 0.928695311611770D+02 0.120363165498299D+03
 0.309214916507867D+02 -.197483428155870D+02 -.231877584973464D+02 -.533567782165113D+01
 0.000000000000000D+00 0.000000000000000D+00 -.000000000000000D+00 0.000000000000000D+00
 0.562014098349366D+03 0.000000000000000D+00 0.000000000000000D+00 0.562014098349366D+03
 0.205313961383643D+03 0.000000000000000D+00 0.000000000000000D+00 -.205313961383643D+03
 0.172830215185410D+03 -.356172733255491D+00 -.318407522024510D+02 -.115027487676647D+03
 0.196775119575832D+03 -.191073571975200D+02 0.131912277752558D+03 0.120363165498299D+03
 0.289904946665236D+02 -.229834555293641D+02 -.168445865227679D+02 -.533567782165113D+01
 0.368732230305244D+03 0.424469854601395D+02 -.832269390273392D+02 0.356700136965723D+03
 0.193746074336162D+03 0.000000000000000D+00 0.000000000000000D+00 0.193746074336162D+03
 0.193746074336162D+03 0.000000000000000D+00 0.000000000000000D+00 -.193746074336162D+03
 0.184582560189624D+03 0.189433144771703D+02 -.696817726638305D+02 -.115027487676647D+03
 0.171988096831914D+03 0.805028338416662D+00 0.928695311611770D+02 0.120363165498299D+03
 0.000000000000000D+00 0.000000000000000D+00 -.000000000000000D+00 0.000000000000000D+00
 0.309214916507867D+02 -.197483428155870D+02 -.231877584973464D+02 -.533567782165113D+01
 0.562014098349366D+03 0.000000000000000D+00 0.000000000000000D+00 0.562014098349366D+03
 0.205313961383643D+03 0.000000000000000D+00 0.000000000000000D+00 -.205313961383643D+03
 0.172830215185410D+03 -.356172733255491D+00 -.318407522024510D+02 -.115027487676647D+03
 0.196775119575832D+03 -.191073571975200D+02 0.131912277752558D+03 0.120363165498299D+03
 0.368732230305244D+03 0.424469854601395D+02 -.832269390273392D+02 0.356700136965723D+03
 0.289904946665236D+02 -.229834555293641D+02 -.168445865227679D+02 -.533567782165113D+01
0.208714499664D-03 0.000000000000D+00 0.000000000000D+00 0.115545386001D-04 0.000000000000D+00  6 2 -1 25 24 21 21 2 0.22582929D-01 0.39342218D-01 0.22151595D+05 0.22151595D+05 0.22151595D+05 0.12289705D+01  1  2  2  1  6  1        2 0.541788996887D-01 0.100000000000D+01
0.290564918309D-04 0.110141667444D-04 -.801518634498D-06 0.115545386001D-04 0.000000000000D+00  6 2 -1 25 24 21 21 4 0.22582929D-01 0.39342218D-01 0.22151595D+05 0.22151595D+05 0.22151595D+05 0.12289705D+01  1  2  3  1  6  1        2 0.113920956158D-01 0.100000000000D+01
0.287537266043D-05 0.000000000000D+00 0.000000000000D+00 0.115545386001D-04 0.000000000000D+00  6 2 -1 25 24 21 21 4 0.22582929D-01 0.39342218D-01 0.22151595D+05 0.22151595D+05 0.22151595D+05 0.12289705D+01  1  2 15  1  6  1        2 0.112733913197D-02 0.100000000000D+01
-.153361919209D-02 0.000000000000D+00 -.159552154102D-03 0.115545386001D-04 0.000000000000D+00  6 2 -1 25 24 21 21 4 0.67544299D-01 0.39342218D-01 0.22151595D+05 0.22151595D+05 0.22151595D+05 0.12289705D+01  1  2  5  1  6  1        2 -.184519493981D+00 0.100000000000D+01
-.183042054659D-03 0.000000000000D+00 -.198777331494D-04 0.115545386001D-04 0.000000000000D+00  6 21 -1 25 24 -2 21 4 0.67544299D-01 0.39342218D-01 0.22151595D+05 0.22151595D+05 0.22151595D+05 0.12289705D+01  3  4  5  4  5  1        2 -.498850240061D-01 0.100000000000D+01
  </mgrwgt>
  </event>
  <event>
  5     66 0.46179844E-03 0.79539266E+02 0.75467711E-02 0.10048712E+00
        2 -1    0    0  502    0 0.00000000E+00 0.00000000E+00 0.86881649E+03 0.86881655E+03 0.32000000E+00 0.0000E+00 0.9000E+01
       -1 -1    0    0    0  501 0.00000000E+00 0.00000000E+00 -.12684575E+03 0.12684615E+03 0.32000000E+00 0.0000E+00 0.9000E+01
       25  1    1    2    0    0 0.26377405E+03 0.56822870E+01 0.22057223E+03 0.36590456E+03 0.12500000E+03 0.0000E+00 0.9000E+01
       24  1    1    2    0    0 -.20749745E+03 0.50523740E+02 0.49646724E+03 0.54640166E+03 0.80419002E+02 0.0000E+00 0.9000E+01
       21  1    1    2  502  501 -.56276598E+02 -.56206027E+02 0.24931279E+02 0.83356488E+02 0.75000000E+00 0.0000E+00 0.9000E+01
#aMCatNLO 1  0  0  1  1 0.93426281D+02 0.00000000D+00  -5  6  0 0.00000000D+00 0.00000000D+00 0.00000000D+00 0.00000000D+00 0.00000000D+00
  <mgrwgt>
 0.3210280668D+00    3    2    0
 0.331972752599991D+03 0.000000000000000D+00 0.000000000000000D+00 0.331972752599991D+03
 0.331972752599991D+03 0.000000000000000D+00 0.000000000000000D+00 -.331972752599991D+03
 0.302223149277488D+03 0.263774810925697D+03 0.568304953947482D+01 -.781305575831082D+02
 0.264581273215888D+03 -.207496781207489D+03 0.505244073550730D+02 0.133896991124223D+03
 0.971410827066055D+02 -.562780297182081D+02 -.562074568945478D+02 -.557664335411150D+02
 0.000000000000000D+00 0.000000000000000D+00 -.000000000000000D+00 -.000000000000000D+00
 0.480383575786166D+03 0.000000000000000D+00 0.000000000000000D+00 0.480383575786166D+03
 0.704241111741691D+03 0.000000000000000D+00 0.000000000000000D+00 -.704241111741691D+03
 0.221665393563775D+03 0.148161334412030D+03 0.738537856902594D+02 -.781305575831082D+02
 0.413839515954320D+03 -.357212950890701D+03 0.138803575223309D+03 0.133896991124223D+03
 0.121716810854613D+03 -.104576321946251D+03 -.277286823148201D+02 -.557664335411150D+02
 0.427402967155149D+03 0.313627938424922D+03 -.184928678598748D+03 -.223857535955525D+03
0.291037550376D-02 0.000000000000D+00 0.000000000000D+00 0.208877676243D-05 0.000000000000D+00  6 2 -1 25 24 21 21 2 0.13366411D+00 0.19514766D-01 0.89906363D+05 0.89906363D+05 0.89906363D+05 0.11678406D+01  1  2  2  1  6  1        2 0.302771678600D+00 0.100000000000D+01
0.165365359848D-03 0.153584734835D-03 -.111766082539D-04 0.208877676243D-05 0.000000000000D+00  6 2 -1 25 24 21 21 4 0.13366411D+00 0.19514766D-01 0.89906363D+05 0.89906363D+05 0.89906363D+05 0.11678406D+01  1  2  3  1  6  1        2 0.234626949069D-01 0.100000000000D+01
-.366941133625D-04 0.000000000000D+00 0.000000000000D+00 0.208877676243D-05 0.000000000000D+00  6 2 -1 25 24 21 21 4 0.13366411D+00 0.19514766D-01 0.89906363D+05 0.89906363D+05 0.89906363D+05 0.11678406D+01  1  2 15  1  6  1        2 -.520630673494D-02 0.100000000000D+01
  </mgrwgt>
  </event>
  <event>
  5     66 0.46179844E-03 0.23729693E+02 0.75467711E-02 0.12436263E+00
        2 -1    0    0  502    0 0.00000000E+00 0.00000000E+00 0.28533407E+04 0.28533408E+04 0.32000000E+00 0.0000E+00 0.9000E+01
       -1 -1    0    0    0  501 0.00000000E+00 0.00000000E+00 -.55987198E+01 0.56078573E+01 0.32000000E+00 0.0000E+00 0.9000E+01
       25  1    1    2    0    0 -.13028693E+02 -.15519510E+02 0.10816182E+04 0.10890057E+04 0.12500000E+03 0.0000E+00 0.9000E+01
       24  1    1    2    0    0 0.19473099E+02 0.38346211E+02 0.14967676E+04 0.14995433E+04 0.80419002E+02 0.0000E+00 0.9000E+01
       21  1    1    2  502  501 -.64444066E+01 -.22826701E+02 0.26935629E+03 0.27039964E+03 0.75000000E+00 0.0000E+00 0.9000E+01
#aMCatNLO 1  0  0  5  1 0.26585136D+01 0.00000000D+00  -5  6  0 0.00000000D+00 0.00000000D+00 0.00000000D+00 0.00000000D+00 0.00000000D+00
  <mgrwgt>
 0.1137265423D+01   19    2    0
 0.126444227822351D+03 0.000000000000000D+00 0.000000000000000D+00 0.126444227822351D+03
 0.126444227822351D+03 -.000000000000000D+00 -.000000000000000D+00 -.126444227822351D+03
 0.131447991631139D+03 -.130270185027062D+02 -.155135804662254D+02 -.352590430089653D+02
 0.977100301323688D+02 0.194743436405944D+02 0.383506192202230D+02 0.350715551307808D+02
 0.237304338811936D+02 -.644732513788823D+01 -.228370387539976D+02 0.187487878184598D+00
 0.000000000000000D+00 0.000000000000000D+00 0.000000000000000D+00 0.000000000000000D+00
 0.126444227822351D+03 0.000000000000000D+00 0.000000000000000D+00 0.126444227822351D+03
 0.126444227822351D+03 -.000000000000000D+00 -.000000000000000D+00 -.126444227822351D+03
 0.131711195941430D+03 -.135197268098714D+02 -.172588001448523D+02 -.352447150771334D+02
 0.971415120981148D+02 0.191095265334796D+02 0.370584023341313D+02 0.350821639931966D+02
 0.213157352910053D+02 -.541008388753680D+01 -.204695593234426D+02 -.246753002617788D+01
 0.272001231415102D+01 -.179715836071375D+00 0.669957134163611D+00 0.263008111011459D+01
0.704513561631D-03 0.000000000000D+00 0.000000000000D+00 0.399825926419D-04 0.000000000000D+00  6 2 -1 25 24 21 21 2 0.43897620D+00 0.86204577D-03 0.14587740D+05 0.14587740D+05 0.14587740D+05 0.12492047D+01  1  2  2  3  6  5       21 0.741024711481D+00 0.100000000000D+01
0.113398911839D-03 0.371782020607D-04 -.270551757934D-05 0.399825926419D-04 0.000000000000D+00  6 2 -1 25 24 21 21 4 0.43897620D+00 0.86204577D-03 0.14587740D+05 0.14587740D+05 0.14587740D+05 0.12492047D+01  1  2  3  3  6  5       21 0.186131306609D+00 0.100000000000D+01
0.315471115772D-04 0.000000000000D+00 0.000000000000D+00 0.399825926419D-04 0.000000000000D+00  6 2 -1 25 24 21 21 4 0.43897620D+00 0.86204577D-03 0.14587740D+05 0.14587740D+05 0.14587740D+05 0.12492047D+01  1  2 15  3  6  5       21 0.517809651114D-01 0.100000000000D+01
0.798079248351D-06 0.000000000000D+00 0.000000000000D+00 0.400408692303D-04 0.000000000000D+00  6 2 -1 25 24 21 21 4 0.43897620D+00 0.86204577D-03 0.14323244D+05 0.14323244D+05 0.14323244D+05 0.12501147D+01  1  2 12  3  6  5       21 0.131369464750D-02 0.100000000000D+01
0.801063109468D-06 0.000000000000D+00 0.000000000000D+00 0.400408692303D-04 0.000000000000D+00  6 2 -1 25 24 21 21 4 0.43897620D+00 0.86204577D-03 0.14323244D+05 0.14323244D+05 0.14323244D+05 0.12501147D+01  1  2 12  3  6  5       21 0.131860629304D-02 0.100000000000D+01
-.132717971682D-02 0.000000000000D+00 0.000000000000D+00 0.399825926419D-04 0.000000000000D+00  6 2 -1 25 24 21 21 4 0.43897620D+00 0.86204577D-03 0.14587740D+05 0.14587740D+05 0.14587740D+05 0.12492047D+01  1  2  4  3  6  5       21 -.217841327390D+01 0.100000000000D+01
0.136855055560D-02 0.000000000000D+00 0.000000000000D+00 0.399825926419D-04 0.361931194235D-03  6 2 -1 25 24 21 21 4 0.43897620D+00 0.86204577D-03 0.14323244D+05 0.14323244D+05 0.14323244D+05 0.12501147D+01  1  2 11  3  6  5       21 0.225273059467D+01 0.100000000000D+01
0.542004095321D-07 0.000000000000D+00 0.000000000000D+00 0.400408692303D-04 0.000000000000D+00  6 2 -1 25 24 1 -1 4 0.43897620D+00 0.86204577D-03 0.14323244D+05 0.14323244D+05 0.14323244D+05 0.12501147D+01  1  2 12  6  6  5       21 0.892176911528D-04 0.100000000000D+01
0.542439502134D-07 0.000000000000D+00 0.000000000000D+00 0.400408692303D-04 0.000000000000D+00  6 2 -1 25 24 1 -1 4 0.43897620D+00 0.86204577D-03 0.14323244D+05 0.14323244D+05 0.14323244D+05 0.12501147D+01  1  2 12  6  6  5       21 0.892893621805D-04 0.100000000000D+01
0.122678353654D-04 0.000000000000D+00 0.000000000000D+00 0.400408692303D-04 0.354667547341D-06  6 2 -1 25 24 1 -1 4 0.43897620D+00 0.86204577D-03 0.14323244D+05 0.14323244D+05 0.14323244D+05 0.12501147D+01  1  2 11  6  6  5       21 0.201937209735D-01 0.100000000000D+01
0.542004095321D-07 0.000000000000D+00 0.000000000000D+00 0.400408692303D-04 0.000000000000D+00  6 2 -1 25 24 2 -2 4 0.43897620D+00 0.86204577D-03 0.14323244D+05 0.14323244D+05 0.14323244D+05 0.12501147D+01  1  2 12  7  6  5       21 0.892176911528D-04 0.100000000000D+01
0.542439502134D-07 0.000000000000D+00 0.000000000000D+00 0.400408692303D-04 0.000000000000D+00  6 2 -1 25 24 2 -2 4 0.43897620D+00 0.86204577D-03 0.14323244D+05 0.14323244D+05 0.14323244D+05 0.12501147D+01  1  2 12  7  6  5       21 0.892893621805D-04 0.100000000000D+01
0.122282099803D-04 0.000000000000D+00 0.000000000000D+00 0.400408692303D-04 0.341797076505D-06  6 2 -1 25 24 2 -2 4 0.43897620D+00 0.86204577D-03 0.14323244D+05 0.14323244D+05 0.14323244D+05 0.12501147D+01  1  2 11  7  6  5       21 0.201284947991D-01 0.100000000000D+01
0.542004095321D-07 0.000000000000D+00 0.000000000000D+00 0.400408692303D-04 0.000000000000D+00  6 2 -1 25 24 3 -3 4 0.43897620D+00 0.86204577D-03 0.14323244D+05 0.14323244D+05 0.14323244D+05 0.12501147D+01  1  2 12  8  6  5       21 0.892176911528D-04 0.100000000000D+01
0.542004095321D-07 0.000000000000D+00 0.000000000000D+00 0.400408692303D-04 0.000000000000D+00  6 2 -1 25 24 4 -4 4 0.43897620D+00 0.86204577D-03 0.14323244D+05 0.14323244D+05 0.14323244D+05 0.12501147D+01  1  2 12  8  6  5       21 0.892176911528D-04 0.100000000000D+01
0.542439502134D-07 0.000000000000D+00 0.000000000000D+00 0.400408692303D-04 0.000000000000D+00  6 2 -1 25 24 3 -3 4 0.43897620D+00 0.86204577D-03 0.14323244D+05 0.14323244D+05 0.14323244D+05 0.12501147D+01  1  2 12  8  6  5       21 0.892893621805D-04 0.100000000000D+01
0.542439502134D-07 0.000000000000D+00 0.000000000000D+00 0.400408692303D-04 0.000000000000D+00  6 2 -1 25 24 4 -4 4 0.43897620D+00 0.86204577D-03 0.14323244D+05 0.14323244D+05 0.14323244D+05 0.12501147D+01  1  2 12  8  6  5       21 0.892893621805D-04 0.100000000000D+01
0.122542064726D-04 0.000000000000D+00 0.000000000000D+00 0.400408692303D-04 0.341120371515D-06  6 2 -1 25 24 3 -3 4 0.43897620D+00 0.86204577D-03 0.14323244D+05 0.14323244D+05 0.14323244D+05 0.12501147D+01  1  2 11  8  6  5       21 0.201712868562D-01 0.100000000000D+01
0.122542064726D-04 0.000000000000D+00 0.000000000000D+00 0.400408692303D-04 0.341120371515D-06  6 2 -1 25 24 4 -4 4 0.43897620D+00 0.86204577D-03 0.14323244D+05 0.14323244D+05 0.14323244D+05 0.12501147D+01  1  2 11  8  6  5       21 0.201712868562D-01 0.100000000000D+01
  </mgrwgt>
  </event>
  <event>
  5     66 -.46179844E-03 0.78054803E+02 0.75467711E-02 0.11688738E+00
        2 -1    0    0  502    0 0.00000000E+00 0.00000000E+00 0.30132570E+04 0.30132570E+04 0.32000000E+00 0.0000E+00 0.9000E+01
       -1 -1    0    0    0  501 0.00000000E+00 0.00000000E+00 -.36291833E+02 0.36293244E+02 0.32000000E+00 0.0000E+00 0.9000E+01
       25  1    1    2    0    0 0.95468922E+02 -.35505980E+02 0.15749246E+03 0.22539712E+03 0.12500000E+03 0.0000E+00 0.9000E+01
       24  1    1    2    0    0 -.21690194E+02 0.10027966E+02 0.15786553E+04 0.15808829E+04 0.80419002E+02 0.0000E+00 0.9000E+01
       21  1    1    2  502  501 -.73778728E+02 0.25478014E+02 0.12408174E+04 0.12432703E+04 0.75000000E+00 0.0000E+00 0.9000E+01
#aMCatNLO 1  0  0  1  2 0.32838868D+02 0.00000000D+00  -5  6  0 0.00000000D+00 0.00000000D+00 0.00000000D+00 0.00000000D+00 0.00000000D+00
  <mgrwgt>
 -.3202533611D-01    4    2    0
 0.330694416992376D+03 0.000000000000000D+00 0.000000000000000D+00 0.330694416992376D+03
 0.330694416992376D+03 0.000000000000000D+00 0.000000000000000D+00 -.330694416992376D+03
 0.330381859826167D+03 0.954693981042484D+02 -.355061442161729D+02 -.288361025540398D+03
 0.183522577880761D+03 -.216899290448927D+02 0.100278745540969D+02 0.163224720393647D+03
 0.147484396277825D+03 -.737794690593557D+02 0.254782696620760D+02 0.125136305146751D+03
 0.000000000000000D+00 -.000000000000000D+00 -.000000000000000D+00 -.000000000000000D+00
 0.346221688636747D+03 0.000000000000000D+00 0.000000000000000D+00 0.346221688636747D+03
 0.348932452584534D+03 0.000000000000000D+00 0.000000000000000D+00 -.348932452584534D+03
 0.333847169099549D+03 0.109385224132234D+03 -.266781559822671D+02 -.288361025540398D+03
 0.183105988030204D+03 -.140089348125893D+02 0.149005803906822D+02 0.163224720393647D+03
 0.145250422581470D+03 -.676465741779496D+02 0.293688848324549D+02 0.125136305146751D+03
 0.329505615100579D+02 -.277297151416953D+02 -.175913092408700D+02 -.271076394778748D+01
0.103204434415D-02 0.000000000000D+00 0.000000000000D+00 0.786918856732D-06 0.000000000000D+00  6 2 -1 25 24 21 21 2 0.46357811D+00 0.55834687D-02 0.26113653D+05 0.26113653D+05 0.26113653D+05 0.12212736D+01  1  2  2  1  6  1        2 0.554962264613D-01 0.100000000000D+01
-.743229024435D-04 0.544624763128D-04 -.396332202505D-05 0.786918856732D-06 0.000000000000D+00  6 2 -1 25 24 21 21 4 0.46357811D+00 0.55834687D-02 0.26113653D+05 0.26113653D+05 0.26113653D+05 0.12212736D+01  1  2  3  1  6  1        2 -.596092508320D-02 0.100000000000D+01
-.639340835630D-05 0.000000000000D+00 0.000000000000D+00 0.786918856732D-06 0.000000000000D+00  6 2 -1 25 24 21 21 4 0.46357811D+00 0.55834687D-02 0.26113653D+05 0.26113653D+05 0.26113653D+05 0.12212736D+01  1  2 15  1  6  1        2 -.512770989631D-03 0.100000000000D+01
-.101053319589D-02 0.000000000000D+00 0.000000000000D+00 0.786918856732D-06 0.000000000000D+00  6 2 -1 25 24 21 21 4 0.46357811D+00 0.55834687D-02 0.26113653D+05 0.26113653D+05 0.26113653D+05 0.12212736D+01  1  2  4  1  6  1        2 -.810478664951D-01 0.100000000000D+01
  </mgrwgt>
  </event>
  <event>
  5     66 0.46179844E-03 0.28307074E+02 0.75467711E-02 0.11592276E+00
        2 -1    0    0  502    0 0.00000000E+00 0.00000000E+00 0.11153203E+04 0.11153203E+04 0.32000000E+00 0.0000E+00 0.9000E+01
       -1 -1    0    0    0  501 0.00000000E+00 0.00000000E+00 -.33210798E+02 0.33212339E+02 0.32000000E+00 0.0000E+00 0.9000E+01
       25  1    1    2    0    0 -.15220334E+02 -.12973432E+03 0.48482955E+03 0.51744309E+03 0.12500000E+03 0.0000E+00 0.9000E+01
       24  1    1    2    0    0 0.39912189E+02 0.14356257E+03 0.55461511E+03 0.57988648E+03 0.80419002E+02 0.0000E+00 0.9000E+01
       21  1    1    2  502  501 -.24691855E+02 -.13828248E+02 0.42664841E+02 0.51203118E+02 0.75000000E+00 0.0000E+00 0.9000E+01
#aMCatNLO 1  0  0  5  1 0.16854683D+01 0.00000000D+00  -5  6  0 0.00000000D+00 0.00000000D+00 0.00000000D+00 0.00000000D+00 0.00000000D+00
  <mgrwgt>
 0.2541344801D+00   14    2    0
 0.192461914728506D+03 0.000000000000000D+00 0.000000000000000D+00 0.192461914728506D+03
 0.192461914728506D+03 -.000000000000000D+00 -.000000000000000D+00 -.192461914728506D+03
 0.180973550043636D+03 -.152173052340258D+02 -.129732628619948D+03 -.801900917629671D+01
 0.171112241220009D+03 0.399150528512402D+02 0.143564176446640D+03 0.246637170362547D+02
 0.328380381933672D+02 -.246977476172143D+02 -.138315478266925D+02 -.166447078599580D+02
 0.000000000000000D+00 0.000000000000000D+00 0.000000000000000D+00 0.000000000000000D+00
 0.192461914728506D+03 0.000000000000000D+00 0.000000000000000D+00 0.192461914728506D+03
 0.192461914728506D+03 -.000000000000000D+00 -.000000000000000D+00 -.192461914728506D+03
 0.181571778131733D+03 -.163673668832205D+02 -.130376700822443D+03 -.879407743225558D+01
 0.170249531215539D+03 0.388321894063985D+02 0.142957737440167D+03 0.239339360873614D+02
 0.310631138143999D+02 -.223469133502786D+02 -.143875463929166D+02 -.160788996001958D+02
 0.203940629534023D+01 -.117909172899397D+00 0.180650977519196D+01 0.939040945089954D+00
0.270943171557D-03 0.000000000000D+00 0.000000000000D+00 0.218669338918D-04 0.000000000000D+00  6 2 -1 25 24 21 21 2 0.17158786D+00 0.51094756D-02 0.35801995D+05 0.35801995D+05 0.35801995D+05 0.12069211D+01  1  2  2  3  6  5       21 0.169567922079D+00 0.100000000000D+01
0.607151461332D-04 0.142980639802D-04 -.104049311976D-05 0.218669338918D-04 0.000000000000D+00  6 2 -1 25 24 21 21 4 0.17158786D+00 0.51094756D-02 0.35801995D+05 0.35801995D+05 0.35801995D+05 0.12069211D+01  1  2  3  3  6  5       21 0.553503387628D-01 0.100000000000D+01
0.778407785971D-06 0.000000000000D+00 0.000000000000D+00 0.218669338918D-04 0.000000000000D+00  6 2 -1 25 24 21 21 4 0.17158786D+00 0.51094756D-02 0.35801995D+05 0.35801995D+05 0.35801995D+05 0.12069211D+01  1  2 15  3  6  5       21 0.709627455307D-03 0.100000000000D+01
0.876179355432D-08 0.000000000000D+00 0.000000000000D+00 0.218679821443D-04 0.000000000000D+00  6 2 -1 25 24 21 21 4 0.17158786D+00 0.51094756D-02 0.35778814D+05 0.35778814D+05 0.35778814D+05 0.12069500D+01  1  2 12  3  6  5       21 0.798830280143D-05 0.100000000000D+01
-.894241464890D-03 0.000000000000D+00 0.000000000000D+00 0.218669338918D-04 0.000000000000D+00  6 2 -1 25 24 21 21 4 0.17158786D+00 0.51094756D-02 0.35801995D+05 0.35801995D+05 0.35801995D+05 0.12069211D+01  1  2  4  3  6  5       21 -.815226037813D+00 0.100000000000D+01
0.909043815569D-03 0.000000000000D+00 0.000000000000D+00 0.218669338918D-04 0.217462824474D-04  6 2 -1 25 24 21 21 4 0.17158786D+00 0.51094756D-02 0.35778814D+05 0.35778814D+05 0.35778814D+05 0.12069500D+01  1  2 11  3  6  5       21 0.828793467172D+00 0.100000000000D+01
0.100407144065D-08 0.000000000000D+00 0.000000000000D+00 0.218679821443D-04 0.000000000000D+00  6 2 -1 25 24 1 -1 4 0.17158786D+00 0.51094756D-02 0.35778814D+05 0.35778814D+05 0.35778814D+05 0.12069500D+01  1  2 12  6  6  5       21 0.915432057660D-06 0.100000000000D+01
0.402987741608D-05 0.000000000000D+00 0.000000000000D+00 0.218679821443D-04 0.145906705984D-06  6 2 -1 25 24 1 -1 4 0.17158786D+00 0.51094756D-02 0.35778814D+05 0.35778814D+05 0.35778814D+05 0.12069500D+01  1  2 11  6  6  5       21 0.367412001353D-02 0.100000000000D+01
0.100407144065D-08 0.000000000000D+00 0.000000000000D+00 0.218679821443D-04 0.000000000000D+00  6 2 -1 25 24 2 -2 4 0.17158786D+00 0.51094756D-02 0.35778814D+05 0.35778814D+05 0.35778814D+05 0.12069500D+01  1  2 12  7  6  5       21 0.915432057660D-06 0.100000000000D+01
0.411390526163D-05 0.000000000000D+00 0.000000000000D+00 0.218679821443D-04 0.138742128652D-06  6 2 -1 25 24 2 -2 4 0.17158786D+00 0.51094756D-02 0.35778814D+05 0.35778814D+05 0.35778814D+05 0.12069500D+01  1  2 11  7  6  5       21 0.375072988454D-02 0.100000000000D+01
0.100407144065D-08 0.000000000000D+00 0.000000000000D+00 0.218679821443D-04 0.000000000000D+00  6 2 -1 25 24 3 -3 4 0.17158786D+00 0.51094756D-02 0.35778814D+05 0.35778814D+05 0.35778814D+05 0.12069500D+01  1  2 12  8  6  5       21 0.915432057660D-06 0.100000000000D+01
0.100407144065D-08 0.000000000000D+00 0.000000000000D+00 0.218679821443D-04 0.000000000000D+00  6 2 -1 25 24 4 -4 4 0.17158786D+00 0.51094756D-02 0.35778814D+05 0.35778814D+05 0.35778814D+05 0.12069500D+01  1  2 12  8  6  5       21 0.915432057660D-06 0.100000000000D+01
0.411456488355D-05 0.000000000000D+00 0.000000000000D+00 0.218679821443D-04 0.138599638373D-06  6 2 -1 25 24 3 -3 4 0.17158786D+00 0.51094756D-02 0.35778814D+05 0.35778814D+05 0.35778814D+05 0.12069500D+01  1  2 11  8  6  5       21 0.375133127506D-02 0.100000000000D+01
0.411456488355D-05 0.000000000000D+00 0.000000000000D+00 0.218679821443D-04 0.138599638373D-06  6 2 -1 25 24 4 -4 4 0.17158786D+00 0.51094756D-02 0.35778814D+05 0.35778814D+05 0.35778814D+05 0.12069500D+01  1  2 11  8  6  5       21 0.375133127506D-02 0.100000000000D+01
  </mgrwgt>
  </event>
  <event>
  5     66 -.46179844E-03 0.20991384E+02 0.75467711E-02 0.12193060E+00
        2 -1    0    0  502    0 0.00000000E+00 0.00000000E+00 0.81086413E+03 0.81086420E+03 0.32000000E+00 0.0000E+00 0.9000E+01
       -1 -1    0    0    0  501 0.00000000E+00 0.00000000E+00 -.41664691E+02 0.41665920E+02 0.32000000E+00 0.0000E+00 0.9000E+01
       25  1    1    2    0    0 -.58070506E+02 0.12451841E+02 0.20136254E+03 0.24433400E+03 0.12500000E+03 0.0000E+00 0.9000E+01
       24  1    1    2    0    0 0.77627881E+02 -.48293730E+01 0.57516947E+03 0.58594927E+03 0.80419002E+02 0.0000E+00 0.9000E+01
       21  1    1    2  502  501 -.19557376E+02 -.76224682E+01 -.73325696E+01 0.22246844E+02 0.75000000E+00 0.0000E+00 0.9000E+01
#aMCatNLO 1  0  0  5  1 0.16958529D+01 0.00000000D+00  -5  6  0 0.00000000D+00 0.00000000D+00 0.00000000D+00 0.00000000D+00 0.00000000D+00
  <mgrwgt>
 -.9567558225D+00   25    2    0
 0.183806839860436D+03 0.000000000000000D+00 0.000000000000000D+00 0.183806839860436D+03
 0.183806839860436D+03 -.000000000000000D+00 -.000000000000000D+00 -.183806839860436D+03
 0.145298998920830D+03 -.580700202991373D+02 0.124520303463501D+02 -.442675814802054D+02
 0.155380198345178D+03 0.776284004415521D+02 -.482917069787402D+01 0.107825324662961D+03
 0.669344824548657D+02 -.195583801424148D+02 -.762285964847605D+01 -.635577431827559D+02
 0.000000000000000D+00 0.000000000000000D+00 0.000000000000000D+00 -.000000000000000D+00
 0.183806839860436D+03 0.000000000000000D+00 0.000000000000000D+00 0.183806839860436D+03
 0.183806839860436D+03 -.000000000000000D+00 -.000000000000000D+00 -.183806839860436D+03
 0.145314212897946D+03 -.580812343219262D+02 0.124476596918689D+02 -.443040230451647D+02
 0.155347316452674D+03 0.776164102591022D+02 -.483384385982862D+01 0.107786360856587D+03
 0.447831212726526D+02 -.146954062496672D+02 -.493939586273953D+01 -.420139899865450D+02
 0.221690290976000D+02 -.483976968750891D+01 -.267441996930073D+01 -.214683478248772D+02
0.189997078114D-04 0.000000000000D+00 0.000000000000D+00 0.367698762545D-04 0.000000000000D+00  6 2 -1 25 24 21 21 2 0.12474843D+00 0.64100519D-02 0.18395615D+05 0.18395615D+05 0.18395615D+05 0.12378442D+01  1  2  2  3  6  5       21 0.135928770553D-01 0.100000000000D+01
0.269029672089D-05 0.100264212724D-05 -.729638807336D-07 0.367698762545D-04 0.000000000000D+00  6 2 -1 25 24 21 21 4 0.12474843D+00 0.64100519D-02 0.18395615D+05 0.18395615D+05 0.18395615D+05 0.12378442D+01  1  2  3  3  6  5       21 0.294914850922D-02 0.100000000000D+01
0.604416614250D-06 0.000000000000D+00 0.000000000000D+00 0.367698762545D-04 0.000000000000D+00  6 2 -1 25 24 21 21 4 0.12474843D+00 0.64100519D-02 0.18395615D+05 0.18395615D+05 0.18395615D+05 0.12378442D+01  1  2 15  3  6  5       21 0.662571657255D-03 0.100000000000D+01
0.469225966188D-06 0.000000000000D+00 0.000000000000D+00 0.367690794948D-04 0.000000000000D+00  6 2 -1 25 24 21 21 4 0.12474843D+00 0.64100519D-02 0.18400724D+05 0.18400724D+05 0.18400724D+05 0.12378308D+01  1  2 12  3  6  5       21 0.514353852026D-03 0.100000000000D+01
0.462607531825D-06 0.000000000000D+00 0.000000000000D+00 0.367690794948D-04 0.000000000000D+00  6 2 -1 25 24 21 21 4 0.12474843D+00 0.64100519D-02 0.18400724D+05 0.18400724D+05 0.18400724D+05 0.12378308D+01  1  2 12  3  6  5       21 0.507098888630D-03 0.100000000000D+01
-.466436523609D-02 0.000000000000D+00 0.000000000000D+00 0.367698762545D-04 0.000000000000D+00  6 2 -1 25 24 21 21 4 0.12474843D+00 0.64100519D-02 0.18395615D+05 0.18395615D+05 0.18395615D+05 0.12378442D+01  1  2  4  3  6  5       21 -.511315561429D+01 0.100000000000D+01
-.220078345243D-02 0.000000000000D+00 0.000000000000D+00 0.367698762545D-04 0.000000000000D+00  6 2 -1 25 24 21 21 4 0.12474843D+00 0.64100519D-02 0.18395615D+05 0.18395615D+05 0.18395615D+05 0.12378442D+01  1  2  5  3  6  5       21 -.241253583200D+01 0.100000000000D+01
0.317713536787D-02 0.000000000000D+00 -.000000000000D+00 0.367698762545D-04 0.000000000000D+00  6 2 -1 25 24 21 21 4 0.12474843D+00 0.64100519D-02 0.18395615D+05 0.18395615D+05 0.18395615D+05 0.12378442D+01  1  2  6  3  6  5       21 0.348282922141D+01 0.100000000000D+01
0.277587188377D-02 0.000000000000D+00 0.000000000000D+00 0.367698762545D-04 0.950761132437D-04  6 2 -1 25 24 21 21 4 0.12474843D+00 0.64100519D-02 0.18400724D+05 0.18400724D+05 0.18400724D+05 0.12378308D+01  1  2 11  3  6  5       21 0.304284182683D+01 0.100000000000D+01
0.625943321325D-08 0.000000000000D+00 0.000000000000D+00 0.367690794948D-04 0.000000000000D+00  6 2 -1 25 24 1 -1 4 0.12474843D+00 0.64100519D-02 0.18400724D+05 0.18400724D+05 0.18400724D+05 0.12378308D+01  1  2 12  6  6  5       21 0.686143525026D-05 0.100000000000D+01
0.616705693117D-08 0.000000000000D+00 0.000000000000D+00 0.367690794948D-04 0.000000000000D+00  6 2 -1 25 24 1 -1 4 0.12474843D+00 0.64100519D-02 0.18400724D+05 0.18400724D+05 0.18400724D+05 0.12378308D+01  1  2 12  6  6  5       21 0.676017466378D-05 0.100000000000D+01
-.244564570344D-04 0.000000000000D+00 0.000000000000D+00 0.367698762545D-04 0.000000000000D+00  6 2 -1 25 24 1 -1 4 0.12474843D+00 0.64100519D-02 0.18395615D+05 0.18395615D+05 0.18395615D+05 0.12378442D+01  1  2  5  6  6  5       21 -.268095794951D-01 0.100000000000D+01
0.299181977052D-04 0.000000000000D+00 0.000000000000D+00 0.367698762545D-04 0.165367799383D-05  6 2 -1 25 24 1 -1 4 0.12474843D+00 0.64100519D-02 0.18400724D+05 0.18400724D+05 0.18400724D+05 0.12378308D+01  1  2 11  6  6  5       21 0.327955853773D-01 0.100000000000D+01
0.625943321325D-08 0.000000000000D+00 0.000000000000D+00 0.367690794948D-04 0.000000000000D+00  6 2 -1 25 24 2 -2 4 0.12474843D+00 0.64100519D-02 0.18400724D+05 0.18400724D+05 0.18400724D+05 0.12378308D+01  1  2 12  7  6  5       21 0.686143525026D-05 0.100000000000D+01
0.616705693117D-08 0.000000000000D+00 0.000000000000D+00 0.367690794948D-04 0.000000000000D+00  6 2 -1 25 24 2 -2 4 0.12474843D+00 0.64100519D-02 0.18400724D+05 0.18400724D+05 0.18400724D+05 0.12378308D+01  1  2 12  7  6  5       21 0.676017466378D-05 0.100000000000D+01
-.244564570344D-04 0.000000000000D+00 0.000000000000D+00 0.367698762545D-04 0.000000000000D+00  6 2 -1 25 24 2 -2 4 0.12474843D+00 0.64100519D-02 0.18395615D+05 0.18395615D+05 0.18395615D+05 0.12378442D+01  1  2  5  7  6  5       21 -.268095794951D-01 0.100000000000D+01
0.302398757246D-04 0.000000000000D+00 0.000000000000D+00 0.367698762545D-04 0.165275431994D-05  6 2 -1 25 24 2 -2 4 0.12474843D+00 0.64100519D-02 0.18400724D+05 0.18400724D+05 0.18400724D+05 0.12378308D+01  1  2 11  7  6  5       21 0.331482008340D-01 0.100000000000D+01
0.625943321325D-08 0.000000000000D+00 0.000000000000D+00 0.367690794948D-04 0.000000000000D+00  6 2 -1 25 24 3 -3 4 0.12474843D+00 0.64100519D-02 0.18400724D+05 0.18400724D+05 0.18400724D+05 0.12378308D+01  1  2 12  8  6  5       21 0.686143525026D-05 0.100000000000D+01
0.625943321325D-08 0.000000000000D+00 0.000000000000D+00 0.367690794948D-04 0.000000000000D+00  6 2 -1 25 24 4 -4 4 0.12474843D+00 0.64100519D-02 0.18400724D+05 0.18400724D+05 0.18400724D+05 0.12378308D+01  1  2 12  8  6  5       21 0.686143525026D-05 0.100000000000D+01
0.616705693117D-08 0.000000000000D+00 0.000000000000D+00 0.367690794948D-04 0.000000000000D+00  6 2 -1 25 24 3 -3 4 0.12474843D+00 0.64100519D-02 0.18400724D+05 0.18400724D+05 0.18400724D+05 0.12378308D+01  1  2 12  8  6  5       21 0.676017466378D-05 0.100000000000D+01
0.616705693117D-08 0.000000000000D+00 0.000000000000D+00 0.367690794948D-04 0.000000000000D+00  6 2 -1 25 24 4 -4 4 0.12474843D+00 0.64100519D-02 0.18400724D+05 0.18400724D+05 0.18400724D+05 0.12378308D+01  1  2 12  8  6  5       21 0.676017466378D-05 0.100000000000D+01
-.244564570344D-04 0.000000000000D+00 0.000000000000D+00 0.367698762545D-04 0.000000000000D+00  6 2 -1 25 24 3 -3 4 0.12474843D+00 0.64100519D-02 0.18395615D+05 0.18395615D+05 0.18395615D+05 0.12378442D+01  1  2  5  8  6  5       21 -.268095794951D-01 0.100000000000D+01
-.244564570344D-04 0.000000000000D+00 0.000000000000D+00 0.367698762545D-04 0.000000000000D+00  6 2 -1 25 24 4 -4 4 0.12474843D+00 0.64100519D-02 0.18395615D+05 0.18395615D+05 0.18395615D+05 0.12378442D+01  1  2  5  8  6  5       21 -.268095794951D-01 0.100000000000D+01
0.302317425581D-04 0.000000000000D+00 0.000000000000D+00 0.367698762545D-04 0.165229623108D-05  6 2 -1 25 24 3 -3 4 0.12474843D+00 0.64100519D-02 0.18400724D+05 0.18400724D+05 0.18400724D+05 0.12378308D+01  1  2 11  8  6  5       21 0.331392854589D-01 0.100000000000D+01
0.302317425581D-04 0.000000000000D+00 0.000000000000D+00 0.367698762545D-04 0.165229623108D-05  6 2 -1 25 24 4 -4 4 0.12474843D+00 0.64100519D-02 0.18400724D+05 0.18400724D+05 0.18400724D+05 0.12378308D+01  1  2 11  8  6  5       21 0.331392854589D-01 0.100000000000D+01
  </mgrwgt>
  </event>
  <event>
  5     66 0.46179844E-03 0.25762023E+02 0.75467711E-02 0.12431196E+00
        2 -1    0    0  502    0 0.00000000E+00 0.00000000E+00 0.76301760E+02 0.76302431E+02 0.32000000E+00 0.0000E+00 0.9000E+01
       -1 -1    0    0    0  501 -.00000000E+00 -.00000000E+00 -.19557493E+03 0.19557520E+03 0.32000000E+00 0.0000E+00 0.9000E+01
       25  1    1    2    0    0 0.13099563E+02 -.38103352E+01 -.85501612E+02 0.15205802E+03 0.12500000E+03 0.0000E+00 0.9000E+01
       24  1    1    2    0    0 -.25963623E+02 0.26121066E+02 -.31744939E+02 0.93975406E+02 0.80419002E+02 0.0000E+00 0.9000E+01
       21  1    1    2  502  501 0.12864060E+02 -.22310731E+02 -.20266232E+01 0.25844196E+02 0.75000000E+00 0.0000E+00 0.9000E+01
#aMCatNLO 1  0  0  5  2 0.11398297D+01 0.00000000D+00  -5  6  0 0.00000000D+00 0.00000000D+00 0.00000000D+00 0.00000000D+00 0.00000000D+00
  <mgrwgt>
 0.4084007216D+00   25    2    0
 0.122159069928389D+03 0.000000000000000D+00 0.000000000000000D+00 0.122159069928389D+03
 0.122159069928389D+03 -.000000000000000D+00 -.000000000000000D+00 -.122159069928389D+03
 0.127469506367317D+03 0.130971139074851D+02 -.380608753764204D+01 -.209154095938308D+02
 0.890796945308235D+02 -.259653341206710D+02 0.261240345438021D+02 0.105504628566923D+02
 0.277689389586375D+02 0.128682202131859D+02 -.223179470061601D+02 0.103649467371385D+02
 0.000000000000000D+00 0.000000000000000D+00 -.000000000000000D+00 0.000000000000000D+00
 0.122159069928389D+03 0.000000000000000D+00 0.000000000000000D+00 0.122159069928389D+03
 0.122159069928389D+03 -.000000000000000D+00 -.000000000000000D+00 -.122159069928389D+03
 0.127473405765786D+03 0.132518741005367D+02 -.407449526846789D+01 -.207907551248028D+02
 0.890037859547628D+02 -.258572305707874D+02 0.259365455781557D+02 0.106375368667788D+02
 0.264768239392569D+02 0.131798389643309D+02 -.206262521618604D+02 0.100931547367540D+02
 0.136412419697246D+01 -.574482494080176D+00 -.123579814782748D+01 0.600635212699982D-01
0.239139313894D-03 0.000000000000D+00 0.000000000000D+00 0.388735203762D-04 0.000000000000D+00  6 2 -1 25 24 21 21 2 0.11738804D-01 0.30088523D-01 0.14394793D+05 0.14394793D+05 0.14394793D+05 0.12498667D+01  1  2  2  3  6  5       21 0.214585787724D+00 0.100000000000D+01
0.302870907260D-04 0.126197283017D-04 -.918357932182D-06 0.388735203762D-04 0.000000000000D+00  6 2 -1 25 24 21 21 4 0.11738804D-01 0.30088523D-01 0.14394793D+05 0.14394793D+05 0.14394793D+05 0.12498667D+01  1  2  3  3  6  5       21 0.424555952221D-01 0.100000000000D+01
0.616729641091D-05 0.000000000000D+00 0.000000000000D+00 0.388735203762D-04 0.000000000000D+00  6 2 -1 25 24 21 21 4 0.11738804D-01 0.30088523D-01 0.14394793D+05 0.14394793D+05 0.14394793D+05 0.12498667D+01  1  2 15  3  6  5       21 0.864514331884D-02 0.100000000000D+01
0.785419602145D-09 0.000000000000D+00 0.000000000000D+00 0.388731059228D-04 0.000000000000D+00  6 2 -1 25 24 21 21 4 0.11738804D-01 0.30088523D-01 0.14396720D+05 0.14396720D+05 0.14396720D+05 0.12498600D+01  1  2 12  3  6  5       21 0.110096076330D-05 0.100000000000D+01
0.831568853900D-09 0.000000000000D+00 0.000000000000D+00 0.388731059228D-04 0.000000000000D+00  6 2 -1 25 24 21 21 4 0.11738804D-01 0.30088523D-01 0.14396720D+05 0.14396720D+05 0.14396720D+05 0.12498600D+01  1  2 12  3  6  5       21 0.116565040856D-05 0.100000000000D+01
-.296955676933D-02 0.000000000000D+00 0.000000000000D+00 0.388735203762D-04 0.000000000000D+00  6 2 -1 25 24 21 21 4 0.11738804D-01 0.30088523D-01 0.14394793D+05 0.14394793D+05 0.14394793D+05 0.12498667D+01  1  2  4  3  6  5       21 -.416264148078D+01 0.100000000000D+01
-.311968167588D-02 0.000000000000D+00 0.000000000000D+00 0.388735203762D-04 0.000000000000D+00  6 2 -1 25 24 21 21 4 0.11738804D-01 0.30088523D-01 0.14394793D+05 0.14394793D+05 0.14394793D+05 0.12498667D+01  1  2  5  3  6  5       21 -.437308236870D+01 0.100000000000D+01
0.340385768801D-02 0.000000000000D+00 -.000000000000D+00 0.388735203762D-04 0.000000000000D+00  6 2 -1 25 24 21 21 4 0.11738804D-01 0.30088523D-01 0.14394793D+05 0.14394793D+05 0.14394793D+05 0.12498667D+01  1  2  6  3  6  5       21 0.477143234072D+01 0.100000000000D+01
0.278810426311D-02 0.000000000000D+00 0.000000000000D+00 0.388735203762D-04 0.191699808950D-03  6 2 -1 25 24 21 21 4 0.11738804D-01 0.30088523D-01 0.14396720D+05 0.14396720D+05 0.14396720D+05 0.12498600D+01  1  2 11  3  6  5       21 0.390822101881D+01 0.100000000000D+01
0.170183489458D-09 0.000000000000D+00 0.000000000000D+00 0.388731059228D-04 0.000000000000D+00  6 2 -1 25 24 1 -1 4 0.11738804D-01 0.30088523D-01 0.14396720D+05 0.14396720D+05 0.14396720D+05 0.12498600D+01  1  2 12  6  6  5       21 0.238554454133D-06 0.100000000000D+01
0.171673300496D-09 0.000000000000D+00 0.000000000000D+00 0.388731059228D-04 0.000000000000D+00  6 2 -1 25 24 1 -1 4 0.11738804D-01 0.30088523D-01 0.14396720D+05 0.14396720D+05 0.14396720D+05 0.12498600D+01  1  2 12  6  6  5       21 0.240642794549D-06 0.100000000000D+01
-.132861431933D-04 0.000000000000D+00 0.000000000000D+00 0.388735203762D-04 0.000000000000D+00  6 2 -1 25 24 1 -1 4 0.11738804D-01 0.30088523D-01 0.14394793D+05 0.14394793D+05 0.14394793D+05 0.12498667D+01  1  2  5  6  6  5       21 -.186241432887D-01 0.100000000000D+01
0.128590287275D-04 0.000000000000D+00 0.000000000000D+00 0.388735203762D-04 0.170292768626D-05  6 2 -1 25 24 1 -1 4 0.11738804D-01 0.30088523D-01 0.14396720D+05 0.14396720D+05 0.14396720D+05 0.12498600D+01  1  2 11  6  6  5       21 0.180251244615D-01 0.100000000000D+01
0.170183489458D-09 0.000000000000D+00 0.000000000000D+00 0.388731059228D-04 0.000000000000D+00  6 2 -1 25 24 2 -2 4 0.11738804D-01 0.30088523D-01 0.14396720D+05 0.14396720D+05 0.14396720D+05 0.12498600D+01  1  2 12  7  6  5       21 0.238554454133D-06 0.100000000000D+01
0.171673300496D-09 0.000000000000D+00 0.000000000000D+00 0.388731059228D-04 0.000000000000D+00  6 2 -1 25 24 2 -2 4 0.11738804D-01 0.30088523D-01 0.14396720D+05 0.14396720D+05 0.14396720D+05 0.12498600D+01  1  2 12  7  6  5       21 0.240642794549D-06 0.100000000000D+01
-.132861431933D-04 0.000000000000D+00 0.000000000000D+00 0.388735203762D-04 0.000000000000D+00  6 2 -1 25 24 2 -2 4 0.11738804D-01 0.30088523D-01 0.14394793D+05 0.14394793D+05 0.14394793D+05 0.12498667D+01  1  2  5  7  6  5       21 -.186241432887D-01 0.100000000000D+01
0.131572852004D-04 0.000000000000D+00 0.000000000000D+00 0.388735203762D-04 0.168953165649D-05  6 2 -1 25 24 2 -2 4 0.11738804D-01 0.30088523D-01 0.14396720D+05 0.14396720D+05 0.14396720D+05 0.12498600D+01  1  2 11  7  6  5       21 0.184432050304D-01 0.100000000000D+01
0.170183489458D-09 0.000000000000D+00 0.000000000000D+00 0.388731059228D-04 0.000000000000D+00  6 2 -1 25 24 3 -3 4 0.11738804D-01 0.30088523D-01 0.14396720D+05 0.14396720D+05 0.14396720D+05 0.12498600D+01  1  2 12  8  6  5       21 0.238554454133D-06 0.100000000000D+01
0.170183489458D-09 0.000000000000D+00 0.000000000000D+00 0.388731059228D-04 0.000000000000D+00  6 2 -1 25 24 4 -4 4 0.11738804D-01 0.30088523D-01 0.14396720D+05 0.14396720D+05 0.14396720D+05 0.12498600D+01  1  2 12  8  6  5       21 0.238554454133D-06 0.100000000000D+01
0.171673300496D-09 0.000000000000D+00 0.000000000000D+00 0.388731059228D-04 0.000000000000D+00  6 2 -1 25 24 3 -3 4 0.11738804D-01 0.30088523D-01 0.14396720D+05 0.14396720D+05 0.14396720D+05 0.12498600D+01  1  2 12  8  6  5       21 0.240642794549D-06 0.100000000000D+01
0.171673300496D-09 0.000000000000D+00 0.000000000000D+00 0.388731059228D-04 0.000000000000D+00  6 2 -1 25 24 4 -4 4 0.11738804D-01 0.30088523D-01 0.14396720D+05 0.14396720D+05 0.14396720D+05 0.12498600D+01  1  2 12  8  6  5       21 0.240642794549D-06 0.100000000000D+01
-.132861431933D-04 0.000000000000D+00 0.000000000000D+00 0.388735203762D-04 0.000000000000D+00  6 2 -1 25 24 3 -3 4 0.11738804D-01 0.30088523D-01 0.14394793D+05 0.14394793D+05 0.14394793D+05 0.12498667D+01  1  2  5  8  6  5       21 -.186241432887D-01 0.100000000000D+01
-.132861431933D-04 0.000000000000D+00 0.000000000000D+00 0.388735203762D-04 0.000000000000D+00  6 2 -1 25 24 4 -4 4 0.11738804D-01 0.30088523D-01 0.14394793D+05 0.14394793D+05 0.14394793D+05 0.12498667D+01  1  2  5  8  6  5       21 -.186241432887D-01 0.100000000000D+01
0.131295824654D-04 0.000000000000D+00 0.000000000000D+00 0.388735203762D-04 0.168458597495D-05  6 2 -1 25 24 3 -3 4 0.11738804D-01 0.30088523D-01 0.14396720D+05 0.14396720D+05 0.14396720D+05 0.12498600D+01  1  2 11  8  6  5       21 0.184043727627D-01 0.100000000000D+01
0.131295824654D-04 0.000000000000D+00 0.000000000000D+00 0.388735203762D-04 0.168458597495D-05  6 2 -1 25 24 4 -4 4 0.11738804D-01 0.30088523D-01 0.14396720D+05 0.14396720D+05 0.14396720D+05 0.12498600D+01  1  2 11  8  6  5       21 0.184043727627D-01 0.100000000000D+01
  </mgrwgt>
  </event>
  <event>
  6     66 0.46179844E-03 0.26576827E+02 0.75467711E-02 0.12207819E+00
       21 -1    0    0  502  503 0.00000000E+00 0.00000000E+00 0.46560273E+02 0.46566313E+02 0.75000000E+00 0.0000E+00 0.9000E+01
       -1 -1    0    0    0  501 0.00000000E+00 0.00000000E+00 -.44425042E+03 0.44425053E+03 0.32000000E+00 0.0000E+00 0.9000E+01
       25  1    1    2    0    0 -.34354151E+01 0.28935849E+02 -.22395160E+03 0.25812479E+03 0.12500000E+03 0.0000E+00 0.9000E+01
       24  1    1    2    0    0 0.91128030E+01 -.63465612E+02 -.10211341E+03 0.14493203E+03 0.80419002E+02 0.0000E+00 0.9000E+01
       -2  1    1    2    0  503 -.10388109E+02 0.28554432E+02 -.21914515E+02 0.37464874E+02 0.32000000E+00 0.0000E+00 0.9000E+01
       21  1    1    2  502  501 0.47107211E+01 0.59753304E+01 -.49710611E+02 0.50295157E+02 0.75000000E+00 0.0000E+00 0.9000E+01
#aMCatNLO 2  0  0  1  2 0.22037299D+03 0.00000000D+00  -5  6  0 0.00000000D+00 0.00000000D+00 0.00000000D+00 0.00000000D+00 0.00000000D+00
  <mgrwgt>
 0.1401033820D-01    1    2    0
 0.125894220147064D+03 0.000000000000000D+00 0.000000000000000D+00 0.125894220147064D+03
 0.125894220147064D+03 0.000000000000000D+00 0.000000000000000D+00 -.125894220147064D+03
 0.133950555345008D+03 -.885440809007467D+01 0.438213814915337D+02 -.178616141147452D+02
 0.100987318216578D+03 0.482034177122345D+01 -.516741886269417D+02 0.322143604804076D+02
 0.000000000000000D+00 -.000000000000000D+00 0.000000000000000D+00 0.000000000000000D+00
 0.168505667325417D+02 0.403406631885122D+01 0.785280713540803D+01 -.143527463656624D+02
 0.152225694228380D+03 0.000000000000000D+00 0.000000000000000D+00 0.152225694228380D+03
 0.135888441780232D+03 0.000000000000000D+00 0.000000000000000D+00 -.135888441780232D+03
 0.129587467242356D+03 -.343762575824779D+01 0.289319397319085D+02 -.178616141147452D+02
 0.107779069150548D+03 0.911134337876071D+01 -.634691278753749D+02 0.322143604804076D+02
 0.344989017116462D+02 -.103881089646480D+02 0.285544321234710D+02 0.163372524481478D+02
 0.162486979040624D+02 0.471439134413512D+01 0.598275601999540D+01 -.143527463656624D+02
0.196450029364D-05 0.000000000000D+00 0.000000000000D+00 0.287769435302D-03 0.104155931458D-06  6 21 -1 25 24 -2 21 4 0.71635545D-02 0.68346330D-01 0.18117843D+05 0.18117843D+05 0.18117843D+05 0.12385797D+01  1  2  1  4  5  1        2 0.140103382037D-01 0.100000000000D+01
  </mgrwgt>
  </event>
  <event>
  6     66 -.46179844E-03 0.35646443E+02 0.75467711E-02 0.11619268E+00
        2 -1    0    0  503    0 0.00000000E+00 0.00000000E+00 0.31453723E+03 0.31453739E+03 0.32000000E+00 0.0000E+00 0.9000E+01
       -1 -1    0    0    0  501 0.00000000E+00 0.00000000E+00 -.11526348E+03 0.11526393E+03 0.32000000E+00 0.0000E+00 0.9000E+01
       25  1    1    2    0    0 -.12101487E+03 0.64175063E+02 0.98180253E+02 0.20982707E+03 0.12500000E+03 0.0000E+00 0.9000E+01
       24  1    1    2    0    0 0.86127880E+02 -.67683332E+02 0.50164131E+02 0.14485407E+03 0.80419002E+02 0.0000E+00 0.9000E+01
       21  1    1    2  502  501 0.40460631E+02 -.51436841E+01 0.26617726E+02 0.48709198E+02 0.75000000E+00 0.0000E+00 0.9000E+01
       21  1    1    2  503  502 -.55736369E+01 0.86519525E+01 0.24311639E+02 0.26410983E+02 0.75000000E+00 0.0000E+00 0.9000E+01
#aMCatNLO 2  0  0  1  5 0.10291827D+02 0.00000000D+00  -5  6  0 0.00000000D+00 0.00000000D+00 0.00000000D+00 0.00000000D+00 0.00000000D+00
  <mgrwgt>
 -.2716886586D+00    3    2    0
 0.181663221692959D+03 0.000000000000000D+00 0.000000000000000D+00 0.181663221692959D+03
 0.181663221692959D+03 0.000000000000000D+00 0.000000000000000D+00 -.181663221692959D+03
 0.189072417504314D+03 -.123891760064967D+03 0.686357089394068D+02 0.795929062889928D+01
 0.133735561652225D+03 0.840521007206833D+02 -.644647377026286D+02 -.140544104620866D+02
 0.405184642293792D+02 0.398396593442832D+02 -.417097123677827D+01 0.609511983318728D+01
 0.000000000000000D+00 -.000000000000000D+00 0.000000000000000D+00 0.000000000000000D+00
 0.197666146459303D+03 0.000000000000000D+00 0.000000000000000D+00 0.197666146459303D+03
 0.183398383809057D+03 0.000000000000000D+00 0.000000000000000D+00 -.183398383809057D+03
 0.185613253737936D+03 -.121018389335238D+03 0.641753776659915D+02 0.795929062889928D+01
 0.136613722677005D+03 0.861253417865054D+02 -.676830282864163D+02 -.140544104620866D+02
 0.412452043282785D+02 0.404666844750010D+02 -.514430188667414D+01 0.609511983318728D+01
 0.175923495251407D+02 -.557363692626792D+01 0.865195250709900D+01 0.142677626502464D+02
-.135942200758D-02 0.000000000000D+00 0.000000000000D+00 0.114031950656D-04 0.000000000000D+00  6 2 -1 25 24 21 21 4 0.50602416D-01 0.17564357D-01 0.34673339D+05 0.34673339D+05 0.34673339D+05 0.12083544D+01  1  2 13  1  6  1        2 -.801165419792D+00 0.100000000000D+01
-.118607632763D-04 0.000000000000D+00 0.000000000000D+00 0.114516025967D-04 0.000000000000D+00  6 2 -1 25 24 21 21 4 0.44470812D-01 0.17564357D-01 0.32753259D+05 0.32753259D+05 0.32753259D+05 0.12109164D+01  1  2  8  1  6  1        2 -.808603692344D-02 0.100000000000D+01
0.882788112538D-03 0.000000000000D+00 0.000000000000D+00 0.114516025967D-04 0.280808559351D-06  6 2 -1 25 24 21 21 4 0.48388297D-01 0.17732123D-01 0.34673339D+05 0.34673339D+05 0.34673339D+05 0.12083544D+01  1  2  1  1  6  1        2 0.537562798077D+00 0.100000000000D+01
  </mgrwgt>
  </event>
  <event>
  5     66 0.46179844E-03 0.10129123E+03 0.75467711E-02 0.11057291E+00
        2 -1    0    0  502    0 0.00000000E+00 0.00000000E+00 0.70325529E+03 0.70325537E+03 0.32000000E+00 0.0000E+00 0.9000E+01
       -1 -1    0    0    0  501 0.00000000E+00 0.00000000E+00 -.10934735E+03 0.10934782E+03 0.32000000E+00 0.0000E+00 0.9000E+01
       25  1    1    2    0    0 -.69207348E+02 0.95825268E+02 0.31366584E+03 0.35774767E+03 0.12500000E+03 0.0000E+00 0.9000E+01
       24  1    1    2    0    0 0.53802260E+02 -.21405141E+03 0.21746277E+03 0.32010929E+03 0.80419002E+02 0.0000E+00 0.9000E+01
       21  1    1    2  502  501 0.15405087E+02 0.11822614E+03 0.62779336E+02 0.13474622E+03 0.75000000E+00 0.0000E+00 0.9000E+01
#aMCatNLO 1  0  0  5  1 0.10409443D+02 0.00000000D+00  -5  6  0 0.00000000D+00 0.00000000D+00 0.00000000D+00 0.00000000D+00 0.00000000D+00
  <mgrwgt>
 0.5901277550D-01   20    2    0
 0.277307273400798D+03 0.000000000000000D+00 0.000000000000000D+00 0.277307273400798D+03
 0.277307273400798D+03 -.000000000000000D+00 -.000000000000000D+00 -.277307273400798D+03
 0.188271589552321D+03 -.692074344712130D+02 0.958246022447046D+02 0.764798538905163D+02
 0.236144819202937D+03 0.538021516393845D+02 -.214052242298144D+03 -.241686931406434D+02
 0.130198138046338D+03 0.154052828318286D+02 0.118227640053439D+03 -.523111607498729D+02
 0.000000000000000D+00 0.000000000000000D+00 0.000000000000000D+00 -.000000000000000D+00
 0.277307273400798D+03 0.000000000000000D+00 0.000000000000000D+00 0.277307273400798D+03
 0.277307273400798D+03 -.000000000000000D+00 -.000000000000000D+00 -.277307273400798D+03
 0.188751241301527D+03 -.689891830235701D+02 0.974995701031171D+02 0.757387453574129D+02
 0.234411484559857D+03 0.540745478607516D+02 -.211961741087405D+03 -.250936591201158D+02
 0.134365190900665D+02 -.702325336808416D+01 0.112426148236416D+02 0.219489619632736D+01
 0.118015301850145D+03 0.219378885309027D+02 0.103219556160647D+03 -.528399824336244D+02
0.265236331327D-03 0.000000000000D+00 0.000000000000D+00 0.116389915622D-05 0.000000000000D+00  6 2 -1 25 24 21 21 2 0.10819316D+00 0.16822711D-01 0.69213640D+05 0.69213640D+05 0.69213640D+05 0.11785439D+01  1  2  2  3  6  5       21 0.467961340574D-01 0.100000000000D+01
-.102743531845D-04 0.139969057474D-04 -.101857735063D-05 0.116389915622D-05 0.000000000000D+00  6 2 -1 25 24 21 21 4 0.10819316D+00 0.16822711D-01 0.69213640D+05 0.69213640D+05 0.69213640D+05 0.11785439D+01  1  2  3  3  6  5       21 -.251781019563D-02 0.100000000000D+01
0.555138491689D-05 0.000000000000D+00 0.000000000000D+00 0.116389915622D-05 0.000000000000D+00  6 2 -1 25 24 21 21 4 0.10819316D+00 0.16822711D-01 0.69213640D+05 0.69213640D+05 0.69213640D+05 0.11785439D+01  1  2 15  3  6  5       21 0.136041007085D-02 0.100000000000D+01
0.121092147846D-04 0.000000000000D+00 0.000000000000D+00 0.116434700447D-05 0.000000000000D+00  6 2 -1 25 24 21 21 4 0.10819316D+00 0.16822711D-01 0.68836657D+05 0.68836657D+05 0.68836657D+05 0.11787706D+01  1  2 12  3  6  5       21 0.296973301822D-02 0.100000000000D+01
0.108774319520D-04 0.000000000000D+00 0.000000000000D+00 0.116434700447D-05 0.000000000000D+00  6 2 -1 25 24 21 21 4 0.10819316D+00 0.16822711D-01 0.68836657D+05 0.68836657D+05 0.68836657D+05 0.11787706D+01  1  2 12  3  6  5       21 0.266764355871D-02 0.100000000000D+01
-.186482275120D-03 0.000000000000D+00 0.000000000000D+00 0.116389915622D-05 0.000000000000D+00  6 2 -1 25 24 21 21 4 0.10819316D+00 0.16822711D-01 0.69213640D+05 0.69213640D+05 0.69213640D+05 0.11785439D+01  1  2  4  3  6  5       21 -.456989325917D-01 0.100000000000D+01
-.168444238756D-04 0.000000000000D+00 0.000000000000D+00 0.116389915622D-05 0.000000000000D+00  6 2 -1 25 24 21 21 4 0.10819316D+00 0.16822711D-01 0.69213640D+05 0.69213640D+05 0.69213640D+05 0.11785439D+01  1  2  5  3  6  5       21 -.412785714215D-02 0.100000000000D+01
0.231299016441D-03 0.000000000000D+00 -.000000000000D+00 0.116389915622D-05 0.000000000000D+00  6 2 -1 25 24 21 21 4 0.10819316D+00 0.16822711D-01 0.69213640D+05 0.69213640D+05 0.69213640D+05 0.11785439D+01  1  2  6  3  6  5       21 0.566816237849D-01 0.100000000000D+01
0.774971021135D-05 0.000000000000D+00 0.000000000000D+00 0.116434700447D-05 0.000000000000D+00  6 2 -1 25 24 1 -1 4 0.10819316D+00 0.16822711D-01 0.68836657D+05 0.68836657D+05 0.68836657D+05 0.11787706D+01  1  2 12  6  6  5       21 0.190058320920D-02 0.100000000000D+01
0.748555978873D-05 0.000000000000D+00 0.000000000000D+00 0.116434700447D-05 0.000000000000D+00  6 2 -1 25 24 1 -1 4 0.10819316D+00 0.16822711D-01 0.68836657D+05 0.68836657D+05 0.68836657D+05 0.11787706D+01  1  2 12  6  6  5       21 0.183580145037D-02 0.100000000000D+01
-.143473384323D-04 0.000000000000D+00 0.000000000000D+00 0.116389915622D-05 0.000000000000D+00  6 2 -1 25 24 1 -1 4 0.10819316D+00 0.16822711D-01 0.69213640D+05 0.69213640D+05 0.69213640D+05 0.11785439D+01  1  2  5  6  6  5       21 -.351592692372D-02 0.100000000000D+01
0.774971021135D-05 0.000000000000D+00 0.000000000000D+00 0.116434700447D-05 0.000000000000D+00  6 2 -1 25 24 2 -2 4 0.10819316D+00 0.16822711D-01 0.68836657D+05 0.68836657D+05 0.68836657D+05 0.11787706D+01  1  2 12  7  6  5       21 0.190058320920D-02 0.100000000000D+01
0.748555978873D-05 0.000000000000D+00 0.000000000000D+00 0.116434700447D-05 0.000000000000D+00  6 2 -1 25 24 2 -2 4 0.10819316D+00 0.16822711D-01 0.68836657D+05 0.68836657D+05 0.68836657D+05 0.11787706D+01  1  2 12  7  6  5       21 0.183580145037D-02 0.100000000000D+01
-.143473384323D-04 0.000000000000D+00 0.000000000000D+00 0.116389915622D-05 0.000000000000D+00  6 2 -1 25 24 2 -2 4 0.10819316D+00 0.16822711D-01 0.69213640D+05 0.69213640D+05 0.69213640D+05 0.11785439D+01  1  2  5  7  6  5       21 -.351592692372D-02 0.100000000000D+01
0.774971021135D-05 0.000000000000D+00 0.000000000000D+00 0.116434700447D-05 0.000000000000D+00  6 2 -1 25 24 3 -3 4 0.10819316D+00 0.16822711D-01 0.68836657D+05 0.68836657D+05 0.68836657D+05 0.11787706D+01  1  2 12  8  6  5       21 0.190058320920D-02 0.100000000000D+01
0.774971021135D-05 0.000000000000D+00 0.000000000000D+00 0.116434700447D-05 0.000000000000D+00  6 2 -1 25 24 4 -4 4 0.10819316D+00 0.16822711D-01 0.68836657D+05 0.68836657D+05 0.68836657D+05 0.11787706D+01  1  2 12  8  6  5       21 0.190058320920D-02 0.100000000000D+01
0.748555978873D-05 0.000000000000D+00 0.000000000000D+00 0.116434700447D-05 0.000000000000D+00  6 2 -1 25 24 3 -3 4 0.10819316D+00 0.16822711D-01 0.68836657D+05 0.68836657D+05 0.68836657D+05 0.11787706D+01  1  2 12  8  6  5       21 0.183580145037D-02 0.100000000000D+01
0.748555978873D-05 0.000000000000D+00 0.000000000000D+00 0.116434700447D-05 0.000000000000D+00  6 2 -1 25 24 4 -4 4 0.10819316D+00 0.16822711D-01 0.68836657D+05 0.68836657D+05 0.68836657D+05 0.11787706D+01  1  2 12  8  6  5       21 0.183580145037D-02 0.100000000000D+01
-.143473384323D-04 0.000000000000D+00 0.000000000000D+00 0.116389915622D-05 0.000000000000D+00  6 2 -1 25 24 3 -3 4 0.10819316D+00 0.16822711D-01 0.69213640D+05 0.69213640D+05 0.69213640D+05 0.11785439D+01  1  2  5  8  6  5       21 -.351592692372D-02 0.100000000000D+01
-.143473384323D-04 0.000000000000D+00 0.000000000000D+00 0.116389915622D-05 0.000000000000D+00  6 2 -1 25 24 4 -4 4 0.10819316D+00 0.16822711D-01 0.69213640D+05 0.69213640D+05 0.69213640D+05 0.11785439D+01  1  2  5  8  6  5       21 -.351592692372D-02 0.100000000000D+01
  </mgrwgt>
  </event>
  <event>
  5     66 0.46179844E-03 0.46241518E+02 0.75467711E-02 0.10490609E+00
        2 -1    0    0  502    0 0.00000000E+00 0.00000000E+00 0.24527300E+03 0.24527321E+03 0.32000000E+00 0.0000E+00 0.9000E+01
       -1 -1    0    0    0  501 0.00000000E+00 0.00000000E+00 -.32689075E+03 0.32689090E+03 0.32000000E+00 0.0000E+00 0.9000E+01
       25  1    1    2    0    0 0.18536353E+03 0.51193501E+01 -.40893908E+02 0.22733930E+03 0.12500000E+03 0.0000E+00 0.9000E+01
       24  1    1    2    0    0 -.14997928E+03 0.24649366E+02 0.98466867E+02 0.19815226E+03 0.80419002E+02 0.0000E+00 0.9000E+01
       21  1    1    2  502  501 -.35384246E+02 -.29768716E+02 -.13919071E+03 0.14667255E+03 0.75000000E+00 0.0000E+00 0.9000E+01
#aMCatNLO 1  0  0  2  1 0.76717988D+02 0.00000000D+00  -5  6  0 0.00000000D+00 0.00000000D+00 0.00000000D+00 0.00000000D+00 0.00000000D+00
  <mgrwgt>
 0.1445968785D+00    5    4    0
 0.283156453714332D+03 0.000000000000000D+00 0.000000000000000D+00 0.283156453714332D+03
 0.283156453714332D+03 0.000000000000000D+00 0.000000000000000D+00 -.283156453714332D+03
 0.223794682044600D+03 0.185363769765134D+03 0.511955163296871D+01 -.855118477050602D+01
 0.214391081702844D+03 -.149979054617403D+03 0.246495590402011D+02 0.128042970812688D+03
 0.128127143681220D+03 -.353847151477316D+02 -.297691106731698D+02 -.119491786042182D+03
 0.000000000000000D+00 0.000000000000000D+00 0.000000000000000D+00 -.000000000000000D+00
 0.359223874768855D+03 0.000000000000000D+00 0.000000000000000D+00 0.359223874768855D+03
 0.590286579606302D+03 0.000000000000000D+00 0.000000000000000D+00 -.590286579606302D+03
 0.185240059098202D+03 0.125644344107317D+03 -.531907466348065D+02 -.855118477050602D+01
 0.271384267141618D+03 -.220902675311981D+03 -.446005623629686D+02 0.128042970812688D+03
 0.158898353439593D+03 -.772906857489434D+02 -.706862765373965D+02 -.119491786042182D+03
 0.333987774695744D+03 0.172549016953608D+03 0.168477585535172D+03 -.231062704837447D+03
 0.283156453714332D+03 0.000000000000000D+00 0.000000000000000D+00 0.283156453714332D+03
 0.283156453714332D+03 0.000000000000000D+00 0.000000000000000D+00 -.283156453714332D+03
 0.223794682044600D+03 0.185363769765134D+03 0.511955163296871D+01 -.855118477050602D+01
 0.214391081702844D+03 -.149979054617403D+03 0.246495590402011D+02 0.128042970812688D+03
 0.000000000000000D+00 0.000000000000000D+00 0.000000000000000D+00 -.000000000000000D+00
 0.128127143681220D+03 -.353847151477316D+02 -.297691106731698D+02 -.119491786042182D+03
 0.359223874768855D+03 0.000000000000000D+00 0.000000000000000D+00 0.359223874768855D+03
 0.590286579606302D+03 0.000000000000000D+00 0.000000000000000D+00 -.590286579606302D+03
 0.185240059098202D+03 0.125644344107317D+03 -.531907466348065D+02 -.855118477050602D+01
 0.271384267141618D+03 -.220902675311981D+03 -.446005623629686D+02 0.128042970812688D+03
 0.333987774695744D+03 0.172549016953608D+03 0.168477585535172D+03 -.231062704837447D+03
 0.158898353439593D+03 -.772906857489434D+02 -.706862765373965D+02 -.119491786042182D+03
0.154078853109D-02 0.000000000000D+00 0.000000000000D+00 0.807037052881D-05 0.000000000000D+00  6 2 -1 25 24 21 21 2 0.37734335D-01 0.50290912D-01 0.48802952D+05 0.48802952D+05 0.48802952D+05 0.11933254D+01  1  2  2  2  6  2       -1 0.138819541290D+00 0.100000000000D+01
0.144754259610D-03 0.813096446422D-04 -.591703365834D-05 0.807037052881D-05 0.000000000000D+00  6 2 -1 25 24 21 21 4 0.37734335D-01 0.50290912D-01 0.48802952D+05 0.48802952D+05 0.48802952D+05 0.11933254D+01  1  2  3  2  6  2       -1 0.185719154359D-01 0.100000000000D+01
0.841631882321D-05 0.000000000000D+00 0.000000000000D+00 0.807037052881D-05 0.000000000000D+00  6 2 -1 25 24 21 21 4 0.37734335D-01 0.50290912D-01 0.48802952D+05 0.48802952D+05 0.48802952D+05 0.11933254D+01  1  2 15  2  6  2       -1 0.107981044487D-02 0.100000000000D+01
-.601046582984D-03 0.000000000000D+00 -.744249572088D-03 0.807037052881D-05 0.000000000000D+00  6 2 -1 25 24 21 21 4 0.37734335D-01 0.12433421D+00 0.48802952D+05 0.48802952D+05 0.48802952D+05 0.11933254D+01  1  2  5  2  6  2       -1 -.116756763991D-01 0.100000000000D+01
-.135306736337D-04 0.000000000000D+00 -.740246639587D-04 0.807037052881D-05 0.000000000000D+00  6 2 21 25 24 1 21 4 0.37734335D-01 0.12433421D+00 0.48802952D+05 0.48802952D+05 0.48802952D+05 0.11933254D+01  3  4  5  5  5  2       -1 -.219871230146D-02 0.100000000000D+01
  </mgrwgt>
  </event>
  <event>
  5     66 0.46179844E-03 0.41813820E+02 0.75467711E-02 0.10819848E+00
        4 -1    0    0  502    0 0.00000000E+00 0.00000000E+00 0.33297579E+03 0.33297939E+03 0.15500000E+01 0.0000E+00 0.9000E+01
       -3 -1    0    0    0  501 0.00000000E+00 0.00000000E+00 -.23590054E+03 0.23590107E+03 0.50000000E+00 0.0000E+00 0.9000E+01
       25  1    1    2    0    0 0.11865582E+03 0.22038425E+03 0.60704313E+02 0.28628384E+03 0.12500000E+03 0.0000E+00 0.9000E+01
       24  1    1    2    0    0 -.10380403E+03 -.18130107E+03 -.48054261E+01 0.22390994E+03 0.80419002E+02 0.0000E+00 0.9000E+01
       21  1    1    2  502  501 -.14851796E+02 -.39083186E+02 0.41176363E+02 0.58686681E+02 0.75000000E+00 0.0000E+00 0.9000E+01
#aMCatNLO 1  0  0  1  5 0.65177955D+02 0.00000000D+00  -5  6  0 0.00000000D+00 0.00000000D+00 0.00000000D+00 0.00000000D+00 0.00000000D+00
  <mgrwgt>
 0.4234435328D-01    4    2    0
 0.280268340816422D+03 0.000000000000000D+00 0.000000000000000D+00 0.280268340816422D+03
 0.280268340816422D+03 0.000000000000000D+00 0.000000000000000D+00 -.280268340816422D+03
 0.280034157731880D+03 0.118656581213482D+03 0.220386249605300D+03 0.120268955363523D+02
 0.228073806558942D+03 -.103803408013459D+03 -.181299438703025D+03 -.436555986635695D+02
 0.524287173420224D+02 -.148531732000229D+02 -.390868109022744D+02 0.316287031272172D+02
 0.000000000000000D+00 0.000000000000000D+00 -.000000000000000D+00 -.000000000000000D+00
 0.310115297221214D+03 0.000000000000000D+00 0.000000000000000D+00 0.310115297221214D+03
 0.320142840857471D+03 0.000000000000000D+00 0.000000000000000D+00 -.320142840857471D+03
 0.301225815043501D+03 0.107054660961183D+03 0.252005247958977D+03 0.120268955363523D+02
 0.213977386543254D+03 -.112626727921963D+03 -.157253028143906D+03 -.436555986635695D+02
 0.491101308895555D+02 -.168798835789745D+02 -.335633673048443D+02 0.316287031272172D+02
 0.659448056023741D+02 0.224519505397540D+02 -.611888525102269D+02 -.100275436362573D+02
0.483232672638D-02 0.000000000000D+00 0.000000000000D+00 0.865967252428D-05 0.000000000000D+00  6 4 -3 25 24 21 21 2 0.51227362D-01 0.36292708D-01 0.74377932D+05 0.74377932D+05 0.74377932D+05 0.11755692D+01  1  2  2  1  6  1        4 0.395807063900D-01 0.100000000000D+01
0.988368757019D-03 0.255008887324D-03 -.185574070101D-04 0.865967252428D-05 0.000000000000D+00  6 4 -3 25 24 21 21 4 0.51227362D-01 0.36292708D-01 0.74377932D+05 0.74377932D+05 0.74377932D+05 0.11755692D+01  1  2  3  1  6  1        4 0.111877466532D-01 0.100000000000D+01
0.673694246783D-05 0.000000000000D+00 0.000000000000D+00 0.865967252428D-05 0.000000000000D+00  6 4 -3 25 24 21 21 4 0.51227362D-01 0.36292708D-01 0.74377932D+05 0.74377932D+05 0.74377932D+05 0.11755692D+01  1  2 15  1  6  1        4 0.762581830029D-04 0.100000000000D+01
-.750954457837D-03 0.000000000000D+00 0.000000000000D+00 0.865967252428D-05 0.000000000000D+00  6 4 -3 25 24 21 21 4 0.51227362D-01 0.36292708D-01 0.74377932D+05 0.74377932D+05 0.74377932D+05 0.11755692D+01  1  2  4  1  6  1        4 -.850035795110D-02 0.100000000000D+01
  </mgrwgt>
  </event>
  <event>
  5     66 0.46179844E-03 0.42391486E+02 0.75467711E-02 0.10831501E+00
        2 -1    0    0  502    0 0.00000000E+00 0.00000000E+00 0.12677907E+04 0.12677908E+04 0.32000000E+00 0.0000E+00 0.9000E+01
       -1 -1    0    0    0  501 0.00000000E+00 0.00000000E+00 -.73421635E+02 0.73422333E+02 0.32000000E+00 0.0000E+00 0.9000E+01
       25  1    1    2    0    0 -.11844549E+02 -.21596872E+02 0.10399155E+04 0.10476908E+04 0.12500000E+03 0.0000E+00 0.9000E+01
       24  1    1    2    0    0 -.89760537E+01 -.15325491E+02 -.42068599E+02 0.92479312E+02 0.80419002E+02 0.0000E+00 0.9000E+01
       21  1    1    2  502  501 0.20820603E+02 0.36922363E+02 0.19652221E+03 0.20104303E+03 0.75000000E+00 0.0000E+00 0.9000E+01
#aMCatNLO 1  0  0  2  1 0.45921068D+02 0.00000000D+00  -5  6  0 0.00000000D+00 0.00000000D+00 0.00000000D+00 0.00000000D+00 0.00000000D+00
  <mgrwgt>
 0.3042672650D+00    5    4    0
 0.305096318812020D+03 0.000000000000000D+00 0.000000000000000D+00 0.305096318812020D+03
 0.305096318812020D+03 0.000000000000000D+00 0.000000000000000D+00 -.305096318812020D+03
 0.267346680398956D+03 -.118453325250564D+02 -.215982611955924D+02 0.235037126282295D+03
 0.285616142800084D+03 -.897689069454570D+01 -.153269756728472D+02 -.273484669266505D+03
 0.572298144250004D+02 0.208222232196021D+02 0.369252368684396D+02 0.384475429842101D+02
 0.000000000000000D+00 0.000000000000000D+00 -.000000000000000D+00 -.000000000000000D+00
 0.373405448063447D+03 0.000000000000000D+00 0.000000000000000D+00 0.373405448063447D+03
 0.697611999970095D+03 0.000000000000000D+00 0.000000000000000D+00 -.697611999970095D+03
 0.285003063152238D+03 -.769100735063489D+02 0.666643523059148D+02 0.235037126282295D+03
 0.306154573458801D+03 -.786852753244548D+02 0.792349040428207D+02 -.273484669266505D+03
 0.691040348026344D+02 0.594056667294009D+01 0.571127282843796D+02 0.384475429842101D+02
 0.410755776619869D+03 0.149654782157864D+03 -.203011984633115D+03 -.324206551906648D+03
 0.305096318812020D+03 0.000000000000000D+00 0.000000000000000D+00 0.305096318812020D+03
 0.305096318812020D+03 0.000000000000000D+00 0.000000000000000D+00 -.305096318812020D+03
 0.267346680398956D+03 -.118453325250564D+02 -.215982611955924D+02 0.235037126282295D+03
 0.285616142800084D+03 -.897689069454570D+01 -.153269756728472D+02 -.273484669266505D+03
 0.000000000000000D+00 0.000000000000000D+00 -.000000000000000D+00 -.000000000000000D+00
 0.572298144250004D+02 0.208222232196021D+02 0.369252368684396D+02 0.384475429842101D+02
 0.373405448063447D+03 0.000000000000000D+00 0.000000000000000D+00 0.373405448063447D+03
 0.697611999970095D+03 0.000000000000000D+00 0.000000000000000D+00 -.697611999970095D+03
 0.285003063152238D+03 -.769100735063489D+02 0.666643523059148D+02 0.235037126282295D+03
 0.306154573458801D+03 -.786852753244548D+02 0.792349040428207D+02 -.273484669266505D+03
 0.410755776619869D+03 0.149654782157864D+03 -.203011984633115D+03 -.324206551906648D+03
 0.691040348026344D+02 0.594056667294009D+01 0.571127282843796D+02 0.384475429842101D+02
0.157298137572D-02 0.000000000000D+00 0.000000000000D+00 0.163217287917D-05 0.000000000000D+00  6 2 -1 25 24 21 21 2 0.19504479D+00 0.11295693D-01 0.15895259D+05 0.15895259D+05 0.15895259D+05 0.12449626D+01  1  2  2  2  6  2       -1 0.258885087484D+00 0.100000000000D+01
-.292593280716D-04 0.830085077267D-04 -.604066265827D-05 0.163217287917D-05 0.000000000000D+00  6 2 -1 25 24 21 21 4 0.19504479D+00 0.11295693D-01 0.15895259D+05 0.15895259D+05 0.15895259D+05 0.12449626D+01  1  2  3  2  6  2       -1 -.746380694165D-02 0.100000000000D+01
0.390143359826D-04 0.000000000000D+00 0.000000000000D+00 0.163217287917D-05 0.000000000000D+00  6 2 -1 25 24 21 21 4 0.19504479D+00 0.11295693D-01 0.15895259D+05 0.15895259D+05 0.15895259D+05 0.12449626D+01  1  2 15  2  6  2       -1 0.995222689387D-02 0.100000000000D+01
0.149940081543D-03 0.000000000000D+00 -.803250079769D-03 0.163217287917D-05 0.000000000000D+00  6 2 -1 25 24 21 21 4 0.19504479D+00 0.31461545D-01 0.15895259D+05 0.15895259D+05 0.15895259D+05 0.12449626D+01  1  2  5  2  6  2       -1 0.743252911011D-02 0.100000000000D+01
0.623525684584D-04 0.000000000000D+00 -.923101695292D-04 0.163217287917D-05 0.000000000000D+00  6 2 21 25 24 1 21 4 0.19504479D+00 0.31461545D-01 0.15895259D+05 0.15895259D+05 0.15895259D+05 0.12449626D+01  3  4  5  5  5  2       -1 0.354612284984D-01 0.100000000000D+01
  </mgrwgt>
  </event>
  <event>
  5     66 0.46179844E-03 0.23403596E+02 0.75467711E-02 0.11903136E+00
        2 -1    0    0  502    0 0.00000000E+00 0.00000000E+00 0.22975029E+03 0.22975051E+03 0.32000000E+00 0.0000E+00 0.9000E+01
       -1 -1    0    0    0  501 0.00000000E+00 0.00000000E+00 -.13327605E+03 0.13327643E+03 0.32000000E+00 0.0000E+00 0.9000E+01
       25  1    1    2    0    0 0.76132016E+02 -.17930579E+02 -.44351787E+02 0.15397945E+03 0.12500000E+03 0.0000E+00 0.9000E+01
       24  1    1    2    0    0 -.82916783E+02 -.44661837E+01 0.71611569E+02 0.13598004E+03 0.80419002E+02 0.0000E+00 0.9000E+01
       21  1    1    2  502  501 0.67847665E+01 0.22396762E+02 0.69214458E+02 0.73067446E+02 0.75000000E+00 0.0000E+00 0.9000E+01
#aMCatNLO 1  0  0  5  2 0.20897112D+02 0.00000000D+00  -5  6  0 0.00000000D+00 0.00000000D+00 0.00000000D+00 0.00000000D+00 0.00000000D+00
  <mgrwgt>
 0.3512651009D+00    9    2    0
 0.174986627766307D+03 0.000000000000000D+00 0.000000000000000D+00 0.174986627766307D+03
 0.174986627766307D+03 -.000000000000000D+00 -.000000000000000D+00 -.174986627766307D+03
 0.171949945917931D+03 0.761317248961469D+02 -.179315409950445D+02 -.884545318401482D+02
 0.121311096257228D+03 -.829169886024215D+02 -.446686269513045D+01 0.367965522777429D+02
 0.567122133574560D+02 0.678526370627455D+01 0.223984036901749D+02 0.516579795624053D+02
 0.000000000000000D+00 -.000000000000000D+00 0.000000000000000D+00 0.000000000000000D+00
 0.174986627766307D+03 0.000000000000000D+00 0.000000000000000D+00 0.174986627766307D+03
 0.174986627766307D+03 -.000000000000000D+00 -.000000000000000D+00 -.174986627766307D+03
 0.164136018251765D+03 0.784074196121928D+02 -.104193894955444D+02 -.711290753478583D+02
 0.124569833311136D+03 -.812520873811594D+02 0.102903713608905D+01 0.494718788360681D+02
 0.386274970510604D+02 0.141559134014780D+02 0.289975221251530D+02 0.212329309046301D+02
 0.226399069186540D+02 -.113112456325115D+02 -.196071697656977D+02 0.424265607160200D+00
0.384982523355D-03 0.000000000000D+00 0.000000000000D+00 0.331925199919D-04 0.000000000000D+00  6 2 -1 25 24 21 21 2 0.35346245D-01 0.20504054D-01 0.20513841D+05 0.20513841D+05 0.20513841D+05 0.12326150D+01  1  2  2  3  6  5       21 0.183209949892D+00 0.100000000000D+01
0.515553813954D-04 0.203160859104D-04 -.147843425791D-05 0.331925199919D-04 0.000000000000D+00  6 2 -1 25 24 21 21 4 0.35346245D-01 0.20504054D-01 0.20513841D+05 0.20513841D+05 0.20513841D+05 0.12326150D+01  1  2  3  3  6  5       21 0.372766563592D-01 0.100000000000D+01
0.145339169735D-04 0.000000000000D+00 0.000000000000D+00 0.331925199919D-04 0.000000000000D+00  6 2 -1 25 24 21 21 4 0.35346245D-01 0.20504054D-01 0.20513841D+05 0.20513841D+05 0.20513841D+05 0.12326150D+01  1  2 15  3  6  5       21 0.105086183811D-01 0.100000000000D+01
0.291167200482D-03 0.000000000000D+00 0.000000000000D+00 0.326780844286D-04 0.000000000000D+00  6 2 -1 25 24 21 21 4 0.35346245D-01 0.20504054D-01 0.25146411D+05 0.25146411D+05 0.25146411D+05 0.12230258D+01  1  2 12  3  6  5       21 0.204952246548D+00 0.100000000000D+01
-.136132232243D-03 0.000000000000D+00 0.000000000000D+00 0.331925199919D-04 0.000000000000D+00  6 2 -1 25 24 21 21 4 0.35346245D-01 0.20504054D-01 0.20513841D+05 0.20513841D+05 0.20513841D+05 0.12326150D+01  1  2  4  3  6  5       21 -.984291901909D-01 0.100000000000D+01
0.488238495890D-05 0.000000000000D+00 0.000000000000D+00 0.326780844286D-04 0.000000000000D+00  6 2 -1 25 24 1 -1 4 0.35346245D-01 0.20504054D-01 0.25146411D+05 0.25146411D+05 0.25146411D+05 0.12230258D+01  1  2 12  6  6  5       21 0.343670497288D-02 0.100000000000D+01
0.488238495890D-05 0.000000000000D+00 0.000000000000D+00 0.326780844286D-04 0.000000000000D+00  6 2 -1 25 24 2 -2 4 0.35346245D-01 0.20504054D-01 0.25146411D+05 0.25146411D+05 0.25146411D+05 0.12230258D+01  1  2 12  7  6  5       21 0.343670497288D-02 0.100000000000D+01
0.488238495890D-05 0.000000000000D+00 0.000000000000D+00 0.326780844286D-04 0.000000000000D+00  6 2 -1 25 24 3 -3 4 0.35346245D-01 0.20504054D-01 0.25146411D+05 0.25146411D+05 0.25146411D+05 0.12230258D+01  1  2 12  8  6  5       21 0.343670497288D-02 0.100000000000D+01
0.488238495890D-05 0.000000000000D+00 0.000000000000D+00 0.326780844286D-04 0.000000000000D+00  6 2 -1 25 24 4 -4 4 0.35346245D-01 0.20504054D-01 0.25146411D+05 0.25146411D+05 0.25146411D+05 0.12230258D+01  1  2 12  8  6  5       21 0.343670497288D-02 0.100000000000D+01
  </mgrwgt>
  </event>
  <event>
  5     66 -.46179844E-03 0.21743510E+02 0.75467711E-02 0.12499883E+00
        2 -1    0    0  502    0 0.00000000E+00 0.00000000E+00 0.53033957E+04 0.53033957E+04 0.32000000E+00 0.0000E+00 0.9000E+01
       -1 -1    0    0    0  501 0.00000000E+00 0.00000000E+00 -.30925158E+01 0.31090278E+01 0.32000000E+00 0.0000E+00 0.9000E+01
       25  1    1    2    0    0 -.13848874E+02 0.20446001E+01 0.39598257E+04 0.39618228E+04 0.12500000E+03 0.0000E+00 0.9000E+01
       24  1    1    2    0    0 0.76940603E+01 -.22887532E+02 0.10058422E+04 0.10093408E+04 0.80419002E+02 0.0000E+00 0.9000E+01
       21  1    1    2  502  501 0.61548137E+01 0.20842932E+02 0.33463533E+03 0.33534114E+03 0.75000000E+00 0.0000E+00 0.9000E+01
#aMCatNLO 1  0  0  2  2 0.33976684D+00 0.00000000D+00  -5  6  0 0.00000000D+00 0.00000000D+00 0.00000000D+00 0.00000000D+00 0.00000000D+00
  <mgrwgt>
 -.1596740309D+00    9    4    0
 0.128236777014559D+03 0.000000000000000D+00 0.000000000000000D+00 0.128236777014559D+03
 0.128236777014559D+03 0.000000000000000D+00 0.000000000000000D+00 -.128236777014559D+03
 0.137071990857537D+03 -.138506717069181D+02 0.203851214843391D+01 0.544769129002056D+02
 0.967078799660468D+02 0.769279193170511D+01 -.228918271565449D+02 -.479789880560975D+02
 0.226936832055346D+02 0.615787977521300D+01 0.208533150081110D+02 -.649792484410813D+01
 0.000000000000000D+00 0.000000000000000D+00 0.000000000000000D+00 -.000000000000000D+00
 0.128375615268877D+03 0.000000000000000D+00 0.000000000000000D+00 0.128375615268877D+03
 0.128444928655885D+03 0.000000000000000D+00 0.000000000000000D+00 -.128444928655885D+03
 0.137078178729924D+03 -.139344337058787D+02 0.187739235987273D+01 0.544769129002056D+02
 0.967301713722468D+02 0.763369017050792D+01 -.230055119227379D+02 -.479789880560975D+02
 0.226654289822338D+02 0.614402105714750D+01 0.208266571709993D+02 -.649792484410813D+01
 0.346764840357893D+00 0.156722478223238D+00 0.301462391865868D+00 -.693133870079322D-01
 0.128236777014559D+03 0.000000000000000D+00 0.000000000000000D+00 0.128236777014559D+03
 0.128236777014559D+03 0.000000000000000D+00 0.000000000000000D+00 -.128236777014559D+03
 0.137071990857537D+03 -.138506717069181D+02 0.203851214843391D+01 0.544769129002056D+02
 0.967078799660468D+02 0.769279193170511D+01 -.228918271565449D+02 -.479789880560975D+02
 0.000000000000000D+00 0.000000000000000D+00 0.000000000000000D+00 -.000000000000000D+00
 0.226936832055346D+02 0.615787977521300D+01 0.208533150081110D+02 -.649792484410813D+01
 0.128375615268877D+03 0.000000000000000D+00 0.000000000000000D+00 0.128375615268877D+03
 0.128444928655885D+03 0.000000000000000D+00 0.000000000000000D+00 -.128444928655885D+03
 0.137078178729924D+03 -.139344337058787D+02 0.187739235987273D+01 0.544769129002056D+02
 0.967301713722468D+02 0.763369017050792D+01 -.230055119227379D+02 -.479789880560975D+02
 0.346764840357893D+00 0.156722478223238D+00 0.301462391865868D+00 -.693133870079322D-01
 0.226654289822338D+02 0.614402105714750D+01 0.208266571709993D+02 -.649792484410813D+01
0.734990177882D-03 0.000000000000D+00 0.000000000000D+00 0.429395733117D-04 0.000000000000D+00  6 2 -1 25 24 21 21 2 0.81590830D+00 0.47704256D-03 0.13397125D+05 0.13397125D+05 0.13397125D+05 0.12534568D+01  1  2  2  2  6  2       -1 0.160790550433D-01 0.100000000000D+01
0.121345613993D-03 0.387864972857D-04 -.282255581042D-05 0.429395733117D-04 0.000000000000D+00  6 2 -1 25 24 21 21 4 0.81590830D+00 0.47704256D-03 0.13397125D+05 0.13397125D+05 0.13397125D+05 0.12534568D+01  1  2  3  2  6  2       -1 0.417082343014D-02 0.100000000000D+01
0.345741541461D-04 0.000000000000D+00 0.000000000000D+00 0.429395733117D-04 0.000000000000D+00  6 2 -1 25 24 21 21 4 0.81590830D+00 0.47704256D-03 0.13397125D+05 0.13397125D+05 0.13397125D+05 0.12534568D+01  1  2 15  2  6  2       -1 0.118836344756D-02 0.100000000000D+01
-.761748096041D-03 0.000000000000D+00 0.000000000000D+00 0.429395733117D-04 0.000000000000D+00  6 2 -1 25 24 21 21 4 0.81590830D+00 0.47704256D-03 0.13397125D+05 0.13397125D+05 0.13397125D+05 0.12534568D+01  1  2  4  2  6  2       -1 -.261823785986D-01 0.100000000000D+01
-.234994161614D+00 0.000000000000D+00 -.227560390472D-01 0.429395733117D-04 0.000000000000D+00  6 2 -1 25 24 21 21 4 0.81590830D+00 0.48030776D-03 0.13397125D+05 0.13397125D+05 0.13397125D+05 0.12534568D+01  1  2  5  2  6  2       -1 -.799992422098D+01 0.100000000000D+01
0.235144447525D+00 0.000000000000D+00 0.227555096265D-01 0.429395733117D-04 0.000000000000D+00  6 2 -1 25 24 21 21 4 0.81590830D+00 0.47704256D-03 0.13397125D+05 0.13397125D+05 0.13397125D+05 0.12534568D+01  1  2  6  2  6  2       -1 0.808225315226D+01 0.100000000000D+01
0.738053891971D-03 0.000000000000D+00 0.000000000000D+00 0.429395733117D-04 0.750918642891D-01  6 2 -1 25 24 21 21 4 0.81679166D+00 0.47781688D-03 0.13436819D+05 0.13436819D+05 0.13436819D+05 0.12533083D+01  1  2 11  2  6  2       -1 0.248131827076D-01 0.100000000000D+01
-.297113209017D-03 0.000000000000D+00 -.288095614818D-04 0.429395733117D-04 0.000000000000D+00  6 2 21 25 24 1 21 4 0.81590830D+00 0.48030776D-03 0.13397125D+05 0.13397125D+05 0.13397125D+05 0.12534568D+01  3  4  5  5  5  2       -1 -.262125464943D+00 0.100000000000D+01
0.613156475013D-07 0.000000000000D+00 0.000000000000D+00 0.429395733117D-04 0.124746874901D-04  6 2 21 25 24 1 21 4 0.81679166D+00 0.47781688D-03 0.13436819D+05 0.13436819D+05 0.13436819D+05 0.12533083D+01  3  4 11  5  5  2       -1 0.534566899309D-04 0.100000000000D+01
  </mgrwgt>
  </event>
  <event>
  5     66 0.46179844E-03 0.22307002E+02 0.75467711E-02 0.11633877E+00
        2 -1    0    0  502    0 0.00000000E+00 0.00000000E+00 0.58563304E+03 0.58563313E+03 0.32000000E+00 0.0000E+00 0.9000E+01
       -1 -1    0    0    0  501 0.00000000E+00 0.00000000E+00 -.16156227E+03 0.16156259E+03 0.32000000E+00 0.0000E+00 0.9000E+01
       25  1    1    2    0    0 0.32550247E+02 -.14416671E+03 0.62793268E+02 0.20349829E+03 0.12500000E+03 0.0000E+00 0.9000E+01
       24  1    1    2    0    0 -.23030080E+02 0.12399335E+03 -.29356577E+02 0.15242624E+03 0.80419002E+02 0.0000E+00 0.9000E+01
       21  1    1    2  502  501 -.95201670E+01 0.20173358E+02 0.39063408E+03 0.39127119E+03 0.75000000E+00 0.0000E+00 0.9000E+01
#aMCatNLO 1  0  0  5  5 0.51576838D+01 0.00000000D+00  -5  6  0 0.00000000D+00 0.00000000D+00 0.00000000D+00 0.00000000D+00 0.00000000D+00
  <mgrwgt>
 0.2344517134D+01    8    2    0
 0.307597719176112D+03 0.000000000000000D+00 0.000000000000000D+00 0.307597719176112D+03
 0.307597719176112D+03 -.000000000000000D+00 -.000000000000000D+00 -.307597719176112D+03
 0.203877271616696D+03 0.325502678153264D+02 -.144166751545693D+03 -.640106998538599D+02
 0.205368357620986D+03 -.230300588170970D+02 0.123993304802097D+03 -.140727478172197D+03
 0.205949809114541D+03 -.952020899822949D+01 0.201734467435959D+02 0.204738178026057D+03
 0.000000000000000D+00 0.000000000000000D+00 -.000000000000000D+00 0.000000000000000D+00
 0.307597719176112D+03 0.000000000000000D+00 0.000000000000000D+00 0.307597719176112D+03
 0.307597719176112D+03 -.000000000000000D+00 -.000000000000000D+00 -.307597719176112D+03
 0.200432514778770D+03 0.321187163124016D+02 -.143252288295674D+03 -.547299090172650D+02
 0.199733702322772D+03 -.234624559756354D+02 0.124909560007364D+03 -.131428500971249D+03
 0.143315509081709D+02 0.459489502229904D+01 0.197164737983018D+01 -.134310423190894D+02
 0.200697670342510D+03 -.132511553590653D+02 0.163710809084806D+02 0.199589452307603D+03
0.124685573827D-01 0.000000000000D+00 0.000000000000D+00 0.565776665693D-04 0.000000000000D+00  6 2 -1 25 24 21 21 2 0.90097422D-01 0.24855765D-01 0.33387974D+05 0.33387974D+05 0.33387974D+05 0.12100514D+01  1  2  2  3  6  5       21 0.152446896046D+01 0.100000000000D+01
0.412080496151D-02 0.657983850172D-03 -.478825433963D-04 0.565776665693D-04 0.000000000000D+00  6 2 -1 25 24 21 21 4 0.90097422D-01 0.24855765D-01 0.33387974D+05 0.33387974D+05 0.33387974D+05 0.12100514D+01  1  2  3  3  6  5       21 0.737720841409D+00 0.100000000000D+01
0.425791244223D-03 0.000000000000D+00 0.000000000000D+00 0.565776665693D-04 0.000000000000D+00  6 2 -1 25 24 21 21 4 0.90097422D-01 0.24855765D-01 0.33387974D+05 0.33387974D+05 0.33387974D+05 0.12100514D+01  1  2 15  3  6  5       21 0.762266299636D-01 0.100000000000D+01
0.157056353158D-04 0.000000000000D+00 0.000000000000D+00 0.564900239654D-04 0.950805151203D-05  6 2 -1 25 24 21 21 4 0.90097422D-01 0.24855765D-01 0.34091436D+05 0.34091436D+05 0.34091436D+05 0.12091138D+01  1  2 11  3  6  5       21 0.280292482225D-02 0.100000000000D+01
0.476633021264D-05 0.000000000000D+00 0.000000000000D+00 0.564900239654D-04 0.137925515441D-09  6 2 -1 25 24 1 -1 4 0.90097422D-01 0.24855765D-01 0.34091436D+05 0.34091436D+05 0.34091436D+05 0.12091138D+01  1  2 11  6  6  5       21 0.850628770846D-03 0.100000000000D+01
0.409531428760D-05 0.000000000000D+00 0.000000000000D+00 0.564900239654D-04 0.179462718854D-09  6 2 -1 25 24 2 -2 4 0.90097422D-01 0.24855765D-01 0.34091436D+05 0.34091436D+05 0.34091436D+05 0.12091138D+01  1  2 11  7  6  5       21 0.730875118441D-03 0.100000000000D+01
0.480839925805D-05 0.000000000000D+00 0.000000000000D+00 0.564900239654D-04 0.137811332043D-09  6 2 -1 25 24 3 -3 4 0.90097422D-01 0.24855765D-01 0.34091436D+05 0.34091436D+05 0.34091436D+05 0.12091138D+01  1  2 11  8  6  5       21 0.858136672899D-03 0.100000000000D+01
0.480839925805D-05 0.000000000000D+00 0.000000000000D+00 0.564900239654D-04 0.137811332043D-09  6 2 -1 25 24 4 -4 4 0.90097422D-01 0.24855765D-01 0.34091436D+05 0.34091436D+05 0.34091436D+05 0.12091138D+01  1  2 11  8  6  5       21 0.858136672899D-03 0.100000000000D+01
  </mgrwgt>
  </event>
  <event>
  6     66 0.46179844E-03 0.11353063E+03 0.75467711E-02 0.11254294E+00
        2 -1    0    0  502    0 0.00000000E+00 0.00000000E+00 0.94675827E+02 0.94676367E+02 0.32000000E+00 0.0000E+00 0.9000E+01
       -1 -1    0    0    0  503 0.00000000E+00 0.00000000E+00 -.98218115E+03 0.98218121E+03 0.32000000E+00 0.0000E+00 0.9000E+01
       25  1    1    2    0    0 0.14524847E+03 0.59057902E+02 -.29772269E+03 0.35895509E+03 0.12500000E+03 0.0000E+00 0.9000E+01
       24  1    1    2    0    0 -.98901037E+02 0.52894748E+02 -.28200028E+02 0.14086067E+03 0.80419002E+02 0.0000E+00 0.9000E+01
       21  1    1    2  502  501 -.74543920E+01 -.12611215E+01 -.75090239E+01 0.10682056E+02 0.75000000E+00 0.0000E+00 0.9000E+01
       21  1    1    2  501  503 -.38893042E+02 -.11069153E+03 -.55407358E+03 0.56635976E+03 0.75000000E+00 0.0000E+00 0.9000E+01
#aMCatNLO 2  0  0  2  1 0.61979873D+02 0.00000000D+00  -5  6  0 0.00000000D+00 0.00000000D+00 0.00000000D+00 0.00000000D+00 0.00000000D+00
  <mgrwgt>
 0.1074214211D-01    1    2    0
 0.184164330737442D+03 0.000000000000000D+00 0.000000000000000D+00 0.184164330737442D+03
 0.184164330737442D+03 0.000000000000000D+00 0.000000000000000D+00 -.184164330737442D+03
 0.194914175565200D+03 0.124029177907416D+03 -.136872820738176D+01 -.835549247319778D+02
 0.164241543372389D+03 -.115681793607803D+03 0.510599315641558D+01 0.842598366752646D+02
 0.917294253729375D+01 -.834738429961317D+01 -.373726494903382D+01 -.704911943286817D+00
 0.000000000000000D+00 -.000000000000000D+00 -.000000000000000D+00 -.000000000000000D+00
 0.206692567368530D+03 0.000000000000000D+00 0.000000000000000D+00 0.206692567368530D+03
 0.449888887797254D+03 0.000000000000000D+00 0.000000000000000D+00 -.449888887797254D+03
 0.217249066503309D+03 0.145264375066075D+03 0.590676966391546D+02 -.835549247319778D+02
 0.161691863852490D+03 -.988892719644890D+02 0.528983430318268D+02 0.842598366752646D+02
 0.762250047796950D+01 -.748206078845722D+01 -.127451129719914D+01 -.704911943286817D+00
 0.270018024332016D+03 -.388930423131291D+02 -.110691528373782D+03 -.243196320428724D+03
0.312821017698D-03 0.000000000000D+00 0.000000000000D+00 0.165770048032D-03 0.128959622097D-06  6 2 -1 25 24 21 21 4 0.14565523D-01 0.15110448D+00 0.53697851D+05 0.53697851D+05 0.53697851D+05 0.11892251D+01  1  2  1  2  6  2       -1 0.107421421115D-01 0.100000000000D+01
  </mgrwgt>
  </event>
  <event>
  5     66 0.46179844E-03 0.34716167E+02 0.75467711E-02 0.97956428E-01
        2 -1    0    0  502    0 0.00000000E+00 0.00000000E+00 0.21710196E+03 0.21710220E+03 0.32000000E+00 0.0000E+00 0.9000E+01
       -1 -1    0    0    0  501 0.00000000E+00 0.00000000E+00 -.12990987E+03 0.12991027E+03 0.32000000E+00 0.0000E+00 0.9000E+01
       25  1    1    2    0    0 -.75005697E+02 -.12019097E+02 -.68569721E+01 0.14643200E+03 0.12500000E+03 0.0000E+00 0.9000E+01
       24  1    1    2    0    0 0.10849753E+03 0.21141695E+02 0.52492981E+02 0.14642887E+03 0.80419002E+02 0.0000E+00 0.9000E+01
       21  1    1    2  502  501 -.33491830E+02 -.91225988E+01 0.41556080E+02 0.54151590E+02 0.75000000E+00 0.0000E+00 0.9000E+01
#aMCatNLO 1  0  0  2  5 0.11402574D+02 0.00000000D+00  -5  6  0 0.00000000D+00 0.00000000D+00 0.00000000D+00 0.00000000D+00 0.00000000D+00
  <mgrwgt>
 0.3671813335D+00    5    4    0
 0.167939861676057D+03 0.000000000000000D+00 0.000000000000000D+00 0.167939861676057D+03
 0.167939861676057D+03 0.000000000000000D+00 0.000000000000000D+00 -.167939861676057D+03
 0.153064975019361D+03 -.750035920353818D+02 -.120185230268286D+02 -.450988122207373D+02
 0.137656815227653D+03 0.108499420765649D+03 0.211422110799862D+02 0.162192918593135D+02
 0.451579331050991D+02 -.334958287302670D+02 -.912368805315756D+01 0.288795203614238D+02
 0.000000000000000D+00 -.000000000000000D+00 -.000000000000000D+00 -.000000000000000D+00
 0.612216741725491D+03 0.000000000000000D+00 0.000000000000000D+00 0.612216741725491D+03
 0.720280041312927D+03 0.000000000000000D+00 0.000000000000000D+00 -.720280041312927D+03
 0.265417565562276D+03 -.136867806957778D+02 0.229347450998413D+03 -.450988122207373D+02
 0.375596476452343D+03 0.183702212288641D+03 0.317168612792764D+03 0.162192918593135D+02
 0.631847269947142D+02 -.176212681329770D+02 0.533645382110293D+02 0.288795203614238D+02
 0.628298014029085D+03 -.152394163459886D+03 -.599880602002207D+03 -.108063299587436D+03
 0.167939861676057D+03 0.000000000000000D+00 0.000000000000000D+00 0.167939861676057D+03
 0.167939861676057D+03 0.000000000000000D+00 0.000000000000000D+00 -.167939861676057D+03
 0.153064975019361D+03 -.750035920353818D+02 -.120185230268286D+02 -.450988122207373D+02
 0.137656815227653D+03 0.108499420765649D+03 0.211422110799862D+02 0.162192918593135D+02
 0.000000000000000D+00 -.000000000000000D+00 -.000000000000000D+00 -.000000000000000D+00
 0.451579331050991D+02 -.334958287302670D+02 -.912368805315756D+01 0.288795203614238D+02
 0.612216741725491D+03 0.000000000000000D+00 0.000000000000000D+00 0.612216741725491D+03
 0.720280041312927D+03 0.000000000000000D+00 0.000000000000000D+00 -.720280041312927D+03
 0.265417565562276D+03 -.136867806957778D+02 0.229347450998413D+03 -.450988122207373D+02
 0.375596476452343D+03 0.183702212288641D+03 0.317168612792764D+03 0.162192918593135D+02
 0.628298014029085D+03 -.152394163459886D+03 -.599880602002207D+03 -.108063299587436D+03
 0.631847269947142D+02 -.176212681329770D+02 0.533645382110293D+02 0.288795203614238D+02
0.556774995419D-03 0.000000000000D+00 0.000000000000D+00 0.162258761294D-04 0.000000000000D+00  6 2 -1 25 24 21 21 2 0.33400350D-01 0.19986183D-01 0.25230840D+05 0.25230840D+05 0.25230840D+05 0.12228699D+01  1  2  2  2  6  2       -1 0.290180950343D+00 0.100000000000D+01
0.564210502856D-04 0.293818237283D-04 -.213816258463D-05 0.162258761294D-04 0.000000000000D+00  6 2 -1 25 24 21 21 4 0.33400350D-01 0.19986183D-01 0.25230840D+05 0.25230840D+05 0.25230840D+05 0.12228699D+01  1  2  3  2  6  2       -1 0.439734826552D-01 0.100000000000D+01
0.117870701691D-04 0.000000000000D+00 0.000000000000D+00 0.162258761294D-04 0.000000000000D+00  6 2 -1 25 24 21 21 4 0.33400350D-01 0.19986183D-01 0.25230840D+05 0.25230840D+05 0.25230840D+05 0.12228699D+01  1  2 15  2  6  2       -1 0.918661604156D-02 0.100000000000D+01
0.221187031086D-02 0.000000000000D+00 -.769872693025D-03 0.162258761294D-04 0.000000000000D+00  6 2 -1 25 24 21 21 4 0.33400350D-01 0.24428479D+00 0.25230840D+05 0.25230840D+05 0.25230840D+05 0.12228699D+01  1  2  5  2  6  2       -1 0.798097973867D-02 0.100000000000D+01
0.495037510423D-03 0.000000000000D+00 -.223757628816D-03 0.162258761294D-04 0.000000000000D+00  6 2 21 25 24 1 21 4 0.33400350D-01 0.24428479D+00 0.25230840D+05 0.25230840D+05 0.25230840D+05 0.12228699D+01  3  4  5  5  5  2       -1 0.158593047373D-01 0.100000000000D+01
  </mgrwgt>
  </event>
  <event>
  5     66 0.46179844E-03 0.46221395E+02 0.75467711E-02 0.11963801E+00
        2 -1    0    0  502    0 0.00000000E+00 0.00000000E+00 0.79565201E+03 0.79565208E+03 0.32000000E+00 0.0000E+00 0.9000E+01
       -1 -1    0    0    0  501 0.00000000E+00 0.00000000E+00 -.30677914E+02 0.30679582E+02 0.32000000E+00 0.0000E+00 0.9000E+01
       25  1    1    2    0    0 0.41525913E+01 0.60484459E+02 0.47072945E+03 0.49080223E+03 0.12500000E+03 0.0000E+00 0.9000E+01
       24  1    1    2    0    0 0.41163604E+02 -.69561060E+02 0.19163814E+03 0.22299232E+03 0.80419002E+02 0.0000E+00 0.9000E+01
       21  1    1    2  502  501 -.45316195E+02 0.90766010E+01 0.10260651E+03 0.11253710E+03 0.75000000E+00 0.0000E+00 0.9000E+01
#aMCatNLO 1  0  0  1  5 0.75376039D+01 0.00000000D+00  -5  6  0 0.00000000D+00 0.00000000D+00 0.00000000D+00 0.00000000D+00 0.00000000D+00
  <mgrwgt>
 0.2144518251D+00   11    4    0
 0.156235910793569D+03 0.000000000000000D+00 0.000000000000000D+00 0.156235910793569D+03
 0.156235910793569D+03 0.000000000000000D+00 0.000000000000000D+00 -.156235910793569D+03
 0.145515715374483D+03 0.415534753925692D+01 0.604839068455957D+02 0.432926497279717D+02
 0.120547533357052D+03 0.411658873252834D+02 -.695615172435281D+02 -.391287219775882D+02
 0.464085728556038D+02 -.453212348645403D+02 0.907761039793240D+01 -.416392775038355D+01
 0.000000000000000D+00 0.000000000000000D+00 0.000000000000000D+00 0.000000000000000D+00
 0.176763084944621D+03 0.000000000000000D+00 0.000000000000000D+00 0.176763084944621D+03
 0.156974850518112D+03 0.000000000000000D+00 0.000000000000000D+00 -.156974850518112D+03
 0.144845602077004D+03 0.987607234101580D+00 0.589916905380081D+02 0.432926497279717D+02
 0.120399340787081D+03 0.385372412944460D+02 -.707997843033963D+02 -.391287219775882D+02
 0.473177784548550D+02 -.463437565396284D+02 0.859593470123938D+01 -.416392775038355D+01
 0.211752141437924D+02 0.681890801108083D+01 0.321215906414885D+01 0.197882344265094D+02
 0.156235910793569D+03 0.000000000000000D+00 0.000000000000000D+00 0.156235910793569D+03
 0.156235910793569D+03 0.000000000000000D+00 0.000000000000000D+00 -.156235910793569D+03
 0.145515715374483D+03 0.415534753925692D+01 0.604839068455957D+02 0.432926497279717D+02
 0.120547533357052D+03 0.411658873252834D+02 -.695615172435281D+02 -.391287219775882D+02
 0.000000000000000D+00 0.000000000000000D+00 0.000000000000000D+00 0.000000000000000D+00
 0.464085728556038D+02 -.453212348645403D+02 0.907761039793240D+01 -.416392775038355D+01
 0.176763084944621D+03 0.000000000000000D+00 0.000000000000000D+00 0.176763084944621D+03
 0.156974850518112D+03 0.000000000000000D+00 0.000000000000000D+00 -.156974850518112D+03
 0.144845602077004D+03 0.987607234101580D+00 0.589916905380081D+02 0.432926497279717D+02
 0.120399340787081D+03 0.385372412944460D+02 -.707997843033963D+02 -.391287219775882D+02
 0.211752141437924D+02 0.681890801108083D+01 0.321215906414885D+01 0.197882344265094D+02
 0.473177784548550D+02 -.463437565396284D+02 0.859593470123938D+01 -.416392775038355D+01
0.156225671259D-04 0.000000000000D+00 0.000000000000D+00 0.926973688065D-05 0.000000000000D+00  6 2 -1 25 24 21 21 2 0.12240814D+00 0.47198123D-02 0.22375415D+05 0.22375415D+05 0.22375415D+05 0.12284959D+01  1  2  2  1  6  1        2 0.178442612062D-01 0.100000000000D+01
0.630853279504D-06 0.824425517048D-06 -.599947712800D-07 0.926973688065D-05 0.000000000000D+00  6 2 -1 25 24 21 21 4 0.12240814D+00 0.47198123D-02 0.22375415D+05 0.22375415D+05 0.22375415D+05 0.12284959D+01  1  2  3  1  6  1        2 0.108748169497D-02 0.100000000000D+01
0.602317766858D-06 0.000000000000D+00 0.000000000000D+00 0.926973688065D-05 0.000000000000D+00  6 2 -1 25 24 21 21 4 0.12240814D+00 0.47198123D-02 0.22375415D+05 0.22375415D+05 0.22375415D+05 0.12284959D+01  1  2 15  1  6  1        2 0.103829141782D-02 0.100000000000D+01
0.451981024955D-03 0.000000000000D+00 0.000000000000D+00 0.923419511687D-05 0.000000000000D+00  6 2 -1 25 24 21 21 4 0.14032428D+00 0.47198123D-02 0.23525418D+05 0.23525418D+05 0.23525418D+05 0.12261385D+01  1  2 12  1  6  1        2 0.649693718567D+00 0.100000000000D+01
-.358773920249D-03 0.000000000000D+00 0.000000000000D+00 0.926973688065D-05 0.000000000000D+00  6 2 -1 25 24 21 21 4 0.12240814D+00 0.47198123D-02 0.22375415D+05 0.22375415D+05 0.22375415D+05 0.12284959D+01  1  2  4  1  6  1        2 -.618464044780D+00 0.100000000000D+01
-.622690591446D-03 0.000000000000D+00 -.366820442120D-04 0.926973688065D-05 0.000000000000D+00  6 2 -1 25 24 21 21 4 0.13877803D+00 0.47198123D-02 0.22375415D+05 0.22375415D+05 0.22375415D+05 0.12284959D+01  1  2  5  1  6  1        2 -.914259296946D+00 0.100000000000D+01
0.622670577483D-03 0.000000000000D+00 0.363949843919D-04 0.926973688065D-05 0.000000000000D+00  6 2 -1 25 24 21 21 4 0.12240814D+00 0.47198123D-02 0.22375415D+05 0.22375415D+05 0.22375415D+05 0.12284959D+01  1  2  6  1  6  1        2 0.107337613517D+01 0.100000000000D+01
0.554382553131D-05 0.000000000000D+00 0.000000000000D+00 0.926973688065D-05 0.520412473959D-06  6 2 -1 25 24 21 21 4 0.13849082D+00 0.47421354D-02 0.23525418D+05 0.23525418D+05 0.23525418D+05 0.12261385D+01  1  2 11  1  6  1        2 0.805173005064D-02 0.100000000000D+01
0.955162020326D-05 0.000000000000D+00 0.000000000000D+00 0.923419511687D-05 0.000000000000D+00  6 21 -1 25 24 -2 21 4 0.14032428D+00 0.47198123D-02 0.23525418D+05 0.23525418D+05 0.23525418D+05 0.12261385D+01  3  4 12  4  5  1        2 0.131542831418D-01 0.100000000000D+01
-.120837842986D-04 0.000000000000D+00 -.722696554750D-06 0.926973688065D-05 0.000000000000D+00  6 21 -1 25 24 -2 21 4 0.13877803D+00 0.47198123D-02 0.22375415D+05 0.22375415D+05 0.22375415D+05 0.12284959D+01  3  4  5  4  5  1        2 -.172686800693D-01 0.100000000000D+01
0.139950282616D-06 0.000000000000D+00 0.000000000000D+00 0.926973688065D-05 0.260961842482D-07  6 21 -1 25 24 -2 21 4 0.13849082D+00 0.47421354D-02 0.23525418D+05 0.23525418D+05 0.23525418D+05 0.12261385D+01  3  4 11  4  5  1        2 0.197945632467D-03 0.100000000000D+01
  </mgrwgt>
  </event>
  <event>
  5     66 0.46179844E-03 0.29086752E+02 0.75467711E-02 0.11799196E+00
        2 -1    0    0  502    0 0.00000000E+00 0.00000000E+00 0.19693007E+03 0.19693033E+03 0.32000000E+00 0.0000E+00 0.9000E+01
       -1 -1    0    0    0  501 -.00000000E+00 -.00000000E+00 -.29541316E+03 0.29541334E+03 0.32000000E+00 0.0000E+00 0.9000E+01
       25  1    1    2    0    0 -.30601469E+02 0.51058875E+02 0.65274325E+02 0.15306599E+03 0.12500000E+03 0.0000E+00 0.9000E+01
       24  1    1    2    0    0 0.38224436E+02 -.22988942E+02 0.62479248E+02 0.11117766E+03 0.80419002E+02 0.0000E+00 0.9000E+01
       21  1    1    2  502  501 -.76229676E+01 -.28069933E+02 -.22623666E+03 0.22810002E+03 0.75000000E+00 0.0000E+00 0.9000E+01
#aMCatNLO 1  0  0  5  2 0.88114237D+01 0.00000000D+00  -5  6  0 0.00000000D+00 0.00000000D+00 0.00000000D+00 0.00000000D+00 0.00000000D+00
  <mgrwgt>
 0.4796081629D+00    3    2    0
 0.241196687402924D+03 0.000000000000000D+00 0.000000000000000D+00 0.241196687402924D+03
 0.241196687402924D+03 -.000000000000000D+00 -.000000000000000D+00 -.241196687402924D+03
 0.169549678770368D+03 -.306014469133314D+02 0.510589546384584D+02 0.978704662764689D+02
 0.126226631108628D+03 0.382244522264650D+02 -.229888826570934D+02 0.864658832883137D+02
 0.186617064926852D+03 -.762300531313360D+01 -.280700719813651D+02 -.184336349564783D+03
 0.000000000000000D+00 0.000000000000000D+00 0.000000000000000D+00 0.000000000000000D+00
 0.241196687402924D+03 0.000000000000000D+00 0.000000000000000D+00 0.241196687402924D+03
 0.241196687402924D+03 -.000000000000000D+00 -.000000000000000D+00 -.241196687402924D+03
 0.154258785592385D+03 -.317347428117576D+02 0.468858370636614D+02 0.704655753822307D+02
 0.113677026553102D+03 0.373848144122388D+02 -.260806677097679D+02 0.661621102653110D+02
 0.625480071400318D+02 -.434903581386276D+02 -.441166818220863D+02 0.863483243451675D+01
 0.151909555520330D+03 0.378402865381464D+02 0.233115124681927D+02 -.145262518082058D+03
0.247482648783D-02 0.000000000000D+00 0.000000000000D+00 0.646850007833D-04 0.000000000000D+00  6 2 -1 25 24 21 21 2 0.30296967D-01 0.45448212D-01 0.16834792D+05 0.16834792D+05 0.16834792D+05 0.12421494D+01  1  2  2  3  6  5       21 0.366877722110D+00 0.100000000000D+01
0.439201649665D-03 0.130600181800D-03 -.950398535005D-05 0.646850007833D-04 0.000000000000D+00  6 2 -1 25 24 21 21 4 0.30296967D-01 0.45448212D-01 0.16834792D+05 0.16834792D+05 0.16834792D+05 0.12421494D+01  1  2  3  3  6  5       21 0.100458846999D+00 0.100000000000D+01
0.536508669172D-04 0.000000000000D+00 0.000000000000D+00 0.646850007833D-04 0.000000000000D+00  6 2 -1 25 24 21 21 4 0.30296967D-01 0.45448212D-01 0.16834792D+05 0.16834792D+05 0.16834792D+05 0.12421494D+01  1  2 15  3  6  5       21 0.122715937773D-01 0.100000000000D+01
  </mgrwgt>
  </event>
  <event>
  5     66 0.46179844E-03 0.20948878E+02 0.75467711E-02 0.11404592E+00
        2 -1    0    0  502    0 0.00000000E+00 0.00000000E+00 0.83444060E+03 0.83444066E+03 0.32000000E+00 0.0000E+00 0.9000E+01
       -1 -1    0    0    0  501 0.00000000E+00 0.00000000E+00 -.52605061E+02 0.52606035E+02 0.32000000E+00 0.0000E+00 0.9000E+01
       25  1    1    2    0    0 0.10350606E+03 0.14332026E+03 0.40646663E+03 0.46053699E+03 0.12500000E+03 0.0000E+00 0.9000E+01
       24  1    1    2    0    0 -.86738479E+02 -.13077629E+03 0.35882971E+03 0.39981493E+03 0.80419002E+02 0.0000E+00 0.9000E+01
       21  1    1    2  502  501 -.16767585E+02 -.12543977E+02 0.16539204E+02 0.26694775E+02 0.75000000E+00 0.0000E+00 0.9000E+01
#aMCatNLO 1  0  0  1  5 0.90152264D+01 0.00000000D+00  -5  6  0 0.00000000D+00 0.00000000D+00 0.00000000D+00 0.00000000D+00 0.00000000D+00
  <mgrwgt>
 0.7499400026D+00    6    4    0
 0.209514338023843D+03 0.000000000000000D+00 0.000000000000000D+00 0.209514338023843D+03
 0.209514338023843D+03 0.000000000000000D+00 0.000000000000000D+00 -.209514338023843D+03
 0.216522849384743D+03 0.103509769749254D+03 0.143323036941296D+03 0.117428874995732D+01
 0.176855330969125D+03 -.867354523054769D+02 -.130774023215472D+03 0.136274833785108D+02
 0.256504956938186D+02 -.167743174437768D+02 -.125490137258240D+02 -.148017721284681D+02
 0.000000000000000D+00 -.000000000000000D+00 -.000000000000000D+00 -.000000000000000D+00
 0.211132620127286D+03 0.000000000000000D+00 0.000000000000000D+00 0.211132620127286D+03
 0.222506256063283D+03 0.000000000000000D+00 0.000000000000000D+00 -.222506256063283D+03
 0.219556809927121D+03 0.108022266781743D+03 0.144602917365591D+03 0.117428874995732D+01
 0.174333270441516D+03 -.831013971784613D+02 -.129743295442271D+03 0.136274833785108D+02
 0.252355638689729D+02 -.162477549502761D+02 -.123996647018253D+02 -.148017721284681D+02
 0.145132319529585D+02 -.867311465300517D+01 -.245995722149491D+01 -.113736359359977D+02
 0.209514338023843D+03 0.000000000000000D+00 0.000000000000000D+00 0.209514338023843D+03
 0.209514338023843D+03 0.000000000000000D+00 0.000000000000000D+00 -.209514338023843D+03
 0.216522849384743D+03 0.103509769749254D+03 0.143323036941296D+03 0.117428874995732D+01
 0.176855330969125D+03 -.867354523054769D+02 -.130774023215472D+03 0.136274833785108D+02
 0.000000000000000D+00 -.000000000000000D+00 -.000000000000000D+00 -.000000000000000D+00
 0.256504956938186D+02 -.167743174437768D+02 -.125490137258240D+02 -.148017721284681D+02
 0.211132620127286D+03 0.000000000000000D+00 0.000000000000000D+00 0.211132620127286D+03
 0.222506256063283D+03 0.000000000000000D+00 0.000000000000000D+00 -.222506256063283D+03
 0.219556809927121D+03 0.108022266781743D+03 0.144602917365591D+03 0.117428874995732D+01
 0.174333270441516D+03 -.831013971784613D+02 -.129743295442271D+03 0.136274833785108D+02
 0.145132319529585D+02 -.867311465300517D+01 -.245995722149491D+01 -.113736359359977D+02
 0.252355638689729D+02 -.162477549502761D+02 -.123996647018253D+02 -.148017721284681D+02
0.113029350742D-02 0.000000000000D+00 0.000000000000D+00 0.381153781227D-04 0.000000000000D+00  6 2 -1 25 24 21 21 2 0.12837556D+00 0.80931659D-02 0.42807209D+05 0.42807209D+05 0.42807209D+05 0.11990204D+01  1  2  2  1  6  1        2 0.521244128361D+00 0.100000000000D+01
0.394954111214D-03 0.596472271015D-04 -.434062468160D-05 0.381153781227D-04 0.000000000000D+00  6 2 -1 25 24 21 21 4 0.12837556D+00 0.80931659D-02 0.42807209D+05 0.42807209D+05 0.42807209D+05 0.11990204D+01  1  2  3  1  6  1        2 0.261848266900D+00 0.100000000000D+01
0.115518898189D-04 0.000000000000D+00 0.000000000000D+00 0.381153781227D-04 0.000000000000D+00  6 2 -1 25 24 21 21 4 0.12837556D+00 0.80931659D-02 0.42807209D+05 0.42807209D+05 0.42807209D+05 0.11990204D+01  1  2 15  1  6  1        2 0.765871842475D-02 0.100000000000D+01
-.615649019095D-04 0.000000000000D+00 0.000000000000D+00 0.381153781227D-04 0.000000000000D+00  6 2 -1 25 24 21 21 4 0.12837556D+00 0.80931659D-02 0.42807209D+05 0.42807209D+05 0.42807209D+05 0.11990204D+01  1  2  4  1  6  1        2 -.408165465535D-01 0.100000000000D+01
0.911864598217D-08 0.000000000000D+00 0.000000000000D+00 0.381153781227D-04 0.101775248215D-04  6 2 -1 25 24 21 21 4 0.12936713D+00 0.85950206D-02 0.44691534D+05 0.44691534D+05 0.44691534D+05 0.11971396D+01  1  2 11  1  6  1        2 0.542837973009D-05 0.100000000000D+01
0.115263749541D-10 0.000000000000D+00 0.000000000000D+00 0.379958982889D-04 0.255415382699D-07  6 21 -1 25 24 -2 21 4 0.12936713D+00 0.85950206D-02 0.44691534D+05 0.44691534D+05 0.44691534D+05 0.11971396D+01  3  4 11  4  5  1        2 0.707346419051D-08 0.100000000000D+01
  </mgrwgt>
  </event>
  <event>
  5     66 0.46179844E-03 0.11543144E+03 0.75467711E-02 0.11145931E+00
        2 -1    0    0  502    0 0.00000000E+00 0.00000000E+00 0.73792917E+03 0.73792924E+03 0.32000000E+00 0.0000E+00 0.9000E+01
       -1 -1    0    0    0  501 0.00000000E+00 0.00000000E+00 -.97631740E+02 0.97632264E+02 0.32000000E+00 0.0000E+00 0.9000E+01
       25  1    1    2    0    0 0.24533087E+02 0.62624719E+02 0.78197935E+02 0.16206062E+03 0.12500000E+03 0.0000E+00 0.9000E+01
       24  1    1    2    0    0 -.25117295E+02 -.20488295E+03 0.27535104E+03 0.35340248E+03 0.80419002E+02 0.0000E+00 0.9000E+01
       21  1    1    2  502  501 0.58420781E+00 0.14225824E+03 0.28674846E+03 0.32009841E+03 0.75000000E+00 0.0000E+00 0.9000E+01
#aMCatNLO 1  0  0  5  2 0.30936137D+02 0.00000000D+00  -5  6  0 0.00000000D+00 0.00000000D+00 0.00000000D+00 0.00000000D+00 0.00000000D+00
  <mgrwgt>
 0.4784133921D-01   20    2    0
 0.268413035014247D+03 0.000000000000000D+00 0.000000000000000D+00 0.268413035014247D+03
 0.268413035014247D+03 -.000000000000000D+00 -.000000000000000D+00 -.268413035014247D+03
 0.158974451360531D+03 0.245330850601247D+02 0.626242332162869D+02 -.715835828726565D+02
 0.221642138083223D+03 -.251172976445662D+02 -.204883631851265D+03 0.705975765882356D+01
 0.156209480584742D+03 0.584212584441544D+00 0.142259398634978D+03 0.645238252138329D+02
 0.000000000000000D+00 0.000000000000000D+00 0.000000000000000D+00 0.000000000000000D+00
 0.268413035014247D+03 0.000000000000000D+00 0.000000000000000D+00 0.268413035014247D+03
 0.268413035014247D+03 -.000000000000000D+00 -.000000000000000D+00 -.268413035014247D+03
 0.159672665302201D+03 0.245472147590808D+02 0.660649028114301D+02 -.700230169929622D+02
 0.217346211301946D+03 -.250978316808161D+02 -.200143548582442D+03 0.920969156316482D+01
 0.729452284487122D+02 0.931008018276429D+01 0.723478838833378D+02 0.335347623207628D+00
 0.868619649756350D+02 -.875946326102900D+01 0.617307618876745D+02 0.604779778065897D+02
0.162429348098D-03 0.000000000000D+00 0.000000000000D+00 0.941026772080D-06 0.000000000000D+00  6 2 -1 25 24 21 21 2 0.11352761D+00 0.15020313D-01 0.63942295D+05 0.63942295D+05 0.63942295D+05 0.11818456D+01  1  2  2  3  6  5       21 0.325555719024D-01 0.100000000000D+01
-.113702264258D-04 0.857163219141D-05 -.623771465325D-06 0.941026772080D-06 0.000000000000D+00  6 2 -1 25 24 21 21 4 0.11352761D+00 0.15020313D-01 0.63942295D+05 0.63942295D+05 0.63942295D+05 0.11818456D+01  1  2  3  3  6  5       21 -.318310836825D-02 0.100000000000D+01
0.575939106728D-05 0.000000000000D+00 0.000000000000D+00 0.941026772080D-06 0.000000000000D+00  6 2 -1 25 24 21 21 4 0.11352761D+00 0.15020313D-01 0.63942295D+05 0.63942295D+05 0.63942295D+05 0.11818456D+01  1  2 15  3  6  5       21 0.161234835753D-02 0.100000000000D+01
0.839533150781D-04 0.000000000000D+00 0.000000000000D+00 0.943640823083D-06 0.000000000000D+00  6 2 -1 25 24 21 21 4 0.11352761D+00 0.15020313D-01 0.61490163D+05 0.61490163D+05 0.61490163D+05 0.11834860D+01  1  2 12  3  6  5       21 0.236321904292D-01 0.100000000000D+01
0.885257182173D-04 0.000000000000D+00 0.000000000000D+00 0.943640823083D-06 0.000000000000D+00  6 2 -1 25 24 21 21 4 0.11352761D+00 0.15020313D-01 0.61490163D+05 0.61490163D+05 0.61490163D+05 0.11834860D+01  1  2 12  3  6  5       21 0.249192855439D-01 0.100000000000D+01
-.281990222381D-03 0.000000000000D+00 0.000000000000D+00 0.941026772080D-06 0.000000000000D+00  6 2 -1 25 24 21 21 4 0.11352761D+00 0.15020313D-01 0.63942295D+05 0.63942295D+05 0.63942295D+05 0.11818456D+01  1  2  4  3  6  5       21 -.789434970787D-01 0.100000000000D+01
-.167049507706D-03 0.000000000000D+00 0.000000000000D+00 0.941026772080D-06 0.000000000000D+00  6 2 -1 25 24 21 21 4 0.11352761D+00 0.15020313D-01 0.63942295D+05 0.63942295D+05 0.63942295D+05 0.11818456D+01  1  2  5  3  6  5       21 -.467657077337D-01 0.100000000000D+01
0.314230219655D-03 0.000000000000D+00 -.000000000000D+00 0.941026772080D-06 0.000000000000D+00  6 2 -1 25 24 21 21 4 0.11352761D+00 0.15020313D-01 0.63942295D+05 0.63942295D+05 0.63942295D+05 0.11818456D+01  1  2  6  3  6  5       21 0.879691225389D-01 0.100000000000D+01
0.375593961916D-05 0.000000000000D+00 0.000000000000D+00 0.943640823083D-06 0.000000000000D+00  6 2 -1 25 24 1 -1 4 0.11352761D+00 0.15020313D-01 0.61490163D+05 0.61490163D+05 0.61490163D+05 0.11834860D+01  1  2 12  6  6  5       21 0.105726712802D-02 0.100000000000D+01
0.395829165266D-05 0.000000000000D+00 0.000000000000D+00 0.943640823083D-06 0.000000000000D+00  6 2 -1 25 24 1 -1 4 0.11352761D+00 0.15020313D-01 0.61490163D+05 0.61490163D+05 0.61490163D+05 0.11834860D+01  1  2 12  6  6  5       21 0.111422761594D-02 0.100000000000D+01
-.235830878124D-05 0.000000000000D+00 0.000000000000D+00 0.941026772080D-06 0.000000000000D+00  6 2 -1 25 24 1 -1 4 0.11352761D+00 0.15020313D-01 0.63942295D+05 0.63942295D+05 0.63942295D+05 0.11818456D+01  1  2  5  6  6  5       21 -.660211339282D-03 0.100000000000D+01
0.375593961916D-05 0.000000000000D+00 0.000000000000D+00 0.943640823083D-06 0.000000000000D+00  6 2 -1 25 24 2 -2 4 0.11352761D+00 0.15020313D-01 0.61490163D+05 0.61490163D+05 0.61490163D+05 0.11834860D+01  1  2 12  7  6  5       21 0.105726712802D-02 0.100000000000D+01
0.395829165266D-05 0.000000000000D+00 0.000000000000D+00 0.943640823083D-06 0.000000000000D+00  6 2 -1 25 24 2 -2 4 0.11352761D+00 0.15020313D-01 0.61490163D+05 0.61490163D+05 0.61490163D+05 0.11834860D+01  1  2 12  7  6  5       21 0.111422761594D-02 0.100000000000D+01
-.235830878124D-05 0.000000000000D+00 0.000000000000D+00 0.941026772080D-06 0.000000000000D+00  6 2 -1 25 24 2 -2 4 0.11352761D+00 0.15020313D-01 0.63942295D+05 0.63942295D+05 0.63942295D+05 0.11818456D+01  1  2  5  7  6  5       21 -.660211339282D-03 0.100000000000D+01
0.375593961916D-05 0.000000000000D+00 0.000000000000D+00 0.943640823083D-06 0.000000000000D+00  6 2 -1 25 24 3 -3 4 0.11352761D+00 0.15020313D-01 0.61490163D+05 0.61490163D+05 0.61490163D+05 0.11834860D+01  1  2 12  8  6  5       21 0.105726712802D-02 0.100000000000D+01
0.375593961916D-05 0.000000000000D+00 0.000000000000D+00 0.943640823083D-06 0.000000000000D+00  6 2 -1 25 24 4 -4 4 0.11352761D+00 0.15020313D-01 0.61490163D+05 0.61490163D+05 0.61490163D+05 0.11834860D+01  1  2 12  8  6  5       21 0.105726712802D-02 0.100000000000D+01
0.395829165266D-05 0.000000000000D+00 0.000000000000D+00 0.943640823083D-06 0.000000000000D+00  6 2 -1 25 24 3 -3 4 0.11352761D+00 0.15020313D-01 0.61490163D+05 0.61490163D+05 0.61490163D+05 0.11834860D+01  1  2 12  8  6  5       21 0.111422761594D-02 0.100000000000D+01
0.395829165266D-05 0.000000000000D+00 0.000000000000D+00 0.943640823083D-06 0.000000000000D+00  6 2 -1 25 24 4 -4 4 0.11352761D+00 0.15020313D-01 0.61490163D+05 0.61490163D+05 0.61490163D+05 0.11834860D+01  1  2 12  8  6  5       21 0.111422761594D-02 0.100000000000D+01
-.235830878124D-05 0.000000000000D+00 0.000000000000D+00 0.941026772080D-06 0.000000000000D+00  6 2 -1 25 24 3 -3 4 0.11352761D+00 0.15020313D-01 0.63942295D+05 0.63942295D+05 0.63942295D+05 0.11818456D+01  1  2  5  8  6  5       21 -.660211339282D-03 0.100000000000D+01
-.235830878124D-05 0.000000000000D+00 0.000000000000D+00 0.941026772080D-06 0.000000000000D+00  6 2 -1 25 24 4 -4 4 0.11352761D+00 0.15020313D-01 0.63942295D+05 0.63942295D+05 0.63942295D+05 0.11818456D+01  1  2  5  8  6  5       21 -.660211339282D-03 0.100000000000D+01
  </mgrwgt>
  </event>
  <event>
  5     66 0.46179844E-03 0.27642106E+02 0.75467711E-02 0.12117948E+00
        2 -1    0    0  502    0 0.00000000E+00 0.00000000E+00 0.26641207E+03 0.26641226E+03 0.32000000E+00 0.0000E+00 0.9000E+01
       -1 -1    0    0    0  501 0.00000000E+00 0.00000000E+00 -.88490052E+02 0.88490631E+02 0.32000000E+00 0.0000E+00 0.9000E+01
       25  1    1    2    0    0 0.70586070E+02 0.47514146E+01 0.15878265E+03 0.21410722E+03 0.12500000E+03 0.0000E+00 0.9000E+01
       24  1    1    2    0    0 -.70624387E+02 -.32385967E+02 0.16369058E+02 0.11301246E+03 0.80419002E+02 0.0000E+00 0.9000E+01
       21  1    1    2  502  501 0.38316922E-01 0.27634553E+02 0.27703110E+01 0.27783216E+02 0.75000000E+00 0.0000E+00 0.9000E+01
#aMCatNLO 1  0  0  5  1 0.76187798D+01 0.00000000D+00  -5  6  0 0.00000000D+00 0.00000000D+00 0.00000000D+00 0.00000000D+00 0.00000000D+00
  <mgrwgt>
 0.3758396716D+00   25    2    0
 0.153541378639324D+03 0.000000000000000D+00 0.000000000000000D+00 0.153541378639324D+03
 0.153541378639324D+03 -.000000000000000D+00 -.000000000000000D+00 -.153541378639324D+03
 0.155451684338899D+03 0.705860645836641D+02 0.474718445577343D+01 0.594583710686253D+02
 0.121127363169948D+03 -.706243919412361D+02 -.323892636198736D+02 -.465591346486041D+02
 0.305037097698021D+02 0.383273575719566D-01 0.276420791641002D+02 -.128992364200212D+02
 0.000000000000000D+00 0.000000000000000D+00 0.000000000000000D+00 -.000000000000000D+00
 0.153541378639324D+03 0.000000000000000D+00 0.000000000000000D+00 0.153541378639324D+03
 0.153541378639324D+03 -.000000000000000D+00 -.000000000000000D+00 -.153541378639324D+03
 0.155074066655608D+03 0.705898957844371D+02 0.751028532598287D+01 0.581689640321428D+02
 0.120959212217791D+03 -.706214051284781D+02 -.302351439535413D+02 -.475643592805170D+02
 0.224756840081193D+02 0.506934818655383D+01 0.215706422764967D+02 -.376370460792651D+01
 0.857379439712977D+01 -.503783884251281D+01 0.115421635106165D+01 -.684090014369929D+01
0.218987465795D-03 0.000000000000D+00 0.000000000000D+00 0.237728248506D-04 0.000000000000D+00  6 2 -1 25 24 21 21 2 0.40986532D-01 0.13613913D-01 0.20035694D+05 0.20035694D+05 0.20035694D+05 0.12337408D+01  1  2  2  3  6  5       21 0.170361903138D+00 0.100000000000D+01
0.320923300647D-04 0.115562860610D-04 -.840969529378D-06 0.237728248506D-04 0.000000000000D+00  6 2 -1 25 24 21 21 4 0.40986532D-01 0.13613913D-01 0.20035694D+05 0.20035694D+05 0.20035694D+05 0.12337408D+01  1  2  3  3  6  5       21 0.380016391704D-01 0.100000000000D+01
0.622317247122D-05 0.000000000000D+00 0.000000000000D+00 0.237728248506D-04 0.000000000000D+00  6 2 -1 25 24 21 21 4 0.40986532D-01 0.13613913D-01 0.20035694D+05 0.20035694D+05 0.20035694D+05 0.12337408D+01  1  2 15  3  6  5       21 0.736907398963D-02 0.100000000000D+01
0.102355002505D-03 0.000000000000D+00 0.000000000000D+00 0.237832874538D-04 0.000000000000D+00  6 2 -1 25 24 21 21 4 0.40986532D-01 0.13613913D-01 0.19922275D+05 0.19922275D+05 0.19922275D+05 0.12340123D+01  1  2 12  3  6  5       21 0.121289933899D+00 0.100000000000D+01
0.939493425783D-04 0.000000000000D+00 0.000000000000D+00 0.237832874538D-04 0.000000000000D+00  6 2 -1 25 24 21 21 4 0.40986532D-01 0.13613913D-01 0.19922275D+05 0.19922275D+05 0.19922275D+05 0.12340123D+01  1  2 12  3  6  5       21 0.111329287990D+00 0.100000000000D+01
-.212930953226D-03 0.000000000000D+00 0.000000000000D+00 0.237728248506D-04 0.000000000000D+00  6 2 -1 25 24 21 21 4 0.40986532D-01 0.13613913D-01 0.20035694D+05 0.20035694D+05 0.20035694D+05 0.12337408D+01  1  2  4  3  6  5       21 -.252138914076D+00 0.100000000000D+01
-.229324069136D-03 0.000000000000D+00 0.000000000000D+00 0.237728248506D-04 0.000000000000D+00  6 2 -1 25 24 21 21 4 0.40986532D-01 0.13613913D-01 0.20035694D+05 0.20035694D+05 0.20035694D+05 0.12337408D+01  1  2  5  3  6  5       21 -.271550570209D+00 0.100000000000D+01
0.369940655831D-03 0.000000000000D+00 -.000000000000D+00 0.237728248506D-04 0.000000000000D+00  6 2 -1 25 24 21 21 4 0.40986532D-01 0.13613913D-01 0.20035694D+05 0.20035694D+05 0.20035694D+05 0.12337408D+01  1  2  6  3  6  5       21 0.438059539117D+00 0.100000000000D+01
0.467693252549D-05 0.000000000000D+00 0.000000000000D+00 0.237728248506D-04 0.508762192889D-05  6 2 -1 25 24 21 21 4 0.40986532D-01 0.13613913D-01 0.19922275D+05 0.19922275D+05 0.19922275D+05 0.12340123D+01  1  2 11  3  6  5       21 0.554213104373D-02 0.100000000000D+01
0.266617923231D-05 0.000000000000D+00 0.000000000000D+00 0.237832874538D-04 0.000000000000D+00  6 2 -1 25 24 1 -1 4 0.40986532D-01 0.13613913D-01 0.19922275D+05 0.19922275D+05 0.19922275D+05 0.12340123D+01  1  2 12  6  6  5       21 0.315940300849D-02 0.100000000000D+01
0.251572640026D-05 0.000000000000D+00 0.000000000000D+00 0.237832874538D-04 0.000000000000D+00  6 2 -1 25 24 1 -1 4 0.40986532D-01 0.13613913D-01 0.19922275D+05 0.19922275D+05 0.19922275D+05 0.12340123D+01  1  2 12  6  6  5       21 0.298111749623D-02 0.100000000000D+01
-.364707516839D-05 0.000000000000D+00 0.000000000000D+00 0.237728248506D-04 0.000000000000D+00  6 2 -1 25 24 1 -1 4 0.40986532D-01 0.13613913D-01 0.20035694D+05 0.20035694D+05 0.20035694D+05 0.12337408D+01  1  2  5  6  6  5       21 -.431862798048D-02 0.100000000000D+01
0.481377939483D-07 0.000000000000D+00 0.000000000000D+00 0.237728248506D-04 0.894793743294D-07  6 2 -1 25 24 1 -1 4 0.40986532D-01 0.13613913D-01 0.19922275D+05 0.19922275D+05 0.19922275D+05 0.12340123D+01  1  2 11  6  6  5       21 0.570429358909D-04 0.100000000000D+01
0.266617923231D-05 0.000000000000D+00 0.000000000000D+00 0.237832874538D-04 0.000000000000D+00  6 2 -1 25 24 2 -2 4 0.40986532D-01 0.13613913D-01 0.19922275D+05 0.19922275D+05 0.19922275D+05 0.12340123D+01  1  2 12  7  6  5       21 0.315940300849D-02 0.100000000000D+01
0.251572640026D-05 0.000000000000D+00 0.000000000000D+00 0.237832874538D-04 0.000000000000D+00  6 2 -1 25 24 2 -2 4 0.40986532D-01 0.13613913D-01 0.19922275D+05 0.19922275D+05 0.19922275D+05 0.12340123D+01  1  2 12  7  6  5       21 0.298111749623D-02 0.100000000000D+01
-.364707516839D-05 0.000000000000D+00 0.000000000000D+00 0.237728248506D-04 0.000000000000D+00  6 2 -1 25 24 2 -2 4 0.40986532D-01 0.13613913D-01 0.20035694D+05 0.20035694D+05 0.20035694D+05 0.12337408D+01  1  2  5  7  6  5       21 -.431862798048D-02 0.100000000000D+01
0.651395376123D-07 0.000000000000D+00 0.000000000000D+00 0.237728248506D-04 0.814109488917D-07  6 2 -1 25 24 2 -2 4 0.40986532D-01 0.13613913D-01 0.19922275D+05 0.19922275D+05 0.19922275D+05 0.12340123D+01  1  2 11  7  6  5       21 0.771898785384D-04 0.100000000000D+01
0.266617923231D-05 0.000000000000D+00 0.000000000000D+00 0.237832874538D-04 0.000000000000D+00  6 2 -1 25 24 3 -3 4 0.40986532D-01 0.13613913D-01 0.19922275D+05 0.19922275D+05 0.19922275D+05 0.12340123D+01  1  2 12  8  6  5       21 0.315940300849D-02 0.100000000000D+01
0.266617923231D-05 0.000000000000D+00 0.000000000000D+00 0.237832874538D-04 0.000000000000D+00  6 2 -1 25 24 4 -4 4 0.40986532D-01 0.13613913D-01 0.19922275D+05 0.19922275D+05 0.19922275D+05 0.12340123D+01  1  2 12  8  6  5       21 0.315940300849D-02 0.100000000000D+01
0.251572640026D-05 0.000000000000D+00 0.000000000000D+00 0.237832874538D-04 0.000000000000D+00  6 2 -1 25 24 3 -3 4 0.40986532D-01 0.13613913D-01 0.19922275D+05 0.19922275D+05 0.19922275D+05 0.12340123D+01  1  2 12  8  6  5       21 0.298111749623D-02 0.100000000000D+01
0.251572640026D-05 0.000000000000D+00 0.000000000000D+00 0.237832874538D-04 0.000000000000D+00  6 2 -1 25 24 4 -4 4 0.40986532D-01 0.13613913D-01 0.19922275D+05 0.19922275D+05 0.19922275D+05 0.12340123D+01  1  2 12  8  6  5       21 0.298111749623D-02 0.100000000000D+01
-.364707516839D-05 0.000000000000D+00 0.000000000000D+00 0.237728248506D-04 0.000000000000D+00  6 2 -1 25 24 3 -3 4 0.40986532D-01 0.13613913D-01 0.20035694D+05 0.20035694D+05 0.20035694D+05 0.12337408D+01  1  2  5  8  6  5       21 -.431862798048D-02 0.100000000000D+01
-.364707516839D-05 0.000000000000D+00 0.000000000000D+00 0.237728248506D-04 0.000000000000D+00  6 2 -1 25 24 4 -4 4 0.40986532D-01 0.13613913D-01 0.20035694D+05 0.20035694D+05 0.20035694D+05 0.12337408D+01  1  2  5  8  6  5       21 -.431862798048D-02 0.100000000000D+01
0.649137444002D-07 0.000000000000D+00 0.000000000000D+00 0.237728248506D-04 0.804462066156D-07  6 2 -1 25 24 3 -3 4 0.40986532D-01 0.13613913D-01 0.19922275D+05 0.19922275D+05 0.19922275D+05 0.12340123D+01  1  2 11  8  6  5       21 0.769223152235D-04 0.100000000000D+01
0.649137444002D-07 0.000000000000D+00 0.000000000000D+00 0.237728248506D-04 0.804462066156D-07  6 2 -1 25 24 4 -4 4 0.40986532D-01 0.13613913D-01 0.19922275D+05 0.19922275D+05 0.19922275D+05 0.12340123D+01  1  2 11  8  6  5       21 0.769223152235D-04 0.100000000000D+01
  </mgrwgt>
  </event>
  <event>
  5     66 0.46179844E-03 0.42074590E+02 0.75467711E-02 0.12203972E+00
        2 -1    0    0  502    0 0.00000000E+00 0.00000000E+00 0.11508082E+04 0.11508083E+04 0.32000000E+00 0.0000E+00 0.9000E+01
       -1 -1    0    0    0  501 0.00000000E+00 0.00000000E+00 -.48273673E+02 0.48274733E+02 0.32000000E+00 0.0000E+00 0.9000E+01
       25  1    1    2    0    0 0.70070110E+01 -.57653668E+02 0.82957058E+03 0.84094315E+03 0.12500000E+03 0.0000E+00 0.9000E+01
       24  1    1    2    0    0 -.32134066E+02 0.23906332E+02 0.29657743E+03 0.30988627E+03 0.80419002E+02 0.0000E+00 0.9000E+01
       21  1    1    2  502  501 0.25127055E+02 0.33747336E+02 -.23613448E+02 0.48253590E+02 0.75000000E+00 0.0000E+00 0.9000E+01
#aMCatNLO 1  0  0  1  5 0.28586820D+02 0.00000000D+00  -5  6  0 0.00000000D+00 0.00000000D+00 0.00000000D+00 0.00000000D+00 0.00000000D+00
  <mgrwgt>
 0.3665259415D-01    1    2    0
 0.235699814927636D+03 0.000000000000000D+00 0.000000000000000D+00 0.235699814927636D+03
 0.235699814927636D+03 0.000000000000000D+00 0.000000000000000D+00 -.235699814927636D+03
 0.198834801777295D+03 0.700691687384874D+01 -.576537943015731D+02 0.143308134857624D+03
 0.945960395610200D+02 -.321341102807528D+02 0.239062722181397D+02 0.296156014856384D+02
 0.177968788516958D+03 0.251271934069041D+02 0.337475220834335D+02 -.172923736343262D+03
 0.000000000000000D+00 -.000000000000000D+00 0.000000000000000D+00 -.000000000000000D+00
 0.236608538798206D+03 0.000000000000000D+00 0.000000000000000D+00 0.236608538798206D+03
 0.307667151569760D+03 0.000000000000000D+00 0.000000000000000D+00 -.307667151569760D+03
 0.200072998863160D+03 0.124725249470762D+02 -.609214205281844D+02 0.143308134857624D+03
 0.933717192916897D+02 -.295586828294912D+02 0.223665470545848D+02 0.296156014856384D+02
 0.178195225342444D+03 0.300071503955056D+02 0.308300286907407D+02 -.172923736343262D+03
 0.726357468706715D+02 -.129209925130906D+02 0.772484478285891D+01 -.710586127715540D+02
0.669417866718D-04 0.000000000000D+00 0.000000000000D+00 0.259644626829D-04 0.000000000000D+00  6 2 -1 25 24 21 21 4 0.17704751D+00 0.74268039D-02 0.18191076D+05 0.18191076D+05 0.18191076D+05 0.12383846D+01  1  2 14  1  6  1        2 0.366525941528D-01 0.100000000000D+01
  </mgrwgt>
  </event>
  <event>
  5     66 -.46179844E-03 0.26486236E+02 0.75467711E-02 0.11438490E+00
        2 -1    0    0  502    0 0.00000000E+00 0.00000000E+00 0.12918842E+04 0.12918843E+04 0.32000000E+00 0.0000E+00 0.9000E+01
       -1 -1    0    0    0  501 0.00000000E+00 0.00000000E+00 -.49693438E+02 0.49694469E+02 0.32000000E+00 0.0000E+00 0.9000E+01
       25  1    1    2    0    0 -.37342003E+02 0.12938205E+03 0.20576242E+03 0.27585742E+03 0.12500000E+03 0.0000E+00 0.9000E+01
       24  1    1    2    0    0 0.12890730E+02 -.13956215E+03 0.44047624E+03 0.46918045E+03 0.80419002E+02 0.0000E+00 0.9000E+01
       21  1    1    2  502  501 0.24451273E+02 0.10180098E+02 0.59595213E+03 0.59654086E+03 0.75000000E+00 0.0000E+00 0.9000E+01
#aMCatNLO 1  0  0  2  2 0.45321236D+02 0.00000000D+00  -5  6  0 0.00000000D+00 0.00000000D+00 0.00000000D+00 0.00000000D+00 0.00000000D+00
  <mgrwgt>
 -.1404107516D+01    5    4    0
 0.253374992055998D+03 0.000000000000000D+00 0.000000000000000D+00 0.253374992055998D+03
 0.253374992055998D+03 0.000000000000000D+00 0.000000000000000D+00 -.253374992055998D+03
 0.225927106816565D+03 -.373422214215952D+02 0.129381962738894D+03 -.131468337677312D+03
 0.162381806779178D+03 0.128905728714782D+02 -.139562217348487D+03 0.160267226318634D+02
 0.118441070516253D+03 0.244516485501170D+02 0.101802546095929D+02 0.115441615045448D+03
 0.000000000000000D+00 -.000000000000000D+00 -.000000000000000D+00 -.000000000000000D+00
 0.254893669572733D+03 0.000000000000000D+00 0.000000000000000D+00 0.254893669572733D+03
 0.590987449337319D+03 0.000000000000000D+00 0.000000000000000D+00 -.590987449337319D+03
 0.226311505482789D+03 -.222533316477145D+02 0.133464463183379D+03 -.131468337677312D+03
 0.161108724289293D+03 0.236837975839124D+02 -.136641966399195D+03 0.160267226318634D+02
 0.120542039226716D+03 0.324252927783192D+02 0.123376304399970D+02 0.115441615045448D+03
 0.337918849911254D+03 -.338557587145170D+02 -.916012722418142D+01 -.336093779764586D+03
 0.253374992055998D+03 0.000000000000000D+00 0.000000000000000D+00 0.253374992055998D+03
 0.253374992055998D+03 0.000000000000000D+00 0.000000000000000D+00 -.253374992055998D+03
 0.225927106816565D+03 -.373422214215952D+02 0.129381962738894D+03 -.131468337677312D+03
 0.162381806779178D+03 0.128905728714782D+02 -.139562217348487D+03 0.160267226318634D+02
 0.000000000000000D+00 -.000000000000000D+00 -.000000000000000D+00 -.000000000000000D+00
 0.118441070516253D+03 0.244516485501170D+02 0.101802546095929D+02 0.115441615045448D+03
 0.254893669572733D+03 0.000000000000000D+00 0.000000000000000D+00 0.254893669572733D+03
 0.590987449337319D+03 0.000000000000000D+00 0.000000000000000D+00 -.590987449337319D+03
 0.226311505482789D+03 -.222533316477145D+02 0.133464463183379D+03 -.131468337677312D+03
 0.161108724289293D+03 0.236837975839124D+02 -.136641966399195D+03 0.160267226318634D+02
 0.337918849911254D+03 -.338557587145170D+02 -.916012722418142D+01 -.336093779764586D+03
 0.120542039226716D+03 0.324252927783192D+02 0.123376304399970D+02 0.115441615045448D+03
0.157549066224D-03 0.000000000000D+00 0.000000000000D+00 0.259527773678D-04 0.000000000000D+00  6 2 -1 25 24 21 21 2 0.19875150D+00 0.76452267D-02 0.34561003D+05 0.34561003D+05 0.34561003D+05 0.12084999D+01  1  2  2  2  6  2       -1 0.429052190977D-01 0.100000000000D+01
0.307996594038D-04 0.831409264146D-05 -.605029897924D-06 0.259527773678D-04 0.000000000000D+00  6 2 -1 25 24 21 21 4 0.19875150D+00 0.76452267D-02 0.34561003D+05 0.34561003D+05 0.34561003D+05 0.12084999D+01  1  2  3  2  6  2       -1 0.122499244704D-01 0.100000000000D+01
0.348473037773D-05 0.000000000000D+00 0.000000000000D+00 0.259527773678D-04 0.000000000000D+00  6 2 -1 25 24 21 21 4 0.19875150D+00 0.76452267D-02 0.34561003D+05 0.34561003D+05 0.34561003D+05 0.12084999D+01  1  2 15  2  6  2       -1 0.138597909046D-02 0.100000000000D+01
-.627011490906D-02 0.000000000000D+00 -.795512611204D-04 0.259527773678D-04 0.000000000000D+00  6 2 -1 25 24 21 21 4 0.19875150D+00 0.17878116D-01 0.34561003D+05 0.34561003D+05 0.34561003D+05 0.12084999D+01  1  2  5  2  6  2       -1 -.665661184908D+00 0.100000000000D+01
-.575767454795D-03 0.000000000000D+00 -.736873429439D-05 0.259527773678D-04 0.000000000000D+00  6 2 21 25 24 1 21 4 0.19875150D+00 0.17878116D-01 0.34561003D+05 0.34561003D+05 0.34561003D+05 0.12084999D+01  3  4  5  5  5  2       -1 -.794987453396D+00 0.100000000000D+01
  </mgrwgt>
  </event>
  <event>
  5     66 0.46179844E-03 0.12547401E+03 0.75467711E-02 0.11726399E+00
        2 -1    0    0  502    0 0.00000000E+00 0.00000000E+00 0.10009171E+04 0.10009171E+04 0.32000000E+00 0.0000E+00 0.9000E+01
       -1 -1    0    0    0  501 0.00000000E+00 0.00000000E+00 -.36297510E+02 0.36298920E+02 0.32000000E+00 0.0000E+00 0.9000E+01
       25  1    1    2    0    0 0.22495287E+02 -.59740156E+02 0.46714854E+03 0.48777832E+03 0.12500000E+03 0.0000E+00 0.9000E+01
       24  1    1    2    0    0 0.62886028E+02 -.32202126E+02 0.20754235E+03 0.23352232E+03 0.80419002E+02 0.0000E+00 0.9000E+01
       21  1    1    2  502  501 -.85381315E+02 0.91942283E+02 0.28992869E+03 0.31591543E+03 0.75000000E+00 0.0000E+00 0.9000E+01
#aMCatNLO 1  0  0  5  1 0.51380694D+02 0.00000000D+00  -5  6  0 0.00000000D+00 0.00000000D+00 0.00000000D+00 0.00000000D+00 0.00000000D+00
  <mgrwgt>
 0.2628728083D-01    4    2    0
 0.190608383880629D+03 0.000000000000000D+00 0.000000000000000D+00 0.190608383880629D+03
 0.190608383880629D+03 -.000000000000000D+00 -.000000000000000D+00 -.190608383880629D+03
 0.145090707708398D+03 0.224958631029011D+02 -.597407769369195D+02 0.367598854398733D+02
 0.110209805759397D+03 0.628864658210514D+02 -.322025979012443D+02 -.262158432269853D+02
 0.125916254293464D+03 -.853823289239526D+02 0.919433748381638D+02 -.105440422128880D+02
 0.000000000000000D+00 0.000000000000000D+00 -.000000000000000D+00 0.000000000000000D+00
 0.190608383880629D+03 0.000000000000000D+00 0.000000000000000D+00 0.190608383880629D+03
 0.190608383880629D+03 -.000000000000000D+00 -.000000000000000D+00 -.190608383880629D+03
 0.135288454276365D+03 0.287273225965561D+01 -.386097431813772D+02 0.343365840077410D+02
 0.992376859327741D+02 0.482276890946684D+02 -.164173948011600D+02 -.280260861957610D+02
 0.950986757813821D+02 -.318146143461014D+02 0.837161664451142D+02 0.319873713380016D+02
 0.515919517707371D+02 -.192858070082226D+02 -.286890284625769D+02 -.382978691499815D+02
0.525907103437D-04 0.000000000000D+00 0.000000000000D+00 0.185542513378D-05 0.000000000000D+00  6 2 -1 25 24 21 21 2 0.15398736D+00 0.55843447D-02 0.34759347D+05 0.34759347D+05 0.34759347D+05 0.12082433D+01  1  2  2  3  6  5       21 0.337312829585D-01 0.100000000000D+01
-.484695875047D-05 0.277528803157D-05 -.201962175172D-06 0.185542513378D-05 0.000000000000D+00  6 2 -1 25 24 21 21 4 0.15398736D+00 0.55843447D-02 0.34759347D+05 0.34759347D+05 0.34759347D+05 0.12082433D+01  1  2  3  3  6  5       21 -.453839146875D-02 0.100000000000D+01
0.247563713117D-05 0.000000000000D+00 0.000000000000D+00 0.185542513378D-05 0.000000000000D+00  6 2 -1 25 24 21 21 4 0.15398736D+00 0.55843447D-02 0.34759347D+05 0.34759347D+05 0.34759347D+05 0.12082433D+01  1  2 15  3  6  5       21 0.231803302117D-02 0.100000000000D+01
-.557880156849D-05 0.000000000000D+00 0.000000000000D+00 0.185542513378D-05 0.000000000000D+00  6 2 -1 25 24 21 21 4 0.15398736D+00 0.55843447D-02 0.34759347D+05 0.34759347D+05 0.34759347D+05 0.12082433D+01  1  2  4  3  6  5       21 -.522364368004D-02 0.100000000000D+01
  </mgrwgt>
  </event>
  <event>
  5     66 0.46179844E-03 0.70997201E+02 0.75467711E-02 0.11226747E+00
        2 -1    0    0  502    0 0.00000000E+00 0.00000000E+00 0.12395369E+04 0.12395369E+04 0.32000000E+00 0.0000E+00 0.9000E+01
       -1 -1    0    0    0  501 0.00000000E+00 0.00000000E+00 -.63021883E+02 0.63022695E+02 0.32000000E+00 0.0000E+00 0.9000E+01
       25  1    1    2    0    0 0.18245979E+02 -.13804963E+03 0.40528177E+03 0.44639548E+03 0.12500000E+03 0.0000E+00 0.9000E+01
       24  1    1    2    0    0 -.80093756E+02 0.18213184E+03 0.25021536E+03 0.32963914E+03 0.80419002E+02 0.0000E+00 0.9000E+01
       21  1    1    2  502  501 0.61847777E+02 -.44082210E+02 0.52101787E+03 0.52652500E+03 0.75000000E+00 0.0000E+00 0.9000E+01
#aMCatNLO 1  0  0  5  2 0.32675391D+02 0.00000000D+00  -5  6  0 0.00000000D+00 0.00000000D+00 0.00000000D+00 0.00000000D+00 0.00000000D+00
  <mgrwgt>
 0.2842247597D+00   15    2    0
 0.279496876503010D+03 0.000000000000000D+00 0.000000000000000D+00 0.279496876503010D+03
 0.279496876503010D+03 -.000000000000000D+00 -.000000000000000D+00 -.279496876503010D+03
 0.187187288163616D+03 0.182456359373257D+02 -.138049388627671D+03 0.485220762306270D+01
 0.241492703418442D+03 -.800941988363794D+02 0.182132158117113D+03 -.110744327811128D+03
 0.130313761423961D+03 0.618485628990538D+02 -.440827694894417D+02 0.105892120188065D+03
 0.000000000000000D+00 0.000000000000000D+00 0.000000000000000D+00 0.000000000000000D+00
 0.279496876503010D+03 0.000000000000000D+00 0.000000000000000D+00 0.279496876503010D+03
 0.279496876503010D+03 -.000000000000000D+00 -.000000000000000D+00 -.279496876503010D+03
 0.189460738892283D+03 0.214857172220574D+02 -.140358767369988D+03 0.103996134274935D+02
 0.234775547732767D+03 -.759971433994265D+02 0.179211968189540D+03 -.103729679993763D+03
 0.458642298761042D+02 0.424405554977058D+02 -.151650949435049D+02 0.850568789274333D+01
 0.888932365048648D+02 0.120708706796633D+02 -.236881058760479D+02 0.848243786735265D+02
0.807331621644D-03 0.000000000000D+00 0.000000000000D+00 0.294200131165D-05 0.000000000000D+00  6 2 -1 25 24 21 21 2 0.19069805D+00 0.96957399D-02 0.57044115D+05 0.57044115D+05 0.57044115D+05 0.11866541D+01  1  2  2  3  6  5       21 0.157329487555D+00 0.100000000000D+01
0.114880210314D-04 0.426040601546D-04 -.310036600241D-05 0.294200131165D-05 0.000000000000D+00  6 2 -1 25 24 21 21 4 0.19069805D+00 0.96957399D-02 0.57044115D+05 0.57044115D+05 0.57044115D+05 0.11866541D+01  1  2  3  3  6  5       21 0.315247530054D-02 0.100000000000D+01
0.270812270945D-04 0.000000000000D+00 0.000000000000D+00 0.294200131165D-05 0.000000000000D+00  6 2 -1 25 24 21 21 4 0.19069805D+00 0.96957399D-02 0.57044115D+05 0.57044115D+05 0.57044115D+05 0.11866541D+01  1  2 15  3  6  5       21 0.743147138138D-02 0.100000000000D+01
0.151468571803D-03 0.000000000000D+00 0.000000000000D+00 0.294753093911D-05 0.000000000000D+00  6 2 -1 25 24 21 21 4 0.19069805D+00 0.96957399D-02 0.55565686D+05 0.55565686D+05 0.55565686D+05 0.11877688D+01  1  2 12  3  6  5       21 0.417267441578D-01 0.100000000000D+01
-.181236589288D-03 0.000000000000D+00 0.000000000000D+00 0.294200131165D-05 0.000000000000D+00  6 2 -1 25 24 21 21 4 0.19069805D+00 0.96957399D-02 0.57044115D+05 0.57044115D+05 0.57044115D+05 0.11866541D+01  1  2  4  3  6  5       21 -.497338810331D-01 0.100000000000D+01
-.224152704067D-03 0.000000000000D+00 0.000000000000D+00 0.294200131165D-05 0.000000000000D+00  6 2 -1 25 24 21 21 4 0.19069805D+00 0.96957399D-02 0.57044115D+05 0.57044115D+05 0.57044115D+05 0.11866541D+01  1  2  5  3  6  5       21 -.615106693473D-01 0.100000000000D+01
0.667317712339D-03 0.000000000000D+00 -.000000000000D+00 0.294200131165D-05 0.000000000000D+00  6 2 -1 25 24 21 21 4 0.19069805D+00 0.96957399D-02 0.57044115D+05 0.57044115D+05 0.57044115D+05 0.11866541D+01  1  2  6  3  6  5       21 0.183121409684D+00 0.100000000000D+01
0.123328305695D-04 0.000000000000D+00 0.000000000000D+00 0.294753093911D-05 0.000000000000D+00  6 2 -1 25 24 1 -1 4 0.19069805D+00 0.96957399D-02 0.55565686D+05 0.55565686D+05 0.55565686D+05 0.11877688D+01  1  2 12  6  6  5       21 0.339746298383D-02 0.100000000000D+01
-.991396644427D-05 0.000000000000D+00 0.000000000000D+00 0.294200131165D-05 0.000000000000D+00  6 2 -1 25 24 1 -1 4 0.19069805D+00 0.96957399D-02 0.57044115D+05 0.57044115D+05 0.57044115D+05 0.11866541D+01  1  2  5  6  6  5       21 -.272053247991D-02 0.100000000000D+01
0.123328305695D-04 0.000000000000D+00 0.000000000000D+00 0.294753093911D-05 0.000000000000D+00  6 2 -1 25 24 2 -2 4 0.19069805D+00 0.96957399D-02 0.55565686D+05 0.55565686D+05 0.55565686D+05 0.11877688D+01  1  2 12  7  6  5       21 0.339746298383D-02 0.100000000000D+01
-.991396644427D-05 0.000000000000D+00 0.000000000000D+00 0.294200131165D-05 0.000000000000D+00  6 2 -1 25 24 2 -2 4 0.19069805D+00 0.96957399D-02 0.57044115D+05 0.57044115D+05 0.57044115D+05 0.11866541D+01  1  2  5  7  6  5       21 -.272053247991D-02 0.100000000000D+01
0.123328305695D-04 0.000000000000D+00 0.000000000000D+00 0.294753093911D-05 0.000000000000D+00  6 2 -1 25 24 3 -3 4 0.19069805D+00 0.96957399D-02 0.55565686D+05 0.55565686D+05 0.55565686D+05 0.11877688D+01  1  2 12  8  6  5       21 0.339746298383D-02 0.100000000000D+01
0.123328305695D-04 0.000000000000D+00 0.000000000000D+00 0.294753093911D-05 0.000000000000D+00  6 2 -1 25 24 4 -4 4 0.19069805D+00 0.96957399D-02 0.55565686D+05 0.55565686D+05 0.55565686D+05 0.11877688D+01  1  2 12  8  6  5       21 0.339746298383D-02 0.100000000000D+01
-.991396644427D-05 0.000000000000D+00 0.000000000000D+00 0.294200131165D-05 0.000000000000D+00  6 2 -1 25 24 3 -3 4 0.19069805D+00 0.96957399D-02 0.57044115D+05 0.57044115D+05 0.57044115D+05 0.11866541D+01  1  2  5  8  6  5       21 -.272053247991D-02 0.100000000000D+01
-.991396644427D-05 0.000000000000D+00 0.000000000000D+00 0.294200131165D-05 0.000000000000D+00  6 2 -1 25 24 4 -4 4 0.19069805D+00 0.96957399D-02 0.57044115D+05 0.57044115D+05 0.57044115D+05 0.11866541D+01  1  2  5  8  6  5       21 -.272053247991D-02 0.100000000000D+01
  </mgrwgt>
  </event>
  <event>
  6     66 -.46179844E-03 0.15396337E+02 0.75467711E-02 0.12463806E+00
        4 -1    0    0  502    0 0.00000000E+00 0.00000000E+00 0.20057507E+03 0.20058105E+03 0.15500000E+01 0.0000E+00 0.9000E+01
       -3 -1    0    0    0  501 0.00000000E+00 0.00000000E+00 -.75965316E+02 0.75966961E+02 0.50000000E+00 0.0000E+00 0.9000E+01
       25  1    1    2    0    0 -.30399856E+01 0.16042292E+02 0.54693339E+02 0.13741528E+03 0.12500000E+03 0.0000E+00 0.9000E+01
       24  1    1    2    0    0 -.14658799E+02 -.25149121E+02 0.72045067E+02 0.11182605E+03 0.80419002E+02 0.0000E+00 0.9000E+01
       21  1    1    2  503  501 0.12773298E+02 0.14595504E+02 -.36219469E+01 0.19745047E+02 0.75000000E+00 0.0000E+00 0.9000E+01
       21  1    1    2  502  503 0.49254862E+01 -.54886746E+01 0.14932906E+01 0.75616387E+01 0.75000000E+00 0.0000E+00 0.9000E+01
#aMCatNLO 2  0  0  5  1 0.74214652D+01 0.00000000D+00  -5  6  0 0.00000000D+00 0.00000000D+00 0.00000000D+00 0.00000000D+00 0.00000000D+00
  <mgrwgt>
 -.1285221867D+00    3    2    0
 0.123441499379382D+03 0.000000000000000D+00 0.000000000000000D+00 0.123441499379382D+03
 0.123441499379382D+03 -.000000000000000D+00 -.000000000000000D+00 -.123441499379382D+03
 0.126145052153854D+03 -.519049714259383D+01 0.149357554837089D+02 -.612830567465884D+01
 0.897743327795699D+02 -.161807436903002D+02 -.259322310078965D+02 0.256499083863534D+02
 0.309636138253411D+02 0.213712408328940D+02 0.109964755241877D+02 -.195216027116946D+02
 0.000000000000000D+00 0.000000000000000D+00 0.000000000000000D+00 -.000000000000000D+00
 0.123441499379382D+03 0.000000000000000D+00 0.000000000000000D+00 0.123441499379382D+03
 0.123441499379382D+03 -.000000000000000D+00 -.000000000000000D+00 -.123441499379382D+03
 0.126326949124850D+03 -.298433161740876D+01 0.160709279984776D+02 -.814353198910901D+01
 0.888775163056726D+02 -.146196377123453D+02 -.251289709720627D+02 0.242239130063575D+02
 0.236579394282889D+02 0.123997291364663D+02 0.147072023325491D+02 -.137710934527479D+02
 0.802059389995275D+01 0.520424019328776D+01 -.564915935896400D+01 -.230928756450056D+01
-.231424663798D-03 0.000000000000D+00 0.000000000000D+00 0.450455730623D-04 0.000000000000D+00  6 4 -3 25 24 21 21 4 0.30858290D-01 0.11687559D-01 0.14219922D+05 0.14219922D+05 0.14219922D+05 0.12504754D+01  1  2 13  3  6  5       21 -.615041584002D-01 0.100000000000D+01
-.177532143525D-03 0.000000000000D+00 0.000000000000D+00 0.450455730623D-04 0.000000000000D+00  6 4 -3 25 24 21 21 4 0.30858290D-01 0.11687559D-01 0.14219922D+05 0.14219922D+05 0.14219922D+05 0.12504754D+01  1  2 13  3  6  5       21 -.471815099450D-01 0.100000000000D+01
-.745455544354D-04 0.000000000000D+00 0.000000000000D+00 0.451193013291D-04 0.000000000000D+00  6 4 -3 25 24 21 21 4 0.30858290D-01 0.11687559D-01 0.13931382D+05 0.13931382D+05 0.13931382D+05 0.12514983D+01  1  2  8  3  6  5       21 -.198365183536D-01 0.100000000000D+01
  </mgrwgt>
  </event>
  <event>
  6     66 -.46179844E-03 0.24296887E+02 0.75467711E-02 0.11979853E+00
        2 -1    0    0  502    0 0.00000000E+00 0.00000000E+00 0.12017235E+03 0.12017278E+03 0.32000000E+00 0.0000E+00 0.9000E+01
       -1 -1    0    0    0  501 -.00000000E+00 -.00000000E+00 -.20435518E+03 0.20435543E+03 0.32000000E+00 0.0000E+00 0.9000E+01
       25  1    1    2    0    0 -.40655785E+02 0.56781815E+02 -.25384970E+02 0.14541824E+03 0.12500000E+03 0.0000E+00 0.9000E+01
       24  1    1    2    0    0 0.70755771E+02 -.59998256E+02 -.65097813E+02 0.13896442E+03 0.80419002E+02 0.0000E+00 0.9000E+01
       21  1    1    2  503  501 -.26743199E+02 0.11505329E+02 0.94764584E+01 0.30625758E+02 0.75000000E+00 0.0000E+00 0.9000E+01
       21  1    1    2  502  503 -.33567869E+01 -.82888887E+01 -.31765011E+01 0.95197875E+01 0.75000000E+00 0.0000E+00 0.9000E+01
#aMCatNLO 2  0  0  5  2 0.90595142D+01 0.00000000D+00  -5  6  0 0.00000000D+00 0.00000000D+00 0.00000000D+00 0.00000000D+00 0.00000000D+00
  <mgrwgt>
 -.6611683714D-01    4    2    0
 0.156709770993815D+03 0.000000000000000D+00 0.000000000000000D+00 0.156709770993815D+03
 0.156709770993815D+03 -.000000000000000D+00 -.000000000000000D+00 -.156709770993815D+03
 0.142540236383384D+03 -.373024937084399D+02 0.564234874423329D+02 0.108458755390041D+02
 0.128664644629173D+03 0.737433344351538D+02 -.603175022115812D+02 -.317977102402313D+02
 0.422146609750736D+02 -.364408407267138D+02 0.389401476924832D+01 0.209518347012272D+02
 0.000000000000000D+00 0.000000000000000D+00 0.000000000000000D+00 -.000000000000000D+00
 0.156709770993815D+03 0.000000000000000D+00 0.000000000000000D+00 0.156709770993815D+03
 0.156709770993815D+03 -.000000000000000D+00 -.000000000000000D+00 -.156709770993815D+03
 0.143782728263856D+03 -.407318573135123D+02 0.567899442051563D+02 0.128176044549950D+02
 0.126354914401246D+03 0.706888997501888D+02 -.599911098030153D+02 -.300415484901494D+02
 0.340235889853999D+02 -.264259460412719D+02 0.117300237564721D+02 0.179354544392890D+02
 0.925831033712798D+01 -.353109639540458D+01 -.852885815861302D+01 -.711510404134560D+00
-.104483435865D-03 0.000000000000D+00 0.000000000000D+00 0.153611210714D-04 0.000000000000D+00  6 2 -1 25 24 21 21 4 0.18488106D-01 0.31439310D-01 0.23116960D+05 0.23116960D+05 0.23116960D+05 0.12269607D+01  1  2 13  3  6  5       21 -.751496890932D-01 0.100000000000D+01
-.132554045738D-03 0.000000000000D+00 0.000000000000D+00 0.153611210714D-04 0.000000000000D+00  6 2 -1 25 24 21 21 4 0.18488106D-01 0.31439310D-01 0.23116960D+05 0.23116960D+05 0.23116960D+05 0.12269607D+01  1  2 13  3  6  5       21 -.953394692923D-01 0.100000000000D+01
-.690249006201D-04 0.000000000000D+00 0.000000000000D+00 0.153660529830D-04 0.000000000000D+00  6 2 -1 25 24 21 21 4 0.18488106D-01 0.31439310D-01 0.23020304D+05 0.23020304D+05 0.23020304D+05 0.12271577D+01  1  2  8  3  6  5       21 -.496731595545D-01 0.100000000000D+01
0.214175218924D-03 0.000000000000D+00 0.000000000000D+00 0.153660529830D-04 0.978987066836D-06  6 2 -1 25 24 21 21 4 0.18488106D-01 0.31439310D-01 0.23116960D+05 0.23116960D+05 0.23116960D+05 0.12269607D+01  1  2  1  3  6  5       21 0.154045480801D+00 0.100000000000D+01
  </mgrwgt>
  </event>
  <event>
  5     66 -.46179844E-03 0.25742006E+02 0.75467711E-02 0.12408426E+00
        2 -1    0    0  502    0 0.00000000E+00 0.00000000E+00 0.27763378E+04 0.27763379E+04 0.32000000E+00 0.0000E+00 0.9000E+01
       -1 -1    0    0    0  501 0.00000000E+00 0.00000000E+00 -.71315036E+01 0.71386794E+01 0.32000000E+00 0.0000E+00 0.9000E+01
       25  1    1    2    0    0 -.21199772E+02 0.24650668E+02 0.94758519E+03 0.95634710E+03 0.12500000E+03 0.0000E+00 0.9000E+01
       24  1    1    2    0    0 -.39035546E+01 -.30329817E+02 0.17247521E+04 0.17268967E+04 0.80419002E+02 0.0000E+00 0.9000E+01
       21  1    1    2  502  501 0.25103327E+02 0.56791496E+01 0.96869011E+02 0.10023272E+03 0.75000000E+00 0.0000E+00 0.9000E+01
#aMCatNLO 1  0  0  2  2 0.18309172D+01 0.00000000D+00  -5  6  0 0.00000000D+00 0.00000000D+00 0.00000000D+00 0.00000000D+00 0.00000000D+00
  <mgrwgt>
 -.1173379930D+01    9    4    0
 0.140746139386754D+03 0.000000000000000D+00 0.000000000000000D+00 0.140746139386754D+03
 0.140746139386754D+03 0.000000000000000D+00 0.000000000000000D+00 -.140746139386754D+03
 0.134677491633602D+03 -.212020913688728D+02 0.246501430904671D+02 -.381558451606631D+02
 0.108643737389804D+03 -.390542523043202D+01 -.303302405635294D+02 0.663405598467639D+02
 0.381710497501020D+02 0.251075165993048D+02 0.568009747306223D+01 -.281847146861008D+02
 0.000000000000000D+00 0.000000000000000D+00 0.000000000000000D+00 -.000000000000000D+00
 0.140996804125722D+03 0.000000000000000D+00 0.000000000000000D+00 0.140996804125722D+03
 0.144132671690508D+03 0.000000000000000D+00 0.000000000000000D+00 -.144132671690508D+03
 0.134647273017597D+03 -.217686562955291D+02 0.239821853515888D+02 -.381558451606631D+02
 0.108812913850098D+03 -.436287782236214D+01 -.308695591562862D+02 0.663405598467639D+02
 0.380380462830899D+02 0.249471993668345D+02 0.549108976879777D+01 -.281847146861008D+02
 0.363124266544499D+01 0.118433475105670D+01 0.139628403589956D+01 -.313586756478642D+01
 0.140746139386754D+03 0.000000000000000D+00 0.000000000000000D+00 0.140746139386754D+03
 0.140746139386754D+03 0.000000000000000D+00 0.000000000000000D+00 -.140746139386754D+03
 0.134677491633602D+03 -.212020913688728D+02 0.246501430904671D+02 -.381558451606631D+02
 0.108643737389804D+03 -.390542523043202D+01 -.303302405635294D+02 0.663405598467639D+02
 0.000000000000000D+00 0.000000000000000D+00 0.000000000000000D+00 -.000000000000000D+00
 0.381710497501020D+02 0.251075165993048D+02 0.568009747306223D+01 -.281847146861008D+02
 0.140996804125722D+03 0.000000000000000D+00 0.000000000000000D+00 0.140996804125722D+03
 0.144132671690508D+03 0.000000000000000D+00 0.000000000000000D+00 -.144132671690508D+03
 0.134647273017597D+03 -.217686562955291D+02 0.239821853515888D+02 -.381558451606631D+02
 0.108812913850098D+03 -.436287782236214D+01 -.308695591562862D+02 0.663405598467639D+02
 0.363124266544499D+01 0.118433475105670D+01 0.139628403589956D+01 -.313586756478642D+01
 0.380380462830899D+02 0.249471993668345D+02 0.549108976879777D+01 -.281847146861008D+02
0.106348802677D-03 0.000000000000D+00 0.000000000000D+00 0.300003392506D-04 0.000000000000D+00  6 2 -1 25 24 21 21 2 0.42712945D+00 0.10977078D-02 0.14512851D+05 0.14512851D+05 0.14512851D+05 0.12494605D+01  1  2  2  2  6  2       -1 0.876176977531D-01 0.100000000000D+01
0.950690514876D-05 0.561218050323D-05 -.408407404563D-06 0.300003392506D-04 0.000000000000D+00  6 2 -1 25 24 21 21 4 0.42712945D+00 0.10977078D-02 0.14512851D+05 0.14512851D+05 0.14512851D+05 0.12494605D+01  1  2  3  2  6  2       -1 0.122276620679D-01 0.100000000000D+01
0.407669840509D-05 0.000000000000D+00 0.000000000000D+00 0.300003392506D-04 0.000000000000D+00  6 2 -1 25 24 21 21 4 0.42712945D+00 0.10977078D-02 0.14512851D+05 0.14512851D+05 0.14512851D+05 0.12494605D+01  1  2 15  2  6  2       -1 0.524339831631D-02 0.100000000000D+01
-.203739564372D-02 0.000000000000D+00 0.000000000000D+00 0.300003392506D-04 0.000000000000D+00  6 2 -1 25 24 21 21 4 0.42712945D+00 0.10977078D-02 0.14512851D+05 0.14512851D+05 0.14512851D+05 0.12494605D+01  1  2  4  2  6  2       -1 -.262047270277D+01 0.100000000000D+01
-.117675311624D-01 0.000000000000D+00 -.873029379890D-03 0.300003392506D-04 0.000000000000D+00  6 2 -1 25 24 21 21 4 0.42712945D+00 0.11265840D-02 0.14512851D+05 0.14512851D+05 0.14512851D+05 0.12494605D+01  1  2  5  2  6  2       -1 -.145860226884D+02 0.100000000000D+01
0.117865207306D-01 0.000000000000D+00 0.872735153249D-03 0.300003392506D-04 0.000000000000D+00  6 2 -1 25 24 21 21 4 0.42712945D+00 0.10977078D-02 0.14512851D+05 0.14512851D+05 0.14512851D+05 0.12494605D+01  1  2  6  2  6  2       -1 0.151596750147D+02 0.100000000000D+01
0.181604739148D-02 0.000000000000D+00 0.000000000000D+00 0.300003392506D-04 0.146755027561D-03  6 2 -1 25 24 21 21 4 0.42789016D+00 0.11241201D-02 0.14732363D+05 0.14732363D+05 0.14732363D+05 0.12487149D+01  1  2 11  2  6  2       -1 0.223851704485D+01 0.100000000000D+01
-.549102965046D-04 0.000000000000D+00 -.408962692106D-05 0.300003392506D-04 0.000000000000D+00  6 2 21 25 24 1 21 4 0.42712945D+00 0.11265840D-02 0.14512851D+05 0.14512851D+05 0.14512851D+05 0.12494605D+01  3  4  5  5  5  2       -1 -.155889266103D+01 0.100000000000D+01
0.314239203219D-05 0.000000000000D+00 0.000000000000D+00 0.300003392506D-04 0.507163928239D-06  6 2 21 25 24 1 21 4 0.42789016D+00 0.11241201D-02 0.14732363D+05 0.14732363D+05 0.14732363D+05 0.12487149D+01  3  4 11  5  5  2       -1 0.887273041258D-01 0.100000000000D+01
  </mgrwgt>
  </event>
  <event>
  6     66 0.46179844E-03 0.38940096E+02 0.75467711E-02 0.12069228E+00
        2 -1    0    0  502    0 0.00000000E+00 0.00000000E+00 0.24971732E+03 0.24971752E+03 0.32000000E+00 0.0000E+00 0.9000E+01
       -1 -1    0    0    0  503 0.00000000E+00 0.00000000E+00 -.54728974E+03 0.54728983E+03 0.32000000E+00 0.0000E+00 0.9000E+01
       25  1    1    2    0    0 0.59023121E+02 -.36420404E+02 -.10429581E+02 0.14333161E+03 0.12500000E+03 0.0000E+00 0.9000E+01
       24  1    1    2    0    0 -.25537030E+02 0.59377930E+02 0.16734414E+03 0.19659388E+03 0.80419002E+02 0.0000E+00 0.9000E+01
       21  1    1    2  502  501 -.19353553E+01 0.24312349E+01 -.62645923E+01 0.70330733E+01 0.75000000E+00 0.0000E+00 0.9000E+01
       21  1    1    2  501  503 -.31550736E+02 -.25388761E+02 -.44822239E+03 0.45004879E+03 0.75000000E+00 0.0000E+00 0.9000E+01
#aMCatNLO 2  0  0  2  1 0.54688363D+02 0.00000000D+00  -5  6  0 0.00000000D+00 0.00000000D+00 0.00000000D+00 0.00000000D+00 0.00000000D+00
  <mgrwgt>
 0.1628440786D+00    1    2    0
 0.154955475717546D+03 0.000000000000000D+00 0.000000000000000D+00 0.154955475717546D+03
 0.154955475717546D+03 0.000000000000000D+00 0.000000000000000D+00 -.154955475717546D+03
 0.162505725436598D+03 0.424697998227083D+02 -.497457541239373D+02 -.806522587987144D+02
 0.136489186279395D+03 -.394253568879581D+02 0.481978842376556D+02 0.910202571195640D+02
 0.109160397190991D+02 -.304444293475017D+01 0.154786988628167D+01 -.103679983208496D+02
 0.000000000000000D+00 -.000000000000000D+00 -.000000000000000D+00 -.000000000000000D+00
 0.156846247581488D+03 0.000000000000000D+00 0.000000000000000D+00 0.156846247581488D+03
 0.871346971410645D+03 0.000000000000000D+00 0.000000000000000D+00 -.871346971410645D+03
 0.164135670080483D+03 0.590264162512826D+02 -.364227062141813D+02 -.806522587987144D+02
 0.137584355263332D+03 -.255332704505960D+02 0.593767947336441D+02 0.910202571195640D+02
 0.108257088511792D+02 -.194240933917738D+01 0.243467223839977D+01 -.103679983208496D+02
 0.715647484797140D+03 -.315507364615092D+02 -.253887607578626D+02 -.714500723829157D+03
0.310858917283D-02 0.000000000000D+00 0.000000000000D+00 0.108526410745D-02 0.107163305218D-04  6 2 -1 25 24 21 21 4 0.38418024D-01 0.84198339D-01 0.20987178D+05 0.20987178D+05 0.20987178D+05 0.12315291D+01  1  2  1  2  6  2       -1 0.162844078573D+00 0.100000000000D+01
  </mgrwgt>
  </event>
  <event>
  6     66 0.46179844E-03 0.22429076E+02 0.75467711E-02 0.11958097E+00
        4 -1    0    0  502    0 0.00000000E+00 0.00000000E+00 0.36858820E+02 0.36891396E+02 0.15500000E+01 0.0000E+00 0.9000E+01
       -3 -1    0    0    0  501 -.00000000E+00 -.00000000E+00 -.94618856E+03 0.94618869E+03 0.50000000E+00 0.0000E+00 0.9000E+01
       25  1    1    2    0    0 0.47852172E+02 0.43894958E+02 -.34391714E+03 0.37164579E+03 0.12500000E+03 0.0000E+00 0.9000E+01
       24  1    1    2    0    0 -.51225104E+02 -.54138149E+02 -.14040710E+03 0.17814691E+03 0.80419002E+02 0.0000E+00 0.9000E+01
       21  1    1    2  502  503 0.13543915E+02 0.32272781E+02 -.78733833E+02 0.86165822E+02 0.75000000E+00 0.0000E+00 0.9000E+01
       21  1    1    2  503  501 -.10170983E+02 -.22029590E+02 -.34627166E+03 0.34712156E+03 0.75000000E+00 0.0000E+00 0.9000E+01
#aMCatNLO 2  0  0  5  1 0.61974034D+01 0.00000000D+00  -5  6  0 0.00000000D+00 0.00000000D+00 0.00000000D+00 0.00000000D+00 0.00000000D+00
  <mgrwgt>
 0.8151760333D-03    1    2    0
 0.186792588780812D+03 0.000000000000000D+00 0.000000000000000D+00 0.186792588780812D+03
 0.186792588780812D+03 -.000000000000000D+00 -.000000000000000D+00 -.186792588780812D+03
 0.140667364047122D+03 0.469983557749057D+02 0.413020187805967D+02 0.157354728898801D+02
 0.136580827171117D+03 -.520245791301897D+02 -.565660610730501D+02 0.792516895553820D+02
 0.963369863433853D+02 0.502622335528392D+01 0.152640422924534D+02 -.949871624452621D+02
 0.000000000000000D+00 -.000000000000000D+00 0.000000000000000D+00 0.000000000000000D+00
 0.186792588780812D+03 0.000000000000000D+00 0.000000000000000D+00 0.186792588780812D+03
 0.186792588780812D+03 -.000000000000000D+00 -.000000000000000D+00 -.186792588780812D+03
 0.140838290069581D+03 0.478351074490738D+02 0.438431340554193D+02 -.777255261809664D-01
 0.127202796725974D+03 -.512405046873278D+02 -.541849202819842D+02 0.644340021569503D+02
 0.341663243817594D+02 0.131733440756385D+02 0.313666621520319D+02 0.315170320061026D+01
 0.713777663843105D+02 -.976794683738444D+01 -.210248759254670D+02 -.675079798313796D+02
0.248009864923D-04 0.000000000000D+00 0.000000000000D+00 0.934107749476D-04 0.131629533968D-06  6 4 -3 25 24 21 21 4 0.56731038D-02 0.14556999D+00 0.23672591D+05 0.23672591D+05 0.23672591D+05 0.12258461D+01  1  2  1  3  6  5       21 0.815176033313D-03 0.100000000000D+01
  </mgrwgt>
  </event>
  <event>
  5     66 -.46179844E-03 0.28691658E+02 0.75467711E-02 0.12360425E+00
        2 -1    0    0  502    0 0.00000000E+00 0.00000000E+00 0.18040389E+03 0.18040418E+03 0.32000000E+00 0.0000E+00 0.9000E+01
       -1 -1    0    0    0  501 0.00000000E+00 0.00000000E+00 -.17177338E+03 0.17177368E+03 0.32000000E+00 0.0000E+00 0.9000E+01
       25  1    1    2    0    0 0.34179477E+02 -.27164528E+02 0.52301657E+02 0.14236085E+03 0.12500000E+03 0.0000E+00 0.9000E+01
       24  1    1    2    0    0 -.82667918E+01 0.14847143E+02 0.60310021E+02 0.10194750E+03 0.80419002E+02 0.0000E+00 0.9000E+01
       21  1    1    2  502  501 -.25912685E+02 0.12317386E+02 -.10398117E+03 0.10786951E+03 0.75000000E+00 0.0000E+00 0.9000E+01
#aMCatNLO 1  0  0  1  5 0.46046118D+01 0.00000000D+00  -5  6  0 0.00000000D+00 0.00000000D+00 0.00000000D+00 0.00000000D+00 0.00000000D+00
  <mgrwgt>
 -.1195453082D+00   11    4    0
 0.176036045140375D+03 0.000000000000000D+00 0.000000000000000D+00 0.176036045140375D+03
 0.176036045140375D+03 0.000000000000000D+00 0.000000000000000D+00 -.176036045140375D+03
 0.141121942053524D+03 0.341797160056410D+02 -.271646419814356D+02 0.488285958097550D+02
 0.100500092664032D+03 -.826662128293935D+01 0.148470615620978D+02 0.578297536450243D+02
 0.110450055563193D+03 -.259130947227017D+02 0.123175804193379D+02 -.106658349454779D+03
 0.000000000000000D+00 0.000000000000000D+00 0.000000000000000D+00 0.000000000000000D+00
 0.187875708658628D+03 0.000000000000000D+00 0.000000000000000D+00 0.187875708658628D+03
 0.176499369549660D+03 0.000000000000000D+00 0.000000000000000D+00 -.176499369549660D+03
 0.140781235779586D+03 0.323862852599122D+02 -.275908156084332D+02 0.488285958097550D+02
 0.100568981668469D+03 -.954579614962576D+01 0.145430907543049D+02 0.578297536450243D+02
 0.110751982494050D+03 -.273203528427382D+02 0.119831731395664D+02 -.106658349454779D+03
 0.122728782661830D+02 0.447986373245177D+01 0.106455171456190D+01 0.113763391089680D+02
 0.176036045140375D+03 0.000000000000000D+00 0.000000000000000D+00 0.176036045140375D+03
 0.176036045140375D+03 0.000000000000000D+00 0.000000000000000D+00 -.176036045140375D+03
 0.141121942053524D+03 0.341797160056410D+02 -.271646419814356D+02 0.488285958097550D+02
 0.100500092664032D+03 -.826662128293935D+01 0.148470615620978D+02 0.578297536450243D+02
 0.000000000000000D+00 0.000000000000000D+00 0.000000000000000D+00 0.000000000000000D+00
 0.110450055563193D+03 -.259130947227017D+02 0.123175804193379D+02 -.106658349454779D+03
 0.187875708658628D+03 0.000000000000000D+00 0.000000000000000D+00 0.187875708658628D+03
 0.176499369549660D+03 0.000000000000000D+00 0.000000000000000D+00 -.176499369549660D+03
 0.140781235779586D+03 0.323862852599122D+02 -.275908156084332D+02 0.488285958097550D+02
 0.100568981668469D+03 -.954579614962576D+01 0.145430907543049D+02 0.578297536450243D+02
 0.122728782661830D+02 0.447986373245177D+01 0.106455171456190D+01 0.113763391089680D+02
 0.110751982494050D+03 -.273203528427382D+02 0.119831731395664D+02 -.106658349454779D+03
0.452234910122D-04 0.000000000000D+00 0.000000000000D+00 0.465183543301D-04 0.000000000000D+00  6 2 -1 25 24 21 21 2 0.27754490D-01 0.26426719D-01 0.14797726D+05 0.14797726D+05 0.14797726D+05 0.12484953D+01  1  2  2  1  6  1        2 0.188194148821D-01 0.100000000000D+01
0.484278844155D-05 0.238650918635D-05 -.173670113106D-06 0.465183543301D-04 0.000000000000D+00  6 2 -1 25 24 21 21 4 0.27754490D-01 0.26426719D-01 0.14797726D+05 0.14797726D+05 0.14797726D+05 0.12484953D+01  1  2  3  1  6  1        2 0.314131390577D-02 0.100000000000D+01
0.235296872434D-05 0.000000000000D+00 0.000000000000D+00 0.465183543301D-04 0.000000000000D+00  6 2 -1 25 24 21 21 4 0.27754490D-01 0.26426719D-01 0.14797726D+05 0.14797726D+05 0.14797726D+05 0.12484953D+01  1  2 15  1  6  1        2 0.152627220099D-02 0.100000000000D+01
0.543695495573D-03 0.000000000000D+00 0.000000000000D+00 0.463547027686D-04 0.000000000000D+00  6 2 -1 25 24 21 21 4 0.29679675D-01 0.26426719D-01 0.15470212D+05 0.15470212D+05 0.15470212D+05 0.12462972D+01  1  2 12  1  6  1        2 0.325955459662D+00 0.100000000000D+01
-.252231110509D-02 0.000000000000D+00 0.000000000000D+00 0.465183543301D-04 0.000000000000D+00  6 2 -1 25 24 21 21 4 0.27754490D-01 0.26426719D-01 0.14797726D+05 0.14797726D+05 0.14797726D+05 0.12484953D+01  1  2  4  1  6  1        2 -.163611750642D+01 0.100000000000D+01
-.359305378823D-02 0.000000000000D+00 -.213682806456D-03 0.465183543301D-04 0.000000000000D+00  6 2 -1 25 24 21 21 4 0.29670434D-01 0.26426719D-01 0.14797726D+05 0.14797726D+05 0.14797726D+05 0.12484953D+01  1  2  5  1  6  1        2 -.216803979499D+01 0.100000000000D+01
0.359976975078D-02 0.000000000000D+00 0.213207600836D-03 0.465183543301D-04 0.000000000000D+00  6 2 -1 25 24 21 21 4 0.27754490D-01 0.26426719D-01 0.14797726D+05 0.14797726D+05 0.14797726D+05 0.12484953D+01  1  2  6  1  6  1        2 0.233501977470D+01 0.100000000000D+01
0.173970073525D-02 0.000000000000D+00 0.000000000000D+00 0.465183543301D-04 0.836069637354D-05  6 2 -1 25 24 21 21 4 0.29621174D-01 0.26496274D-01 0.15470212D+05 0.15470212D+05 0.15470212D+05 0.12462972D+01  1  2 11  1  6  1        2 0.104068750218D+01 0.100000000000D+01
0.792268781096D-05 0.000000000000D+00 0.000000000000D+00 0.463547027686D-04 0.000000000000D+00  6 21 -1 25 24 -2 21 4 0.29679675D-01 0.26426719D-01 0.15470212D+05 0.15470212D+05 0.15470212D+05 0.12462972D+01  3  4 12  4  5  1        2 0.241401552129D-01 0.100000000000D+01
-.406009045604D-04 0.000000000000D+00 -.242625853289D-05 0.465183543301D-04 0.000000000000D+00  6 21 -1 25 24 -2 21 4 0.29670434D-01 0.26426719D-01 0.14797726D+05 0.14797726D+05 0.14797726D+05 0.12484953D+01  3  4  5  4  5  1        2 -.124664007104D+00 0.100000000000D+01
0.196977817251D-04 0.000000000000D+00 0.000000000000D+00 0.465183543301D-04 0.187977951150D-06  6 21 -1 25 24 -2 21 4 0.29621174D-01 0.26496274D-01 0.15470212D+05 0.15470212D+05 0.15470212D+05 0.12462972D+01  3  4 11  4  5  1        2 0.599861075760D-01 0.100000000000D+01
  </mgrwgt>
  </event>
  <event>
  5     66 0.46179844E-03 0.27890762E+02 0.75467711E-02 0.11830764E+00
        4 -1    0    0  502    0 0.00000000E+00 0.00000000E+00 0.29963234E+03 0.29963635E+03 0.15500000E+01 0.0000E+00 0.9000E+01
       -3 -1    0    0    0  501 0.00000000E+00 0.00000000E+00 -.97989409E+02 0.97990685E+02 0.50000000E+00 0.0000E+00 0.9000E+01
       25  1    1    2    0    0 -.67824546E+02 -.91400405E+02 0.65583219E+02 0.18132943E+03 0.12500000E+03 0.0000E+00 0.9000E+01
       24  1    1    2    0    0 0.81501692E+02 0.65753488E+02 0.13241467E+03 0.18699441E+03 0.80419002E+02 0.0000E+00 0.9000E+01
       21  1    1    2  502  501 -.13677146E+02 0.25646917E+02 0.36450424E+01 0.29303199E+02 0.75000000E+00 0.0000E+00 0.9000E+01
#aMCatNLO 1  0  0  5  1 0.12412242D+02 0.00000000D+00  -5  6  0 0.00000000D+00 0.00000000D+00 0.00000000D+00 0.00000000D+00 0.00000000D+00
  <mgrwgt>
 0.2288318955D-01   14    2    0
 0.171352988027908D+03 0.000000000000000D+00 0.000000000000000D+00 0.171352988027908D+03
 0.171352988027908D+03 -.000000000000000D+00 -.000000000000000D+00 -.171352988027908D+03
 0.171801417962922D+03 -.678226448288438D+02 -.914039698817078D+02 -.305962473573941D+02
 0.139050821456877D+03 0.815032307859939D+02 0.657506026357225D+02 0.436118862002782D+02
 0.318537366360175D+02 -.136805859571502D+02 0.256533672459853D+02 -.130156388428841D+02
 0.000000000000000D+00 0.000000000000000D+00 0.000000000000000D+00 0.000000000000000D+00
 0.171352988027908D+03 0.000000000000000D+00 0.000000000000000D+00 0.171352988027908D+03
 0.171352988027908D+03 -.000000000000000D+00 -.000000000000000D+00 -.171352988027908D+03
 0.170817475516391D+03 -.703117475312125D+02 -.867364895605550D+02 -.329643668164838D+02
 0.139134749574620D+03 0.794822317407201D+02 0.695403109767676D+02 0.416891181435964D+02
 0.167168547580387D+02 0.618096984936929D+01 0.125744372415114D+02 -.911769558506098D+01
 0.160368962067654D+02 -.153514540588769D+02 0.462174134227606D+01 0.392944257948400D+00
0.496865012911D-03 0.000000000000D+00 0.000000000000D+00 0.213273224510D-04 0.000000000000D+00  6 4 -3 25 24 21 21 2 0.46097690D-01 0.15075700D-01 0.27251877D+05 0.27251877D+05 0.27251877D+05 0.12193021D+01  1  2  2  3  6  5       21 0.252014961409D-01 0.100000000000D+01
0.897338559556D-04 0.262202870930D-04 -.190809247714D-05 0.213273224510D-04 0.000000000000D+00  6 4 -3 25 24 21 21 4 0.46097690D-01 0.15075700D-01 0.27251877D+05 0.27251877D+05 0.27251877D+05 0.12193021D+01  1  2  3  3  6  5       21 0.676654367179D-02 0.100000000000D+01
0.189587245824D-04 0.000000000000D+00 0.000000000000D+00 0.213273224510D-04 0.000000000000D+00  6 4 -3 25 24 21 21 4 0.46097690D-01 0.15075700D-01 0.27251877D+05 0.27251877D+05 0.27251877D+05 0.12193021D+01  1  2 15  3  6  5       21 0.142961690972D-02 0.100000000000D+01
0.125154136718D-03 0.000000000000D+00 0.000000000000D+00 0.213250821305D-04 0.000000000000D+00  6 4 -3 25 24 21 21 4 0.46097690D-01 0.15075700D-01 0.27289771D+05 0.27289771D+05 0.27289771D+05 0.12192381D+01  1  2 12  3  6  5       21 0.943644927437D-02 0.100000000000D+01
0.117346785831D-03 0.000000000000D+00 0.000000000000D+00 0.213250821305D-04 0.000000000000D+00  6 4 -3 25 24 21 21 4 0.46097690D-01 0.15075700D-01 0.27289771D+05 0.27289771D+05 0.27289771D+05 0.12192381D+01  1  2 12  3  6  5       21 0.884778578672D-02 0.100000000000D+01
-.416515289240D-03 0.000000000000D+00 0.000000000000D+00 0.213273224510D-04 0.000000000000D+00  6 4 -3 25 24 21 21 4 0.46097690D-01 0.15075700D-01 0.27251877D+05 0.27251877D+05 0.27251877D+05 0.12193021D+01  1  2  4  3  6  5       21 -.314080885592D-01 0.100000000000D+01
0.446509819829D-05 0.000000000000D+00 0.000000000000D+00 0.213250821305D-04 0.000000000000D+00  6 4 -3 25 24 3 -3 4 0.46097690D-01 0.15075700D-01 0.27289771D+05 0.27289771D+05 0.27289771D+05 0.12192381D+01  1  2 12  6  6  5       21 0.336662245116D-03 0.100000000000D+01
0.418687150372D-05 0.000000000000D+00 0.000000000000D+00 0.213250821305D-04 0.000000000000D+00  6 4 -3 25 24 3 -3 4 0.46097690D-01 0.15075700D-01 0.27289771D+05 0.27289771D+05 0.27289771D+05 0.12192381D+01  1  2 12  6  6  5       21 0.315684336124D-03 0.100000000000D+01
0.446509819829D-05 0.000000000000D+00 0.000000000000D+00 0.213250821305D-04 0.000000000000D+00  6 4 -3 25 24 4 -4 4 0.46097690D-01 0.15075700D-01 0.27289771D+05 0.27289771D+05 0.27289771D+05 0.12192381D+01  1  2 12  7  6  5       21 0.336662245116D-03 0.100000000000D+01
0.418687150372D-05 0.000000000000D+00 0.000000000000D+00 0.213250821305D-04 0.000000000000D+00  6 4 -3 25 24 4 -4 4 0.46097690D-01 0.15075700D-01 0.27289771D+05 0.27289771D+05 0.27289771D+05 0.12192381D+01  1  2 12  7  6  5       21 0.315684336124D-03 0.100000000000D+01
0.446509819829D-05 0.000000000000D+00 0.000000000000D+00 0.213250821305D-04 0.000000000000D+00  6 4 -3 25 24 1 -1 4 0.46097690D-01 0.15075700D-01 0.27289771D+05 0.27289771D+05 0.27289771D+05 0.12192381D+01  1  2 12  8  6  5       21 0.336662245116D-03 0.100000000000D+01
0.446509819829D-05 0.000000000000D+00 0.000000000000D+00 0.213250821305D-04 0.000000000000D+00  6 4 -3 25 24 2 -2 4 0.46097690D-01 0.15075700D-01 0.27289771D+05 0.27289771D+05 0.27289771D+05 0.12192381D+01  1  2 12  8  6  5       21 0.336662245116D-03 0.100000000000D+01
0.418687150372D-05 0.000000000000D+00 0.000000000000D+00 0.213250821305D-04 0.000000000000D+00  6 4 -3 25 24 1 -1 4 0.46097690D-01 0.15075700D-01 0.27289771D+05 0.27289771D+05 0.27289771D+05 0.12192381D+01  1  2 12  8  6  5       21 0.315684336124D-03 0.100000000000D+01
0.418687150372D-05 0.000000000000D+00 0.000000000000D+00 0.213250821305D-04 0.000000000000D+00  6 4 -3 25 24 2 -2 4 0.46097690D-01 0.15075700D-01 0.27289771D+05 0.27289771D+05 0.27289771D+05 0.12192381D+01  1  2 12  8  6  5       21 0.315684336124D-03 0.100000000000D+01
  </mgrwgt>
  </event>
  <event>
  5     66 0.46179844E-03 0.30198522E+02 0.75467711E-02 0.11840977E+00
        2 -1    0    0  502    0 0.00000000E+00 0.00000000E+00 0.60424005E+03 0.60424013E+03 0.32000000E+00 0.0000E+00 0.9000E+01
       -1 -1    0    0    0  501 0.00000000E+00 0.00000000E+00 -.67249317E+02 0.67250078E+02 0.32000000E+00 0.0000E+00 0.9000E+01
       25  1    1    2    0    0 0.42375260E+02 -.52334032E+02 0.22168920E+03 0.26325959E+03 0.12500000E+03 0.0000E+00 0.9000E+01
       24  1    1    2    0    0 -.15528648E+02 0.66160964E+02 0.34808018E+03 0.36365566E+03 0.80419002E+02 0.0000E+00 0.9000E+01
       21  1    1    2  502  501 -.26846612E+02 -.13826932E+02 -.32778646E+02 0.44574957E+02 0.75000000E+00 0.0000E+00 0.9000E+01
#aMCatNLO 1  0  0  5  2 0.12859676D+02 0.00000000D+00  -5  6  0 0.00000000D+00 0.00000000D+00 0.00000000D+00 0.00000000D+00 0.00000000D+00
  <mgrwgt>
 0.1925310573D+00    4    2    0
 0.201581284822350D+03 0.000000000000000D+00 0.000000000000000D+00 0.201581284822350D+03
 0.201581284822350D+03 -.000000000000000D+00 -.000000000000000D+00 -.201581284822350D+03
 0.143195949999281D+03 0.423754529331470D+02 -.523339321677919D+02 0.185892611139941D+02
 0.142065807105835D+03 -.155284562426088D+02 0.661610622281600D+02 0.953785011720397D+02
 0.117900812539583D+03 -.268469966905383D+02 -.138271300603681D+02 -.113967762286034D+03
 0.000000000000000D+00 0.000000000000000D+00 0.000000000000000D+00 0.000000000000000D+00
 0.201581284822350D+03 0.000000000000000D+00 0.000000000000000D+00 0.201581284822350D+03
 0.201581284822350D+03 -.000000000000000D+00 -.000000000000000D+00 -.201581284822350D+03
 0.141623228811786D+03 0.366479729023840D+02 -.552837820976141D+02 -.572437404483377D+01
 0.127135344911908D+03 -.209418705670100D+02 0.633729669787373D+02 0.723981013906145D+02
 0.977263654305528D+02 -.429249727601630D+02 -.255290789376207D+02 -.840009246520652D+02
 0.366776304904532D+02 0.272188704247890D+02 0.174398940564975D+02 0.173271973062845D+02
0.416299647136D-03 0.000000000000D+00 0.000000000000D+00 0.297041049495D-04 0.000000000000D+00  6 2 -1 25 24 21 21 2 0.92960072D-01 0.10346114D-01 0.19247551D+05 0.19247551D+05 0.19247551D+05 0.12356638D+01  1  2  2  3  6  5       21 0.204517365586D+00 0.100000000000D+01
0.477709540789D-04 0.219687359363D-04 -.159870025922D-05 0.297041049495D-04 0.000000000000D+00  6 2 -1 25 24 21 21 4 0.92960072D-01 0.10346114D-01 0.19247551D+05 0.19247551D+05 0.19247551D+05 0.12356638D+01  1  2  3  3  6  5       21 0.358334562711D-01 0.100000000000D+01
0.176292921636D-04 0.000000000000D+00 0.000000000000D+00 0.297041049495D-04 0.000000000000D+00  6 2 -1 25 24 21 21 4 0.92960072D-01 0.10346114D-01 0.19247551D+05 0.19247551D+05 0.19247551D+05 0.12356638D+01  1  2 15  3  6  5       21 0.132239031440D-01 0.100000000000D+01
-.813796532960D-04 0.000000000000D+00 0.000000000000D+00 0.297041049495D-04 0.000000000000D+00  6 2 -1 25 24 21 21 4 0.92960072D-01 0.10346114D-01 0.19247551D+05 0.19247551D+05 0.19247551D+05 0.12356638D+01  1  2  4  3  6  5       21 -.610436677259D-01 0.100000000000D+01
  </mgrwgt>
  </event>
  <event>
  6     66 -.46179844E-03 0.13505542E+02 0.75467711E-02 0.12036793E+00
        2 -1    0    0  502    0 0.00000000E+00 0.00000000E+00 0.72481404E+03 0.72481412E+03 0.32000000E+00 0.0000E+00 0.9000E+01
       -1 -1    0    0    0  501 0.00000000E+00 0.00000000E+00 -.31259685E+02 0.31261323E+02 0.32000000E+00 0.0000E+00 0.9000E+01
       25  1    1    2    0    0 -.18741757E+02 -.45312422E+02 0.35098264E+03 0.37579021E+03 0.12500000E+03 0.0000E+00 0.9000E+01
       24  1    1    2    0    0 0.37754153E+02 0.53754515E+02 0.22172380E+03 0.24483379E+03 0.80419002E+02 0.0000E+00 0.9000E+01
        4  1    1    2  502    0 -.11111206E+02 0.37361113E+01 0.12026039E+03 0.12084031E+03 0.15500000E+01 0.0000E+00 0.9000E+01
       -4  1    1    2    0  501 -.79011903E+01 -.12178204E+02 0.58753556E+00 0.14611132E+02 0.15500000E+01 0.0000E+00 0.9000E+01
#aMCatNLO 2  0  0  5  1 0.24535869D+02 0.00000000D+00  -5  6  0 0.00000000D+00 0.00000000D+00 0.00000000D+00 0.00000000D+00 0.00000000D+00
  <mgrwgt>
 -.3052894857D-02    1    2    0
 0.150526091883287D+03 0.000000000000000D+00 0.000000000000000D+00 0.150526091883287D+03
 0.150526091883287D+03 -.000000000000000D+00 -.000000000000000D+00 -.150526091883287D+03
 0.132747249621745D+03 -.293153512704942D+01 -.382921936906434D+02 0.228461437948530D+02
 0.112029512898221D+03 0.505063649754997D+02 0.594168924301368D+02 -.146143653616510D+01
 0.562754212466075D+02 -.475748298484502D+02 -.211246987394934D+02 -.213847072586879D+02
 0.000000000000000D+00 0.000000000000000D+00 0.000000000000000D+00 0.000000000000000D+00
 0.150526091883287D+03 0.000000000000000D+00 0.000000000000000D+00 0.150526091883287D+03
 0.150526091883287D+03 -.000000000000000D+00 -.000000000000000D+00 -.150526091883287D+03
 0.135053147093378D+03 -.181383974018817D+02 -.450445117830488D+02 0.160107163407480D+02
 0.104348134119983D+03 0.382195083542291D+02 0.539611473353775D+02 -.698433242065563D+01
 0.248162321316467D+02 -.797513487366235D+01 0.452639895541571D+01 0.230597986429864D+02
 0.368346704215650D+02 -.121059760786849D+02 -.134430345077443D+02 -.320861825630787D+02
-.157556976789D-05 0.000000000000D+00 0.000000000000D+00 0.891424975144D-05 0.000000000000D+00  6 2 -1 25 24 4 -4 4 0.11150998D+00 0.48093137D-02 0.17619323D+05 0.17619323D+05 0.17619323D+05 0.12399320D+01  1  2 13  8  6  5       21 -.305289485679D-02 0.100000000000D+01
  </mgrwgt>
  </event>
  <event>
  5     66 0.46179844E-03 0.25655464E+02 0.75467711E-02 0.11790612E+00
        4 -1    0    0  502    0 0.00000000E+00 0.00000000E+00 0.86952050E+03 0.86952188E+03 0.15500000E+01 0.0000E+00 0.9000E+01
       -3 -1    0    0    0  501 0.00000000E+00 0.00000000E+00 -.42625918E+02 0.42628850E+02 0.50000000E+00 0.0000E+00 0.9000E+01
       25  1    1    2    0    0 0.11152276E+03 -.22579116E+02 0.35390575E+03 0.39220075E+03 0.12500000E+03 0.0000E+00 0.9000E+01
       24  1    1    2    0    0 -.10644397E+03 0.47725357E+02 0.19640511E+03 0.24217805E+03 0.80419002E+02 0.0000E+00 0.9000E+01
       21  1    1    2  502  501 -.50787956E+01 -.25146241E+02 0.27658372E+03 0.27777193E+03 0.75000000E+00 0.0000E+00 0.9000E+01
#aMCatNLO 1  0  0  5  1 0.62336458D+01 0.00000000D+00  -5  6  0 0.00000000D+00 0.00000000D+00 0.00000000D+00 0.00000000D+00 0.00000000D+00
  <mgrwgt>
 0.7623060716D-02   25    2    0
 0.192525522812161D+03 0.000000000000000D+00 0.000000000000000D+00 0.192525522812161D+03
 0.192525522812161D+03 -.000000000000000D+00 -.000000000000000D+00 -.192525522812161D+03
 0.169077488364249D+03 0.111522917393416D+03 -.225783594778554D+02 -.387990346694811D+01
 0.151919693537439D+03 -.106443831510796D+03 0.477260373766117D+02 -.548116175620307D+02
 0.640538637226333D+02 -.507908588261992D+01 -.251476778987562D+02 0.586915210289788D+02
 0.000000000000000D+00 0.000000000000000D+00 0.000000000000000D+00 0.000000000000000D+00
 0.192525522812161D+03 0.000000000000000D+00 0.000000000000000D+00 0.192525522812161D+03
 0.192525522812161D+03 -.000000000000000D+00 -.000000000000000D+00 -.192525522812161D+03
 0.169064256127258D+03 0.111467174467852D+03 -.228543550348567D+02 -.323576450895514D+01
 0.151669365773094D+03 -.106493878399745D+03 0.474782441570850D+02 -.542332993167740D+02
 0.473350075798223D+02 -.734963560493047D+01 -.229595200563804D+02 0.407363012292137D+02
 0.169824161441465D+02 0.237633953682339D+01 -.166436906584782D+01 0.167327625965155D+02
0.541008006167D-04 0.000000000000D+00 0.000000000000D+00 0.295774103913D-04 0.000000000000D+00  6 4 -3 25 24 21 21 2 0.13377272D+00 0.65581654D-02 0.28287151D+05 0.28287151D+05 0.28287151D+05 0.12175872D+01  1  2  2  3  6  5       21 0.102197658427D-02 0.100000000000D+01
0.862197277264D-05 0.285497768463D-05 -.207761319436D-06 0.295774103913D-04 0.000000000000D+00  6 4 -3 25 24 21 21 4 0.13377272D+00 0.65581654D-02 0.28287151D+05 0.28287151D+05 0.28287151D+05 0.12175872D+01  1  2  3  3  6  5       21 0.241459379352D-03 0.100000000000D+01
-.441851291828D-07 0.000000000000D+00 0.000000000000D+00 0.295774103913D-04 0.000000000000D+00  6 4 -3 25 24 21 21 4 0.13377272D+00 0.65581654D-02 0.28287151D+05 0.28287151D+05 0.28287151D+05 0.12175872D+01  1  2 15  3  6  5       21 -.123740983072D-05 0.100000000000D+01
0.149368106455D-03 0.000000000000D+00 0.000000000000D+00 0.295601191837D-04 0.000000000000D+00  6 4 -3 25 24 21 21 4 0.13377272D+00 0.65581654D-02 0.28507506D+05 0.28507506D+05 0.28507506D+05 0.12172313D+01  1  2 12  3  6  5       21 0.418016445570D-02 0.100000000000D+01
0.180322863699D-03 0.000000000000D+00 0.000000000000D+00 0.295601191837D-04 0.000000000000D+00  6 4 -3 25 24 21 21 4 0.13377272D+00 0.65581654D-02 0.28507506D+05 0.28507506D+05 0.28507506D+05 0.12172313D+01  1  2 12  3  6  5       21 0.504645364579D-02 0.100000000000D+01
-.334077484626D-03 0.000000000000D+00 0.000000000000D+00 0.295774103913D-04 0.000000000000D+00  6 4 -3 25 24 21 21 4 0.13377272D+00 0.65581654D-02 0.28287151D+05 0.28287151D+05 0.28287151D+05 0.12175872D+01  1  2  4  3  6  5       21 -.935587993846D-02 0.100000000000D+01
-.430814344695D-03 0.000000000000D+00 0.000000000000D+00 0.295774103913D-04 0.000000000000D+00  6 4 -3 25 24 21 21 4 0.13377272D+00 0.65581654D-02 0.28287151D+05 0.28287151D+05 0.28287151D+05 0.12175872D+01  1  2  5  3  6  5       21 -.120650072819D-01 0.100000000000D+01
0.587236790339D-03 0.000000000000D+00 -.000000000000D+00 0.295774103913D-04 0.000000000000D+00  6 4 -3 25 24 21 21 4 0.13377272D+00 0.65581654D-02 0.28287151D+05 0.28287151D+05 0.28287151D+05 0.12175872D+01  1  2  6  3  6  5       21 0.164456365924D-01 0.100000000000D+01
0.652712230513D-04 0.000000000000D+00 0.000000000000D+00 0.295774103913D-04 0.175045909869D-04  6 4 -3 25 24 21 21 4 0.13377272D+00 0.65581654D-02 0.28507506D+05 0.28507506D+05 0.28507506D+05 0.12172313D+01  1  2 11  3  6  5       21 0.182665799985D-02 0.100000000000D+01
0.269920372057D-05 0.000000000000D+00 0.000000000000D+00 0.295601191837D-04 0.000000000000D+00  6 4 -3 25 24 3 -3 4 0.13377272D+00 0.65581654D-02 0.28507506D+05 0.28507506D+05 0.28507506D+05 0.12172313D+01  1  2 12  6  6  5       21 0.755389869979D-04 0.100000000000D+01
0.310957013168D-05 0.000000000000D+00 0.000000000000D+00 0.295601191837D-04 0.000000000000D+00  6 4 -3 25 24 3 -3 4 0.13377272D+00 0.65581654D-02 0.28507506D+05 0.28507506D+05 0.28507506D+05 0.12172313D+01  1  2 12  6  6  5       21 0.870233602437D-04 0.100000000000D+01
-.437524408725D-05 0.000000000000D+00 0.000000000000D+00 0.295774103913D-04 0.000000000000D+00  6 4 -3 25 24 3 -3 4 0.13377272D+00 0.65581654D-02 0.28287151D+05 0.28287151D+05 0.28287151D+05 0.12175872D+01  1  2  5  6  6  5       21 -.122529234281D-03 0.100000000000D+01
0.110106245913D-05 0.000000000000D+00 0.000000000000D+00 0.295774103913D-04 0.128797621996D-06  6 4 -3 25 24 3 -3 4 0.13377272D+00 0.65581654D-02 0.28507506D+05 0.28507506D+05 0.28507506D+05 0.12172313D+01  1  2 11  6  6  5       21 0.308139552973D-04 0.100000000000D+01
0.269920372057D-05 0.000000000000D+00 0.000000000000D+00 0.295601191837D-04 0.000000000000D+00  6 4 -3 25 24 4 -4 4 0.13377272D+00 0.65581654D-02 0.28507506D+05 0.28507506D+05 0.28507506D+05 0.12172313D+01  1  2 12  7  6  5       21 0.755389869979D-04 0.100000000000D+01
0.310957013168D-05 0.000000000000D+00 0.000000000000D+00 0.295601191837D-04 0.000000000000D+00  6 4 -3 25 24 4 -4 4 0.13377272D+00 0.65581654D-02 0.28507506D+05 0.28507506D+05 0.28507506D+05 0.12172313D+01  1  2 12  7  6  5       21 0.870233602437D-04 0.100000000000D+01
-.437524408725D-05 0.000000000000D+00 0.000000000000D+00 0.295774103913D-04 0.000000000000D+00  6 4 -3 25 24 4 -4 4 0.13377272D+00 0.65581654D-02 0.28287151D+05 0.28287151D+05 0.28287151D+05 0.12175872D+01  1  2  5  7  6  5       21 -.122529234281D-03 0.100000000000D+01
0.109215033546D-05 0.000000000000D+00 0.000000000000D+00 0.295774103913D-04 0.130384622225D-06  6 4 -3 25 24 4 -4 4 0.13377272D+00 0.65581654D-02 0.28507506D+05 0.28507506D+05 0.28507506D+05 0.12172313D+01  1  2 11  7  6  5       21 0.305645436695D-04 0.100000000000D+01
0.269920372057D-05 0.000000000000D+00 0.000000000000D+00 0.295601191837D-04 0.000000000000D+00  6 4 -3 25 24 1 -1 4 0.13377272D+00 0.65581654D-02 0.28507506D+05 0.28507506D+05 0.28507506D+05 0.12172313D+01  1  2 12  8  6  5       21 0.755389869979D-04 0.100000000000D+01
0.269920372057D-05 0.000000000000D+00 0.000000000000D+00 0.295601191837D-04 0.000000000000D+00  6 4 -3 25 24 2 -2 4 0.13377272D+00 0.65581654D-02 0.28507506D+05 0.28507506D+05 0.28507506D+05 0.12172313D+01  1  2 12  8  6  5       21 0.755389869979D-04 0.100000000000D+01
0.310957013168D-05 0.000000000000D+00 0.000000000000D+00 0.295601191837D-04 0.000000000000D+00  6 4 -3 25 24 1 -1 4 0.13377272D+00 0.65581654D-02 0.28507506D+05 0.28507506D+05 0.28507506D+05 0.12172313D+01  1  2 12  8  6  5       21 0.870233602437D-04 0.100000000000D+01
0.310957013168D-05 0.000000000000D+00 0.000000000000D+00 0.295601191837D-04 0.000000000000D+00  6 4 -3 25 24 2 -2 4 0.13377272D+00 0.65581654D-02 0.28507506D+05 0.28507506D+05 0.28507506D+05 0.12172313D+01  1  2 12  8  6  5       21 0.870233602437D-04 0.100000000000D+01
-.437524408725D-05 0.000000000000D+00 0.000000000000D+00 0.295774103913D-04 0.000000000000D+00  6 4 -3 25 24 1 -1 4 0.13377272D+00 0.65581654D-02 0.28287151D+05 0.28287151D+05 0.28287151D+05 0.12175872D+01  1  2  5  8  6  5       21 -.122529234281D-03 0.100000000000D+01
-.437524408725D-05 0.000000000000D+00 0.000000000000D+00 0.295774103913D-04 0.000000000000D+00  6 4 -3 25 24 2 -2 4 0.13377272D+00 0.65581654D-02 0.28287151D+05 0.28287151D+05 0.28287151D+05 0.12175872D+01  1  2  5  8  6  5       21 -.122529234281D-03 0.100000000000D+01
0.109566376143D-05 0.000000000000D+00 0.000000000000D+00 0.295774103913D-04 0.127916041278D-06  6 4 -3 25 24 1 -1 4 0.13377272D+00 0.65581654D-02 0.28507506D+05 0.28507506D+05 0.28507506D+05 0.12172313D+01  1  2 11  8  6  5       21 0.306628692003D-04 0.100000000000D+01
0.109566376143D-05 0.000000000000D+00 0.000000000000D+00 0.295774103913D-04 0.127916041278D-06  6 4 -3 25 24 2 -2 4 0.13377272D+00 0.65581654D-02 0.28507506D+05 0.28507506D+05 0.28507506D+05 0.12172313D+01  1  2 11  8  6  5       21 0.306628692003D-04 0.100000000000D+01
  </mgrwgt>
  </event>
  <event>
  6     66 0.46179844E-03 0.19075622E+02 0.75467711E-02 0.12379118E+00
        2 -1    0    0  502    0 0.00000000E+00 0.00000000E+00 0.10661751E+04 0.10661751E+04 0.32000000E+00 0.0000E+00 0.9000E+01
       -1 -1    0    0    0  501 0.00000000E+00 0.00000000E+00 -.15144181E+02 0.15147561E+02 0.32000000E+00 0.0000E+00 0.9000E+01
       25  1    1    2    0    0 -.90079230E+01 -.50100899E+02 0.58272190E+03 0.59814802E+03 0.12500000E+03 0.0000E+00 0.9000E+01
       24  1    1    2    0    0 0.15659841E+02 0.26218074E+02 0.40978651E+03 0.41871807E+03 0.80419002E+02 0.0000E+00 0.9000E+01
       21  1    1    2  503  501 -.76204403E+01 0.20004712E+02 0.55182229E+02 0.59193754E+02 0.75000000E+00 0.0000E+00 0.9000E+01
       21  1    1    2  502  503 0.96852202E+00 0.38781122E+01 0.33402722E+01 0.52628611E+01 0.75000000E+00 0.0000E+00 0.9000E+01
#aMCatNLO 2  0  0  5  2 0.47288622D+01 0.00000000D+00  -5  6  0 0.00000000D+00 0.00000000D+00 0.00000000D+00 0.00000000D+00 0.00000000D+00
  <mgrwgt>
 0.4134955275D+00    4    2    0
 0.127075575996952D+03 0.000000000000000D+00 0.000000000000000D+00 0.127075575996952D+03
 0.127075575996952D+03 -.000000000000000D+00 -.000000000000000D+00 -.127075575996952D+03
 0.135385166763920D+03 -.879290883691160D+01 -.508728782762070D+02 0.622722970304986D+01
 0.867697657835818D+02 0.157978561099327D+02 0.257225508108146D+02 0.122700620162263D+02
 0.319962194464015D+02 -.700494727302110D+01 0.251503274653924D+02 -.184972917192762D+02
 0.000000000000000D+00 0.000000000000000D+00 0.000000000000000D+00 -.000000000000000D+00
 0.127075575996952D+03 0.000000000000000D+00 0.000000000000000D+00 0.127075575996952D+03
 0.127075575996952D+03 -.000000000000000D+00 -.000000000000000D+00 -.127075575996952D+03
 0.135085739874262D+03 -.900823277142150D+01 -.500997864522446D+02 0.565864446242834D+01
 0.868423659633025D+02 0.156596421787153D+02 0.262187894682823D+02 0.119050937579723D+02
 0.233040704895232D+02 -.761354215558124D+01 0.197709278236444D+02 -.970690940609305D+01
 0.891897566681607D+01 0.962132748287406D+00 0.411006916031788D+01 -.785682881430758D+01
-.617943989021D-04 0.000000000000D+00 0.000000000000D+00 0.376364016503D-04 0.000000000000D+00  6 2 -1 25 24 21 21 4 0.16402720D+00 0.23301377D-02 0.15177874D+05 0.15177874D+05 0.15177874D+05 0.12472393D+01  1  2 13  3  6  5       21 -.212978768517D+00 0.100000000000D+01
-.589779410230D-04 0.000000000000D+00 0.000000000000D+00 0.376364016503D-04 0.000000000000D+00  6 2 -1 25 24 21 21 4 0.16402720D+00 0.23301377D-02 0.15177874D+05 0.15177874D+05 0.15177874D+05 0.12472393D+01  1  2 13  3  6  5       21 -.203271647139D+00 0.100000000000D+01
-.412865553868D-04 0.000000000000D+00 0.000000000000D+00 0.376158554710D-04 0.000000000000D+00  6 2 -1 25 24 21 21 4 0.16402720D+00 0.23301377D-02 0.15282812D+05 0.15282812D+05 0.15282812D+05 0.12468988D+01  1  2  8  3  6  5       21 -.142173187153D+00 0.100000000000D+01
0.281995988894D-03 0.000000000000D+00 0.000000000000D+00 0.376158554710D-04 0.263832264072D-04  6 2 -1 25 24 21 21 4 0.16402720D+00 0.23301377D-02 0.15177874D+05 0.15177874D+05 0.15177874D+05 0.12472393D+01  1  2  1  3  6  5       21 0.971919130351D+00 0.100000000000D+01
  </mgrwgt>
  </event>
  <event>
  6     66 -.46179844E-03 0.16751583E+02 0.75467711E-02 0.12352060E+00
        2 -1    0    0  503    0 0.00000000E+00 0.00000000E+00 0.51126465E+02 0.51127466E+02 0.32000000E+00 0.0000E+00 0.9000E+01
       -1 -1    0    0    0  501 0.00000000E+00 0.00000000E+00 -.32222841E+03 0.32222857E+03 0.32000000E+00 0.0000E+00 0.9000E+01
       25  1    1    2    0    0 0.51640338E+01 0.35448605E+02 -.12925256E+03 0.18334257E+03 0.12500000E+03 0.0000E+00 0.9000E+01
       24  1    1    2    0    0 -.32216060E+02 -.21158999E+02 -.10451787E+03 0.13739279E+03 0.80419002E+02 0.0000E+00 0.9000E+01
       21  1    1    2  502  501 0.19046166E+02 -.96737420E+01 -.37704031E+02 0.43341599E+02 0.75000000E+00 0.0000E+00 0.9000E+01
       21  1    1    2  503  502 0.80058595E+01 -.46158642E+01 0.37252469E+00 0.92790766E+01 0.75000000E+00 0.0000E+00 0.9000E+01
#aMCatNLO 2  0  0  1  5 0.92412114D+01 0.00000000D+00  -5  6  0 0.00000000D+00 0.00000000D+00 0.00000000D+00 0.00000000D+00 0.00000000D+00
  <mgrwgt>
 -.1985537952D+00    2    2    0
 0.121210811659561D+03 0.000000000000000D+00 0.000000000000000D+00 0.121210811659561D+03
 0.121210811659561D+03 0.000000000000000D+00 0.000000000000000D+00 -.121210811659561D+03
 0.130103358177908D+03 0.946048454035730D+01 0.329710885160735D+02 0.111933178055433D+02
 0.886370113915901D+02 -.292837432291682D+02 -.228498976008760D+02 -.310618675870764D+01
 0.236812537496241D+02 0.198232586888109D+02 -.101211909151976D+02 -.808713104683569D+01
 0.000000000000000D+00 0.000000000000000D+00 -.000000000000000D+00 0.000000000000000D+00
 0.133930788556487D+03 0.000000000000000D+00 0.000000000000000D+00 0.133930788556487D+03
 0.122989009284439D+03 0.000000000000000D+00 0.000000000000000D+00 -.122989009284439D+03
 0.130513217497739D+03 0.515867717692618D+01 0.354513416939402D+02 0.111933178055433D+02
 0.892333951174748D+02 -.322197200467343D+02 -.211571286745372D+02 -.310618675870764D+01
 0.228510861398747D+02 0.190551833587772D+02 -.967834884505950D+01 -.808713104683569D+01
 0.143220990858383D+02 0.800585951103101D+01 -.461586417434355D+01 0.109417792720479D+02
-.682487104610D-03 0.000000000000D+00 0.000000000000D+00 0.514504324364D-04 0.000000000000D+00  6 2 -1 25 24 21 21 4 0.82576311D-02 0.48853088D-01 0.15603140D+05 0.15603140D+05 0.15603140D+05 0.12458755D+01  1  2 13  1  6  1        2 -.627318741667D+00 0.100000000000D+01
0.450653447770D-03 0.000000000000D+00 0.000000000000D+00 0.517632963879D-04 0.433714282852D-05  6 2 -1 25 24 21 21 4 0.78650783D-02 0.49569777D-01 0.15603140D+05 0.15603140D+05 0.15603140D+05 0.12458755D+01  1  2  1  1  6  1        2 0.428764946507D+00 0.100000000000D+01
  </mgrwgt>
  </event>
  <event>
  5     66 0.46179844E-03 0.20070109E+02 0.75467711E-02 0.12530687E+00
        2 -1    0    0  502    0 0.00000000E+00 0.00000000E+00 0.11985150E+04 0.11985150E+04 0.32000000E+00 0.0000E+00 0.9000E+01
       -1 -1    0    0    0  501 0.00000000E+00 0.00000000E+00 -.13520048E+02 0.13523834E+02 0.32000000E+00 0.0000E+00 0.9000E+01
       25  1    1    2    0    0 -.60125927E+01 0.47761781E+01 0.90207780E+03 0.91072956E+03 0.12500000E+03 0.0000E+00 0.9000E+01
       24  1    1    2    0    0 0.16340293E+02 0.12423771E+02 0.23954306E+03 0.25351420E+03 0.80419002E+02 0.0000E+00 0.9000E+01
       21  1    1    2  502  501 -.10327700E+02 -.17199949E+02 0.43374095E+02 0.47795128E+02 0.75000000E+00 0.0000E+00 0.9000E+01
#aMCatNLO 1  0  0  5  2 0.68243789D+01 0.00000000D+00  -5  6  0 0.00000000D+00 0.00000000D+00 0.00000000D+00 0.00000000D+00 0.00000000D+00
  <mgrwgt>
 0.2389014537D+01   20    2    0
 0.127303970777015D+03 0.000000000000000D+00 0.000000000000000D+00 0.127303970777015D+03
 0.127303970777015D+03 -.000000000000000D+00 -.000000000000000D+00 -.127303970777015D+03
 0.137004268493754D+03 -.601021606542713D+01 0.478013619137446D+01 0.555535524187910D+02
 0.919517309326295D+02 0.163418879308476D+02 0.124264271317357D+02 -.395781691685130D+02
 0.256519421276476D+02 -.103316718654205D+02 -.172065633231101D+02 -.159753832502779D+02
 0.000000000000000D+00 0.000000000000000D+00 0.000000000000000D+00 -.000000000000000D+00
 0.127303970777015D+03 0.000000000000000D+00 0.000000000000000D+00 0.127303970777015D+03
 0.127303970777015D+03 -.000000000000000D+00 -.000000000000000D+00 -.127303970777015D+03
 0.136478324176616D+03 -.685382910492818D+01 0.337516694985613D+01 0.542491128472955D+02
 0.921115854672603D+02 0.157741069532996D+02 0.114808338656026D+02 -.404561024630175D+02
 0.127164253481577D+02 0.642358083065782D+00 -.116166675984408D+02 -.513301895922109D+01
 0.133016065619966D+02 -.956263593143722D+01 -.323933321701800D+01 -.865999142505694D+01
0.530673452572D-03 0.000000000000D+00 0.000000000000D+00 0.533456162166D-04 0.000000000000D+00  6 2 -1 25 24 21 21 2 0.18438722D+00 0.20803019D-02 0.13030668D+05 0.13030668D+05 0.13030668D+05 0.12548516D+01  1  2  2  3  6  5       21 0.117491434100D+01 0.100000000000D+01
0.826370023495D-04 0.280044074699D-04 -.203792578741D-05 0.533456162166D-04 0.000000000000D+00  6 2 -1 25 24 21 21 4 0.18438722D+00 0.20803019D-02 0.13030668D+05 0.13030668D+05 0.13030668D+05 0.12548516D+01  1  2  3  3  6  5       21 0.288096601713D+00 0.100000000000D+01
0.126642817492D-04 0.000000000000D+00 0.000000000000D+00 0.533456162166D-04 0.000000000000D+00  6 2 -1 25 24 21 21 4 0.18438722D+00 0.20803019D-02 0.13030668D+05 0.13030668D+05 0.13030668D+05 0.12548516D+01  1  2 15  3  6  5       21 0.441513659905D-01 0.100000000000D+01
0.186864805941D-03 0.000000000000D+00 0.000000000000D+00 0.532928548445D-04 0.000000000000D+00  6 2 -1 25 24 21 21 4 0.18438722D+00 0.20803019D-02 0.13192336D+05 0.13192336D+05 0.13192336D+05 0.12542309D+01  1  2 12  3  6  5       21 0.650425793316D+00 0.100000000000D+01
0.175232415615D-03 0.000000000000D+00 0.000000000000D+00 0.532928548445D-04 0.000000000000D+00  6 2 -1 25 24 21 21 4 0.18438722D+00 0.20803019D-02 0.13192336D+05 0.13192336D+05 0.13192336D+05 0.12542309D+01  1  2 12  3  6  5       21 0.609936592220D+00 0.100000000000D+01
-.665602097728D-03 0.000000000000D+00 0.000000000000D+00 0.533456162166D-04 0.000000000000D+00  6 2 -1 25 24 21 21 4 0.18438722D+00 0.20803019D-02 0.13030668D+05 0.13030668D+05 0.13030668D+05 0.12548516D+01  1  2  4  3  6  5       21 -.232048231417D+01 0.100000000000D+01
-.299380989718D-03 0.000000000000D+00 0.000000000000D+00 0.533456162166D-04 0.000000000000D+00  6 2 -1 25 24 21 21 4 0.18438722D+00 0.20803019D-02 0.13030668D+05 0.13030668D+05 0.13030668D+05 0.12548516D+01  1  2  5  3  6  5       21 -.104372912016D+01 0.100000000000D+01
0.895943912536D-03 0.000000000000D+00 -.000000000000D+00 0.533456162166D-04 0.000000000000D+00  6 2 -1 25 24 21 21 4 0.18438722D+00 0.20803019D-02 0.13030668D+05 0.13030668D+05 0.13030668D+05 0.12548516D+01  1  2  6  3  6  5       21 0.312352081014D+01 0.100000000000D+01
0.725043412681D-05 0.000000000000D+00 0.000000000000D+00 0.532928548445D-04 0.000000000000D+00  6 2 -1 25 24 1 -1 4 0.18438722D+00 0.20803019D-02 0.13192336D+05 0.13192336D+05 0.13192336D+05 0.12542309D+01  1  2 12  6  6  5       21 0.252367980427D-01 0.100000000000D+01
0.679946060176D-05 0.000000000000D+00 0.000000000000D+00 0.532928548445D-04 0.000000000000D+00  6 2 -1 25 24 1 -1 4 0.18438722D+00 0.20803019D-02 0.13192336D+05 0.13192336D+05 0.13192336D+05 0.12542309D+01  1  2 12  6  6  5       21 0.236670813092D-01 0.100000000000D+01
-.239104461143D-04 0.000000000000D+00 0.000000000000D+00 0.533456162166D-04 0.000000000000D+00  6 2 -1 25 24 1 -1 4 0.18438722D+00 0.20803019D-02 0.13030668D+05 0.13030668D+05 0.13030668D+05 0.12548516D+01  1  2  5  6  6  5       21 -.833587627225D-01 0.100000000000D+01
0.725043412681D-05 0.000000000000D+00 0.000000000000D+00 0.532928548445D-04 0.000000000000D+00  6 2 -1 25 24 2 -2 4 0.18438722D+00 0.20803019D-02 0.13192336D+05 0.13192336D+05 0.13192336D+05 0.12542309D+01  1  2 12  7  6  5       21 0.252367980427D-01 0.100000000000D+01
0.679946060176D-05 0.000000000000D+00 0.000000000000D+00 0.532928548445D-04 0.000000000000D+00  6 2 -1 25 24 2 -2 4 0.18438722D+00 0.20803019D-02 0.13192336D+05 0.13192336D+05 0.13192336D+05 0.12542309D+01  1  2 12  7  6  5       21 0.236670813092D-01 0.100000000000D+01
-.239104461143D-04 0.000000000000D+00 0.000000000000D+00 0.533456162166D-04 0.000000000000D+00  6 2 -1 25 24 2 -2 4 0.18438722D+00 0.20803019D-02 0.13030668D+05 0.13030668D+05 0.13030668D+05 0.12548516D+01  1  2  5  7  6  5       21 -.833587627225D-01 0.100000000000D+01
0.725043412681D-05 0.000000000000D+00 0.000000000000D+00 0.532928548445D-04 0.000000000000D+00  6 2 -1 25 24 3 -3 4 0.18438722D+00 0.20803019D-02 0.13192336D+05 0.13192336D+05 0.13192336D+05 0.12542309D+01  1  2 12  8  6  5       21 0.252367980427D-01 0.100000000000D+01
0.725043412681D-05 0.000000000000D+00 0.000000000000D+00 0.532928548445D-04 0.000000000000D+00  6 2 -1 25 24 4 -4 4 0.18438722D+00 0.20803019D-02 0.13192336D+05 0.13192336D+05 0.13192336D+05 0.12542309D+01  1  2 12  8  6  5       21 0.252367980427D-01 0.100000000000D+01
0.679946060176D-05 0.000000000000D+00 0.000000000000D+00 0.532928548445D-04 0.000000000000D+00  6 2 -1 25 24 3 -3 4 0.18438722D+00 0.20803019D-02 0.13192336D+05 0.13192336D+05 0.13192336D+05 0.12542309D+01  1  2 12  8  6  5       21 0.236670813092D-01 0.100000000000D+01
0.679946060176D-05 0.000000000000D+00 0.000000000000D+00 0.532928548445D-04 0.000000000000D+00  6 2 -1 25 24 4 -4 4 0.18438722D+00 0.20803019D-02 0.13192336D+05 0.13192336D+05 0.13192336D+05 0.12542309D+01  1  2 12  8  6  5       21 0.236670813092D-01 0.100000000000D+01
-.239104461143D-04 0.000000000000D+00 0.000000000000D+00 0.533456162166D-04 0.000000000000D+00  6 2 -1 25 24 3 -3 4 0.18438722D+00 0.20803019D-02 0.13030668D+05 0.13030668D+05 0.13030668D+05 0.12548516D+01  1  2  5  8  6  5       21 -.833587627225D-01 0.100000000000D+01
-.239104461143D-04 0.000000000000D+00 0.000000000000D+00 0.533456162166D-04 0.000000000000D+00  6 2 -1 25 24 4 -4 4 0.18438722D+00 0.20803019D-02 0.13030668D+05 0.13030668D+05 0.13030668D+05 0.12548516D+01  1  2  5  8  6  5       21 -.833587627225D-01 0.100000000000D+01
  </mgrwgt>
  </event>
  <event>
  5     66 -.46179844E-03 0.38383868E+02 0.75467711E-02 0.12082527E+00
        2 -1    0    0  502    0 0.00000000E+00 0.00000000E+00 0.63020914E+03 0.63020922E+03 0.32000000E+00 0.0000E+00 0.9000E+01
       -1 -1    0    0    0  501 0.00000000E+00 0.00000000E+00 -.11376112E+03 0.11376157E+03 0.32000000E+00 0.0000E+00 0.9000E+01
       25  1    1    2    0    0 -.38741956E+02 -.21254783E+02 -.10314469E+02 0.13298155E+03 0.12500000E+03 0.0000E+00 0.9000E+01
       24  1    1    2    0    0 0.77872923E+02 0.95645537E+01 0.35205892E+02 0.11773845E+03 0.80419002E+02 0.0000E+00 0.9000E+01
       21  1    1    2  502  501 -.39130966E+02 0.11690229E+02 0.49155660E+03 0.49325079E+03 0.75000000E+00 0.0000E+00 0.9000E+01
#aMCatNLO 1  0  0  5  2 0.62122130D+01 0.00000000D+00  -5  6  0 0.00000000D+00 0.00000000D+00 0.00000000D+00 0.00000000D+00 0.00000000D+00
  <mgrwgt>
 -.3777144663D-01   23    2    0
 0.267756415305533D+03 0.000000000000000D+00 0.000000000000000D+00 0.267756415305533D+03
 0.267756415305533D+03 -.000000000000000D+00 -.000000000000000D+00 -.267756415305533D+03
 0.194694600719795D+03 -.387418667957191D+02 -.212548096652012D+02 -.142577306654036D+03
 0.129617924149411D+03 0.778729824629232D+02 0.956453583326288D+01 -.646367431346548D+02
 0.211200305741862D+03 -.391311156672041D+02 0.116902738319383D+02 0.207214049788691D+03
 0.000000000000000D+00 -.000000000000000D+00 0.000000000000000D+00 0.000000000000000D+00
 0.267756415305533D+03 0.000000000000000D+00 0.000000000000000D+00 0.267756415305533D+03
 0.267756415305533D+03 -.000000000000000D+00 -.000000000000000D+00 -.267756415305533D+03
 0.194595015713768D+03 -.387687059373232D+02 -.212467915724529D+02 -.142435183253519D+03
 0.129560420621212D+03 0.778551136988916D+02 0.956987405940355D+01 -.645421212743633D+02
 0.753828791619157D+02 -.106778749497754D+02 0.944851820208786D+01 0.740222058647387D+02
 0.135974515114172D+03 -.284085328117930D+02 0.222839931096145D+01 0.132955098663144D+03
0.119408582551D-03 0.000000000000D+00 0.000000000000D+00 0.319559603586D-04 0.000000000000D+00  6 2 -1 25 24 21 21 2 0.96955293D-01 0.17501752D-01 0.20416495D+05 0.20416495D+05 0.20416495D+05 0.12328418D+01  1  2  2  3  6  5       21 0.245574025511D-01 0.100000000000D+01
0.137410088107D-04 0.630136402144D-05 -.458560397999D-06 0.319559603586D-04 0.000000000000D+00  6 2 -1 25 24 21 21 4 0.96955293D-01 0.17501752D-01 0.20416495D+05 0.20416495D+05 0.20416495D+05 0.12328418D+01  1  2  3  3  6  5       21 0.429516860305D-02 0.100000000000D+01
0.561526959190D-05 0.000000000000D+00 0.000000000000D+00 0.319559603586D-04 0.000000000000D+00  6 2 -1 25 24 21 21 4 0.96955293D-01 0.17501752D-01 0.20416495D+05 0.20416495D+05 0.20416495D+05 0.12328418D+01  1  2 15  3  6  5       21 0.175522263184D-02 0.100000000000D+01
0.104017904738D-02 0.000000000000D+00 0.000000000000D+00 0.319230808178D-04 0.000000000000D+00  6 2 -1 25 24 21 21 4 0.96955293D-01 0.17501752D-01 0.20690096D+05 0.20690096D+05 0.20690096D+05 0.12322074D+01  1  2 12  3  6  5       21 0.324495250938D+00 0.100000000000D+01
0.115937568511D-02 0.000000000000D+00 0.000000000000D+00 0.319230808178D-04 0.000000000000D+00  6 2 -1 25 24 21 21 4 0.96955293D-01 0.17501752D-01 0.20690096D+05 0.20690096D+05 0.20690096D+05 0.12322074D+01  1  2 12  3  6  5       21 0.361679948101D+00 0.100000000000D+01
-.275279253153D-02 0.000000000000D+00 0.000000000000D+00 0.319559603586D-04 0.000000000000D+00  6 2 -1 25 24 21 21 4 0.96955293D-01 0.17501752D-01 0.20416495D+05 0.20416495D+05 0.20416495D+05 0.12328418D+01  1  2  5  3  6  5       21 -.860468704666D+00 0.100000000000D+01
0.376353505383D-03 0.000000000000D+00 0.000000000000D+00 0.319559603586D-04 0.417026852109D-05  6 2 -1 25 24 21 21 4 0.96955293D-01 0.17501752D-01 0.20690096D+05 0.20690096D+05 0.20690096D+05 0.12322074D+01  1  2 11  3  6  5       21 0.117407599661D+00 0.100000000000D+01
0.106517481434D-03 0.000000000000D+00 0.000000000000D+00 0.319230808178D-04 0.000000000000D+00  6 2 -1 25 24 1 -1 4 0.96955293D-01 0.17501752D-01 0.20690096D+05 0.20690096D+05 0.20690096D+05 0.12322074D+01  1  2 12  6  6  5       21 0.332292954317D-01 0.100000000000D+01
0.116675544097D-03 0.000000000000D+00 0.000000000000D+00 0.319230808178D-04 0.000000000000D+00  6 2 -1 25 24 1 -1 4 0.96955293D-01 0.17501752D-01 0.20690096D+05 0.20690096D+05 0.20690096D+05 0.12322074D+01  1  2 12  6  6  5       21 0.363982143800D-01 0.100000000000D+01
-.277957174733D-03 0.000000000000D+00 0.000000000000D+00 0.319559603586D-04 0.000000000000D+00  6 2 -1 25 24 1 -1 4 0.96955293D-01 0.17501752D-01 0.20416495D+05 0.20416495D+05 0.20416495D+05 0.12328418D+01  1  2  5  6  6  5       21 -.868839359871D-01 0.100000000000D+01
0.445489412502D-04 0.000000000000D+00 0.000000000000D+00 0.319559603586D-04 0.198841677433D-06  6 2 -1 25 24 1 -1 4 0.96955293D-01 0.17501752D-01 0.20690096D+05 0.20690096D+05 0.20690096D+05 0.12322074D+01  1  2 11  6  6  5       21 0.138975303400D-01 0.100000000000D+01
0.106517481434D-03 0.000000000000D+00 0.000000000000D+00 0.319230808178D-04 0.000000000000D+00  6 2 -1 25 24 2 -2 4 0.96955293D-01 0.17501752D-01 0.20690096D+05 0.20690096D+05 0.20690096D+05 0.12322074D+01  1  2 12  7  6  5       21 0.332292954317D-01 0.100000000000D+01
0.116675544097D-03 0.000000000000D+00 0.000000000000D+00 0.319230808178D-04 0.000000000000D+00  6 2 -1 25 24 2 -2 4 0.96955293D-01 0.17501752D-01 0.20690096D+05 0.20690096D+05 0.20690096D+05 0.12322074D+01  1  2 12  7  6  5       21 0.363982143800D-01 0.100000000000D+01
-.277957174733D-03 0.000000000000D+00 0.000000000000D+00 0.319559603586D-04 0.000000000000D+00  6 2 -1 25 24 2 -2 4 0.96955293D-01 0.17501752D-01 0.20416495D+05 0.20416495D+05 0.20416495D+05 0.12328418D+01  1  2  5  7  6  5       21 -.868839359871D-01 0.100000000000D+01
0.507740666009D-04 0.000000000000D+00 0.000000000000D+00 0.319559603586D-04 0.251761613714D-06  6 2 -1 25 24 2 -2 4 0.96955293D-01 0.17501752D-01 0.20690096D+05 0.20690096D+05 0.20690096D+05 0.12322074D+01  1  2 11  7  6  5       21 0.158395264010D-01 0.100000000000D+01
0.106517481434D-03 0.000000000000D+00 0.000000000000D+00 0.319230808178D-04 0.000000000000D+00  6 2 -1 25 24 3 -3 4 0.96955293D-01 0.17501752D-01 0.20690096D+05 0.20690096D+05 0.20690096D+05 0.12322074D+01  1  2 12  8  6  5       21 0.332292954317D-01 0.100000000000D+01
0.106517481434D-03 0.000000000000D+00 0.000000000000D+00 0.319230808178D-04 0.000000000000D+00  6 2 -1 25 24 4 -4 4 0.96955293D-01 0.17501752D-01 0.20690096D+05 0.20690096D+05 0.20690096D+05 0.12322074D+01  1  2 12  8  6  5       21 0.332292954317D-01 0.100000000000D+01
0.116675544097D-03 0.000000000000D+00 0.000000000000D+00 0.319230808178D-04 0.000000000000D+00  6 2 -1 25 24 3 -3 4 0.96955293D-01 0.17501752D-01 0.20690096D+05 0.20690096D+05 0.20690096D+05 0.12322074D+01  1  2 12  8  6  5       21 0.363982143800D-01 0.100000000000D+01
0.116675544097D-03 0.000000000000D+00 0.000000000000D+00 0.319230808178D-04 0.000000000000D+00  6 2 -1 25 24 4 -4 4 0.96955293D-01 0.17501752D-01 0.20690096D+05 0.20690096D+05 0.20690096D+05 0.12322074D+01  1  2 12  8  6  5       21 0.363982143800D-01 0.100000000000D+01
-.277957174733D-03 0.000000000000D+00 0.000000000000D+00 0.319559603586D-04 0.000000000000D+00  6 2 -1 25 24 3 -3 4 0.96955293D-01 0.17501752D-01 0.20416495D+05 0.20416495D+05 0.20416495D+05 0.12328418D+01  1  2  5  8  6  5       21 -.868839359871D-01 0.100000000000D+01
-.277957174733D-03 0.000000000000D+00 0.000000000000D+00 0.319559603586D-04 0.000000000000D+00  6 2 -1 25 24 4 -4 4 0.96955293D-01 0.17501752D-01 0.20416495D+05 0.20416495D+05 0.20416495D+05 0.12328418D+01  1  2  5  8  6  5       21 -.868839359871D-01 0.100000000000D+01
0.445493464809D-04 0.000000000000D+00 0.000000000000D+00 0.319559603586D-04 0.198835546572D-06  6 2 -1 25 24 3 -3 4 0.96955293D-01 0.17501752D-01 0.20690096D+05 0.20690096D+05 0.20690096D+05 0.12322074D+01  1  2 11  8  6  5       21 0.138976567562D-01 0.100000000000D+01
0.445493464809D-04 0.000000000000D+00 0.000000000000D+00 0.319559603586D-04 0.198835546572D-06  6 2 -1 25 24 4 -4 4 0.96955293D-01 0.17501752D-01 0.20690096D+05 0.20690096D+05 0.20690096D+05 0.12322074D+01  1  2 11  8  6  5       21 0.138976567562D-01 0.100000000000D+01
  </mgrwgt>
  </event>
  <event>
  6     66 -.46179844E-03 0.81585645E+02 0.75467711E-02 0.11611853E+00
        2 -1    0    0  503    0 0.00000000E+00 0.00000000E+00 0.28946152E+03 0.28946169E+03 0.32000000E+00 0.0000E+00 0.9000E+01
       -1 -1    0    0    0  501 0.00000000E+00 0.00000000E+00 -.16079363E+03 0.16079395E+03 0.32000000E+00 0.0000E+00 0.9000E+01
       25  1    1    2    0    0 -.38003985E+02 0.11376358E+03 0.15628853E+03 0.23331858E+03 0.12500000E+03 0.0000E+00 0.9000E+01
       24  1    1    2    0    0 0.57491979E+02 -.37079893E+02 0.34744162E+01 0.10563869E+03 0.80419002E+02 0.0000E+00 0.9000E+01
       21  1    1    2  502  501 -.15322629E+02 -.84748831E+02 -.43036287E+02 0.96279966E+02 0.75000000E+00 0.0000E+00 0.9000E+01
       21  1    1    2  503  502 -.41653654E+01 0.80651441E+01 0.11941234E+02 0.15018402E+02 0.75000000E+00 0.0000E+00 0.9000E+01
#aMCatNLO 2  0  0  1  5 0.90772693D+01 0.00000000D+00  -5  6  0 0.00000000D+00 0.00000000D+00 0.00000000D+00 0.00000000D+00 0.00000000D+00
  <mgrwgt>
 -.7118602832D-01    3    2    0
 0.209597198965983D+03 0.000000000000000D+00 0.000000000000000D+00 0.209597198965983D+03
 0.209597198965983D+03 0.000000000000000D+00 0.000000000000000D+00 -.209597198965983D+03
 0.201295831725460D+03 -.399907746950283D+02 0.117611746878010D+03 0.972791180348542D+02
 0.107429199579403D+03 0.564184630558775D+02 -.350006338904174D+02 -.258017367939085D+02
 0.110469366627104D+03 -.164276883608492D+02 -.826111129875930D+02 -.714773812409457D+02
 0.000000000000000D+00 -.000000000000000D+00 0.000000000000000D+00 0.000000000000000D+00
 0.219874267470245D+03 0.000000000000000D+00 0.000000000000000D+00 0.219874267470245D+03
 0.211660347344239D+03 0.000000000000000D+00 0.000000000000000D+00 -.211660347344239D+03
 0.198682841548877D+03 -.380037943304153D+02 0.113764477482158D+03 0.972791180348542D+02
 0.108688389998220D+03 0.574920738147284D+02 -.370794011943860D+02 -.258017367939085D+02
 0.111921434827262D+03 -.153229140684026D+02 -.847502203488689D+02 -.714773812409457D+02
 0.122419484401267D+02 -.416536541591054D+01 0.806514406109695D+01 0.821392012600619D+01
-.532664637890D-03 0.000000000000D+00 0.000000000000D+00 0.276463253895D-05 0.000000000000D+00  6 2 -1 25 24 21 21 4 0.45007319D-01 0.24495072D-01 0.34973051D+05 0.34973051D+05 0.34973051D+05 0.12079687D+01  1  2 13  1  6  1        2 -.207086668054D+00 0.100000000000D+01
-.231099358505D-03 0.000000000000D+00 0.000000000000D+00 0.277497086876D-05 0.000000000000D+00  6 2 -1 25 24 21 21 4 0.42448810D-01 0.24495072D-01 0.33259313D+05 0.33259313D+05 0.33259313D+05 0.12102252D+01  1  2  8  1  6  1        2 -.963073825463D-01 0.100000000000D+01
0.600144187780D-03 0.000000000000D+00 0.000000000000D+00 0.277497086876D-05 0.971653944428D-07  6 2 -1 25 24 21 21 4 0.44530180D-01 0.24736187D-01 0.34973051D+05 0.34973051D+05 0.34973051D+05 0.12079687D+01  1  2  1  1  6  1        2 0.232208022280D+00 0.100000000000D+01
  </mgrwgt>
  </event>
  <event>
  6     66 0.46179844E-03 0.20052712E+02 0.75467711E-02 0.11915179E+00
        2 -1    0    0  502    0 0.00000000E+00 0.00000000E+00 0.95389419E+03 0.95389425E+03 0.32000000E+00 0.0000E+00 0.9000E+01
       21 -1    0    0  503  501 0.00000000E+00 0.00000000E+00 -.32660491E+02 0.32669101E+02 0.75000000E+00 0.0000E+00 0.9000E+01
       25  1    1    2    0    0 -.75678055E+02 0.79656542E+02 0.63257919E+03 0.65410532E+03 0.12500000E+03 0.0000E+00 0.9000E+01
       24  1    1    2    0    0 0.58653610E+02 -.67405110E+02 0.27120018E+03 0.29664870E+03 0.80419002E+02 0.0000E+00 0.9000E+01
        1  1    1    2  503    0 -.41579498E+01 -.37142198E+01 0.10552968E+02 0.11939494E+02 0.32000000E+00 0.0000E+00 0.9000E+01
       21  1    1    2  502  501 0.21182395E+02 -.85372118E+01 0.69013566E+01 0.23869836E+02 0.75000000E+00 0.0000E+00 0.9000E+01
#aMCatNLO 2  0  0  2  1 0.55753004D+01 0.00000000D+00  -5  6  0 0.00000000D+00 0.00000000D+00 0.00000000D+00 0.00000000D+00 0.00000000D+00
  <mgrwgt>
 0.3809227795D-01    1    2    0
 0.173580798108808D+03 0.000000000000000D+00 0.000000000000000D+00 0.173580798108808D+03
 0.173580798108808D+03 0.000000000000000D+00 0.000000000000000D+00 -.173580798108808D+03
 0.177002144839097D+03 -.777986333563542D+02 0.777639261014722D+02 0.600408504504153D+02
 0.121414049346785D+03 0.571988717466916D+02 -.687034642536497D+02 -.168011456414717D+02
 0.000000000000000D+00 -.000000000000000D+00 -.000000000000000D+00 -.000000000000000D+00
 0.487454020317338D+02 0.205997616096626D+02 -.906046184782252D+01 -.432397048089436D+02
 0.175669963364297D+03 0.000000000000000D+00 0.000000000000000D+00 0.175669963364297D+03
 0.177363128879399D+03 0.000000000000000D+00 0.000000000000000D+00 -.177363128879399D+03
 0.176925158078688D+03 -.756792787149945D+02 0.796571064722909D+02 0.600408504504153D+02
 0.121379729521573D+03 0.586527469292384D+02 -.674047443964331D+02 -.168011456414717D+02
 0.582673017152275D+01 -.415794979104724D+01 -.371421977881430D+01 -.169316551510133D+01
 0.489014744719120D+02 0.211844815768033D+02 -.853814229704348D+01 -.432397048089436D+02
0.178724734794D-05 0.000000000000D+00 0.000000000000D+00 0.380065182073D-04 0.661223607741D-07  6 2 21 25 24 1 21 4 0.14674996D+00 0.50252322D-02 0.24814592D+05 0.24814592D+05 0.24814592D+05 0.12236444D+01  1  2  1  5  5  2       -1 0.380922779524D-01 0.100000000000D+01
  </mgrwgt>
  </event>
  <event>
  5     66 0.46179844E-03 0.54104704E+02 0.75467711E-02 0.11943117E+00
        2 -1    0    0  502    0 0.00000000E+00 0.00000000E+00 0.93321686E+03 0.93321692E+03 0.32000000E+00 0.0000E+00 0.9000E+01
       -1 -1    0    0    0  501 0.00000000E+00 0.00000000E+00 -.45597476E+02 0.45598598E+02 0.32000000E+00 0.0000E+00 0.9000E+01
       25  1    1    2    0    0 0.99749435E+02 0.12751620E+02 0.77866648E+03 0.79502141E+03 0.12500000E+03 0.0000E+00 0.9000E+01
       24  1    1    2    0    0 -.47610621E+02 0.16905058E+01 0.62092317E+02 0.11221542E+03 0.80419002E+02 0.0000E+00 0.9000E+01
       21  1    1    2  502  501 -.52138815E+02 -.14442126E+02 0.46860593E+02 0.71578688E+02 0.75000000E+00 0.0000E+00 0.9000E+01
#aMCatNLO 1  0  0  5  2 0.11530744D+02 0.00000000D+00  -5  6  0 0.00000000D+00 0.00000000D+00 0.00000000D+00 0.00000000D+00 0.00000000D+00
  <mgrwgt>
 0.1622278449D+00   20    2    0
 0.206283565745052D+03 0.000000000000000D+00 0.000000000000000D+00 0.206283565745052D+03
 0.206283565745052D+03 -.000000000000000D+00 -.000000000000000D+00 -.206283565745052D+03
 0.210924440129442D+03 0.997510099174337D+02 0.127520560454212D+02 0.136935169080061D+03
 0.132641365959706D+03 -.476096304090228D+02 0.169078009647613D+01 -.941115315158967D+02
 0.690013254009571D+02 -.521413795084109D+02 -.144428361418973D+02 -.428236375641648D+02
 0.000000000000000D+00 -.000000000000000D+00 0.000000000000000D+00 0.000000000000000D+00
 0.206283565745052D+03 0.000000000000000D+00 0.000000000000000D+00 0.206283565745052D+03
 0.206283565745052D+03 -.000000000000000D+00 -.000000000000000D+00 -.206283565745052D+03
 0.206950189058512D+03 0.958401398884433D+02 0.116687694977023D+02 0.133723177332604D+03
 0.135011584372055D+03 -.501145824413046D+02 0.996924044207275D+00 -.961688449003412D+02
 0.587028000120946D+02 -.395514267896599D+02 -.228200539822015D+02 -.368910355562372D+02
 0.119025580474421D+02 -.617413065747875D+01 0.101543604402919D+02 -.663296876026109D+00
0.128281038142D-03 0.000000000000D+00 0.000000000000D+00 0.383055936069D-05 0.000000000000D+00  6 2 -1 25 24 21 21 2 0.14357192D+00 0.70150868D-02 0.23716861D+05 0.23716861D+05 0.23716861D+05 0.12257586D+01  1  2  2  3  6  5       21 0.658350982938D-01 0.100000000000D+01
-.166234642148D-05 0.676957636638D-05 -.492632963640D-06 0.383055936069D-05 0.000000000000D+00  6 2 -1 25 24 21 21 4 0.14357192D+00 0.70150868D-02 0.23716861D+05 0.23716861D+05 0.23716861D+05 0.12257586D+01  1  2  3  3  6  5       21 -.128181824574D-02 0.100000000000D+01
0.443117991890D-05 0.000000000000D+00 0.000000000000D+00 0.383055936069D-05 0.000000000000D+00  6 2 -1 25 24 21 21 4 0.14357192D+00 0.70150868D-02 0.23716861D+05 0.23716861D+05 0.23716861D+05 0.12257586D+01  1  2 15  3  6  5       21 0.341683730707D-02 0.100000000000D+01
0.115384026574D-03 0.000000000000D+00 0.000000000000D+00 0.382630749418D-05 0.000000000000D+00  6 2 -1 25 24 21 21 4 0.14357192D+00 0.70150868D-02 0.24064138D+05 0.24064138D+05 0.24064138D+05 0.12250781D+01  1  2 12  3  6  5       21 0.887909813150D-01 0.100000000000D+01
0.770226492508D-04 0.000000000000D+00 0.000000000000D+00 0.382630749418D-05 0.000000000000D+00  6 2 -1 25 24 21 21 4 0.14357192D+00 0.70150868D-02 0.24064138D+05 0.24064138D+05 0.24064138D+05 0.12250781D+01  1  2 12  3  6  5       21 0.592709130849D-01 0.100000000000D+01
-.128323668300D-03 0.000000000000D+00 0.000000000000D+00 0.383055936069D-05 0.000000000000D+00  6 2 -1 25 24 21 21 4 0.14357192D+00 0.70150868D-02 0.23716861D+05 0.23716861D+05 0.23716861D+05 0.12257586D+01  1  2  4  3  6  5       21 -.989490621580D-01 0.100000000000D+01
-.214313585399D-03 0.000000000000D+00 0.000000000000D+00 0.383055936069D-05 0.000000000000D+00  6 2 -1 25 24 21 21 4 0.14357192D+00 0.70150868D-02 0.23716861D+05 0.23716861D+05 0.23716861D+05 0.12257586D+01  1  2  5  3  6  5       21 -.165255003725D+00 0.100000000000D+01
0.275312612393D-03 0.000000000000D+00 -.000000000000D+00 0.383055936069D-05 0.000000000000D+00  6 2 -1 25 24 21 21 4 0.14357192D+00 0.70150868D-02 0.23716861D+05 0.23716861D+05 0.23716861D+05 0.12257586D+01  1  2  6  3  6  5       21 0.212290726702D+00 0.100000000000D+01
0.164692065310D-05 0.000000000000D+00 0.000000000000D+00 0.382630749418D-05 0.000000000000D+00  6 2 -1 25 24 1 -1 4 0.14357192D+00 0.70150868D-02 0.24064138D+05 0.24064138D+05 0.24064138D+05 0.12250781D+01  1  2 12  6  6  5       21 0.126734787542D-02 0.100000000000D+01
0.136800652934D-05 0.000000000000D+00 0.000000000000D+00 0.382630749418D-05 0.000000000000D+00  6 2 -1 25 24 1 -1 4 0.14357192D+00 0.70150868D-02 0.24064138D+05 0.24064138D+05 0.24064138D+05 0.12250781D+01  1  2 12  6  6  5       21 0.105271627098D-02 0.100000000000D+01
-.362184966815D-05 0.000000000000D+00 0.000000000000D+00 0.383055936069D-05 0.000000000000D+00  6 2 -1 25 24 1 -1 4 0.14357192D+00 0.70150868D-02 0.23716861D+05 0.23716861D+05 0.23716861D+05 0.12257586D+01  1  2  5  6  6  5       21 -.279277106622D-02 0.100000000000D+01
0.164692065310D-05 0.000000000000D+00 0.000000000000D+00 0.382630749418D-05 0.000000000000D+00  6 2 -1 25 24 2 -2 4 0.14357192D+00 0.70150868D-02 0.24064138D+05 0.24064138D+05 0.24064138D+05 0.12250781D+01  1  2 12  7  6  5       21 0.126734787542D-02 0.100000000000D+01
0.136800652934D-05 0.000000000000D+00 0.000000000000D+00 0.382630749418D-05 0.000000000000D+00  6 2 -1 25 24 2 -2 4 0.14357192D+00 0.70150868D-02 0.24064138D+05 0.24064138D+05 0.24064138D+05 0.12250781D+01  1  2 12  7  6  5       21 0.105271627098D-02 0.100000000000D+01
-.362184966815D-05 0.000000000000D+00 0.000000000000D+00 0.383055936069D-05 0.000000000000D+00  6 2 -1 25 24 2 -2 4 0.14357192D+00 0.70150868D-02 0.23716861D+05 0.23716861D+05 0.23716861D+05 0.12257586D+01  1  2  5  7  6  5       21 -.279277106622D-02 0.100000000000D+01
0.164692065310D-05 0.000000000000D+00 0.000000000000D+00 0.382630749418D-05 0.000000000000D+00  6 2 -1 25 24 3 -3 4 0.14357192D+00 0.70150868D-02 0.24064138D+05 0.24064138D+05 0.24064138D+05 0.12250781D+01  1  2 12  8  6  5       21 0.126734787542D-02 0.100000000000D+01
0.164692065310D-05 0.000000000000D+00 0.000000000000D+00 0.382630749418D-05 0.000000000000D+00  6 2 -1 25 24 4 -4 4 0.14357192D+00 0.70150868D-02 0.24064138D+05 0.24064138D+05 0.24064138D+05 0.12250781D+01  1  2 12  8  6  5       21 0.126734787542D-02 0.100000000000D+01
0.136800652934D-05 0.000000000000D+00 0.000000000000D+00 0.382630749418D-05 0.000000000000D+00  6 2 -1 25 24 3 -3 4 0.14357192D+00 0.70150868D-02 0.24064138D+05 0.24064138D+05 0.24064138D+05 0.12250781D+01  1  2 12  8  6  5       21 0.105271627098D-02 0.100000000000D+01
0.136800652934D-05 0.000000000000D+00 0.000000000000D+00 0.382630749418D-05 0.000000000000D+00  6 2 -1 25 24 4 -4 4 0.14357192D+00 0.70150868D-02 0.24064138D+05 0.24064138D+05 0.24064138D+05 0.12250781D+01  1  2 12  8  6  5       21 0.105271627098D-02 0.100000000000D+01
-.362184966815D-05 0.000000000000D+00 0.000000000000D+00 0.383055936069D-05 0.000000000000D+00  6 2 -1 25 24 3 -3 4 0.14357192D+00 0.70150868D-02 0.23716861D+05 0.23716861D+05 0.23716861D+05 0.12257586D+01  1  2  5  8  6  5       21 -.279277106622D-02 0.100000000000D+01
-.362184966815D-05 0.000000000000D+00 0.000000000000D+00 0.383055936069D-05 0.000000000000D+00  6 2 -1 25 24 4 -4 4 0.14357192D+00 0.70150868D-02 0.23716861D+05 0.23716861D+05 0.23716861D+05 0.12257586D+01  1  2  5  8  6  5       21 -.279277106622D-02 0.100000000000D+01
  </mgrwgt>
  </event>
  <event>
  6     66 0.46179844E-03 0.15320442E+03 0.75467711E-02 0.11230515E+00
        2 -1    0    0  502    0 0.00000000E+00 0.00000000E+00 0.45958499E+03 0.45958510E+03 0.32000000E+00 0.0000E+00 0.9000E+01
       -1 -1    0    0    0  503 0.00000000E+00 0.00000000E+00 -.26300149E+03 0.26300169E+03 0.32000000E+00 0.0000E+00 0.9000E+01
       25  1    1    2    0    0 -.61604195E+02 0.49315688E+02 0.14006616E+03 0.20364342E+03 0.12500000E+03 0.0000E+00 0.9000E+01
       24  1    1    2    0    0 -.52034319E+02 0.30934219E+02 0.22090452E+03 0.24275609E+03 0.80419002E+02 0.0000E+00 0.9000E+01
       21  1    1    2  502  501 0.12425466E+03 -.12477396E+03 -.13319423E+03 0.22079182E+03 0.75000000E+00 0.0000E+00 0.9000E+01
       21  1    1    2  501  503 -.10616148E+02 0.44524054E+02 -.31192947E+02 0.55395455E+02 0.75000000E+00 0.0000E+00 0.9000E+01
#aMCatNLO 2  0  0  2  1 0.45772197D+02 0.00000000D+00  -5  6  0 0.00000000D+00 0.00000000D+00 0.00000000D+00 0.00000000D+00 0.00000000D+00
  <mgrwgt>
 0.3014131629D-01    1    2    0
 0.312716754772033D+03 0.000000000000000D+00 0.000000000000000D+00 0.312716754772033D+03
 0.312716754772033D+03 0.000000000000000D+00 0.000000000000000D+00 -.312716754772033D+03
 0.170785867096249D+03 -.644569967636331D+02 0.612799127868891D+02 0.750525166590818D+02
 0.181598519473259D+03 -.550826074052718D+02 0.437182848340818D+02 0.146851708376552D+03
 0.273049122974559D+03 0.119539604168905D+03 -.104998197620971D+03 -.221904225035634D+03
 0.000000000000000D+00 -.000000000000000D+00 0.000000000000000D+00 -.000000000000000D+00
 0.322030510291680D+03 0.000000000000000D+00 0.000000000000000D+00 0.322030510291680D+03
 0.375337654822472D+03 0.000000000000000D+00 0.000000000000000D+00 -.375337654822472D+03
 0.165786061981584D+03 -.616043146612412D+02 0.493157835344705D+02 0.750525166590818D+02
 0.178036950146444D+03 -.520344456932112D+02 0.309343154339201D+02 0.146851708376552D+03
 0.283283174153138D+03 0.124254908833043D+03 -.124774153174862D+03 -.221904225035634D+03
 0.702619788329867D+02 -.106161484785910D+02 0.445240542064719D+02 -.533071445307919D+02
0.318544476594D-03 0.000000000000D+00 0.000000000000D+00 0.286102356195D-05 0.244228647361D-08  6 2 -1 25 24 21 21 4 0.70704976D-01 0.40461545D-01 0.55305848D+05 0.55305848D+05 0.55305848D+05 0.11879681D+01  1  2  1  2  6  2       -1 0.301413162908D-01 0.100000000000D+01
  </mgrwgt>
  </event>
  <event>
  5     66 0.46179844E-03 0.20290224E+02 0.75467711E-02 0.10969700E+00
        2 -1    0    0  502    0 0.00000000E+00 0.00000000E+00 0.16540890E+02 0.16543985E+02 0.32000000E+00 0.0000E+00 0.9000E+01
       -1 -1    0    0    0  501 0.00000000E+00 0.00000000E+00 -.24782232E+04 0.24782232E+04 0.32000000E+00 0.0000E+00 0.9000E+01
       25  1    1    2    0    0 0.10248412E+03 0.81112851E+02 -.79717466E+03 0.81743179E+03 0.12500000E+03 0.0000E+00 0.9000E+01
       24  1    1    2    0    0 -.90875988E+02 -.64472160E+02 -.74274735E+03 0.75535154E+03 0.80419002E+02 0.0000E+00 0.9000E+01
       21  1    1    2  502  501 -.11608129E+02 -.16640691E+02 -.92176031E+03 0.92198389E+03 0.75000000E+00 0.0000E+00 0.9000E+01
#aMCatNLO 1  0  0  1  2 0.11680137D+03 0.00000000D+00  -5  6  0 0.00000000D+00 0.00000000D+00 0.00000000D+00 0.00000000D+00 0.00000000D+00
  <mgrwgt>
 0.2615814970D+00    3    2    0
 0.202474452020348D+03 0.000000000000000D+00 0.000000000000000D+00 0.202474452020348D+03
 0.202474452020348D+03 0.000000000000000D+00 0.000000000000000D+00 -.202474452020348D+03
 0.189929109387357D+03 0.102484377085883D+03 0.811132244082695D+02 0.580143419516814D+02
 0.138333968074183D+03 -.908757978523417D+02 -.644718881035157D+02 0.159384998618635D+02
 0.766858265791569D+02 -.116085792335416D+02 -.166413363047538D+02 -.739528418135449D+02
 0.000000000000000D+00 -.000000000000000D+00 0.000000000000000D+00 -.000000000000000D+00
 0.256318444162548D+03 0.000000000000000D+00 0.000000000000000D+00 0.256318444162548D+03
 0.408056257160073D+03 0.000000000000000D+00 0.000000000000000D+00 -.408056257160073D+03
 0.191020040314535D+03 0.131797563407336D+03 0.112869043395097D+02 0.580143419516814D+02
 0.159763720964566D+03 -.679378464023249D+02 -.119111896259108D+03 0.159384998618635D+02
 0.874877394182295D+02 0.102421003217681D+01 -.467336359597968D+02 -.739528418135449D+02
 0.226103200625291D+03 -.648839270371875D+02 0.154558627879395D+03 -.151737812997526D+03
0.244082789025D-01 0.000000000000D+00 0.000000000000D+00 0.491968674394D-04 0.000000000000D+00  6 2 -1 25 24 21 21 2 0.25449920D-02 0.38126535D+00 0.28654839D+05 0.28654839D+05 0.28654839D+05 0.12169950D+01  1  2  2  1  6  1        2 0.193327246440D+00 0.100000000000D+01
0.555170951638D-02 0.128806026514D-02 -.937342178329D-04 0.491968674394D-04 0.000000000000D+00  6 2 -1 25 24 21 21 4 0.25449920D-02 0.38126535D+00 0.28654839D+05 0.28654839D+05 0.28654839D+05 0.12169950D+01  1  2  3  1  6  1        2 0.651268730264D-01 0.100000000000D+01
0.266591818559D-03 0.000000000000D+00 0.000000000000D+00 0.491968674394D-04 0.000000000000D+00  6 2 -1 25 24 21 21 4 0.25449920D-02 0.38126535D+00 0.28654839D+05 0.28654839D+05 0.28654839D+05 0.12169950D+01  1  2 15  1  6  1        2 0.312737751605D-02 0.100000000000D+01
  </mgrwgt>
  </event>
  <event>
  6     66 0.46179844E-03 0.24965858E+02 0.75467711E-02 0.11490525E+00
        2 -1    0    0  502    0 0.00000000E+00 0.00000000E+00 0.19266523E+03 0.19266523E+03 0.00000000E+00 0.0000E+00 0.9000E+01
       -1 -1    0    0    0  503 0.00000000E+00 0.00000000E+00 -.63129798E+03 0.63129798E+03 0.00000000E+00 0.0000E+00 0.9000E+01
       25  1    1    2    0    0 0.18048650E+02 -.16721061E+03 -.77786937E+02 0.22351946E+03 0.12500000E+03 0.0000E+00 0.9000E+01
       24  1    1    2    0    0 -.24628316E+02 0.14341953E+03 0.61130720E+02 0.17714372E+03 0.80419002E+02 0.0000E+00 0.9000E+01
       21  1    1    2  502  501 -.21560583E+00 -.52883098E+00 -.24512529E-02 0.57109902E+00 0.00000000E+00 0.0000E+00 0.9000E+01
       21  1    1    2  501  503 0.67952717E+01 0.24319904E+02 -.42197408E+03 0.42272894E+03 0.00000000E+00 0.0000E+00 0.9000E+01
#aMCatNLO 2  0  0  2  5 0.12234677D+02 0.00000000D+00  -5  6  0 0.00000000D+00 0.00000000D+00 0.00000000D+00 0.00000000D+00 0.00000000D+00
  <mgrwgt>
 0.1934099411D+01    1    2    0
 0.200046119012054D+03 0.000000000000000D+00 0.000000000000000D+00 0.200046119012054D+03
 0.200046119012054D+03 0.000000000000000D+00 0.000000000000000D+00 -.200046119012054D+03
 0.211061181216360D+03 0.217097119288919D+02 -.154107865784078D+03 -.685658539499540D+02
 0.188494236979510D+03 -.215035086579642D+02 0.154603045522081D+03 0.685445756483418D+02
 0.536819828237640D+00 -.206203270927719D+00 -.495179738002604D+00 0.212783016122557D-01
 0.000000000000000D+00 0.000000000000000D+00 0.000000000000000D+00 -.000000000000000D+00
 0.200837592230769D+03 0.000000000000000D+00 0.000000000000000D+00 0.200837592230769D+03
 0.605609597428871D+03 0.000000000000000D+00 0.000000000000000D+00 -.605609597428871D+03
 0.220479968704395D+03 0.180486499834308D+02 -.167210605243149D+03 -.685658539499540D+02
 0.179836845391452D+03 -.246283158965008D+02 0.143419532181880D+03 0.685445756483418D+02
 0.571490021048073D+00 -.215605829672684D+00 -.528830978904612D+00 0.212783016122557D-01
 0.405558885542745D+03 0.679527174274275D+01 0.243199040401733D+02 -.404772005198102D+03
0.420596906958D-01 0.000000000000D+00 0.000000000000D+00 0.524018959061D-01 0.450450349562D-03  6 2 -1 25 24 21 21 4 0.29640805D-01 0.97122766D-01 0.40326986D+05 0.40326986D+05 0.40326986D+05 0.12016414D+01  1  2  1  2  6  2       -1 0.193409941090D+01 0.100000000000D+01
  </mgrwgt>
  </event>
  <event>
  5     66 0.46179844E-03 0.43017669E+02 0.75467711E-02 0.11799964E+00
        2 -1    0    0  502    0 0.00000000E+00 0.00000000E+00 0.99510378E+03 0.99510383E+03 0.32000000E+00 0.0000E+00 0.9000E+01
       -1 -1    0    0    0  501 0.00000000E+00 0.00000000E+00 -.86658856E+02 0.86659447E+02 0.32000000E+00 0.0000E+00 0.9000E+01
       25  1    1    2    0    0 0.86829765E+02 -.35465451E+02 0.85102354E+03 0.86525330E+03 0.12500000E+03 0.0000E+00 0.9000E+01
       24  1    1    2    0    0 -.10653788E+03 -.53457751E+01 0.89659358E+02 0.16088789E+03 0.80419002E+02 0.0000E+00 0.9000E+01
       21  1    1    2  502  501 0.19708116E+02 0.40811226E+02 -.32237981E+02 0.55622081E+02 0.75000000E+00 0.0000E+00 0.9000E+01
#aMCatNLO 1  0  0  1  5 0.65367751D+00 0.00000000D+00  -5  6  0 0.00000000D+00 0.00000000D+00 0.00000000D+00 0.00000000D+00 0.00000000D+00
  <mgrwgt>
 0.1266303377D+00   10    4    0
 0.293657798593934D+03 0.000000000000000D+00 0.000000000000000D+00 0.293657798593934D+03
 0.293657798593934D+03 0.000000000000000D+00 0.000000000000000D+00 -.293657798593934D+03
 0.277349406287370D+03 0.868296520575619D+02 -.354656843701063D+02 0.229129853846415D+03
 0.157652726449851D+03 -.106537945222193D+03 -.534590789409773D+01 -.837153134099238D+02
 0.152313464450647D+03 0.197082931646311D+02 0.408115922642041D+02 -.145414540436491D+03
 0.000000000000000D+00 0.000000000000000D+00 -.000000000000000D+00 0.000000000000000D+00
 0.296180115590325D+03 0.000000000000000D+00 0.000000000000000D+00 0.296180115590325D+03
 0.293700334898936D+03 0.000000000000000D+00 0.000000000000000D+00 -.293700334898936D+03
 0.277306150841105D+03 0.868169152118955D+02 -.351572837932711D+02 0.229129853846415D+03
 0.157651772186276D+03 -.106545185724313D+03 -.517059172173026D+01 -.837153134099238D+02
 0.152358037929265D+03 0.197012968335660D+02 0.409809962589385D+02 -.145414540436491D+03
 0.256448953261548D+01 0.269736788509586D-01 -.653120743937066D+00 0.247978069138839D+01
 0.293657798593934D+03 0.000000000000000D+00 0.000000000000000D+00 0.293657798593934D+03
 0.293657798593934D+03 0.000000000000000D+00 0.000000000000000D+00 -.293657798593934D+03
 0.277349406287370D+03 0.868296520575619D+02 -.354656843701063D+02 0.229129853846415D+03
 0.157652726449851D+03 -.106537945222193D+03 -.534590789409773D+01 -.837153134099238D+02
 0.000000000000000D+00 0.000000000000000D+00 -.000000000000000D+00 0.000000000000000D+00
 0.152313464450647D+03 0.197082931646311D+02 0.408115922642041D+02 -.145414540436491D+03
 0.296180115590325D+03 0.000000000000000D+00 0.000000000000000D+00 0.296180115590325D+03
 0.293700334898936D+03 0.000000000000000D+00 0.000000000000000D+00 -.293700334898936D+03
 0.277306150841105D+03 0.868169152118955D+02 -.351572837932711D+02 0.229129853846415D+03
 0.157651772186276D+03 -.106545185724313D+03 -.517059172173026D+01 -.837153134099238D+02
 0.256448953261548D+01 0.269736788509586D-01 -.653120743937066D+00 0.247978069138839D+01
 0.152358037929265D+03 0.197012968335660D+02 0.409809962589385D+02 -.145414540436491D+03
0.100026521340D-03 0.000000000000D+00 0.000000000000D+00 0.564549054402D-05 0.000000000000D+00  6 2 -1 25 24 21 21 2 0.15309294D+00 0.13332181D-01 0.28087507D+05 0.28087507D+05 0.28087507D+05 0.12179124D+01  1  2  2  1  6  1        2 0.173936784788D-01 0.100000000000D+01
0.393955244226D-05 0.527854455096D-05 -.384128179535D-06 0.564549054402D-05 0.000000000000D+00  6 2 -1 25 24 21 21 4 0.15309294D+00 0.13332181D-01 0.28087507D+05 0.28087507D+05 0.28087507D+05 0.12179124D+01  1  2  3  1  6  1        2 0.101614406456D-02 0.100000000000D+01
0.304479761720D-05 0.000000000000D+00 0.000000000000D+00 0.564549054402D-05 0.000000000000D+00  6 2 -1 25 24 21 21 4 0.15309294D+00 0.13332181D-01 0.28087507D+05 0.28087507D+05 0.28087507D+05 0.12179124D+01  1  2 15  1  6  1        2 0.785356476876D-03 0.100000000000D+01
-.901114580699D-01 0.000000000000D+00 0.000000000000D+00 0.564549054402D-05 0.000000000000D+00  6 2 -1 25 24 21 21 4 0.15309294D+00 0.13332181D-01 0.28087507D+05 0.28087507D+05 0.28087507D+05 0.12179124D+01  1  2  4  1  6  1        2 -.232427984166D+02 0.100000000000D+01
-.116638693415D+00 0.000000000000D+00 -.309235709854D-02 0.564549054402D-05 0.000000000000D+00  6 2 -1 25 24 21 21 4 0.15441757D+00 0.13332181D-01 0.28087507D+05 0.28087507D+05 0.28087507D+05 0.12179124D+01  1  2  5  1  6  1        2 -.297275200337D+02 0.100000000000D+01
0.116661120163D+00 0.000000000000D+00 0.309224234042D-02 0.564549054402D-05 0.000000000000D+00  6 2 -1 25 24 21 21 4 0.15309294D+00 0.13332181D-01 0.28087507D+05 0.28087507D+05 0.28087507D+05 0.12179124D+01  1  2  6  1  6  1        2 0.300908558921D+02 0.100000000000D+01
0.902955503743D-01 0.000000000000D+00 0.000000000000D+00 0.564549054402D-05 0.504151161672D-04  6 2 -1 25 24 21 21 4 0.15440790D+00 0.13334112D-01 0.28209202D+05 0.28209202D+05 0.28209202D+05 0.12177139D+01  1  2 11  1  6  1        2 0.229950660829D+02 0.100000000000D+01
0.109212805721D-10 0.000000000000D+00 0.000000000000D+00 0.564365020579D-05 0.000000000000D+00  6 21 -1 25 24 -2 21 4 0.15442977D+00 0.13332181D-01 0.28209202D+05 0.28209202D+05 0.28209202D+05 0.12177139D+01  3  4 12  4  5  1        2 0.234683572519D-08 0.100000000000D+01
-.185916988547D-03 0.000000000000D+00 -.493133951859D-05 0.564549054402D-05 0.000000000000D+00  6 21 -1 25 24 -2 21 4 0.15441757D+00 0.13332181D-01 0.28087507D+05 0.28087507D+05 0.28087507D+05 0.12179124D+01  3  4  5  4  5  1        2 -.399935747971D-01 0.100000000000D+01
0.148080563211D-03 0.000000000000D+00 0.000000000000D+00 0.564549054402D-05 0.164995927117D-06  6 21 -1 25 24 -2 21 4 0.15440790D+00 0.13334112D-01 0.28209202D+05 0.28209202D+05 0.28209202D+05 0.12177139D+01  3  4 11  4  5  1        2 0.318252064037D-01 0.100000000000D+01
  </mgrwgt>
  </event>
  <event>
  5     66 0.46179844E-03 0.59631247E+02 0.75467711E-02 0.11242981E+00
        2 -1    0    0  502    0 0.00000000E+00 0.00000000E+00 0.37942605E+03 0.37942619E+03 0.32000000E+00 0.0000E+00 0.9000E+01
       -1 -1    0    0    0  501 0.00000000E+00 0.00000000E+00 -.21525617E+03 0.21525641E+03 0.32000000E+00 0.0000E+00 0.9000E+01
       25  1    1    2    0    0 0.12846989E+03 -.16447736E+03 0.25590114E+02 0.24461637E+03 0.12500000E+03 0.0000E+00 0.9000E+01
       24  1    1    2    0    0 -.11873150E+03 0.10564795E+03 0.19769264E+03 0.26609820E+03 0.80419002E+02 0.0000E+00 0.9000E+01
       21  1    1    2  502  501 -.97383890E+01 0.58829407E+02 -.59112869E+02 0.83968024E+02 0.75000000E+00 0.0000E+00 0.9000E+01
#aMCatNLO 1  0  0  5  1 0.20598538D+02 0.00000000D+00  -5  6  0 0.00000000D+00 0.00000000D+00 0.00000000D+00 0.00000000D+00 0.00000000D+00
  <mgrwgt>
 0.3305873870D+00    9    2    0
 0.285786477387871D+03 0.000000000000000D+00 0.000000000000000D+00 0.285786477387871D+03
 0.285786477387871D+03 -.000000000000000D+00 -.000000000000000D+00 -.285786477387871D+03
 0.247156828324052D+03 0.128469999276126D+03 -.164478017588735D+03 -.436341472161117D+02
 0.220074950464322D+03 -.118731404635748D+03 0.105647367882793D+03 0.129256547533049D+03
 0.104341175987367D+03 -.973859464037762D+01 0.588306497059421D+02 -.856224003169370D+02
 0.000000000000000D+00 0.000000000000000D+00 0.000000000000000D+00 0.000000000000000D+00
 0.285786477387871D+03 0.000000000000000D+00 0.000000000000000D+00 0.285786477387871D+03
 0.285786477387871D+03 -.000000000000000D+00 -.000000000000000D+00 -.285786477387871D+03
 0.241908066958707D+03 0.126398293956911D+03 -.151962888411541D+03 -.618487242398905D+02
 0.217761781824219D+03 -.120586104688806D+03 0.116851572715248D+03 0.112949895877958D+03
 0.838645600644296D+02 0.622376335749180D+01 0.340197947851764D+02 -.764014578869065D+02
 0.280385459283857D+02 -.120359526255970D+02 0.109152091111706D+01 0.253002862488386D+02
0.100618003597D-02 0.000000000000D+00 0.000000000000D+00 0.417361839049D-05 0.000000000000D+00  6 2 -1 25 24 21 21 2 0.58373268D-01 0.33116363D-01 0.57845801D+05 0.57845801D+05 0.57845801D+05 0.11860630D+01  1  2  2  3  6  5       21 0.117778966037D+00 0.100000000000D+01
0.537401922047D-04 0.530975792717D-04 -.386399627141D-05 0.417361839049D-05 0.000000000000D+00  6 2 -1 25 24 21 21 4 0.58373268D-01 0.33116363D-01 0.57845801D+05 0.57845801D+05 0.57845801D+05 0.11860630D+01  1  2  3  3  6  5       21 0.884925665593D-02 0.100000000000D+01
0.674962167452D-06 0.000000000000D+00 0.000000000000D+00 0.417361839049D-05 0.000000000000D+00  6 2 -1 25 24 21 21 4 0.58373268D-01 0.33116363D-01 0.57845801D+05 0.57845801D+05 0.57845801D+05 0.11860630D+01  1  2 15  3  6  5       21 0.111144251775D-03 0.100000000000D+01
0.142680897326D-02 0.000000000000D+00 0.000000000000D+00 0.419168423106D-05 0.000000000000D+00  6 2 -1 25 24 21 21 4 0.58373268D-01 0.33116363D-01 0.54456071D+05 0.54456071D+05 0.54456071D+05 0.11886272D+01  1  2 12  3  6  5       21 0.236988976115D+00 0.100000000000D+01
-.243952158829D-03 0.000000000000D+00 0.000000000000D+00 0.417361839049D-05 0.000000000000D+00  6 2 -1 25 24 21 21 4 0.58373268D-01 0.33116363D-01 0.57845801D+05 0.57845801D+05 0.57845801D+05 0.11860630D+01  1  2  4  3  6  5       21 -.401709628619D-01 0.100000000000D+01
0.105811638501D-04 0.000000000000D+00 0.000000000000D+00 0.419168423106D-05 0.000000000000D+00  6 2 -1 25 24 1 -1 4 0.58373268D-01 0.33116363D-01 0.54456071D+05 0.54456071D+05 0.54456071D+05 0.11886272D+01  1  2 12  6  6  5       21 0.175750169358D-02 0.100000000000D+01
0.105811638501D-04 0.000000000000D+00 0.000000000000D+00 0.419168423106D-05 0.000000000000D+00  6 2 -1 25 24 2 -2 4 0.58373268D-01 0.33116363D-01 0.54456071D+05 0.54456071D+05 0.54456071D+05 0.11886272D+01  1  2 12  7  6  5       21 0.175750169358D-02 0.100000000000D+01
0.105811638501D-04 0.000000000000D+00 0.000000000000D+00 0.419168423106D-05 0.000000000000D+00  6 2 -1 25 24 3 -3 4 0.58373268D-01 0.33116363D-01 0.54456071D+05 0.54456071D+05 0.54456071D+05 0.11886272D+01  1  2 12  8  6  5       21 0.175750169358D-02 0.100000000000D+01
0.105811638501D-04 0.000000000000D+00 0.000000000000D+00 0.419168423106D-05 0.000000000000D+00  6 2 -1 25 24 4 -4 4 0.58373268D-01 0.33116363D-01 0.54456071D+05 0.54456071D+05 0.54456071D+05 0.11886272D+01  1  2 12  8  6  5       21 0.175750169358D-02 0.100000000000D+01
  </mgrwgt>
  </event>
  <event>
  6     66 0.46179844E-03 0.29063867E+02 0.75467711E-02 0.11677956E+00
        2 -1    0    0  503    0 0.00000000E+00 0.00000000E+00 0.44698302E+03 0.44698313E+03 0.32000000E+00 0.0000E+00 0.9000E+01
       -1 -1    0    0    0  501 0.00000000E+00 0.00000000E+00 -.86041763E+02 0.86042358E+02 0.32000000E+00 0.0000E+00 0.9000E+01
       25  1    1    2    0    0 -.73342832E+02 -.70956585E+02 0.20043497E+03 0.25731923E+03 0.12500000E+03 0.0000E+00 0.9000E+01
       24  1    1    2    0    0 0.50212206E+02 0.10905146E+03 0.80750387E+02 0.16553347E+03 0.80419002E+02 0.0000E+00 0.9000E+01
       21  1    1    2  502  501 -.65968009E+01 -.15359275E+02 -.50457147E+01 0.17477038E+02 0.75000000E+00 0.0000E+00 0.9000E+01
       21  1    1    2  503  502 0.29727427E+02 -.22735605E+02 0.84801608E+02 0.92695754E+02 0.75000000E+00 0.0000E+00 0.9000E+01
#aMCatNLO 2  0  0  1  2 0.35408988D+02 0.00000000D+00  -5  6  0 0.00000000D+00 0.00000000D+00 0.00000000D+00 0.00000000D+00 0.00000000D+00
  <mgrwgt>
 0.1029047048D+00    1    2    0
 0.170467404540153D+03 0.000000000000000D+00 0.000000000000000D+00 0.170467404540153D+03
 0.170467404540153D+03 0.000000000000000D+00 0.000000000000000D+00 -.170467404540153D+03
 0.168331221141461D+03 -.586802884391128D+02 -.821666735590744D+02 0.501563706413709D+02
 0.145496362881499D+03 0.629484528479966D+02 0.993140881348466D+02 -.296003351224550D+02
 0.271072250573458D+02 -.426816440888383D+01 -.171474145757722D+02 -.205560355189159D+02
 0.000000000000000D+00 0.000000000000000D+00 -.000000000000000D+00 0.000000000000000D+00
 0.213973269071327D+03 0.000000000000000D+00 0.000000000000000D+00 0.213973269071327D+03
 0.179733876783563D+03 0.000000000000000D+00 0.000000000000000D+00 -.179733876783563D+03
 0.168979551951054D+03 -.733419695913611D+02 -.709533858115612D+02 0.501563706413709D+02
 0.147504486781833D+03 0.502127640476766D+02 0.109054372464988D+03 -.296003351224550D+02
 0.264987183734989D+02 -.659822117891453D+01 -.153653817543594D+02 -.205560355189159D+02
 0.507243887485038D+02 0.297274267225990D+02 -.227356048990670D+02 0.342393922877636D+02
0.154049916786D-03 0.000000000000D+00 0.000000000000D+00 0.553433945521D-04 0.184899270483D-06  6 2 -1 25 24 21 21 4 0.68765644D-01 0.13237051D-01 0.32402767D+05 0.32402767D+05 0.32402767D+05 0.12114022D+01  1  2  1  1  6  1        2 0.102904704837D+00 0.100000000000D+01
  </mgrwgt>
  </event>
  <event>
  6     66 -.46179844E-03 0.13644424E+02 0.75467711E-02 0.12512153E+00
        2 -1    0    0  502    0 0.00000000E+00 0.00000000E+00 0.22284535E+04 0.22284535E+04 0.32000000E+00 0.0000E+00 0.9000E+01
       -1 -1    0    0    0  501 0.00000000E+00 0.00000000E+00 -.81715591E+01 0.81778223E+01 0.32000000E+00 0.0000E+00 0.9000E+01
       25  1    1    2    0    0 0.36215577E+01 0.33323502E+01 0.15177541E+04 0.15229008E+04 0.12500000E+03 0.0000E+00 0.9000E+01
       24  1    1    2    0    0 0.17937787E+02 0.18505583E+01 0.64803999E+03 0.65325970E+03 0.80419002E+02 0.0000E+00 0.9000E+01
       21  1    1    2  502  503 -.14974011E+02 -.98865304E+01 0.40291451E+02 0.44112674E+02 0.75000000E+00 0.0000E+00 0.9000E+01
       21  1    1    2  503  501 -.65853335E+01 0.47036219E+01 0.14196366E+02 0.16358178E+02 0.75000000E+00 0.0000E+00 0.9000E+01
#aMCatNLO 2  0  0  5  1 0.66960405D+01 0.00000000D+00  -5  6  0 0.00000000D+00 0.00000000D+00 0.00000000D+00 0.00000000D+00 0.00000000D+00
  <mgrwgt>
 -.1612840311D+01    2    2    0
 0.134970253673493D+03 0.000000000000000D+00 0.000000000000000D+00 0.134970253673493D+03
 0.134970253673493D+03 -.000000000000000D+00 -.000000000000000D+00 -.134970253673493D+03
 0.134898728336038D+03 0.402153391447747D+01 0.342850522812569D+01 0.504454113230894D+02
 0.825316153556901D+02 0.181827446284775D+02 0.190944653556092D+01 -.316123244201653D+01
 0.525101636552570D+02 -.222042785429550D+02 -.533795176368660D+01 -.472841788810729D+02
 0.000000000000000D+00 0.000000000000000D+00 0.000000000000000D+00 -.000000000000000D+00
 0.134970253673493D+03 0.000000000000000D+00 0.000000000000000D+00 0.134970253673493D+03
 0.134970253673493D+03 -.000000000000000D+00 -.000000000000000D+00 -.134970253673493D+03
 0.134571029257913D+03 0.362433244844003D+01 0.333301722287158D+01 0.495995678008329D+02
 0.824985099642196D+02 0.179394883599348D+02 0.185096725530944D+01 -.367924850335641D+01
 0.336149546551621D+02 -.147701027106731D+02 -.989427236235915D+01 -.285291538045598D+02
 0.192560134696902D+02 -.679371809770174D+01 0.471028788417814D+01 -.173911654929167D+02
-.421685634698D-03 0.000000000000D+00 0.000000000000D+00 0.542903162643D-04 0.000000000000D+00  6 2 -1 25 24 21 21 4 0.34283948D+00 0.12576465D-02 0.13637349D+05 0.13637349D+05 0.13637349D+05 0.12525655D+01  1  2 13  3  6  5       21 -.882838067455D+00 0.100000000000D+01
-.348683944031D-03 0.000000000000D+00 0.000000000000D+00 0.542903162643D-04 0.000000000000D+00  6 2 -1 25 24 21 21 4 0.34283948D+00 0.12576465D-02 0.13637349D+05 0.13637349D+05 0.13637349D+05 0.12525655D+01  1  2 13  3  6  5       21 -.730002243310D+00 0.100000000000D+01
  </mgrwgt>
  </event>
  <event>
  5     66 0.46179844E-03 0.20580250E+02 0.75467711E-02 0.12476579E+00
        2 -1    0    0  502    0 0.00000000E+00 0.00000000E+00 0.64127960E+02 0.64128759E+02 0.32000000E+00 0.0000E+00 0.9000E+01
       -1 -1    0    0    0  501 -.00000000E+00 -.00000000E+00 -.28847524E+03 0.28847542E+03 0.32000000E+00 0.0000E+00 0.9000E+01
       25  1    1    2    0    0 -.16261277E+02 -.18792325E+02 -.17824976E+03 0.21912452E+03 0.12500000E+03 0.0000E+00 0.9000E+01
       24  1    1    2    0    0 0.31535990E+02 0.50114820E+01 -.40008847E+01 0.86619032E+02 0.80419002E+02 0.0000E+00 0.9000E+01
       21  1    1    2  502  501 -.15274713E+02 0.13780843E+02 -.42096635E+02 0.46860620E+02 0.75000000E+00 0.0000E+00 0.9000E+01
#aMCatNLO 1  0  0  5  2 0.66818901D+01 0.00000000D+00  -5  6  0 0.00000000D+00 0.00000000D+00 0.00000000D+00 0.00000000D+00 0.00000000D+00
  <mgrwgt>
 0.7637029697D+00   20    2    0
 0.136012870137598D+03 0.000000000000000D+00 0.000000000000000D+00 0.136012870137598D+03
 0.136012870137598D+03 -.000000000000000D+00 -.000000000000000D+00 -.136012870137598D+03
 0.137023964671690D+03 -.162580793249046D+02 -.187952101683472D+02 -.503287375734918D+02
 0.108979593106137D+03 0.315385327795359D+02 0.500918770699430D+01 0.662537904412933D+02
 0.260221824973685D+02 -.152804534546313D+02 0.137860224613529D+02 -.159250528678015D+02
 0.000000000000000D+00 0.000000000000000D+00 0.000000000000000D+00 0.000000000000000D+00
 0.136012870137598D+03 0.000000000000000D+00 0.000000000000000D+00 0.136012870137598D+03
 0.136012870137598D+03 -.000000000000000D+00 -.000000000000000D+00 -.136012870137598D+03
 0.137655222273628D+03 -.178612694012231D+02 -.173488123590436D+02 -.519995575395556D+02
 0.107879599284867D+03 0.302728143642965D+02 0.615111864209693D+01 0.649346782344282D+02
 0.190309429353521D+02 -.145196923873901D+02 0.417253398794367D+01 -.115734732083177D+02
 0.745997578134805D+01 0.210814742431675D+01 0.702515972900296D+01 -.136164748655487D+01
0.654349587208D-03 0.000000000000D+00 0.000000000000D+00 0.437400964143D-04 0.000000000000D+00  6 2 -1 25 24 21 21 2 0.98659151D-02 0.44380881D-01 0.13753898D+05 0.13753898D+05 0.13753898D+05 0.12521394D+01  1  2  2  3  6  5       21 0.371845174604D+00 0.100000000000D+01
0.101272920333D-03 0.345309764020D-04 -.251287470908D-05 0.437400964143D-04 0.000000000000D+00  6 2 -1 25 24 21 21 4 0.98659151D-02 0.44380881D-01 0.13753898D+05 0.13753898D+05 0.13753898D+05 0.12521394D+01  1  2  3  3  6  5       21 0.902300166424D-01 0.100000000000D+01
0.129384736345D-04 0.000000000000D+00 0.000000000000D+00 0.437400964143D-04 0.000000000000D+00  6 2 -1 25 24 21 21 4 0.98659151D-02 0.44380881D-01 0.13753898D+05 0.13753898D+05 0.13753898D+05 0.12521394D+01  1  2 15  3  6  5       21 0.115276491241D-01 0.100000000000D+01
0.267493318048D-03 0.000000000000D+00 0.000000000000D+00 0.436958061129D-04 0.000000000000D+00  6 2 -1 25 24 21 21 4 0.98659151D-02 0.44380881D-01 0.13929427D+05 0.13929427D+05 0.13929427D+05 0.12515053D+01  1  2 12  3  6  5       21 0.237929803681D+00 0.100000000000D+01
0.227204543757D-03 0.000000000000D+00 0.000000000000D+00 0.436958061129D-04 0.000000000000D+00  6 2 -1 25 24 21 21 4 0.98659151D-02 0.44380881D-01 0.13929427D+05 0.13929427D+05 0.13929427D+05 0.12515053D+01  1  2 12  3  6  5       21 0.202093767748D+00 0.100000000000D+01
-.608157214483D-03 0.000000000000D+00 0.000000000000D+00 0.437400964143D-04 0.000000000000D+00  6 2 -1 25 24 21 21 4 0.98659151D-02 0.44380881D-01 0.13753898D+05 0.13753898D+05 0.13753898D+05 0.12521394D+01  1  2  4  3  6  5       21 -.541843124535D+00 0.100000000000D+01
-.600170096478D-03 0.000000000000D+00 0.000000000000D+00 0.437400964143D-04 0.000000000000D+00  6 2 -1 25 24 21 21 4 0.98659151D-02 0.44380881D-01 0.13753898D+05 0.13753898D+05 0.13753898D+05 0.12521394D+01  1  2  5  3  6  5       21 -.534726930116D+00 0.100000000000D+01
0.106282123626D-02 0.000000000000D+00 -.000000000000D+00 0.437400964143D-04 0.000000000000D+00  6 2 -1 25 24 21 21 4 0.98659151D-02 0.44380881D-01 0.13753898D+05 0.13753898D+05 0.13753898D+05 0.12521394D+01  1  2  6  3  6  5       21 0.946930112419D+00 0.100000000000D+01
0.729273889013D-05 0.000000000000D+00 0.000000000000D+00 0.436958061129D-04 0.000000000000D+00  6 2 -1 25 24 1 -1 4 0.98659151D-02 0.44380881D-01 0.13929427D+05 0.13929427D+05 0.13929427D+05 0.12515053D+01  1  2 12  6  6  5       21 0.648674122064D-02 0.100000000000D+01
0.651191782736D-05 0.000000000000D+00 0.000000000000D+00 0.436958061129D-04 0.000000000000D+00  6 2 -1 25 24 1 -1 4 0.98659151D-02 0.44380881D-01 0.13929427D+05 0.13929427D+05 0.13929427D+05 0.12515053D+01  1  2 12  6  6  5       21 0.579221694792D-02 0.100000000000D+01
-.194732122913D-04 0.000000000000D+00 0.000000000000D+00 0.437400964143D-04 0.000000000000D+00  6 2 -1 25 24 1 -1 4 0.98659151D-02 0.44380881D-01 0.13753898D+05 0.13753898D+05 0.13753898D+05 0.12521394D+01  1  2  5  6  6  5       21 -.173498331375D-01 0.100000000000D+01
0.729273889013D-05 0.000000000000D+00 0.000000000000D+00 0.436958061129D-04 0.000000000000D+00  6 2 -1 25 24 2 -2 4 0.98659151D-02 0.44380881D-01 0.13929427D+05 0.13929427D+05 0.13929427D+05 0.12515053D+01  1  2 12  7  6  5       21 0.648674122064D-02 0.100000000000D+01
0.651191782736D-05 0.000000000000D+00 0.000000000000D+00 0.436958061129D-04 0.000000000000D+00  6 2 -1 25 24 2 -2 4 0.98659151D-02 0.44380881D-01 0.13929427D+05 0.13929427D+05 0.13929427D+05 0.12515053D+01  1  2 12  7  6  5       21 0.579221694792D-02 0.100000000000D+01
-.194732122913D-04 0.000000000000D+00 0.000000000000D+00 0.437400964143D-04 0.000000000000D+00  6 2 -1 25 24 2 -2 4 0.98659151D-02 0.44380881D-01 0.13753898D+05 0.13753898D+05 0.13753898D+05 0.12521394D+01  1  2  5  7  6  5       21 -.173498331375D-01 0.100000000000D+01
0.729273889013D-05 0.000000000000D+00 0.000000000000D+00 0.436958061129D-04 0.000000000000D+00  6 2 -1 25 24 3 -3 4 0.98659151D-02 0.44380881D-01 0.13929427D+05 0.13929427D+05 0.13929427D+05 0.12515053D+01  1  2 12  8  6  5       21 0.648674122064D-02 0.100000000000D+01
0.729273889013D-05 0.000000000000D+00 0.000000000000D+00 0.436958061129D-04 0.000000000000D+00  6 2 -1 25 24 4 -4 4 0.98659151D-02 0.44380881D-01 0.13929427D+05 0.13929427D+05 0.13929427D+05 0.12515053D+01  1  2 12  8  6  5       21 0.648674122064D-02 0.100000000000D+01
0.651191782736D-05 0.000000000000D+00 0.000000000000D+00 0.436958061129D-04 0.000000000000D+00  6 2 -1 25 24 3 -3 4 0.98659151D-02 0.44380881D-01 0.13929427D+05 0.13929427D+05 0.13929427D+05 0.12515053D+01  1  2 12  8  6  5       21 0.579221694792D-02 0.100000000000D+01
0.651191782736D-05 0.000000000000D+00 0.000000000000D+00 0.436958061129D-04 0.000000000000D+00  6 2 -1 25 24 4 -4 4 0.98659151D-02 0.44380881D-01 0.13929427D+05 0.13929427D+05 0.13929427D+05 0.12515053D+01  1  2 12  8  6  5       21 0.579221694792D-02 0.100000000000D+01
-.194732122913D-04 0.000000000000D+00 0.000000000000D+00 0.437400964143D-04 0.000000000000D+00  6 2 -1 25 24 3 -3 4 0.98659151D-02 0.44380881D-01 0.13753898D+05 0.13753898D+05 0.13753898D+05 0.12521394D+01  1  2  5  8  6  5       21 -.173498331375D-01 0.100000000000D+01
-.194732122913D-04 0.000000000000D+00 0.000000000000D+00 0.437400964143D-04 0.000000000000D+00  6 2 -1 25 24 4 -4 4 0.98659151D-02 0.44380881D-01 0.13753898D+05 0.13753898D+05 0.13753898D+05 0.12521394D+01  1  2  5  8  6  5       21 -.173498331375D-01 0.100000000000D+01
  </mgrwgt>
  </event>
  <event>
  5     66 -.46179844E-03 0.21681577E+02 0.75467711E-02 0.11687719E+00
        2 -1    0    0  502    0 0.00000000E+00 0.00000000E+00 0.50136897E+03 0.50136907E+03 0.32000000E+00 0.0000E+00 0.9000E+01
       -1 -1    0    0    0  501 0.00000000E+00 0.00000000E+00 -.70304025E+02 0.70304753E+02 0.32000000E+00 0.0000E+00 0.9000E+01
       25  1    1    2    0    0 -.10781103E+03 -.46133165E+02 0.20245132E+03 0.26526030E+03 0.12500000E+03 0.0000E+00 0.9000E+01
       24  1    1    2    0    0 0.12377616E+03 0.60798039E+02 0.13125815E+03 0.20667089E+03 0.80419002E+02 0.0000E+00 0.9000E+01
       21  1    1    2  502  501 -.15965127E+02 -.14664874E+02 0.97355478E+02 0.99742646E+02 0.75000000E+00 0.0000E+00 0.9000E+01
#aMCatNLO 1  0  0  1  2 0.53614038D+01 0.00000000D+00  -5  6  0 0.00000000D+00 0.00000000D+00 0.00000000D+00 0.00000000D+00 0.00000000D+00
  <mgrwgt>
 -.8650221487D+00    9    4    0
 0.187745823395919D+03 0.000000000000000D+00 0.000000000000000D+00 0.187745823395919D+03
 0.187745823395919D+03 0.000000000000000D+00 0.000000000000000D+00 -.187745823395919D+03
 0.171434595448331D+03 -.107809751749793D+03 -.461319933434089D+02 0.370366498818090D+01
 0.163967091633099D+03 0.123777375330859D+03 0.607991597792430D+02 -.374247873820021D+02
 0.400899597104082D+02 -.159676235810664D+02 -.146671664358341D+02 0.337211223938212D+02
 0.000000000000000D+00 0.000000000000000D+00 -.000000000000000D+00 0.000000000000000D+00
 0.204128604976055D+03 0.000000000000000D+00 0.000000000000000D+00 0.204128604976055D+03
 0.188204114595956D+03 0.000000000000000D+00 0.000000000000000D+00 -.188204114595956D+03
 0.171202702031027D+03 -.108426361847513D+03 -.437649643538320D+02 0.370366498818090D+01
 0.164378358776615D+03 0.123186484841842D+03 0.630674569127805D+02 -.374247873820021D+02
 0.399488600523824D+02 -.161116614451238D+02 -.141142371194294D+02 0.337211223938212D+02
 0.168027987119863D+02 0.135153845079495D+01 -.518825543951913D+01 0.159244903800985D+02
 0.187745823395919D+03 0.000000000000000D+00 0.000000000000000D+00 0.187745823395919D+03
 0.187745823395919D+03 0.000000000000000D+00 0.000000000000000D+00 -.187745823395919D+03
 0.171434595448331D+03 -.107809751749793D+03 -.461319933434089D+02 0.370366498818090D+01
 0.163967091633099D+03 0.123777375330859D+03 0.607991597792430D+02 -.374247873820021D+02
 0.000000000000000D+00 0.000000000000000D+00 -.000000000000000D+00 0.000000000000000D+00
 0.400899597104082D+02 -.159676235810664D+02 -.146671664358341D+02 0.337211223938212D+02
 0.204128604976055D+03 0.000000000000000D+00 0.000000000000000D+00 0.204128604976055D+03
 0.188204114595956D+03 0.000000000000000D+00 0.000000000000000D+00 -.188204114595956D+03
 0.171202702031027D+03 -.108426361847513D+03 -.437649643538320D+02 0.370366498818090D+01
 0.164378358776615D+03 0.123186484841842D+03 0.630674569127805D+02 -.374247873820021D+02
 0.168027987119863D+02 0.135153845079495D+01 -.518825543951913D+01 0.159244903800985D+02
 0.399488600523824D+02 -.161116614451238D+02 -.141142371194294D+02 0.337211223938212D+02
0.922613816921D-04 0.000000000000D+00 0.000000000000D+00 0.385946277514D-04 0.000000000000D+00  6 2 -1 25 24 21 21 2 0.77133752D-01 0.10816068D-01 0.31101986D+05 0.31101986D+05 0.31101986D+05 0.12132575D+01  1  2  2  1  6  1        2 0.507711789260D-01 0.100000000000D+01
0.208729331247D-04 0.486876687371D-05 -.354307998678D-06 0.385946277514D-04 0.000000000000D+00  6 2 -1 25 24 21 21 4 0.77133752D-01 0.10816068D-01 0.31101986D+05 0.31101986D+05 0.31101986D+05 0.12132575D+01  1  2  3  1  6  1        2 0.169077870676D-01 0.100000000000D+01
0.423181497866D-06 0.000000000000D+00 0.000000000000D+00 0.385946277514D-04 0.000000000000D+00  6 2 -1 25 24 21 21 4 0.77133752D-01 0.10816068D-01 0.31101986D+05 0.31101986D+05 0.31101986D+05 0.12132575D+01  1  2 15  1  6  1        2 0.342791433006D-03 0.100000000000D+01
-.246345716004D-02 0.000000000000D+00 0.000000000000D+00 0.385946277514D-04 0.000000000000D+00  6 2 -1 25 24 21 21 4 0.77133752D-01 0.10816068D-01 0.31101986D+05 0.31101986D+05 0.31101986D+05 0.12132575D+01  1  2  4  1  6  1        2 -.199548424092D+01 0.100000000000D+01
-.711678407862D-02 0.000000000000D+00 -.328954826260D-03 0.385946277514D-04 0.000000000000D+00  6 2 -1 25 24 21 21 4 0.83963349D-01 0.10816068D-01 0.31101986D+05 0.31101986D+05 0.31101986D+05 0.12132575D+01  1  2  5  1  6  1        2 -.524340024609D+01 0.100000000000D+01
0.712023261771D-02 0.000000000000D+00 0.327774502663D-03 0.385946277514D-04 0.000000000000D+00  6 2 -1 25 24 21 21 4 0.77133752D-01 0.10816068D-01 0.31101986D+05 0.31101986D+05 0.31101986D+05 0.12132575D+01  1  2  6  1  6  1        2 0.576763103932D+01 0.100000000000D+01
0.892907324443D-03 0.000000000000D+00 0.000000000000D+00 0.385946277514D-04 0.735950314640D-05  6 2 -1 25 24 21 21 4 0.83864476D-01 0.10842470D-01 0.32041882D+05 0.32041882D+05 0.32041882D+05 0.12119085D+01  1  2 11  1  6  1        2 0.653674605419D+00 0.100000000000D+01
-.100050602135D-03 0.000000000000D+00 -.462836853053D-05 0.385946277514D-04 0.000000000000D+00  6 21 -1 25 24 -2 21 4 0.83963349D-01 0.10816068D-01 0.31101986D+05 0.31101986D+05 0.31101986D+05 0.12132575D+01  3  4  5  4  5  1        2 -.129357557024D+00 0.100000000000D+01
0.108105867489D-04 0.000000000000D+00 0.000000000000D+00 0.385946277514D-04 0.177997140398D-06  6 21 -1 25 24 -2 21 4 0.83864476D-01 0.10842470D-01 0.32041882D+05 0.32041882D+05 0.32041882D+05 0.12119085D+01  3  4 11  4  5  1        2 0.138924931968D-01 0.100000000000D+01
  </mgrwgt>
  </event>
  <event>
  6     66 0.46179844E-03 0.41822710E+02 0.75467711E-02 0.12115754E+00
        2 -1    0    0  503    0 0.00000000E+00 0.00000000E+00 0.11379255E+04 0.11379256E+04 0.32000000E+00 0.0000E+00 0.9000E+01
       -1 -1    0    0    0  501 0.00000000E+00 0.00000000E+00 -.20058167E+02 0.20060719E+02 0.32000000E+00 0.0000E+00 0.9000E+01
       25  1    1    2    0    0 0.22706973E+02 0.42050075E+02 0.41766698E+03 0.43858240E+03 0.12500000E+03 0.0000E+00 0.9000E+01
       24  1    1    2    0    0 -.59927255E+00 -.10716673E+02 0.50122218E+03 0.50774610E+03 0.80419002E+02 0.0000E+00 0.9000E+01
       21  1    1    2  502  501 -.16549149E+02 -.47640924E+02 0.10984842E+03 0.12087501E+03 0.75000000E+00 0.0000E+00 0.9000E+01
       21  1    1    2  503  502 -.55585517E+01 0.16307521E+02 0.89129769E+02 0.90782768E+02 0.75000000E+00 0.0000E+00 0.9000E+01
#aMCatNLO 2  0  0  1  1 0.17228835D+02 0.00000000D+00  -5  6  0 0.00000000D+00 0.00000000D+00 0.00000000D+00 0.00000000D+00 0.00000000D+00
  <mgrwgt>
 0.9987538410D-01    1    2    0
 0.141708763401606D+03 0.000000000000000D+00 0.000000000000000D+00 0.141708763401606D+03
 0.141708763401606D+03 0.000000000000000D+00 0.000000000000000D+00 -.141708763401606D+03
 0.137418020679311D+03 0.200369598390340D+02 0.498877817489491D+02 -.191948399315451D+02
 0.919878560018516D+02 -.240542633571452D+01 -.541481961481551D+01 0.442656000764623D+02
 0.540116501220498D+02 -.176315335033195D+02 -.444729621341335D+02 -.250707601449172D+02
 0.000000000000000D+00 -.000000000000000D+00 0.000000000000000D+00 0.000000000000000D+00
 0.154148983591177D+03 0.000000000000000D+00 0.000000000000000D+00 0.154148983591177D+03
 0.148063667885319D+03 0.000000000000000D+00 0.000000000000000D+00 -.148063667885319D+03
 0.135194182639336D+03 0.227078103481070D+02 0.420521163404988D+02 -.191948399315451D+02
 0.924220499448200D+02 -.598715978731459D+00 -.107152951746455D+02 0.442656000764623D+02
 0.563244782133387D+02 -.165505426270994D+02 -.476443424816574D+02 -.250707601449172D+02
 0.182719406790010D+02 -.555855174227617D+01 0.163075213158041D+02 0.608531570585835D+01
0.495963428507D-04 0.000000000000D+00 0.000000000000D+00 0.105751514222D-04 0.837882346070D-07  6 2 -1 25 24 21 21 4 0.17505669D+00 0.30859135D-02 0.19968871D+05 0.19968871D+05 0.19968871D+05 0.12339005D+01  1  2  1  1  6  1        2 0.998753841002D-01 0.100000000000D+01
  </mgrwgt>
  </event>
  <event>
  5     66 -.46179844E-03 0.73980397E+02 0.75467711E-02 0.10833520E+00
        4 -1    0    0  502    0 0.00000000E+00 0.00000000E+00 0.40248209E+02 0.40278044E+02 0.15500000E+01 0.0000E+00 0.9000E+01
       -3 -1    0    0    0  501 0.00000000E+00 0.00000000E+00 -.24425075E+04 0.24425076E+04 0.50000000E+00 0.0000E+00 0.9000E+01
       25  1    1    2    0    0 -.89175056E+02 -.22457173E+03 -.15047623E+04 0.15291563E+04 0.12500000E+03 0.0000E+00 0.9000E+01
       24  1    1    2    0    0 0.15673197E+02 0.23294929E+03 -.72629238E+03 0.76712375E+03 0.80419002E+02 0.0000E+00 0.9000E+01
       21  1    1    2  502  501 0.73501860E+02 -.83775556E+01 -.17120467E+03 0.18650552E+03 0.75000000E+00 0.0000E+00 0.9000E+01
#aMCatNLO 1  0  0  1  2 0.14351591D+02 0.00000000D+00  -5  6  0 0.00000000D+00 0.00000000D+00 0.00000000D+00 0.00000000D+00 0.00000000D+00
  <mgrwgt>
 -.1034189334D+00    7    4    0
 0.313597915724461D+03 0.000000000000000D+00 0.000000000000000D+00 0.313597915724461D+03
 0.313597915724461D+03 0.000000000000000D+00 0.000000000000000D+00 -.313597915724461D+03
 0.289763656081714D+03 -.891764577735619D+02 -.224571571261241D+03 -.997654506633424D+02
 0.254882322617204D+03 0.156719638034822D+02 0.232949427082056D+03 0.631406081777344D+02
 0.825498527500047D+02 0.735044939700797D+02 -.837785582081524D+01 0.366248424856080D+02
 0.000000000000000D+00 -.000000000000000D+00 0.000000000000000D+00 0.000000000000000D+00
 0.321214129463322D+03 0.000000000000000D+00 0.000000000000000D+00 0.321214129463322D+03
 0.320514511681996D+03 0.000000000000000D+00 0.000000000000000D+00 -.320514511681996D+03
 0.289629935610761D+03 -.829280556392487D+02 -.226782477373644D+03 -.997654506633424D+02
 0.253509055724778D+03 0.211546509078030D+02 0.231009458083458D+03 0.631406081777344D+02
 0.842210162768909D+02 0.753030148182737D+02 -.901423623473286D+01 0.366248424856080D+02
 0.143686335328874D+02 -.135296100868280D+02 0.478725552491948D+01 0.699617781326103D+00
 0.313597915724461D+03 0.000000000000000D+00 0.000000000000000D+00 0.313597915724461D+03
 0.313597915724461D+03 0.000000000000000D+00 0.000000000000000D+00 -.313597915724461D+03
 0.289763656081714D+03 -.891764577735619D+02 -.224571571261241D+03 -.997654506633424D+02
 0.254882322617204D+03 0.156719638034822D+02 0.232949427082056D+03 0.631406081777344D+02
 0.000000000000000D+00 -.000000000000000D+00 0.000000000000000D+00 0.000000000000000D+00
 0.825498527500047D+02 0.735044939700797D+02 -.837785582081524D+01 0.366248424856080D+02
 0.321214129463322D+03 0.000000000000000D+00 0.000000000000000D+00 0.321214129463322D+03
 0.320514511681996D+03 0.000000000000000D+00 0.000000000000000D+00 -.320514511681996D+03
 0.289629935610761D+03 -.829280556392487D+02 -.226782477373644D+03 -.997654506633424D+02
 0.253509055724778D+03 0.211546509078030D+02 0.231009458083458D+03 0.631406081777344D+02
 0.143686335328874D+02 -.135296100868280D+02 0.478725552491948D+01 0.699617781326103D+00
 0.842210162768909D+02 0.753030148182737D+02 -.901423623473286D+01 0.366248424856080D+02
0.221100059254D-01 0.000000000000D+00 0.000000000000D+00 0.254780109541D-05 0.000000000000D+00  6 4 -3 25 24 21 21 2 0.61943311D-02 0.37577269D+00 0.87902064D+05 0.87902064D+05 0.87902064D+05 0.11687514D+01  1  2  2  1  6  1        4 0.188499220081D-01 0.100000000000D+01
0.180002877168D-02 0.116677706807D-02 -.849082444516D-04 0.254780109541D-05 0.000000000000D+00  6 4 -3 25 24 21 21 4 0.61943311D-02 0.37577269D+00 0.87902064D+05 0.87902064D+05 0.87902064D+05 0.11687514D+01  1  2  3  1  6  1        4 0.209625638118D-02 0.100000000000D+01
-.246580397613D-03 0.000000000000D+00 0.000000000000D+00 0.254780109541D-05 0.000000000000D+00  6 4 -3 25 24 21 21 4 0.61943311D-02 0.37577269D+00 0.87902064D+05 0.87902064D+05 0.87902064D+05 0.11687514D+01  1  2 15  1  6  1        4 -.287159705502D-03 0.100000000000D+01
-.109125283348D-01 0.000000000000D+00 0.000000000000D+00 0.254780109541D-05 0.000000000000D+00  6 4 -3 25 24 21 21 4 0.61943311D-02 0.37577269D+00 0.87902064D+05 0.87902064D+05 0.87902064D+05 0.11687514D+01  1  2  4  1  6  1        4 -.127083841751D-01 0.100000000000D+01
-.825011155083D+00 0.000000000000D+00 -.134504411772D+00 0.254780109541D-05 0.000000000000D+00  6 4 -3 25 24 21 21 4 0.65287621D-02 0.37577269D+00 0.87902064D+05 0.87902064D+05 0.87902064D+05 0.11687514D+01  1  2  5  1  6  1        4 -.880639539411D+00 0.100000000000D+01
0.831120242538D+00 0.000000000000D+00 0.134318676575D+00 0.254780109541D-05 0.000000000000D+00  6 4 -3 25 24 21 21 4 0.61943311D-02 0.37577269D+00 0.87902064D+05 0.87902064D+05 0.87902064D+05 0.11687514D+01  1  2  6  1  6  1        4 0.967896257748D+00 0.100000000000D+01
-.739899765266D-02 0.000000000000D+00 -.122755516928D-02 0.254780109541D-05 0.000000000000D+00  6 21 -3 25 24 -4 21 4 0.65287621D-02 0.37577269D+00 0.87902064D+05 0.87902064D+05 0.87902064D+05 0.11687514D+01  3  4  5  4  5  1        4 -.198626286217D+00 0.100000000000D+01
  </mgrwgt>
  </event>
  <event>
  5     66 0.46179844E-03 0.96256809E+02 0.75467711E-02 0.11722139E+00
        2 -1    0    0  502    0 0.00000000E+00 0.00000000E+00 0.35338148E+04 0.35338148E+04 0.32000000E+00 0.0000E+00 0.9000E+01
       -1 -1    0    0    0  501 0.00000000E+00 0.00000000E+00 -.13708348E+02 0.13712083E+02 0.32000000E+00 0.0000E+00 0.9000E+01
       25  1    1    2    0    0 -.55914408E+02 -.63234081E+02 0.59720846E+03 0.61596097E+03 0.12500000E+03 0.0000E+00 0.9000E+01
       24  1    1    2    0    0 -.24978767E+02 -.21663842E+02 0.67009186E+03 0.67570969E+03 0.80419002E+02 0.0000E+00 0.9000E+01
       21  1    1    2  502  501 0.80893176E+02 0.84897923E+02 0.22528061E+04 0.22558562E+04 0.75000000E+00 0.0000E+00 0.9000E+01
#aMCatNLO 1  0  0  5  2 0.19621294D+02 0.00000000D+00  -5  6  0 0.00000000D+00 0.00000000D+00 0.00000000D+00 0.00000000D+00 0.00000000D+00
  <mgrwgt>
 0.5484955676D-01   20    2    0
 0.220112273460345D+03 0.000000000000000D+00 0.000000000000000D+00 0.220112273460345D+03
 0.220112273460345D+03 -.000000000000000D+00 -.000000000000000D+00 -.220112273460345D+03
 0.188315231627791D+03 -.559147663679508D+02 -.632344563720168D+02 -.112750028347586D+03
 0.870093328090055D+02 -.249789327816785D+02 -.216640157539301D+02 -.318298287768049D+01
 0.164899982483894D+03 0.808936991496293D+02 0.848984721259469D+02 0.115933011225267D+03
 0.000000000000000D+00 0.000000000000000D+00 0.000000000000000D+00 0.000000000000000D+00
 0.220112273460345D+03 0.000000000000000D+00 0.000000000000000D+00 0.220112273460345D+03
 0.220112273460345D+03 -.000000000000000D+00 -.000000000000000D+00 -.220112273460345D+03
 0.186395322670891D+03 -.546356334740897D+02 -.618919979422943D+02 -.110916835778801D+03
 0.866608299567456D+02 -.243860826061832D+02 -.210418155748278D+02 -.233333813682793D+01
 0.122121527892119D+03 0.484791071083918D+02 0.532158141136269D+02 0.986484712344935D+02
 0.450468664009347D+02 0.305426089718811D+02 0.297179994034952D+02 0.146017026811356D+02
0.188614447651D-03 0.000000000000D+00 0.000000000000D+00 0.284625982308D-05 0.000000000000D+00  6 2 -1 25 24 21 21 2 0.54366410D+00 0.21092650D-02 0.31514998D+05 0.31514998D+05 0.31514998D+05 0.12126592D+01  1  2  2  3  6  5       21 0.198133517068D-01 0.100000000000D+01
-.152939522586D-04 0.995345785837D-05 -.724329142305D-06 0.284625982308D-05 0.000000000000D+00  6 2 -1 25 24 21 21 4 0.54366410D+00 0.21092650D-02 0.31514998D+05 0.31514998D+05 0.31514998D+05 0.12126592D+01  1  2  3  3  6  5       21 -.236254590494D-02 0.100000000000D+01
0.121006071974D-04 0.000000000000D+00 0.000000000000D+00 0.284625982308D-05 0.000000000000D+00  6 2 -1 25 24 21 21 4 0.54366410D+00 0.21092650D-02 0.31514998D+05 0.31514998D+05 0.31514998D+05 0.12126592D+01  1  2 15  3  6  5       21 0.186925128954D-02 0.100000000000D+01
0.442956996412D-03 0.000000000000D+00 0.000000000000D+00 0.285110852757D-05 0.000000000000D+00  6 2 -1 25 24 21 21 4 0.54366410D+00 0.21092650D-02 0.30806099D+05 0.30806099D+05 0.30806099D+05 0.12136917D+01  1  2 12  3  6  5       21 0.687098139059D-01 0.100000000000D+01
0.515632369800D-03 0.000000000000D+00 0.000000000000D+00 0.285110852757D-05 0.000000000000D+00  6 2 -1 25 24 21 21 4 0.54366410D+00 0.21092650D-02 0.30806099D+05 0.30806099D+05 0.30806099D+05 0.12136917D+01  1  2 12  3  6  5       21 0.799829429488D-01 0.100000000000D+01
-.999990505232D-03 0.000000000000D+00 0.000000000000D+00 0.284625982308D-05 0.000000000000D+00  6 2 -1 25 24 21 21 4 0.54366410D+00 0.21092650D-02 0.31514998D+05 0.31514998D+05 0.31514998D+05 0.12126592D+01  1  2  4  3  6  5       21 -.154474359091D+00 0.100000000000D+01
-.100246645237D-02 0.000000000000D+00 0.000000000000D+00 0.284625982308D-05 0.000000000000D+00  6 2 -1 25 24 21 21 4 0.54366410D+00 0.21092650D-02 0.31514998D+05 0.31514998D+05 0.31514998D+05 0.12126592D+01  1  2  5  3  6  5       21 -.154856833069D+00 0.100000000000D+01
0.124718507600D-02 0.000000000000D+00 -.000000000000D+00 0.284625982308D-05 0.000000000000D+00  6 2 -1 25 24 21 21 4 0.54366410D+00 0.21092650D-02 0.31514998D+05 0.31514998D+05 0.31514998D+05 0.12126592D+01  1  2  6  3  6  5       21 0.192659944544D+00 0.100000000000D+01
0.792785956821D-05 0.000000000000D+00 0.000000000000D+00 0.285110852757D-05 0.000000000000D+00  6 2 -1 25 24 1 -1 4 0.54366410D+00 0.21092650D-02 0.30806099D+05 0.30806099D+05 0.30806099D+05 0.12136917D+01  1  2 12  6  6  5       21 0.122973959101D-02 0.100000000000D+01
0.889529425112D-05 0.000000000000D+00 0.000000000000D+00 0.285110852757D-05 0.000000000000D+00  6 2 -1 25 24 1 -1 4 0.54366410D+00 0.21092650D-02 0.30806099D+05 0.30806099D+05 0.30806099D+05 0.12136917D+01  1  2 12  6  6  5       21 0.137980439994D-02 0.100000000000D+01
-.112156473394D-04 0.000000000000D+00 0.000000000000D+00 0.284625982308D-05 0.000000000000D+00  6 2 -1 25 24 1 -1 4 0.54366410D+00 0.21092650D-02 0.31514998D+05 0.31514998D+05 0.31514998D+05 0.12126592D+01  1  2  5  6  6  5       21 -.173254638467D-02 0.100000000000D+01
0.792785956821D-05 0.000000000000D+00 0.000000000000D+00 0.285110852757D-05 0.000000000000D+00  6 2 -1 25 24 2 -2 4 0.54366410D+00 0.21092650D-02 0.30806099D+05 0.30806099D+05 0.30806099D+05 0.12136917D+01  1  2 12  7  6  5       21 0.122973959101D-02 0.100000000000D+01
0.889529425112D-05 0.000000000000D+00 0.000000000000D+00 0.285110852757D-05 0.000000000000D+00  6 2 -1 25 24 2 -2 4 0.54366410D+00 0.21092650D-02 0.30806099D+05 0.30806099D+05 0.30806099D+05 0.12136917D+01  1  2 12  7  6  5       21 0.137980439994D-02 0.100000000000D+01
-.112156473394D-04 0.000000000000D+00 0.000000000000D+00 0.284625982308D-05 0.000000000000D+00  6 2 -1 25 24 2 -2 4 0.54366410D+00 0.21092650D-02 0.31514998D+05 0.31514998D+05 0.31514998D+05 0.12126592D+01  1  2  5  7  6  5       21 -.173254638467D-02 0.100000000000D+01
0.792785956821D-05 0.000000000000D+00 0.000000000000D+00 0.285110852757D-05 0.000000000000D+00  6 2 -1 25 24 3 -3 4 0.54366410D+00 0.21092650D-02 0.30806099D+05 0.30806099D+05 0.30806099D+05 0.12136917D+01  1  2 12  8  6  5       21 0.122973959101D-02 0.100000000000D+01
0.792785956821D-05 0.000000000000D+00 0.000000000000D+00 0.285110852757D-05 0.000000000000D+00  6 2 -1 25 24 4 -4 4 0.54366410D+00 0.21092650D-02 0.30806099D+05 0.30806099D+05 0.30806099D+05 0.12136917D+01  1  2 12  8  6  5       21 0.122973959101D-02 0.100000000000D+01
0.889529425112D-05 0.000000000000D+00 0.000000000000D+00 0.285110852757D-05 0.000000000000D+00  6 2 -1 25 24 3 -3 4 0.54366410D+00 0.21092650D-02 0.30806099D+05 0.30806099D+05 0.30806099D+05 0.12136917D+01  1  2 12  8  6  5       21 0.137980439994D-02 0.100000000000D+01
0.889529425112D-05 0.000000000000D+00 0.000000000000D+00 0.285110852757D-05 0.000000000000D+00  6 2 -1 25 24 4 -4 4 0.54366410D+00 0.21092650D-02 0.30806099D+05 0.30806099D+05 0.30806099D+05 0.12136917D+01  1  2 12  8  6  5       21 0.137980439994D-02 0.100000000000D+01
-.112156473394D-04 0.000000000000D+00 0.000000000000D+00 0.284625982308D-05 0.000000000000D+00  6 2 -1 25 24 3 -3 4 0.54366410D+00 0.21092650D-02 0.31514998D+05 0.31514998D+05 0.31514998D+05 0.12126592D+01  1  2  5  8  6  5       21 -.173254638467D-02 0.100000000000D+01
-.112156473394D-04 0.000000000000D+00 0.000000000000D+00 0.284625982308D-05 0.000000000000D+00  6 2 -1 25 24 4 -4 4 0.54366410D+00 0.21092650D-02 0.31514998D+05 0.31514998D+05 0.31514998D+05 0.12126592D+01  1  2  5  8  6  5       21 -.173254638467D-02 0.100000000000D+01
  </mgrwgt>
  </event>
  <event>
  6     66 0.46179844E-03 0.10926546E+03 0.75467711E-02 0.10784468E+00
        2 -1    0    0  502    0 0.00000000E+00 0.00000000E+00 0.49551585E+03 0.49551596E+03 0.32000000E+00 0.0000E+00 0.9000E+01
       21 -1    0    0  503  501 0.00000000E+00 0.00000000E+00 -.22799395E+03 0.22799518E+03 0.75000000E+00 0.0000E+00 0.9000E+01
       25  1    1    2    0    0 -.39602875E+02 0.14661133E+03 0.87975549E+02 0.21547150E+03 0.12500000E+03 0.0000E+00 0.9000E+01
       24  1    1    2    0    0 -.98027704E+02 0.66584359E+02 0.14807477E+03 0.20600063E+03 0.80419002E+02 0.0000E+00 0.9000E+01
        1  1    1    2  503    0 -.26488777E+01 -.11918126E+03 -.28963276E+02 0.12267911E+03 0.32000000E+00 0.0000E+00 0.9000E+01
       21  1    1    2  502  501 0.14027946E+03 -.94014424E+02 0.60434866E+02 0.17935990E+03 0.75000000E+00 0.0000E+00 0.9000E+01
#aMCatNLO 2  0  0  2  2 0.11921069D+03 0.00000000D+00  -5  6  0 0.00000000D+00 0.00000000D+00 0.00000000D+00 0.00000000D+00 0.00000000D+00
  <mgrwgt>
 0.1103582495D-01    1    2    0
 0.254403456136143D+03 0.000000000000000D+00 0.000000000000000D+00 0.254403456136143D+03
 0.254403456136143D+03 0.000000000000000D+00 0.000000000000000D+00 -.254403456136143D+03
 0.169043396218398D+03 -.405454094589050D+02 0.104219056167343D+03 -.210980546128823D+02
 0.141888799710561D+03 -.987849100884294D+02 0.325281299000944D+02 0.533730065946879D+02
 0.000000000000000D+00 -.000000000000000D+00 -.000000000000000D+00 -.000000000000000D+00
 0.197874716343328D+03 0.139330319547334D+03 -.136747186067438D+03 -.322749519818055D+02
 0.288582049207244D+03 0.000000000000000D+00 0.000000000000000D+00 0.288582049207244D+03
 0.391483043848617D+03 0.000000000000000D+00 0.000000000000000D+00 -.391483043848617D+03
 0.197821990320576D+03 -.396032059924101D+02 0.146611725387393D+03 -.210980546128823D+02
 0.152836193630506D+03 -.980279814694382D+02 0.665847065410798D+02 0.533730065946879D+02
 0.157479536666653D+03 -.264887774902224D+01 -.119181262022311D+03 -.102900994641373D+03
 0.171927372438127D+03 0.140280065210871D+03 -.940151699061624D+02 -.322749519818055D+02
0.100407690962D-04 0.000000000000D+00 0.000000000000D+00 0.871505117099D-06 0.110256276586D-09  6 2 21 25 24 1 21 4 0.76233271D-01 0.35076076D-01 0.98592581D+05 0.98592581D+05 0.98592581D+05 0.11641376D+01  1  2  1  5  5  2       -1 0.110358249492D-01 0.100000000000D+01
  </mgrwgt>
  </event>
  <event>
  5     66 -.46179844E-03 0.27071856E+02 0.75467711E-02 0.12344179E+00
        2 -1    0    0  502    0 0.00000000E+00 0.00000000E+00 0.50607628E+02 0.50608640E+02 0.32000000E+00 0.0000E+00 0.9000E+01
       -1 -1    0    0    0  501 0.00000000E+00 0.00000000E+00 -.36577927E+03 0.36577941E+03 0.32000000E+00 0.0000E+00 0.9000E+01
       25  1    1    2    0    0 -.15312923E+02 -.15207897E+02 -.12250294E+03 0.17634550E+03 0.12500000E+03 0.0000E+00 0.9000E+01
       24  1    1    2    0    0 0.38066569E+02 0.54400941E+00 -.66710907E+02 0.11120666E+03 0.80419002E+02 0.0000E+00 0.9000E+01
       21  1    1    2  502  501 -.22753647E+02 0.14663887E+02 -.12595779E+03 0.12883589E+03 0.75000000E+00 0.0000E+00 0.9000E+01
#aMCatNLO 1  0  0  1  5 0.85143774D+01 0.00000000D+00  -5  6  0 0.00000000D+00 0.00000000D+00 0.00000000D+00 0.00000000D+00 0.00000000D+00
  <mgrwgt>
 -.1406945983D+00   11    4    0
 0.136056830125230D+03 0.000000000000000D+00 0.000000000000000D+00 0.136056830125230D+03
 0.136056830125230D+03 0.000000000000000D+00 0.000000000000000D+00 -.136056830125230D+03
 0.127956720959537D+03 -.153117768772729D+02 -.152086350889025D+02 0.167978970799962D+02
 0.929021850208818D+02 0.380674009314606D+02 0.543473362746282D+00 0.267241024229260D+02
 0.512547542700402D+02 -.227556240541877D+02 0.146651617261562D+02 -.435219995029222D+02
 0.000000000000000D+00 -.000000000000000D+00 0.000000000000000D+00 0.000000000000000D+00
 0.153972975574971D+03 0.000000000000000D+00 0.000000000000000D+00 0.153972975574971D+03
 0.137138773046021D+03 0.000000000000000D+00 0.000000000000000D+00 -.137138773046021D+03
 0.127764944491741D+03 -.116316747043829D+02 -.167754534436168D+02 0.167978970799962D+02
 0.940369179828970D+02 0.407576501051012D+02 -.601911082029922D+00 0.267241024229260D+02
 0.504449716984063D+02 -.212920586505356D+02 0.140420428479196D+02 -.435219995029222D+02
 0.188649144479483D+02 -.783391675018266D+01 0.333532167772711D+01 0.168342025289498D+02
 0.136056830125230D+03 0.000000000000000D+00 0.000000000000000D+00 0.136056830125230D+03
 0.136056830125230D+03 0.000000000000000D+00 0.000000000000000D+00 -.136056830125230D+03
 0.127956720959537D+03 -.153117768772729D+02 -.152086350889025D+02 0.167978970799962D+02
 0.929021850208818D+02 0.380674009314606D+02 0.543473362746282D+00 0.267241024229260D+02
 0.000000000000000D+00 -.000000000000000D+00 0.000000000000000D+00 0.000000000000000D+00
 0.512547542700402D+02 -.227556240541877D+02 0.146651617261562D+02 -.435219995029222D+02
 0.153972975574971D+03 0.000000000000000D+00 0.000000000000000D+00 0.153972975574971D+03
 0.137138773046021D+03 0.000000000000000D+00 0.000000000000000D+00 -.137138773046021D+03
 0.127764944491741D+03 -.116316747043829D+02 -.167754534436168D+02 0.167978970799962D+02
 0.940369179828970D+02 0.407576501051012D+02 -.601911082029922D+00 0.267241024229260D+02
 0.188649144479483D+02 -.783391675018266D+01 0.333532167772711D+01 0.168342025289498D+02
 0.504449716984063D+02 -.212920586505356D+02 0.140420428479196D+02 -.435219995029222D+02
0.618286804915D-04 0.000000000000D+00 0.000000000000D+00 0.381795187962D-04 0.000000000000D+00  6 2 -1 25 24 21 21 2 0.77858775D-02 0.56273822D-01 0.14749699D+05 0.14749699D+05 0.14749699D+05 0.12486565D+01  1  2  2  1  6  1        2 0.304734638902D-01 0.100000000000D+01
0.502874037063D-05 0.326278910960D-05 -.237438412953D-06 0.381795187962D-04 0.000000000000D+00  6 2 -1 25 24 21 21 4 0.77858775D-02 0.56273822D-01 0.14749699D+05 0.14749699D+05 0.14749699D+05 0.12486565D+01  1  2  3  1  6  1        2 0.386435521310D-02 0.100000000000D+01
0.179632833320D-05 0.000000000000D+00 0.000000000000D+00 0.381795187962D-04 0.000000000000D+00  6 2 -1 25 24 21 21 4 0.77858775D-02 0.56273822D-01 0.14749699D+05 0.14749699D+05 0.14749699D+05 0.12486565D+01  1  2 15  1  6  1        2 0.138039553591D-02 0.100000000000D+01
0.126973449300D-02 0.000000000000D+00 0.000000000000D+00 0.379853857365D-04 0.000000000000D+00  6 2 -1 25 24 21 21 4 0.89002264D-02 0.56273822D-01 0.15729602D+05 0.15729602D+05 0.15729602D+05 0.12454779D+01  1  2 12  1  6  1        2 0.818845106182D+00 0.100000000000D+01
-.147872120359D-02 0.000000000000D+00 0.000000000000D+00 0.381795187962D-04 0.000000000000D+00  6 2 -1 25 24 21 21 4 0.77858775D-02 0.56273822D-01 0.14749699D+05 0.14749699D+05 0.14749699D+05 0.12486565D+01  1  2  4  1  6  1        2 -.113632909449D+01 0.100000000000D+01
-.181406467839D-02 0.000000000000D+00 -.158172774828D-03 0.381795187962D-04 0.000000000000D+00  6 2 -1 25 24 21 21 4 0.88726410D-02 0.56273822D-01 0.14749699D+05 0.14749699D+05 0.14749699D+05 0.12486565D+01  1  2  5  1  6  1        2 -.118451666066D+01 0.100000000000D+01
0.182051007521D-02 0.000000000000D+00 0.156832127339D-03 0.381795187962D-04 0.000000000000D+00  6 2 -1 25 24 21 21 4 0.77858775D-02 0.56273822D-01 0.14749699D+05 0.14749699D+05 0.14749699D+05 0.12486565D+01  1  2  6  1  6  1        2 0.139897809016D+01 0.100000000000D+01
0.150941091748D-05 0.000000000000D+00 0.000000000000D+00 0.381795187962D-04 0.260778260710D-05  6 2 -1 25 24 21 21 4 0.88111323D-02 0.56721320D-01 0.15729602D+05 0.15729602D+05 0.15729602D+05 0.12454779D+01  1  2 11  1  6  1        2 0.971148096394D-03 0.100000000000D+01
0.263738397074D-04 0.000000000000D+00 0.000000000000D+00 0.379853857365D-04 0.000000000000D+00  6 21 -1 25 24 -2 21 4 0.89002264D-02 0.56273822D-01 0.15729602D+05 0.15729602D+05 0.15729602D+05 0.12454779D+01  3  4 12  4  5  1        2 0.191550946842D+00 0.100000000000D+01
-.361000563130D-04 0.000000000000D+00 -.322220410580D-05 0.381795187962D-04 0.000000000000D+00  6 21 -1 25 24 -2 21 4 0.88726410D-02 0.56273822D-01 0.14749699D+05 0.14749699D+05 0.14749699D+05 0.12486565D+01  3  4  5  4  5  1        2 -.266116217067D+00 0.100000000000D+01
0.279956905115D-07 0.000000000000D+00 0.000000000000D+00 0.381795187962D-04 0.955401265667D-07  6 21 -1 25 24 -2 21 4 0.88111323D-02 0.56721320D-01 0.15729602D+05 0.15729602D+05 0.15729602D+05 0.12454779D+01  3  4 11  4  5  1        2 0.203867982498D-03 0.100000000000D+01
  </mgrwgt>
  </event>
  <event>
  5     66 0.46179844E-03 0.40962700E+02 0.75467711E-02 0.11352201E+00
        2 -1    0    0  502    0 0.00000000E+00 0.00000000E+00 0.40047464E+03 0.40047477E+03 0.32000000E+00 0.0000E+00 0.9000E+01
       -1 -1    0    0    0  501 0.00000000E+00 0.00000000E+00 -.19219930E+03 0.19219957E+03 0.32000000E+00 0.0000E+00 0.9000E+01
       25  1    1    2    0    0 0.98456085E+02 0.13556191E+03 0.76287925E+02 0.22252074E+03 0.12500000E+03 0.0000E+00 0.9000E+01
       24  1    1    2    0    0 -.12549877E+03 -.10479520E+03 0.21243721E+03 0.27987276E+03 0.80419002E+02 0.0000E+00 0.9000E+01
       21  1    1    2  502  501 0.27042689E+02 -.30766709E+02 -.80449798E+02 0.90280839E+02 0.75000000E+00 0.0000E+00 0.9000E+01
#aMCatNLO 1  0  0  5  1 0.91434709D+01 0.00000000D+00  -5  6  0 0.00000000D+00 0.00000000D+00 0.00000000D+00 0.00000000D+00 0.00000000D+00
  <mgrwgt>
 0.2083917857D+00   25    2    0
 0.277436592957208D+03 0.000000000000000D+00 0.000000000000000D+00 0.277436592957208D+03
 0.277436592957208D+03 -.000000000000000D+00 -.000000000000000D+00 -.277436592957208D+03
 0.209044991415220D+03 0.984559060536582D+02 0.135562113076982D+03 -.203874889236795D+01
 0.219200046430177D+03 -.125498960774532D+03 -.104794987448703D+03 0.121858384408952D+03
 0.126628148069019D+03 0.270430547208738D+02 -.307671256282792D+02 -.119819635516584D+03
 0.000000000000000D+00 0.000000000000000D+00 -.000000000000000D+00 0.000000000000000D+00
 0.277436592957208D+03 0.000000000000000D+00 0.000000000000000D+00 0.277436592957208D+03
 0.277436592957208D+03 -.000000000000000D+00 -.000000000000000D+00 -.277436592957208D+03
 0.209017286923559D+03 0.985836292077969D+02 0.135416801300277D+03 -.260465174372400D+01
 0.218867207075583D+03 -.125365125855091D+03 -.104947252635546D+03 0.121265402165182D+03
 0.380863105111929D+02 0.135731064406094D+02 -.183721195004664D+01 -.355381834391897D+02
 0.889023814040821D+02 0.132083902066852D+02 -.286323367146845D+02 -.831225669822688D+02
0.317227795585D-03 0.000000000000D+00 0.000000000000D+00 0.105304325119D-04 0.000000000000D+00  6 2 -1 25 24 21 21 2 0.61611513D-01 0.29569154D-01 0.46700120D+05 0.46700120D+05 0.46700120D+05 0.11952296D+01  1  2  2  3  6  5       21 0.431570399044D-01 0.100000000000D+01
0.377068657144D-04 0.167405706942D-04 -.121823826304D-05 0.105304325119D-04 0.000000000000D+00  6 2 -1 25 24 21 21 4 0.61611513D-01 0.29569154D-01 0.46700120D+05 0.46700120D+05 0.46700120D+05 0.11952296D+01  1  2  3  3  6  5       21 0.732830466228D-02 0.100000000000D+01
0.916262482947D-05 0.000000000000D+00 0.000000000000D+00 0.105304325119D-04 0.000000000000D+00  6 2 -1 25 24 21 21 4 0.61611513D-01 0.29569154D-01 0.46700120D+05 0.46700120D+05 0.46700120D+05 0.11952296D+01  1  2 15  3  6  5       21 0.178075013620D-02 0.100000000000D+01
0.394132392445D-03 0.000000000000D+00 0.000000000000D+00 0.105155860259D-04 0.000000000000D+00  6 2 -1 25 24 21 21 4 0.61611513D-01 0.29569154D-01 0.47618220D+05 0.47618220D+05 0.47618220D+05 0.11943867D+01  1  2 12  3  6  5       21 0.763867450561D-01 0.100000000000D+01
0.329497966362D-03 0.000000000000D+00 0.000000000000D+00 0.105155860259D-04 0.000000000000D+00  6 2 -1 25 24 21 21 4 0.61611513D-01 0.29569154D-01 0.47618220D+05 0.47618220D+05 0.47618220D+05 0.11943867D+01  1  2 12  3  6  5       21 0.638599557800D-01 0.100000000000D+01
-.170402156947D-02 0.000000000000D+00 0.000000000000D+00 0.105304325119D-04 0.000000000000D+00  6 2 -1 25 24 21 21 4 0.61611513D-01 0.29569154D-01 0.46700120D+05 0.46700120D+05 0.46700120D+05 0.11952296D+01  1  2  4  3  6  5       21 -.331175476284D+00 0.100000000000D+01
-.734705856135D-03 0.000000000000D+00 0.000000000000D+00 0.105304325119D-04 0.000000000000D+00  6 2 -1 25 24 21 21 4 0.61611513D-01 0.29569154D-01 0.46700120D+05 0.46700120D+05 0.46700120D+05 0.11952296D+01  1  2  5  3  6  5       21 -.142789602077D+00 0.100000000000D+01
0.266814006439D-02 0.000000000000D+00 -.000000000000D+00 0.105304325119D-04 0.000000000000D+00  6 2 -1 25 24 21 21 4 0.61611513D-01 0.29569154D-01 0.46700120D+05 0.46700120D+05 0.46700120D+05 0.11952296D+01  1  2  6  3  6  5       21 0.518551274497D+00 0.100000000000D+01
0.515442993794D-07 0.000000000000D+00 0.000000000000D+00 0.105304325119D-04 0.539316391421D-06  6 2 -1 25 24 21 21 4 0.61611513D-01 0.29569154D-01 0.47618220D+05 0.47618220D+05 0.47618220D+05 0.11943867D+01  1  2 11  3  6  5       21 0.998979361063D-05 0.100000000000D+01
0.512655538529D-04 0.000000000000D+00 0.000000000000D+00 0.105155860259D-04 0.000000000000D+00  6 2 -1 25 24 1 -1 4 0.61611513D-01 0.29569154D-01 0.47618220D+05 0.47618220D+05 0.47618220D+05 0.11943867D+01  1  2 12  6  6  5       21 0.993576997829D-02 0.100000000000D+01
0.448089821967D-04 0.000000000000D+00 0.000000000000D+00 0.105155860259D-04 0.000000000000D+00  6 2 -1 25 24 1 -1 4 0.61611513D-01 0.29569154D-01 0.47618220D+05 0.47618220D+05 0.47618220D+05 0.11943867D+01  1  2 12  6  6  5       21 0.868442270896D-02 0.100000000000D+01
-.132759958397D-03 0.000000000000D+00 0.000000000000D+00 0.105304325119D-04 0.000000000000D+00  6 2 -1 25 24 1 -1 4 0.61611513D-01 0.29569154D-01 0.46700120D+05 0.46700120D+05 0.46700120D+05 0.11952296D+01  1  2  5  6  6  5       21 -.258018109871D-01 0.100000000000D+01
0.120887689310D-07 0.000000000000D+00 0.000000000000D+00 0.105304325119D-04 0.331350339666D-07  6 2 -1 25 24 1 -1 4 0.61611513D-01 0.29569154D-01 0.47618220D+05 0.47618220D+05 0.47618220D+05 0.11943867D+01  1  2 11  6  6  5       21 0.234292265258D-05 0.100000000000D+01
0.512655538529D-04 0.000000000000D+00 0.000000000000D+00 0.105155860259D-04 0.000000000000D+00  6 2 -1 25 24 2 -2 4 0.61611513D-01 0.29569154D-01 0.47618220D+05 0.47618220D+05 0.47618220D+05 0.11943867D+01  1  2 12  7  6  5       21 0.993576997829D-02 0.100000000000D+01
0.448089821967D-04 0.000000000000D+00 0.000000000000D+00 0.105155860259D-04 0.000000000000D+00  6 2 -1 25 24 2 -2 4 0.61611513D-01 0.29569154D-01 0.47618220D+05 0.47618220D+05 0.47618220D+05 0.11943867D+01  1  2 12  7  6  5       21 0.868442270896D-02 0.100000000000D+01
-.132759958397D-03 0.000000000000D+00 0.000000000000D+00 0.105304325119D-04 0.000000000000D+00  6 2 -1 25 24 2 -2 4 0.61611513D-01 0.29569154D-01 0.46700120D+05 0.46700120D+05 0.46700120D+05 0.11952296D+01  1  2  5  7  6  5       21 -.258018109871D-01 0.100000000000D+01
0.119338856156D-07 0.000000000000D+00 0.000000000000D+00 0.105304325119D-04 0.313602623272D-07  6 2 -1 25 24 2 -2 4 0.61611513D-01 0.29569154D-01 0.47618220D+05 0.47618220D+05 0.47618220D+05 0.11943867D+01  1  2 11  7  6  5       21 0.231290473842D-05 0.100000000000D+01
0.512655538529D-04 0.000000000000D+00 0.000000000000D+00 0.105155860259D-04 0.000000000000D+00  6 2 -1 25 24 3 -3 4 0.61611513D-01 0.29569154D-01 0.47618220D+05 0.47618220D+05 0.47618220D+05 0.11943867D+01  1  2 12  8  6  5       21 0.993576997829D-02 0.100000000000D+01
0.512655538529D-04 0.000000000000D+00 0.000000000000D+00 0.105155860259D-04 0.000000000000D+00  6 2 -1 25 24 4 -4 4 0.61611513D-01 0.29569154D-01 0.47618220D+05 0.47618220D+05 0.47618220D+05 0.11943867D+01  1  2 12  8  6  5       21 0.993576997829D-02 0.100000000000D+01
0.448089821967D-04 0.000000000000D+00 0.000000000000D+00 0.105155860259D-04 0.000000000000D+00  6 2 -1 25 24 3 -3 4 0.61611513D-01 0.29569154D-01 0.47618220D+05 0.47618220D+05 0.47618220D+05 0.11943867D+01  1  2 12  8  6  5       21 0.868442270896D-02 0.100000000000D+01
0.448089821967D-04 0.000000000000D+00 0.000000000000D+00 0.105155860259D-04 0.000000000000D+00  6 2 -1 25 24 4 -4 4 0.61611513D-01 0.29569154D-01 0.47618220D+05 0.47618220D+05 0.47618220D+05 0.11943867D+01  1  2 12  8  6  5       21 0.868442270896D-02 0.100000000000D+01
-.132759958397D-03 0.000000000000D+00 0.000000000000D+00 0.105304325119D-04 0.000000000000D+00  6 2 -1 25 24 3 -3 4 0.61611513D-01 0.29569154D-01 0.46700120D+05 0.46700120D+05 0.46700120D+05 0.11952296D+01  1  2  5  8  6  5       21 -.258018109871D-01 0.100000000000D+01
-.132759958397D-03 0.000000000000D+00 0.000000000000D+00 0.105304325119D-04 0.000000000000D+00  6 2 -1 25 24 4 -4 4 0.61611513D-01 0.29569154D-01 0.46700120D+05 0.46700120D+05 0.46700120D+05 0.11952296D+01  1  2  5  8  6  5       21 -.258018109871D-01 0.100000000000D+01
0.119229547894D-07 0.000000000000D+00 0.000000000000D+00 0.105304325119D-04 0.313011983550D-07  6 2 -1 25 24 3 -3 4 0.61611513D-01 0.29569154D-01 0.47618220D+05 0.47618220D+05 0.47618220D+05 0.11943867D+01  1  2 11  8  6  5       21 0.231078623649D-05 0.100000000000D+01
0.119229547894D-07 0.000000000000D+00 0.000000000000D+00 0.105304325119D-04 0.313011983550D-07  6 2 -1 25 24 4 -4 4 0.61611513D-01 0.29569154D-01 0.47618220D+05 0.47618220D+05 0.47618220D+05 0.11943867D+01  1  2 11  8  6  5       21 0.231078623649D-05 0.100000000000D+01
  </mgrwgt>
  </event>
  <event>
  5     66 0.46179844E-03 0.20391089E+02 0.75467711E-02 0.11138887E+00
        2 -1    0    0  502    0 0.00000000E+00 0.00000000E+00 0.97607254E+02 0.97607779E+02 0.32000000E+00 0.0000E+00 0.9000E+01
       -1 -1    0    0    0  501 0.00000000E+00 0.00000000E+00 -.20918595E+03 0.20918620E+03 0.32000000E+00 0.0000E+00 0.9000E+01
       25  1    1    2    0    0 0.73975589E+02 0.47972961E+02 -.52226196E+02 0.16163653E+03 0.12500000E+03 0.0000E+00 0.9000E+01
       24  1    1    2    0    0 -.53750566E+02 -.45448571E+02 -.63541477E+02 0.12433596E+03 0.80419002E+02 0.0000E+00 0.9000E+01
       21  1    1    2  502  501 -.20225024E+02 -.25243893E+01 0.41889754E+01 0.20821483E+02 0.75000000E+00 0.0000E+00 0.9000E+01
#aMCatNLO 1  0  0  2  2 0.47110068D+01 0.00000000D+00  -5  6  0 0.00000000D+00 0.00000000D+00 0.00000000D+00 0.00000000D+00 0.00000000D+00
  <mgrwgt>
 0.1108700656D+00    3    2    0
 0.142892212232902D+03 0.000000000000000D+00 0.000000000000000D+00 0.142892212232902D+03
 0.142892212232902D+03 0.000000000000000D+00 0.000000000000000D+00 -.142892212232902D+03
 0.153131265785495D+03 0.739808901666084D+02 0.479736221938207D+02 0.703875165271889D+01
 0.108666461118212D+03 -.537468038534747D+02 -.454481017429203D+02 -.196706619381911D+02
 0.239866975620964D+02 -.202340863131337D+02 -.252552045090038D+01 0.126319102854722D+02
 0.000000000000000D+00 0.000000000000000D+00 0.000000000000000D+00 0.000000000000000D+00
 0.318358121521930D+03 0.000000000000000D+00 0.000000000000000D+00 0.318358121521930D+03
 0.213637938292365D+03 0.000000000000000D+00 0.000000000000000D+00 -.213637938292365D+03
 0.145731843872057D+03 0.664913913724919D+02 -.337952832044823D+02 0.703875165271889D+01
 0.156224716057037D+03 -.603849672397131D+02 -.117922291120481D+03 -.196706619381911D+02
 0.304953648774804D+02 -.215994048411037D+02 -.174318051865133D+02 0.126319102854722D+02
 0.199544135007721D+03 0.154929807083249D+02 0.169149379511476D+03 0.104720183229565D+03
0.133461820646D-03 0.000000000000D+00 0.000000000000D+00 0.511165734169D-04 0.000000000000D+00  6 2 -1 25 24 21 21 2 0.15016560D-01 0.32182513D-01 0.19632459D+05 0.19632459D+05 0.19632459D+05 0.12347139D+01  1  2  2  2  6  2       -1 0.786515455652D-01 0.100000000000D+01
0.307733406329D-04 0.704297377028D-05 -.512528532586D-06 0.511165734169D-04 0.000000000000D+00  6 2 -1 25 24 21 21 4 0.15016560D-01 0.32182513D-01 0.19632459D+05 0.19632459D+05 0.19632459D+05 0.12347139D+01  1  2  3  2  6  2       -1 0.276476039691D-01 0.100000000000D+01
0.508768705266D-05 0.000000000000D+00 0.000000000000D+00 0.511165734169D-04 0.000000000000D+00  6 2 -1 25 24 21 21 4 0.15016560D-01 0.32182513D-01 0.19632459D+05 0.19632459D+05 0.19632459D+05 0.12347139D+01  1  2 15  2  6  2       -1 0.457091605454D-02 0.100000000000D+01
  </mgrwgt>
  </event>
  <event>
  6     66 -.46179844E-03 0.26199880E+02 0.75467711E-02 0.10703486E+00
        2 -1    0    0  502    0 0.00000000E+00 0.00000000E+00 0.12173001E+04 0.12173002E+04 0.32000000E+00 0.0000E+00 0.9000E+01
       -1 -1    0    0    0  503 0.00000000E+00 0.00000000E+00 -.21902371E+03 0.21902394E+03 0.32000000E+00 0.0000E+00 0.9000E+01
       25  1    1    2    0    0 -.23074328E+03 -.17585455E+03 0.28314752E+02 0.31716559E+03 0.12500000E+03 0.0000E+00 0.9000E+01
       24  1    1    2    0    0 0.24920653E+03 0.16387065E+03 0.37953414E+03 0.48935761E+03 0.80419002E+02 0.0000E+00 0.9000E+01
       21  1    1    2  502  501 -.25417281E+02 0.16656661E+02 0.60881887E+03 0.60957728E+03 0.75000000E+00 0.0000E+00 0.9000E+01
       21  1    1    2  501  503 0.69540319E+01 -.46727586E+01 -.18391318E+02 0.20223658E+02 0.75000000E+00 0.0000E+00 0.9000E+01
#aMCatNLO 2  0  0  2  5 0.83781401D+01 0.00000000D+00  -5  6  0 0.00000000D+00 0.00000000D+00 0.00000000D+00 0.00000000D+00 0.00000000D+00
  <mgrwgt>
 -.1773273837D+02    5    2    0
 0.492863323017228D+03 0.000000000000000D+00 0.000000000000000D+00 0.492863323017228D+03
 0.492863323017228D+03 0.000000000000000D+00 0.000000000000000D+00 -.492863323017228D+03
 0.425644461112070D+03 -.227737739759257D+03 -.177874124463512D+03 -.286434154756496D+03
 0.312547747425822D+03 0.251407964631304D+03 0.162391398332828D+03 0.405209517908767D+02
 0.247534437496565D+03 -.236702248720476D+02 0.154827261306844D+02 0.245913202965619D+03
 0.000000000000000D+00 0.000000000000000D+00 -.000000000000000D+00 -.000000000000000D+00
 0.493249432256420D+03 0.000000000000000D+00 0.000000000000000D+00 0.493249432256420D+03
 0.540526977001270D+03 0.000000000000000D+00 0.000000000000000D+00 -.540526977001270D+03
 0.426423264637996D+03 -.230743237864650D+03 -.175854581382449D+03 -.286434154756496D+03
 0.311555225606496D+03 0.249206566495531D+03 0.163870626806068D+03 0.405209517908767D+02
 0.247783759963192D+03 -.254173605269292D+02 0.166567131370859D+02 0.245913202965619D+03
 0.480141590500058D+02 0.695403189604735D+01 -.467275856070500D+01 -.472775447448508D+02
-.162542319192D+01 0.000000000000D+00 0.000000000000D+00 0.181119473623D-04 0.000000000000D+00  6 2 -1 25 24 21 21 4 0.18712926D+00 0.33719691D-01 0.11008299D+06 0.11008299D+06 0.11008299D+06 0.11597585D+01  1  2 13  2  6  2       -1 -.546230025333D+02 0.100000000000D+01
-.251222362285D-01 0.000000000000D+00 0.000000000000D+00 0.181515135789D-04 0.000000000000D+00  6 2 -1 25 24 21 21 4 0.18712926D+00 0.30724483D-01 0.10661569D+06 0.10661569D+06 0.10661569D+06 0.11610246D+01  1  2  8  2  6  2       -1 -.996956648900D+00 0.100000000000D+01
-.243956051042D-01 0.000000000000D+00 0.000000000000D+00 0.181515135789D-04 0.000000000000D+00  6 2 -1 25 24 21 21 4 0.18712926D+00 0.33708854D-01 0.10661569D+06 0.10661569D+06 0.10661569D+06 0.11610246D+01  1  2  9  2  6  2       -1 -.824600524917D+00 0.100000000000D+01
0.242911583327D-01 0.000000000000D+00 0.000000000000D+00 0.181515135789D-04 0.000000000000D+00  6 2 -1 25 24 21 21 4 0.18712926D+00 0.30724483D-01 0.10661569D+06 0.10661569D+06 0.10661569D+06 0.11610246D+01  1  2 10  2  6  2       -1 0.963975960938D+00 0.100000000000D+01
0.112328760188D+01 0.000000000000D+00 0.000000000000D+00 0.181515135789D-04 0.806252177547D-06  6 2 -1 25 24 21 21 4 0.18727586D+00 0.33695776D-01 0.11008299D+06 0.11008299D+06 0.11008299D+06 0.11597585D+01  1  2  1  2  6  2       -1 0.377478453799D+02 0.100000000000D+01
  </mgrwgt>
  </event>
  <event>
  6     66 0.46179844E-03 0.24130078E+02 0.75467711E-02 0.11829191E+00
        2 -1    0    0  502    0 0.00000000E+00 0.00000000E+00 0.98427591E+03 0.98427596E+03 0.32000000E+00 0.0000E+00 0.9000E+01
       -1 -1    0    0    0  501 0.00000000E+00 0.00000000E+00 -.33247335E+03 0.33247351E+03 0.32000000E+00 0.0000E+00 0.9000E+01
       25  1    1    2    0    0 -.96200029E+02 0.61128280E+02 -.20720776E+03 0.26749050E+03 0.12500000E+03 0.0000E+00 0.9000E+01
       24  1    1    2    0    0 0.78556506E+02 -.44138716E+02 -.55799260E+02 0.13304181E+03 0.80419002E+02 0.0000E+00 0.9000E+01
        4  1    1    2  502    0 -.99284601E+01 -.54401270E+01 0.74192307E+02 0.75067105E+02 0.15500000E+01 0.0000E+00 0.9000E+01
       -4  1    1    2    0  501 0.27571984E+02 -.11549437E+02 0.84061727E+03 0.84115005E+03 0.15500000E+01 0.0000E+00 0.9000E+01
#aMCatNLO 2  0  0  5  2 0.11653081D+02 0.00000000D+00  -5  6  0 0.00000000D+00 0.00000000D+00 0.00000000D+00 0.00000000D+00 0.00000000D+00
  <mgrwgt>
 0.8223279355D-01    2    2    0
 0.572053884747881D+03 0.000000000000000D+00 0.000000000000000D+00 0.572053884747881D+03
 0.572053884747881D+03 -.000000000000000D+00 -.000000000000000D+00 -.572053884747881D+03
 0.426544118610138D+03 -.962230168760339D+02 0.611504151232912D+02 -.391556691775818D+03
 0.185127320339533D+03 0.785465271329467D+02 -.441291069932870D+02 -.140313840276196D+03
 0.532436330546091D+03 0.176764897430872D+02 -.170213081300042D+02 0.531870532052014D+03
 0.000000000000000D+00 0.000000000000000D+00 0.000000000000000D+00 0.000000000000000D+00
 0.572053884747881D+03 0.000000000000000D+00 0.000000000000000D+00 0.572053884747881D+03
 0.572053884747881D+03 -.000000000000000D+00 -.000000000000000D+00 -.572053884747881D+03
 0.425955221040755D+03 -.962019710241387D+02 0.611301493388977D+02 -.390923440004246D+03
 0.184925045981070D+03 0.785556627028326D+02 -.441379039519723D+02 -.140038958753539D+03
 0.442657121231691D+02 -.954335302710387D+01 -.531385658463706D+01 0.428968601528042D+02
 0.488961790350768D+03 0.271896613484099D+02 -.116783888022884D+02 0.488065538604981D+03
-.641310167056D-02 0.000000000000D+00 0.000000000000D+00 0.206716315160D-03 0.000000000000D+00  6 2 -1 25 24 4 -4 4 0.15142708D+00 0.51149762D-01 0.27299862D+05 0.27299862D+05 0.27299862D+05 0.12192210D+01  1  2 13  8  6  5       21 -.177801470837D+00 0.100000000000D+01
0.937914724486D-02 0.000000000000D+00 0.000000000000D+00 0.208275896411D-03 0.106463952225D-06  6 2 -1 25 24 4 -4 4 0.15142708D+00 0.51149762D-01 0.27299862D+05 0.27299862D+05 0.27299862D+05 0.12192210D+01  1  2  1  8  6  5       21 0.260034264386D+00 0.100000000000D+01
  </mgrwgt>
  </event>
  <event>
  5     66 0.46179844E-03 0.15666975E+03 0.75467711E-02 0.10879275E+00
        2 -1    0    0  502    0 0.00000000E+00 0.00000000E+00 0.16840512E+03 0.16840543E+03 0.32000000E+00 0.0000E+00 0.9000E+01
       -1 -1    0    0    0  501 0.00000000E+00 0.00000000E+00 -.46674415E+03 0.46674426E+03 0.32000000E+00 0.0000E+00 0.9000E+01
       25  1    1    2    0    0 0.69492750E+01 0.34970738E+02 -.25617510E+03 0.28726630E+03 0.12500000E+03 0.0000E+00 0.9000E+01
       24  1    1    2    0    0 -.16309065E+03 -.22125240E+02 -.53412804E+02 0.19080941E+03 0.80419002E+02 0.0000E+00 0.9000E+01
       21  1    1    2  502  501 0.15614137E+03 -.12845499E+02 0.11248877E+02 0.15707398E+03 0.75000000E+00 0.0000E+00 0.9000E+01
#aMCatNLO 1  0  0  2  2 0.11244076D+03 0.00000000D+00  -5  6  0 0.00000000D+00 0.00000000D+00 0.00000000D+00 0.00000000D+00 0.00000000D+00
  <mgrwgt>
 0.7384556734D-01    7    4    0
 0.280360903947769D+03 0.000000000000000D+00 0.000000000000000D+00 0.280360903947769D+03
 0.280360903947769D+03 0.000000000000000D+00 0.000000000000000D+00 -.280360903947769D+03
 0.189095862065115D+03 0.694883712516530D+01 0.349707743737529D+02 -.137335369269744D+03
 0.187718017775666D+03 -.163091082895082D+03 -.221252040603210D+02 0.410196571006299D+02
 0.183907928054758D+03 0.156142245769916D+03 -.128455703134319D+02 0.963157121691137D+02
 0.000000000000000D+00 0.000000000000000D+00 0.000000000000000D+00 -.000000000000000D+00
 0.336990831005734D+03 0.000000000000000D+00 0.000000000000000D+00 0.336990831005734D+03
 0.347858375263522D+03 0.000000000000000D+00 0.000000000000000D+00 -.347858375263522D+03
 0.187586686491054D+03 -.231936721129818D+02 0.128380243866225D+02 -.137335369269744D+03
 0.220442183279640D+03 -.195752464947717D+03 -.461074876019407D+02 0.410196571006299D+02
 0.163855619901263D+03 0.128313863496475D+03 -.332791255472770D+02 0.963157121691137D+02
 0.112964716597300D+03 0.906322735642240D+02 0.665485887625952D+02 -.108675442577883D+02
 0.280360903947769D+03 0.000000000000000D+00 0.000000000000000D+00 0.280360903947769D+03
 0.280360903947769D+03 0.000000000000000D+00 0.000000000000000D+00 -.280360903947769D+03
 0.189095862065115D+03 0.694883712516530D+01 0.349707743737529D+02 -.137335369269744D+03
 0.187718017775666D+03 -.163091082895082D+03 -.221252040603210D+02 0.410196571006299D+02
 0.000000000000000D+00 0.000000000000000D+00 0.000000000000000D+00 -.000000000000000D+00
 0.183907928054758D+03 0.156142245769916D+03 -.128455703134319D+02 0.963157121691137D+02
 0.336990831005734D+03 0.000000000000000D+00 0.000000000000000D+00 0.336990831005734D+03
 0.347858375263522D+03 0.000000000000000D+00 0.000000000000000D+00 -.347858375263522D+03
 0.187586686491054D+03 -.231936721129818D+02 0.128380243866225D+02 -.137335369269744D+03
 0.220442183279640D+03 -.195752464947717D+03 -.461074876019407D+02 0.410196571006299D+02
 0.112964716597300D+03 0.906322735642240D+02 0.665485887625952D+02 -.108675442577883D+02
 0.163855619901263D+03 0.128313863496475D+03 -.332791255472770D+02 0.963157121691137D+02
0.786151719718D-03 0.000000000000D+00 0.000000000000D+00 0.809197252130D-06 0.000000000000D+00  6 2 -1 25 24 21 21 2 0.25908512D-01 0.71806824D-01 0.55186639D+05 0.55186639D+05 0.55186639D+05 0.11880599D+01  1  2  2  2  6  2       -1 0.534030099384D-01 0.100000000000D+01
-.725889378845D-04 0.414863660230D-04 -.301902960222D-05 0.809197252130D-06 0.000000000000D+00  6 2 -1 25 24 21 21 4 0.25908512D-01 0.71806824D-01 0.55186639D+05 0.55186639D+05 0.55186639D+05 0.11880599D+01  1  2  3  2  6  2       -1 -.695995556763D-02 0.100000000000D+01
0.265842551228D-04 0.000000000000D+00 0.000000000000D+00 0.809197252130D-06 0.000000000000D+00  6 2 -1 25 24 21 21 4 0.25908512D-01 0.71806824D-01 0.55186639D+05 0.55186639D+05 0.55186639D+05 0.11880599D+01  1  2 15  2  6  2       -1 0.254894533307D-02 0.100000000000D+01
-.338144692765D-03 0.000000000000D+00 0.000000000000D+00 0.809197252130D-06 0.000000000000D+00  6 2 -1 25 24 21 21 4 0.25908512D-01 0.71806824D-01 0.55186639D+05 0.55186639D+05 0.55186639D+05 0.11880599D+01  1  2  4  2  6  2       -1 -.324219103581D-01 0.100000000000D+01
-.104915530877D-02 0.000000000000D+00 -.533547078838D-03 0.809197252130D-06 0.000000000000D+00  6 2 -1 25 24 21 21 4 0.25908512D-01 0.10371879D+00 0.55186639D+05 0.55186639D+05 0.55186639D+05 0.11880599D+01  1  2  5  2  6  2       -1 -.460490090101D-01 0.100000000000D+01
0.119760766799D-02 0.000000000000D+00 0.499403753242D-03 0.809197252130D-06 0.000000000000D+00  6 2 -1 25 24 21 21 4 0.25908512D-01 0.71806824D-01 0.55186639D+05 0.55186639D+05 0.55186639D+05 0.11880599D+01  1  2  6  2  6  2       -1 0.114828738367D+00 0.100000000000D+01
-.307678050837D-04 0.000000000000D+00 -.238855051068D-04 0.809197252130D-06 0.000000000000D+00  6 2 21 25 24 1 21 4 0.25908512D-01 0.10371879D+00 0.55186639D+05 0.55186639D+05 0.55186639D+05 0.11880599D+01  3  4  5  5  5  2       -1 -.115042513662D-01 0.100000000000D+01
  </mgrwgt>
  </event>
  <event>
  5     66 0.46179844E-03 0.41989613E+02 0.75467711E-02 0.11600201E+00
        2 -1    0    0  502    0 0.00000000E+00 0.00000000E+00 0.35293446E+03 0.35293461E+03 0.32000000E+00 0.0000E+00 0.9000E+01
       -1 -1    0    0    0  501 0.00000000E+00 0.00000000E+00 -.13393556E+03 0.13393594E+03 0.32000000E+00 0.0000E+00 0.9000E+01
       25  1    1    2    0    0 0.14514737E+02 -.12458771E+03 0.22509107E+03 0.28639791E+03 0.12500000E+03 0.0000E+00 0.9000E+01
       24  1    1    2    0    0 -.52097524E+02 0.10285621E+03 0.30320148E+02 0.14380570E+03 0.80419002E+02 0.0000E+00 0.9000E+01
       21  1    1    2  502  501 0.37582787E+02 0.21731500E+02 -.36412309E+02 0.56666946E+02 0.75000000E+00 0.0000E+00 0.9000E+01
#aMCatNLO 1  0  0  5  1 0.20926365D+02 0.00000000D+00  -5  6  0 0.00000000D+00 0.00000000D+00 0.00000000D+00 0.00000000D+00 0.00000000D+00
  <mgrwgt>
 0.1537096514D+00   15    2    0
 0.217418038234679D+03 0.000000000000000D+00 0.000000000000000D+00 0.217418038234679D+03
 0.217418038234679D+03 -.000000000000000D+00 -.000000000000000D+00 -.217418038234679D+03
 0.207306662568177D+03 0.145139832236825D+02 -.124588141638269D+03 0.107787715437619D+03
 0.145743555225514D+03 -.520980535961242D+02 0.102855899242333D+03 -.384762879959646D+02
 0.817858586756663D+02 0.375840703724417D+02 0.217322423959361D+02 -.693114274416541D+02
 0.000000000000000D+00 0.000000000000000D+00 0.000000000000000D+00 0.000000000000000D+00
 0.217418038234679D+03 0.000000000000000D+00 0.000000000000000D+00 0.217418038234679D+03
 0.217418038234679D+03 -.000000000000000D+00 -.000000000000000D+00 -.217418038234679D+03
 0.203514415905276D+03 0.176436800343297D+02 -.122778456603073D+03 0.102016021439179D+03
 0.147017519297517D+03 -.498677556654020D+02 0.104145524734338D+03 -.425893372656857D+02
 0.264649002761502D+02 0.858851068212834D+01 -.158020256209185D+02 -.194145413843690D+02
 0.578392409904146D+02 0.236355649489439D+02 0.344349574896533D+02 -.400121427891244D+02
0.413910987685D-03 0.000000000000D+00 0.000000000000D+00 0.877848716026D-05 0.000000000000D+00  6 2 -1 25 24 21 21 2 0.54297650D-01 0.20605511D-01 0.32592772D+05 0.32592772D+05 0.32592772D+05 0.12111381D+01  1  2  2  3  6  5       21 0.120225262763D+00 0.100000000000D+01
0.241455885797D-04 0.218426829139D-04 -.158952717797D-05 0.877848716026D-05 0.000000000000D+00  6 2 -1 25 24 21 21 4 0.54297650D-01 0.20605511D-01 0.32592772D+05 0.32592772D+05 0.32592772D+05 0.12111381D+01  1  2  3  3  6  5       21 0.102875965708D-01 0.100000000000D+01
0.125756291101D-04 0.000000000000D+00 0.000000000000D+00 0.877848716026D-05 0.000000000000D+00  6 2 -1 25 24 21 21 4 0.54297650D-01 0.20605511D-01 0.32592772D+05 0.32592772D+05 0.32592772D+05 0.12111381D+01  1  2 15  3  6  5       21 0.535803873577D-02 0.100000000000D+01
0.619852039665D-04 0.000000000000D+00 0.000000000000D+00 0.872384049034D-05 0.000000000000D+00  6 2 -1 25 24 21 21 4 0.54297650D-01 0.20605511D-01 0.35450069D+05 0.35450069D+05 0.35450069D+05 0.12073625D+01  1  2 12  3  6  5       21 0.261098628748D-01 0.100000000000D+01
-.236044720297D-03 0.000000000000D+00 0.000000000000D+00 0.877848716026D-05 0.000000000000D+00  6 2 -1 25 24 21 21 4 0.54297650D-01 0.20605511D-01 0.32592772D+05 0.32592772D+05 0.32592772D+05 0.12111381D+01  1  2  4  3  6  5       21 -.100570456051D+00 0.100000000000D+01
-.786225641545D-04 0.000000000000D+00 0.000000000000D+00 0.877848716026D-05 0.000000000000D+00  6 2 -1 25 24 21 21 4 0.54297650D-01 0.20605511D-01 0.32592772D+05 0.32592772D+05 0.32592772D+05 0.12111381D+01  1  2  5  3  6  5       21 -.334983435467D-01 0.100000000000D+01
0.322253595002D-03 0.000000000000D+00 -.000000000000D+00 0.877848716026D-05 0.000000000000D+00  6 2 -1 25 24 21 21 4 0.54297650D-01 0.20605511D-01 0.32592772D+05 0.32592772D+05 0.32592772D+05 0.12111381D+01  1  2  6  3  6  5       21 0.137301063004D+00 0.100000000000D+01
0.583966796315D-05 0.000000000000D+00 0.000000000000D+00 0.872384049034D-05 0.000000000000D+00  6 2 -1 25 24 1 -1 4 0.54297650D-01 0.20605511D-01 0.35450069D+05 0.35450069D+05 0.35450069D+05 0.12073625D+01  1  2 12  6  6  5       21 0.245982782980D-02 0.100000000000D+01
-.125231308607D-04 0.000000000000D+00 0.000000000000D+00 0.877848716026D-05 0.000000000000D+00  6 2 -1 25 24 1 -1 4 0.54297650D-01 0.20605511D-01 0.32592772D+05 0.32592772D+05 0.32592772D+05 0.12111381D+01  1  2  5  6  6  5       21 -.533567105529D-02 0.100000000000D+01
0.583966796315D-05 0.000000000000D+00 0.000000000000D+00 0.872384049034D-05 0.000000000000D+00  6 2 -1 25 24 2 -2 4 0.54297650D-01 0.20605511D-01 0.35450069D+05 0.35450069D+05 0.35450069D+05 0.12073625D+01  1  2 12  7  6  5       21 0.245982782980D-02 0.100000000000D+01
-.125231308607D-04 0.000000000000D+00 0.000000000000D+00 0.877848716026D-05 0.000000000000D+00  6 2 -1 25 24 2 -2 4 0.54297650D-01 0.20605511D-01 0.32592772D+05 0.32592772D+05 0.32592772D+05 0.12111381D+01  1  2  5  7  6  5       21 -.533567105529D-02 0.100000000000D+01
0.583966796315D-05 0.000000000000D+00 0.000000000000D+00 0.872384049034D-05 0.000000000000D+00  6 2 -1 25 24 3 -3 4 0.54297650D-01 0.20605511D-01 0.35450069D+05 0.35450069D+05 0.35450069D+05 0.12073625D+01  1  2 12  8  6  5       21 0.245982782980D-02 0.100000000000D+01
0.583966796315D-05 0.000000000000D+00 0.000000000000D+00 0.872384049034D-05 0.000000000000D+00  6 2 -1 25 24 4 -4 4 0.54297650D-01 0.20605511D-01 0.35450069D+05 0.35450069D+05 0.35450069D+05 0.12073625D+01  1  2 12  8  6  5       21 0.245982782980D-02 0.100000000000D+01
-.125231308607D-04 0.000000000000D+00 0.000000000000D+00 0.877848716026D-05 0.000000000000D+00  6 2 -1 25 24 3 -3 4 0.54297650D-01 0.20605511D-01 0.32592772D+05 0.32592772D+05 0.32592772D+05 0.12111381D+01  1  2  5  8  6  5       21 -.533567105529D-02 0.100000000000D+01
-.125231308607D-04 0.000000000000D+00 0.000000000000D+00 0.877848716026D-05 0.000000000000D+00  6 2 -1 25 24 4 -4 4 0.54297650D-01 0.20605511D-01 0.32592772D+05 0.32592772D+05 0.32592772D+05 0.12111381D+01  1  2  5  8  6  5       21 -.533567105529D-02 0.100000000000D+01
  </mgrwgt>
  </event>
  <event>
  6     66 -.46179844E-03 0.24259250E+02 0.75467711E-02 0.10777695E+00
        2 -1    0    0  502    0 0.00000000E+00 0.00000000E+00 0.30223624E+03 0.30223641E+03 0.32000000E+00 0.0000E+00 0.9000E+01
       -1 -1    0    0    0  501 -.00000000E+00 -.00000000E+00 -.47771476E+03 0.47771486E+03 0.32000000E+00 0.0000E+00 0.9000E+01
       25  1    1    2    0    0 0.25211831E+03 0.96395982E+02 -.10769260E+03 0.31635190E+03 0.12500000E+03 0.0000E+00 0.9000E+01
       24  1    1    2    0    0 -.27952425E+03 -.81778747E+02 0.79442947E+02 0.31240994E+03 0.80419002E+02 0.0000E+00 0.9000E+01
       21  1    1    2  502  503 0.90051452E+01 -.12734608E+02 -.76557905E+02 0.78134104E+02 0.75000000E+00 0.0000E+00 0.9000E+01
       21  1    1    2  503  501 0.18400797E+02 -.18826266E+01 -.70670962E+02 0.73055328E+02 0.75000000E+00 0.0000E+00 0.9000E+01
#aMCatNLO 2  0  0  5  2 0.72948835D+01 0.00000000D+00  -5  6  0 0.00000000D+00 0.00000000D+00 0.00000000D+00 0.00000000D+00 0.00000000D+00
  <mgrwgt>
 -.7801244164D+00    2    2    0
 0.379977391796819D+03 0.000000000000000D+00 0.000000000000000D+00 0.379977391796819D+03
 0.379977391796819D+03 -.000000000000000D+00 -.000000000000000D+00 -.379977391796819D+03
 0.299712233949240D+03 0.252037424544567D+03 0.964391237091441D+02 -.371356328342205D+02
 0.339213891163776D+03 -.279615754790598D+03 -.817299439344116D+02 0.154058735362398D+03
 0.121028658480623D+03 0.275783302460310D+02 -.147091797747325D+02 -.116923102528177D+03
 0.000000000000000D+00 0.000000000000000D+00 0.000000000000000D+00 0.000000000000000D+00
 0.379977391796819D+03 0.000000000000000D+00 0.000000000000000D+00 0.379977391796819D+03
 0.379977391796819D+03 -.000000000000000D+00 -.000000000000000D+00 -.379977391796819D+03
 0.299807160691083D+03 0.252116729547411D+03 0.963968255883569D+02 -.374718601146875D+02
 0.338978875768985D+03 -.279526042798308D+03 -.817777927276771D+02 0.153678385849610D+03
 0.616005267732738D+02 0.881965440981531D+01 -.126019505034780D+02 -.596492199307262D+02
 0.595682203602974D+02 0.185896588410820D+02 -.201708235720181D+01 -.565573058041965D+02
-.916692293368D-02 0.000000000000D+00 0.000000000000D+00 0.143436512852D-04 0.000000000000D+00  6 2 -1 25 24 21 21 4 0.46497904D-01 0.73494599D-01 0.10038707D+06 0.10038707D+06 0.10038707D+06 0.11634176D+01  1  2 13  3  6  5       21 -.404150439929D+00 0.100000000000D+01
-.852782559831D-02 0.000000000000D+00 0.000000000000D+00 0.143436512852D-04 0.000000000000D+00  6 2 -1 25 24 21 21 4 0.46497904D-01 0.73494599D-01 0.10038707D+06 0.10038707D+06 0.10038707D+06 0.11634176D+01  1  2 13  3  6  5       21 -.375973976451D+00 0.100000000000D+01
  </mgrwgt>
  </event>
  <event>
  5     66 0.46179844E-03 0.53570898E+02 0.75467711E-02 0.11716541E+00
        2 -1    0    0  502    0 0.00000000E+00 0.00000000E+00 0.55375023E+03 0.55375032E+03 0.32000000E+00 0.0000E+00 0.9000E+01
       -1 -1    0    0    0  501 0.00000000E+00 0.00000000E+00 -.74357646E+02 0.74358335E+02 0.32000000E+00 0.0000E+00 0.9000E+01
       25  1    1    2    0    0 0.66038318E+02 0.74424362E+02 0.74186269E+02 0.17614950E+03 0.12500000E+03 0.0000E+00 0.9000E+01
       24  1    1    2    0    0 -.26084035E+02 -.11010360E+03 0.34202868E+03 0.36912602E+03 0.80419002E+02 0.0000E+00 0.9000E+01
       21  1    1    2  502  501 -.39954283E+02 0.35679239E+02 0.63177629E+02 0.82833134E+02 0.75000000E+00 0.0000E+00 0.9000E+01
#aMCatNLO 1  0  0  2  5 0.94287265D+01 0.00000000D+00  -5  6  0 0.00000000D+00 0.00000000D+00 0.00000000D+00 0.00000000D+00 0.00000000D+00
  <mgrwgt>
 0.7125769364D-02    1    2    0
 0.202918231529940D+03 0.000000000000000D+00 0.000000000000000D+00 0.202918231529940D+03
 0.202918231529940D+03 0.000000000000000D+00 0.000000000000000D+00 -.202918231529940D+03
 0.184992442401405D+03 0.660401029340020D+02 0.744227682438188D+02 -.932585659177231D+02
 0.167273081201014D+03 -.260824207278378D+02 -.110105042593914D+03 0.933255306145061D+02
 0.535709394574601D+02 -.399576822061642D+02 0.356822743500947D+02 -.669646967829465D-01
 0.000000000000000D+00 0.000000000000000D+00 0.000000000000000D+00 -.000000000000000D+00
 0.232577764231661D+03 0.000000000000000D+00 0.000000000000000D+00 0.232577764231661D+03
 0.738606719688067D+03 0.000000000000000D+00 0.000000000000000D+00 -.738606719688067D+03
 0.159306991552655D+03 0.168572585798952D+02 0.277919102203873D+02 -.932585659177231D+02
 0.219537899317044D+03 -.813379987890481D+02 -.162493533934996D+03 0.933255306145061D+02
 0.597109380687120D+02 -.561398899040546D+02 0.203397247359832D+02 -.669646967829465D-01
 0.532628654981316D+03 0.120620630113208D+03 0.114361898978625D+03 -.506028955456406D+03
0.107167529204D-04 0.000000000000D+00 0.000000000000D+00 0.466451796455D-05 0.000000000000D+00  6 2 -1 25 24 21 21 4 0.85192403D-01 0.11439698D-01 0.31003317D+05 0.31003317D+05 0.31003317D+05 0.12134018D+01  1  2 14  2  6  2       -1 0.712576936408D-02 0.100000000000D+01
  </mgrwgt>
  </event>
  <event>
  6     66 -.46179844E-03 0.14944720E+02 0.75467711E-02 0.12247415E+00
        4 -1    0    0  502    0 0.00000000E+00 0.00000000E+00 0.36921570E+02 0.36954090E+02 0.15500000E+01 0.0000E+00 0.9000E+01
       -3 -1    0    0    0  501 -.00000000E+00 -.00000000E+00 -.68145805E+03 0.68145823E+03 0.50000000E+00 0.0000E+00 0.9000E+01
       25  1    1    2    0    0 -.52428613E+02 -.18478008E+02 -.42738415E+03 0.44874537E+03 0.12500000E+03 0.0000E+00 0.9000E+01
       24  1    1    2    0    0 0.11454755E+02 0.19556979E+02 -.52983346E+02 0.98935018E+02 0.80419002E+02 0.0000E+00 0.9000E+01
        3  1    1    2  502    0 0.23516074E+02 -.75716215E+01 -.12418631E+03 0.12662080E+03 0.50000000E+00 0.0000E+00 0.9000E+01
       -3  1    1    2    0  501 0.17457784E+02 0.64926511E+01 -.39982671E+02 0.44111141E+02 0.50000000E+00 0.0000E+00 0.9000E+01
#aMCatNLO 2  0  0  5  1 0.10820355D+02 0.00000000D+00  -5  6  0 0.00000000D+00 0.00000000D+00 0.00000000D+00 0.00000000D+00 0.00000000D+00
  <mgrwgt>
 -.2201084693D-03    3    2    0
 0.158657644193506D+03 0.000000000000000D+00 0.000000000000000D+00 0.158657644193506D+03
 0.158657644193506D+03 -.000000000000000D+00 -.000000000000000D+00 -.158657644193506D+03
 0.148132172822632D+03 -.544881453064527D+02 -.184237743860436D+02 -.548611627983702D+02
 0.116919423820333D+03 0.983152521681430D+01 0.195997234895639D+02 0.819885825170303D+02
 0.522636917440465D+02 0.446566200896384D+02 -.117594910352037D+01 -.271274197186601D+02
 0.000000000000000D+00 0.000000000000000D+00 0.000000000000000D+00 0.000000000000000D+00
 0.158657644193506D+03 0.000000000000000D+00 0.000000000000000D+00 0.158657644193506D+03
 0.158657644193506D+03 -.000000000000000D+00 -.000000000000000D+00 -.158657644193506D+03
 0.147862807608999D+03 -.524181873838137D+02 -.184782828812805D+02 -.561185937739944D+02
 0.116368740597009D+03 0.114629605995678D+02 0.195567626704973D+02 0.809975394805669D+02
 0.341252596976951D+02 0.231905062485770D+02 -.761867939886884D+01 -.238472114425796D+02
 0.189584804833090D+02 0.177647205356689D+02 0.654019960965205D+01 -.103173426399283D+01
-.503759832094D-05 0.000000000000D+00 0.000000000000D+00 0.854462488488D-05 0.000000000000D+00  6 4 -3 25 24 3 -3 4 0.56827572D-02 0.10484222D+00 0.17383461D+05 0.17383461D+05 0.17383461D+05 0.12405868D+01  1  2 13  6  6  5       21 -.369931495686D-03 0.100000000000D+01
-.475848802882D-05 0.000000000000D+00 0.000000000000D+00 0.854462488488D-05 0.000000000000D+00  6 4 -3 25 24 3 -3 4 0.56827572D-02 0.10484222D+00 0.17383461D+05 0.17383461D+05 0.17383461D+05 0.12405868D+01  1  2 13  6  6  5       21 -.349435282760D-03 0.100000000000D+01
0.679872584345D-05 0.000000000000D+00 0.000000000000D+00 0.853485223212D-05 0.102519218783D-07  6 4 -3 25 24 3 -3 4 0.56827572D-02 0.10484222D+00 0.17383461D+05 0.17383461D+05 0.17383461D+05 0.12405868D+01  1  2  1  6  6  5       21 0.499258309178D-03 0.100000000000D+01
  </mgrwgt>
  </event>
  <event>
  6     66 0.46179844E-03 0.34386672E+02 0.75467711E-02 0.11363155E+00
        2 -1    0    0  502    0 0.00000000E+00 0.00000000E+00 0.85945896E+03 0.85945902E+03 0.32000000E+00 0.0000E+00 0.9000E+01
       -1 -1    0    0    0  503 0.00000000E+00 0.00000000E+00 -.68385701E+02 0.68386450E+02 0.32000000E+00 0.0000E+00 0.9000E+01
       25  1    1    2    0    0 0.13129296E+02 0.17167585E+03 0.45834840E+03 0.50532487E+03 0.12500000E+03 0.0000E+00 0.9000E+01
       24  1    1    2    0    0 -.23169713E+02 -.13852872E+03 0.32392363E+03 0.36210603E+03 0.80419002E+02 0.0000E+00 0.9000E+01
       21  1    1    2  502  501 -.34314193E+01 -.42424824E+02 0.10799478E+02 0.43918465E+02 0.75000000E+00 0.0000E+00 0.9000E+01
       21  1    1    2  501  503 0.13471836E+02 0.92776929E+01 -.19982470E+01 0.16496104E+02 0.75000000E+00 0.0000E+00 0.9000E+01
#aMCatNLO 2  0  0  2  2 0.16357443D+02 0.00000000D+00  -5  6  0 0.00000000D+00 0.00000000D+00 0.00000000D+00 0.00000000D+00 0.00000000D+00
  <mgrwgt>
 0.2665390033D+00    1    2    0
 0.224347769460848D+03 0.000000000000000D+00 0.000000000000000D+00 0.224347769460848D+03
 0.224347769460848D+03 0.000000000000000D+00 0.000000000000000D+00 -.224347769460848D+03
 0.220181888133619D+03 0.196766008520086D+02 0.176185956718163D+03 0.377677626594635D+02
 0.159379481618127D+03 -.183341718830451D+02 -.135197770413551D+03 0.178892208622941D+02
 0.691341691699514D+02 -.134242896896343D+01 -.409881863046117D+02 -.556569835217576D+02
 0.000000000000000D+00 0.000000000000000D+00 0.000000000000000D+00 -.000000000000000D+00
 0.226402605340430D+03 0.000000000000000D+00 0.000000000000000D+00 0.226402605340430D+03
 0.259595601905295D+03 0.000000000000000D+00 0.000000000000000D+00 -.259595601905295D+03
 0.216094369123350D+03 0.131292984182312D+02 0.171677004847947D+03 0.377677626594635D+02
 0.162831316982916D+03 -.231696666201043D+02 -.138527846159801D+03 0.178892208622941D+02
 0.700679136300785D+02 -.343146801324656D+01 -.424268515565911D+02 -.556569835217576D+02
 0.370046075093816D+02 0.134718362151197D+02 0.927769286844568D+01 -.331929965648653D+02
0.633113493356D-03 0.000000000000D+00 0.000000000000D+00 0.105207936808D-04 0.818248355167D-07  6 2 -1 25 24 21 21 4 0.13222232D+00 0.10520764D-01 0.46988547D+05 0.46988547D+05 0.46988547D+05 0.11949628D+01  1  2  1  2  6  2       -1 0.266539003310D+00 0.100000000000D+01
  </mgrwgt>
  </event>
  <event>
  5     66 0.46179844E-03 0.49825206E+02 0.75467711E-02 0.11890615E+00
        2 -1    0    0  502    0 0.00000000E+00 0.00000000E+00 0.84950833E+02 0.84951436E+02 0.32000000E+00 0.0000E+00 0.9000E+01
       -1 -1    0    0    0  501 -.00000000E+00 -.00000000E+00 -.42303537E+03 0.42303549E+03 0.32000000E+00 0.0000E+00 0.9000E+01
       25  1    1    2    0    0 -.54213948E+02 0.67228765E+02 -.19457335E+03 0.24686565E+03 0.12500000E+03 0.0000E+00 0.9000E+01
       24  1    1    2    0    0 0.81816825E+02 -.25750879E+02 -.92830354E+01 0.11794275E+03 0.80419002E+02 0.0000E+00 0.9000E+01
       21  1    1    2  502  501 -.27602877E+02 -.41477886E+02 -.13422815E+03 0.14317853E+03 0.75000000E+00 0.0000E+00 0.9000E+01
#aMCatNLO 1  0  0  5  1 0.12298505D+01 0.00000000D+00  -5  6  0 0.00000000D+00 0.00000000D+00 0.00000000D+00 0.00000000D+00 0.00000000D+00
  <mgrwgt>
 0.4070293778D-01   25    2    0
 0.189571598204834D+03 0.000000000000000D+00 0.000000000000000D+00 0.189571598204834D+03
 0.189571598204834D+03 -.000000000000000D+00 -.000000000000000D+00 -.189571598204834D+03
 0.157255191342032D+03 -.542133288784217D+02 0.672296945675689D+02 -.405620308205894D+02
 0.149746186372223D+03 0.818174140050381D+02 -.257499932858776D+02 0.927337748070225D+02
 0.721418186954124D+02 -.276040851266164D+02 -.414797012816913D+02 -.521717439864331D+02
 0.000000000000000D+00 0.000000000000000D+00 -.000000000000000D+00 0.000000000000000D+00
 0.189571598204834D+03 0.000000000000000D+00 0.000000000000000D+00 0.189571598204834D+03
 0.189571598204834D+03 -.000000000000000D+00 -.000000000000000D+00 -.189571598204834D+03
 0.157256587405515D+03 -.542206769877158D+02 0.672186528185992D+02 -.405759187533036D+02
 0.149735982727790D+03 0.818104170406670D+02 -.257605073815508D+02 0.927205505385065D+02
 0.471352520988277D+02 -.186617713468144D+02 -.261295065861919D+02 -.345067988399593D+02
 0.250153741775347D+02 -.892796870613684D+01 -.153286388508565D+02 -.176378329452436D+02
0.129559119772D-04 0.000000000000D+00 0.000000000000D+00 0.687064907725D-05 0.000000000000D+00  6 2 -1 25 24 21 21 2 0.13069415D-01 0.65082420D-01 0.25493902D+05 0.25493902D+05 0.25493902D+05 0.12223878D+01  1  2  2  3  6  5       21 0.248498570703D-02 0.100000000000D+01
0.165431003515D-06 0.683702258698D-06 -.497541133626D-07 0.687064907725D-05 0.000000000000D+00  6 2 -1 25 24 21 21 4 0.13069415D-01 0.65082420D-01 0.25493902D+05 0.25493902D+05 0.25493902D+05 0.12223878D+01  1  2  3  3  6  5       21 0.474122767612D-04 0.100000000000D+01
0.308752515086D-06 0.000000000000D+00 0.000000000000D+00 0.687064907725D-05 0.000000000000D+00  6 2 -1 25 24 21 21 4 0.13069415D-01 0.65082420D-01 0.25493902D+05 0.25493902D+05 0.25493902D+05 0.12223878D+01  1  2 15  3  6  5       21 0.884880063892D-04 0.100000000000D+01
0.725368758012D-07 0.000000000000D+00 0.000000000000D+00 0.687058871312D-05 0.000000000000D+00  6 2 -1 25 24 21 21 4 0.13069415D-01 0.65082420D-01 0.25496849D+05 0.25496849D+05 0.25496849D+05 0.12223824D+01  1  2 12  3  6  5       21 0.207886250943D-04 0.100000000000D+01
0.724646244992D-07 0.000000000000D+00 0.000000000000D+00 0.687058871312D-05 0.000000000000D+00  6 2 -1 25 24 21 21 4 0.13069415D-01 0.65082420D-01 0.25496849D+05 0.25496849D+05 0.25496849D+05 0.12223824D+01  1  2 12  3  6  5       21 0.207679183129D-04 0.100000000000D+01
-.455085978477D-02 0.000000000000D+00 0.000000000000D+00 0.687064907725D-05 0.000000000000D+00  6 2 -1 25 24 21 21 4 0.13069415D-01 0.65082420D-01 0.25493902D+05 0.25493902D+05 0.25493902D+05 0.12223878D+01  1  2  4  3  6  5       21 -.130426956878D+01 0.100000000000D+01
-.301175018408D-02 0.000000000000D+00 0.000000000000D+00 0.687064907725D-05 0.000000000000D+00  6 2 -1 25 24 21 21 4 0.13069415D-01 0.65082420D-01 0.25493902D+05 0.25493902D+05 0.25493902D+05 0.12223878D+01  1  2  5  3  6  5       21 -.863163072396D+00 0.100000000000D+01
0.473542471846D-02 0.000000000000D+00 -.000000000000D+00 0.687064907725D-05 0.000000000000D+00  6 2 -1 25 24 21 21 4 0.13069415D-01 0.65082420D-01 0.25493902D+05 0.25493902D+05 0.25493902D+05 0.12223878D+01  1  2  6  3  6  5       21 0.135716560115D+01 0.100000000000D+01
0.296447391756D-02 0.000000000000D+00 0.000000000000D+00 0.687064907725D-05 0.232216719977D-04  6 2 -1 25 24 21 21 4 0.13069415D-01 0.65082420D-01 0.25496849D+05 0.25496849D+05 0.25496849D+05 0.12223824D+01  1  2 11  3  6  5       21 0.849600099166D+00 0.100000000000D+01
0.208690419306D-08 0.000000000000D+00 0.000000000000D+00 0.687058871312D-05 0.000000000000D+00  6 2 -1 25 24 1 -1 4 0.13069415D-01 0.65082420D-01 0.25496849D+05 0.25496849D+05 0.25496849D+05 0.12223824D+01  1  2 12  6  6  5       21 0.598093981826D-06 0.100000000000D+01
0.208521783283D-08 0.000000000000D+00 0.000000000000D+00 0.687058871312D-05 0.000000000000D+00  6 2 -1 25 24 1 -1 4 0.13069415D-01 0.65082420D-01 0.25496849D+05 0.25496849D+05 0.25496849D+05 0.12223824D+01  1  2 12  6  6  5       21 0.597610681296D-06 0.100000000000D+01
-.891616125939D-04 0.000000000000D+00 0.000000000000D+00 0.687064907725D-05 0.000000000000D+00  6 2 -1 25 24 1 -1 4 0.13069415D-01 0.65082420D-01 0.25493902D+05 0.25493902D+05 0.25493902D+05 0.12223878D+01  1  2  5  6  6  5       21 -.255535840499D-01 0.100000000000D+01
0.880901504897D-04 0.000000000000D+00 0.000000000000D+00 0.687064907725D-05 0.108322078411D-05  6 2 -1 25 24 1 -1 4 0.13069415D-01 0.65082420D-01 0.25496849D+05 0.25496849D+05 0.25496849D+05 0.12223824D+01  1  2 11  6  6  5       21 0.252460985230D-01 0.100000000000D+01
0.208690419306D-08 0.000000000000D+00 0.000000000000D+00 0.687058871312D-05 0.000000000000D+00  6 2 -1 25 24 2 -2 4 0.13069415D-01 0.65082420D-01 0.25496849D+05 0.25496849D+05 0.25496849D+05 0.12223824D+01  1  2 12  7  6  5       21 0.598093981826D-06 0.100000000000D+01
0.208521783283D-08 0.000000000000D+00 0.000000000000D+00 0.687058871312D-05 0.000000000000D+00  6 2 -1 25 24 2 -2 4 0.13069415D-01 0.65082420D-01 0.25496849D+05 0.25496849D+05 0.25496849D+05 0.12223824D+01  1  2 12  7  6  5       21 0.597610681296D-06 0.100000000000D+01
-.891616125939D-04 0.000000000000D+00 0.000000000000D+00 0.687064907725D-05 0.000000000000D+00  6 2 -1 25 24 2 -2 4 0.13069415D-01 0.65082420D-01 0.25493902D+05 0.25493902D+05 0.25493902D+05 0.12223878D+01  1  2  5  7  6  5       21 -.255535840499D-01 0.100000000000D+01
0.880076540401D-04 0.000000000000D+00 0.000000000000D+00 0.687064907725D-05 0.108208352971D-05  6 2 -1 25 24 2 -2 4 0.13069415D-01 0.65082420D-01 0.25496849D+05 0.25496849D+05 0.25496849D+05 0.12223824D+01  1  2 11  7  6  5       21 0.252224555450D-01 0.100000000000D+01
0.208690419306D-08 0.000000000000D+00 0.000000000000D+00 0.687058871312D-05 0.000000000000D+00  6 2 -1 25 24 3 -3 4 0.13069415D-01 0.65082420D-01 0.25496849D+05 0.25496849D+05 0.25496849D+05 0.12223824D+01  1  2 12  8  6  5       21 0.598093981826D-06 0.100000000000D+01
0.208690419306D-08 0.000000000000D+00 0.000000000000D+00 0.687058871312D-05 0.000000000000D+00  6 2 -1 25 24 4 -4 4 0.13069415D-01 0.65082420D-01 0.25496849D+05 0.25496849D+05 0.25496849D+05 0.12223824D+01  1  2 12  8  6  5       21 0.598093981826D-06 0.100000000000D+01
0.208521783283D-08 0.000000000000D+00 0.000000000000D+00 0.687058871312D-05 0.000000000000D+00  6 2 -1 25 24 3 -3 4 0.13069415D-01 0.65082420D-01 0.25496849D+05 0.25496849D+05 0.25496849D+05 0.12223824D+01  1  2 12  8  6  5       21 0.597610681296D-06 0.100000000000D+01
0.208521783283D-08 0.000000000000D+00 0.000000000000D+00 0.687058871312D-05 0.000000000000D+00  6 2 -1 25 24 4 -4 4 0.13069415D-01 0.65082420D-01 0.25496849D+05 0.25496849D+05 0.25496849D+05 0.12223824D+01  1  2 12  8  6  5       21 0.597610681296D-06 0.100000000000D+01
-.891616125939D-04 0.000000000000D+00 0.000000000000D+00 0.687064907725D-05 0.000000000000D+00  6 2 -1 25 24 3 -3 4 0.13069415D-01 0.65082420D-01 0.25493902D+05 0.25493902D+05 0.25493902D+05 0.12223878D+01  1  2  5  8  6  5       21 -.255535840499D-01 0.100000000000D+01
-.891616125939D-04 0.000000000000D+00 0.000000000000D+00 0.687064907725D-05 0.000000000000D+00  6 2 -1 25 24 4 -4 4 0.13069415D-01 0.65082420D-01 0.25493902D+05 0.25493902D+05 0.25493902D+05 0.12223878D+01  1  2  5  8  6  5       21 -.255535840499D-01 0.100000000000D+01
0.880138026938D-04 0.000000000000D+00 0.000000000000D+00 0.687064907725D-05 0.108215569982D-05  6 2 -1 25 24 3 -3 4 0.13069415D-01 0.65082420D-01 0.25496849D+05 0.25496849D+05 0.25496849D+05 0.12223824D+01  1  2 11  8  6  5       21 0.252242177115D-01 0.100000000000D+01
0.880138026938D-04 0.000000000000D+00 0.000000000000D+00 0.687064907725D-05 0.108215569982D-05  6 2 -1 25 24 4 -4 4 0.13069415D-01 0.65082420D-01 0.25496849D+05 0.25496849D+05 0.25496849D+05 0.12223824D+01  1  2 11  8  6  5       21 0.252242177115D-01 0.100000000000D+01
  </mgrwgt>
  </event>
  <event>
  5     66 0.46179844E-03 0.76408063E+02 0.75467711E-02 0.11666094E+00
        2 -1    0    0  502    0 0.00000000E+00 0.00000000E+00 0.61812903E+03 0.61812912E+03 0.32000000E+00 0.0000E+00 0.9000E+01
       -1 -1    0    0    0  501 0.00000000E+00 0.00000000E+00 -.42927033E+02 0.42928225E+02 0.32000000E+00 0.0000E+00 0.9000E+01
       25  1    1    2    0    0 -.67738382E+02 -.20986636E+02 0.25738201E+03 0.29478709E+03 0.12500000E+03 0.0000E+00 0.9000E+01
       24  1    1    2    0    0 0.35645444E+01 0.62453548E+02 0.14401026E+03 0.17640670E+03 0.80419002E+02 0.0000E+00 0.9000E+01
       21  1    1    2  502  501 0.64173837E+02 -.41466912E+02 0.17380972E+03 0.18986355E+03 0.75000000E+00 0.0000E+00 0.9000E+01
#aMCatNLO 1  0  0  2  5 0.38217620D+02 0.00000000D+00  -5  6  0 0.00000000D+00 0.00000000D+00 0.00000000D+00 0.00000000D+00 0.00000000D+00
  <mgrwgt>
 0.7759891027D-01    9    4    0
 0.162895263341458D+03 0.000000000000000D+00 0.000000000000000D+00 0.162895263341458D+03
 0.162895263341458D+03 0.000000000000000D+00 0.000000000000000D+00 -.162895263341458D+03
 0.143726334993793D+03 -.677396779721515D+02 -.209857986787584D+02 0.178651974294054D+01
 0.103686487816778D+03 0.356360922943680D+01 0.624541521995309D+02 -.192471131265436D+02
 0.783777038723445D+02 0.641760687427146D+02 -.414683535207724D+02 0.174605933836031D+02
 0.000000000000000D+00 -.000000000000000D+00 0.000000000000000D+00 -.000000000000000D+00
 0.173709075560037D+03 0.000000000000000D+00 0.000000000000000D+00 0.173709075560037D+03
 0.201668485737549D+03 0.000000000000000D+00 0.000000000000000D+00 -.201668485737549D+03
 0.146558818894434D+03 -.664421915054992D+02 -.379042336802392D+02 0.178651974294054D+01
 0.971245511267541D+02 0.446117357915869D+01 0.507504585574712D+02 -.192471131265436D+02
 0.843411013048282D+02 0.649033723776380D+02 -.509519509146943D+02 0.174605933836031D+02
 0.473530899715695D+02 -.292235445129747D+01 0.381057260374624D+02 -.279594101775128D+02
 0.162895263341458D+03 0.000000000000000D+00 0.000000000000000D+00 0.162895263341458D+03
 0.162895263341458D+03 0.000000000000000D+00 0.000000000000000D+00 -.162895263341458D+03
 0.143726334993793D+03 -.677396779721515D+02 -.209857986787584D+02 0.178651974294054D+01
 0.103686487816778D+03 0.356360922943680D+01 0.624541521995309D+02 -.192471131265436D+02
 0.000000000000000D+00 -.000000000000000D+00 0.000000000000000D+00 -.000000000000000D+00
 0.783777038723445D+02 0.641760687427146D+02 -.414683535207724D+02 0.174605933836031D+02
 0.173709075560037D+03 0.000000000000000D+00 0.000000000000000D+00 0.173709075560037D+03
 0.201668485737549D+03 0.000000000000000D+00 0.000000000000000D+00 -.201668485737549D+03
 0.146558818894434D+03 -.664421915054992D+02 -.379042336802392D+02 0.178651974294054D+01
 0.971245511267541D+02 0.446117357915869D+01 0.507504585574712D+02 -.192471131265436D+02
 0.473530899715695D+02 -.292235445129747D+01 0.381057260374624D+02 -.279594101775128D+02
 0.843411013048282D+02 0.649033723776380D+02 -.509519509146943D+02 0.174605933836031D+02
0.401512146266D-04 0.000000000000D+00 0.000000000000D+00 0.428489993230D-05 0.000000000000D+00  6 2 -1 25 24 21 21 2 0.95096872D-01 0.66042570D-02 0.25922243D+05 0.25922243D+05 0.25922243D+05 0.12216145D+01  1  2  2  2  6  2       -1 0.373121153847D-01 0.100000000000D+01
-.173934916628D-05 0.211883780763D-05 -.154191236224D-06 0.428489993230D-05 0.000000000000D+00  6 2 -1 25 24 21 21 4 0.95096872D-01 0.66042570D-02 0.25922243D+05 0.25922243D+05 0.25922243D+05 0.12216145D+01  1  2  3  2  6  2       -1 -.241216114209D-02 0.100000000000D+01
0.192075525881D-05 0.000000000000D+00 0.000000000000D+00 0.428489993230D-05 0.000000000000D+00  6 2 -1 25 24 21 21 4 0.95096872D-01 0.66042570D-02 0.25922243D+05 0.25922243D+05 0.25922243D+05 0.12216145D+01  1  2 15  2  6  2       -1 0.266373841928D-02 0.100000000000D+01
0.609792769621D-04 0.000000000000D+00 0.000000000000D+00 0.420927832492D-05 0.000000000000D+00  6 2 -1 25 24 21 21 4 0.95096872D-01 0.88773007D-02 0.32847546D+05 0.32847546D+05 0.32847546D+05 0.12107867D+01  1  2 12  2  6  2       -1 0.524002925474D-01 0.100000000000D+01
-.396619519257D-04 0.000000000000D+00 0.000000000000D+00 0.428489993230D-05 0.000000000000D+00  6 2 -1 25 24 21 21 4 0.95096872D-01 0.66042570D-02 0.25922243D+05 0.25922243D+05 0.25922243D+05 0.12216145D+01  1  2  4  2  6  2       -1 -.550039181949D-01 0.100000000000D+01
-.143801855942D-03 0.000000000000D+00 -.361012506751D-04 0.428489993230D-05 0.000000000000D+00  6 2 -1 25 24 21 21 4 0.95096872D-01 0.87081746D-02 0.25922243D+05 0.25922243D+05 0.25922243D+05 0.12216145D+01  1  2  5  2  6  2       -1 -.131298397096D+00 0.100000000000D+01
0.149374906528D-03 0.000000000000D+00 0.347634267493D-04 0.428489993230D-05 0.000000000000D+00  6 2 -1 25 24 21 21 4 0.95096872D-01 0.66042570D-02 0.25922243D+05 0.25922243D+05 0.25922243D+05 0.12216145D+01  1  2  6  2  6  2       -1 0.207155844333D+00 0.100000000000D+01
0.233317045887D-05 0.000000000000D+00 0.000000000000D+00 0.420927832492D-05 0.000000000000D+00  6 2 21 25 24 1 21 4 0.95096872D-01 0.88773007D-02 0.32847546D+05 0.32847546D+05 0.32847546D+05 0.12107867D+01  3  4 12  5  5  2       -1 0.307511277935D-01 0.100000000000D+01
-.452795011957D-05 0.000000000000D+00 -.131553251582D-05 0.428489993230D-05 0.000000000000D+00  6 2 21 25 24 1 21 4 0.95096872D-01 0.87081746D-02 0.25922243D+05 0.25922243D+05 0.25922243D+05 0.12216145D+01  3  4  5  5  5  2       -1 -.639697317751D-01 0.100000000000D+01
  </mgrwgt>
  </event>
  <event>
  5     66 -.46179844E-03 0.33093709E+02 0.75467711E-02 0.12266025E+00
        2 -1    0    0  502    0 0.00000000E+00 0.00000000E+00 0.15005467E+03 0.15005501E+03 0.32000000E+00 0.0000E+00 0.9000E+01
       -1 -1    0    0    0  501 -.00000000E+00 -.00000000E+00 -.18053109E+03 0.18053137E+03 0.32000000E+00 0.0000E+00 0.9000E+01
       25  1    1    2    0    0 -.46613443E+02 -.13218221E+02 -.11381719E+03 0.17586042E+03 0.12500000E+03 0.0000E+00 0.9000E+01
       24  1    1    2    0    0 0.28402838E+02 0.40842880E+02 0.74735700E+02 0.12053009E+03 0.80419002E+02 0.0000E+00 0.9000E+01
       21  1    1    2  502  501 0.18210605E+02 -.27624659E+02 0.86050675E+01 0.34195871E+02 0.75000000E+00 0.0000E+00 0.9000E+01
#aMCatNLO 1  0  0  5  2 0.25525276D+01 0.00000000D+00  -5  6  0 0.00000000D+00 0.00000000D+00 0.00000000D+00 0.00000000D+00 0.00000000D+00
  <mgrwgt>
 -.2495001756D+00   25    2    0
 0.164589292864585D+03 0.000000000000000D+00 0.000000000000000D+00 0.164589292864585D+03
 0.164589292864585D+03 -.000000000000000D+00 -.000000000000000D+00 -.164589292864585D+03
 0.166076088614072D+03 -.466155363192414D+02 -.132150451429785D+02 -.980235765766968D+02
 0.127964550851111D+03 0.284012249627979D+02 0.408453265065362D+02 0.862133402864259D+02
 0.351379462639873D+02 0.182143113564435D+02 -.276302813635577D+02 0.118102362902708D+02
 0.000000000000000D+00 0.000000000000000D+00 0.000000000000000D+00 0.000000000000000D+00
 0.164589292864585D+03 0.000000000000000D+00 0.000000000000000D+00 0.164589292864585D+03
 0.164589292864585D+03 -.000000000000000D+00 -.000000000000000D+00 -.164589292864585D+03
 0.165989086453866D+03 -.464547278868871D+02 -.134589842161960D+02 -.979193077110555D+02
 0.127986413076420D+03 0.285251737426131D+02 0.406573018486756D+02 0.862937091979297D+02
 0.676950646363079D+01 0.326163343337280D+01 -.592698688040033D+01 -.242469847622794D+00
 0.284335797352539D+02 0.146679207109012D+02 -.212713307520793D+02 0.118680683607486D+02
0.147164567163D-03 0.000000000000D+00 0.000000000000D+00 0.120759624885D-04 0.000000000000D+00  6 2 -1 25 24 21 21 2 0.23085382D-01 0.27774061D-01 0.17124201D+05 0.17124201D+05 0.17124201D+05 0.12413181D+01  1  2  2  3  6  5       21 0.685018696363D-01 0.100000000000D+01
0.111189577045D-04 0.776608757042D-05 -.565150687228D-06 0.120759624885D-04 0.000000000000D+00  6 2 -1 25 24 21 21 4 0.23085382D-01 0.27774061D-01 0.17124201D+05 0.17124201D+05 0.17124201D+05 0.12413181D+01  1  2  3  3  6  5       21 0.797497719250D-02 0.100000000000D+01
0.348652023358D-05 0.000000000000D+00 0.000000000000D+00 0.120759624885D-04 0.000000000000D+00  6 2 -1 25 24 21 21 4 0.23085382D-01 0.27774061D-01 0.17124201D+05 0.17124201D+05 0.17124201D+05 0.12413181D+01  1  2 15  3  6  5       21 0.250067677950D-02 0.100000000000D+01
0.294861253957D-06 0.000000000000D+00 0.000000000000D+00 0.120800646749D-04 0.000000000000D+00  6 2 -1 25 24 21 21 4 0.23085382D-01 0.27774061D-01 0.17050275D+05 0.17050275D+05 0.17050275D+05 0.12415290D+01  1  2 12  3  6  5       21 0.211608276766D-03 0.100000000000D+01
0.297153132100D-06 0.000000000000D+00 0.000000000000D+00 0.120800646749D-04 0.000000000000D+00  6 2 -1 25 24 21 21 4 0.23085382D-01 0.27774061D-01 0.17050275D+05 0.17050275D+05 0.17050275D+05 0.12415290D+01  1  2 12  3  6  5       21 0.213253051649D-03 0.100000000000D+01
-.136657719966D-02 0.000000000000D+00 0.000000000000D+00 0.120759624885D-04 0.000000000000D+00  6 2 -1 25 24 21 21 4 0.23085382D-01 0.27774061D-01 0.17124201D+05 0.17124201D+05 0.17124201D+05 0.12413181D+01  1  2  4  3  6  5       21 -.980165793299D+00 0.100000000000D+01
-.100636960408D-03 0.000000000000D+00 0.000000000000D+00 0.120759624885D-04 0.000000000000D+00  6 2 -1 25 24 21 21 4 0.23085382D-01 0.27774061D-01 0.17124201D+05 0.17124201D+05 0.17124201D+05 0.12413181D+01  1  2  5  3  6  5       21 -.721809980129D-01 0.100000000000D+01
0.903932699260D-03 0.000000000000D+00 -.000000000000D+00 0.120759624885D-04 0.000000000000D+00  6 2 -1 25 24 21 21 4 0.23085382D-01 0.27774061D-01 0.17124201D+05 0.17124201D+05 0.17124201D+05 0.12413181D+01  1  2  6  3  6  5       21 0.648337987402D+00 0.100000000000D+01
0.110035835798D-03 0.000000000000D+00 0.000000000000D+00 0.120759624885D-04 0.133637376467D-04  6 2 -1 25 24 21 21 4 0.23085382D-01 0.27774061D-01 0.17050275D+05 0.17050275D+05 0.17050275D+05 0.12415290D+01  1  2 11  3  6  5       21 0.789676272596D-01 0.100000000000D+01
0.732823089614D-07 0.000000000000D+00 0.000000000000D+00 0.120800646749D-04 0.000000000000D+00  6 2 -1 25 24 1 -1 4 0.23085382D-01 0.27774061D-01 0.17050275D+05 0.17050275D+05 0.17050275D+05 0.12415290D+01  1  2 12  6  6  5       21 0.525913218800D-04 0.100000000000D+01
0.736069792306D-07 0.000000000000D+00 0.000000000000D+00 0.120800646749D-04 0.000000000000D+00  6 2 -1 25 24 1 -1 4 0.23085382D-01 0.27774061D-01 0.17050275D+05 0.17050275D+05 0.17050275D+05 0.12415290D+01  1  2 12  6  6  5       21 0.528243227076D-04 0.100000000000D+01
-.147980517809D-04 0.000000000000D+00 0.000000000000D+00 0.120759624885D-04 0.000000000000D+00  6 2 -1 25 24 1 -1 4 0.23085382D-01 0.27774061D-01 0.17124201D+05 0.17124201D+05 0.17124201D+05 0.12413181D+01  1  2  5  6  6  5       21 -.106137759116D-01 0.100000000000D+01
0.132042734157D-04 0.000000000000D+00 0.000000000000D+00 0.120759624885D-04 0.158232821372D-06  6 2 -1 25 24 1 -1 4 0.23085382D-01 0.27774061D-01 0.17050275D+05 0.17050275D+05 0.17050275D+05 0.12415290D+01  1  2 11  6  6  5       21 0.947609598059D-02 0.100000000000D+01
0.732823089614D-07 0.000000000000D+00 0.000000000000D+00 0.120800646749D-04 0.000000000000D+00  6 2 -1 25 24 2 -2 4 0.23085382D-01 0.27774061D-01 0.17050275D+05 0.17050275D+05 0.17050275D+05 0.12415290D+01  1  2 12  7  6  5       21 0.525913218800D-04 0.100000000000D+01
0.736069792306D-07 0.000000000000D+00 0.000000000000D+00 0.120800646749D-04 0.000000000000D+00  6 2 -1 25 24 2 -2 4 0.23085382D-01 0.27774061D-01 0.17050275D+05 0.17050275D+05 0.17050275D+05 0.12415290D+01  1  2 12  7  6  5       21 0.528243227076D-04 0.100000000000D+01
-.147980517809D-04 0.000000000000D+00 0.000000000000D+00 0.120759624885D-04 0.000000000000D+00  6 2 -1 25 24 2 -2 4 0.23085382D-01 0.27774061D-01 0.17124201D+05 0.17124201D+05 0.17124201D+05 0.12413181D+01  1  2  5  7  6  5       21 -.106137759116D-01 0.100000000000D+01
0.135040509847D-04 0.000000000000D+00 0.000000000000D+00 0.120759624885D-04 0.162205207951D-06  6 2 -1 25 24 2 -2 4 0.23085382D-01 0.27774061D-01 0.17050275D+05 0.17050275D+05 0.17050275D+05 0.12415290D+01  1  2 11  7  6  5       21 0.969123246912D-02 0.100000000000D+01
0.732823089614D-07 0.000000000000D+00 0.000000000000D+00 0.120800646749D-04 0.000000000000D+00  6 2 -1 25 24 3 -3 4 0.23085382D-01 0.27774061D-01 0.17050275D+05 0.17050275D+05 0.17050275D+05 0.12415290D+01  1  2 12  8  6  5       21 0.525913218800D-04 0.100000000000D+01
0.732823089614D-07 0.000000000000D+00 0.000000000000D+00 0.120800646749D-04 0.000000000000D+00  6 2 -1 25 24 4 -4 4 0.23085382D-01 0.27774061D-01 0.17050275D+05 0.17050275D+05 0.17050275D+05 0.12415290D+01  1  2 12  8  6  5       21 0.525913218800D-04 0.100000000000D+01
0.736069792306D-07 0.000000000000D+00 0.000000000000D+00 0.120800646749D-04 0.000000000000D+00  6 2 -1 25 24 3 -3 4 0.23085382D-01 0.27774061D-01 0.17050275D+05 0.17050275D+05 0.17050275D+05 0.12415290D+01  1  2 12  8  6  5       21 0.528243227076D-04 0.100000000000D+01
0.736069792306D-07 0.000000000000D+00 0.000000000000D+00 0.120800646749D-04 0.000000000000D+00  6 2 -1 25 24 4 -4 4 0.23085382D-01 0.27774061D-01 0.17050275D+05 0.17050275D+05 0.17050275D+05 0.12415290D+01  1  2 12  8  6  5       21 0.528243227076D-04 0.100000000000D+01
-.147980517809D-04 0.000000000000D+00 0.000000000000D+00 0.120759624885D-04 0.000000000000D+00  6 2 -1 25 24 3 -3 4 0.23085382D-01 0.27774061D-01 0.17124201D+05 0.17124201D+05 0.17124201D+05 0.12413181D+01  1  2  5  8  6  5       21 -.106137759116D-01 0.100000000000D+01
-.147980517809D-04 0.000000000000D+00 0.000000000000D+00 0.120759624885D-04 0.000000000000D+00  6 2 -1 25 24 4 -4 4 0.23085382D-01 0.27774061D-01 0.17124201D+05 0.17124201D+05 0.17124201D+05 0.12413181D+01  1  2  5  8  6  5       21 -.106137759116D-01 0.100000000000D+01
0.132408765428D-04 0.000000000000D+00 0.000000000000D+00 0.120759624885D-04 0.158642295781D-06  6 2 -1 25 24 3 -3 4 0.23085382D-01 0.27774061D-01 0.17050275D+05 0.17050275D+05 0.17050275D+05 0.12415290D+01  1  2 11  8  6  5       21 0.950236435100D-02 0.100000000000D+01
0.132408765428D-04 0.000000000000D+00 0.000000000000D+00 0.120759624885D-04 0.158642295781D-06  6 2 -1 25 24 4 -4 4 0.23085382D-01 0.27774061D-01 0.17050275D+05 0.17050275D+05 0.17050275D+05 0.12415290D+01  1  2 11  8  6  5       21 0.950236435100D-02 0.100000000000D+01
  </mgrwgt>
  </event>
  <event>
  6     66 0.46179844E-03 0.18737825E+02 0.75467711E-02 0.12034432E+00
        2 -1    0    0  503    0 0.00000000E+00 0.00000000E+00 0.33552682E+03 0.33552697E+03 0.32000000E+00 0.0000E+00 0.9000E+01
       -1 -1    0    0    0  501 0.00000000E+00 0.00000000E+00 -.15673560E+03 0.15673593E+03 0.32000000E+00 0.0000E+00 0.9000E+01
       25  1    1    2    0    0 0.61477188E+02 0.33109598E+01 -.94635709E+02 0.16843789E+03 0.12500000E+03 0.0000E+00 0.9000E+01
       24  1    1    2    0    0 -.91910703E+02 0.90353280E+01 0.17462689E+03 0.21328615E+03 0.80419002E+02 0.0000E+00 0.9000E+01
       21  1    1    2  502  501 0.20694791E+02 -.11389783E+02 0.19517593E+02 0.30651271E+02 0.75000000E+00 0.0000E+00 0.9000E+01
       21  1    1    2  503  502 0.97387250E+01 -.95650462E+00 0.79282443E+02 0.79887583E+02 0.75000000E+00 0.0000E+00 0.9000E+01
#aMCatNLO 2  0  0  1  5 0.97855846D+01 0.00000000D+00  -5  6  0 0.00000000D+00 0.00000000D+00 0.00000000D+00 0.00000000D+00 0.00000000D+00
  <mgrwgt>
 0.3914521211D+00    2    2    0
 0.200034777266286D+03 0.000000000000000D+00 0.000000000000000D+00 0.200034777266286D+03
 0.200034777266286D+03 0.000000000000000D+00 0.000000000000000D+00 -.200034777266286D+03
 0.198646438713611D+03 0.662891783833296D+02 0.284010043715710D+01 -.139402604969815D+03
 0.174153332711682D+03 -.876486733902961D+02 0.861826718255871D+01 0.126907851860736D+03
 0.272697831072785D+02 0.213594950069665D+02 -.114583676197158D+02 0.124947531090788D+02
 0.000000000000000D+00 0.000000000000000D+00 -.000000000000000D+00 0.000000000000000D+00
 0.262310960403233D+03 0.000000000000000D+00 0.000000000000000D+00 0.262310960403233D+03
 0.200479383366877D+03 0.000000000000000D+00 0.000000000000000D+00 -.200479383366877D+03
 0.197098993292638D+03 0.614731662420964D+02 0.331311285239927D+01 -.139402604969815D+03
 0.176359620683737D+03 -.919142302424726D+02 0.903721574203725D+01 0.126907851860736D+03
 0.267305989341940D+02 0.207023389806176D+02 -.113938239786081D+02 0.124947531090788D+02
 0.626011308595404D+02 0.973872501975864D+01 -.956504615828445D+00 0.618315770363552D+02
-.492746002218D-02 0.000000000000D+00 0.000000000000D+00 0.159349425329D-04 0.000000000000D+00  6 2 -1 25 24 21 21 4 0.52914512D-01 0.24059461D-01 0.21788175D+05 0.21788175D+05 0.21788175D+05 0.12297525D+01  1  2 13  1  6  1        2 -.177323258769D+01 0.100000000000D+01
0.587996134476D-02 0.000000000000D+00 0.000000000000D+00 0.160216391949D-04 0.866845239954D-06  6 2 -1 25 24 21 21 4 0.51618971D-01 0.24112937D-01 0.21788175D+05 0.21788175D+05 0.21788175D+05 0.12297525D+01  1  2  1  1  6  1        2 0.216468470883D+01 0.100000000000D+01
  </mgrwgt>
  </event>
  <event>
  6     66 -.46179844E-03 0.24712439E+02 0.75467711E-02 0.11006656E+00
        2 -1    0    0  503    0 0.00000000E+00 0.00000000E+00 0.68792100E+03 0.68792108E+03 0.32000000E+00 0.0000E+00 0.9000E+01
       -1 -1    0    0    0  501 0.00000000E+00 0.00000000E+00 -.14962668E+03 0.14962702E+03 0.32000000E+00 0.0000E+00 0.9000E+01
       25  1    1    2    0    0 0.22302608E+03 0.72972342E+02 0.22242821E+03 0.34664809E+03 0.12500000E+03 0.0000E+00 0.9000E+01
       24  1    1    2    0    0 -.20362027E+03 -.80556527E+02 0.11426572E+03 0.25975843E+03 0.80419002E+02 0.0000E+00 0.9000E+01
       21  1    1    2  502  501 -.24509313E+02 0.18654478E+02 0.16877560E+01 0.30856231E+02 0.75000000E+00 0.0000E+00 0.9000E+01
       21  1    1    2  503  502 0.51035115E+01 -.11070293E+02 0.19991263E+03 0.20028535E+03 0.75000000E+00 0.0000E+00 0.9000E+01
#aMCatNLO 2  0  0  1  5 0.12190045D+02 0.00000000D+00  -5  6  0 0.00000000D+00 0.00000000D+00 0.00000000D+00 0.00000000D+00 0.00000000D+00
  <mgrwgt>
 -.5445136584D+00    2    2    0
 0.269931960305682D+03 0.000000000000000D+00 0.000000000000000D+00 0.269931960305682D+03
 0.269931960305682D+03 0.000000000000000D+00 0.000000000000000D+00 -.269931960305682D+03
 0.270386375242485D+03 0.225581384612147D+03 0.674335139347242D+02 0.452719784375707D+02
 0.234727036808513D+03 -.201398132249032D+03 -.853731934364152D+02 -.279244699789307D+02
 0.347505085603662D+02 -.241832523631150D+02 0.179396795016909D+02 -.173475084586400D+02
 0.000000000000000D+00 0.000000000000000D+00 -.000000000000000D+00 0.000000000000000D+00
 0.380750151056875D+03 0.000000000000000D+00 0.000000000000000D+00 0.380750151056875D+03
 0.270336199615730D+03 0.000000000000000D+00 0.000000000000000D+00 -.270336199615730D+03
 0.269705571536951D+03 0.223028876372328D+03 0.729702925204380D+02 0.452719784375707D+02
 0.234940111924637D+03 -.203617808499090D+03 -.805583780572462D+02 -.279244699789307D+02
 0.353558443010360D+02 -.245145793610632D+02 0.186583781520969D+02 -.173475084586400D+02
 0.111084822909981D+03 0.510351148782485D+01 -.110702926152887D+02 0.110413951441145D+03
-.666045847069D-01 0.000000000000D+00 0.000000000000D+00 0.164965574023D-04 0.000000000000D+00  6 2 -1 25 24 21 21 4 0.10648365D+00 0.22984993D-01 0.73481929D+05 0.73481929D+05 0.73481929D+05 0.11760685D+01  1  2 13  1  6  1        2 -.992167451671D+01 0.100000000000D+01
0.626378215624D-01 0.000000000000D+00 0.000000000000D+00 0.165503083802D-04 0.406394477934D-06  6 2 -1 25 24 21 21 4 0.10583354D+00 0.23019414D-01 0.73481929D+05 0.73481929D+05 0.73481929D+05 0.11760685D+01  1  2  1  1  6  1        2 0.937716085827D+01 0.100000000000D+01
  </mgrwgt>
  </event>
  <event>
  5     66 -.46179844E-03 0.20980589E+02 0.75467711E-02 0.11409210E+00
        2 -1    0    0  502    0 0.00000000E+00 0.00000000E+00 0.78281212E+03 0.78281218E+03 0.32000000E+00 0.0000E+00 0.9000E+01
       -1 -1    0    0    0  501 0.00000000E+00 0.00000000E+00 -.61270472E+02 0.61271307E+02 0.32000000E+00 0.0000E+00 0.9000E+01
       25  1    1    2    0    0 -.31251308E+02 -.15631463E+03 0.51117618E+03 0.54985180E+03 0.12500000E+03 0.0000E+00 0.9000E+01
       24  1    1    2    0    0 0.27685725E+02 0.13564076E+03 0.21921166E+03 0.27145144E+03 0.80419002E+02 0.0000E+00 0.9000E+01
       21  1    1    2  502  501 0.35655825E+01 0.20673872E+02 -.88461962E+01 0.22780255E+02 0.75000000E+00 0.0000E+00 0.9000E+01
#aMCatNLO 1  0  0  2  2 0.10040640D+03 0.00000000D+00  -5  6  0 0.00000000D+00 0.00000000D+00 0.00000000D+00 0.00000000D+00 0.00000000D+00
  <mgrwgt>
 -.1527655992D+01    5    4    0
 0.219006045901160D+03 0.000000000000000D+00 0.000000000000000D+00 0.219006045901160D+03
 0.219006045901160D+03 0.000000000000000D+00 0.000000000000000D+00 -.219006045901160D+03
 0.217543197860441D+03 -.312514532591164D+02 -.156315478753330D+03 0.793023373341388D+02
 0.161997779364431D+03 0.276856165898223D+02 0.135640133252950D+03 -.247249964570238D+02
 0.584711145774473D+02 0.356583666929413D+01 0.206753455003801D+02 -.545773408771150D+02
 0.000000000000000D+00 -.000000000000000D+00 -.000000000000000D+00 -.000000000000000D+00
 0.220875652926698D+03 0.000000000000000D+00 0.000000000000000D+00 0.220875652926698D+03
 0.478937470488256D+03 0.000000000000000D+00 0.000000000000000D+00 -.478937470488256D+03
 0.208549379985102D+03 -.179576261127637D+02 -.145796113973957D+03 0.793023373341388D+02
 0.170949711451801D+03 0.380733741379656D+02 0.143859934043618D+03 -.247249964570238D+02
 0.599018557649691D+02 0.725900075698886D+01 0.235977349523294D+02 -.545773408771150D+02
 0.260412176213083D+03 -.273747487821908D+02 -.216615550219903D+02 -.258061817561558D+03
 0.219006045901160D+03 0.000000000000000D+00 0.000000000000000D+00 0.219006045901160D+03
 0.219006045901160D+03 0.000000000000000D+00 0.000000000000000D+00 -.219006045901160D+03
 0.217543197860441D+03 -.312514532591164D+02 -.156315478753330D+03 0.793023373341388D+02
 0.161997779364431D+03 0.276856165898223D+02 0.135640133252950D+03 -.247249964570238D+02
 0.000000000000000D+00 -.000000000000000D+00 -.000000000000000D+00 -.000000000000000D+00
 0.584711145774473D+02 0.356583666929413D+01 0.206753455003801D+02 -.545773408771150D+02
 0.220875652926698D+03 0.000000000000000D+00 0.000000000000000D+00 0.220875652926698D+03
 0.478937470488256D+03 0.000000000000000D+00 0.000000000000000D+00 -.478937470488256D+03
 0.208549379985102D+03 -.179576261127637D+02 -.145796113973957D+03 0.793023373341388D+02
 0.170949711451801D+03 0.380733741379656D+02 0.143859934043618D+03 -.247249964570238D+02
 0.260412176213083D+03 -.273747487821908D+02 -.216615550219903D+02 -.258061817561558D+03
 0.599018557649691D+02 0.725900075698886D+01 0.235977349523294D+02 -.545773408771150D+02
0.183204501390D-03 0.000000000000D+00 0.000000000000D+00 0.377163067769D-04 0.000000000000D+00  6 2 -1 25 24 21 21 2 0.12043270D+00 0.94262957D-02 0.36797657D+05 0.36797657D+05 0.36797657D+05 0.12056979D+01  1  2  2  2  6  2       -1 0.732520479609D-01 0.100000000000D+01
0.430865367179D-04 0.966796715075D-05 -.703553524190D-06 0.377163067769D-04 0.000000000000D+00  6 2 -1 25 24 21 21 4 0.12043270D+00 0.94262957D-02 0.36797657D+05 0.36797657D+05 0.36797657D+05 0.12056979D+01  1  2  3  2  6  2       -1 0.250439148496D-01 0.100000000000D+01
0.183195817985D-05 0.000000000000D+00 0.000000000000D+00 0.377163067769D-04 0.000000000000D+00  6 2 -1 25 24 21 21 4 0.12043270D+00 0.94262957D-02 0.36797657D+05 0.36797657D+05 0.36797657D+05 0.12056979D+01  1  2 15  2  6  2       -1 0.106481996835D-02 0.100000000000D+01
-.470609509497D-02 0.000000000000D+00 -.930208437971D-04 0.377163067769D-04 0.000000000000D+00  6 2 -1 25 24 21 21 4 0.12043270D+00 0.20696943D-01 0.36797657D+05 0.36797657D+05 0.36797657D+05 0.12056979D+01  1  2  5  2  6  2       -1 -.792824875503D+00 0.100000000000D+01
-.395267038642D-03 0.000000000000D+00 -.792862106286D-05 0.377163067769D-04 0.000000000000D+00  6 2 21 25 24 1 21 4 0.12043270D+00 0.20696943D-01 0.36797657D+05 0.36797657D+05 0.36797657D+05 0.12056979D+01  3  4  5  5  5  2       -1 -.834191899580D+00 0.100000000000D+01
  </mgrwgt>
  </event>
  <event>
  6     66 0.46179844E-03 0.18979692E+02 0.75467711E-02 0.11419008E+00
        2 -1    0    0  502    0 0.00000000E+00 0.00000000E+00 0.10435907E+03 0.10435956E+03 0.32000000E+00 0.0000E+00 0.9000E+01
       -1 -1    0    0    0  501 -.00000000E+00 -.00000000E+00 -.60223649E+03 0.60223658E+03 0.32000000E+00 0.0000E+00 0.9000E+01
       25  1    1    2    0    0 0.49041614E+02 -.14947477E+03 -.13712505E+03 0.24326131E+03 0.12500000E+03 0.0000E+00 0.9000E+01
       24  1    1    2    0    0 -.64466051E+02 0.15334579E+03 -.38041907E+03 0.42291451E+03 0.80419002E+02 0.0000E+00 0.9000E+01
       21  1    1    2  502  503 0.23687165E+02 0.85108848E+00 0.19768596E+02 0.30873387E+02 0.75000000E+00 0.0000E+00 0.9000E+01
       21  1    1    2  503  501 -.82627281E+01 -.47221090E+01 -.10191085E+00 0.95469301E+01 0.75000000E+00 0.0000E+00 0.9000E+01
#aMCatNLO 2  0  0  5  1 0.59882063D+01 0.00000000D+00  -5  6  0 0.00000000D+00 0.00000000D+00 0.00000000D+00 0.00000000D+00 0.00000000D+00
  <mgrwgt>
 0.1764230229D+00    1    2    0
 0.250697112583153D+03 0.000000000000000D+00 0.000000000000000D+00 0.250697112583153D+03
 0.250697112583153D+03 -.000000000000000D+00 -.000000000000000D+00 -.250697112583153D+03
 0.205771134937157D+03 0.484183514571523D+02 -.149318349645542D+03 0.455681212541055D+02
 0.220122867425662D+03 -.651285182641170D+02 0.153512045593361D+03 -.119076398903340D+03
 0.755002228034881D+02 0.167101668069647D+02 -.419369594781919D+01 0.735082776492349D+02
 0.000000000000000D+00 0.000000000000000D+00 0.000000000000000D+00 0.000000000000000D+00
 0.250697112583153D+03 0.000000000000000D+00 0.000000000000000D+00 0.250697112583153D+03
 0.250697112583153D+03 -.000000000000000D+00 -.000000000000000D+00 -.250697112583153D+03
 0.206666361004749D+03 0.490488944616946D+02 -.149476594962517D+03 0.483418895104680D+02
 0.218225192863754D+03 -.644583626509884D+02 0.153343858829480D+03 -.116128374180001D+03
 0.629471680795664D+02 0.237890132337447D+02 0.928544848615274D+00 0.582714906542300D+02
 0.135555032182377D+02 -.837954504445094D+01 -.479580871557773D+01 0.951499401530332D+01
0.175028448132D-02 0.000000000000D+00 0.000000000000D+00 0.460948033431D-04 0.624007629015D-06  6 2 -1 25 24 21 21 4 0.16055285D-01 0.92651813D-01 0.43922817D+05 0.43922817D+05 0.43922817D+05 0.11978960D+01  1  2  1  3  6  5       21 0.176423022942D+00 0.100000000000D+01
  </mgrwgt>
  </event>
  <event>
  5     66 -.46179844E-03 0.71850746E+02 0.75467711E-02 0.11063586E+00
        2 -1    0    0  502    0 0.00000000E+00 0.00000000E+00 0.14486226E+03 0.14486261E+03 0.32000000E+00 0.0000E+00 0.9000E+01
       -1 -1    0    0    0  501 0.00000000E+00 0.00000000E+00 -.36406613E+03 0.36406627E+03 0.32000000E+00 0.0000E+00 0.9000E+01
       25  1    1    2    0    0 -.31003099E+02 -.17444449E+03 -.13739392E+03 0.25669858E+03 0.12500000E+03 0.0000E+00 0.9000E+01
       24  1    1    2    0    0 0.24387702E+02 0.10290048E+03 -.11250876E+03 0.17409396E+03 0.80419002E+02 0.0000E+00 0.9000E+01
       21  1    1    2  502  501 0.66153971E+01 0.71544009E+02 0.30698811E+02 0.78136344E+02 0.75000000E+00 0.0000E+00 0.9000E+01
#aMCatNLO 1  0  0  1  1 0.48057743D+01 0.00000000D+00  -5  6  0 0.00000000D+00 0.00000000D+00 0.00000000D+00 0.00000000D+00 0.00000000D+00
  <mgrwgt>
 -.1507167735D+00    5    4    0
 0.229650971885359D+03 0.000000000000000D+00 0.000000000000000D+00 0.229650971885359D+03
 0.229650971885359D+03 0.000000000000000D+00 0.000000000000000D+00 -.229650971885359D+03
 0.218863544586737D+03 -.310031851602855D+02 -.174445428773732D+03 -.297295482464250D+02
 0.139209000667091D+03 0.243876464966105D+02 0.102899888774110D+03 -.415786664167072D+02
 0.101229398516891D+03 0.661553866367501D+01 0.715455399996221D+02 0.713082146631321D+02
 0.000000000000000D+00 -.000000000000000D+00 -.000000000000000D+00 0.000000000000000D+00
 0.199595937285248D+04 0.000000000000000D+00 0.000000000000000D+00 0.199595937285248D+04
 0.234834857054741D+03 0.000000000000000D+00 0.000000000000000D+00 -.234834857054741D+03
 0.189269287993730D+03 -.277785279367770D+02 -.136170373886477D+03 -.297295482464250D+02
 0.161558438822938D+03 0.267640098247347D+02 0.131106122960158D+03 -.415786664167072D+02
 0.116683257305305D+03 0.833726640424443D+01 0.919815799268377D+02 0.713082146631321D+02
 0.176328324578525D+04 -.732274829220212D+01 -.869173290005193D+02 0.176112451579774D+04
 0.229650971885359D+03 0.000000000000000D+00 0.000000000000000D+00 0.229650971885359D+03
 0.229650971885359D+03 0.000000000000000D+00 0.000000000000000D+00 -.229650971885359D+03
 0.218863544586737D+03 -.310031851602855D+02 -.174445428773732D+03 -.297295482464250D+02
 0.139209000667091D+03 0.243876464966105D+02 0.102899888774110D+03 -.415786664167072D+02
 0.000000000000000D+00 -.000000000000000D+00 -.000000000000000D+00 0.000000000000000D+00
 0.101229398516891D+03 0.661553866367501D+01 0.715455399996221D+02 0.713082146631321D+02
 0.199595937285248D+04 0.000000000000000D+00 0.000000000000000D+00 0.199595937285248D+04
 0.234834857054741D+03 0.000000000000000D+00 0.000000000000000D+00 -.234834857054741D+03
 0.189269287993730D+03 -.277785279367770D+02 -.136170373886477D+03 -.297295482464250D+02
 0.161558438822938D+03 0.267640098247347D+02 0.131106122960158D+03 -.415786664167072D+02
 0.176328324578525D+04 -.732274829220212D+01 -.869173290005193D+02 0.176112451579774D+04
 0.116683257305305D+03 0.833726640424443D+01 0.919815799268377D+02 0.713082146631321D+02
0.655320200421D-04 0.000000000000D+00 0.000000000000D+00 0.372267682806D-05 0.000000000000D+00  6 2 -1 25 24 21 21 2 0.22286540D-01 0.56010212D-01 0.44424072D+05 0.44424072D+05 0.44424072D+05 0.11974011D+01  1  2  2  1  6  1        2 0.868787591880D-02 0.100000000000D+01
0.357707611713D-06 0.345821970685D-05 -.251660211939D-06 0.372267682806D-05 0.000000000000D+00  6 2 -1 25 24 21 21 4 0.22286540D-01 0.56010212D-01 0.44424072D+05 0.44424072D+05 0.44424072D+05 0.11974011D+01  1  2  3  1  6  1        2 0.679935273050D-04 0.100000000000D+01
0.216086342414D-05 0.000000000000D+00 0.000000000000D+00 0.372267682806D-05 0.000000000000D+00  6 2 -1 25 24 21 21 4 0.22286540D-01 0.56010212D-01 0.44424072D+05 0.44424072D+05 0.44424072D+05 0.11974011D+01  1  2 15  1  6  1        2 0.410739725466D-03 0.100000000000D+01
-.930401510051D-02 0.000000000000D+00 -.100060341160D-03 0.372267682806D-05 0.000000000000D+00  6 2 -1 25 24 21 21 4 0.19424068D+00 0.56010212D-01 0.44424072D+05 0.44424072D+05 0.44424072D+05 0.11974011D+01  1  2  5  1  6  1        2 -.137661188950D+00 0.100000000000D+01
-.244280676572D-02 0.000000000000D+00 -.261255437732D-04 0.372267682806D-05 0.000000000000D+00  6 21 -1 25 24 -2 21 4 0.19424068D+00 0.56010212D-01 0.44424072D+05 0.44424072D+05 0.44424072D+05 0.11974011D+01  3  4  5  4  5  1        2 -.222221937075D-01 0.100000000000D+01
  </mgrwgt>
  </event>
  <event>
  5     66 0.46179844E-03 0.22672613E+02 0.75467711E-02 0.11841568E+00
        2 -1    0    0  502    0 0.00000000E+00 0.00000000E+00 0.32914031E+02 0.32915586E+02 0.32000000E+00 0.0000E+00 0.9000E+01
       -1 -1    0    0    0  501 -.00000000E+00 -.00000000E+00 -.82576965E+03 0.82576971E+03 0.32000000E+00 0.0000E+00 0.9000E+01
       25  1    1    2    0    0 -.59301127E+02 0.96248778E+02 -.37825936E+03 0.41410819E+03 0.12500000E+03 0.0000E+00 0.9000E+01
       24  1    1    2    0    0 0.75764038E+02 -.80675748E+02 -.37132928E+03 0.39572897E+03 0.80419002E+02 0.0000E+00 0.9000E+01
       21  1    1    2  502  501 -.16462911E+02 -.15573030E+02 -.43266982E+02 0.48848141E+02 0.75000000E+00 0.0000E+00 0.9000E+01
#aMCatNLO 1  0  0  5  2 0.25482150D+01 0.00000000D+00  -5  6  0 0.00000000D+00 0.00000000D+00 0.00000000D+00 0.00000000D+00 0.00000000D+00
  <mgrwgt>
 0.1717041734D+00   19    2    0
 0.164863889661827D+03 0.000000000000000D+00 0.000000000000000D+00 0.164863889661827D+03
 0.164863889661827D+03 -.000000000000000D+00 -.000000000000000D+00 -.164863889661827D+03
 0.168878109459692D+03 -.592967067329909D+02 0.962529586078904D+02 0.106810291886587D+02
 0.137677736940006D+03 0.757676412663914D+02 -.806723394247143D+02 -.154654933067842D+02
 0.231719329239567D+02 -.164709345334005D+02 -.155806191831760D+02 0.478446411812552D+01
 0.000000000000000D+00 0.000000000000000D+00 0.000000000000000D+00 0.000000000000000D+00
 0.164863889661827D+03 0.000000000000000D+00 0.000000000000000D+00 0.164863889661827D+03
 0.164863889661827D+03 -.000000000000000D+00 -.000000000000000D+00 -.164863889661827D+03
 0.168587553276780D+03 -.611230896272989D+02 0.945252985105732D+02 0.112115554563732D+02
 0.137650960742298D+03 0.742775470752329D+02 -.820818884756454D+02 -.150326519172584D+02
 0.204044742575045D+02 -.160790144303550D+02 -.122315709392490D+02 0.286295948831272D+01
 0.308479104707203D+01 0.292455698242098D+01 -.211839095678734D+00 0.958136972572534D+00
0.772579944732D-03 0.000000000000D+00 0.000000000000D+00 0.368234226064D-04 0.000000000000D+00  6 2 -1 25 24 21 21 2 0.50638215D-02 0.12704161D+00 0.26899110D+05 0.26899110D+05 0.26899110D+05 0.12199031D+01  1  2  2  3  6  5       21 0.115339049019D+00 0.100000000000D+01
0.211322258830D-03 0.407701637805D-04 -.296691041274D-05 0.368234226064D-04 0.000000000000D+00  6 2 -1 25 24 21 21 4 0.50638215D-02 0.12704161D+00 0.26899110D+05 0.26899110D+05 0.26899110D+05 0.12199031D+01  1  2  3  3  6  5       21 0.469492727678D-01 0.100000000000D+01
0.361840592525D-05 0.000000000000D+00 0.000000000000D+00 0.368234226064D-04 0.000000000000D+00  6 2 -1 25 24 21 21 4 0.50638215D-02 0.12704161D+00 0.26899110D+05 0.26899110D+05 0.26899110D+05 0.12199031D+01  1  2 15  3  6  5       21 0.803897931574D-03 0.100000000000D+01
0.516191558208D-06 0.000000000000D+00 0.000000000000D+00 0.368207408078D-04 0.000000000000D+00  6 2 -1 25 24 21 21 4 0.50638215D-02 0.12704161D+00 0.26925009D+05 0.26925009D+05 0.26925009D+05 0.12198587D+01  1  2 12  3  6  5       21 0.114666376619D-03 0.100000000000D+01
0.595112424111D-06 0.000000000000D+00 0.000000000000D+00 0.368207408078D-04 0.000000000000D+00  6 2 -1 25 24 21 21 4 0.50638215D-02 0.12704161D+00 0.26925009D+05 0.26925009D+05 0.26925009D+05 0.12198587D+01  1  2 12  3  6  5       21 0.132197794150D-03 0.100000000000D+01
-.864773528231D-03 0.000000000000D+00 0.000000000000D+00 0.368234226064D-04 0.000000000000D+00  6 2 -1 25 24 21 21 4 0.50638215D-02 0.12704161D+00 0.26899110D+05 0.26899110D+05 0.26899110D+05 0.12199031D+01  1  2  4  3  6  5       21 -.192125943022D+00 0.100000000000D+01
0.850967937178D-03 0.000000000000D+00 0.000000000000D+00 0.368234226064D-04 0.109546041674D-04  6 2 -1 25 24 21 21 4 0.50638215D-02 0.12704161D+00 0.26925009D+05 0.26925009D+05 0.26925009D+05 0.12198587D+01  1  2 11  3  6  5       21 0.189033331568D+00 0.100000000000D+01
0.401428742205D-07 0.000000000000D+00 0.000000000000D+00 0.368207408078D-04 0.000000000000D+00  6 2 -1 25 24 1 -1 4 0.50638215D-02 0.12704161D+00 0.26925009D+05 0.26925009D+05 0.26925009D+05 0.12198587D+01  1  2 12  6  6  5       21 0.891730571868D-05 0.100000000000D+01
0.411125036708D-07 0.000000000000D+00 0.000000000000D+00 0.368207408078D-04 0.000000000000D+00  6 2 -1 25 24 1 -1 4 0.50638215D-02 0.12704161D+00 0.26925009D+05 0.26925009D+05 0.26925009D+05 0.12198587D+01  1  2 12  6  6  5       21 0.913269842311D-05 0.100000000000D+01
0.125503466908D-04 0.000000000000D+00 0.000000000000D+00 0.368207408078D-04 0.272116241199D-06  6 2 -1 25 24 1 -1 4 0.50638215D-02 0.12704161D+00 0.26925009D+05 0.26925009D+05 0.26925009D+05 0.12198587D+01  1  2 11  6  6  5       21 0.278792389659D-02 0.100000000000D+01
0.401428742205D-07 0.000000000000D+00 0.000000000000D+00 0.368207408078D-04 0.000000000000D+00  6 2 -1 25 24 2 -2 4 0.50638215D-02 0.12704161D+00 0.26925009D+05 0.26925009D+05 0.26925009D+05 0.12198587D+01  1  2 12  7  6  5       21 0.891730571868D-05 0.100000000000D+01
0.411125036708D-07 0.000000000000D+00 0.000000000000D+00 0.368207408078D-04 0.000000000000D+00  6 2 -1 25 24 2 -2 4 0.50638215D-02 0.12704161D+00 0.26925009D+05 0.26925009D+05 0.26925009D+05 0.12198587D+01  1  2 12  7  6  5       21 0.913269842311D-05 0.100000000000D+01
0.129002169849D-04 0.000000000000D+00 0.000000000000D+00 0.368207408078D-04 0.265136236798D-06  6 2 -1 25 24 2 -2 4 0.50638215D-02 0.12704161D+00 0.26925009D+05 0.26925009D+05 0.26925009D+05 0.12198587D+01  1  2 11  7  6  5       21 0.286564380169D-02 0.100000000000D+01
0.401428742205D-07 0.000000000000D+00 0.000000000000D+00 0.368207408078D-04 0.000000000000D+00  6 2 -1 25 24 3 -3 4 0.50638215D-02 0.12704161D+00 0.26925009D+05 0.26925009D+05 0.26925009D+05 0.12198587D+01  1  2 12  8  6  5       21 0.891730571868D-05 0.100000000000D+01
0.401428742205D-07 0.000000000000D+00 0.000000000000D+00 0.368207408078D-04 0.000000000000D+00  6 2 -1 25 24 4 -4 4 0.50638215D-02 0.12704161D+00 0.26925009D+05 0.26925009D+05 0.26925009D+05 0.12198587D+01  1  2 12  8  6  5       21 0.891730571868D-05 0.100000000000D+01
0.411125036708D-07 0.000000000000D+00 0.000000000000D+00 0.368207408078D-04 0.000000000000D+00  6 2 -1 25 24 3 -3 4 0.50638215D-02 0.12704161D+00 0.26925009D+05 0.26925009D+05 0.26925009D+05 0.12198587D+01  1  2 12  8  6  5       21 0.913269842311D-05 0.100000000000D+01
0.411125036708D-07 0.000000000000D+00 0.000000000000D+00 0.368207408078D-04 0.000000000000D+00  6 2 -1 25 24 4 -4 4 0.50638215D-02 0.12704161D+00 0.26925009D+05 0.26925009D+05 0.26925009D+05 0.12198587D+01  1  2 12  8  6  5       21 0.913269842311D-05 0.100000000000D+01
0.129016701835D-04 0.000000000000D+00 0.000000000000D+00 0.368207408078D-04 0.263353698718D-06  6 2 -1 25 24 3 -3 4 0.50638215D-02 0.12704161D+00 0.26925009D+05 0.26925009D+05 0.26925009D+05 0.12198587D+01  1  2 11  8  6  5       21 0.286596661405D-02 0.100000000000D+01
0.129016701835D-04 0.000000000000D+00 0.000000000000D+00 0.368207408078D-04 0.263353698718D-06  6 2 -1 25 24 4 -4 4 0.50638215D-02 0.12704161D+00 0.26925009D+05 0.26925009D+05 0.26925009D+05 0.12198587D+01  1  2 11  8  6  5       21 0.286596661405D-02 0.100000000000D+01
  </mgrwgt>
  </event>
  <event>
  5     66 0.46179844E-03 0.96224982E+02 0.75467711E-02 0.11445251E+00
        2 -1    0    0  502    0 0.00000000E+00 0.00000000E+00 0.17763176E+04 0.17763176E+04 0.32000000E+00 0.0000E+00 0.9000E+01
       -1 -1    0    0    0  501 0.00000000E+00 0.00000000E+00 -.35103619E+02 0.35105077E+02 0.32000000E+00 0.0000E+00 0.9000E+01
       25  1    1    2    0    0 -.15102032E+03 0.82212415E+02 0.39354152E+03 0.44728732E+03 0.12500000E+03 0.0000E+00 0.9000E+01
       24  1    1    2    0    0 0.80567099E+02 -.16674001E+02 0.72535816E+03 0.73442546E+03 0.80419002E+02 0.0000E+00 0.9000E+01
       21  1    1    2  502  501 0.70453219E+02 -.65538414E+02 0.62231428E+03 0.62970991E+03 0.75000000E+00 0.0000E+00 0.9000E+01
#aMCatNLO 1  0  0  5  5 0.24659747D+02 0.00000000D+00  -5  6  0 0.00000000D+00 0.00000000D+00 0.00000000D+00 0.00000000D+00 0.00000000D+00
  <mgrwgt>
 0.4390317384D-01    4    2    0
 0.249712878873639D+03 0.000000000000000D+00 0.000000000000000D+00 0.249712878873639D+03
 0.249712878873639D+03 -.000000000000000D+00 -.000000000000000D+00 -.249712878873639D+03
 0.250261277214057D+03 -.151021077779933D+03 0.822131219590151D+02 -.132058106592328D+03
 0.134856770235550D+03 0.805666897192609D+02 -.166736200649132D+02 0.703571703922539D+02
 0.114307710297671D+03 0.704543880606720D+02 -.655395018941019D+02 0.617009362000739D+02
 0.000000000000000D+00 0.000000000000000D+00 0.000000000000000D+00 -.000000000000000D+00
 0.249712878873639D+03 0.000000000000000D+00 0.000000000000000D+00 0.249712878873639D+03
 0.249712878873639D+03 -.000000000000000D+00 -.000000000000000D+00 -.249712878873639D+03
 0.221721444621736D+03 -.129640285562800D+03 0.623238501821394D+02 -.113333724296078D+03
 0.150686152252603D+03 0.935017689336989D+02 -.287063503463113D+02 0.816851588869613D+02
 0.898677415049156D+02 0.623117533611794D+02 -.294360950767139D+02 0.576799155935975D+02
 0.371504193680235D+02 -.261732367320783D+02 -.418140475911406D+01 -.260313501844807D+02
0.251268521265D-03 0.000000000000D+00 0.000000000000D+00 0.145556045902D-05 0.000000000000D+00  6 2 -1 25 24 21 21 2 0.27327974D+00 0.54006711D-02 0.44913550D+05 0.44913550D+05 0.44913550D+05 0.11969238D+01  1  2  2  3  6  5       21 0.627293579528D-01 0.100000000000D+01
-.115129934263D-04 0.132598041597D-04 -.964937282179D-06 0.145556045902D-05 0.000000000000D+00  6 2 -1 25 24 21 21 4 0.27327974D+00 0.54006711D-02 0.44913550D+05 0.44913550D+05 0.44913550D+05 0.11969238D+01  1  2  3  3  6  5       21 -.411769385661D-02 0.100000000000D+01
0.919873167195D-05 0.000000000000D+00 0.000000000000D+00 0.145556045902D-05 0.000000000000D+00  6 2 -1 25 24 21 21 4 0.27327974D+00 0.54006711D-02 0.44913550D+05 0.44913550D+05 0.44913550D+05 0.11969238D+01  1  2 15  3  6  5       21 0.328998371594D-02 0.100000000000D+01
-.503233896794D-04 0.000000000000D+00 0.000000000000D+00 0.145556045902D-05 0.000000000000D+00  6 2 -1 25 24 21 21 4 0.27327974D+00 0.54006711D-02 0.44913550D+05 0.44913550D+05 0.44913550D+05 0.11969238D+01  1  2  4  3  6  5       21 -.179984739723D-01 0.100000000000D+01
  </mgrwgt>
  </event>
  <event>
  5     66 0.46179844E-03 0.14442692E+03 0.75467711E-02 0.11235188E+00
        2 -1    0    0  502    0 0.00000000E+00 0.00000000E+00 0.11443164E+03 0.11443209E+03 0.32000000E+00 0.0000E+00 0.9000E+01
       -1 -1    0    0    0  501 -.00000000E+00 -.00000000E+00 -.52446856E+03 0.52446866E+03 0.32000000E+00 0.0000E+00 0.9000E+01
       25  1    1    2    0    0 0.88759115E+02 -.47850686E+02 -.21011030E+03 0.26446021E+03 0.12500000E+03 0.0000E+00 0.9000E+01
       24  1    1    2    0    0 -.11399438E+03 -.94353114E+02 -.78784425E+02 0.18593394E+03 0.80419002E+02 0.0000E+00 0.9000E+01
       21  1    1    2  502  501 0.25235264E+02 0.14220380E+03 -.12114220E+03 0.18850659E+03 0.75000000E+00 0.0000E+00 0.9000E+01
#aMCatNLO 1  0  0  5  5 0.83787437D+01 0.00000000D+00  -5  6  0 0.00000000D+00 0.00000000D+00 0.00000000D+00 0.00000000D+00 0.00000000D+00
  <mgrwgt>
 0.3999073723D-01    8    2    0
 0.244981572608636D+03 0.000000000000000D+00 0.000000000000000D+00 0.244981572608636D+03
 0.244981572608636D+03 -.000000000000000D+00 -.000000000000000D+00 -.244981572608636D+03
 0.169014569605392D+03 0.887589971723546D+02 -.478513470101988D+02 -.526594127308997D+02
 0.176521500102642D+03 -.113994501475122D+03 -.943538044939711D+02 0.528700033579379D+02
 0.144427075509238D+03 0.252355043027673D+02 0.142205151504170D+03 -.210590627038187D+00
 0.000000000000000D+00 0.000000000000000D+00 -.000000000000000D+00 0.000000000000000D+00
 0.244981572608636D+03 0.000000000000000D+00 0.000000000000000D+00 0.244981572608636D+03
 0.244981572608636D+03 -.000000000000000D+00 -.000000000000000D+00 -.244981572608636D+03
 0.168001744002766D+03 0.898038867126086D+02 -.419632667248109D+02 -.526681323483414D+02
 0.172624886395021D+03 -.112912003707097D+03 -.882537972479077D+02 0.528609698993234D+02
 0.105013294365359D+02 -.274756115559250D+01 -.592960916111352D+01 0.822000990433518D+01
 0.138835185382948D+03 0.258556781500806D+02 0.136146673133832D+03 -.841284745531717D+01
0.504873958415D-03 0.000000000000D+00 0.000000000000D+00 0.928902435435D-06 0.000000000000D+00  6 2 -1 25 24 21 21 2 0.17604909D-01 0.80687513D-01 0.56037916D+05 0.56037916D+05 0.56037916D+05 0.11874092D+01  1  2  2  3  6  5       21 0.419315352774D-01 0.100000000000D+01
-.409257236065D-04 0.266429307588D-04 -.193884893668D-05 0.928902435435D-06 0.000000000000D+00  6 2 -1 25 24 21 21 4 0.17604909D-01 0.80687513D-01 0.56037916D+05 0.56037916D+05 0.56037916D+05 0.11874092D+01  1  2  3  3  6  5       21 -.479242122115D-02 0.100000000000D+01
0.242562944574D-04 0.000000000000D+00 0.000000000000D+00 0.928902435435D-06 0.000000000000D+00  6 2 -1 25 24 21 21 4 0.17604909D-01 0.80687513D-01 0.56037916D+05 0.56037916D+05 0.56037916D+05 0.11874092D+01  1  2 15  3  6  5       21 0.284042333428D-02 0.100000000000D+01
0.455819082422D-08 0.000000000000D+00 0.000000000000D+00 0.930163884773D-06 0.534735218362D-07  6 2 -1 25 24 21 21 4 0.17604909D-01 0.80687513D-01 0.54985584D+05 0.54985584D+05 0.54985584D+05 0.11882152D+01  1  2 11  3  6  5       21 0.535220860867D-06 0.100000000000D+01
0.281408944540D-07 0.000000000000D+00 0.000000000000D+00 0.930163884773D-06 0.278975474712D-09  6 2 -1 25 24 1 -1 4 0.17604909D-01 0.80687513D-01 0.54985584D+05 0.54985584D+05 0.54985584D+05 0.11882152D+01  1  2 11  6  6  5       21 0.330429206149D-05 0.100000000000D+01
0.692476953030D-08 0.000000000000D+00 0.000000000000D+00 0.930163884773D-06 0.667834632343D-09  6 2 -1 25 24 2 -2 4 0.17604909D-01 0.80687513D-01 0.54985584D+05 0.54985584D+05 0.54985584D+05 0.11882152D+01  1  2 11  7  6  5       21 0.813103543101D-06 0.100000000000D+01
0.278796133325D-07 0.000000000000D+00 0.000000000000D+00 0.930163884773D-06 0.270791547364D-09  6 2 -1 25 24 3 -3 4 0.17604909D-01 0.80687513D-01 0.54985584D+05 0.54985584D+05 0.54985584D+05 0.11882152D+01  1  2 11  8  6  5       21 0.327361254144D-05 0.100000000000D+01
0.278796133325D-07 0.000000000000D+00 0.000000000000D+00 0.930163884773D-06 0.270791547364D-09  6 2 -1 25 24 4 -4 4 0.17604909D-01 0.80687513D-01 0.54985584D+05 0.54985584D+05 0.54985584D+05 0.11882152D+01  1  2 11  8  6  5       21 0.327361254144D-05 0.100000000000D+01
  </mgrwgt>
  </event>
  <event>
  5     66 -.46179844E-03 0.25828090E+02 0.75467711E-02 0.11125174E+00
        2 -1    0    0  502    0 0.00000000E+00 0.00000000E+00 0.16795035E+04 0.16795035E+04 0.32000000E+00 0.0000E+00 0.9000E+01
       -1 -1    0    0    0  501 0.00000000E+00 0.00000000E+00 -.57977156E+02 0.57978039E+02 0.32000000E+00 0.0000E+00 0.9000E+01
       25  1    1    2    0    0 -.13008312E+03 -.15588142E+03 0.10907324E+04 0.11164868E+04 0.12500000E+03 0.0000E+00 0.9000E+01
       24  1    1    2    0    0 0.15520295E+03 0.16188631E+03 0.54258865E+03 0.59259159E+03 0.80419002E+02 0.0000E+00 0.9000E+01
       21  1    1    2  502  501 -.25119829E+02 -.60048934E+01 -.11794679E+02 0.28403195E+02 0.75000000E+00 0.0000E+00 0.9000E+01
#aMCatNLO 1  0  0  5  5 0.83787437D+01 0.00000000D+00  -5  6  0 0.00000000D+00 0.00000000D+00 0.00000000D+00 0.00000000D+00 0.00000000D+00
  <mgrwgt>
 -.5669429874D-01    1    2    0
 0.312047481847657D+03 0.000000000000000D+00 0.000000000000000D+00 0.312047481847657D+03
 0.312047481847657D+03 -.000000000000000D+00 -.000000000000000D+00 -.312047481847657D+03
 0.274355967317808D+03 -.130082859168844D+03 -.155881355472779D+03 0.135741112303228D+03
 0.240019907783223D+03 0.155203171409410D+03 0.161886364506635D+03 -.291053388432875D+02
 0.109719088594283D+03 -.251203122405658D+02 -.600500903385654D+01 -.106635773459941D+03
 0.000000000000000D+00 0.000000000000000D+00 0.000000000000000D+00 0.000000000000000D+00
 0.312047481847657D+03 0.000000000000000D+00 0.000000000000000D+00 0.312047481847657D+03
 0.312047481847657D+03 -.000000000000000D+00 -.000000000000000D+00 -.312047481847657D+03
 0.271277049782635D+03 -.132246430123278D+03 -.156398556971006D+03 0.126556749467606D+03
 0.239605864061379D+03 0.153301335639875D+03 0.161431730787612D+03 -.371786353189032D+02
 0.943151885179777D+02 -.131604568465471D+02 -.221488575361680D+02 -.907280842441544D+02
 0.188968613333215D+02 -.789444867005024D+01 0.171156837195628D+02 0.134997009545203D+01
-.318558198564D-03 0.000000000000D+00 0.000000000000D+00 0.228473412621D-04 0.000000000000D+00  6 2 -1 25 24 21 21 4 0.25838523D+00 0.89196327D-02 0.63126516D+05 0.63126516D+05 0.63126516D+05 0.11823835D+01  1  2 14  3  6  5       21 -.566942987423D-01 0.100000000000D+01
  </mgrwgt>
  </event>
  <event>
  5     66 -.46179844E-03 0.23442879E+02 0.75467711E-02 0.11443676E+00
        2 -1    0    0  502    0 0.00000000E+00 0.00000000E+00 0.30619940E+04 0.30619940E+04 0.32000000E+00 0.0000E+00 0.9000E+01
       -1 -1    0    0    0  501 0.00000000E+00 0.00000000E+00 -.13603549E+02 0.13607312E+02 0.32000000E+00 0.0000E+00 0.9000E+01
       25  1    1    2    0    0 0.15816814E+03 0.52535082E+02 0.12868554E+04 0.13036100E+04 0.12500000E+03 0.0000E+00 0.9000E+01
       24  1    1    2    0    0 -.14453005E+03 -.33481080E+02 0.15553362E+04 0.15644640E+04 0.80419002E+02 0.0000E+00 0.9000E+01
       21  1    1    2  502  501 -.13638092E+02 -.19054002E+02 0.20619884E+03 0.20752730E+03 0.75000000E+00 0.0000E+00 0.9000E+01
#aMCatNLO 1  0  0  2  1 0.12273814D+02 0.00000000D+00  -5  6  0 0.00000000D+00 0.00000000D+00 0.00000000D+00 0.00000000D+00 0.00000000D+00
  <mgrwgt>
 -.3809409220D+00    7    4    0
 0.204107320904283D+03 0.000000000000000D+00 0.000000000000000D+00 0.204107320904283D+03
 0.204107320904283D+03 0.000000000000000D+00 0.000000000000000D+00 -.204107320904283D+03
 0.212017015265616D+03 0.158171677448080D+03 0.525400188933919D+02 -.393380430382940D+02
 0.172444541143274D+03 -.144527178050831D+03 -.334770646602849D+02 0.355117552669287D+02
 0.237530853996777D+02 -.136444993972497D+02 -.190629542331070D+02 0.382628777136529D+01
 0.000000000000000D+00 0.000000000000000D+00 0.000000000000000D+00 -.000000000000000D+00
 0.207248496551497D+03 0.000000000000000D+00 0.000000000000000D+00 0.207248496551497D+03
 0.216551938296472D+03 0.000000000000000D+00 0.000000000000000D+00 -.216551938296472D+03
 0.207289942487539D+03 0.151876002126518D+03 0.522524507030093D+02 -.393380430382940D+02
 0.176909380674811D+03 -.149772545015087D+03 -.337166578109415D+02 0.355117552669287D+02
 0.241997957060637D+02 -.143644869018523D+02 -.190958411742565D+02 0.382628777136529D+01
 0.154013159795557D+02 0.122610297904206D+02 0.560048282188706D+00 -.930344174497560D+01
 0.204107320904283D+03 0.000000000000000D+00 0.000000000000000D+00 0.204107320904283D+03
 0.204107320904283D+03 0.000000000000000D+00 0.000000000000000D+00 -.204107320904283D+03
 0.212017015265616D+03 0.158171677448080D+03 0.525400188933919D+02 -.393380430382940D+02
 0.172444541143274D+03 -.144527178050831D+03 -.334770646602849D+02 0.355117552669287D+02
 0.000000000000000D+00 0.000000000000000D+00 0.000000000000000D+00 -.000000000000000D+00
 0.237530853996777D+02 -.136444993972497D+02 -.190629542331070D+02 0.382628777136529D+01
 0.207248496551497D+03 0.000000000000000D+00 0.000000000000000D+00 0.207248496551497D+03
 0.216551938296472D+03 0.000000000000000D+00 0.000000000000000D+00 -.216551938296472D+03
 0.207289942487539D+03 0.151876002126518D+03 0.522524507030093D+02 -.393380430382940D+02
 0.176909380674811D+03 -.149772545015087D+03 -.337166578109415D+02 0.355117552669287D+02
 0.154013159795557D+02 0.122610297904206D+02 0.560048282188706D+00 -.930344174497560D+01
 0.241997957060637D+02 -.143644869018523D+02 -.190958411742565D+02 0.382628777136529D+01
0.611420444066D-03 0.000000000000D+00 0.000000000000D+00 0.296651924078D-04 0.000000000000D+00  6 2 -1 25 24 21 21 2 0.47107629D+00 0.20931445D-02 0.40105458D+05 0.40105458D+05 0.40105458D+05 0.12018842D+01  1  2  2  2  6  2       -1 0.124904106995D+00 0.100000000000D+01
0.204874656896D-03 0.322655432791D-04 -.234801549591D-05 0.296651924078D-04 0.000000000000D+00  6 2 -1 25 24 21 21 4 0.47107629D+00 0.20931445D-02 0.40105458D+05 0.40105458D+05 0.40105458D+05 0.12018842D+01  1  2  3  2  6  2       -1 0.604575053288D-01 0.100000000000D+01
0.107648903033D-04 0.000000000000D+00 0.000000000000D+00 0.296651924078D-04 0.000000000000D+00  6 2 -1 25 24 21 21 4 0.47107629D+00 0.20931445D-02 0.40105458D+05 0.40105458D+05 0.40105458D+05 0.12018842D+01  1  2 15  2  6  2       -1 0.317666627360D-02 0.100000000000D+01
-.648872722330D-03 0.000000000000D+00 0.000000000000D+00 0.296651924078D-04 0.000000000000D+00  6 2 -1 25 24 21 21 4 0.47107629D+00 0.20931445D-02 0.40105458D+05 0.40105458D+05 0.40105458D+05 0.12018842D+01  1  2  4  2  6  2       -1 -.191479154437D+00 0.100000000000D+01
-.112747366960D-01 0.000000000000D+00 -.167079515558D-02 0.296651924078D-04 0.000000000000D+00  6 2 -1 25 24 21 21 4 0.47107629D+00 0.22681186D-02 0.40105458D+05 0.40105458D+05 0.40105458D+05 0.12018842D+01  1  2  5  2  6  2       -1 -.295930614897D+01 0.100000000000D+01
0.113775574168D-01 0.000000000000D+00 0.166542511240D-02 0.296651924078D-04 0.000000000000D+00  6 2 -1 25 24 21 21 4 0.47107629D+00 0.20931445D-02 0.40105458D+05 0.40105458D+05 0.40105458D+05 0.12018842D+01  1  2  6  2  6  2       -1 0.335746133062D+01 0.100000000000D+01
-.147424124333D-03 0.000000000000D+00 -.223868068935D-04 0.296651924078D-04 0.000000000000D+00  6 2 21 25 24 1 21 4 0.47107629D+00 0.22681186D-02 0.40105458D+05 0.40105458D+05 0.40105458D+05 0.12018842D+01  3  4  5  5  5  2       -1 -.776155227835D+00 0.100000000000D+01
  </mgrwgt>
  </event>
  <event>
  5     66 0.46179844E-03 0.95167709E+02 0.75467711E-02 0.10489462E+00
        2 -1    0    0  502    0 0.00000000E+00 0.00000000E+00 0.19182126E+03 0.19182153E+03 0.32000000E+00 0.0000E+00 0.9000E+01
       -1 -1    0    0    0  501 0.00000000E+00 0.00000000E+00 -.32416909E+03 0.32416925E+03 0.32000000E+00 0.0000E+00 0.9000E+01
       25  1    1    2    0    0 -.47429464E+02 0.15504864E+03 0.31653824E+02 0.20716322E+03 0.12500000E+03 0.0000E+00 0.9000E+01
       24  1    1    2    0    0 -.45963569E+02 -.13676755E+03 -.11882191E+03 0.20347942E+03 0.80419002E+02 0.0000E+00 0.9000E+01
       21  1    1    2  502  501 0.93393033E+02 -.18281087E+02 -.45179748E+02 0.10534813E+03 0.75000000E+00 0.0000E+00 0.9000E+01
#aMCatNLO 1  0  0  2  5 0.54431467D+01 0.00000000D+00  -5  6  0 0.00000000D+00 0.00000000D+00 0.00000000D+00 0.00000000D+00 0.00000000D+00
  <mgrwgt>
 0.1388428600D+00    3    2    0
 0.249364458473441D+03 0.000000000000000D+00 0.000000000000000D+00 0.249364458473441D+03
 0.249364458473441D+03 0.000000000000000D+00 0.000000000000000D+00 -.249364458473441D+03
 0.222734012171687D+03 -.474307110785606D+02 0.155048885696396D+03 0.877246309139291D+02
 0.178990420484705D+03 -.459645705684568D+02 -.136767358781682D+03 -.689369457929546D+02
 0.970044842904904D+02 0.933952816470174D+02 -.182815269147139D+02 -.187876851209745D+02
 0.000000000000000D+00 0.000000000000000D+00 0.000000000000000D+00 0.000000000000000D+00
 0.521044734646010D+03 0.000000000000000D+00 0.000000000000000D+00 0.521044734646010D+03
 0.341914557355955D+03 0.000000000000000D+00 0.000000000000000D+00 -.341914557355955D+03
 0.174485117508447D+03 -.570350306351716D+02 0.622209823403375D+02 0.877246309139291D+02
 0.269915276305274D+03 -.568186141947693D+02 -.241674125661617D+03 -.689369457929546D+02
 0.112602503510309D+03 0.883272163356648D+02 -.672655152286591D+02 -.187876851209745D+02
 0.305956394677935D+03 0.255264284942761D+02 0.246718658549938D+03 0.179130177290054D+03
0.115255975414D-02 0.000000000000D+00 0.000000000000D+00 0.165221077864D-05 0.000000000000D+00  6 2 -1 25 24 21 21 2 0.29510996D-01 0.49872201D-01 0.54075166D+05 0.54075166D+05 0.54075166D+05 0.11889264D+01  1  2  2  2  6  2       -1 0.136907614322D+00 0.100000000000D+01
-.234285381296D-04 0.608222492227D-04 -.442613293184D-05 0.165221077864D-05 0.000000000000D+00  6 2 -1 25 24 21 21 4 0.29510996D-01 0.49872201D-01 0.54075166D+05 0.54075166D+05 0.54075166D+05 0.11889264D+01  1  2  3  2  6  2       -1 -.393386355325D-02 0.100000000000D+01
0.349540970709D-04 0.000000000000D+00 0.000000000000D+00 0.165221077864D-05 0.000000000000D+00  6 2 -1 25 24 21 21 4 0.29510996D-01 0.49872201D-01 0.54075166D+05 0.54075166D+05 0.54075166D+05 0.11889264D+01  1  2 15  2  6  2       -1 0.586910919254D-02 0.100000000000D+01
  </mgrwgt>
  </event>
  <event>
  5     66 0.46179844E-03 0.23182771E+02 0.75467711E-02 0.12189569E+00
        2 -1    0    0  502    0 0.00000000E+00 0.00000000E+00 0.12151807E+04 0.12151808E+04 0.32000000E+00 0.0000E+00 0.9000E+01
       -1 -1    0    0    0  501 0.00000000E+00 0.00000000E+00 -.16721017E+02 0.16724079E+02 0.32000000E+00 0.0000E+00 0.9000E+01
       25  1    1    2    0    0 -.16934625E+02 0.46498332E+02 0.45318683E+03 0.47270729E+03 0.12500000E+03 0.0000E+00 0.9000E+01
       24  1    1    2    0    0 0.40110834E+02 -.46068715E+02 0.38002894E+03 0.39321802E+03 0.80419002E+02 0.0000E+00 0.9000E+01
       21  1    1    2  502  501 -.23176208E+02 -.42961716E+00 0.36524392E+03 0.36597952E+03 0.75000000E+00 0.0000E+00 0.9000E+01
#aMCatNLO 1  0  0  5  2 0.10770835D+02 0.00000000D+00  -5  6  0 0.00000000D+00 0.00000000D+00 0.00000000D+00 0.00000000D+00 0.00000000D+00
  <mgrwgt>
 0.1461339672D+00    9    2    0
 0.142551637256314D+03 0.000000000000000D+00 0.000000000000000D+00 0.142551637256314D+03
 0.142551637256314D+03 -.000000000000000D+00 -.000000000000000D+00 -.142551637256314D+03
 0.137509274936423D+03 -.169331407849066D+02 0.464983594846386D+02 -.288958820930686D+02
 0.101570206282458D+03 0.401119302374003D+02 -.460686944812194D+02 -.108627478713471D+02
 0.460237932937469D+02 -.231787894524938D+02 -.429665003419236D+00 0.397586299644158D+02
 0.000000000000000D+00 0.000000000000000D+00 0.000000000000000D+00 0.000000000000000D+00
 0.142551637256314D+03 0.000000000000000D+00 0.000000000000000D+00 0.142551637256314D+03
 0.142551637256314D+03 -.000000000000000D+00 -.000000000000000D+00 -.142551637256314D+03
 0.136843341281716D+03 -.203460536445143D+02 0.464350943508619D+02 -.230417049470166D+02
 0.100253032583305D+03 0.376012739266000D+02 -.461152344937845D+02 -.655621342382898D+01
 0.371578282067612D+02 -.263390430850415D+02 0.428397211664857D+01 0.258574281263873D+02
 0.108490724408444D+02 0.908382280295578D+01 -.460383197372598D+01 0.374049024445829D+01
0.491293488524D-04 0.000000000000D+00 0.000000000000D+00 0.462843473272D-04 0.000000000000D+00  6 2 -1 25 24 21 21 2 0.18695112D+00 0.25727029D-02 0.16719702D+05 0.16719702D+05 0.16719702D+05 0.12424844D+01  1  2  2  3  6  5       21 0.773910981873D-01 0.100000000000D+01
0.624558508885D-05 0.259262696735D-05 -.188669635648D-06 0.462843473272D-04 0.000000000000D+00  6 2 -1 25 24 21 21 4 0.18695112D+00 0.25727029D-02 0.16719702D+05 0.16719702D+05 0.16719702D+05 0.12424844D+01  1  2  3  3  6  5       21 0.151881545036D-01 0.100000000000D+01
0.846438091310D-06 0.000000000000D+00 0.000000000000D+00 0.462843473272D-04 0.000000000000D+00  6 2 -1 25 24 21 21 4 0.18695112D+00 0.25727029D-02 0.16719702D+05 0.16719702D+05 0.16719702D+05 0.12424844D+01  1  2 15  3  6  5       21 0.205838721684D-02 0.100000000000D+01
0.439776789365D-04 0.000000000000D+00 0.000000000000D+00 0.459251379246D-04 0.000000000000D+00  6 2 -1 25 24 21 21 4 0.18695112D+00 0.25727029D-02 0.18468397D+05 0.18468397D+05 0.18468397D+05 0.12376536D+01  1  2 12  3  6  5       21 0.105553426457D+00 0.100000000000D+01
-.241895121736D-04 0.000000000000D+00 0.000000000000D+00 0.462843473272D-04 0.000000000000D+00  6 2 -1 25 24 21 21 4 0.18695112D+00 0.25727029D-02 0.16719702D+05 0.16719702D+05 0.16719702D+05 0.12424844D+01  1  2  4  3  6  5       21 -.588246005833D-01 0.100000000000D+01
0.496581812797D-06 0.000000000000D+00 0.000000000000D+00 0.459251379246D-04 0.000000000000D+00  6 2 -1 25 24 1 -1 4 0.18695112D+00 0.25727029D-02 0.18468397D+05 0.18468397D+05 0.18468397D+05 0.12376536D+01  1  2 12  6  6  5       21 0.119187535870D-02 0.100000000000D+01
0.496581812797D-06 0.000000000000D+00 0.000000000000D+00 0.459251379246D-04 0.000000000000D+00  6 2 -1 25 24 2 -2 4 0.18695112D+00 0.25727029D-02 0.18468397D+05 0.18468397D+05 0.18468397D+05 0.12376536D+01  1  2 12  7  6  5       21 0.119187535870D-02 0.100000000000D+01
0.496581812797D-06 0.000000000000D+00 0.000000000000D+00 0.459251379246D-04 0.000000000000D+00  6 2 -1 25 24 3 -3 4 0.18695112D+00 0.25727029D-02 0.18468397D+05 0.18468397D+05 0.18468397D+05 0.12376536D+01  1  2 12  8  6  5       21 0.119187535870D-02 0.100000000000D+01
0.496581812797D-06 0.000000000000D+00 0.000000000000D+00 0.459251379246D-04 0.000000000000D+00  6 2 -1 25 24 4 -4 4 0.18695112D+00 0.25727029D-02 0.18468397D+05 0.18468397D+05 0.18468397D+05 0.12376536D+01  1  2 12  8  6  5       21 0.119187535870D-02 0.100000000000D+01
  </mgrwgt>
  </event>
  <event>
  5     66 0.46179844E-03 0.25292573E+03 0.75467711E-02 0.10686391E+00
        2 -1    0    0  502    0 0.00000000E+00 0.00000000E+00 0.16234327E+03 0.16234359E+03 0.32000000E+00 0.0000E+00 0.9000E+01
       -1 -1    0    0    0  501 -.00000000E+00 -.00000000E+00 -.10840093E+04 0.10840093E+04 0.32000000E+00 0.0000E+00 0.9000E+01
       25  1    1    2    0    0 0.93885468E+02 -.17125686E+03 -.22569575E+03 0.32358456E+03 0.12500000E+03 0.0000E+00 0.9000E+01
       24  1    1    2    0    0 -.79361142E+02 -.81251143E+02 0.39794861E+02 0.14474386E+03 0.80419002E+02 0.0000E+00 0.9000E+01
       21  1    1    2  502  501 -.14524327E+02 0.25250800E+03 -.73576509E+03 0.77802447E+03 0.75000000E+00 0.0000E+00 0.9000E+01
#aMCatNLO 1  0  0  5  1 0.56281893D+02 0.00000000D+00  -5  6  0 0.00000000D+00 0.00000000D+00 0.00000000D+00 0.00000000D+00 0.00000000D+00
  <mgrwgt>
 0.5023844367D-02    4    2    0
 0.419501892989668D+03 0.000000000000000D+00 0.000000000000000D+00 0.419501892989668D+03
 0.419501892989668D+03 -.000000000000000D+00 -.000000000000000D+00 -.419501892989668D+03
 0.232757671691008D+03 0.938854775298393D+02 -.171257023724474D+03 0.201911531381473D+02
 0.258735029435184D+03 -.793611311990057D+02 -.812513244872915D+02 0.218120683627963D+03
 0.347511084853144D+03 -.145243463308335D+02 0.252508348211766D+03 -.238311836766110D+03
 0.000000000000000D+00 0.000000000000000D+00 -.000000000000000D+00 0.000000000000000D+00
 0.419501892989668D+03 0.000000000000000D+00 0.000000000000000D+00 0.419501892989668D+03
 0.419501892989668D+03 -.000000000000000D+00 -.000000000000000D+00 -.419501892989668D+03
 0.218671113185864D+03 0.928630746711112D+02 -.153482367902866D+03 0.341582310755152D+01
 0.237943562187281D+03 -.804860165163705D+02 -.616949928668822D+02 0.199663847084252D+03
 0.322257486222574D+03 -.249554433772096D+01 0.268802707740681D+03 -.177732281806736D+03
 0.601316243836171D+02 -.988151381701972D+01 -.536253469709334D+02 -.253473883850676D+02
0.846994698773D-03 0.000000000000D+00 0.000000000000D+00 0.531350081242D-06 0.000000000000D+00  6 2 -1 25 24 21 21 2 0.24975916D-01 0.16677068D+00 0.97335265D+05 0.97335265D+05 0.97335265D+05 0.11646507D+01  1  2  2  3  6  5       21 0.799268611248D-02 0.100000000000D+01
-.840154144348D-04 0.446971382388D-04 -.325268266211D-05 0.531350081242D-06 0.000000000000D+00  6 2 -1 25 24 21 21 4 0.24975916D-01 0.16677068D+00 0.97335265D+05 0.97335265D+05 0.97335265D+05 0.11646507D+01  1  2  3  3  6  5       21 -.107538119447D-02 0.100000000000D+01
0.302257615547D-04 0.000000000000D+00 0.000000000000D+00 0.531350081242D-06 0.000000000000D+00  6 2 -1 25 24 21 21 4 0.24975916D-01 0.16677068D+00 0.97335265D+05 0.97335265D+05 0.97335265D+05 0.11646507D+01  1  2 15  3  6  5       21 0.386883951989D-03 0.100000000000D+01
-.178154583176D-03 0.000000000000D+00 0.000000000000D+00 0.531350081242D-06 0.000000000000D+00  6 2 -1 25 24 21 21 4 0.24975916D-01 0.16677068D+00 0.97335265D+05 0.97335265D+05 0.97335265D+05 0.11646507D+01  1  2  4  3  6  5       21 -.228034450279D-02 0.100000000000D+01
  </mgrwgt>
  </event>
  <event>
  5     66 0.46179844E-03 0.21460598E+02 0.75467711E-02 0.12381232E+00
        2 -1    0    0  502    0 0.00000000E+00 0.00000000E+00 0.21743056E+04 0.21743056E+04 0.32000000E+00 0.0000E+00 0.9000E+01
       -1 -1    0    0    0  501 0.00000000E+00 0.00000000E+00 -.10013540E+02 0.10018652E+02 0.32000000E+00 0.0000E+00 0.9000E+01
       25  1    1    2    0    0 -.12818683E+02 -.32609026E+02 0.13001657E+04 0.13066306E+04 0.12500000E+03 0.0000E+00 0.9000E+01
       24  1    1    2    0    0 0.34119012E+02 0.35217101E+02 0.84052563E+03 0.84578656E+03 0.80419002E+02 0.0000E+00 0.9000E+01
       21  1    1    2  502  501 -.21300328E+02 -.26080754E+01 0.23600645E+02 0.31907037E+02 0.75000000E+00 0.0000E+00 0.9000E+01
#aMCatNLO 1  0  0  5  1 0.36383733D+01 0.00000000D+00  -5  6  0 0.00000000D+00 0.00000000D+00 0.00000000D+00 0.00000000D+00 0.00000000D+00
  <mgrwgt>
 0.9021795187D+00   25    2    0
 0.147574064419409D+03 0.000000000000000D+00 0.000000000000000D+00 0.147574064419409D+03
 0.147574064419409D+03 -.000000000000000D+00 -.000000000000000D+00 -.147574064419409D+03
 0.136090224332284D+03 -.128179889964709D+02 -.326089409683930D+02 0.408399961534963D+02
 0.959833243748633D+02 0.341195014331382D+02 0.352171613789898D+02 0.184714311854811D+02
 0.630745801316707D+02 -.213015124366674D+02 -.260822041059687D+01 -.593114273389774D+02
 0.000000000000000D+00 0.000000000000000D+00 -.000000000000000D+00 0.000000000000000D+00
 0.147574064419409D+03 0.000000000000000D+00 0.000000000000000D+00 0.147574064419409D+03
 0.147574064419409D+03 -.000000000000000D+00 -.000000000000000D+00 -.147574064419409D+03
 0.136041981734353D+03 -.128859374539692D+02 -.326172607792159D+02 0.406508020757663D+02
 0.959385536469452D+02 0.340715806237631D+02 0.352112938128498D+02 0.183380016174290D+02
 0.375014854777315D+02 -.109533293178895D+02 0.161457232630327D+01 -.358298638860588D+02
 0.256661079797880D+02 -.102323138519044D+02 -.420860535993717D+01 -.231589398071365D+02
0.638136610857D-04 0.000000000000D+00 0.000000000000D+00 0.614017387167D-04 0.000000000000D+00  6 2 -1 25 24 21 21 2 0.33450894D+00 0.15409397D-02 0.15063577D+05 0.15063577D+05 0.15063577D+05 0.12476132D+01  1  2  2  3  6  5       21 0.674717627588D-01 0.100000000000D+01
0.877886211254D-05 0.336753941342D-05 -.245061261092D-06 0.614017387167D-04 0.000000000000D+00  6 2 -1 25 24 21 21 4 0.33450894D+00 0.15409397D-02 0.15063577D+05 0.15063577D+05 0.15063577D+05 0.12476132D+01  1  2  3  3  6  5       21 0.144479601428D-01 0.100000000000D+01
0.128293818961D-05 0.000000000000D+00 0.000000000000D+00 0.614017387167D-04 0.000000000000D+00  6 2 -1 25 24 21 21 4 0.33450894D+00 0.15409397D-02 0.15063577D+05 0.15063577D+05 0.15063577D+05 0.12476132D+01  1  2 15  3  6  5       21 0.211141712804D-02 0.100000000000D+01
0.329689291852D-04 0.000000000000D+00 0.000000000000D+00 0.613754192174D-04 0.000000000000D+00  6 2 -1 25 24 21 21 4 0.33450894D+00 0.15409397D-02 0.15145230D+05 0.15145230D+05 0.15145230D+05 0.12473458D+01  1  2 12  3  6  5       21 0.542154279503D-01 0.100000000000D+01
0.311569444922D-04 0.000000000000D+00 0.000000000000D+00 0.613754192174D-04 0.000000000000D+00  6 2 -1 25 24 21 21 4 0.33450894D+00 0.15409397D-02 0.15145230D+05 0.15145230D+05 0.15145230D+05 0.12473458D+01  1  2 12  3  6  5       21 0.512357277294D-01 0.100000000000D+01
-.136137669088D-02 0.000000000000D+00 0.000000000000D+00 0.614017387167D-04 0.000000000000D+00  6 2 -1 25 24 21 21 4 0.33450894D+00 0.15409397D-02 0.15063577D+05 0.15063577D+05 0.15063577D+05 0.12476132D+01  1  2  4  3  6  5       21 -.224050861228D+01 0.100000000000D+01
-.116428845926D-02 0.000000000000D+00 0.000000000000D+00 0.614017387167D-04 0.000000000000D+00  6 2 -1 25 24 21 21 4 0.33450894D+00 0.15409397D-02 0.15063577D+05 0.15063577D+05 0.15063577D+05 0.12476132D+01  1  2  5  3  6  5       21 -.191614733647D+01 0.100000000000D+01
0.191797627113D-02 0.000000000000D+00 -.000000000000D+00 0.614017387167D-04 0.000000000000D+00  6 2 -1 25 24 21 21 4 0.33450894D+00 0.15409397D-02 0.15063577D+05 0.15063577D+05 0.15063577D+05 0.12476132D+01  1  2  6  3  6  5       21 0.315654174366D+01 0.100000000000D+01
0.105717335373D-02 0.000000000000D+00 0.000000000000D+00 0.614017387167D-04 0.245532213175D-04  6 2 -1 25 24 21 21 4 0.33450894D+00 0.15409397D-02 0.15145230D+05 0.15145230D+05 0.15145230D+05 0.12473458D+01  1  2 11  3  6  5       21 0.173845821526D+01 0.100000000000D+01
0.107977629215D-05 0.000000000000D+00 0.000000000000D+00 0.613754192174D-04 0.000000000000D+00  6 2 -1 25 24 1 -1 4 0.33450894D+00 0.15409397D-02 0.15145230D+05 0.15145230D+05 0.15145230D+05 0.12473458D+01  1  2 12  6  6  5       21 0.177562739270D-02 0.100000000000D+01
0.102441800386D-05 0.000000000000D+00 0.000000000000D+00 0.613754192174D-04 0.000000000000D+00  6 2 -1 25 24 1 -1 4 0.33450894D+00 0.15409397D-02 0.15145230D+05 0.15145230D+05 0.15145230D+05 0.12473458D+01  1  2 12  6  6  5       21 0.168459400568D-02 0.100000000000D+01
-.392715814151D-04 0.000000000000D+00 0.000000000000D+00 0.614017387167D-04 0.000000000000D+00  6 2 -1 25 24 1 -1 4 0.33450894D+00 0.15409397D-02 0.15063577D+05 0.15063577D+05 0.15063577D+05 0.12476132D+01  1  2  5  6  6  5       21 -.646318663805D-01 0.100000000000D+01
0.334338997550D-04 0.000000000000D+00 0.000000000000D+00 0.614017387167D-04 0.102529077108D-05  6 2 -1 25 24 1 -1 4 0.33450894D+00 0.15409397D-02 0.15145230D+05 0.15145230D+05 0.15145230D+05 0.12473458D+01  1  2 11  6  6  5       21 0.549800441828D-01 0.100000000000D+01
0.107977629215D-05 0.000000000000D+00 0.000000000000D+00 0.613754192174D-04 0.000000000000D+00  6 2 -1 25 24 2 -2 4 0.33450894D+00 0.15409397D-02 0.15145230D+05 0.15145230D+05 0.15145230D+05 0.12473458D+01  1  2 12  7  6  5       21 0.177562739270D-02 0.100000000000D+01
0.102441800386D-05 0.000000000000D+00 0.000000000000D+00 0.613754192174D-04 0.000000000000D+00  6 2 -1 25 24 2 -2 4 0.33450894D+00 0.15409397D-02 0.15145230D+05 0.15145230D+05 0.15145230D+05 0.12473458D+01  1  2 12  7  6  5       21 0.168459400568D-02 0.100000000000D+01
-.392715814151D-04 0.000000000000D+00 0.000000000000D+00 0.614017387167D-04 0.000000000000D+00  6 2 -1 25 24 2 -2 4 0.33450894D+00 0.15409397D-02 0.15063577D+05 0.15063577D+05 0.15063577D+05 0.12476132D+01  1  2  5  7  6  5       21 -.646318663805D-01 0.100000000000D+01
0.332678438347D-04 0.000000000000D+00 0.000000000000D+00 0.614017387167D-04 0.100011549426D-05  6 2 -1 25 24 2 -2 4 0.33450894D+00 0.15409397D-02 0.15145230D+05 0.15145230D+05 0.15145230D+05 0.12473458D+01  1  2 11  7  6  5       21 0.547069751749D-01 0.100000000000D+01
0.107977629215D-05 0.000000000000D+00 0.000000000000D+00 0.613754192174D-04 0.000000000000D+00  6 2 -1 25 24 3 -3 4 0.33450894D+00 0.15409397D-02 0.15145230D+05 0.15145230D+05 0.15145230D+05 0.12473458D+01  1  2 12  8  6  5       21 0.177562739270D-02 0.100000000000D+01
0.107977629215D-05 0.000000000000D+00 0.000000000000D+00 0.613754192174D-04 0.000000000000D+00  6 2 -1 25 24 4 -4 4 0.33450894D+00 0.15409397D-02 0.15145230D+05 0.15145230D+05 0.15145230D+05 0.12473458D+01  1  2 12  8  6  5       21 0.177562739270D-02 0.100000000000D+01
0.102441800386D-05 0.000000000000D+00 0.000000000000D+00 0.613754192174D-04 0.000000000000D+00  6 2 -1 25 24 3 -3 4 0.33450894D+00 0.15409397D-02 0.15145230D+05 0.15145230D+05 0.15145230D+05 0.12473458D+01  1  2 12  8  6  5       21 0.168459400568D-02 0.100000000000D+01
0.102441800386D-05 0.000000000000D+00 0.000000000000D+00 0.613754192174D-04 0.000000000000D+00  6 2 -1 25 24 4 -4 4 0.33450894D+00 0.15409397D-02 0.15145230D+05 0.15145230D+05 0.15145230D+05 0.12473458D+01  1  2 12  8  6  5       21 0.168459400568D-02 0.100000000000D+01
-.392715814151D-04 0.000000000000D+00 0.000000000000D+00 0.614017387167D-04 0.000000000000D+00  6 2 -1 25 24 3 -3 4 0.33450894D+00 0.15409397D-02 0.15063577D+05 0.15063577D+05 0.15063577D+05 0.12476132D+01  1  2  5  8  6  5       21 -.646318663805D-01 0.100000000000D+01
-.392715814151D-04 0.000000000000D+00 0.000000000000D+00 0.614017387167D-04 0.000000000000D+00  6 2 -1 25 24 4 -4 4 0.33450894D+00 0.15409397D-02 0.15063577D+05 0.15063577D+05 0.15063577D+05 0.12476132D+01  1  2  5  8  6  5       21 -.646318663805D-01 0.100000000000D+01
0.332492426885D-04 0.000000000000D+00 0.000000000000D+00 0.614017387167D-04 0.999428599979D-06  6 2 -1 25 24 3 -3 4 0.33450894D+00 0.15409397D-02 0.15145230D+05 0.15145230D+05 0.15145230D+05 0.12473458D+01  1  2 11  8  6  5       21 0.546763867049D-01 0.100000000000D+01
0.332492426885D-04 0.000000000000D+00 0.000000000000D+00 0.614017387167D-04 0.999428599979D-06  6 2 -1 25 24 4 -4 4 0.33450894D+00 0.15409397D-02 0.15145230D+05 0.15145230D+05 0.15145230D+05 0.12473458D+01  1  2 11  8  6  5       21 0.546763867049D-01 0.100000000000D+01
  </mgrwgt>
  </event>
  <event>
  5     66 0.46179844E-03 0.69401538E+02 0.75467711E-02 0.11516675E+00
        2 -1    0    0  502    0 0.00000000E+00 0.00000000E+00 0.83505389E+03 0.83505396E+03 0.32000000E+00 0.0000E+00 0.9000E+01
       -1 -1    0    0    0  501 0.00000000E+00 0.00000000E+00 -.59417339E+02 0.59418201E+02 0.32000000E+00 0.0000E+00 0.9000E+01
       25  1    1    2    0    0 -.46840774E+02 0.77971948E+02 0.48057755E+03 0.50483014E+03 0.12500000E+03 0.0000E+00 0.9000E+01
       24  1    1    2    0    0 -.59010182E+01 -.32863063E+02 0.30709490E+03 0.31920103E+03 0.80419002E+02 0.0000E+00 0.9000E+01
       21  1    1    2  502  501 0.52741792E+02 -.45108885E+02 -.12035897E+02 0.70440993E+02 0.75000000E+00 0.0000E+00 0.9000E+01
#aMCatNLO 1  0  0  5  1 0.13243919D+02 0.00000000D+00  -5  6  0 0.00000000D+00 0.00000000D+00 0.00000000D+00 0.00000000D+00 0.00000000D+00
  <mgrwgt>
 0.6269612156D-01    4    2    0
 0.222748946919322D+03 0.000000000000000D+00 0.000000000000000D+00 0.222748946919322D+03
 0.222748946919322D+03 -.000000000000000D+00 -.000000000000000D+00 -.222748946919322D+03
 0.176887889503777D+03 -.468409970151708D+02 0.779721389396757D+02 0.859685523950297D+02
 0.106223811847980D+03 -.590115233158157D+01 -.328629479361551D+02 0.608398331954440D+02
 0.162386192486887D+03 0.527421493467524D+02 -.451091910035206D+02 -.146808385590474D+03
 0.000000000000000D+00 -.000000000000000D+00 0.000000000000000D+00 0.000000000000000D+00
 0.222748946919322D+03 0.000000000000000D+00 0.000000000000000D+00 0.222748946919322D+03
 0.222748946919322D+03 -.000000000000000D+00 -.000000000000000D+00 -.222748946919322D+03
 0.156233307759038D+03 -.353015947854644D+02 0.681027440497549D+02 0.538484921964095D+02
 0.983567672568332D+02 0.118557048904457D+01 -.389240648467104D+02 0.411138578738228D+02
 0.925654096278567D+02 0.867172215778114D+02 0.182583285965813D+02 -.267415777069516D+02
 0.983424091949156D+02 -.526011972813915D+02 -.474370077996259D+02 -.682207723632808D+02
0.187274981019D-03 0.000000000000D+00 0.000000000000D+00 0.896426974491D-05 0.000000000000D+00  6 2 -1 25 24 21 21 2 0.12846990D+00 0.91412001D-02 0.24190894D+05 0.24190894D+05 0.24190894D+05 0.12248325D+01  1  2  2  3  6  5       21 0.743170525605D-01 0.100000000000D+01
-.245901231711D-05 0.988277226220D-05 -.719185237747D-06 0.896426974491D-05 0.000000000000D+00  6 2 -1 25 24 21 21 4 0.12846990D+00 0.91412001D-02 0.24190894D+05 0.24190894D+05 0.24190894D+05 0.12248325D+01  1  2  3  3  6  5       21 -.146393840418D-02 0.100000000000D+01
0.657772913858D-05 0.000000000000D+00 0.000000000000D+00 0.896426974491D-05 0.000000000000D+00  6 2 -1 25 24 21 21 4 0.12846990D+00 0.91412001D-02 0.24190894D+05 0.24190894D+05 0.24190894D+05 0.12248325D+01  1  2 15  3  6  5       21 0.391595854616D-02 0.100000000000D+01
-.236386722950D-04 0.000000000000D+00 0.000000000000D+00 0.896426974491D-05 0.000000000000D+00  6 2 -1 25 24 21 21 4 0.12846990D+00 0.91412001D-02 0.24190894D+05 0.24190894D+05 0.24190894D+05 0.12248325D+01  1  2  4  3  6  5       21 -.140729511421D-01 0.100000000000D+01
  </mgrwgt>
  </event>
  <event>
  5     66 0.46179844E-03 0.21258764E+02 0.75467711E-02 0.11768371E+00
        2 -1    0    0  502    0 0.00000000E+00 0.00000000E+00 0.22826173E+03 0.22826195E+03 0.32000000E+00 0.0000E+00 0.9000E+01
       -1 -1    0    0    0  501 0.00000000E+00 0.00000000E+00 -.13827541E+03 0.13827578E+03 0.32000000E+00 0.0000E+00 0.9000E+01
       25  1    1    2    0    0 -.33983586E+02 -.11992389E+03 0.16422620E+02 0.17728882E+03 0.12500000E+03 0.0000E+00 0.9000E+01
       24  1    1    2    0    0 0.51552260E+02 0.10796849E+03 0.82597417E+02 0.16614566E+03 0.80419002E+02 0.0000E+00 0.9000E+01
       21  1    1    2  502  501 -.17568674E+02 0.11955397E+02 -.90337202E+01 0.23103256E+02 0.75000000E+00 0.0000E+00 0.9000E+01
#aMCatNLO 1  0  0  5  1 0.67590509D+01 0.00000000D+00  -5  6  0 0.00000000D+00 0.00000000D+00 0.00000000D+00 0.00000000D+00 0.00000000D+00
  <mgrwgt>
 0.4829548275D+00   20    2    0
 0.177660049596030D+03 0.000000000000000D+00 0.000000000000000D+00 0.177660049596030D+03
 0.177660049596030D+03 -.000000000000000D+00 -.000000000000000D+00 -.177660049596030D+03
 0.178727297997013D+03 -.339799411141947D+02 -.119926368878370D+03 -.279549047367021D+02
 0.150473127863454D+03 0.515553287825716D+02 0.107966402534820D+03 0.431306185029966D+02
 0.261196733315924D+02 -.175753876683770D+02 0.119599663435505D+02 -.151757137662945D+02
 0.000000000000000D+00 0.000000000000000D+00 0.000000000000000D+00 -.000000000000000D+00
 0.177660049596030D+03 0.000000000000000D+00 0.000000000000000D+00 0.177660049596030D+03
 0.177660049596030D+03 -.000000000000000D+00 -.000000000000000D+00 -.177660049596030D+03
 0.178546518433709D+03 -.354572541319585D+02 -.118921064511563D+03 -.292305112794324D+02
 0.150357739679740D+03 0.503114051130269D+02 0.108812886578439D+03 0.420565352501933D+02
 0.920147783676471D+01 -.444662652839242D+01 0.802290390358711D+01 0.726443288409728D+00
 0.172143632418456D+02 -.104075244526760D+02 0.208527402953735D+01 -.135524672591706D+02
0.660681813101D-03 0.000000000000D+00 0.000000000000D+00 0.388848266909D-04 0.000000000000D+00  6 2 -1 25 24 21 21 2 0.35117235D-01 0.21273186D-01 0.29231703D+05 0.29231703D+05 0.29231703D+05 0.12160827D+01  1  2  2  3  6  5       21 0.292495616581D+00 0.100000000000D+01
0.180990494164D-03 0.348651371429D-04 -.253719212382D-05 0.388848266909D-04 0.000000000000D+00  6 2 -1 25 24 21 21 4 0.35117235D-01 0.21273186D-01 0.29231703D+05 0.29231703D+05 0.29231703D+05 0.12160827D+01  1  2  3  3  6  5       21 0.118497448991D+00 0.100000000000D+01
0.101210600667D-04 0.000000000000D+00 0.000000000000D+00 0.388848266909D-04 0.000000000000D+00  6 2 -1 25 24 21 21 4 0.35117235D-01 0.21273186D-01 0.29231703D+05 0.29231703D+05 0.29231703D+05 0.12160827D+01  1  2 15  3  6  5       21 0.662642424695D-02 0.100000000000D+01
0.111713975480D-03 0.000000000000D+00 0.000000000000D+00 0.389133865299D-04 0.000000000000D+00  6 2 -1 25 24 21 21 4 0.35117235D-01 0.21273186D-01 0.28947761D+05 0.28947761D+05 0.28947761D+05 0.12165292D+01  1  2 12  3  6  5       21 0.732345760500D-01 0.100000000000D+01
0.105061810913D-03 0.000000000000D+00 0.000000000000D+00 0.389133865299D-04 0.000000000000D+00  6 2 -1 25 24 21 21 4 0.35117235D-01 0.21273186D-01 0.28947761D+05 0.28947761D+05 0.28947761D+05 0.12165292D+01  1  2 12  3  6  5       21 0.688737210202D-01 0.100000000000D+01
-.847692846861D-03 0.000000000000D+00 0.000000000000D+00 0.388848266909D-04 0.000000000000D+00  6 2 -1 25 24 21 21 4 0.35117235D-01 0.21273186D-01 0.29231703D+05 0.29231703D+05 0.29231703D+05 0.12160827D+01  1  2  4  3  6  5       21 -.554998428757D+00 0.100000000000D+01
-.184070489082D-03 0.000000000000D+00 0.000000000000D+00 0.388848266909D-04 0.000000000000D+00  6 2 -1 25 24 21 21 4 0.35117235D-01 0.21273186D-01 0.29231703D+05 0.29231703D+05 0.29231703D+05 0.12160827D+01  1  2  5  3  6  5       21 -.120513972248D+00 0.100000000000D+01
0.893897717430D-03 0.000000000000D+00 -.000000000000D+00 0.388848266909D-04 0.000000000000D+00  6 2 -1 25 24 21 21 4 0.35117235D-01 0.21273186D-01 0.29231703D+05 0.29231703D+05 0.29231703D+05 0.12160827D+01  1  2  6  3  6  5       21 0.585249516355D+00 0.100000000000D+01
0.861341768194D-05 0.000000000000D+00 0.000000000000D+00 0.389133865299D-04 0.000000000000D+00  6 2 -1 25 24 1 -1 4 0.35117235D-01 0.21273186D-01 0.28947761D+05 0.28947761D+05 0.28947761D+05 0.12165292D+01  1  2 12  6  6  5       21 0.564656292615D-02 0.100000000000D+01
0.817641851950D-05 0.000000000000D+00 0.000000000000D+00 0.389133865299D-04 0.000000000000D+00  6 2 -1 25 24 1 -1 4 0.35117235D-01 0.21273186D-01 0.28947761D+05 0.28947761D+05 0.28947761D+05 0.12165292D+01  1  2 12  6  6  5       21 0.536008624982D-02 0.100000000000D+01
-.116602663306D-04 0.000000000000D+00 0.000000000000D+00 0.388848266909D-04 0.000000000000D+00  6 2 -1 25 24 1 -1 4 0.35117235D-01 0.21273186D-01 0.29231703D+05 0.29231703D+05 0.29231703D+05 0.12160827D+01  1  2  5  6  6  5       21 -.763416786675D-02 0.100000000000D+01
0.861341768194D-05 0.000000000000D+00 0.000000000000D+00 0.389133865299D-04 0.000000000000D+00  6 2 -1 25 24 2 -2 4 0.35117235D-01 0.21273186D-01 0.28947761D+05 0.28947761D+05 0.28947761D+05 0.12165292D+01  1  2 12  7  6  5       21 0.564656292615D-02 0.100000000000D+01
0.817641851950D-05 0.000000000000D+00 0.000000000000D+00 0.389133865299D-04 0.000000000000D+00  6 2 -1 25 24 2 -2 4 0.35117235D-01 0.21273186D-01 0.28947761D+05 0.28947761D+05 0.28947761D+05 0.12165292D+01  1  2 12  7  6  5       21 0.536008624982D-02 0.100000000000D+01
-.116602663306D-04 0.000000000000D+00 0.000000000000D+00 0.388848266909D-04 0.000000000000D+00  6 2 -1 25 24 2 -2 4 0.35117235D-01 0.21273186D-01 0.29231703D+05 0.29231703D+05 0.29231703D+05 0.12160827D+01  1  2  5  7  6  5       21 -.763416786675D-02 0.100000000000D+01
0.861341768194D-05 0.000000000000D+00 0.000000000000D+00 0.389133865299D-04 0.000000000000D+00  6 2 -1 25 24 3 -3 4 0.35117235D-01 0.21273186D-01 0.28947761D+05 0.28947761D+05 0.28947761D+05 0.12165292D+01  1  2 12  8  6  5       21 0.564656292615D-02 0.100000000000D+01
0.861341768194D-05 0.000000000000D+00 0.000000000000D+00 0.389133865299D-04 0.000000000000D+00  6 2 -1 25 24 4 -4 4 0.35117235D-01 0.21273186D-01 0.28947761D+05 0.28947761D+05 0.28947761D+05 0.12165292D+01  1  2 12  8  6  5       21 0.564656292615D-02 0.100000000000D+01
0.817641851950D-05 0.000000000000D+00 0.000000000000D+00 0.389133865299D-04 0.000000000000D+00  6 2 -1 25 24 3 -3 4 0.35117235D-01 0.21273186D-01 0.28947761D+05 0.28947761D+05 0.28947761D+05 0.12165292D+01  1  2 12  8  6  5       21 0.536008624982D-02 0.100000000000D+01
0.817641851950D-05 0.000000000000D+00 0.000000000000D+00 0.389133865299D-04 0.000000000000D+00  6 2 -1 25 24 4 -4 4 0.35117235D-01 0.21273186D-01 0.28947761D+05 0.28947761D+05 0.28947761D+05 0.12165292D+01  1  2 12  8  6  5       21 0.536008624982D-02 0.100000000000D+01
-.116602663306D-04 0.000000000000D+00 0.000000000000D+00 0.388848266909D-04 0.000000000000D+00  6 2 -1 25 24 3 -3 4 0.35117235D-01 0.21273186D-01 0.29231703D+05 0.29231703D+05 0.29231703D+05 0.12160827D+01  1  2  5  8  6  5       21 -.763416786675D-02 0.100000000000D+01
-.116602663306D-04 0.000000000000D+00 0.000000000000D+00 0.388848266909D-04 0.000000000000D+00  6 2 -1 25 24 4 -4 4 0.35117235D-01 0.21273186D-01 0.29231703D+05 0.29231703D+05 0.29231703D+05 0.12160827D+01  1  2  5  8  6  5       21 -.763416786675D-02 0.100000000000D+01
  </mgrwgt>
  </event>
  <event>
  5     66 0.46179844E-03 0.60139999E+02 0.75467711E-02 0.12064696E+00
        2 -1    0    0  502    0 0.00000000E+00 0.00000000E+00 0.10362998E+04 0.10362999E+04 0.32000000E+00 0.0000E+00 0.9000E+01
       -1 -1    0    0    0  501 0.00000000E+00 0.00000000E+00 -.25980741E+02 0.25982711E+02 0.32000000E+00 0.0000E+00 0.9000E+01
       25  1    1    2    0    0 -.11628124E+02 0.93897988E+01 0.35096398E+03 0.37285935E+03 0.12500000E+03 0.0000E+00 0.9000E+01
       24  1    1    2    0    0 0.36366788E+02 0.47556602E+02 0.58030977E+03 0.58890646E+03 0.80419002E+02 0.0000E+00 0.9000E+01
       21  1    1    2  502  501 -.24738664E+02 -.56946401E+02 0.79045331E+02 0.10051677E+03 0.75000000E+00 0.0000E+00 0.9000E+01
#aMCatNLO 1  0  0  5  2 0.91255492D+01 0.00000000D+00  -5  6  0 0.00000000D+00 0.00000000D+00 0.00000000D+00 0.00000000D+00 0.00000000D+00
  <mgrwgt>
 0.8724710158D-01   25    2    0
 0.164088115684637D+03 0.000000000000000D+00 0.000000000000000D+00 0.164088115684637D+03
 0.164088115684637D+03 -.000000000000000D+00 -.000000000000000D+00 -.164088115684637D+03
 0.126445397380990D+03 -.116277253044789D+02 0.939071622539777D+01 -.118342288238021D+02
 0.119714151547354D+03 0.363671653939331D+02 0.475574703202918D+02 0.654215440377037D+02
 0.820166824409303D+02 -.247394400894541D+02 -.569481865456896D+02 -.535873152139016D+02
 0.000000000000000D+00 0.000000000000000D+00 -.000000000000000D+00 0.000000000000000D+00
 0.164088115684637D+03 0.000000000000000D+00 0.000000000000000D+00 0.164088115684637D+03
 0.164088115684637D+03 -.000000000000000D+00 -.000000000000000D+00 -.164088115684637D+03
 0.126512145510137D+03 -.120917208249038D+02 0.832263613312515D+01 -.128392747796094D+02
 0.118668077857718D+03 0.359299051117187D+02 0.465509325801276D+02 0.644744084320143D+02
 0.140708913077663D+02 -.104153011019693D+02 -.225431446072038D+01 -.918855546114191D+01
 0.689251166936529D+02 -.134228831848456D+02 -.526192542525324D+02 -.424465781912630D+02
0.596505831954D-04 0.000000000000D+00 0.000000000000D+00 0.625524692539D-05 0.000000000000D+00  6 2 -1 25 24 21 21 2 0.15943090D+00 0.39971924D-02 0.20770185D+05 0.20770185D+05 0.20770185D+05 0.12320235D+01  1  2  2  3  6  5       21 0.616779858769D-01 0.100000000000D+01
-.208045930983D-05 0.314784775746D-05 -.229073945830D-06 0.625524692539D-05 0.000000000000D+00  6 2 -1 25 24 21 21 4 0.15943090D+00 0.39971924D-02 0.20770185D+05 0.20770185D+05 0.20770185D+05 0.12320235D+01  1  2  3  3  6  5       21 -.326522183047D-02 0.100000000000D+01
0.794210364455D-06 0.000000000000D+00 0.000000000000D+00 0.625524692539D-05 0.000000000000D+00  6 2 -1 25 24 21 21 4 0.15943090D+00 0.39971924D-02 0.20770185D+05 0.20770185D+05 0.20770185D+05 0.12320235D+01  1  2 15  3  6  5       21 0.124649062241D-02 0.100000000000D+01
0.667654088819D-05 0.000000000000D+00 0.000000000000D+00 0.624788075389D-05 0.000000000000D+00  6 2 -1 25 24 21 21 4 0.15943090D+00 0.39971924D-02 0.21089555D+05 0.21089555D+05 0.21089555D+05 0.12312979D+01  1  2 12  3  6  5       21 0.104573125379D-01 0.100000000000D+01
0.555447266657D-05 0.000000000000D+00 0.000000000000D+00 0.624788075389D-05 0.000000000000D+00  6 2 -1 25 24 21 21 4 0.15943090D+00 0.39971924D-02 0.21089555D+05 0.21089555D+05 0.21089555D+05 0.12312979D+01  1  2 12  3  6  5       21 0.869984287226D-02 0.100000000000D+01
-.518502864872D-04 0.000000000000D+00 0.000000000000D+00 0.625524692539D-05 0.000000000000D+00  6 2 -1 25 24 21 21 4 0.15943090D+00 0.39971924D-02 0.20770185D+05 0.20770185D+05 0.20770185D+05 0.12320235D+01  1  2  4  3  6  5       21 -.813775528096D-01 0.100000000000D+01
-.102056647352D-04 0.000000000000D+00 0.000000000000D+00 0.625524692539D-05 0.000000000000D+00  6 2 -1 25 24 21 21 4 0.15943090D+00 0.39971924D-02 0.20770185D+05 0.20770185D+05 0.20770185D+05 0.12320235D+01  1  2  5  3  6  5       21 -.160175011020D-01 0.100000000000D+01
0.702530744626D-04 0.000000000000D+00 -.000000000000D+00 0.625524692539D-05 0.000000000000D+00  6 2 -1 25 24 21 21 4 0.15943090D+00 0.39971924D-02 0.20770185D+05 0.20770185D+05 0.20770185D+05 0.12320235D+01  1  2  6  3  6  5       21 0.110260206152D+00 0.100000000000D+01
0.926099589315D-09 0.000000000000D+00 0.000000000000D+00 0.625524692539D-05 0.436405519060D-06  6 2 -1 25 24 21 21 4 0.15943090D+00 0.39971924D-02 0.21089555D+05 0.21089555D+05 0.21089555D+05 0.12312979D+01  1  2 11  3  6  5       21 0.145052850104D-05 0.100000000000D+01
0.198380348920D-05 0.000000000000D+00 0.000000000000D+00 0.624788075389D-05 0.000000000000D+00  6 2 -1 25 24 1 -1 4 0.15943090D+00 0.39971924D-02 0.21089555D+05 0.21089555D+05 0.21089555D+05 0.12312979D+01  1  2 12  6  6  5       21 0.310718580890D-02 0.100000000000D+01
0.180244761815D-05 0.000000000000D+00 0.000000000000D+00 0.624788075389D-05 0.000000000000D+00  6 2 -1 25 24 1 -1 4 0.15943090D+00 0.39971924D-02 0.21089555D+05 0.21089555D+05 0.21089555D+05 0.12312979D+01  1  2 12  6  6  5       21 0.282313227640D-02 0.100000000000D+01
-.448566226913D-05 0.000000000000D+00 0.000000000000D+00 0.625524692539D-05 0.000000000000D+00  6 2 -1 25 24 1 -1 4 0.15943090D+00 0.39971924D-02 0.20770185D+05 0.20770185D+05 0.20770185D+05 0.12320235D+01  1  2  5  6  6  5       21 -.704011960055D-02 0.100000000000D+01
0.531188666153D-09 0.000000000000D+00 0.000000000000D+00 0.625524692539D-05 0.143013770695D-07  6 2 -1 25 24 1 -1 4 0.15943090D+00 0.39971924D-02 0.21089555D+05 0.21089555D+05 0.21089555D+05 0.12312979D+01  1  2 11  6  6  5       21 0.831988598822D-06 0.100000000000D+01
0.198380348920D-05 0.000000000000D+00 0.000000000000D+00 0.624788075389D-05 0.000000000000D+00  6 2 -1 25 24 2 -2 4 0.15943090D+00 0.39971924D-02 0.21089555D+05 0.21089555D+05 0.21089555D+05 0.12312979D+01  1  2 12  7  6  5       21 0.310718580890D-02 0.100000000000D+01
0.180244761815D-05 0.000000000000D+00 0.000000000000D+00 0.624788075389D-05 0.000000000000D+00  6 2 -1 25 24 2 -2 4 0.15943090D+00 0.39971924D-02 0.21089555D+05 0.21089555D+05 0.21089555D+05 0.12312979D+01  1  2 12  7  6  5       21 0.282313227640D-02 0.100000000000D+01
-.448566226913D-05 0.000000000000D+00 0.000000000000D+00 0.625524692539D-05 0.000000000000D+00  6 2 -1 25 24 2 -2 4 0.15943090D+00 0.39971924D-02 0.20770185D+05 0.20770185D+05 0.20770185D+05 0.12320235D+01  1  2  5  7  6  5       21 -.704011960055D-02 0.100000000000D+01
0.524384655188D-09 0.000000000000D+00 0.000000000000D+00 0.625524692539D-05 0.141779491100D-07  6 2 -1 25 24 2 -2 4 0.15943090D+00 0.39971924D-02 0.21089555D+05 0.21089555D+05 0.21089555D+05 0.12312979D+01  1  2 11  7  6  5       21 0.821331632832D-06 0.100000000000D+01
0.198380348920D-05 0.000000000000D+00 0.000000000000D+00 0.624788075389D-05 0.000000000000D+00  6 2 -1 25 24 3 -3 4 0.15943090D+00 0.39971924D-02 0.21089555D+05 0.21089555D+05 0.21089555D+05 0.12312979D+01  1  2 12  8  6  5       21 0.310718580890D-02 0.100000000000D+01
0.198380348920D-05 0.000000000000D+00 0.000000000000D+00 0.624788075389D-05 0.000000000000D+00  6 2 -1 25 24 4 -4 4 0.15943090D+00 0.39971924D-02 0.21089555D+05 0.21089555D+05 0.21089555D+05 0.12312979D+01  1  2 12  8  6  5       21 0.310718580890D-02 0.100000000000D+01
0.180244761815D-05 0.000000000000D+00 0.000000000000D+00 0.624788075389D-05 0.000000000000D+00  6 2 -1 25 24 3 -3 4 0.15943090D+00 0.39971924D-02 0.21089555D+05 0.21089555D+05 0.21089555D+05 0.12312979D+01  1  2 12  8  6  5       21 0.282313227640D-02 0.100000000000D+01
0.180244761815D-05 0.000000000000D+00 0.000000000000D+00 0.624788075389D-05 0.000000000000D+00  6 2 -1 25 24 4 -4 4 0.15943090D+00 0.39971924D-02 0.21089555D+05 0.21089555D+05 0.21089555D+05 0.12312979D+01  1  2 12  8  6  5       21 0.282313227640D-02 0.100000000000D+01
-.448566226913D-05 0.000000000000D+00 0.000000000000D+00 0.625524692539D-05 0.000000000000D+00  6 2 -1 25 24 3 -3 4 0.15943090D+00 0.39971924D-02 0.20770185D+05 0.20770185D+05 0.20770185D+05 0.12320235D+01  1  2  5  8  6  5       21 -.704011960055D-02 0.100000000000D+01
-.448566226913D-05 0.000000000000D+00 0.000000000000D+00 0.625524692539D-05 0.000000000000D+00  6 2 -1 25 24 4 -4 4 0.15943090D+00 0.39971924D-02 0.20770185D+05 0.20770185D+05 0.20770185D+05 0.12320235D+01  1  2  5  8  6  5       21 -.704011960055D-02 0.100000000000D+01
0.524004296571D-09 0.000000000000D+00 0.000000000000D+00 0.625524692539D-05 0.138297172546D-07  6 2 -1 25 24 3 -3 4 0.15943090D+00 0.39971924D-02 0.21089555D+05 0.21089555D+05 0.21089555D+05 0.12312979D+01  1  2 11  8  6  5       21 0.820735885873D-06 0.100000000000D+01
0.524004296571D-09 0.000000000000D+00 0.000000000000D+00 0.625524692539D-05 0.138297172546D-07  6 2 -1 25 24 4 -4 4 0.15943090D+00 0.39971924D-02 0.21089555D+05 0.21089555D+05 0.21089555D+05 0.12312979D+01  1  2 11  8  6  5       21 0.820735885873D-06 0.100000000000D+01
  </mgrwgt>
  </event>
  <event>
  5     66 0.46179844E-03 0.66122178E+02 0.75467711E-02 0.10795567E+00
        2 -1    0    0  502    0 0.00000000E+00 0.00000000E+00 0.20757028E+04 0.20757028E+04 0.32000000E+00 0.0000E+00 0.9000E+01
       -1 -1    0    0    0  501 0.00000000E+00 0.00000000E+00 -.49188457E+02 0.49189498E+02 0.32000000E+00 0.0000E+00 0.9000E+01
       25  1    1    2    0    0 0.61618567E+01 0.23050503E+03 0.50508414E+03 0.56912698E+03 0.12500000E+03 0.0000E+00 0.9000E+01
       24  1    1    2    0    0 0.59823692E+02 -.22631513E+03 0.13398448E+04 0.13625155E+04 0.80419002E+02 0.0000E+00 0.9000E+01
       21  1    1    2  502  501 -.65985548E+02 -.41898978E+01 0.18158547E+03 0.19324982E+03 0.75000000E+00 0.0000E+00 0.9000E+01
#aMCatNLO 1  0  0  2  1 0.45735506D+02 0.00000000D+00  -5  6  0 0.00000000D+00 0.00000000D+00 0.00000000D+00 0.00000000D+00 0.00000000D+00
  <mgrwgt>
 0.2928612518D+00    4    2    0
 0.319533644923845D+03 0.000000000000000D+00 0.000000000000000D+00 0.319533644923845D+03
 0.319533644923845D+03 0.000000000000000D+00 0.000000000000000D+00 -.319533644923845D+03
 0.290694459666767D+03 0.616375228497608D+01 0.230505145917064D+03 -.125330182894927D+03
 0.281636164708307D+03 0.598255281297434D+02 -.226315011131867D+03 0.134365677304937D+03
 0.667366654726164D+02 -.659892804147195D+02 -.419013478519736D+01 -.903549441000928D+01
 0.000000000000000D+00 0.000000000000000D+00 0.000000000000000D+00 0.000000000000000D+00
 0.344474714678761D+03 0.000000000000000D+00 0.000000000000000D+00 0.344474714678761D+03
 0.342027947241379D+03 0.000000000000000D+00 0.000000000000000D+00 -.342027947241379D+03
 0.278677318874452D+03 -.715440743715195D+01 0.215121379143962D+03 -.125330182894927D+03
 0.291799315962498D+03 0.464123144620833D+02 -.241808574435377D+03 0.134365677304937D+03
 0.702251190683752D+02 -.691929497764467D+02 -.789068375796990D+01 -.903549441000928D+01
 0.458009080148153D+02 0.299350427515153D+02 0.345778790493849D+02 0.244676743738234D+01
0.349535355528D-02 0.000000000000D+00 0.000000000000D+00 0.274004010423D-05 0.000000000000D+00  6 2 -1 25 24 21 21 2 0.31933898D+00 0.75675368D-02 0.82923443D+05 0.82923443D+05 0.82923443D+05 0.11711169D+01  1  2  2  2  6  2       -1 0.345979512069D+00 0.100000000000D+01
0.392348025604D-03 0.184454874724D-03 -.134230780000D-04 0.274004010423D-05 0.000000000000D+00  6 2 -1 25 24 21 21 4 0.31933898D+00 0.75675368D-02 0.82923443D+05 0.82923443D+05 0.82923443D+05 0.11711169D+01  1  2  3  2  6  2       -1 0.532636884062D-01 0.100000000000D+01
-.487072798503D-04 0.000000000000D+00 0.000000000000D+00 0.274004010423D-05 0.000000000000D+00  6 2 -1 25 24 21 21 4 0.31933898D+00 0.75675368D-02 0.82923443D+05 0.82923443D+05 0.82923443D+05 0.11711169D+01  1  2 15  2  6  2       -1 -.661231663666D-02 0.100000000000D+01
-.734917526912D-03 0.000000000000D+00 0.000000000000D+00 0.274004010423D-05 0.000000000000D+00  6 2 -1 25 24 21 21 4 0.31933898D+00 0.75675368D-02 0.82923443D+05 0.82923443D+05 0.82923443D+05 0.11711169D+01  1  2  4  2  6  2       -1 -.997696320695D-01 0.100000000000D+01
  </mgrwgt>
  </event>
  <event>
  5     66 0.46179844E-03 0.13267066E+03 0.75467711E-02 0.10318086E+00
        2 -1    0    0  502    0 0.00000000E+00 0.00000000E+00 0.71368027E+03 0.71368034E+03 0.32000000E+00 0.0000E+00 0.9000E+01
       -1 -1    0    0    0  501 0.00000000E+00 0.00000000E+00 -.18703081E+03 0.18703109E+03 0.32000000E+00 0.0000E+00 0.9000E+01
       25  1    1    2    0    0 -.31113041E+02 0.20536971E+03 0.14781068E+03 0.28393263E+03 0.12500000E+03 0.0000E+00 0.9000E+01
       24  1    1    2    0    0 0.73480117E+02 -.33109209E+03 0.23106032E+03 0.41818344E+03 0.80419002E+02 0.0000E+00 0.9000E+01
       21  1    1    2  502  501 -.42367076E+02 0.12572238E+03 0.14777845E+03 0.19859536E+03 0.75000000E+00 0.0000E+00 0.9000E+01
#aMCatNLO 1  0  0  1  5 0.76080785D+01 0.00000000D+00  -5  6  0 0.00000000D+00 0.00000000D+00 0.00000000D+00 0.00000000D+00 0.00000000D+00
  <mgrwgt>
 0.1764879068D+00    7    4    0
 0.365349636336232D+03 0.000000000000000D+00 0.000000000000000D+00 0.365349636336232D+03
 0.365349636336232D+03 0.000000000000000D+00 0.000000000000000D+00 -.365349636336232D+03
 0.243460708005787D+03 -.311128334657376D+02 0.205369096280798D+03 -.224419747174921D+02
 0.348947212951806D+03 0.734804143968462D+02 -.331092970703114D+03 -.165835739066334D+02
 0.138291351714872D+03 -.423675809311087D+02 0.125723874422316D+03 0.390255486241255D+02
 0.000000000000000D+00 0.000000000000000D+00 -.000000000000000D+00 0.000000000000000D+00
 0.588059752262534D+03 0.000000000000000D+00 0.000000000000000D+00 0.588059752262534D+03
 0.393037426155022D+03 0.000000000000000D+00 0.000000000000000D+00 -.393037426155022D+03
 0.269139389574455D+03 -.739722213997652D+02 0.225467246518144D+03 -.224419747174921D+02
 0.316370381416968D+03 0.178520502763700D+02 -.305007035428628D+03 -.165835739066334D+02
 0.157759817886071D+03 -.671209354196204D+02 0.137331521226656D+03 0.390255486241255D+02
 0.237827589540062D+03 0.123241106543016D+03 -.577917323161721D+02 0.195022326107513D+03
 0.365349636336232D+03 0.000000000000000D+00 0.000000000000000D+00 0.365349636336232D+03
 0.365349636336232D+03 0.000000000000000D+00 0.000000000000000D+00 -.365349636336232D+03
 0.243460708005787D+03 -.311128334657376D+02 0.205369096280798D+03 -.224419747174921D+02
 0.348947212951806D+03 0.734804143968462D+02 -.331092970703114D+03 -.165835739066334D+02
 0.000000000000000D+00 0.000000000000000D+00 -.000000000000000D+00 0.000000000000000D+00
 0.138291351714872D+03 -.423675809311087D+02 0.125723874422316D+03 0.390255486241255D+02
 0.588059752262534D+03 0.000000000000000D+00 0.000000000000000D+00 0.588059752262534D+03
 0.393037426155022D+03 0.000000000000000D+00 0.000000000000000D+00 -.393037426155022D+03
 0.269139389574455D+03 -.739722213997652D+02 0.225467246518144D+03 -.224419747174921D+02
 0.316370381416968D+03 0.178520502763700D+02 -.305007035428628D+03 -.165835739066334D+02
 0.237827589540062D+03 0.123241106543016D+03 -.577917323161721D+02 0.195022326107513D+03
 0.157759817886071D+03 -.671209354196204D+02 0.137331521226656D+03 0.390255486241255D+02
0.157082083639D-02 0.000000000000D+00 0.000000000000D+00 0.828368899482D-06 0.000000000000D+00  6 2 -1 25 24 21 21 2 0.10979699D+00 0.28773998D-01 0.13091652D+06 0.13091652D+06 0.13091652D+06 0.11529749D+01  1  2  2  1  6  1        2 0.106840853502D+00 0.100000000000D+01
0.465242428212D-05 0.828944929337D-04 -.603236561835D-05 0.828368899482D-06 0.000000000000D+00  6 2 -1 25 24 21 21 4 0.10979699D+00 0.28773998D-01 0.13091652D+06 0.13091652D+06 0.13091652D+06 0.11529749D+01  1  2  3  1  6  1        2 0.420658539565D-03 0.100000000000D+01
0.211717645370D-04 0.000000000000D+00 0.000000000000D+00 0.828368899482D-06 0.000000000000D+00  6 2 -1 25 24 21 21 4 0.10979699D+00 0.28773998D-01 0.13091652D+06 0.13091652D+06 0.13091652D+06 0.11529749D+01  1  2 15  1  6  1        2 0.191428876863D-02 0.100000000000D+01
-.198025069576D-02 0.000000000000D+00 0.000000000000D+00 0.828368899482D-06 0.000000000000D+00  6 2 -1 25 24 21 21 4 0.10979699D+00 0.28773998D-01 0.13091652D+06 0.13091652D+06 0.13091652D+06 0.11529749D+01  1  2  4  1  6  1        2 -.179048451976D+00 0.100000000000D+01
-.542989118152D-02 0.000000000000D+00 -.124146337427D-02 0.828368899482D-06 0.000000000000D+00  6 2 -1 25 24 21 21 4 0.18287291D+00 0.28773998D-01 0.13091652D+06 0.13091652D+06 0.13091652D+06 0.11529749D+01  1  2  5  1  6  1        2 -.242016754926D+00 0.100000000000D+01
0.548020033015D-02 0.000000000000D+00 0.109575270848D-02 0.828368899482D-06 0.000000000000D+00  6 2 -1 25 24 21 21 4 0.10979699D+00 0.28773998D-01 0.13091652D+06 0.13091652D+06 0.13091652D+06 0.11529749D+01  1  2  6  1  6  1        2 0.495503618676D+00 0.100000000000D+01
-.253829098208D-03 0.000000000000D+00 -.711270966605D-04 0.828368899482D-06 0.000000000000D+00  6 21 -1 25 24 -2 21 4 0.18287291D+00 0.28773998D-01 0.13091652D+06 0.13091652D+06 0.13091652D+06 0.11529749D+01  3  4  5  4  5  1        2 -.712630573405D-02 0.100000000000D+01
  </mgrwgt>
  </event>
  <event>
  5     66 0.46179844E-03 0.26347820E+02 0.75467711E-02 0.11035306E+00
        2 -1    0    0  502    0 0.00000000E+00 0.00000000E+00 0.21186851E+03 0.21186876E+03 0.32000000E+00 0.0000E+00 0.9000E+01
       -1 -1    0    0    0  501 0.00000000E+00 0.00000000E+00 -.96689757E+02 0.96690287E+02 0.32000000E+00 0.0000E+00 0.9000E+01
       25  1    1    2    0    0 -.47965639E+02 -.21738468E+02 0.73658108E+02 0.15434954E+03 0.12500000E+03 0.0000E+00 0.9000E+01
       24  1    1    2    0    0 0.72143238E+02 0.32193264E+02 0.10072352E+02 0.11318004E+03 0.80419002E+02 0.0000E+00 0.9000E+01
       21  1    1    2  502  501 -.24177599E+02 -.10454797E+02 0.31448297E+02 0.41029464E+02 0.75000000E+00 0.0000E+00 0.9000E+01
#aMCatNLO 1  0  0  1  2 0.19672541D+03 0.00000000D+00  -5  6  0 0.00000000D+00 0.00000000D+00 0.00000000D+00 0.00000000D+00 0.00000000D+00
  <mgrwgt>
 0.2402932820D+00    5    4    0
 0.143128034329505D+03 0.000000000000000D+00 0.000000000000000D+00 0.143128034329505D+03
 0.143128034329505D+03 0.000000000000000D+00 0.000000000000000D+00 -.143128034329505D+03
 0.136736386681762D+03 -.479623789713624D+02 -.217370578976918D+02 0.172901694654585D+02
 0.117948105954523D+03 0.721460494658793D+02 0.321944803449982D+02 -.346843296846192D+02
 0.315715760227238D+02 -.241836704945169D+02 -.104574224473064D+02 0.173941602191607D+02
 0.000000000000000D+00 -.000000000000000D+00 0.000000000000000D+00 0.000000000000000D+00
 0.307611060767975D+03 0.000000000000000D+00 0.000000000000000D+00 0.307611060767975D+03
 0.245903093804672D+03 0.000000000000000D+00 0.000000000000000D+00 -.245903093804672D+03
 0.137542443443119D+03 0.346714378111368D+02 -.423304286331691D+02 0.172901694654585D+02
 0.185875611089453D+03 0.163681051846336D+03 0.938282389864182D+01 -.346843296846192D+02
 0.239195698019953D+02 -.746548201805663D+01 -.146238021054979D+02 0.173941602191607D+02
 0.206176530238080D+03 -.190887007639416D+03 0.475714068400251D+02 0.617079669633030D+02
 0.143128034329505D+03 0.000000000000000D+00 0.000000000000000D+00 0.143128034329505D+03
 0.143128034329505D+03 0.000000000000000D+00 0.000000000000000D+00 -.143128034329505D+03
 0.136736386681762D+03 -.479623789713624D+02 -.217370578976918D+02 0.172901694654585D+02
 0.117948105954523D+03 0.721460494658793D+02 0.321944803449982D+02 -.346843296846192D+02
 0.000000000000000D+00 -.000000000000000D+00 0.000000000000000D+00 0.000000000000000D+00
 0.315715760227238D+02 -.241836704945169D+02 -.104574224473064D+02 0.173941602191607D+02
 0.307611060767975D+03 0.000000000000000D+00 0.000000000000000D+00 0.307611060767975D+03
 0.245903093804672D+03 0.000000000000000D+00 0.000000000000000D+00 -.245903093804672D+03
 0.137542443443119D+03 0.346714378111368D+02 -.423304286331691D+02 0.172901694654585D+02
 0.185875611089453D+03 0.163681051846336D+03 0.938282389864182D+01 -.346843296846192D+02
 0.206176530238080D+03 -.190887007639416D+03 0.475714068400251D+02 0.617079669633030D+02
 0.239195698019953D+02 -.746548201805663D+01 -.146238021054979D+02 0.173941602191607D+02
0.189503890271D-03 0.000000000000D+00 0.000000000000D+00 0.306392190725D-04 0.000000000000D+00  6 2 -1 25 24 21 21 2 0.32595215D-01 0.14875407D-01 0.18867735D+05 0.18867735D+05 0.18867735D+05 0.12366222D+01  1  2  2  1  6  1        2 0.164488750301D+00 0.100000000000D+01
0.272912835754D-04 0.100003950350D-04 -.727744836163D-06 0.306392190725D-04 0.000000000000D+00  6 2 -1 25 24 21 21 4 0.32595215D-01 0.14875407D-01 0.18867735D+05 0.18867735D+05 0.18867735D+05 0.12366222D+01  1  2  3  1  6  1        2 0.362256465734D-01 0.100000000000D+01
0.349883505967D-05 0.000000000000D+00 0.000000000000D+00 0.306392190725D-04 0.000000000000D+00  6 2 -1 25 24 21 21 4 0.32595215D-01 0.14875407D-01 0.18867735D+05 0.18867735D+05 0.18867735D+05 0.12366222D+01  1  2 15  1  6  1        2 0.464425067952D-02 0.100000000000D+01
0.789337458060D-04 0.000000000000D+00 -.150348232684D-03 0.306392190725D-04 0.000000000000D+00  6 2 -1 25 24 21 21 4 0.11106521D+00 0.14875407D-01 0.18867735D+05 0.18867735D+05 0.18867735D+05 0.12366222D+01  1  2  5  1  6  1        2 0.274998061183D-01 0.100000000000D+01
0.166134056825D-04 0.000000000000D+00 -.214661425076D-04 0.306392190725D-04 0.000000000000D+00  6 21 -1 25 24 -2 21 4 0.11106521D+00 0.14875407D-01 0.18867735D+05 0.18867735D+05 0.18867735D+05 0.12366222D+01  3  4  5  4  5  1        2 0.743482832707D-02 0.100000000000D+01
  </mgrwgt>
  </event>
  <event>
  5     66 0.46179844E-03 0.31913682E+02 0.75467711E-02 0.12268943E+00
        4 -1    0    0  502    0 0.00000000E+00 0.00000000E+00 0.33192584E+03 0.33192946E+03 0.15500000E+01 0.0000E+00 0.9000E+01
       -3 -1    0    0    0  501 0.00000000E+00 0.00000000E+00 -.94178438E+02 0.94179765E+02 0.50000000E+00 0.0000E+00 0.9000E+01
       25  1    1    2    0    0 0.47501571E+02 -.50159860E+02 0.26401301E+03 0.30016709E+03 0.12500000E+03 0.0000E+00 0.9000E+01
       24  1    1    2    0    0 -.24305056E+02 0.28250814E+02 -.30523825E+02 0.93743075E+02 0.80419002E+02 0.0000E+00 0.9000E+01
       21  1    1    2  502  501 -.23196515E+02 0.21909045E+02 0.42582142E+01 0.32199060E+02 0.75000000E+00 0.0000E+00 0.9000E+01
#aMCatNLO 1  0  0  5  2 0.91768595D+01 0.00000000D+00  -5  6  0 0.00000000D+00 0.00000000D+00 0.00000000D+00 0.00000000D+00 0.00000000D+00
  <mgrwgt>
 0.6771923223D-02   25    2    0
 0.176808683857124D+03 0.000000000000000D+00 0.000000000000000D+00 0.176808683857124D+03
 0.176808683857124D+03 -.000000000000000D+00 -.000000000000000D+00 -.176808683857124D+03
 0.184200385019366D+03 0.475042031567723D+02 -.501623460585931D+02 0.116326572895537D+03
 0.133480807408782D+03 -.243031486300427D+02 0.282490127882279D+02 -.998061132160074D+02
 0.359361752861004D+02 -.232010545267296D+02 0.219133332703652D+02 -.165204596795295D+02
 0.000000000000000D+00 0.000000000000000D+00 0.000000000000000D+00 0.000000000000000D+00
 0.176808683857124D+03 0.000000000000000D+00 0.000000000000000D+00 0.176808683857124D+03
 0.176808683857124D+03 -.000000000000000D+00 -.000000000000000D+00 -.176808683857124D+03
 0.182325072075428D+03 0.455444070431717D+02 -.483113239281197D+02 0.114931087503374D+03
 0.134804421267402D+03 -.257376583982415D+02 0.296039033857186D+02 -.100827565096917D+03
 0.125733682867108D+02 -.599837229154211D+01 -.575174707026032D+00 -.110353202935720D+02
 0.239145060847081D+02 -.138083763533880D+02 0.192825952494270D+02 -.306820211288421D+01
0.279198324700D-03 0.000000000000D+00 0.000000000000D+00 0.110916811815D-04 0.000000000000D+00  6 4 -3 25 24 21 21 2 0.51065894D-01 0.14489371D-01 0.17340710D+05 0.17340710D+05 0.17340710D+05 0.12407065D+01  1  2  2  3  6  5       21 0.123113126380D-01 0.100000000000D+01
0.213875414489D-04 0.147337003800D-04 -.107219508145D-05 0.110916811815D-04 0.000000000000D+00  6 4 -3 25 24 21 21 4 0.51065894D-01 0.14489371D-01 0.17340710D+05 0.17340710D+05 0.17340710D+05 0.12407065D+01  1  2  3  3  6  5       21 0.145174571847D-02 0.100000000000D+01
0.161084308336D-04 0.000000000000D+00 0.000000000000D+00 0.110916811815D-04 0.000000000000D+00  6 4 -3 25 24 21 21 4 0.51065894D-01 0.14489371D-01 0.17340710D+05 0.17340710D+05 0.17340710D+05 0.12407065D+01  1  2 15  3  6  5       21 0.109340971003D-02 0.100000000000D+01
0.505251073351D-04 0.000000000000D+00 0.000000000000D+00 0.111090330198D-04 0.000000000000D+00  6 4 -3 25 24 21 21 4 0.51065894D-01 0.14489371D-01 0.16998704D+05 0.16998704D+05 0.16998704D+05 0.12416766D+01  1  2 12  3  6  5       21 0.343465120530D-02 0.100000000000D+01
0.477595353272D-04 0.000000000000D+00 0.000000000000D+00 0.111090330198D-04 0.000000000000D+00  6 4 -3 25 24 21 21 4 0.51065894D-01 0.14489371D-01 0.16998704D+05 0.16998704D+05 0.16998704D+05 0.12416766D+01  1  2 12  3  6  5       21 0.324665011571D-02 0.100000000000D+01
-.493609159533D-03 0.000000000000D+00 0.000000000000D+00 0.110916811815D-04 0.000000000000D+00  6 4 -3 25 24 21 21 4 0.51065894D-01 0.14489371D-01 0.17340710D+05 0.17340710D+05 0.17340710D+05 0.12407065D+01  1  2  4  3  6  5       21 -.335052528436D-01 0.100000000000D+01
-.784736669077D-04 0.000000000000D+00 0.000000000000D+00 0.110916811815D-04 0.000000000000D+00  6 4 -3 25 24 21 21 4 0.51065894D-01 0.14489371D-01 0.17340710D+05 0.17340710D+05 0.17340710D+05 0.12407065D+01  1  2  5  3  6  5       21 -.532664356105D-02 0.100000000000D+01
0.339046754584D-03 0.000000000000D+00 -.000000000000D+00 0.110916811815D-04 0.000000000000D+00  6 4 -3 25 24 21 21 4 0.51065894D-01 0.14489371D-01 0.17340710D+05 0.17340710D+05 0.17340710D+05 0.12407065D+01  1  2  6  3  6  5       21 0.230138501661D-01 0.100000000000D+01
0.163564362483D-07 0.000000000000D+00 0.000000000000D+00 0.110916811815D-04 0.278757079419D-05  6 4 -3 25 24 21 21 4 0.51065894D-01 0.14489371D-01 0.16998704D+05 0.16998704D+05 0.16998704D+05 0.12416766D+01  1  2 11  3  6  5       21 0.111189577693D-05 0.100000000000D+01
0.398592784269D-05 0.000000000000D+00 0.000000000000D+00 0.111090330198D-04 0.000000000000D+00  6 4 -3 25 24 3 -3 4 0.51065894D-01 0.14489371D-01 0.16998704D+05 0.16998704D+05 0.16998704D+05 0.12416766D+01  1  2 12  6  6  5       21 0.270959778043D-03 0.100000000000D+01
0.380092183902D-05 0.000000000000D+00 0.000000000000D+00 0.111090330198D-04 0.000000000000D+00  6 4 -3 25 24 3 -3 4 0.51065894D-01 0.14489371D-01 0.16998704D+05 0.16998704D+05 0.16998704D+05 0.12416766D+01  1  2 12  6  6  5       21 0.258383236854D-03 0.100000000000D+01
-.392772882774D-05 0.000000000000D+00 0.000000000000D+00 0.110916811815D-04 0.000000000000D+00  6 4 -3 25 24 3 -3 4 0.51065894D-01 0.14489371D-01 0.17340710D+05 0.17340710D+05 0.17340710D+05 0.12407065D+01  1  2  5  6  6  5       21 -.266606777716D-03 0.100000000000D+01
0.522444745630D-09 0.000000000000D+00 0.000000000000D+00 0.110916811815D-04 0.233066040178D-07  6 4 -3 25 24 3 -3 4 0.51065894D-01 0.14489371D-01 0.16998704D+05 0.16998704D+05 0.16998704D+05 0.12416766D+01  1  2 11  6  6  5       21 0.355153223798D-07 0.100000000000D+01
0.398592784269D-05 0.000000000000D+00 0.000000000000D+00 0.111090330198D-04 0.000000000000D+00  6 4 -3 25 24 4 -4 4 0.51065894D-01 0.14489371D-01 0.16998704D+05 0.16998704D+05 0.16998704D+05 0.12416766D+01  1  2 12  7  6  5       21 0.270959778043D-03 0.100000000000D+01
0.380092183902D-05 0.000000000000D+00 0.000000000000D+00 0.111090330198D-04 0.000000000000D+00  6 4 -3 25 24 4 -4 4 0.51065894D-01 0.14489371D-01 0.16998704D+05 0.16998704D+05 0.16998704D+05 0.12416766D+01  1  2 12  7  6  5       21 0.258383236854D-03 0.100000000000D+01
-.392772882774D-05 0.000000000000D+00 0.000000000000D+00 0.110916811815D-04 0.000000000000D+00  6 4 -3 25 24 4 -4 4 0.51065894D-01 0.14489371D-01 0.17340710D+05 0.17340710D+05 0.17340710D+05 0.12407065D+01  1  2  5  7  6  5       21 -.266606777716D-03 0.100000000000D+01
0.530543979514D-09 0.000000000000D+00 0.000000000000D+00 0.110916811815D-04 0.236194318730D-07  6 4 -3 25 24 4 -4 4 0.51065894D-01 0.14489371D-01 0.16998704D+05 0.16998704D+05 0.16998704D+05 0.12416766D+01  1  2 11  7  6  5       21 0.360659009908D-07 0.100000000000D+01
0.398592784269D-05 0.000000000000D+00 0.000000000000D+00 0.111090330198D-04 0.000000000000D+00  6 4 -3 25 24 1 -1 4 0.51065894D-01 0.14489371D-01 0.16998704D+05 0.16998704D+05 0.16998704D+05 0.12416766D+01  1  2 12  8  6  5       21 0.270959778043D-03 0.100000000000D+01
0.398592784269D-05 0.000000000000D+00 0.000000000000D+00 0.111090330198D-04 0.000000000000D+00  6 4 -3 25 24 2 -2 4 0.51065894D-01 0.14489371D-01 0.16998704D+05 0.16998704D+05 0.16998704D+05 0.12416766D+01  1  2 12  8  6  5       21 0.270959778043D-03 0.100000000000D+01
0.380092183902D-05 0.000000000000D+00 0.000000000000D+00 0.111090330198D-04 0.000000000000D+00  6 4 -3 25 24 1 -1 4 0.51065894D-01 0.14489371D-01 0.16998704D+05 0.16998704D+05 0.16998704D+05 0.12416766D+01  1  2 12  8  6  5       21 0.258383236854D-03 0.100000000000D+01
0.380092183902D-05 0.000000000000D+00 0.000000000000D+00 0.111090330198D-04 0.000000000000D+00  6 4 -3 25 24 2 -2 4 0.51065894D-01 0.14489371D-01 0.16998704D+05 0.16998704D+05 0.16998704D+05 0.12416766D+01  1  2 12  8  6  5       21 0.258383236854D-03 0.100000000000D+01
-.392772882774D-05 0.000000000000D+00 0.000000000000D+00 0.110916811815D-04 0.000000000000D+00  6 4 -3 25 24 1 -1 4 0.51065894D-01 0.14489371D-01 0.17340710D+05 0.17340710D+05 0.17340710D+05 0.12407065D+01  1  2  5  8  6  5       21 -.266606777716D-03 0.100000000000D+01
-.392772882774D-05 0.000000000000D+00 0.000000000000D+00 0.110916811815D-04 0.000000000000D+00  6 4 -3 25 24 2 -2 4 0.51065894D-01 0.14489371D-01 0.17340710D+05 0.17340710D+05 0.17340710D+05 0.12407065D+01  1  2  5  8  6  5       21 -.266606777716D-03 0.100000000000D+01
0.526989953065D-09 0.000000000000D+00 0.000000000000D+00 0.110916811815D-04 0.232265298270D-07  6 4 -3 25 24 1 -1 4 0.51065894D-01 0.14489371D-01 0.16998704D+05 0.16998704D+05 0.16998704D+05 0.12416766D+01  1  2 11  8  6  5       21 0.358243014798D-07 0.100000000000D+01
0.526989953065D-09 0.000000000000D+00 0.000000000000D+00 0.110916811815D-04 0.232265298270D-07  6 4 -3 25 24 2 -2 4 0.51065894D-01 0.14489371D-01 0.16998704D+05 0.16998704D+05 0.16998704D+05 0.12416766D+01  1  2 11  8  6  5       21 0.358243014798D-07 0.100000000000D+01
  </mgrwgt>
  </event>
  <event>
  5     66 0.46179844E-03 0.21630268E+02 0.75467711E-02 0.10233796E+00
        2 -1    0    0  502    0 0.00000000E+00 0.00000000E+00 0.23941810E+03 0.23941831E+03 0.32000000E+00 0.0000E+00 0.9000E+01
       -1 -1    0    0    0  501 0.00000000E+00 0.00000000E+00 -.13740979E+03 0.13741017E+03 0.32000000E+00 0.0000E+00 0.9000E+01
       25  1    1    2    0    0 0.13893324E+02 0.77890686E+02 0.16816065E+03 0.22397095E+03 0.12500000E+03 0.0000E+00 0.9000E+01
       24  1    1    2    0    0 -.16311060E+02 -.56397096E+02 -.19542564E+02 0.10146828E+03 0.80419002E+02 0.0000E+00 0.9000E+01
       21  1    1    2  502  501 0.24177363E+01 -.21493590E+02 -.46609787E+02 0.51389246E+02 0.75000000E+00 0.0000E+00 0.9000E+01
#aMCatNLO 1  0  0  1  2 0.40770179D+00 0.00000000D+00  -5  6  0 0.00000000D+00 0.00000000D+00 0.00000000D+00 0.00000000D+00 0.00000000D+00
  <mgrwgt>
 0.4509934476D+00    3    2    0
 0.181379440653418D+03 0.000000000000000D+00 0.000000000000000D+00 0.181379440653418D+03
 0.181379440653418D+03 0.000000000000000D+00 0.000000000000000D+00 -.181379440653418D+03
 0.185372172118655D+03 0.138932451412459D+02 0.778913853196877D+02 0.111703858610227D+03
 0.110898371515886D+03 -.163111070813267D+02 -.563966781277302D+02 -.488323185241460D+02
 0.664883376722939D+02 0.241786194008088D+01 -.214947071919575D+02 -.628715400860811D+02
 0.000000000000000D+00 0.000000000000000D+00 -.000000000000000D+00 -.000000000000000D+00
 0.370615860871800D+03 0.000000000000000D+00 0.000000000000000D+00 0.370615860871800D+03
 0.774733260144275D+03 0.000000000000000D+00 0.000000000000000D+00 -.774733260144275D+03
 0.305661194501482D+03 -.195155908442852D+03 0.165046009329230D+03 0.111703858610227D+03
 0.163049860108005D+03 -.132939934855342D+03 -.777298623974202D+01 -.488323185241460D+02
 0.901175676401680D+02 -.642544543979816D+02 0.630162951959702D+01 -.628715400860811D+02
 0.586520498766420D+03 0.392350297696176D+03 -.163574652609084D+03 -.404117399272475D+03
0.824735838759D-03 0.000000000000D+00 0.000000000000D+00 0.354452987590D-04 0.000000000000D+00  6 2 -1 25 24 21 21 2 0.36833598D-01 0.21140013D-01 0.18108372D+05 0.18108372D+05 0.18108372D+05 0.12386050D+01  1  2  2  1  6  1        2 0.360036487003D+00 0.100000000000D+01
0.110069276718D-03 0.435225059247D-04 -.316720277877D-05 0.354452987590D-04 0.000000000000D+00  6 2 -1 25 24 21 21 4 0.36833598D-01 0.21140013D-01 0.18108372D+05 0.18108372D+05 0.18108372D+05 0.12386050D+01  1  2  3  1  6  1        2 0.737162837186D-01 0.100000000000D+01
0.257428717382D-04 0.000000000000D+00 0.000000000000D+00 0.354452987590D-04 0.000000000000D+00  6 2 -1 25 24 21 21 4 0.36833598D-01 0.21140013D-01 0.18108372D+05 0.18108372D+05 0.18108372D+05 0.12386050D+01  1  2 15  1  6  1        2 0.172406769025D-01 0.100000000000D+01
  </mgrwgt>
  </event>
  <event>
  5     66 0.46179844E-03 0.74585056E+02 0.75467711E-02 0.11112125E+00
        2 -1    0    0  502    0 0.00000000E+00 0.00000000E+00 0.76377722E+03 0.76377729E+03 0.32000000E+00 0.0000E+00 0.9000E+01
       -1 -1    0    0    0  501 0.00000000E+00 0.00000000E+00 -.14724497E+03 0.14724531E+03 0.32000000E+00 0.0000E+00 0.9000E+01
       25  1    1    2    0    0 -.93972124E+02 -.11565914E+03 0.55906155E+03 0.59193126E+03 0.12500000E+03 0.0000E+00 0.9000E+01
       24  1    1    2    0    0 0.14123250E+03 0.17335774E+03 0.57580773E+02 0.24450417E+03 0.80419002E+02 0.0000E+00 0.9000E+01
       21  1    1    2  502  501 -.47260375E+02 -.57698607E+02 -.11006954E+00 0.74587177E+02 0.75000000E+00 0.0000E+00 0.9000E+01
#aMCatNLO 1  0  0  5  2 0.14731215D+02 0.00000000D+00  -5  6  0 0.00000000D+00 0.00000000D+00 0.00000000D+00 0.00000000D+00 0.00000000D+00
  <mgrwgt>
 0.1691652387D+00   20    2    0
 0.335354348707337D+03 0.000000000000000D+00 0.000000000000000D+00 0.335354348707337D+03
 0.335354348707337D+03 -.000000000000000D+00 -.000000000000000D+00 -.335354348707337D+03
 0.290116075513409D+03 -.939715651324031D+02 -.115658452655201D+03 0.215255207944601D+03
 0.279180214026309D+03 0.141233037353458D+03 0.173358399329896D+03 -.146541702225332D+03
 0.101412407874956D+03 -.472614722210554D+02 -.576999466746958D+02 -.687135057192694D+02
 0.000000000000000D+00 0.000000000000000D+00 -.000000000000000D+00 0.000000000000000D+00
 0.335354348707337D+03 0.000000000000000D+00 0.000000000000000D+00 0.335354348707337D+03
 0.335354348707337D+03 -.000000000000000D+00 -.000000000000000D+00 -.335354348707337D+03
 0.289602501949052D+03 -.960081151353891D+02 -.118144808264755D+03 0.212294265686535D+03
 0.278229489432396D+03 0.139274858372526D+03 0.170967724273248D+03 -.149388700769438D+03
 0.861165322537314D+02 -.455790010683067D+02 -.362319289538668D+02 -.634496581023508D+02
 0.167601737794936D+02 0.231225783117011D+01 -.165909870546263D+02 0.544093185254381D+00
0.887706466269D-03 0.000000000000D+00 0.000000000000D+00 0.175064641585D-05 0.000000000000D+00  6 2 -1 25 24 21 21 2 0.11750422D+00 0.22653104D-01 0.64191046D+05 0.64191046D+05 0.64191046D+05 0.11816831D+01  1  2  2  3  6  5       21 0.876267044578D-01 0.100000000000D+01
0.152892455281D-04 0.468455572340D-04 -.340902656895D-05 0.175064641585D-05 0.000000000000D+00  6 2 -1 25 24 21 21 4 0.11750422D+00 0.22653104D-01 0.64191046D+05 0.64191046D+05 0.64191046D+05 0.11816831D+01  1  2  3  3  6  5       21 0.210743991852D-02 0.100000000000D+01
-.121241378446D-04 0.000000000000D+00 0.000000000000D+00 0.175064641585D-05 0.000000000000D+00  6 2 -1 25 24 21 21 4 0.11750422D+00 0.22653104D-01 0.64191046D+05 0.64191046D+05 0.64191046D+05 0.11816831D+01  1  2 15  3  6  5       21 -.167116762069D-02 0.100000000000D+01
0.765943591980D-03 0.000000000000D+00 0.000000000000D+00 0.175066633060D-05 0.000000000000D+00  6 2 -1 25 24 21 21 4 0.11750422D+00 0.22653104D-01 0.64180736D+05 0.64180736D+05 0.64180736D+05 0.11816898D+01  1  2 12  3  6  5       21 0.105578695663D+00 0.100000000000D+01
0.573868568577D-03 0.000000000000D+00 0.000000000000D+00 0.175066633060D-05 0.000000000000D+00  6 2 -1 25 24 21 21 4 0.11750422D+00 0.22653104D-01 0.64180736D+05 0.64180736D+05 0.64180736D+05 0.11816898D+01  1  2 12  3  6  5       21 0.791028159084D-01 0.100000000000D+01
-.134476648522D-02 0.000000000000D+00 0.000000000000D+00 0.175064641585D-05 0.000000000000D+00  6 2 -1 25 24 21 21 4 0.11750422D+00 0.22653104D-01 0.64191046D+05 0.64191046D+05 0.64191046D+05 0.11816831D+01  1  2  4  3  6  5       21 -.185360001370D+00 0.100000000000D+01
-.220512024328D-02 0.000000000000D+00 0.000000000000D+00 0.175064641585D-05 0.000000000000D+00  6 2 -1 25 24 21 21 4 0.11750422D+00 0.22653104D-01 0.64191046D+05 0.64191046D+05 0.64191046D+05 0.11816831D+01  1  2  5  3  6  5       21 -.303949492947D+00 0.100000000000D+01
0.280345093850D-02 0.000000000000D+00 -.000000000000D+00 0.175064641585D-05 0.000000000000D+00  6 2 -1 25 24 21 21 4 0.11750422D+00 0.22653104D-01 0.64191046D+05 0.64191046D+05 0.64191046D+05 0.11816831D+01  1  2  6  3  6  5       21 0.386422234278D+00 0.100000000000D+01
0.149748744797D-04 0.000000000000D+00 0.000000000000D+00 0.175066633060D-05 0.000000000000D+00  6 2 -1 25 24 1 -1 4 0.11750422D+00 0.22653104D-01 0.64180736D+05 0.64180736D+05 0.64180736D+05 0.11816898D+01  1  2 12  6  6  5       21 0.206415685417D-02 0.100000000000D+01
0.130827819320D-04 0.000000000000D+00 0.000000000000D+00 0.175066633060D-05 0.000000000000D+00  6 2 -1 25 24 1 -1 4 0.11750422D+00 0.22653104D-01 0.64180736D+05 0.64180736D+05 0.64180736D+05 0.11816898D+01  1  2 12  6  6  5       21 0.180334827067D-02 0.100000000000D+01
-.293134028001D-04 0.000000000000D+00 0.000000000000D+00 0.175064641585D-05 0.000000000000D+00  6 2 -1 25 24 1 -1 4 0.11750422D+00 0.22653104D-01 0.64191046D+05 0.64191046D+05 0.64191046D+05 0.11816831D+01  1  2  5  6  6  5       21 -.404050252806D-02 0.100000000000D+01
0.149748744797D-04 0.000000000000D+00 0.000000000000D+00 0.175066633060D-05 0.000000000000D+00  6 2 -1 25 24 2 -2 4 0.11750422D+00 0.22653104D-01 0.64180736D+05 0.64180736D+05 0.64180736D+05 0.11816898D+01  1  2 12  7  6  5       21 0.206415685417D-02 0.100000000000D+01
0.130827819320D-04 0.000000000000D+00 0.000000000000D+00 0.175066633060D-05 0.000000000000D+00  6 2 -1 25 24 2 -2 4 0.11750422D+00 0.22653104D-01 0.64180736D+05 0.64180736D+05 0.64180736D+05 0.11816898D+01  1  2 12  7  6  5       21 0.180334827067D-02 0.100000000000D+01
-.293134028001D-04 0.000000000000D+00 0.000000000000D+00 0.175064641585D-05 0.000000000000D+00  6 2 -1 25 24 2 -2 4 0.11750422D+00 0.22653104D-01 0.64191046D+05 0.64191046D+05 0.64191046D+05 0.11816831D+01  1  2  5  7  6  5       21 -.404050252806D-02 0.100000000000D+01
0.149748744797D-04 0.000000000000D+00 0.000000000000D+00 0.175066633060D-05 0.000000000000D+00  6 2 -1 25 24 3 -3 4 0.11750422D+00 0.22653104D-01 0.64180736D+05 0.64180736D+05 0.64180736D+05 0.11816898D+01  1  2 12  8  6  5       21 0.206415685417D-02 0.100000000000D+01
0.149748744797D-04 0.000000000000D+00 0.000000000000D+00 0.175066633060D-05 0.000000000000D+00  6 2 -1 25 24 4 -4 4 0.11750422D+00 0.22653104D-01 0.64180736D+05 0.64180736D+05 0.64180736D+05 0.11816898D+01  1  2 12  8  6  5       21 0.206415685417D-02 0.100000000000D+01
0.130827819320D-04 0.000000000000D+00 0.000000000000D+00 0.175066633060D-05 0.000000000000D+00  6 2 -1 25 24 3 -3 4 0.11750422D+00 0.22653104D-01 0.64180736D+05 0.64180736D+05 0.64180736D+05 0.11816898D+01  1  2 12  8  6  5       21 0.180334827067D-02 0.100000000000D+01
0.130827819320D-04 0.000000000000D+00 0.000000000000D+00 0.175066633060D-05 0.000000000000D+00  6 2 -1 25 24 4 -4 4 0.11750422D+00 0.22653104D-01 0.64180736D+05 0.64180736D+05 0.64180736D+05 0.11816898D+01  1  2 12  8  6  5       21 0.180334827067D-02 0.100000000000D+01
-.293134028001D-04 0.000000000000D+00 0.000000000000D+00 0.175064641585D-05 0.000000000000D+00  6 2 -1 25 24 3 -3 4 0.11750422D+00 0.22653104D-01 0.64191046D+05 0.64191046D+05 0.64191046D+05 0.11816831D+01  1  2  5  8  6  5       21 -.404050252806D-02 0.100000000000D+01
-.293134028001D-04 0.000000000000D+00 0.000000000000D+00 0.175064641585D-05 0.000000000000D+00  6 2 -1 25 24 4 -4 4 0.11750422D+00 0.22653104D-01 0.64191046D+05 0.64191046D+05 0.64191046D+05 0.11816831D+01  1  2  5  8  6  5       21 -.404050252806D-02 0.100000000000D+01
  </mgrwgt>
  </event>
  <event>
  6     66 0.46179844E-03 0.35366393E+02 0.75467711E-02 0.12293417E+00
        2 -1    0    0  502    0 0.00000000E+00 0.00000000E+00 0.15889603E+04 0.15889603E+04 0.32000000E+00 0.0000E+00 0.9000E+01
       -1 -1    0    0    0  501 0.00000000E+00 0.00000000E+00 -.12367568E+02 0.12371707E+02 0.32000000E+00 0.0000E+00 0.9000E+01
       25  1    1    2    0    0 -.16532654E+02 -.28936703E+02 0.96152525E+03 0.97018888E+03 0.12500000E+03 0.0000E+00 0.9000E+01
       24  1    1    2    0    0 -.22122523E+02 0.31762352E+02 0.28529250E+03 0.29892688E+03 0.80419002E+02 0.0000E+00 0.9000E+01
       21  1    1    2  502  503 0.27547767E+02 -.31492629E+01 0.19218948E+03 0.19418073E+03 0.75000000E+00 0.0000E+00 0.9000E+01
       21  1    1    2  503  501 0.11107410E+02 0.32361420E+00 0.13758551E+03 0.13803556E+03 0.75000000E+00 0.0000E+00 0.9000E+01
#aMCatNLO 2  0  0  5  1 0.50482539D+01 0.00000000D+00  -5  6  0 0.00000000D+00 0.00000000D+00 0.00000000D+00 0.00000000D+00 0.00000000D+00
  <mgrwgt>
 0.9343393757D-01    3    2    0
 0.140195986533683D+03 0.000000000000000D+00 0.000000000000000D+00 0.140195986533683D+03
 0.140195986533683D+03 -.000000000000000D+00 -.000000000000000D+00 -.140195986533683D+03
 0.134316701306483D+03 -.171311174268443D+02 -.288929558286063D+02 0.358845115481432D+02
 0.103239614747625D+03 -.225820734963523D+02 0.317959441209576D+02 -.516746552279724D+02
 0.428356570132576D+02 0.397131909231966D+02 -.290298829235139D+01 0.157901436798292D+02
 0.000000000000000D+00 0.000000000000000D+00 0.000000000000000D+00 0.000000000000000D+00
 0.140195986533683D+03 0.000000000000000D+00 0.000000000000000D+00 0.140195986533683D+03
 0.140195986533683D+03 -.000000000000000D+00 -.000000000000000D+00 -.140195986533683D+03
 0.134314909351377D+03 -.165417874302161D+02 -.289360351692679D+02 0.361188318106371D+02
 0.103041340851635D+03 -.221295297522633D+02 0.317628636970399D+02 -.514947217959197D+02
 0.278230382587445D+02 0.270906452732798D+02 -.312965748761768D+01 0.551576292411853D+01
 0.152126846056094D+02 0.115806719091995D+02 0.302828959845763D+00 0.986012706116410D+01
-.429975244882D-04 0.000000000000D+00 0.000000000000D+00 0.134503631807D-04 0.000000000000D+00  6 2 -1 25 24 21 21 4 0.24445575D+00 0.19030237D-02 0.16573248D+05 0.16573248D+05 0.16573248D+05 0.12429145D+01  1  2 13  3  6  5       21 -.102632840009D+00 0.100000000000D+01
-.434595821371D-04 0.000000000000D+00 0.000000000000D+00 0.134503631807D-04 0.000000000000D+00  6 2 -1 25 24 21 21 4 0.24445575D+00 0.19030237D-02 0.16573248D+05 0.16573248D+05 0.16573248D+05 0.12429145D+01  1  2 13  3  6  5       21 -.103735747427D+00 0.100000000000D+01
0.125600796097D-03 0.000000000000D+00 0.000000000000D+00 0.134408875077D-04 0.440947658051D-05  6 2 -1 25 24 21 21 4 0.24445575D+00 0.19030237D-02 0.16573248D+05 0.16573248D+05 0.16573248D+05 0.12429145D+01  1  2  1  3  6  5       21 0.299802525010D+00 0.100000000000D+01
  </mgrwgt>
  </event>
  <event>
  5     66 -.46179844E-03 0.98379561E+02 0.75467711E-02 0.10517636E+00
        4 -1    0    0  502    0 0.00000000E+00 0.00000000E+00 0.57444153E+03 0.57444362E+03 0.15500000E+01 0.0000E+00 0.9000E+01
       -3 -1    0    0    0  501 0.00000000E+00 0.00000000E+00 -.26695592E+03 0.26695638E+03 0.50000000E+00 0.0000E+00 0.9000E+01
       25  1    1    2    0    0 -.31310769E+02 -.27707323E+03 0.22579229E+03 0.37994354E+03 0.12500000E+03 0.0000E+00 0.9000E+01
       24  1    1    2    0    0 0.12091176E+03 0.31769131E+03 0.95466026E+02 0.36211656E+03 0.80419002E+02 0.0000E+00 0.9000E+01
       21  1    1    2  502  501 -.89600996E+02 -.40618083E+02 -.13772700E+02 0.99339906E+02 0.75000000E+00 0.0000E+00 0.9000E+01
#aMCatNLO 1  0  0  2  5 0.22913045D+01 0.00000000D+00  -5  6  0 0.00000000D+00 0.00000000D+00 0.00000000D+00 0.00000000D+00 0.00000000D+00
  <mgrwgt>
 -.5778636597D-01   11    4    0
 0.391601379361557D+03 0.000000000000000D+00 0.000000000000000D+00 0.391601379361557D+03
 0.391601379361557D+03 0.000000000000000D+00 0.000000000000000D+00 -.391601379361557D+03
 0.319529534999275D+03 -.313099513953974D+02 -.277072855095351D+03 0.934047303394310D+02
 0.351544887067084D+03 0.120912664479253D+03 0.317691716701982D+03 -.396067213502118D+02
 0.112128336656755D+03 -.896027130838558D+02 -.406188616066313D+02 -.537980089892193D+02
 0.000000000000000D+00 -.000000000000000D+00 0.000000000000000D+00 -.000000000000000D+00
 0.391822245532284D+03 0.000000000000000D+00 0.000000000000000D+00 0.391822245532284D+03
 0.397591088780510D+03 0.000000000000000D+00 0.000000000000000D+00 -.397591088780510D+03
 0.319615675947555D+03 -.303968779451274D+02 -.277273811372117D+03 0.934047303394310D+02
 0.351692086380114D+03 0.121917298479016D+03 0.317470609070340D+03 -.396067213502118D+02
 0.111898348059587D+03 -.892826718561926D+02 -.406892987587616D+02 -.537980089892193D+02
 0.620722392553724D+01 -.223774867769625D+01 0.492501060538466D+00 -.576884324822569D+01
 0.391601379361557D+03 0.000000000000000D+00 0.000000000000000D+00 0.391601379361557D+03
 0.391601379361557D+03 0.000000000000000D+00 0.000000000000000D+00 -.391601379361557D+03
 0.319529534999275D+03 -.313099513953974D+02 -.277072855095351D+03 0.934047303394310D+02
 0.351544887067084D+03 0.120912664479253D+03 0.317691716701982D+03 -.396067213502118D+02
 0.000000000000000D+00 -.000000000000000D+00 0.000000000000000D+00 -.000000000000000D+00
 0.112128336656755D+03 -.896027130838558D+02 -.406188616066313D+02 -.537980089892193D+02
 0.391822245532284D+03 0.000000000000000D+00 0.000000000000000D+00 0.391822245532284D+03
 0.397591088780510D+03 0.000000000000000D+00 0.000000000000000D+00 -.397591088780510D+03
 0.319615675947555D+03 -.303968779451274D+02 -.277273811372117D+03 0.934047303394310D+02
 0.351692086380114D+03 0.121917298479016D+03 0.317470609070340D+03 -.396067213502118D+02
 0.620722392553724D+01 -.223774867769625D+01 0.492501060538466D+00 -.576884324822569D+01
 0.111898348059587D+03 -.892826718561926D+02 -.406892987587616D+02 -.537980089892193D+02
0.182471379755D-02 0.000000000000D+00 0.000000000000D+00 0.143661851372D-05 0.000000000000D+00  6 4 -3 25 24 21 21 2 0.88375816D-01 0.41070338D-01 0.14184974D+06 0.14184974D+06 0.14184974D+06 0.11498768D+01  1  2  2  2  6  2       -3 0.349357130577D-02 0.100000000000D+01
0.127071837716D-03 0.962927925917D-04 -.700738144076D-05 0.143661851372D-05 0.000000000000D+00  6 4 -3 25 24 21 21 4 0.88375816D-01 0.41070338D-01 0.14184974D+06 0.14184974D+06 0.14184974D+06 0.11498768D+01  1  2  3  2  6  2       -3 0.321682023397D-03 0.100000000000D+01
-.157914565689D-04 0.000000000000D+00 0.000000000000D+00 0.143661851372D-05 0.000000000000D+00  6 4 -3 25 24 21 21 4 0.88375816D-01 0.41070338D-01 0.14184974D+06 0.14184974D+06 0.14184974D+06 0.11498768D+01  1  2 15  2  6  2       -3 -.399760308245D-04 0.100000000000D+01
0.266562832462D-04 0.000000000000D+00 0.000000000000D+00 0.143604100317D-05 0.000000000000D+00  6 4 -3 25 24 21 21 4 0.88375816D-01 0.41854455D-01 0.14270496D+06 0.14270496D+06 0.14270496D+06 0.11496457D+01  1  2 12  2  6  2       -3 0.649613135970D-04 0.100000000000D+01
-.385618744839D+00 0.000000000000D+00 0.000000000000D+00 0.143661851372D-05 0.000000000000D+00  6 4 -3 25 24 21 21 4 0.88375816D-01 0.41070338D-01 0.14184974D+06 0.14184974D+06 0.14184974D+06 0.11498768D+01  1  2  4  2  6  2       -3 -.976192839652D+00 0.100000000000D+01
-.515330488184D+00 0.000000000000D+00 -.239491625906D-01 0.143661851372D-05 0.000000000000D+00  6 4 -3 25 24 21 21 4 0.88375816D-01 0.41712152D-01 0.14184974D+06 0.14184974D+06 0.14184974D+06 0.11498768D+01  1  2  5  2  6  2       -3 -.126518593382D+01 0.100000000000D+01
0.515642737547D+00 0.000000000000D+00 0.239462836307D-01 0.143661851372D-05 0.000000000000D+00  6 4 -3 25 24 21 21 4 0.88375816D-01 0.41070338D-01 0.14184974D+06 0.14184974D+06 0.14184974D+06 0.11498768D+01  1  2  6  2  6  2       -3 0.130534823566D+01 0.100000000000D+01
0.373091677445D+00 0.000000000000D+00 0.000000000000D+00 0.143661851372D-05 0.186737311937D-05  6 4 -3 25 24 21 21 4 0.88425661D-01 0.41698526D-01 0.14270496D+06 0.14270496D+06 0.14270496D+06 0.11496457D+01  1  2 11  2  6  2       -3 0.914777212270D+00 0.100000000000D+01
0.277360719150D-05 0.000000000000D+00 0.000000000000D+00 0.143604100317D-05 0.000000000000D+00  6 4 21 25 24 3 21 4 0.88375816D-01 0.41854455D-01 0.14270496D+06 0.14270496D+06 0.14270496D+06 0.11496457D+01  3  4 12  5  5  2       -3 0.124452046188D-03 0.100000000000D+01
-.146228525775D-02 0.000000000000D+00 -.680389666858D-04 0.143661851372D-05 0.000000000000D+00  6 4 21 25 24 3 21 4 0.88375816D-01 0.41712152D-01 0.14184974D+06 0.14184974D+06 0.14184974D+06 0.11498768D+01  3  4  5  5  5  2       -3 -.661366676315D-01 0.100000000000D+01
0.567752415779D-03 0.000000000000D+00 0.000000000000D+00 0.143661851372D-05 0.566068552210D-08  6 4 21 25 24 3 21 4 0.88425661D-01 0.41698526D-01 0.14270496D+06 0.14270496D+06 0.14270496D+06 0.11496457D+01  3  4 11  5  5  2       -3 0.256389365553D-01 0.100000000000D+01
  </mgrwgt>
  </event>
  <event>
  5     66 -.46179844E-03 0.58136841E+02 0.75467711E-02 0.12049140E+00
        2 -1    0    0  502    0 0.00000000E+00 0.00000000E+00 0.14334271E+04 0.14334271E+04 0.32000000E+00 0.0000E+00 0.9000E+01
       -1 -1    0    0    0  501 0.00000000E+00 0.00000000E+00 -.18585450E+02 0.18588205E+02 0.32000000E+00 0.0000E+00 0.9000E+01
       25  1    1    2    0    0 -.48697993E+00 -.29865776E+02 0.32289895E+03 0.34753551E+03 0.12500000E+03 0.0000E+00 0.9000E+01
       24  1    1    2    0    0 0.58567257E+02 0.39432673E+02 0.71844542E+03 0.72637187E+03 0.80419002E+02 0.0000E+00 0.9000E+01
       21  1    1    2  502  501 -.58080277E+02 -.95668970E+01 0.37349726E+03 0.37810793E+03 0.75000000E+00 0.0000E+00 0.9000E+01
#aMCatNLO 1  0  0  5  2 0.63419909D+01 0.00000000D+00  -5  6  0 0.00000000D+00 0.00000000D+00 0.00000000D+00 0.00000000D+00 0.00000000D+00
  <mgrwgt>
 -.3088872719D+00   25    2    0
 0.163226570833662D+03 0.000000000000000D+00 0.000000000000000D+00 0.163226570833662D+03
 0.163226570833662D+03 -.000000000000000D+00 -.000000000000000D+00 -.163226570833662D+03
 0.146349040423779D+03 -.485136908617534D+00 -.298654722256390D+02 -.700061414725898D+02
 0.117066693318255D+03 0.585687316596637D+02 0.394329156597916D+02 0.474567546767144D+02
 0.630374079252904D+02 -.580835947510461D+02 -.956744343415261D+01 0.225493867958754D+02
 0.000000000000000D+00 0.000000000000000D+00 0.000000000000000D+00 0.000000000000000D+00
 0.163226570833662D+03 0.000000000000000D+00 0.000000000000000D+00 0.163226570833662D+03
 0.163226570833662D+03 -.000000000000000D+00 -.000000000000000D+00 -.163226570833662D+03
 0.146245677757516D+03 -.119319812579791D+01 -.299821030173854D+02 -.697312558300983D+02
 0.116842573613628D+03 0.580026856240994D+02 0.393396773977728D+02 0.476765067608428D+02
 0.470206703819442D+02 -.449161566755636D+02 -.868647290410874D+01 0.108640462604800D+02
 0.163442199142354D+02 -.118933308227379D+02 -.671101476278774D+00 0.111907028087756D+02
0.478269292058D-04 0.000000000000D+00 0.000000000000D+00 0.550528003340D-05 0.000000000000D+00  6 2 -1 25 24 21 21 2 0.22052746D+00 0.28595147D-02 0.21668087D+05 0.21668087D+05 0.21668087D+05 0.12300142D+01  1  2  2  3  6  5       21 0.485955814479D-01 0.100000000000D+01
-.940903179872D-06 0.252389639433D-05 -.183668001270D-06 0.550528003340D-05 0.000000000000D+00  6 2 -1 25 24 21 21 4 0.22052746D+00 0.28595147D-02 0.21668087D+05 0.21668087D+05 0.21668087D+05 0.12300142D+01  1  2  3  3  6  5       21 -.144640351811D-02 0.100000000000D+01
0.210056863206D-05 0.000000000000D+00 0.000000000000D+00 0.550528003340D-05 0.000000000000D+00  6 2 -1 25 24 21 21 4 0.22052746D+00 0.28595147D-02 0.21668087D+05 0.21668087D+05 0.21668087D+05 0.12300142D+01  1  2 15  3  6  5       21 0.322909936372D-02 0.100000000000D+01
0.153154128204D-03 0.000000000000D+00 0.000000000000D+00 0.550966370412D-05 0.000000000000D+00  6 2 -1 25 24 21 21 4 0.22052746D+00 0.28595147D-02 0.21445355D+05 0.21445355D+05 0.21445355D+05 0.12305038D+01  1  2 12  3  6  5       21 0.235772887724D+00 0.100000000000D+01
0.155764690080D-03 0.000000000000D+00 0.000000000000D+00 0.550966370412D-05 0.000000000000D+00  6 2 -1 25 24 21 21 4 0.22052746D+00 0.28595147D-02 0.21445355D+05 0.21445355D+05 0.21445355D+05 0.12305038D+01  1  2 12  3  6  5       21 0.239791713199D+00 0.100000000000D+01
-.729270718840D-03 0.000000000000D+00 0.000000000000D+00 0.550528003340D-05 0.000000000000D+00  6 2 -1 25 24 21 21 4 0.22052746D+00 0.28595147D-02 0.21668087D+05 0.21668087D+05 0.21668087D+05 0.12300142D+01  1  2  4  3  6  5       21 -.112107149381D+01 0.100000000000D+01
-.359876772570D-03 0.000000000000D+00 0.000000000000D+00 0.550528003340D-05 0.000000000000D+00  6 2 -1 25 24 21 21 4 0.22052746D+00 0.28595147D-02 0.21668087D+05 0.21668087D+05 0.21668087D+05 0.12300142D+01  1  2  5  3  6  5       21 -.553220608739D+00 0.100000000000D+01
0.463915789071D-03 0.000000000000D+00 -.000000000000D+00 0.550528003340D-05 0.000000000000D+00  6 2 -1 25 24 21 21 4 0.22052746D+00 0.28595147D-02 0.21668087D+05 0.21668087D+05 0.21668087D+05 0.12300142D+01  1  2  6  3  6  5       21 0.713154598448D+00 0.100000000000D+01
0.704276820375D-04 0.000000000000D+00 0.000000000000D+00 0.550528003340D-05 0.127894732989D-05  6 2 -1 25 24 21 21 4 0.22052746D+00 0.28595147D-02 0.21445355D+05 0.21445355D+05 0.21445355D+05 0.12305038D+01  1  2 11  3  6  5       21 0.108419787076D+00 0.100000000000D+01
0.255566438291D-05 0.000000000000D+00 0.000000000000D+00 0.550966370412D-05 0.000000000000D+00  6 2 -1 25 24 1 -1 4 0.22052746D+00 0.28595147D-02 0.21445355D+05 0.21445355D+05 0.21445355D+05 0.12305038D+01  1  2 12  6  6  5       21 0.393431361386D-02 0.100000000000D+01
0.258685714117D-05 0.000000000000D+00 0.000000000000D+00 0.550966370412D-05 0.000000000000D+00  6 2 -1 25 24 1 -1 4 0.22052746D+00 0.28595147D-02 0.21445355D+05 0.21445355D+05 0.21445355D+05 0.12305038D+01  1  2 12  6  6  5       21 0.398233325772D-02 0.100000000000D+01
-.268941533576D-05 0.000000000000D+00 0.000000000000D+00 0.550528003340D-05 0.000000000000D+00  6 2 -1 25 24 1 -1 4 0.22052746D+00 0.28595147D-02 0.21668087D+05 0.21668087D+05 0.21668087D+05 0.12300142D+01  1  2  5  6  6  5       21 -.413430402461D-02 0.100000000000D+01
0.459234363991D-06 0.000000000000D+00 0.000000000000D+00 0.550528003340D-05 0.142669912626D-07  6 2 -1 25 24 1 -1 4 0.22052746D+00 0.28595147D-02 0.21445355D+05 0.21445355D+05 0.21445355D+05 0.12305038D+01  1  2 11  6  6  5       21 0.706967637177D-03 0.100000000000D+01
0.255566438291D-05 0.000000000000D+00 0.000000000000D+00 0.550966370412D-05 0.000000000000D+00  6 2 -1 25 24 2 -2 4 0.22052746D+00 0.28595147D-02 0.21445355D+05 0.21445355D+05 0.21445355D+05 0.12305038D+01  1  2 12  7  6  5       21 0.393431361386D-02 0.100000000000D+01
0.258685714117D-05 0.000000000000D+00 0.000000000000D+00 0.550966370412D-05 0.000000000000D+00  6 2 -1 25 24 2 -2 4 0.22052746D+00 0.28595147D-02 0.21445355D+05 0.21445355D+05 0.21445355D+05 0.12305038D+01  1  2 12  7  6  5       21 0.398233325772D-02 0.100000000000D+01
-.268941533576D-05 0.000000000000D+00 0.000000000000D+00 0.550528003340D-05 0.000000000000D+00  6 2 -1 25 24 2 -2 4 0.22052746D+00 0.28595147D-02 0.21668087D+05 0.21668087D+05 0.21668087D+05 0.12300142D+01  1  2  5  7  6  5       21 -.413430402461D-02 0.100000000000D+01
0.441802715287D-06 0.000000000000D+00 0.000000000000D+00 0.550528003340D-05 0.137086158498D-07  6 2 -1 25 24 2 -2 4 0.22052746D+00 0.28595147D-02 0.21445355D+05 0.21445355D+05 0.21445355D+05 0.12305038D+01  1  2 11  7  6  5       21 0.680132512320D-03 0.100000000000D+01
0.255566438291D-05 0.000000000000D+00 0.000000000000D+00 0.550966370412D-05 0.000000000000D+00  6 2 -1 25 24 3 -3 4 0.22052746D+00 0.28595147D-02 0.21445355D+05 0.21445355D+05 0.21445355D+05 0.12305038D+01  1  2 12  8  6  5       21 0.393431361386D-02 0.100000000000D+01
0.255566438291D-05 0.000000000000D+00 0.000000000000D+00 0.550966370412D-05 0.000000000000D+00  6 2 -1 25 24 4 -4 4 0.22052746D+00 0.28595147D-02 0.21445355D+05 0.21445355D+05 0.21445355D+05 0.12305038D+01  1  2 12  8  6  5       21 0.393431361386D-02 0.100000000000D+01
0.258685714117D-05 0.000000000000D+00 0.000000000000D+00 0.550966370412D-05 0.000000000000D+00  6 2 -1 25 24 3 -3 4 0.22052746D+00 0.28595147D-02 0.21445355D+05 0.21445355D+05 0.21445355D+05 0.12305038D+01  1  2 12  8  6  5       21 0.398233325772D-02 0.100000000000D+01
0.258685714117D-05 0.000000000000D+00 0.000000000000D+00 0.550966370412D-05 0.000000000000D+00  6 2 -1 25 24 4 -4 4 0.22052746D+00 0.28595147D-02 0.21445355D+05 0.21445355D+05 0.21445355D+05 0.12305038D+01  1  2 12  8  6  5       21 0.398233325772D-02 0.100000000000D+01
-.268941533576D-05 0.000000000000D+00 0.000000000000D+00 0.550528003340D-05 0.000000000000D+00  6 2 -1 25 24 3 -3 4 0.22052746D+00 0.28595147D-02 0.21668087D+05 0.21668087D+05 0.21668087D+05 0.12300142D+01  1  2  5  8  6  5       21 -.413430402461D-02 0.100000000000D+01
-.268941533576D-05 0.000000000000D+00 0.000000000000D+00 0.550528003340D-05 0.000000000000D+00  6 2 -1 25 24 4 -4 4 0.22052746D+00 0.28595147D-02 0.21668087D+05 0.21668087D+05 0.21668087D+05 0.12300142D+01  1  2  5  8  6  5       21 -.413430402461D-02 0.100000000000D+01
0.445320315267D-06 0.000000000000D+00 0.000000000000D+00 0.550528003340D-05 0.137841561653D-07  6 2 -1 25 24 3 -3 4 0.22052746D+00 0.28595147D-02 0.21445355D+05 0.21445355D+05 0.21445355D+05 0.12305038D+01  1  2 11  8  6  5       21 0.685547676213D-03 0.100000000000D+01
0.445320315267D-06 0.000000000000D+00 0.000000000000D+00 0.550528003340D-05 0.137841561653D-07  6 2 -1 25 24 4 -4 4 0.22052746D+00 0.28595147D-02 0.21445355D+05 0.21445355D+05 0.21445355D+05 0.12305038D+01  1  2 11  8  6  5       21 0.685547676213D-03 0.100000000000D+01
  </mgrwgt>
  </event>
  <event>
  6     66 0.46179844E-03 0.22836043E+02 0.75467711E-02 0.12399039E+00
        2 -1    0    0  502    0 0.00000000E+00 0.00000000E+00 0.64661689E+02 0.64662480E+02 0.32000000E+00 0.0000E+00 0.9000E+01
       -1 -1    0    0    0  503 0.00000000E+00 0.00000000E+00 -.32939263E+03 0.32939279E+03 0.32000000E+00 0.0000E+00 0.9000E+01
       25  1    1    2    0    0 -.29254478E+01 0.29997347E+02 -.10062289E+03 0.16327390E+03 0.12500000E+03 0.0000E+00 0.9000E+01
       24  1    1    2    0    0 0.13234294E+02 -.33463669E+01 -.24017425E+02 0.85031743E+02 0.80419002E+02 0.0000E+00 0.9000E+01
       21  1    1    2  502  501 -.15455258E+02 -.21497121E+02 -.13280490E+03 0.13542044E+03 0.75000000E+00 0.0000E+00 0.9000E+01
       21  1    1    2  501  503 0.51464112E+01 -.51538588E+01 -.72857221E+01 0.10329185E+02 0.75000000E+00 0.0000E+00 0.9000E+01
#aMCatNLO 2  0  0  2  1 0.72833927D+01 0.00000000D+00  -5  6  0 0.00000000D+00 0.00000000D+00 0.00000000D+00 0.00000000D+00 0.00000000D+00
  <mgrwgt>
 0.4539204563D-01    2    2    0
 0.142227473871273D+03 0.000000000000000D+00 0.000000000000000D+00 0.142227473871273D+03
 0.142227473871273D+03 0.000000000000000D+00 0.000000000000000D+00 -.142227473871273D+03
 0.128589803697411D+03 -.593888079634320D+00 0.276636132223226D+02 0.120295226577480D+02
 0.932705536344556D+02 0.149188214178127D+02 -.503246157392221D+01 0.445452951378452D+02
 0.625945904106795D+02 -.143249333381784D+02 -.226311516484004D+02 -.565748177955933D+02
 0.000000000000000D+00 0.000000000000000D+00 -.000000000000000D+00 -.000000000000000D+00
 0.145683813957378D+03 0.000000000000000D+00 0.000000000000000D+00 0.145683813957378D+03
 0.146163537310282D+03 0.000000000000000D+00 0.000000000000000D+00 -.146163537310282D+03
 0.129143912875072D+03 -.292498894472443D+01 0.299980875554463D+02 0.120295226577480D+02
 0.929400287817167D+02 0.132346193835120D+02 -.334582223550905D+01 0.445452951378452D+02
 0.624642354660245D+02 -.154560416039701D+02 -.214984064918013D+02 -.565748177955933D+02
 0.729917414484621D+01 0.514641116518253D+01 -.515385882813597D+01 -.479723352903394D+00
-.154014380531D-03 0.000000000000D+00 0.000000000000D+00 0.406341377275D-04 0.000000000000D+00  6 2 -1 25 24 21 21 4 0.97107298D-02 0.49304710D-01 0.14013291D+05 0.14013291D+05 0.14013291D+05 0.12512055D+01  1  2  8  2  6  2       -1 -.115538108342D+00 0.100000000000D+01
0.234024747210D-03 0.000000000000D+00 0.000000000000D+00 0.406341377275D-04 0.329272954126D-05  6 2 -1 25 24 21 21 4 0.99467150D-02 0.50669190D-01 0.14873382D+05 0.14873382D+05 0.14873382D+05 0.12482424D+01  1  2  1  2  6  2       -1 0.160930153970D+00 0.100000000000D+01
  </mgrwgt>
  </event>
  <event>
  6     66 -.46179844E-03 0.33900221E+02 0.75467711E-02 0.11341921E+00
        2 -1    0    0  502    0 0.00000000E+00 0.00000000E+00 0.11259331E+03 0.11259377E+03 0.32000000E+00 0.0000E+00 0.9000E+01
       -1 -1    0    0    0  503 0.00000000E+00 0.00000000E+00 -.14483196E+04 0.14483196E+04 0.32000000E+00 0.0000E+00 0.9000E+01
       25  1    1    2    0    0 -.26567170E+02 0.13330210E+03 -.86966293E+03 0.88905223E+03 0.12500000E+03 0.0000E+00 0.9000E+01
       24  1    1    2    0    0 0.45324743E+02 -.17709627E+03 -.49084022E+03 0.52991392E+03 0.80419002E+02 0.0000E+00 0.9000E+01
       21  1    1    2  502  501 -.25741727E+02 0.31739478E+02 0.77387482E+02 0.87518089E+02 0.75000000E+00 0.0000E+00 0.9000E+01
       21  1    1    2  501  503 0.69841541E+01 0.12054693E+02 -.52610627E+02 0.54429170E+02 0.75000000E+00 0.0000E+00 0.9000E+01
#aMCatNLO 2  0  0  2  5 0.13931764D+02 0.00000000D+00  -5  6  0 0.00000000D+00 0.00000000D+00 0.00000000D+00 0.00000000D+00 0.00000000D+00
  <mgrwgt>
 -.2573044342D+01    3    2    0
 0.394624777672349D+03 0.000000000000000D+00 0.000000000000000D+00 0.394624777672349D+03
 0.394624777672349D+03 0.000000000000000D+00 0.000000000000000D+00 -.394624777672349D+03
 0.284937256844166D+03 -.240540633063167D+02 0.137639649565894D+03 -.214571594680451D+03
 0.211193022860763D+03 0.472035320462570D+02 -.173853538975483D+03 -.753793771449111D+02
 0.293119275639769D+03 -.231494687399404D+02 0.362138894095881D+02 0.289950971825362D+03
 0.000000000000000D+00 0.000000000000000D+00 0.000000000000000D+00 -.000000000000000D+00
 0.397891947574089D+03 0.000000000000000D+00 0.000000000000000D+00 0.397891947574089D+03
 0.409822915930558D+03 0.000000000000000D+00 0.000000000000000D+00 -.409822915930558D+03
 0.283092247243916D+03 -.265671445932513D+02 0.133302055625786D+03 -.214571594680451D+03
 0.213463585904954D+03 0.453247624239369D+02 -.177096307035156D+03 -.753793771449111D+02
 0.292816673752431D+03 -.257417718846930D+02 0.317395580498899D+02 0.289950971825362D+03
 0.183423566033447D+02 0.698415405400741D+01 0.120546933594798D+02 -.119309683564692D+02
-.143590730428D+00 0.000000000000D+00 0.000000000000D+00 0.174424307357D-04 0.000000000000D+00  6 2 -1 25 24 21 21 4 0.17179522D-01 0.22399782D+00 0.48217972D+05 0.48217972D+05 0.48217972D+05 0.11938458D+01  1  2 13  2  6  2       -1 -.130115502397D+01 0.100000000000D+01
-.202075193383D+00 0.000000000000D+00 0.000000000000D+00 0.175092442245D-04 0.000000000000D+00  6 2 -1 25 24 21 21 4 0.17179522D-01 0.21455119D+00 0.45740827D+05 0.45740827D+05 0.45740827D+05 0.11961302D+01  1  2  8  2  6  2       -1 -.212662252863D+01 0.100000000000D+01
0.935842013308D-01 0.000000000000D+00 0.000000000000D+00 0.175092442245D-04 0.368985772033D-06  6 2 -1 25 24 21 21 4 0.17321754D-01 0.22281417D+00 0.48217972D+05 0.48217972D+05 0.48217972D+05 0.11938458D+01  1  2  1  2  6  2       -1 0.854733210210D+00 0.100000000000D+01
  </mgrwgt>
  </event>
  <event>
  5     66 0.46179844E-03 0.25746608E+02 0.75467711E-02 0.11899323E+00
        2 -1    0    0  502    0 0.00000000E+00 0.00000000E+00 0.83799393E+02 0.83800004E+02 0.32000000E+00 0.0000E+00 0.9000E+01
       -1 -1    0    0    0  501 -.00000000E+00 -.00000000E+00 -.52630222E+03 0.52630232E+03 0.32000000E+00 0.0000E+00 0.9000E+01
       25  1    1    2    0    0 0.10410975E+03 -.26346642E+02 -.59328878E+02 0.17515108E+03 0.12500000E+03 0.0000E+00 0.9000E+01
       24  1    1    2    0    0 -.94301826E+02 0.25448246E+01 -.38923127E+03 0.40849419E+03 0.80419002E+02 0.0000E+00 0.9000E+01
       21  1    1    2  502  501 -.98079276E+01 0.23801817E+02 0.60573119E+01 0.26457050E+02 0.75000000E+00 0.0000E+00 0.9000E+01
#aMCatNLO 1  0  0  5  2 0.72082742D+01 0.00000000D+00  -5  6  0 0.00000000D+00 0.00000000D+00 0.00000000D+00 0.00000000D+00 0.00000000D+00
  <mgrwgt>
 0.2393006757D+00   25    2    0
 0.210009577936777D+03 0.000000000000000D+00 0.000000000000000D+00 0.210009577936777D+03
 0.210009577936777D+03 -.000000000000000D+00 -.000000000000000D+00 -.210009577936777D+03
 0.191911753546113D+03 0.104110381851667D+03 -.263481652400106D+02 0.983459390535732D+02
 0.183296103482472D+03 -.943012268995212D+02 0.254336946844225D+01 -.135022425820598D+03
 0.448112988449677D+02 -.980915495214606D+01 0.238047957715684D+02 0.366764867670243D+02
 0.000000000000000D+00 0.000000000000000D+00 0.000000000000000D+00 0.000000000000000D+00
 0.210009577936777D+03 0.000000000000000D+00 0.000000000000000D+00 0.210009577936777D+03
 0.210009577936777D+03 -.000000000000000D+00 -.000000000000000D+00 -.210009577936777D+03
 0.192242872648174D+03 0.103796977747575D+03 -.255875981240573D+02 0.995177588007946D+02
 0.182641383628199D+03 -.945997689512932D+02 0.326786944895323D+01 -.133906175372456D+03
 0.327608299161490D+02 -.640970002819678D+00 0.203445674525448D+02 0.256702105448939D+02
 0.123740696810312D+02 -.855623879346184D+01 0.197516122255925D+01 0.871820602676794D+01
0.568125734220D-03 0.000000000000D+00 0.000000000000D+00 0.171448275086D-04 0.000000000000D+00  6 2 -1 25 24 21 21 2 0.12892269D-01 0.80969628D-01 0.24728405D+05 0.24728405D+05 0.24728405D+05 0.12238066D+01  1  2  2  3  6  5       21 0.716954746846D-01 0.100000000000D+01
0.733150940817D-04 0.299808186713D-04 -.218175241035D-05 0.171448275086D-04 0.000000000000D+00  6 2 -1 25 24 21 21 4 0.12892269D-01 0.80969628D-01 0.24728405D+05 0.24728405D+05 0.24728405D+05 0.12238066D+01  1  2  3  3  6  5       21 0.138569051017D-01 0.100000000000D+01
0.589670840670D-05 0.000000000000D+00 0.000000000000D+00 0.171448275086D-04 0.000000000000D+00  6 2 -1 25 24 21 21 4 0.12892269D-01 0.80969628D-01 0.24728405D+05 0.24728405D+05 0.24728405D+05 0.12238066D+01  1  2 15  3  6  5       21 0.111450622587D-02 0.100000000000D+01
0.503018362965D-03 0.000000000000D+00 0.000000000000D+00 0.171174733435D-04 0.000000000000D+00  6 2 -1 25 24 21 21 4 0.12892269D-01 0.80969628D-01 0.25252553D+05 0.25252553D+05 0.25252553D+05 0.12228299D+01  1  2 12  3  6  5       21 0.947852253000D-01 0.100000000000D+01
0.580104814704D-03 0.000000000000D+00 0.000000000000D+00 0.171174733435D-04 0.000000000000D+00  6 2 -1 25 24 21 21 4 0.12892269D-01 0.80969628D-01 0.25252553D+05 0.25252553D+05 0.25252553D+05 0.12228299D+01  1  2 12  3  6  5       21 0.109310851467D+00 0.100000000000D+01
-.125479455895D-02 0.000000000000D+00 0.000000000000D+00 0.171448275086D-04 0.000000000000D+00  6 2 -1 25 24 21 21 4 0.12892269D-01 0.80969628D-01 0.24728405D+05 0.24728405D+05 0.24728405D+05 0.12238066D+01  1  2  4  3  6  5       21 -.237162201637D+00 0.100000000000D+01
-.146937818395D-02 0.000000000000D+00 0.000000000000D+00 0.171448275086D-04 0.000000000000D+00  6 2 -1 25 24 21 21 4 0.12892269D-01 0.80969628D-01 0.24728405D+05 0.24728405D+05 0.24728405D+05 0.12238066D+01  1  2  5  3  6  5       21 -.277719537955D+00 0.100000000000D+01
0.248522061261D-02 0.000000000000D+00 -.000000000000D+00 0.171448275086D-04 0.000000000000D+00  6 2 -1 25 24 21 21 4 0.12892269D-01 0.80969628D-01 0.24728405D+05 0.24728405D+05 0.24728405D+05 0.12238066D+01  1  2  6  3  6  5       21 0.469718638668D+00 0.100000000000D+01
0.321429446326D-04 0.000000000000D+00 0.000000000000D+00 0.171448275086D-04 0.139966460241D-05  6 2 -1 25 24 21 21 4 0.12892269D-01 0.80969628D-01 0.25252553D+05 0.25252553D+05 0.25252553D+05 0.12228299D+01  1  2 11  3  6  5       21 0.605678932047D-02 0.100000000000D+01
0.132983392635D-04 0.000000000000D+00 0.000000000000D+00 0.171174733435D-04 0.000000000000D+00  6 2 -1 25 24 1 -1 4 0.12892269D-01 0.80969628D-01 0.25252553D+05 0.25252553D+05 0.25252553D+05 0.12228299D+01  1  2 12  6  6  5       21 0.250584506652D-02 0.100000000000D+01
0.147914060395D-04 0.000000000000D+00 0.000000000000D+00 0.171174733435D-04 0.000000000000D+00  6 2 -1 25 24 1 -1 4 0.12892269D-01 0.80969628D-01 0.25252553D+05 0.25252553D+05 0.25252553D+05 0.12228299D+01  1  2 12  6  6  5       21 0.278718801774D-02 0.100000000000D+01
-.454385948556D-04 0.000000000000D+00 0.000000000000D+00 0.171448275086D-04 0.000000000000D+00  6 2 -1 25 24 1 -1 4 0.12892269D-01 0.80969628D-01 0.24728405D+05 0.24728405D+05 0.24728405D+05 0.12238066D+01  1  2  5  6  6  5       21 -.858811278574D-02 0.100000000000D+01
0.109382300299D-05 0.000000000000D+00 0.000000000000D+00 0.171448275086D-04 0.760366633516D-07  6 2 -1 25 24 1 -1 4 0.12892269D-01 0.80969628D-01 0.25252553D+05 0.25252553D+05 0.25252553D+05 0.12228299D+01  1  2 11  6  6  5       21 0.206112276230D-03 0.100000000000D+01
0.132983392635D-04 0.000000000000D+00 0.000000000000D+00 0.171174733435D-04 0.000000000000D+00  6 2 -1 25 24 2 -2 4 0.12892269D-01 0.80969628D-01 0.25252553D+05 0.25252553D+05 0.25252553D+05 0.12228299D+01  1  2 12  7  6  5       21 0.250584506652D-02 0.100000000000D+01
0.147914060395D-04 0.000000000000D+00 0.000000000000D+00 0.171174733435D-04 0.000000000000D+00  6 2 -1 25 24 2 -2 4 0.12892269D-01 0.80969628D-01 0.25252553D+05 0.25252553D+05 0.25252553D+05 0.12228299D+01  1  2 12  7  6  5       21 0.278718801774D-02 0.100000000000D+01
-.454385948556D-04 0.000000000000D+00 0.000000000000D+00 0.171448275086D-04 0.000000000000D+00  6 2 -1 25 24 2 -2 4 0.12892269D-01 0.80969628D-01 0.24728405D+05 0.24728405D+05 0.24728405D+05 0.12238066D+01  1  2  5  7  6  5       21 -.858811278574D-02 0.100000000000D+01
0.109293282591D-05 0.000000000000D+00 0.000000000000D+00 0.171448275086D-04 0.776524941256D-07  6 2 -1 25 24 2 -2 4 0.12892269D-01 0.80969628D-01 0.25252553D+05 0.25252553D+05 0.25252553D+05 0.12228299D+01  1  2 11  7  6  5       21 0.205944537553D-03 0.100000000000D+01
0.132983392635D-04 0.000000000000D+00 0.000000000000D+00 0.171174733435D-04 0.000000000000D+00  6 2 -1 25 24 3 -3 4 0.12892269D-01 0.80969628D-01 0.25252553D+05 0.25252553D+05 0.25252553D+05 0.12228299D+01  1  2 12  8  6  5       21 0.250584506652D-02 0.100000000000D+01
0.132983392635D-04 0.000000000000D+00 0.000000000000D+00 0.171174733435D-04 0.000000000000D+00  6 2 -1 25 24 4 -4 4 0.12892269D-01 0.80969628D-01 0.25252553D+05 0.25252553D+05 0.25252553D+05 0.12228299D+01  1  2 12  8  6  5       21 0.250584506652D-02 0.100000000000D+01
0.147914060395D-04 0.000000000000D+00 0.000000000000D+00 0.171174733435D-04 0.000000000000D+00  6 2 -1 25 24 3 -3 4 0.12892269D-01 0.80969628D-01 0.25252553D+05 0.25252553D+05 0.25252553D+05 0.12228299D+01  1  2 12  8  6  5       21 0.278718801774D-02 0.100000000000D+01
0.147914060395D-04 0.000000000000D+00 0.000000000000D+00 0.171174733435D-04 0.000000000000D+00  6 2 -1 25 24 4 -4 4 0.12892269D-01 0.80969628D-01 0.25252553D+05 0.25252553D+05 0.25252553D+05 0.12228299D+01  1  2 12  8  6  5       21 0.278718801774D-02 0.100000000000D+01
-.454385948556D-04 0.000000000000D+00 0.000000000000D+00 0.171448275086D-04 0.000000000000D+00  6 2 -1 25 24 3 -3 4 0.12892269D-01 0.80969628D-01 0.24728405D+05 0.24728405D+05 0.24728405D+05 0.12238066D+01  1  2  5  8  6  5       21 -.858811278574D-02 0.100000000000D+01
-.454385948556D-04 0.000000000000D+00 0.000000000000D+00 0.171448275086D-04 0.000000000000D+00  6 2 -1 25 24 4 -4 4 0.12892269D-01 0.80969628D-01 0.24728405D+05 0.24728405D+05 0.24728405D+05 0.12238066D+01  1  2  5  8  6  5       21 -.858811278574D-02 0.100000000000D+01
0.109398752520D-05 0.000000000000D+00 0.000000000000D+00 0.171448275086D-04 0.756415308913D-07  6 2 -1 25 24 3 -3 4 0.12892269D-01 0.80969628D-01 0.25252553D+05 0.25252553D+05 0.25252553D+05 0.12228299D+01  1  2 11  8  6  5       21 0.206143277634D-03 0.100000000000D+01
0.109398752520D-05 0.000000000000D+00 0.000000000000D+00 0.171448275086D-04 0.756415308913D-07  6 2 -1 25 24 4 -4 4 0.12892269D-01 0.80969628D-01 0.25252553D+05 0.25252553D+05 0.25252553D+05 0.12228299D+01  1  2 11  8  6  5       21 0.206143277634D-03 0.100000000000D+01
  </mgrwgt>
  </event>
  <event>
  6     66 0.46179844E-03 0.19205237E+02 0.75467711E-02 0.11773533E+00
        2 -1    0    0  502    0 0.00000000E+00 0.00000000E+00 0.35230889E+03 0.35230904E+03 0.32000000E+00 0.0000E+00 0.9000E+01
       21 -1    0    0  503  501 0.00000000E+00 0.00000000E+00 -.18659430E+03 0.18659581E+03 0.75000000E+00 0.0000E+00 0.9000E+01
       25  1    1    2    0    0 0.11480363E+03 -.37012314E+02 0.19016693E+03 0.25756212E+03 0.12500000E+03 0.0000E+00 0.9000E+01
       24  1    1    2    0    0 -.74308754E+02 0.45256105E+02 0.90845509E+02 0.14929845E+03 0.80419002E+02 0.0000E+00 0.9000E+01
        1  1    1    2  503    0 -.23142563E+02 -.17571712E+02 -.10661095E+03 0.11050041E+03 0.32000000E+00 0.0000E+00 0.9000E+01
       21  1    1    2  502  501 -.17352316E+02 0.93279208E+01 -.86869030E+01 0.21543857E+02 0.75000000E+00 0.0000E+00 0.9000E+01
#aMCatNLO 2  0  0  2  1 0.29057586D+02 0.00000000D+00  -5  6  0 0.00000000D+00 0.00000000D+00 0.00000000D+00 0.00000000D+00 0.00000000D+00
  <mgrwgt>
 0.4620634965D+00    1    2    0
 0.164715525804547D+03 0.000000000000000D+00 0.000000000000000D+00 0.164715525804547D+03
 0.164715525804547D+03 0.000000000000000D+00 0.000000000000000D+00 -.164715525804547D+03
 0.171652607087936D+03 0.102581371153274D+03 -.462950039494951D+02 0.342556918148781D+02
 0.121860343906888D+03 -.827368432936993D+02 0.388550003091995D+02 -.525653645476855D+01
 0.000000000000000D+00 -.000000000000000D+00 -.000000000000000D+00 -.000000000000000D+00
 0.359181006142697D+02 -.198445278595744D+02 0.744000364029556D+01 -.289991553601095D+02
 0.166272749451175D+03 0.000000000000000D+00 0.000000000000000D+00 0.166272749451175D+03
 0.395369590497537D+03 0.000000000000000D+00 0.000000000000000D+00 -.395369590497537D+03
 0.177056053229840D+03 0.114806048006259D+03 -.370130369572199D+02 0.342556918148781D+02
 0.118593711571045D+03 -.743072472993562D+02 0.452554338518336D+02 -.525653645476855D+01
 0.230932253843168D+03 -.231425628447805D+02 -.175717122853398D+02 -.229096841046362D+03
 0.350603213046596D+02 -.173562378621220D+02 0.932931539072615D+01 -.289991553601095D+02
0.158665528740D-03 0.000000000000D+00 0.000000000000D+00 0.438989956496D-04 0.694718593214D-07  6 2 21 25 24 1 21 4 0.54201459D-01 0.28706923D-01 0.29061743D+05 0.29061743D+05 0.29061743D+05 0.12163494D+01  1  2  1  5  5  2       -1 0.462063496455D+00 0.100000000000D+01
  </mgrwgt>
  </event>
  <event>
  5     66 0.46179844E-03 0.70831432E+02 0.75467711E-02 0.10944036E+00
        2 -1    0    0  502    0 0.00000000E+00 0.00000000E+00 0.23785743E+04 0.23785743E+04 0.32000000E+00 0.0000E+00 0.9000E+01
       -1 -1    0    0    0  501 0.00000000E+00 0.00000000E+00 -.33171751E+02 0.33173294E+02 0.32000000E+00 0.0000E+00 0.9000E+01
       25  1    1    2    0    0 0.75802133E+02 -.28692818E+02 0.38178298E+03 0.40982006E+03 0.12500000E+03 0.0000E+00 0.9000E+01
       24  1    1    2    0    0 -.74767614E+01 0.47366388E+02 0.10010893E+03 0.13707111E+03 0.80419002E+02 0.0000E+00 0.9000E+01
       21  1    1    2  502  501 -.68325372E+02 -.18673570E+02 0.18635106E+04 0.18648564E+04 0.75000000E+00 0.0000E+00 0.9000E+01
#aMCatNLO 1  0  0  2  1 0.98554665D+01 0.00000000D+00  -5  6  0 0.00000000D+00 0.00000000D+00 0.00000000D+00 0.00000000D+00 0.00000000D+00
  <mgrwgt>
 0.9396890433D-01    5    4    0
 0.280897417387368D+03 0.000000000000000D+00 0.000000000000000D+00 0.280897417387368D+03
 0.280897417387368D+03 0.000000000000000D+00 0.000000000000000D+00 -.280897417387368D+03
 0.165448116819441D+03 0.758022439173227D+02 -.286927877311604D+02 -.719640403841584D+02
 0.170498837295018D+03 -.747664709621194D+01 0.473664195346606D+02 -.142489156125116D+03
 0.225847880660278D+03 -.683255968211108D+02 -.186736318035001D+02 0.214453196509274D+03
 0.000000000000000D+00 0.000000000000000D+00 0.000000000000000D+00 -.000000000000000D+00
 0.341224227221653D+03 0.000000000000000D+00 0.000000000000000D+00 0.341224227221653D+03
 0.489513471349511D+03 0.000000000000000D+00 0.000000000000000D+00 -.489513471349511D+03
 0.171945923504165D+03 0.519293216103852D+02 -.778776159006723D+02 -.719640403841584D+02
 0.166598336083594D+03 -.313285640483822D+02 -.177513178957929D+01 -.142489156125116D+03
 0.253549286892006D+03 -.102246205863774D+03 -.885594759292417D+02 0.214453196509274D+03
 0.238644152091399D+03 0.816454483017710D+02 0.168212223619493D+03 -.148289244127858D+03
 0.280897417387368D+03 0.000000000000000D+00 0.000000000000000D+00 0.280897417387368D+03
 0.280897417387368D+03 0.000000000000000D+00 0.000000000000000D+00 -.280897417387368D+03
 0.165448116819441D+03 0.758022439173227D+02 -.286927877311604D+02 -.719640403841584D+02
 0.170498837295018D+03 -.747664709621194D+01 0.473664195346606D+02 -.142489156125116D+03
 0.000000000000000D+00 0.000000000000000D+00 0.000000000000000D+00 -.000000000000000D+00
 0.225847880660278D+03 -.683255968211108D+02 -.186736318035001D+02 0.214453196509274D+03
 0.341224227221653D+03 0.000000000000000D+00 0.000000000000000D+00 0.341224227221653D+03
 0.489513471349511D+03 0.000000000000000D+00 0.000000000000000D+00 -.489513471349511D+03
 0.171945923504165D+03 0.519293216103852D+02 -.778776159006723D+02 -.719640403841584D+02
 0.166598336083594D+03 -.313285640483822D+02 -.177513178957929D+01 -.142489156125116D+03
 0.238644152091399D+03 0.816454483017710D+02 0.168212223619493D+03 -.148289244127858D+03
 0.253549286892006D+03 -.102246205863774D+03 -.885594759292417D+02 0.214453196509274D+03
0.600957747359D-03 0.000000000000D+00 0.000000000000D+00 0.102508659490D-04 0.000000000000D+00  6 2 -1 25 24 21 21 2 0.36593462D+00 0.51034666D-02 0.24561068D+05 0.24561068D+05 0.24561068D+05 0.12241233D+01  1  2  2  2  6  2       -1 0.835009033620D-01 0.100000000000D+01
0.597260865856D-05 0.317134116049D-04 -.230783598567D-05 0.102508659490D-04 0.000000000000D+00  6 2 -1 25 24 21 21 4 0.36593462D+00 0.51034666D-02 0.24561068D+05 0.24561068D+05 0.24561068D+05 0.12241233D+01  1  2  3  2  6  2       -1 0.124354526180D-02 0.100000000000D+01
0.138969748888D-04 0.000000000000D+00 0.000000000000D+00 0.102508659490D-04 0.000000000000D+00  6 2 -1 25 24 21 21 4 0.36593462D+00 0.51034666D-02 0.24561068D+05 0.24561068D+05 0.24561068D+05 0.12241233D+01  1  2 15  2  6  2       -1 0.289346218114D-02 0.100000000000D+01
-.785020205458D-04 0.000000000000D+00 -.305542674672D-03 0.102508659490D-04 0.000000000000D+00  6 2 -1 25 24 21 21 4 0.36593462D+00 0.11417644D-01 0.24561068D+05 0.24561068D+05 0.24561068D+05 0.12241233D+01  1  2  5  2  6  2       -1 -.483722347332D-02 0.100000000000D+01
0.124418918829D-04 0.000000000000D+00 -.267032163545D-04 0.102508659490D-04 0.000000000000D+00  6 2 21 25 24 1 21 4 0.36593462D+00 0.11417644D-01 0.24561068D+05 0.24561068D+05 0.24561068D+05 0.12241233D+01  3  4  5  5  5  2       -1 0.111682169997D-01 0.100000000000D+01
  </mgrwgt>
  </event>
  <event>
  5     66 0.46179844E-03 0.25063417E+02 0.75467711E-02 0.11097697E+00
        2 -1    0    0  502    0 0.00000000E+00 0.00000000E+00 0.26018005E+02 0.26019972E+02 0.32000000E+00 0.0000E+00 0.9000E+01
       -1 -1    0    0    0  501 0.00000000E+00 0.00000000E+00 -.10064066E+04 0.10064066E+04 0.32000000E+00 0.0000E+00 0.9000E+01
       25  1    1    2    0    0 -.70601215E+02 0.31508796E+02 -.55872112E+03 0.57772972E+03 0.12500000E+03 0.0000E+00 0.9000E+01
       24  1    1    2    0    0 0.94827876E+02 -.37907750E+02 -.25566271E+03 0.28680997E+03 0.80419002E+02 0.0000E+00 0.9000E+01
       21  1    1    2  502  501 -.24226661E+02 0.63989545E+01 -.16600473E+03 0.16788690E+03 0.75000000E+00 0.0000E+00 0.9000E+01
#aMCatNLO 1  0  0  1  5 0.16685656D+03 0.00000000D+00  -5  6  0 0.00000000D+00 0.00000000D+00 0.00000000D+00 0.00000000D+00 0.00000000D+00
  <mgrwgt>
 0.2444871597D+00    3    2    0
 0.161820063441288D+03 0.000000000000000D+00 0.000000000000000D+00 0.161820063441288D+03
 0.161820063441288D+03 0.000000000000000D+00 0.000000000000000D+00 -.161820063441288D+03
 0.150472826975517D+03 -.705982502580635D+02 0.315080125052829D+02 -.322521916537549D+02
 0.140472101644410D+03 0.948306430995870D+02 -.379084810290216D+02 0.532474561027847D+02
 0.326951982626499D+02 -.242323928415235D+02 0.640046852373872D+01 -.209952644490298D+02
 0.000000000000000D+00 -.000000000000000D+00 -.000000000000000D+00 -.000000000000000D+00
 0.250393618997681D+03 0.000000000000000D+00 0.000000000000000D+00 0.250393618997681D+03
 0.283918446734971D+03 0.000000000000000D+00 0.000000000000000D+00 -.283918446734971D+03
 0.160179420745964D+03 -.249580461793942D+02 0.914840909390760D+02 -.322521916537549D+02
 0.172096442976930D+03 0.140752384434872D+03 0.224375672794832D+02 0.532474561027847D+02
 0.318450556762416D+02 -.147503099573169D+02 0.188609331132187D+02 -.209952644490298D+02
 0.170191146333516D+03 -.101044028298161D+03 -.132782591331778D+03 -.335248277372904D+02
0.148412302546D-02 0.000000000000D+00 0.000000000000D+00 0.292026752883D-04 0.000000000000D+00  6 2 -1 25 24 21 21 2 0.40029252D-02 0.15483194D+00 0.22805240D+05 0.22805240D+05 0.22805240D+05 0.12275993D+01  1  2  2  1  6  1        2 0.185524638827D+00 0.100000000000D+01
0.256458307837D-03 0.783193237557D-04 -.569942319635D-05 0.292026752883D-04 0.000000000000D+00  6 2 -1 25 24 21 21 4 0.40029252D-02 0.15483194D+00 0.22805240D+05 0.22805240D+05 0.22805240D+05 0.12275993D+01  1  2  3  1  6  1        2 0.483127435899D-01 0.100000000000D+01
0.565321624421D-04 0.000000000000D+00 0.000000000000D+00 0.292026752883D-04 0.000000000000D+00  6 2 -1 25 24 21 21 4 0.40029252D-02 0.15483194D+00 0.22805240D+05 0.22805240D+05 0.22805240D+05 0.12275993D+01  1  2 15  1  6  1        2 0.106497773135D-01 0.100000000000D+01
  </mgrwgt>
  </event>
  <event>
  5     66 0.46179844E-03 0.58571945E+02 0.75467711E-02 0.11149027E+00
        2 -1    0    0  502    0 0.00000000E+00 0.00000000E+00 0.18200868E+03 0.18200896E+03 0.32000000E+00 0.0000E+00 0.9000E+01
       -1 -1    0    0    0  501 0.00000000E+00 0.00000000E+00 -.12647245E+03 0.12647286E+03 0.32000000E+00 0.0000E+00 0.9000E+01
       25  1    1    2    0    0 0.58563068E+02 0.26304630E+02 0.68935631E+02 0.15652057E+03 0.12500000E+03 0.0000E+00 0.9000E+01
       24  1    1    2    0    0 -.13131313E+01 -.13940969E+02 0.20661719E+02 0.84203311E+02 0.80419002E+02 0.0000E+00 0.9000E+01
       21  1    1    2  502  501 -.57249937E+02 -.12363661E+02 -.34061124E+02 0.67757937E+02 0.75000000E+00 0.0000E+00 0.9000E+01
#aMCatNLO 1  0  0  1  5 0.35871320D+02 0.00000000D+00  -5  6  0 0.00000000D+00 0.00000000D+00 0.00000000D+00 0.00000000D+00 0.00000000D+00
  <mgrwgt>
 0.1125388090D+00    3    2    0
 0.151720760701480D+03 0.000000000000000D+00 0.000000000000000D+00 0.151720760701480D+03
 0.151720760701480D+03 0.000000000000000D+00 0.000000000000000D+00 -.151720760701480D+03
 0.146504682788061D+03 0.585644457877358D+02 0.263049271149951D+02 0.414352335323512D+02
 0.818204335625065D+02 -.131236181167104D+01 -.139408027892680D+02 0.559456147092978D+01
 0.751164050523921D+02 -.572520839760647D+02 -.123641243257271D+02 -.470297950032810D+02
 0.000000000000000D+00 0.000000000000000D+00 0.000000000000000D+00 -.000000000000000D+00
 0.181650924978772D+03 0.000000000000000D+00 0.000000000000000D+00 0.181650924978772D+03
 0.956975663421664D+03 0.000000000000000D+00 0.000000000000000D+00 -.956975663421664D+03
 0.133610779028492D+03 -.125667157731989D+02 0.187627116749033D+02 0.414352335323512D+02
 0.947515802358918D+02 -.461502024620342D+02 -.186950714759089D+02 0.559456147092978D+01
 0.117413342227183D+03 -.106142154057231D+03 -.175480610609294D+02 -.470297950032810D+02
 0.792850886908869D+03 0.164859072292464D+03 0.174804208619350D+02 -.775324738442892D+03
0.167179113513D-03 0.000000000000D+00 0.000000000000D+00 0.837191285821D-05 0.000000000000D+00  6 2 -1 25 24 21 21 2 0.28001388D-01 0.19457353D-01 0.19701490D+05 0.19701490D+05 0.19701490D+05 0.12345457D+01  1  2  2  1  6  1        2 0.111566174760D+00 0.100000000000D+01
-.448722778293D-05 0.882228419867D-05 -.642011815162D-06 0.837191285821D-05 0.000000000000D+00  6 2 -1 25 24 21 21 4 0.28001388D-01 0.19457353D-01 0.19701490D+05 0.19701490D+05 0.19701490D+05 0.12345457D+01  1  2  3  1  6  1        2 -.456397205584D-02 0.100000000000D+01
0.544350690059D-05 0.000000000000D+00 0.000000000000D+00 0.837191285821D-05 0.000000000000D+00  6 2 -1 25 24 21 21 4 0.28001388D-01 0.19457353D-01 0.19701490D+05 0.19701490D+05 0.19701490D+05 0.12345457D+01  1  2 15  1  6  1        2 0.553660624820D-02 0.100000000000D+01
  </mgrwgt>
  </event>
  <event>
  5     66 -.46179844E-03 0.30795589E+02 0.75467711E-02 0.12025799E+00
        2 -1    0    0  502    0 0.00000000E+00 0.00000000E+00 0.55733982E+03 0.55733991E+03 0.32000000E+00 0.0000E+00 0.9000E+01
       -1 -1    0    0    0  501 0.00000000E+00 0.00000000E+00 -.59603040E+02 0.59603899E+02 0.32000000E+00 0.0000E+00 0.9000E+01
       25  1    1    2    0    0 0.56046635E+02 -.35025505E+02 0.34106162E+03 0.36921002E+03 0.12500000E+03 0.0000E+00 0.9000E+01
       24  1    1    2    0    0 -.86351071E+02 0.40480623E+02 0.46174267E+02 0.13302055E+03 0.80419002E+02 0.0000E+00 0.9000E+01
       21  1    1    2  502  501 0.30304436E+02 -.54551172E+01 0.11050090E+03 0.11471324E+03 0.75000000E+00 0.0000E+00 0.9000E+01
#aMCatNLO 1  0  0  5  2 0.35548696D+01 0.00000000D+00  -5  6  0 0.00000000D+00 0.00000000D+00 0.00000000D+00 0.00000000D+00 0.00000000D+00
  <mgrwgt>
 -.6453562445D+00   25    2    0
 0.182262011994149D+03 0.000000000000000D+00 0.000000000000000D+00 0.182262011994149D+03
 0.182262011994149D+03 -.000000000000000D+00 -.000000000000000D+00 -.182262011994149D+03
 0.159172793766723D+03 0.560446465856000D+02 -.350251474232983D+02 0.730972975736809D+02
 0.162086639509314D+03 -.863530965364832D+02 0.404809871472858D+02 -.103485724383578D+03
 0.432645907122613D+02 0.303084499508832D+02 -.545583972398751D+01 0.303884268098968D+02
 0.000000000000000D+00 0.000000000000000D+00 0.000000000000000D+00 0.000000000000000D+00
 0.182262011994149D+03 0.000000000000000D+00 0.000000000000000D+00 0.182262011994149D+03
 0.182262011994149D+03 -.000000000000000D+00 -.000000000000000D+00 -.182262011994149D+03
 0.159329538561353D+03 0.562284229905148D+02 -.350582291088313D+02 0.732815589212321D+02
 0.161859060254924D+03 -.861661792990014D+02 0.404473400788609D+02 -.103298313915542D+03
 0.247768060927331D+02 0.193133477817298D+02 -.460951013456198D+01 0.148201597136543D+02
 0.185586190792886D+02 0.106244085267569D+02 -.779600835467653D+00 0.151965952806558D+02
0.783262501616D-04 0.000000000000D+00 0.000000000000D+00 0.144377634536D-04 0.000000000000D+00  6 2 -1 25 24 21 21 2 0.85744661D-01 0.91697717D-02 0.22043674D+05 0.22043674D+05 0.22043674D+05 0.12292012D+01  1  2  2  3  6  5       21 0.502937829781D-01 0.100000000000D+01
0.751495959449D-05 0.413338977950D-05 -.300793424396D-06 0.144377634536D-04 0.000000000000D+00  6 2 -1 25 24 21 21 4 0.85744661D-01 0.91697717D-02 0.22043674D+05 0.22043674D+05 0.22043674D+05 0.12292012D+01  1  2  3  3  6  5       21 0.729087355717D-02 0.100000000000D+01
0.150734416111D-05 0.000000000000D+00 0.000000000000D+00 0.144377634536D-04 0.000000000000D+00  6 2 -1 25 24 21 21 4 0.85744661D-01 0.91697717D-02 0.22043674D+05 0.22043674D+05 0.22043674D+05 0.12292012D+01  1  2 15  3  6  5       21 0.146239717561D-02 0.100000000000D+01
0.170449834106D-04 0.000000000000D+00 0.000000000000D+00 0.144403519995D-04 0.000000000000D+00  6 2 -1 25 24 21 21 4 0.85744661D-01 0.91697717D-02 0.21992346D+05 0.21992346D+05 0.21992346D+05 0.12293114D+01  1  2 12  3  6  5       21 0.165418416261D-01 0.100000000000D+01
0.172130865494D-04 0.000000000000D+00 0.000000000000D+00 0.144403519995D-04 0.000000000000D+00  6 2 -1 25 24 21 21 4 0.85744661D-01 0.91697717D-02 0.21992346D+05 0.21992346D+05 0.21992346D+05 0.12293114D+01  1  2 12  3  6  5       21 0.167049826180D-01 0.100000000000D+01
-.233926448284D-02 0.000000000000D+00 0.000000000000D+00 0.144377634536D-04 0.000000000000D+00  6 2 -1 25 24 21 21 4 0.85744661D-01 0.91697717D-02 0.22043674D+05 0.22043674D+05 0.22043674D+05 0.12292012D+01  1  2  4  3  6  5       21 -.226951074676D+01 0.100000000000D+01
-.739178457278D-03 0.000000000000D+00 0.000000000000D+00 0.144377634536D-04 0.000000000000D+00  6 2 -1 25 24 21 21 4 0.85744661D-01 0.91697717D-02 0.22043674D+05 0.22043674D+05 0.22043674D+05 0.12292012D+01  1  2  5  3  6  5       21 -.717137144975D+00 0.100000000000D+01
0.140696040569D-02 0.000000000000D+00 -.000000000000D+00 0.144377634536D-04 0.000000000000D+00  6 2 -1 25 24 21 21 4 0.85744661D-01 0.91697717D-02 0.22043674D+05 0.22043674D+05 0.22043674D+05 0.12292012D+01  1  2  6  3  6  5       21 0.136500672943D+01 0.100000000000D+01
0.900949482944D-03 0.000000000000D+00 0.000000000000D+00 0.144377634536D-04 0.821981377096D-05  6 2 -1 25 24 21 21 4 0.85744661D-01 0.91697717D-02 0.21992346D+05 0.21992346D+05 0.21992346D+05 0.12293114D+01  1  2 11  3  6  5       21 0.874354835146D+00 0.100000000000D+01
0.336434622422D-06 0.000000000000D+00 0.000000000000D+00 0.144403519995D-04 0.000000000000D+00  6 2 -1 25 24 1 -1 4 0.85744661D-01 0.91697717D-02 0.21992346D+05 0.21992346D+05 0.21992346D+05 0.12293114D+01  1  2 12  6  6  5       21 0.326503588041D-03 0.100000000000D+01
0.339774393031D-06 0.000000000000D+00 0.000000000000D+00 0.144403519995D-04 0.000000000000D+00  6 2 -1 25 24 1 -1 4 0.85744661D-01 0.91697717D-02 0.21992346D+05 0.21992346D+05 0.21992346D+05 0.12293114D+01  1  2 12  6  6  5       21 0.329744773741D-03 0.100000000000D+01
-.495903423532D-05 0.000000000000D+00 0.000000000000D+00 0.144377634536D-04 0.000000000000D+00  6 2 -1 25 24 1 -1 4 0.85744661D-01 0.91697717D-02 0.22043674D+05 0.22043674D+05 0.22043674D+05 0.12292012D+01  1  2  5  6  6  5       21 -.481116247144D-02 0.100000000000D+01
0.681113464778D-05 0.000000000000D+00 0.000000000000D+00 0.144377634536D-04 0.791213279924D-07  6 2 -1 25 24 1 -1 4 0.85744661D-01 0.91697717D-02 0.21992346D+05 0.21992346D+05 0.21992346D+05 0.12293114D+01  1  2 11  6  6  5       21 0.661008039280D-02 0.100000000000D+01
0.336434622422D-06 0.000000000000D+00 0.000000000000D+00 0.144403519995D-04 0.000000000000D+00  6 2 -1 25 24 2 -2 4 0.85744661D-01 0.91697717D-02 0.21992346D+05 0.21992346D+05 0.21992346D+05 0.12293114D+01  1  2 12  7  6  5       21 0.326503588041D-03 0.100000000000D+01
0.339774393031D-06 0.000000000000D+00 0.000000000000D+00 0.144403519995D-04 0.000000000000D+00  6 2 -1 25 24 2 -2 4 0.85744661D-01 0.91697717D-02 0.21992346D+05 0.21992346D+05 0.21992346D+05 0.12293114D+01  1  2 12  7  6  5       21 0.329744773741D-03 0.100000000000D+01
-.495903423532D-05 0.000000000000D+00 0.000000000000D+00 0.144377634536D-04 0.000000000000D+00  6 2 -1 25 24 2 -2 4 0.85744661D-01 0.91697717D-02 0.22043674D+05 0.22043674D+05 0.22043674D+05 0.12292012D+01  1  2  5  7  6  5       21 -.481116247144D-02 0.100000000000D+01
0.670030617656D-05 0.000000000000D+00 0.000000000000D+00 0.144377634536D-04 0.779448023163D-07  6 2 -1 25 24 2 -2 4 0.85744661D-01 0.91697717D-02 0.21992346D+05 0.21992346D+05 0.21992346D+05 0.12293114D+01  1  2 11  7  6  5       21 0.650252340818D-02 0.100000000000D+01
0.336434622422D-06 0.000000000000D+00 0.000000000000D+00 0.144403519995D-04 0.000000000000D+00  6 2 -1 25 24 3 -3 4 0.85744661D-01 0.91697717D-02 0.21992346D+05 0.21992346D+05 0.21992346D+05 0.12293114D+01  1  2 12  8  6  5       21 0.326503588041D-03 0.100000000000D+01
0.336434622422D-06 0.000000000000D+00 0.000000000000D+00 0.144403519995D-04 0.000000000000D+00  6 2 -1 25 24 4 -4 4 0.85744661D-01 0.91697717D-02 0.21992346D+05 0.21992346D+05 0.21992346D+05 0.12293114D+01  1  2 12  8  6  5       21 0.326503588041D-03 0.100000000000D+01
0.339774393031D-06 0.000000000000D+00 0.000000000000D+00 0.144403519995D-04 0.000000000000D+00  6 2 -1 25 24 3 -3 4 0.85744661D-01 0.91697717D-02 0.21992346D+05 0.21992346D+05 0.21992346D+05 0.12293114D+01  1  2 12  8  6  5       21 0.329744773741D-03 0.100000000000D+01
0.339774393031D-06 0.000000000000D+00 0.000000000000D+00 0.144403519995D-04 0.000000000000D+00  6 2 -1 25 24 4 -4 4 0.85744661D-01 0.91697717D-02 0.21992346D+05 0.21992346D+05 0.21992346D+05 0.12293114D+01  1  2 12  8  6  5       21 0.329744773741D-03 0.100000000000D+01
-.495903423532D-05 0.000000000000D+00 0.000000000000D+00 0.144377634536D-04 0.000000000000D+00  6 2 -1 25 24 3 -3 4 0.85744661D-01 0.91697717D-02 0.22043674D+05 0.22043674D+05 0.22043674D+05 0.12292012D+01  1  2  5  8  6  5       21 -.481116247144D-02 0.100000000000D+01
-.495903423532D-05 0.000000000000D+00 0.000000000000D+00 0.144377634536D-04 0.000000000000D+00  6 2 -1 25 24 4 -4 4 0.85744661D-01 0.91697717D-02 0.22043674D+05 0.22043674D+05 0.22043674D+05 0.12292012D+01  1  2  5  8  6  5       21 -.481116247144D-02 0.100000000000D+01
0.677151334860D-05 0.000000000000D+00 0.000000000000D+00 0.144377634536D-04 0.786396867312D-07  6 2 -1 25 24 3 -3 4 0.85744661D-01 0.91697717D-02 0.21992346D+05 0.21992346D+05 0.21992346D+05 0.12293114D+01  1  2 11  8  6  5       21 0.657162865365D-02 0.100000000000D+01
0.677151334860D-05 0.000000000000D+00 0.000000000000D+00 0.144377634536D-04 0.786396867312D-07  6 2 -1 25 24 4 -4 4 0.85744661D-01 0.91697717D-02 0.21992346D+05 0.21992346D+05 0.21992346D+05 0.12293114D+01  1  2 11  8  6  5       21 0.657162865365D-02 0.100000000000D+01
  </mgrwgt>
  </event>
  <event>
  5     66 0.46179844E-03 0.33658684E+02 0.75467711E-02 0.12106220E+00
        2 -1    0    0  502    0 0.00000000E+00 0.00000000E+00 0.38432149E+03 0.38432162E+03 0.32000000E+00 0.0000E+00 0.9000E+01
       -1 -1    0    0    0  501 0.00000000E+00 0.00000000E+00 -.10673504E+03 0.10673552E+03 0.32000000E+00 0.0000E+00 0.9000E+01
       25  1    1    2    0    0 -.80372819E+02 0.32474973E+02 0.31791263E+03 0.35243134E+03 0.12500000E+03 0.0000E+00 0.9000E+01
       24  1    1    2    0    0 0.46723059E+02 -.31819157E+02 -.23876821E+02 0.10115741E+03 0.80419002E+02 0.0000E+00 0.9000E+01
       21  1    1    2  502  501 0.33649761E+02 -.65581593E+00 -.16449360E+02 0.37468392E+02 0.75000000E+00 0.0000E+00 0.9000E+01
#aMCatNLO 1  0  0  5  1 0.13551430D+01 0.00000000D+00  -5  6  0 0.00000000D+00 0.00000000D+00 0.00000000D+00 0.00000000D+00 0.00000000D+00
  <mgrwgt>
 0.3615432147D+00   25    2    0
 0.202535728366163D+03 0.000000000000000D+00 0.000000000000000D+00 0.202535728366163D+03
 0.202535728366163D+03 -.000000000000000D+00 -.000000000000000D+00 -.202535728366163D+03
 0.209386529222694D+03 -.803743415555551D+02 0.324750027189283D+02 0.143885572723058D+03
 0.138991325945074D+03 0.467220480799761D+02 -.318191374300420D+02 -.982647721720236D+02
 0.566936015645588D+02 0.336522934755790D+02 -.655865288886277D+00 -.456208005510347D+02
 0.000000000000000D+00 0.000000000000000D+00 -.000000000000000D+00 0.000000000000000D+00
 0.202535728366163D+03 0.000000000000000D+00 0.000000000000000D+00 0.202535728366163D+03
 0.202535728366163D+03 -.000000000000000D+00 -.000000000000000D+00 -.202535728366163D+03
 0.209345859915483D+03 -.803434933979655D+02 0.324744015047553D+02 0.143843753355062D+03
 0.139017933327800D+03 0.467425291167047D+02 -.318195365945471D+02 -.982925373313984D+02
 0.114852453355109D+02 0.583042090077987D+01 0.546421285367252D+00 -.988020628911773D+01
 0.452224181535326D+02 0.277705433804809D+02 -.120128619557550D+01 -.356710097345464D+02
0.608698104518D-04 0.000000000000D+00 0.000000000000D+00 0.942644755662D-05 0.000000000000D+00  6 2 -1 25 24 21 21 2 0.59126430D-01 0.16420823D-01 0.20174593D+05 0.20174593D+05 0.20174593D+05 0.12334107D+01  1  2  2  3  6  5       21 0.238981253791D-01 0.100000000000D+01
0.269475520983D-05 0.321218814743D-05 -.233756099524D-06 0.942644755662D-05 0.000000000000D+00  6 2 -1 25 24 21 21 4 0.59126430D-01 0.16420823D-01 0.20174593D+05 0.20174593D+05 0.20174593D+05 0.12334107D+01  1  2  3  3  6  5       21 0.160952091199D-02 0.100000000000D+01
0.248003661475D-05 0.000000000000D+00 0.000000000000D+00 0.942644755662D-05 0.000000000000D+00  6 2 -1 25 24 21 21 4 0.59126430D-01 0.16420823D-01 0.20174593D+05 0.20174593D+05 0.20174593D+05 0.12334107D+01  1  2 15  3  6  5       21 0.148127398711D-02 0.100000000000D+01
0.217511295880D-07 0.000000000000D+00 0.000000000000D+00 0.942651314492D-05 0.000000000000D+00  6 2 -1 25 24 21 21 4 0.59126430D-01 0.16420823D-01 0.20172780D+05 0.20172780D+05 0.20172780D+05 0.12334150D+01  1  2 12  3  6  5       21 0.129916554028D-04 0.100000000000D+01
0.216285447680D-07 0.000000000000D+00 0.000000000000D+00 0.942651314492D-05 0.000000000000D+00  6 2 -1 25 24 21 21 4 0.59126430D-01 0.16420823D-01 0.20172780D+05 0.20172780D+05 0.20172780D+05 0.12334150D+01  1  2 12  3  6  5       21 0.129184371484D-04 0.100000000000D+01
-.290059486514D-02 0.000000000000D+00 0.000000000000D+00 0.942644755662D-05 0.000000000000D+00  6 2 -1 25 24 21 21 4 0.59126430D-01 0.16420823D-01 0.20174593D+05 0.20174593D+05 0.20174593D+05 0.12334107D+01  1  2  4  3  6  5       21 -.173246463190D+01 0.100000000000D+01
-.454077943727D-03 0.000000000000D+00 0.000000000000D+00 0.942644755662D-05 0.000000000000D+00  6 2 -1 25 24 21 21 4 0.59126430D-01 0.16420823D-01 0.20174593D+05 0.20174593D+05 0.20174593D+05 0.12334107D+01  1  2  5  3  6  5       21 -.271211256383D+00 0.100000000000D+01
0.333736374803D-02 0.000000000000D+00 -.000000000000D+00 0.942644755662D-05 0.000000000000D+00  6 2 -1 25 24 21 21 4 0.59126430D-01 0.16420823D-01 0.20174593D+05 0.20174593D+05 0.20174593D+05 0.12334107D+01  1  2  6  3  6  5       21 0.199333754835D+01 0.100000000000D+01
0.542758898536D-03 0.000000000000D+00 0.000000000000D+00 0.942644755662D-05 0.399883630484D-04  6 2 -1 25 24 21 21 4 0.59126430D-01 0.16420823D-01 0.20172780D+05 0.20172780D+05 0.20172780D+05 0.12334150D+01  1  2 11  3  6  5       21 0.324182546385D+00 0.100000000000D+01
0.416782752854D-08 0.000000000000D+00 0.000000000000D+00 0.942651314492D-05 0.000000000000D+00  6 2 -1 25 24 1 -1 4 0.59126430D-01 0.16420823D-01 0.20172780D+05 0.20172780D+05 0.20172780D+05 0.12334150D+01  1  2 12  6  6  5       21 0.248938699069D-05 0.100000000000D+01
0.415063021846D-08 0.000000000000D+00 0.000000000000D+00 0.942651314492D-05 0.000000000000D+00  6 2 -1 25 24 1 -1 4 0.59126430D-01 0.16420823D-01 0.20172780D+05 0.20172780D+05 0.20172780D+05 0.12334150D+01  1  2 12  6  6  5       21 0.247911527007D-05 0.100000000000D+01
-.794883598832D-04 0.000000000000D+00 0.000000000000D+00 0.942644755662D-05 0.000000000000D+00  6 2 -1 25 24 1 -1 4 0.59126430D-01 0.16420823D-01 0.20174593D+05 0.20174593D+05 0.20174593D+05 0.12334107D+01  1  2  5  6  6  5       21 -.474767344451D-01 0.100000000000D+01
0.879302722831D-04 0.000000000000D+00 0.000000000000D+00 0.942644755662D-05 0.729126401522D-06  6 2 -1 25 24 1 -1 4 0.59126430D-01 0.16420823D-01 0.20172780D+05 0.20172780D+05 0.20172780D+05 0.12334150D+01  1  2 11  6  6  5       21 0.525195619086D-01 0.100000000000D+01
0.416782752854D-08 0.000000000000D+00 0.000000000000D+00 0.942651314492D-05 0.000000000000D+00  6 2 -1 25 24 2 -2 4 0.59126430D-01 0.16420823D-01 0.20172780D+05 0.20172780D+05 0.20172780D+05 0.12334150D+01  1  2 12  7  6  5       21 0.248938699069D-05 0.100000000000D+01
0.415063021846D-08 0.000000000000D+00 0.000000000000D+00 0.942651314492D-05 0.000000000000D+00  6 2 -1 25 24 2 -2 4 0.59126430D-01 0.16420823D-01 0.20172780D+05 0.20172780D+05 0.20172780D+05 0.12334150D+01  1  2 12  7  6  5       21 0.247911527007D-05 0.100000000000D+01
-.794883598832D-04 0.000000000000D+00 0.000000000000D+00 0.942644755662D-05 0.000000000000D+00  6 2 -1 25 24 2 -2 4 0.59126430D-01 0.16420823D-01 0.20174593D+05 0.20174593D+05 0.20174593D+05 0.12334107D+01  1  2  5  7  6  5       21 -.474767344451D-01 0.100000000000D+01
0.883340797056D-04 0.000000000000D+00 0.000000000000D+00 0.942644755662D-05 0.732392774806D-06  6 2 -1 25 24 2 -2 4 0.59126430D-01 0.16420823D-01 0.20172780D+05 0.20172780D+05 0.20172780D+05 0.12334150D+01  1  2 11  7  6  5       21 0.527607506184D-01 0.100000000000D+01
0.416782752854D-08 0.000000000000D+00 0.000000000000D+00 0.942651314492D-05 0.000000000000D+00  6 2 -1 25 24 3 -3 4 0.59126430D-01 0.16420823D-01 0.20172780D+05 0.20172780D+05 0.20172780D+05 0.12334150D+01  1  2 12  8  6  5       21 0.248938699069D-05 0.100000000000D+01
0.416782752854D-08 0.000000000000D+00 0.000000000000D+00 0.942651314492D-05 0.000000000000D+00  6 2 -1 25 24 4 -4 4 0.59126430D-01 0.16420823D-01 0.20172780D+05 0.20172780D+05 0.20172780D+05 0.12334150D+01  1  2 12  8  6  5       21 0.248938699069D-05 0.100000000000D+01
0.415063021846D-08 0.000000000000D+00 0.000000000000D+00 0.942651314492D-05 0.000000000000D+00  6 2 -1 25 24 3 -3 4 0.59126430D-01 0.16420823D-01 0.20172780D+05 0.20172780D+05 0.20172780D+05 0.12334150D+01  1  2 12  8  6  5       21 0.247911527007D-05 0.100000000000D+01
0.415063021846D-08 0.000000000000D+00 0.000000000000D+00 0.942651314492D-05 0.000000000000D+00  6 2 -1 25 24 4 -4 4 0.59126430D-01 0.16420823D-01 0.20172780D+05 0.20172780D+05 0.20172780D+05 0.12334150D+01  1  2 12  8  6  5       21 0.247911527007D-05 0.100000000000D+01
-.794883598832D-04 0.000000000000D+00 0.000000000000D+00 0.942644755662D-05 0.000000000000D+00  6 2 -1 25 24 3 -3 4 0.59126430D-01 0.16420823D-01 0.20174593D+05 0.20174593D+05 0.20174593D+05 0.12334107D+01  1  2  5  8  6  5       21 -.474767344451D-01 0.100000000000D+01
-.794883598832D-04 0.000000000000D+00 0.000000000000D+00 0.942644755662D-05 0.000000000000D+00  6 2 -1 25 24 4 -4 4 0.59126430D-01 0.16420823D-01 0.20174593D+05 0.20174593D+05 0.20174593D+05 0.12334107D+01  1  2  5  8  6  5       21 -.474767344451D-01 0.100000000000D+01
0.881410633253D-04 0.000000000000D+00 0.000000000000D+00 0.942644755662D-05 0.730757544047D-06  6 2 -1 25 24 3 -3 4 0.59126430D-01 0.16420823D-01 0.20172780D+05 0.20172780D+05 0.20172780D+05 0.12334150D+01  1  2 11  8  6  5       21 0.526454645460D-01 0.100000000000D+01
0.881410633253D-04 0.000000000000D+00 0.000000000000D+00 0.942644755662D-05 0.730757544047D-06  6 2 -1 25 24 4 -4 4 0.59126430D-01 0.16420823D-01 0.20172780D+05 0.20172780D+05 0.20172780D+05 0.12334150D+01  1  2 11  8  6  5       21 0.526454645460D-01 0.100000000000D+01
  </mgrwgt>
  </event>
  <event>
  5     66 0.46179844E-03 0.44722815E+02 0.75467711E-02 0.12266258E+00
        4 -1    0    0  502    0 0.00000000E+00 0.00000000E+00 0.10945238E+03 0.10946335E+03 0.15500000E+01 0.0000E+00 0.9000E+01
       -3 -1    0    0    0  501 -.00000000E+00 -.00000000E+00 -.22493482E+03 0.22493538E+03 0.50000000E+00 0.0000E+00 0.9000E+01
       25  1    1    2    0    0 0.15927735E+02 0.13984743E+02 -.35343987E+01 0.12683358E+03 0.12500000E+03 0.0000E+00 0.9000E+01
       24  1    1    2    0    0 0.18311852E+02 0.19612776E+02 0.10717452E+01 0.84784135E+02 0.80419002E+02 0.0000E+00 0.9000E+01
       21  1    1    2  502  501 -.34239586E+02 -.33597518E+02 -.11301979E+03 0.12278101E+03 0.75000000E+00 0.0000E+00 0.9000E+01
#aMCatNLO 1  0  0  5  1 0.75898828D+01 0.00000000D+00  -5  6  0 0.00000000D+00 0.00000000D+00 0.00000000D+00 0.00000000D+00 0.00000000D+00
  <mgrwgt>
 0.3999568639D-02   25    2    0
 0.156912648363312D+03 0.000000000000000D+00 0.000000000000000D+00 0.156912648363312D+03
 0.156912648363312D+03 -.000000000000000D+00 -.000000000000000D+00 -.156912648363312D+03
 0.133848285601470D+03 0.159282504680339D+02 0.139852486418575D+02 0.429076591753235D+02
 0.907371278089632D+02 0.183122013177890D+02 0.196131187719513D+02 0.323419118727339D+02
 0.892398833161899D+02 -.342404517858228D+02 -.335983674138088D+02 -.752495710480574D+02
 0.000000000000000D+00 0.000000000000000D+00 0.000000000000000D+00 -.000000000000000D+00
 0.156912648363312D+03 0.000000000000000D+00 0.000000000000000D+00 0.156912648363312D+03
 0.156912648363312D+03 -.000000000000000D+00 -.000000000000000D+00 -.156912648363312D+03
 0.133622944966804D+03 0.156834750775042D+02 0.137450633324955D+02 0.423697210880667D+02
 0.905393256660680D+02 0.181463067855101D+02 0.194503351298921D+02 0.319773287045184D+02
 0.287911577898925D+02 -.171608785345344D+02 -.677334806175357D+01 -.221033203578055D+02
 0.608718683038586D+02 -.166689033284799D+02 -.264220504006340D+02 -.522437294347796D+02
0.249946273663D-04 0.000000000000D+00 0.000000000000D+00 0.152471950753D-04 0.000000000000D+00  6 4 -3 25 24 21 21 2 0.16839715D-01 0.34606244D-01 0.16839397D+05 0.16839397D+05 0.16839397D+05 0.12421360D+01  1  2  2  3  6  5       21 0.189388209628D-02 0.100000000000D+01
-.916335183885D-07 0.131900272367D-05 -.959859503232D-07 0.152471950753D-04 0.000000000000D+00  6 4 -3 25 24 21 21 4 0.16839715D-01 0.34606244D-01 0.16839397D+05 0.16839397D+05 0.16839397D+05 0.12421360D+01  1  2  3  3  6  5       21 -.107126999194D-04 0.100000000000D+01
0.940914854769D-06 0.000000000000D+00 0.000000000000D+00 0.152471950753D-04 0.000000000000D+00  6 4 -3 25 24 21 21 4 0.16839715D-01 0.34606244D-01 0.16839397D+05 0.16839397D+05 0.16839397D+05 0.12421360D+01  1  2 15  3  6  5       21 0.110000561652D-03 0.100000000000D+01
0.272714246323D-04 0.000000000000D+00 0.000000000000D+00 0.152325848823D-04 0.000000000000D+00  6 4 -3 25 24 21 21 4 0.16839715D-01 0.34606244D-01 0.17046151D+05 0.17046151D+05 0.17046151D+05 0.12415407D+01  1  2 12  3  6  5       21 0.318552914307D-02 0.100000000000D+01
0.250354385383D-04 0.000000000000D+00 0.000000000000D+00 0.152325848823D-04 0.000000000000D+00  6 4 -3 25 24 21 21 4 0.16839715D-01 0.34606244D-01 0.17046151D+05 0.17046151D+05 0.17046151D+05 0.12415407D+01  1  2 12  3  6  5       21 0.292434737637D-02 0.100000000000D+01
-.134648322107D-03 0.000000000000D+00 0.000000000000D+00 0.152471950753D-04 0.000000000000D+00  6 4 -3 25 24 21 21 4 0.16839715D-01 0.34606244D-01 0.16839397D+05 0.16839397D+05 0.16839397D+05 0.12421360D+01  1  2  4  3  6  5       21 -.157414786069D-01 0.100000000000D+01
-.506266973942D-04 0.000000000000D+00 0.000000000000D+00 0.152471950753D-04 0.000000000000D+00  6 4 -3 25 24 21 21 4 0.16839715D-01 0.34606244D-01 0.16839397D+05 0.16839397D+05 0.16839397D+05 0.12421360D+01  1  2  5  3  6  5       21 -.591867066369D-02 0.100000000000D+01
0.158572975121D-03 0.000000000000D+00 -.000000000000D+00 0.152471950753D-04 0.000000000000D+00  6 4 -3 25 24 21 21 4 0.16839715D-01 0.34606244D-01 0.16839397D+05 0.16839397D+05 0.16839397D+05 0.12421360D+01  1  2  6  3  6  5       21 0.185384641742D-01 0.100000000000D+01
0.572364858218D-06 0.000000000000D+00 0.000000000000D+00 0.152471950753D-04 0.127275707641D-05  6 4 -3 25 24 21 21 4 0.16839715D-01 0.34606244D-01 0.17046151D+05 0.17046151D+05 0.17046151D+05 0.12415407D+01  1  2 11  3  6  5       21 0.668569743204D-04 0.100000000000D+01
0.265079925856D-05 0.000000000000D+00 0.000000000000D+00 0.152325848823D-04 0.000000000000D+00  6 4 -3 25 24 3 -3 4 0.16839715D-01 0.34606244D-01 0.17046151D+05 0.17046151D+05 0.17046151D+05 0.12415407D+01  1  2 12  6  6  5       21 0.309635393252D-03 0.100000000000D+01
0.246806361018D-05 0.000000000000D+00 0.000000000000D+00 0.152325848823D-04 0.000000000000D+00  6 4 -3 25 24 3 -3 4 0.16839715D-01 0.34606244D-01 0.17046151D+05 0.17046151D+05 0.17046151D+05 0.12415407D+01  1  2 12  6  6  5       21 0.288290350180D-03 0.100000000000D+01
-.745014210570D-05 0.000000000000D+00 0.000000000000D+00 0.152471950753D-04 0.000000000000D+00  6 4 -3 25 24 3 -3 4 0.16839715D-01 0.34606244D-01 0.16839397D+05 0.16839397D+05 0.16839397D+05 0.12421360D+01  1  2  5  6  6  5       21 -.870981908576D-03 0.100000000000D+01
0.954891396961D-07 0.000000000000D+00 0.000000000000D+00 0.152471950753D-04 0.721794487677D-07  6 4 -3 25 24 3 -3 4 0.16839715D-01 0.34606244D-01 0.17046151D+05 0.17046151D+05 0.17046151D+05 0.12415407D+01  1  2 11  6  6  5       21 0.111539254531D-04 0.100000000000D+01
0.265079925856D-05 0.000000000000D+00 0.000000000000D+00 0.152325848823D-04 0.000000000000D+00  6 4 -3 25 24 4 -4 4 0.16839715D-01 0.34606244D-01 0.17046151D+05 0.17046151D+05 0.17046151D+05 0.12415407D+01  1  2 12  7  6  5       21 0.309635393252D-03 0.100000000000D+01
0.246806361018D-05 0.000000000000D+00 0.000000000000D+00 0.152325848823D-04 0.000000000000D+00  6 4 -3 25 24 4 -4 4 0.16839715D-01 0.34606244D-01 0.17046151D+05 0.17046151D+05 0.17046151D+05 0.12415407D+01  1  2 12  7  6  5       21 0.288290350180D-03 0.100000000000D+01
-.745014210570D-05 0.000000000000D+00 0.000000000000D+00 0.152471950753D-04 0.000000000000D+00  6 4 -3 25 24 4 -4 4 0.16839715D-01 0.34606244D-01 0.16839397D+05 0.16839397D+05 0.16839397D+05 0.12421360D+01  1  2  5  7  6  5       21 -.870981908576D-03 0.100000000000D+01
0.924326308215D-07 0.000000000000D+00 0.000000000000D+00 0.152471950753D-04 0.679321028613D-07  6 4 -3 25 24 4 -4 4 0.16839715D-01 0.34606244D-01 0.17046151D+05 0.17046151D+05 0.17046151D+05 0.12415407D+01  1  2 11  7  6  5       21 0.107968998035D-04 0.100000000000D+01
0.265079925856D-05 0.000000000000D+00 0.000000000000D+00 0.152325848823D-04 0.000000000000D+00  6 4 -3 25 24 1 -1 4 0.16839715D-01 0.34606244D-01 0.17046151D+05 0.17046151D+05 0.17046151D+05 0.12415407D+01  1  2 12  8  6  5       21 0.309635393252D-03 0.100000000000D+01
0.265079925856D-05 0.000000000000D+00 0.000000000000D+00 0.152325848823D-04 0.000000000000D+00  6 4 -3 25 24 2 -2 4 0.16839715D-01 0.34606244D-01 0.17046151D+05 0.17046151D+05 0.17046151D+05 0.12415407D+01  1  2 12  8  6  5       21 0.309635393252D-03 0.100000000000D+01
0.246806361018D-05 0.000000000000D+00 0.000000000000D+00 0.152325848823D-04 0.000000000000D+00  6 4 -3 25 24 1 -1 4 0.16839715D-01 0.34606244D-01 0.17046151D+05 0.17046151D+05 0.17046151D+05 0.12415407D+01  1  2 12  8  6  5       21 0.288290350180D-03 0.100000000000D+01
0.246806361018D-05 0.000000000000D+00 0.000000000000D+00 0.152325848823D-04 0.000000000000D+00  6 4 -3 25 24 2 -2 4 0.16839715D-01 0.34606244D-01 0.17046151D+05 0.17046151D+05 0.17046151D+05 0.12415407D+01  1  2 12  8  6  5       21 0.288290350180D-03 0.100000000000D+01
-.745014210570D-05 0.000000000000D+00 0.000000000000D+00 0.152471950753D-04 0.000000000000D+00  6 4 -3 25 24 1 -1 4 0.16839715D-01 0.34606244D-01 0.16839397D+05 0.16839397D+05 0.16839397D+05 0.12421360D+01  1  2  5  8  6  5       21 -.870981908576D-03 0.100000000000D+01
-.745014210570D-05 0.000000000000D+00 0.000000000000D+00 0.152471950753D-04 0.000000000000D+00  6 4 -3 25 24 2 -2 4 0.16839715D-01 0.34606244D-01 0.16839397D+05 0.16839397D+05 0.16839397D+05 0.12421360D+01  1  2  5  8  6  5       21 -.870981908576D-03 0.100000000000D+01
0.925624132904D-07 0.000000000000D+00 0.000000000000D+00 0.152471950753D-04 0.678819309077D-07  6 4 -3 25 24 1 -1 4 0.16839715D-01 0.34606244D-01 0.17046151D+05 0.17046151D+05 0.17046151D+05 0.12415407D+01  1  2 11  8  6  5       21 0.108120594749D-04 0.100000000000D+01
0.925624132904D-07 0.000000000000D+00 0.000000000000D+00 0.152471950753D-04 0.678819309077D-07  6 4 -3 25 24 2 -2 4 0.16839715D-01 0.34606244D-01 0.17046151D+05 0.17046151D+05 0.17046151D+05 0.12415407D+01  1  2 11  8  6  5       21 0.108120594749D-04 0.100000000000D+01
  </mgrwgt>
  </event>
  <event>
  5     66 0.46179844E-03 0.21244891E+02 0.75467711E-02 0.11603991E+00
        2 -1    0    0  502    0 0.00000000E+00 0.00000000E+00 0.94607032E+03 0.94607038E+03 0.32000000E+00 0.0000E+00 0.9000E+01
       -1 -1    0    0    0  501 0.00000000E+00 0.00000000E+00 -.57552646E+02 0.57553536E+02 0.32000000E+00 0.0000E+00 0.9000E+01
       25  1    1    2    0    0 0.68006001E+02 0.13614334E+03 0.20883370E+03 0.28704763E+03 0.12500000E+03 0.0000E+00 0.9000E+01
       24  1    1    2    0    0 -.49223455E+02 -.12622245E+03 0.67707263E+03 0.69516158E+03 0.80419002E+02 0.0000E+00 0.9000E+01
       21  1    1    2  502  501 -.18782546E+02 -.99208957E+01 0.26113464E+01 0.21414710E+02 0.75000000E+00 0.0000E+00 0.9000E+01
#aMCatNLO 1  0  0  5  2 0.84222447D+01 0.00000000D+00  -5  6  0 0.00000000D+00 0.00000000D+00 0.00000000D+00 0.00000000D+00 0.00000000D+00
  <mgrwgt>
 0.9772846231D+00   20    2    0
 0.233343789781613D+03 0.000000000000000D+00 0.000000000000000D+00 0.233343789781613D+03
 0.233343789781613D+03 -.000000000000000D+00 -.000000000000000D+00 -.233343789781613D+03
 0.219708644210812D+03 0.680074745781574D+02 0.136144120267506D+03 -.973994366464283D+02
 0.205898333247922D+03 -.492220736427648D+02 -.126221716392491D+03 0.132560074898673D+03
 0.410806021044918D+02 -.187854009353927D+02 -.992240387501477D+01 -.351606382522448D+02
 0.000000000000000D+00 0.000000000000000D+00 0.000000000000000D+00 -.000000000000000D+00
 0.233343789781613D+03 0.000000000000000D+00 0.000000000000000D+00 0.233343789781613D+03
 0.233343789781613D+03 -.000000000000000D+00 -.000000000000000D+00 -.233343789781613D+03
 0.219872237236218D+03 0.671962582404217D+02 0.135715637736805D+03 -.989177904092005D+02
 0.205417023944360D+03 -.499811278960290D+02 -.126622647034847D+03 0.131139352918629D+03
 0.246116330243186D+02 -.169959596003612D+02 -.515576629276467D+00 -.177933700609515D+02
 0.167866853583301D+02 -.219170744031548D+00 -.857741407268196D+01 -.144281924484771D+02
0.910864785766D-03 0.000000000000D+00 0.000000000000D+00 0.268030201334D-04 0.000000000000D+00  6 2 -1 25 24 21 21 2 0.14554935D+00 0.88543259D-02 0.35294086D+05 0.35294086D+05 0.35294086D+05 0.12075598D+01  1  2  2  3  6  5       21 0.314145948168D+00 0.100000000000D+01
0.205928425188D-03 0.480676553291D-04 -.349796061355D-05 0.268030201334D-04 0.000000000000D+00  6 2 -1 25 24 21 21 4 0.14554935D+00 0.88543259D-02 0.35294086D+05 0.35294086D+05 0.35294086D+05 0.12075598D+01  1  2  3  3  6  5       21 0.103564546811D+00 0.100000000000D+01
0.875583181513D-05 0.000000000000D+00 0.000000000000D+00 0.268030201334D-04 0.000000000000D+00  6 2 -1 25 24 21 21 4 0.14554935D+00 0.88543259D-02 0.35294086D+05 0.35294086D+05 0.35294086D+05 0.12075598D+01  1  2 15  3  6  5       21 0.440344140473D-02 0.100000000000D+01
0.655334504393D-03 0.000000000000D+00 0.000000000000D+00 0.267576543639D-04 0.000000000000D+00  6 2 -1 25 24 21 21 4 0.14554935D+00 0.88543259D-02 0.36111052D+05 0.36111052D+05 0.36111052D+05 0.12065374D+01  1  2 12  3  6  5       21 0.328515201591D+00 0.100000000000D+01
0.577204526284D-03 0.000000000000D+00 0.000000000000D+00 0.267576543639D-04 0.000000000000D+00  6 2 -1 25 24 21 21 4 0.14554935D+00 0.88543259D-02 0.36111052D+05 0.36111052D+05 0.36111052D+05 0.12065374D+01  1  2 12  3  6  5       21 0.289349118718D+00 0.100000000000D+01
-.168982492910D-02 0.000000000000D+00 0.000000000000D+00 0.268030201334D-04 0.000000000000D+00  6 2 -1 25 24 21 21 4 0.14554935D+00 0.88543259D-02 0.35294086D+05 0.35294086D+05 0.35294086D+05 0.12075598D+01  1  2  4  3  6  5       21 -.849838737956D+00 0.100000000000D+01
-.126648498321D-02 0.000000000000D+00 0.000000000000D+00 0.268030201334D-04 0.000000000000D+00  6 2 -1 25 24 21 21 4 0.14554935D+00 0.88543259D-02 0.35294086D+05 0.35294086D+05 0.35294086D+05 0.12075598D+01  1  2  5  3  6  5       21 -.636934620408D+00 0.100000000000D+01
0.290528042483D-02 0.000000000000D+00 -.000000000000D+00 0.268030201334D-04 0.000000000000D+00  6 2 -1 25 24 21 21 4 0.14554935D+00 0.88543259D-02 0.35294086D+05 0.35294086D+05 0.35294086D+05 0.12075598D+01  1  2  6  3  6  5       21 0.146110985057D+01 0.100000000000D+01
0.197824738298D-04 0.000000000000D+00 0.000000000000D+00 0.267576543639D-04 0.000000000000D+00  6 2 -1 25 24 1 -1 4 0.14554935D+00 0.88543259D-02 0.36111052D+05 0.36111052D+05 0.36111052D+05 0.12065374D+01  1  2 12  6  6  5       21 0.991683382241D-02 0.100000000000D+01
0.175338456764D-04 0.000000000000D+00 0.000000000000D+00 0.267576543639D-04 0.000000000000D+00  6 2 -1 25 24 1 -1 4 0.14554935D+00 0.88543259D-02 0.36111052D+05 0.36111052D+05 0.36111052D+05 0.12065374D+01  1  2 12  6  6  5       21 0.878961020430D-02 0.100000000000D+01
-.556037525337D-04 0.000000000000D+00 0.000000000000D+00 0.268030201334D-04 0.000000000000D+00  6 2 -1 25 24 1 -1 4 0.14554935D+00 0.88543259D-02 0.35294086D+05 0.35294086D+05 0.35294086D+05 0.12075598D+01  1  2  5  6  6  5       21 -.279639754777D-01 0.100000000000D+01
0.197824738298D-04 0.000000000000D+00 0.000000000000D+00 0.267576543639D-04 0.000000000000D+00  6 2 -1 25 24 2 -2 4 0.14554935D+00 0.88543259D-02 0.36111052D+05 0.36111052D+05 0.36111052D+05 0.12065374D+01  1  2 12  7  6  5       21 0.991683382241D-02 0.100000000000D+01
0.175338456764D-04 0.000000000000D+00 0.000000000000D+00 0.267576543639D-04 0.000000000000D+00  6 2 -1 25 24 2 -2 4 0.14554935D+00 0.88543259D-02 0.36111052D+05 0.36111052D+05 0.36111052D+05 0.12065374D+01  1  2 12  7  6  5       21 0.878961020430D-02 0.100000000000D+01
-.556037525337D-04 0.000000000000D+00 0.000000000000D+00 0.268030201334D-04 0.000000000000D+00  6 2 -1 25 24 2 -2 4 0.14554935D+00 0.88543259D-02 0.35294086D+05 0.35294086D+05 0.35294086D+05 0.12075598D+01  1  2  5  7  6  5       21 -.279639754777D-01 0.100000000000D+01
0.197824738298D-04 0.000000000000D+00 0.000000000000D+00 0.267576543639D-04 0.000000000000D+00  6 2 -1 25 24 3 -3 4 0.14554935D+00 0.88543259D-02 0.36111052D+05 0.36111052D+05 0.36111052D+05 0.12065374D+01  1  2 12  8  6  5       21 0.991683382241D-02 0.100000000000D+01
0.197824738298D-04 0.000000000000D+00 0.000000000000D+00 0.267576543639D-04 0.000000000000D+00  6 2 -1 25 24 4 -4 4 0.14554935D+00 0.88543259D-02 0.36111052D+05 0.36111052D+05 0.36111052D+05 0.12065374D+01  1  2 12  8  6  5       21 0.991683382241D-02 0.100000000000D+01
0.175338456764D-04 0.000000000000D+00 0.000000000000D+00 0.267576543639D-04 0.000000000000D+00  6 2 -1 25 24 3 -3 4 0.14554935D+00 0.88543259D-02 0.36111052D+05 0.36111052D+05 0.36111052D+05 0.12065374D+01  1  2 12  8  6  5       21 0.878961020430D-02 0.100000000000D+01
0.175338456764D-04 0.000000000000D+00 0.000000000000D+00 0.267576543639D-04 0.000000000000D+00  6 2 -1 25 24 4 -4 4 0.14554935D+00 0.88543259D-02 0.36111052D+05 0.36111052D+05 0.36111052D+05 0.12065374D+01  1  2 12  8  6  5       21 0.878961020430D-02 0.100000000000D+01
-.556037525337D-04 0.000000000000D+00 0.000000000000D+00 0.268030201334D-04 0.000000000000D+00  6 2 -1 25 24 3 -3 4 0.14554935D+00 0.88543259D-02 0.35294086D+05 0.35294086D+05 0.35294086D+05 0.12075598D+01  1  2  5  8  6  5       21 -.279639754777D-01 0.100000000000D+01
-.556037525337D-04 0.000000000000D+00 0.000000000000D+00 0.268030201334D-04 0.000000000000D+00  6 2 -1 25 24 4 -4 4 0.14554935D+00 0.88543259D-02 0.35294086D+05 0.35294086D+05 0.35294086D+05 0.12075598D+01  1  2  5  8  6  5       21 -.279639754777D-01 0.100000000000D+01
  </mgrwgt>
  </event>
  <event>
  6     66 0.46179844E-03 0.33130174E+02 0.75467711E-02 0.11428885E+00
        2 -1    0    0  502    0 0.00000000E+00 0.00000000E+00 0.18054948E+03 0.18054976E+03 0.32000000E+00 0.0000E+00 0.9000E+01
       -1 -1    0    0    0  503 0.00000000E+00 0.00000000E+00 -.10123135E+04 0.10123135E+04 0.32000000E+00 0.0000E+00 0.9000E+01
       25  1    1    2    0    0 0.11913630E+03 -.34305757E+02 0.63739105E+02 0.18723786E+03 0.12500000E+03 0.0000E+00 0.9000E+01
       24  1    1    2    0    0 -.16094022E+03 0.50198890E+02 -.13053872E+03 0.22787992E+03 0.80419002E+02 0.0000E+00 0.9000E+01
       21  1    1    2  502  501 0.10446944E+02 0.89923235E+01 -.22568013E+01 0.13987715E+02 0.75000000E+00 0.0000E+00 0.9000E+01
       21  1    1    2  501  503 0.31356979E+02 -.24885456E+02 -.76270757E+03 0.76375778E+03 0.75000000E+00 0.0000E+00 0.9000E+01
#aMCatNLO 2  0  0  2  2 0.38485638D+02 0.00000000D+00  -5  6  0 0.00000000D+00 0.00000000D+00 0.00000000D+00 0.00000000D+00 0.00000000D+00
  <mgrwgt>
 0.4106566238D+00    1    2    0
 0.210808082528485D+03 0.000000000000000D+00 0.000000000000000D+00 0.210808082528485D+03
 0.210808082528485D+03 0.000000000000000D+00 0.000000000000000D+00 -.210808082528485D+03
 0.211885166588754D+03 0.134414385214208D+03 -.464430096552320D+02 0.951112176454207D+02
 0.195618911524952D+03 -.145912852905283D+03 0.382615547295731D+02 -.951053909016402D+02
 0.141120869432631D+02 0.114984676910746D+02 0.818145492565888D+01 -.582674378048864D-02
 0.000000000000000D+00 0.000000000000000D+00 -.000000000000000D+00 -.000000000000000D+00
 0.212373635836056D+03 0.000000000000000D+00 0.000000000000000D+00 0.212373635836056D+03
 0.860617615905437D+03 0.000000000000000D+00 0.000000000000000D+00 -.860617615905437D+03
 0.200100028837104D+03 0.119128413220585D+03 -.343117907163247D+02 0.951112176454207D+02
 0.209609072976510D+03 -.160948110703124D+03 0.501938024286146D+02 -.951053909016402D+02
 0.138032790095481D+02 0.104627180891858D+02 0.900344421045156D+01 -.582674378048864D-02
 0.649478870918330D+03 0.313569793933527D+02 -.248854559227415D+02 -.648243980069381D+03
0.262268592419D-01 0.000000000000D+00 0.000000000000D+00 0.708043480839D-04 0.381071177043D-06  6 2 -1 25 24 21 21 4 0.27776840D-01 0.15574040D+00 0.43404932D+05 0.43404932D+05 0.43404932D+05 0.11984140D+01  1  2  1  2  6  2       -1 0.410656623820D+00 0.100000000000D+01
  </mgrwgt>
  </event>
  <event>
  6     66 0.46179844E-03 0.38438085E+02 0.75467711E-02 0.12204222E+00
        2 -1    0    0  502    0 0.00000000E+00 0.00000000E+00 0.18993467E+02 0.18996162E+02 0.32000000E+00 0.0000E+00 0.9000E+01
       -1 -1    0    0    0  503 0.00000000E+00 0.00000000E+00 -.13475544E+04 0.13475544E+04 0.32000000E+00 0.0000E+00 0.9000E+01
       25  1    1    2    0    0 0.75706894E+01 -.72771050E+01 -.31802084E+03 0.34186624E+03 0.12500000E+03 0.0000E+00 0.9000E+01
       24  1    1    2    0    0 0.65511492E+01 -.43204294E+02 -.35354756E+03 0.36520216E+03 0.80419002E+02 0.0000E+00 0.9000E+01
       21  1    1    2  502  501 -.13784591E+02 0.40947530E+02 -.40312791E+03 0.40543728E+03 0.75000000E+00 0.0000E+00 0.9000E+01
       21  1    1    2  501  503 -.33724765E+00 0.95338699E+01 -.25386463E+03 0.25404492E+03 0.75000000E+00 0.0000E+00 0.9000E+01
#aMCatNLO 2  0  0  2  5 0.95398329D+01 0.00000000D+00  -5  6  0 0.00000000D+00 0.00000000D+00 0.00000000D+00 0.00000000D+00 0.00000000D+00
  <mgrwgt>
 0.2078030634D+00    2    2    0
 0.143706069857518D+03 0.000000000000000D+00 0.000000000000000D+00 0.143706069857518D+03
 0.143706069857518D+03 0.000000000000000D+00 0.000000000000000D+00 -.143706069857518D+03
 0.133886287007237D+03 0.741398097548871D+01 -.283562690492995D+01 0.473025364513943D+02
 0.901814138671484D+02 0.644484977346461D+01 -.401915774987142D+02 -.292787675111208D+01
 0.633444388406509D+02 -.138588307489533D+02 0.430272044036441D+02 -.443746597002823D+02
 0.000000000000000D+00 -.000000000000000D+00 0.000000000000000D+00 -.000000000000000D+00
 0.144466724958872D+03 0.000000000000000D+00 0.000000000000000D+00 0.144466724958872D+03
 0.177169808107876D+03 0.000000000000000D+00 0.000000000000000D+00 -.177169808107876D+03
 0.134062780620699D+03 0.757114260027703D+01 -.727852957296638D+01 0.473025364513943D+02
 0.915718517331114D+02 0.655145450542054D+01 -.432052549703634D+02 -.292787675111208D+01
 0.619357876595975D+02 -.137853494559414D+02 0.409499146504174D+02 -.443746597002823D+02
 0.340661130533400D+02 -.337247649756123D+00 0.953386989291235D+01 -.327030831490044D+02
-.251763058766D-02 0.000000000000D+00 0.000000000000D+00 0.135641981045D-04 0.000000000000D+00  6 2 -1 25 24 21 21 4 0.29068129D-02 0.21439413D+00 0.18186314D+05 0.18186314D+05 0.18186314D+05 0.12383973D+01  1  2 13  2  6  2       -1 -.294475804615D+00 0.100000000000D+01
0.389238112463D-02 0.000000000000D+00 0.000000000000D+00 0.136375156957D-04 0.150931245569D-05  6 2 -1 25 24 21 21 4 0.29221990D-02 0.20731038D+00 0.18186314D+05 0.18186314D+05 0.18186314D+05 0.12383973D+01  1  2  1  2  6  2       -1 0.502278868019D+00 0.100000000000D+01
  </mgrwgt>
  </event>
  <event>
  5     66 -.46179844E-03 0.22576277E+02 0.75467711E-02 0.11053877E+00
        2 -1    0    0  502    0 0.00000000E+00 0.00000000E+00 0.20405576E+03 0.20405601E+03 0.32000000E+00 0.0000E+00 0.9000E+01
       -1 -1    0    0    0  501 -.00000000E+00 -.00000000E+00 -.44356028E+03 0.44356039E+03 0.32000000E+00 0.0000E+00 0.9000E+01
       25  1    1    2    0    0 -.14224513E+03 -.18250899E+03 -.74545786E+02 0.27335926E+03 0.12500000E+03 0.0000E+00 0.9000E+01
       24  1    1    2    0    0 0.12139627E+03 0.19116826E+03 -.35591538E+02 0.24293277E+03 0.80419002E+02 0.0000E+00 0.9000E+01
       21  1    1    2  502  501 0.20848867E+02 -.86592634E+01 -.12936719E+03 0.13132437E+03 0.75000000E+00 0.0000E+00 0.9000E+01
#aMCatNLO 1  0  0  5  1 0.41648383D+01 0.00000000D+00  -5  6  0 0.00000000D+00 0.00000000D+00 0.00000000D+00 0.00000000D+00 0.00000000D+00
  <mgrwgt>
 -.2164366639D+01   15    2    0
 0.300850705258100D+03 0.000000000000000D+00 0.000000000000000D+00 0.300850705258100D+03
 0.300850705258100D+03 -.000000000000000D+00 -.000000000000000D+00 -.300850705258100D+03
 0.264546532008120D+03 -.142245453534701D+03 -.182508859019167D+03 0.285764750407005D+02
 0.247303817556642D+03 0.121395968728719D+03 0.191168379079504D+03 0.583920528860660D+02
 0.898510609514382D+02 0.208494848059828D+02 -.865952006033702D+01 -.869685279267665D+02
 0.000000000000000D+00 0.000000000000000D+00 -.000000000000000D+00 0.000000000000000D+00
 0.300850705258100D+03 0.000000000000000D+00 0.000000000000000D+00 0.300850705258100D+03
 0.300850705258100D+03 -.000000000000000D+00 -.000000000000000D+00 -.300850705258100D+03
 0.264456581408778D+03 -.142116460825324D+03 -.182562434201714D+03 0.280384134937487D+02
 0.247206060971053D+03 0.121516550569217D+03 0.191118297224896D+03 0.578890752220879D+02
 0.819664329753728D+02 0.171041389628096D+02 -.426907807682284D+01 -.800482325690028D+02
 0.807233516099591D+01 0.349577129329699D+01 -.428678494635889D+01 -.587925614683375D+01
0.342205484725D-02 0.000000000000D+00 0.000000000000D+00 0.316489019832D-04 0.000000000000D+00  6 2 -1 25 24 21 21 2 0.31393222D-01 0.68240071D-01 0.69139076D+05 0.69139076D+05 0.69139076D+05 0.11785886D+01  1  2  2  3  6  5       21 0.204594442461D+00 0.100000000000D+01
0.105453343944D-02 0.180586795631D-03 -.131415916612D-04 0.316489019832D-04 0.000000000000D+00  6 2 -1 25 24 21 21 4 0.31393222D-01 0.68240071D-01 0.69139076D+05 0.69139076D+05 0.69139076D+05 0.11785886D+01  1  2  3  3  6  5       21 0.875773347135D-01 0.100000000000D+01
0.280570962101D-04 0.000000000000D+00 0.000000000000D+00 0.316489019832D-04 0.000000000000D+00  6 2 -1 25 24 21 21 4 0.31393222D-01 0.68240071D-01 0.69139076D+05 0.69139076D+05 0.69139076D+05 0.11785886D+01  1  2 15  3  6  5       21 0.233009747628D-02 0.100000000000D+01
0.578368322781D-03 0.000000000000D+00 0.000000000000D+00 0.316440513856D-04 0.000000000000D+00  6 2 -1 25 24 21 21 4 0.31393222D-01 0.68240071D-01 0.69289715D+05 0.69289715D+05 0.69289715D+05 0.11784983D+01  1  2 12  3  6  5       21 0.480173010207D-01 0.100000000000D+01
-.377490220032D-01 0.000000000000D+00 0.000000000000D+00 0.316489019832D-04 0.000000000000D+00  6 2 -1 25 24 21 21 4 0.31393222D-01 0.68240071D-01 0.69139076D+05 0.69139076D+05 0.69139076D+05 0.11785886D+01  1  2  4  3  6  5       21 -.313499658849D+01 0.100000000000D+01
-.673551406330D-01 0.000000000000D+00 0.000000000000D+00 0.316489019832D-04 0.000000000000D+00  6 2 -1 25 24 21 21 4 0.31393222D-01 0.68240071D-01 0.69139076D+05 0.69139076D+05 0.69139076D+05 0.11785886D+01  1  2  5  3  6  5       21 -.559373792740D+01 0.100000000000D+01
0.765558345535D-01 0.000000000000D+00 -.000000000000D+00 0.316489019832D-04 0.000000000000D+00  6 2 -1 25 24 21 21 4 0.31393222D-01 0.68240071D-01 0.69139076D+05 0.69139076D+05 0.69139076D+05 0.11785886D+01  1  2  6  3  6  5       21 0.635784100933D+01 0.100000000000D+01
0.315443027351D-04 0.000000000000D+00 0.000000000000D+00 0.316440513856D-04 0.000000000000D+00  6 2 -1 25 24 1 -1 4 0.31393222D-01 0.68240071D-01 0.69289715D+05 0.69289715D+05 0.69289715D+05 0.11784983D+01  1  2 12  6  6  5       21 0.261887143583D-02 0.100000000000D+01
-.440910843241D-03 0.000000000000D+00 0.000000000000D+00 0.316489019832D-04 0.000000000000D+00  6 2 -1 25 24 1 -1 4 0.31393222D-01 0.68240071D-01 0.69139076D+05 0.69139076D+05 0.69139076D+05 0.11785886D+01  1  2  5  6  6  5       21 -.366169483615D-01 0.100000000000D+01
0.315443027351D-04 0.000000000000D+00 0.000000000000D+00 0.316440513856D-04 0.000000000000D+00  6 2 -1 25 24 2 -2 4 0.31393222D-01 0.68240071D-01 0.69289715D+05 0.69289715D+05 0.69289715D+05 0.11784983D+01  1  2 12  7  6  5       21 0.261887143583D-02 0.100000000000D+01
-.440910843241D-03 0.000000000000D+00 0.000000000000D+00 0.316489019832D-04 0.000000000000D+00  6 2 -1 25 24 2 -2 4 0.31393222D-01 0.68240071D-01 0.69139076D+05 0.69139076D+05 0.69139076D+05 0.11785886D+01  1  2  5  7  6  5       21 -.366169483615D-01 0.100000000000D+01
0.315443027351D-04 0.000000000000D+00 0.000000000000D+00 0.316440513856D-04 0.000000000000D+00  6 2 -1 25 24 3 -3 4 0.31393222D-01 0.68240071D-01 0.69289715D+05 0.69289715D+05 0.69289715D+05 0.11784983D+01  1  2 12  8  6  5       21 0.261887143583D-02 0.100000000000D+01
0.315443027351D-04 0.000000000000D+00 0.000000000000D+00 0.316440513856D-04 0.000000000000D+00  6 2 -1 25 24 4 -4 4 0.31393222D-01 0.68240071D-01 0.69289715D+05 0.69289715D+05 0.69289715D+05 0.11784983D+01  1  2 12  8  6  5       21 0.261887143583D-02 0.100000000000D+01
-.440910843241D-03 0.000000000000D+00 0.000000000000D+00 0.316489019832D-04 0.000000000000D+00  6 2 -1 25 24 3 -3 4 0.31393222D-01 0.68240071D-01 0.69139076D+05 0.69139076D+05 0.69139076D+05 0.11785886D+01  1  2  5  8  6  5       21 -.366169483615D-01 0.100000000000D+01
-.440910843241D-03 0.000000000000D+00 0.000000000000D+00 0.316489019832D-04 0.000000000000D+00  6 2 -1 25 24 4 -4 4 0.31393222D-01 0.68240071D-01 0.69139076D+05 0.69139076D+05 0.69139076D+05 0.11785886D+01  1  2  5  8  6  5       21 -.366169483615D-01 0.100000000000D+01
  </mgrwgt>
  </event>
  <event>
  5     66 0.46179844E-03 0.26268442E+02 0.75467711E-02 0.12170344E+00
        2 -1    0    0  502    0 0.00000000E+00 0.00000000E+00 0.25389470E+04 0.25389470E+04 0.32000000E+00 0.0000E+00 0.9000E+01
       -1 -1    0    0    0  501 0.00000000E+00 0.00000000E+00 -.11601926E+02 0.11606338E+02 0.32000000E+00 0.0000E+00 0.9000E+01
       25  1    1    2    0    0 -.50697669E+02 0.17000555E+02 0.13038007E+04 0.13108702E+04 0.12500000E+03 0.0000E+00 0.9000E+01
       24  1    1    2    0    0 0.70772324E+02 -.33941512E+02 0.11972380E+04 0.12025002E+04 0.80419002E+02 0.0000E+00 0.9000E+01
       21  1    1    2  502  501 -.20074655E+02 0.16940957E+02 0.26306424E+02 0.37183037E+02 0.75000000E+00 0.0000E+00 0.9000E+01
#aMCatNLO 1  0  0  5  1 0.33042307D+00 0.00000000D+00  -5  6  0 0.00000000D+00 0.00000000D+00 0.00000000D+00 0.00000000D+00 0.00000000D+00
  <mgrwgt>
 0.2330182101D+00   15    2    0
 0.171645938329475D+03 0.000000000000000D+00 0.000000000000000D+00 0.171645938329475D+03
 0.171645938329475D+03 -.000000000000000D+00 -.000000000000000D+00 -.171645938329475D+03
 0.140667581191064D+03 -.506973296700689D+02 0.170002682613219D+02 0.360990310328669D+02
 0.120036763173923D+03 0.707726135472025D+02 -.339417562108381D+02 0.421995606129306D+02
 0.825875322939634D+02 -.200752838771336D+02 0.169414879495162D+02 -.782985916457974D+02
 0.000000000000000D+00 0.000000000000000D+00 0.000000000000000D+00 0.000000000000000D+00
 0.171645938329475D+03 0.000000000000000D+00 0.000000000000000D+00 0.171645938329475D+03
 0.171645938329475D+03 -.000000000000000D+00 -.000000000000000D+00 -.171645938329475D+03
 0.140657119224979D+03 -.507167987877532D+02 0.170166982069532D+02 0.360230966398793D+02
 0.120000241654185D+03 0.707560017506249D+02 -.339277375522098D+02 0.421347704817077D+02
 0.822568368443450D+02 -.198372199473877D+02 0.166006046628460D+02 -.780838769351526D+02
 0.377678935441062D+00 -.201983015484000D+00 0.310434682410471D+00 -.739901864343813D-01
0.161735780970D-03 0.000000000000D+00 0.000000000000D+00 0.386331639390D-04 0.000000000000D+00  6 2 -1 25 24 21 21 2 0.39060758D+00 0.17852527D-02 0.18851239D+05 0.18851239D+05 0.18851239D+05 0.12366644D+01  1  2  2  3  6  5       21 0.876118727401D-01 0.100000000000D+01
0.201893156144D-04 0.853503164853D-05 -.621107984933D-06 0.386331639390D-04 0.000000000000D+00  6 2 -1 25 24 21 21 4 0.39060758D+00 0.17852527D-02 0.18851239D+05 0.18851239D+05 0.18851239D+05 0.12366644D+01  1  2  3  3  6  5       21 0.167256168750D-01 0.100000000000D+01
0.723436947364D-05 0.000000000000D+00 0.000000000000D+00 0.386331639390D-04 0.000000000000D+00  6 2 -1 25 24 21 21 4 0.39060758D+00 0.17852527D-02 0.18851239D+05 0.18851239D+05 0.18851239D+05 0.12366644D+01  1  2 15  3  6  5       21 0.599323396887D-02 0.100000000000D+01
-.139101017567D-01 0.000000000000D+00 0.000000000000D+00 0.386331639390D-04 0.000000000000D+00  6 2 -1 25 24 21 21 4 0.39060758D+00 0.17852527D-02 0.18851239D+05 0.18851239D+05 0.18851239D+05 0.12366644D+01  1  2  4  3  6  5       21 -.115236710901D+02 0.100000000000D+01
-.222360019583D-01 0.000000000000D+00 0.000000000000D+00 0.386331639390D-04 0.000000000000D+00  6 2 -1 25 24 21 21 4 0.39060758D+00 0.17852527D-02 0.18851239D+05 0.18851239D+05 0.18851239D+05 0.12366644D+01  1  2  5  3  6  5       21 -.184211717073D+02 0.100000000000D+01
0.223408360426D-01 0.000000000000D+00 -.000000000000D+00 0.386331639390D-04 0.000000000000D+00  6 2 -1 25 24 21 21 4 0.39060758D+00 0.17852527D-02 0.18851239D+05 0.18851239D+05 0.18851239D+05 0.12366644D+01  1  2  6  3  6  5       21 0.185080203536D+02 0.100000000000D+01
0.139553110637D-01 0.000000000000D+00 0.000000000000D+00 0.386331639390D-04 0.190631826788D-02  6 2 -1 25 24 21 21 4 0.39060758D+00 0.17852527D-02 0.18846216D+05 0.18846216D+05 0.18846216D+05 0.12366772D+01  1  2 11  3  6  5       21 0.115616124626D+02 0.100000000000D+01
-.838397211770D-05 0.000000000000D+00 0.000000000000D+00 0.386331639390D-04 0.000000000000D+00  6 2 -1 25 24 1 -1 4 0.39060758D+00 0.17852527D-02 0.18851239D+05 0.18851239D+05 0.18851239D+05 0.12366644D+01  1  2  5  6  6  5       21 -.694560965857D-02 0.100000000000D+01
0.747082282877D-05 0.000000000000D+00 0.000000000000D+00 0.386331639390D-04 0.188314511671D-05  6 2 -1 25 24 1 -1 4 0.39060758D+00 0.17852527D-02 0.18846216D+05 0.18846216D+05 0.18846216D+05 0.12366772D+01  1  2 11  6  6  5       21 0.618938251741D-02 0.100000000000D+01
-.838397211770D-05 0.000000000000D+00 0.000000000000D+00 0.386331639390D-04 0.000000000000D+00  6 2 -1 25 24 2 -2 4 0.39060758D+00 0.17852527D-02 0.18851239D+05 0.18851239D+05 0.18851239D+05 0.12366644D+01  1  2  5  7  6  5       21 -.694560965857D-02 0.100000000000D+01
0.784167513203D-05 0.000000000000D+00 0.000000000000D+00 0.386331639390D-04 0.168639760875D-05  6 2 -1 25 24 2 -2 4 0.39060758D+00 0.17852527D-02 0.18846216D+05 0.18846216D+05 0.18846216D+05 0.12366772D+01  1  2 11  7  6  5       21 0.649662401075D-02 0.100000000000D+01
-.838397211770D-05 0.000000000000D+00 0.000000000000D+00 0.386331639390D-04 0.000000000000D+00  6 2 -1 25 24 3 -3 4 0.39060758D+00 0.17852527D-02 0.18851239D+05 0.18851239D+05 0.18851239D+05 0.12366644D+01  1  2  5  8  6  5       21 -.694560965857D-02 0.100000000000D+01
-.838397211770D-05 0.000000000000D+00 0.000000000000D+00 0.386331639390D-04 0.000000000000D+00  6 2 -1 25 24 4 -4 4 0.39060758D+00 0.17852527D-02 0.18851239D+05 0.18851239D+05 0.18851239D+05 0.12366644D+01  1  2  5  8  6  5       21 -.694560965857D-02 0.100000000000D+01
0.784206850885D-05 0.000000000000D+00 0.000000000000D+00 0.386331639390D-04 0.168645828057D-05  6 2 -1 25 24 3 -3 4 0.39060758D+00 0.17852527D-02 0.18846216D+05 0.18846216D+05 0.18846216D+05 0.12366772D+01  1  2 11  8  6  5       21 0.649694991322D-02 0.100000000000D+01
0.784206850885D-05 0.000000000000D+00 0.000000000000D+00 0.386331639390D-04 0.168645828057D-05  6 2 -1 25 24 4 -4 4 0.39060758D+00 0.17852527D-02 0.18846216D+05 0.18846216D+05 0.18846216D+05 0.12366772D+01  1  2 11  8  6  5       21 0.649694991322D-02 0.100000000000D+01
  </mgrwgt>
  </event>
  <event>
  5     66 0.46179844E-03 0.21249563E+02 0.75467711E-02 0.12209023E+00
        2 -1    0    0  502    0 0.00000000E+00 0.00000000E+00 0.13246737E+03 0.13246776E+03 0.32000000E+00 0.0000E+00 0.9000E+01
       -1 -1    0    0    0  501 -.00000000E+00 -.00000000E+00 -.26449524E+03 0.26449543E+03 0.32000000E+00 0.0000E+00 0.9000E+01
       25  1    1    2    0    0 -.58590530E+02 -.52834598E+02 -.23167597E+02 0.14961979E+03 0.12500000E+03 0.0000E+00 0.9000E+01
       24  1    1    2    0    0 0.38883052E+02 0.44888455E+02 0.31938442E+02 0.10494830E+03 0.80419002E+02 0.0000E+00 0.9000E+01
       21  1    1    2  502  501 0.19707478E+02 0.79461431E+01 -.14079871E+03 0.14239510E+03 0.75000000E+00 0.0000E+00 0.9000E+01
#aMCatNLO 1  0  0  5  2 0.63304650D+01 0.00000000D+00  -5  6  0 0.00000000D+00 0.00000000D+00 0.00000000D+00 0.00000000D+00 0.00000000D+00
  <mgrwgt>
 0.6967592617D+00   20    2    0
 0.187182010197406D+03 0.000000000000000D+00 0.000000000000000D+00 0.187182010197406D+03
 0.187182010197406D+03 -.000000000000000D+00 -.000000000000000D+00 -.187182010197406D+03
 0.150481614453866D+03 -.585907468104633D+02 -.528346854474800D+02 0.282017143184574D+02
 0.122547933987780D+03 0.388828753600296D+02 0.448883836570289D+02 0.708797233819272D+02
 0.101334471953166D+03 0.197078714504336D+02 0.794630179045108D+01 -.990814377003845D+02
 0.000000000000000D+00 0.000000000000000D+00 0.000000000000000D+00 -.000000000000000D+00
 0.187182010197406D+03 0.000000000000000D+00 0.000000000000000D+00 0.187182010197406D+03
 0.187182010197406D+03 -.000000000000000D+00 -.000000000000000D+00 -.187182010197406D+03
 0.150388912389123D+03 -.585275995480747D+02 -.528092241892491D+02 0.278842410915774D+02
 0.122422556244859D+03 0.389342902193929D+02 0.449091143579593D+02 0.706212348791131D+02
 0.439674019998646D+02 0.145086573494564D+02 0.188070404746715D+01 -.414619615167879D+02
 0.575851497609648D+02 0.508465197922534D+01 0.601940578382262D+01 -.570435144539025D+02
0.186632755402D-03 0.000000000000D+00 0.000000000000D+00 0.612427404157D-04 0.000000000000D+00  6 2 -1 25 24 21 21 2 0.20379641D-01 0.40691620D-01 0.18094987D+05 0.18094987D+05 0.18094987D+05 0.12386408D+01  1  2  2  3  6  5       21 0.518852744323D-01 0.100000000000D+01
0.356973992308D-04 0.984888108527D-05 -.716718922275D-06 0.612427404157D-04 0.000000000000D+00  6 2 -1 25 24 21 21 4 0.20379641D-01 0.40691620D-01 0.18094987D+05 0.18094987D+05 0.18094987D+05 0.12386408D+01  1  2  3  3  6  5       21 0.152259216255D-01 0.100000000000D+01
0.776806792998D-05 0.000000000000D+00 0.000000000000D+00 0.612427404157D-04 0.000000000000D+00  6 2 -1 25 24 21 21 4 0.20379641D-01 0.40691620D-01 0.18094987D+05 0.18094987D+05 0.18094987D+05 0.12386408D+01  1  2 15  3  6  5       21 0.331329441449D-02 0.100000000000D+01
0.695222388792D-03 0.000000000000D+00 0.000000000000D+00 0.611982251204D-04 0.000000000000D+00  6 2 -1 25 24 21 21 4 0.20379641D-01 0.40691620D-01 0.18264228D+05 0.18264228D+05 0.18264228D+05 0.12381906D+01  1  2 12  3  6  5       21 0.296145439992D+00 0.100000000000D+01
0.538968268070D-03 0.000000000000D+00 0.000000000000D+00 0.611982251204D-04 0.000000000000D+00  6 2 -1 25 24 21 21 4 0.20379641D-01 0.40691620D-01 0.18264228D+05 0.18264228D+05 0.18264228D+05 0.12381906D+01  1  2 12  3  6  5       21 0.229585521788D+00 0.100000000000D+01
-.148548424720D-02 0.000000000000D+00 0.000000000000D+00 0.612427404157D-04 0.000000000000D+00  6 2 -1 25 24 21 21 4 0.20379641D-01 0.40691620D-01 0.18094987D+05 0.18094987D+05 0.18094987D+05 0.12386408D+01  1  2  4  3  6  5       21 -.633599847920D+00 0.100000000000D+01
-.164108334829D-02 0.000000000000D+00 0.000000000000D+00 0.612427404157D-04 0.000000000000D+00  6 2 -1 25 24 21 21 4 0.20379641D-01 0.40691620D-01 0.18094987D+05 0.18094987D+05 0.18094987D+05 0.12386408D+01  1  2  5  3  6  5       21 -.699967139911D+00 0.100000000000D+01
0.333968563097D-02 0.000000000000D+00 -.000000000000D+00 0.612427404157D-04 0.000000000000D+00  6 2 -1 25 24 21 21 4 0.20379641D-01 0.40691620D-01 0.18094987D+05 0.18094987D+05 0.18094987D+05 0.12386408D+01  1  2  6  3  6  5       21 0.142446768579D+01 0.100000000000D+01
0.380775220633D-04 0.000000000000D+00 0.000000000000D+00 0.611982251204D-04 0.000000000000D+00  6 2 -1 25 24 1 -1 4 0.20379641D-01 0.40691620D-01 0.18264228D+05 0.18264228D+05 0.18264228D+05 0.12381906D+01  1  2 12  6  6  5       21 0.162199674623D-01 0.100000000000D+01
0.297008397092D-04 0.000000000000D+00 0.000000000000D+00 0.611982251204D-04 0.000000000000D+00  6 2 -1 25 24 1 -1 4 0.20379641D-01 0.40691620D-01 0.18264228D+05 0.18264228D+05 0.18264228D+05 0.12381906D+01  1  2 12  6  6  5       21 0.126517332952D-01 0.100000000000D+01
-.620028587329D-04 0.000000000000D+00 0.000000000000D+00 0.612427404157D-04 0.000000000000D+00  6 2 -1 25 24 1 -1 4 0.20379641D-01 0.40691620D-01 0.18094987D+05 0.18094987D+05 0.18094987D+05 0.12386408D+01  1  2  5  6  6  5       21 -.264459228953D-01 0.100000000000D+01
0.380775220633D-04 0.000000000000D+00 0.000000000000D+00 0.611982251204D-04 0.000000000000D+00  6 2 -1 25 24 2 -2 4 0.20379641D-01 0.40691620D-01 0.18264228D+05 0.18264228D+05 0.18264228D+05 0.12381906D+01  1  2 12  7  6  5       21 0.162199674623D-01 0.100000000000D+01
0.297008397092D-04 0.000000000000D+00 0.000000000000D+00 0.611982251204D-04 0.000000000000D+00  6 2 -1 25 24 2 -2 4 0.20379641D-01 0.40691620D-01 0.18264228D+05 0.18264228D+05 0.18264228D+05 0.12381906D+01  1  2 12  7  6  5       21 0.126517332952D-01 0.100000000000D+01
-.620028587329D-04 0.000000000000D+00 0.000000000000D+00 0.612427404157D-04 0.000000000000D+00  6 2 -1 25 24 2 -2 4 0.20379641D-01 0.40691620D-01 0.18094987D+05 0.18094987D+05 0.18094987D+05 0.12386408D+01  1  2  5  7  6  5       21 -.264459228953D-01 0.100000000000D+01
0.380775220633D-04 0.000000000000D+00 0.000000000000D+00 0.611982251204D-04 0.000000000000D+00  6 2 -1 25 24 3 -3 4 0.20379641D-01 0.40691620D-01 0.18264228D+05 0.18264228D+05 0.18264228D+05 0.12381906D+01  1  2 12  8  6  5       21 0.162199674623D-01 0.100000000000D+01
0.380775220633D-04 0.000000000000D+00 0.000000000000D+00 0.611982251204D-04 0.000000000000D+00  6 2 -1 25 24 4 -4 4 0.20379641D-01 0.40691620D-01 0.18264228D+05 0.18264228D+05 0.18264228D+05 0.12381906D+01  1  2 12  8  6  5       21 0.162199674623D-01 0.100000000000D+01
0.297008397092D-04 0.000000000000D+00 0.000000000000D+00 0.611982251204D-04 0.000000000000D+00  6 2 -1 25 24 3 -3 4 0.20379641D-01 0.40691620D-01 0.18264228D+05 0.18264228D+05 0.18264228D+05 0.12381906D+01  1  2 12  8  6  5       21 0.126517332952D-01 0.100000000000D+01
0.297008397092D-04 0.000000000000D+00 0.000000000000D+00 0.611982251204D-04 0.000000000000D+00  6 2 -1 25 24 4 -4 4 0.20379641D-01 0.40691620D-01 0.18264228D+05 0.18264228D+05 0.18264228D+05 0.12381906D+01  1  2 12  8  6  5       21 0.126517332952D-01 0.100000000000D+01
-.620028587329D-04 0.000000000000D+00 0.000000000000D+00 0.612427404157D-04 0.000000000000D+00  6 2 -1 25 24 3 -3 4 0.20379641D-01 0.40691620D-01 0.18094987D+05 0.18094987D+05 0.18094987D+05 0.12386408D+01  1  2  5  8  6  5       21 -.264459228953D-01 0.100000000000D+01
-.620028587329D-04 0.000000000000D+00 0.000000000000D+00 0.612427404157D-04 0.000000000000D+00  6 2 -1 25 24 4 -4 4 0.20379641D-01 0.40691620D-01 0.18094987D+05 0.18094987D+05 0.18094987D+05 0.12386408D+01  1  2  5  8  6  5       21 -.264459228953D-01 0.100000000000D+01
  </mgrwgt>
  </event>
  <event>
  5     66 0.46179844E-03 0.15160288E+03 0.75467711E-02 0.10915243E+00
        2 -1    0    0  502    0 0.00000000E+00 0.00000000E+00 0.22383457E+04 0.22383457E+04 0.32000000E+00 0.0000E+00 0.9000E+01
       -1 -1    0    0    0  501 0.00000000E+00 0.00000000E+00 -.36251897E+02 0.36253310E+02 0.32000000E+00 0.0000E+00 0.9000E+01
       25  1    1    2    0    0 -.16692075E+03 0.18989998E+02 0.46463558E+03 0.50964143E+03 0.12500000E+03 0.0000E+00 0.9000E+01
       24  1    1    2    0    0 -.45411785E+02 -.28974169E+02 0.48053719E+03 0.49018868E+03 0.80419002E+02 0.0000E+00 0.9000E+01
       21  1    1    2  502  501 0.21233253E+03 0.99841711E+01 0.12569210E+04 0.12747689E+04 0.75000000E+00 0.0000E+00 0.9000E+01
#aMCatNLO 1  0  0  1  5 0.53873175D+02 0.00000000D+00  -5  6  0 0.00000000D+00 0.00000000D+00 0.00000000D+00 0.00000000D+00 0.00000000D+00
  <mgrwgt>
 0.4256802481D-01    9    4    0
 0.284861209645743D+03 0.000000000000000D+00 0.000000000000000D+00 0.284861209645743D+03
 0.284861209645743D+03 0.000000000000000D+00 0.000000000000000D+00 -.284861209645743D+03
 0.238816282368771D+03 -.166921216133274D+03 0.189899757324535D+02 -.114825542240000D+03
 0.996884832863067D+02 -.454119801165809D+02 -.289741780353078D+02 0.238500904531464D+02
 0.231217653636408D+03 0.212333196249855D+03 0.998420230285424D+01 0.909754517868537D+02
 0.000000000000000D+00 -.000000000000000D+00 -.000000000000000D+00 0.000000000000000D+00
 0.354262908519611D+03 0.000000000000000D+00 0.000000000000000D+00 0.354262908519611D+03
 0.296781721800239D+03 0.000000000000000D+00 0.000000000000000D+00 -.296781721800239D+03
 0.238024613499177D+03 -.161783175556480D+03 0.408902872034873D+02 -.114825542240000D+03
 0.964849720734834D+02 -.432981782542345D+02 -.199643388794017D+02 0.238500904531464D+02
 0.237754299407782D+03 0.217386447648801D+03 0.315231095816692D+02 0.909754517868537D+02
 0.787807453394084D+02 -.123050938380874D+02 -.524490579057547D+02 0.574811867193725D+02
 0.284861209645743D+03 0.000000000000000D+00 0.000000000000000D+00 0.284861209645743D+03
 0.284861209645743D+03 0.000000000000000D+00 0.000000000000000D+00 -.284861209645743D+03
 0.238816282368771D+03 -.166921216133274D+03 0.189899757324535D+02 -.114825542240000D+03
 0.996884832863067D+02 -.454119801165809D+02 -.289741780353078D+02 0.238500904531464D+02
 0.000000000000000D+00 -.000000000000000D+00 -.000000000000000D+00 0.000000000000000D+00
 0.231217653636408D+03 0.212333196249855D+03 0.998420230285424D+01 0.909754517868537D+02
 0.354262908519611D+03 0.000000000000000D+00 0.000000000000000D+00 0.354262908519611D+03
 0.296781721800239D+03 0.000000000000000D+00 0.000000000000000D+00 -.296781721800239D+03
 0.238024613499177D+03 -.161783175556480D+03 0.408902872034873D+02 -.114825542240000D+03
 0.964849720734834D+02 -.432981782542345D+02 -.199643388794017D+02 0.238500904531464D+02
 0.787807453394084D+02 -.123050938380874D+02 -.524490579057547D+02 0.574811867193725D+02
 0.237754299407782D+03 0.217386447648801D+03 0.315231095816692D+02 0.909754517868537D+02
0.977646421839D-04 0.000000000000D+00 0.000000000000D+00 0.748111421189D-06 0.000000000000D+00  6 2 -1 25 24 21 21 2 0.34436098D+00 0.55773254D-02 0.67278272D+05 0.67278272D+05 0.67278272D+05 0.11797227D+01  1  2  2  1  6  1        2 0.128554294712D-01 0.100000000000D+01
-.106884083133D-04 0.515918190857D-05 -.375441968008D-06 0.748111421189D-06 0.000000000000D+00  6 2 -1 25 24 21 21 4 0.34436098D+00 0.55773254D-02 0.67278272D+05 0.67278272D+05 0.67278272D+05 0.11797227D+01  1  2  3  1  6  1        2 -.195603971153D-02 0.100000000000D+01
0.363940479520D-05 0.000000000000D+00 0.000000000000D+00 0.748111421189D-06 0.000000000000D+00  6 2 -1 25 24 21 21 4 0.34436098D+00 0.55773254D-02 0.67278272D+05 0.67278272D+05 0.67278272D+05 0.11797227D+01  1  2 15  1  6  1        2 0.666031844690D-03 0.100000000000D+01
0.257572219440D-03 0.000000000000D+00 0.000000000000D+00 0.737309292988D-06 0.000000000000D+00  6 2 -1 25 24 21 21 4 0.45671640D+00 0.55773254D-02 0.82805997D+05 0.82805997D+05 0.82805997D+05 0.11711746D+01  1  2 12  1  6  1        2 0.178189781367D-01 0.100000000000D+01
-.210323756631D-03 0.000000000000D+00 0.000000000000D+00 0.748111421189D-06 0.000000000000D+00  6 2 -1 25 24 21 21 4 0.34436098D+00 0.55773254D-02 0.67278272D+05 0.67278272D+05 0.67278272D+05 0.11797227D+01  1  2  4  1  6  1        2 -.384904476127D-01 0.100000000000D+01
-.522280081637D-03 0.000000000000D+00 -.100280229718D-03 0.748111421189D-06 0.000000000000D+00  6 2 -1 25 24 21 21 4 0.43341258D+00 0.55773254D-02 0.67278272D+05 0.67278272D+05 0.67278272D+05 0.11797227D+01  1  2  5  1  6  1        2 -.458949231858D-01 0.100000000000D+01
0.533759431392D-03 0.000000000000D+00 0.976850574634D-04 0.748111421189D-06 0.000000000000D+00  6 2 -1 25 24 21 21 4 0.34436098D+00 0.55773254D-02 0.67278272D+05 0.67278272D+05 0.67278272D+05 0.11797227D+01  1  2  6  1  6  1        2 0.976810216822D-01 0.100000000000D+01
0.952926728862D-05 0.000000000000D+00 0.000000000000D+00 0.737309292988D-06 0.000000000000D+00  6 21 -1 25 24 -2 21 4 0.45671640D+00 0.55773254D-02 0.82805997D+05 0.82805997D+05 0.82805997D+05 0.11711746D+01  3  4 12  4  5  1        2 0.798249311602D-04 0.100000000000D+01
-.151504364573D-04 0.000000000000D+00 -.319003233793D-05 0.748111421189D-06 0.000000000000D+00  6 21 -1 25 24 -2 21 4 0.43341258D+00 0.55773254D-02 0.67278272D+05 0.67278272D+05 0.67278272D+05 0.11797227D+01  3  4  5  4  5  1        2 -.191850741547D-03 0.100000000000D+01
  </mgrwgt>
  </event>
  <event>
  6     66 -.46179844E-03 0.19131123E+02 0.75467711E-02 0.12028296E+00
        2 -1    0    0  502    0 0.00000000E+00 0.00000000E+00 0.29738940E+02 0.29740661E+02 0.32000000E+00 0.0000E+00 0.9000E+01
       -1 -1    0    0    0  503 0.00000000E+00 0.00000000E+00 -.91362898E+03 0.91362904E+03 0.32000000E+00 0.0000E+00 0.9000E+01
       25  1    1    2    0    0 0.20345067E+02 -.82372906E+02 -.26732346E+03 0.30706033E+03 0.12500000E+03 0.0000E+00 0.9000E+01
       24  1    1    2    0    0 0.21364292E+01 0.80509095E+02 -.36616259E+03 0.38344300E+03 0.80419002E+02 0.0000E+00 0.9000E+01
       21  1    1    2  502  501 -.20989605E+02 0.98417146E+01 -.12081800E+03 0.12302428E+03 0.75000000E+00 0.0000E+00 0.9000E+01
       21  1    1    2  501  503 -.14918905E+01 -.79779040E+01 -.12958599E+03 0.12984208E+03 0.75000000E+00 0.0000E+00 0.9000E+01
#aMCatNLO 2  0  0  2  5 0.81161993D+01 0.00000000D+00  -5  6  0 0.00000000D+00 0.00000000D+00 0.00000000D+00 0.00000000D+00 0.00000000D+00
  <mgrwgt>
 -.8835295830D-01    2    2    0
 0.152304564408165D+03 0.000000000000000D+00 0.000000000000000D+00 0.152304564408165D+03
 0.152304564408165D+03 0.000000000000000D+00 0.000000000000000D+00 -.152304564408165D+03
 0.160160588590157D+03 0.195696306378145D+02 -.865407054875456D+02 0.464128213747330D+02
 0.115222024836697D+03 0.156974455900747D+01 0.774635300661850D+02 -.283872588462248D+02
 0.292265153894768D+02 -.211393751968220D+02 0.907717542136052D+01 -.180255625285083D+02
 0.000000000000000D+00 -.000000000000000D+00 -.000000000000000D+00 -.000000000000000D+00
 0.153012003036610D+03 0.000000000000000D+00 0.000000000000000D+00 0.153012003036610D+03
 0.177563014283927D+03 0.000000000000000D+00 0.000000000000000D+00 -.177563014283927D+03
 0.158046721699221D+03 0.203487377024616D+02 -.823744203368051D+02 0.464128213747330D+02
 0.117299424331600D+03 0.213905613002156D+01 0.805079310889571D+02 -.283872588462248D+02
 0.293710901874634D+02 -.209959032934427D+02 0.984439328873804D+01 -.180255625285083D+02
 0.258577811022522D+02 -.149189053904046D+01 -.797790404089009D+01 -.245510112473165D+02
-.370280242912D-02 0.000000000000D+00 0.000000000000D+00 0.367179933983D-04 0.000000000000D+00  6 2 -1 25 24 21 21 4 0.45540433D-02 0.14827289D+00 0.21933054D+05 0.21933054D+05 0.21933054D+05 0.12294390D+01  1  2 13  2  6  2       -1 -.662019365288D+00 0.100000000000D+01
0.281692021064D-02 0.000000000000D+00 0.000000000000D+00 0.368779269383D-04 0.186094684371D-05  6 2 -1 25 24 21 21 4 0.45751963D-02 0.14055347D+00 0.21933054D+05 0.21933054D+05 0.21933054D+05 0.12294390D+01  1  2  1  2  6  2       -1 0.573666406990D+00 0.100000000000D+01
  </mgrwgt>
  </event>
  <event>
  5     66 0.46179844E-03 0.27861196E+02 0.75467711E-02 0.12355117E+00
        2 -1    0    0  502    0 0.00000000E+00 0.00000000E+00 0.71933776E+02 0.71934488E+02 0.32000000E+00 0.0000E+00 0.9000E+01
       -1 -1    0    0    0  501 -.00000000E+00 -.00000000E+00 -.29484432E+03 0.29484449E+03 0.32000000E+00 0.0000E+00 0.9000E+01
       25  1    1    2    0    0 0.11683177E+02 -.28711118E+02 -.24921833E+02 0.13117516E+03 0.12500000E+03 0.0000E+00 0.9000E+01
       24  1    1    2    0    0 0.13334921E+02 0.16453590E+02 -.83787960E+02 0.11805159E+03 0.80419002E+02 0.0000E+00 0.9000E+01
       21  1    1    2  502  501 -.25018098E+02 0.12257527E+02 -.11420075E+03 0.11755223E+03 0.75000000E+00 0.0000E+00 0.9000E+01
#aMCatNLO 1  0  0  5  1 0.11258430D+02 0.00000000D+00  -5  6  0 0.00000000D+00 0.00000000D+00 0.00000000D+00 0.00000000D+00 0.00000000D+00
  <mgrwgt>
 0.4557972468D+00    9    2    0
 0.145634569430402D+03 0.000000000000000D+00 0.000000000000000D+00 0.145634569430402D+03
 0.145634569430402D+03 -.000000000000000D+00 -.000000000000000D+00 -.145634569430402D+03
 0.146109835728475D+03 0.116841376646420D+02 -.287115880673154D+02 0.690087656337100D+02
 0.845320297405674D+02 0.133354761978094D+02 0.164533182484372D+02 -.151625027908632D+02
 0.606272733917627D+02 -.250196138624514D+02 0.122582698188783D+02 -.538462628428468D+02
 0.000000000000000D+00 0.000000000000000D+00 -.000000000000000D+00 0.000000000000000D+00
 0.145634569430402D+03 0.000000000000000D+00 0.000000000000000D+00 0.145634569430402D+03
 0.145634569430402D+03 -.000000000000000D+00 -.000000000000000D+00 -.145634569430402D+03
 0.142541071049416D+03 0.856463295493299D+01 -.271831979553376D+02 0.622950860596788D+02
 0.852397846252912D+02 0.115007202276934D+02 0.173522503365632D+02 -.191111949154693D+02
 0.520230092123517D+02 -.169129755184224D+02 0.207628669246809D+02 -.446009876985887D+02
 0.114652739737460D+02 -.315237766420405D+01 -.109319193059065D+02 0.141709655437930D+01
0.503558624007D-03 0.000000000000D+00 0.000000000000D+00 0.330186172293D-04 0.000000000000D+00  6 2 -1 25 24 21 21 2 0.11066803D-01 0.45360733D-01 0.14377019D+05 0.14377019D+05 0.14377019D+05 0.12499282D+01  1  2  2  3  6  5       21 0.238797378877D+00 0.100000000000D+01
0.344772635958D-04 0.265735186551D-04 -.193379770622D-05 0.330186172293D-04 0.000000000000D+00  6 2 -1 25 24 21 21 4 0.11066803D-01 0.45360733D-01 0.14377019D+05 0.14377019D+05 0.14377019D+05 0.12499282D+01  1  2  3  3  6  5       21 0.255436193120D-01 0.100000000000D+01
0.261230023490D-04 0.000000000000D+00 0.000000000000D+00 0.330186172293D-04 0.000000000000D+00  6 2 -1 25 24 21 21 4 0.11066803D-01 0.45360733D-01 0.14377019D+05 0.14377019D+05 0.14377019D+05 0.12499282D+01  1  2 15  3  6  5       21 0.193540889762D-01 0.100000000000D+01
0.580523946334D-03 0.000000000000D+00 0.000000000000D+00 0.328129656894D-04 0.000000000000D+00  6 2 -1 25 24 21 21 4 0.11066803D-01 0.45360733D-01 0.15554409D+05 0.15554409D+05 0.15554409D+05 0.12460296D+01  1  2 12  3  6  5       21 0.425631676691D+00 0.100000000000D+01
-.362039444726D-03 0.000000000000D+00 0.000000000000D+00 0.330186172293D-04 0.000000000000D+00  6 2 -1 25 24 21 21 4 0.11066803D-01 0.45360733D-01 0.14377019D+05 0.14377019D+05 0.14377019D+05 0.12499282D+01  1  2  4  3  6  5       21 -.268228878614D+00 0.100000000000D+01
0.501215712260D-05 0.000000000000D+00 0.000000000000D+00 0.328129656894D-04 0.000000000000D+00  6 2 -1 25 24 1 -1 4 0.11066803D-01 0.45360733D-01 0.15554409D+05 0.15554409D+05 0.15554409D+05 0.12460296D+01  1  2 12  6  6  5       21 0.367484038067D-02 0.100000000000D+01
0.501215712260D-05 0.000000000000D+00 0.000000000000D+00 0.328129656894D-04 0.000000000000D+00  6 2 -1 25 24 2 -2 4 0.11066803D-01 0.45360733D-01 0.15554409D+05 0.15554409D+05 0.15554409D+05 0.12460296D+01  1  2 12  7  6  5       21 0.367484038067D-02 0.100000000000D+01
0.501215712260D-05 0.000000000000D+00 0.000000000000D+00 0.328129656894D-04 0.000000000000D+00  6 2 -1 25 24 3 -3 4 0.11066803D-01 0.45360733D-01 0.15554409D+05 0.15554409D+05 0.15554409D+05 0.12460296D+01  1  2 12  8  6  5       21 0.367484038067D-02 0.100000000000D+01
0.501215712260D-05 0.000000000000D+00 0.000000000000D+00 0.328129656894D-04 0.000000000000D+00  6 2 -1 25 24 4 -4 4 0.11066803D-01 0.45360733D-01 0.15554409D+05 0.15554409D+05 0.15554409D+05 0.12460296D+01  1  2 12  8  6  5       21 0.367484038067D-02 0.100000000000D+01
  </mgrwgt>
  </event>
  <event>
  5     66 0.46179844E-03 0.68423806E+02 0.75467711E-02 0.10795346E+00
        2 -1    0    0  502    0 0.00000000E+00 0.00000000E+00 0.81042252E+03 0.81042258E+03 0.32000000E+00 0.0000E+00 0.9000E+01
       -1 -1    0    0    0  501 0.00000000E+00 0.00000000E+00 -.39465146E+02 0.39466444E+02 0.32000000E+00 0.0000E+00 0.9000E+01
       25  1    1    2    0    0 0.44185897E+02 0.35945032E+02 0.20101989E+03 0.24347163E+03 0.12500000E+03 0.0000E+00 0.9000E+01
       24  1    1    2    0    0 -.26399093E+02 -.10201317E+03 0.44043204E+03 0.45994695E+03 0.80419002E+02 0.0000E+00 0.9000E+01
       21  1    1    2  502  501 -.17786804E+02 0.66068137E+02 0.12950544E+03 0.14647044E+03 0.75000000E+00 0.0000E+00 0.9000E+01
#aMCatNLO 1  0  0  2  5 0.81161993D+01 0.00000000D+00  -5  6  0 0.00000000D+00 0.00000000D+00 0.00000000D+00 0.00000000D+00 0.00000000D+00
  <mgrwgt>
 0.1166702061D+00    3    2    0
 0.178840770648393D+03 0.000000000000000D+00 0.000000000000000D+00 0.178840770648393D+03
 0.178840770648393D+03 0.000000000000000D+00 0.000000000000000D+00 -.178840770648393D+03
 0.145229702910796D+03 0.441863249009360D+02 0.359434418584327D+02 -.471413224960500D+02
 0.143563276709410D+03 -.263986694264233D+02 -.102014740603399D+03 0.551298595799751D+02
 0.688885616765789D+02 -.177876554745127D+02 0.660712987449665D+02 -.798853708392505D+01
 0.000000000000000D+00 0.000000000000000D+00 -.000000000000000D+00 0.000000000000000D+00
 0.374272187524295D+03 0.000000000000000D+00 0.000000000000000D+00 0.374272187524295D+03
 0.285270567661533D+03 0.000000000000000D+00 0.000000000000000D+00 -.285270567661533D+03
 0.168956693257167D+03 -.158705003108686D+02 0.102211482376505D+03 -.471413224960500D+02
 0.133033056175067D+03 -.792701426056399D+02 -.436751777887834D+02 0.551298595799751D+02
 0.118764961464397D+03 -.536576835123660D+02 0.105651087770005D+03 -.798853708392505D+01
 0.238788044289197D+03 0.148798326428875D+03 -.164187392357726D+03 0.890016198627615D+02
0.146316166383D-03 0.000000000000D+00 0.000000000000D+00 0.390983353094D-05 0.000000000000D+00  6 2 -1 25 24 21 21 2 0.12468049D+00 0.60716656D-02 0.28619450D+05 0.28619450D+05 0.28619450D+05 0.12170516D+01  1  2  2  2  6  2       -1 0.110751249550D+00 0.100000000000D+01
-.247543922360D-05 0.772131623122D-05 -.561892604843D-06 0.390983353094D-05 0.000000000000D+00  6 2 -1 25 24 21 21 4 0.12468049D+00 0.60716656D-02 0.28619450D+05 0.28619450D+05 0.28619450D+05 0.12170516D+01  1  2  3  2  6  2       -1 -.277540644833D-02 0.100000000000D+01
0.775467220793D-05 0.000000000000D+00 0.000000000000D+00 0.390983353094D-05 0.000000000000D+00  6 2 -1 25 24 21 21 4 0.12468049D+00 0.60716656D-02 0.28619450D+05 0.28619450D+05 0.28619450D+05 0.12170516D+01  1  2 15  2  6  2       -1 0.869436302270D-02 0.100000000000D+01
  </mgrwgt>
  </event>
  <event>
  6     66 0.46179844E-03 0.18514089E+03 0.75467711E-02 0.11202090E+00
        2 -1    0    0  502    0 0.00000000E+00 0.00000000E+00 0.25387213E+04 0.25387213E+04 0.32000000E+00 0.0000E+00 0.9000E+01
       -1 -1    0    0    0  501 0.00000000E+00 0.00000000E+00 -.22806993E+02 0.22809237E+02 0.32000000E+00 0.0000E+00 0.9000E+01
       25  1    1    2    0    0 0.61112476E+02 0.42903531E+01 0.84516129E+03 0.85654874E+03 0.12500000E+03 0.0000E+00 0.9000E+01
       24  1    1    2    0    0 0.12609515E+03 -.22835256E+02 0.73916056E+03 0.75448458E+03 0.80419002E+02 0.0000E+00 0.9000E+01
        1  1    1    2  502    0 -.15795691E+03 0.13059445E+02 0.76133966E+03 0.77766259E+03 0.32000000E+00 0.0000E+00 0.9000E+01
       -1  1    1    2    0  501 -.29250717E+02 0.54854572E+01 0.17025282E+03 0.17283466E+03 0.32000000E+00 0.0000E+00 0.9000E+01
#aMCatNLO 2  0  0  5  1 0.50156010D+01 0.00000000D+00  -5  6  0 0.00000000D+00 0.00000000D+00 0.00000000D+00 0.00000000D+00 0.00000000D+00
  <mgrwgt>
 0.2019417070D-04    3    2    0
 0.240631460082572D+03 0.000000000000000D+00 0.000000000000000D+00 0.240631460082572D+03
 0.240631460082572D+03 -.000000000000000D+00 -.000000000000000D+00 -.240631460082572D+03
 0.140782444064323D+03 0.612587739664103D+02 0.427586076929174D+01 0.205858248204489D+02
 0.151756235133278D+03 0.126252813844445D+03 -.228508742910447D+02 -.100400940210320D+02
 0.188724240967542D+03 -.187511587810855D+03 0.185750135217530D+02 -.105457307994169D+02
 0.000000000000000D+00 0.000000000000000D+00 0.000000000000000D+00 0.000000000000000D+00
 0.240631460082572D+03 0.000000000000000D+00 0.000000000000000D+00 0.240631460082572D+03
 0.240631460082572D+03 -.000000000000000D+00 -.000000000000000D+00 -.240631460082572D+03
 0.140718141517551D+03 0.611126053768405D+02 0.429034031991265D+01 0.205776042373109D+02
 0.151623440607489D+03 0.126095284583127D+03 -.228352693452747D+02 -.100489535331415D+02
 0.159018985527424D+03 -.157933779783742D+03 0.130521862057212D+02 -.131757123770518D+02
 0.299023525126793D+02 -.292741101762254D+02 0.549274281964077D+01 0.264706167288239D+01
-.992345699804D-06 0.000000000000D+00 0.000000000000D+00 0.102240603688D-05 0.000000000000D+00  6 2 -1 25 24 1 -1 4 0.39057269D+00 0.35089423D-02 0.57301033D+05 0.57301033D+05 0.57301033D+05 0.11864637D+01  1  2 13  6  6  5       21 -.256501732441D-03 0.100000000000D+01
-.991892865929D-06 0.000000000000D+00 0.000000000000D+00 0.102240603688D-05 0.000000000000D+00  6 2 -1 25 24 1 -1 4 0.39057269D+00 0.35089423D-02 0.57301033D+05 0.57301033D+05 0.57301033D+05 0.11864637D+01  1  2 13  6  6  5       21 -.256384683843D-03 0.100000000000D+01
0.206236512756D-05 0.000000000000D+00 0.000000000000D+00 0.102229333414D-05 0.513905043592D-08  6 2 -1 25 24 1 -1 4 0.39057269D+00 0.35089423D-02 0.57301033D+05 0.57301033D+05 0.57301033D+05 0.11864637D+01  1  2  1  6  6  5       21 0.533080586986D-03 0.100000000000D+01
  </mgrwgt>
  </event>
  <event>
  6     66 0.46179844E-03 0.15986497E+02 0.75467711E-02 0.12010348E+00
        4 -1    0    0  502    0 0.00000000E+00 0.00000000E+00 0.11595139E+03 0.11596175E+03 0.15500000E+01 0.0000E+00 0.9000E+01
       21 -1    0    0  503  501 0.00000000E+00 0.00000000E+00 -.94277092E+03 0.94277122E+03 0.75000000E+00 0.0000E+00 0.9000E+01
       25  1    1    2    0    0 0.38797475E+02 0.63101311E+02 0.18094135E+02 0.14642205E+03 0.12500000E+03 0.0000E+00 0.9000E+01
       24  1    1    2    0    0 -.46183903E+02 -.76101793E+02 -.78515246E+02 0.14337467E+03 0.80419002E+02 0.0000E+00 0.9000E+01
        3  1    1    2  503    0 -.46237666E+00 0.21926999E+02 -.73542158E+03 0.73574871E+03 0.50000000E+00 0.0000E+00 0.9000E+01
       21  1    1    2  502  501 0.78488047E+01 -.89265170E+01 -.30976829E+02 0.33187541E+02 0.75000000E+00 0.0000E+00 0.9000E+01
#aMCatNLO 2  0  0  2  1 0.73401280D+02 0.00000000D+00  -5  6  0 0.00000000D+00 0.00000000D+00 0.00000000D+00 0.00000000D+00 0.00000000D+00
  <mgrwgt>
 0.2412396924D+00    1    2    0
 0.154502623435882D+03 0.000000000000000D+00 0.000000000000000D+00 0.154502623435882D+03
 0.154502623435882D+03 0.000000000000000D+00 0.000000000000000D+00 -.154502623435882D+03
 0.162819915488438D+03 0.385558791017385D+02 0.744713371501286D+02 0.620708386396237D+02
 0.121304870438416D+03 -.463703305871988D+02 -.673257895585144D+02 -.395561138038966D+02
 0.000000000000000D+00 -.000000000000000D+00 0.000000000000000D+00 -.000000000000000D+00
 0.248804609449091D+02 0.781445148546025D+01 -.714554759161419D+01 -.225147248357272D+02
 0.155109969205773D+03 0.000000000000000D+00 0.000000000000000D+00 0.155109969205773D+03
 0.704797282428849D+03 0.000000000000000D+00 0.000000000000000D+00 -.704797282428849D+03
 0.158002717245114D+03 0.387956073089223D+02 0.631028565196951D+02 0.620708386396237D+02
 0.126318075887450D+03 -.461852993614574D+02 -.761004094940552D+02 -.395561138038966D+02
 0.550124667130928D+03 -.462376660208950D+00 0.219269987762437D+02 -.549687313223077D+03
 0.254617913711298D+02 0.785206871274402D+01 -.892944580188355D+01 -.225147248357272D+02
0.276030545074D-02 0.000000000000D+00 0.000000000000D+00 0.161037702468D-03 0.124963379638D-05  6 4 21 25 24 3 21 4 0.17839483D-01 0.14504239D+00 0.22363322D+05 0.22363322D+05 0.22363322D+05 0.12285214D+01  1  2  1  5  5  2       -3 0.241239692373D+00 0.100000000000D+01
  </mgrwgt>
  </event>
  <event>
  5     66 0.46179844E-03 0.29180941E+02 0.75467711E-02 0.11683450E+00
        2 -1    0    0  502    0 0.00000000E+00 0.00000000E+00 0.19046279E+04 0.19046280E+04 0.32000000E+00 0.0000E+00 0.9000E+01
       -1 -1    0    0    0  501 0.00000000E+00 0.00000000E+00 -.16943684E+02 0.16946706E+02 0.32000000E+00 0.0000E+00 0.9000E+01
       25  1    1    2    0    0 0.33314128E+02 -.92232843E+02 0.99044320E+03 0.10031049E+04 0.12500000E+03 0.0000E+00 0.9000E+01
       24  1    1    2    0    0 -.23262013E+02 0.64838931E+02 0.87598291E+03 0.88235961E+03 0.80419002E+02 0.0000E+00 0.9000E+01
       21  1    1    2  502  501 -.10052115E+02 0.27393912E+02 0.21258133E+02 0.36110139E+02 0.75000000E+00 0.0000E+00 0.9000E+01
#aMCatNLO 1  0  0  2  1 0.73401280D+02 0.00000000D+00  -5  6  0 0.00000000D+00 0.00000000D+00 0.00000000D+00 0.00000000D+00 0.00000000D+00
  <mgrwgt>
 0.1519160522D+00    7    4    0
 0.179650615123180D+03 0.000000000000000D+00 0.000000000000000D+00 0.179650615123180D+03
 0.179650615123180D+03 0.000000000000000D+00 0.000000000000000D+00 -.179650615123180D+03
 0.161138226546729D+03 0.333143193704913D+02 -.922333641519742D+02 0.269015002688515D+02
 0.116728813356611D+03 -.232618747942078D+02 0.648385533813417D+02 0.491248113456490D+02
 0.814341903430196D+02 -.100524445762835D+02 0.273948107706325D+02 -.760263116145005D+02
 0.000000000000000D+00 0.000000000000000D+00 0.000000000000000D+00 -.000000000000000D+00
 0.198824394087821D+03 0.000000000000000D+00 0.000000000000000D+00 0.198824394087821D+03
 0.229050274402068D+03 0.000000000000000D+00 0.000000000000000D+00 -.229050274402068D+03
 0.159016319355466D+03 0.833661409284236D+01 -.941700587772543D+02 0.269015002688515D+02
 0.121029917067485D+03 -.418112521862606D+02 0.634002915755373D+02 0.491248113456490D+02
 0.836823564026649D+02 -.229344495137888D+02 0.263959796351069D+02 -.760263116145005D+02
 0.641460756642727D+02 0.564090876072070D+02 0.437378756661016D+01 -.302258803142475D+02
 0.179650615123180D+03 0.000000000000000D+00 0.000000000000000D+00 0.179650615123180D+03
 0.179650615123180D+03 0.000000000000000D+00 0.000000000000000D+00 -.179650615123180D+03
 0.161138226546729D+03 0.333143193704913D+02 -.922333641519742D+02 0.269015002688515D+02
 0.116728813356611D+03 -.232618747942078D+02 0.648385533813417D+02 0.491248113456490D+02
 0.000000000000000D+00 0.000000000000000D+00 0.000000000000000D+00 -.000000000000000D+00
 0.814341903430196D+02 -.100524445762835D+02 0.273948107706325D+02 -.760263116145005D+02
 0.198824394087821D+03 0.000000000000000D+00 0.000000000000000D+00 0.198824394087821D+03
 0.229050274402068D+03 0.000000000000000D+00 0.000000000000000D+00 -.229050274402068D+03
 0.159016319355466D+03 0.833661409284236D+01 -.941700587772543D+02 0.269015002688515D+02
 0.121029917067485D+03 -.418112521862606D+02 0.634002915755373D+02 0.491248113456490D+02
 0.641460756642727D+02 0.564090876072070D+02 0.437378756661016D+01 -.302258803142475D+02
 0.836823564026649D+02 -.229344495137888D+02 0.263959796351069D+02 -.760263116145005D+02
0.215699790253D-03 0.000000000000D+00 0.000000000000D+00 0.284519494831D-04 0.000000000000D+00  6 2 -1 25 24 21 21 2 0.29301992D+00 0.26069552D-02 0.21601094D+05 0.21601094D+05 0.21601094D+05 0.12301609D+01  1  2  2  2  6  2       -1 0.143183833319D+00 0.100000000000D+01
0.238253284331D-04 0.113827906562D-04 -.828343989631D-06 0.284519494831D-04 0.000000000000D+00  6 2 -1 25 24 21 21 4 0.29301992D+00 0.26069552D-02 0.21601094D+05 0.21601094D+05 0.21601094D+05 0.12301609D+01  1  2  3  2  6  2       -1 0.239335418228D-01 0.100000000000D+01
0.835925541847D-05 0.000000000000D+00 0.000000000000D+00 0.284519494831D-04 0.000000000000D+00  6 2 -1 25 24 21 21 4 0.29301992D+00 0.26069552D-02 0.21601094D+05 0.21601094D+05 0.21601094D+05 0.12301609D+01  1  2 15  2  6  2       -1 0.839722271727D-02 0.100000000000D+01
-.825265814403D-04 0.000000000000D+00 0.000000000000D+00 0.284519494831D-04 0.000000000000D+00  6 2 -1 25 24 21 21 4 0.29301992D+00 0.26069552D-02 0.21601094D+05 0.21601094D+05 0.21601094D+05 0.12301609D+01  1  2  4  2  6  2       -1 -.829014128361D-01 0.100000000000D+01
-.413114878157D-03 0.000000000000D+00 -.159763174407D-03 0.284519494831D-04 0.000000000000D+00  6 2 -1 25 24 21 21 4 0.29301992D+00 0.37354211D-02 0.21601094D+05 0.21601094D+05 0.21601094D+05 0.12301609D+01  1  2  5  2  6  2       -1 -.245387212817D+00 0.100000000000D+01
0.450901161480D-03 0.000000000000D+00 0.149958251942D-03 0.284519494831D-04 0.000000000000D+00  6 2 -1 25 24 21 21 4 0.29301992D+00 0.26069552D-02 0.21601094D+05 0.21601094D+05 0.21601094D+05 0.12301609D+01  1  2  6  2  6  2       -1 0.452949130859D+00 0.100000000000D+01
-.135008785724D-04 0.000000000000D+00 -.703885686264D-05 0.284519494831D-04 0.000000000000D+00  6 2 21 25 24 1 21 4 0.29301992D+00 0.37354211D-02 0.21601094D+05 0.21601094D+05 0.21601094D+05 0.12301609D+01  3  4  5  5  5  2       -1 -.148259050883D+00 0.100000000000D+01
  </mgrwgt>
  </event>
  <event>
  5     66 0.46179844E-03 0.30451787E+02 0.75467711E-02 0.12093819E+00
        2 -1    0    0  502    0 0.00000000E+00 0.00000000E+00 0.85034722E+03 0.85034728E+03 0.32000000E+00 0.0000E+00 0.9000E+01
       -1 -1    0    0    0  501 0.00000000E+00 0.00000000E+00 -.33061680E+02 0.33063228E+02 0.32000000E+00 0.0000E+00 0.9000E+01
       25  1    1    2    0    0 -.66059246E+02 0.63197728E+02 0.20626225E+03 0.25792808E+03 0.12500000E+03 0.0000E+00 0.9000E+01
       24  1    1    2    0    0 0.54216392E+02 -.35150032E+02 0.48146610E+03 0.49239391E+03 0.80419002E+02 0.0000E+00 0.9000E+01
       21  1    1    2  502  501 0.11842853E+02 -.28047697E+02 0.12955719E+03 0.13308852E+03 0.75000000E+00 0.0000E+00 0.9000E+01
#aMCatNLO 1  0  0  5  2 0.20499470D+01 0.00000000D+00  -5  6  0 0.00000000D+00 0.00000000D+00 0.00000000D+00 0.00000000D+00 0.00000000D+00
  <mgrwgt>
 0.1949710166D+00   19    2    0
 0.167674142397305D+03 0.000000000000000D+00 0.000000000000000D+00 0.167674142397305D+03
 0.167674142397305D+03 -.000000000000000D+00 -.000000000000000D+00 -.167674142397305D+03
 0.176777839052913D+03 -.660606918149511D+02 0.632011536496928D+02 -.852467216642125D+02
 0.123722201931489D+03 0.542153799440898D+02 -.351476345293508D+02 0.683030281972535D+02
 0.348482438102071D+02 0.118453118708613D+02 -.280535191203421D+02 0.169436934669590D+02
 0.000000000000000D+00 0.000000000000000D+00 0.000000000000000D+00 -.000000000000000D+00
 0.167674142397305D+03 0.000000000000000D+00 0.000000000000000D+00 0.167674142397305D+03
 0.167674142397305D+03 -.000000000000000D+00 -.000000000000000D+00 -.167674142397305D+03
 0.175763807608724D+03 -.655277206318562D+02 0.619389059825526D+02 -.844843525133169D+02
 0.124438132549336D+03 0.545905478379200D+02 -.360361531093295D+02 0.688396734000986D+02
 0.329703077550389D+02 0.106379011492440D+02 -.256435476134948D+02 0.177843953620954D+02
 0.217603688151103D+01 0.299271644692284D+00 -.259205259728334D+00 -.213971624887708D+01
0.700876984841D-04 0.000000000000D+00 0.000000000000D+00 0.163544456232D-04 0.000000000000D+00  6 2 -1 25 24 21 21 2 0.13082277D+00 0.50865360D-02 0.20804748D+05 0.20804748D+05 0.20804748D+05 0.12319444D+01  1  2  2  3  6  5       21 0.661463189998D-01 0.100000000000D+01
0.815579190471D-05 0.369862946311D-05 -.269155216694D-06 0.163544456232D-04 0.000000000000D+00  6 2 -1 25 24 21 21 4 0.13082277D+00 0.50865360D-02 0.20804748D+05 0.20804748D+05 0.20804748D+05 0.12319444D+01  1  2  3  3  6  5       21 0.116818655584D-01 0.100000000000D+01
0.276006128326D-05 0.000000000000D+00 0.000000000000D+00 0.163544456232D-04 0.000000000000D+00  6 2 -1 25 24 21 21 4 0.13082277D+00 0.50865360D-02 0.20804748D+05 0.20804748D+05 0.20804748D+05 0.12319444D+01  1  2 15  3  6  5       21 0.395334569846D-02 0.100000000000D+01
0.697721698301D-08 0.000000000000D+00 0.000000000000D+00 0.163767215005D-04 0.000000000000D+00  6 2 -1 25 24 21 21 4 0.13082277D+00 0.50865360D-02 0.20441659D+05 0.20441659D+05 0.20441659D+05 0.12327831D+01  1  2 12  3  6  5       21 0.100170799561D-04 0.100000000000D+01
0.100523453271D-07 0.000000000000D+00 0.000000000000D+00 0.163767215005D-04 0.000000000000D+00  6 2 -1 25 24 21 21 4 0.13082277D+00 0.50865360D-02 0.20441659D+05 0.20441659D+05 0.20441659D+05 0.12327831D+01  1  2 12  3  6  5       21 0.144319930329D-04 0.100000000000D+01
-.107686823044D-03 0.000000000000D+00 0.000000000000D+00 0.163544456232D-04 0.000000000000D+00  6 2 -1 25 24 21 21 4 0.13082277D+00 0.50865360D-02 0.20804748D+05 0.20804748D+05 0.20804748D+05 0.12319444D+01  1  2  4  3  6  5       21 -.154244125392D+00 0.100000000000D+01
0.183103968819D-03 0.000000000000D+00 0.000000000000D+00 0.163544456232D-04 0.557721998763D-03  6 2 -1 25 24 21 21 4 0.13082277D+00 0.50865360D-02 0.20441659D+05 0.20441659D+05 0.20441659D+05 0.12327831D+01  1  2 11  3  6  5       21 0.262879469049D+00 0.100000000000D+01
0.970907162944D-09 0.000000000000D+00 0.000000000000D+00 0.163767215005D-04 0.000000000000D+00  6 2 -1 25 24 1 -1 4 0.13082277D+00 0.50865360D-02 0.20441659D+05 0.20441659D+05 0.20441659D+05 0.12327831D+01  1  2 12  6  6  5       21 0.139391604200D-05 0.100000000000D+01
0.101468399631D-08 0.000000000000D+00 0.000000000000D+00 0.163767215005D-04 0.000000000000D+00  6 2 -1 25 24 1 -1 4 0.13082277D+00 0.50865360D-02 0.20441659D+05 0.20441659D+05 0.20441659D+05 0.12327831D+01  1  2 12  6  6  5       21 0.145676574857D-05 0.100000000000D+01
0.205892707534D-07 0.000000000000D+00 0.000000000000D+00 0.163767215005D-04 0.124923994085D-06  6 2 -1 25 24 1 -1 4 0.13082277D+00 0.50865360D-02 0.20441659D+05 0.20441659D+05 0.20441659D+05 0.12327831D+01  1  2 11  6  6  5       21 0.295596900420D-04 0.100000000000D+01
0.970907162944D-09 0.000000000000D+00 0.000000000000D+00 0.163767215005D-04 0.000000000000D+00  6 2 -1 25 24 2 -2 4 0.13082277D+00 0.50865360D-02 0.20441659D+05 0.20441659D+05 0.20441659D+05 0.12327831D+01  1  2 12  7  6  5       21 0.139391604200D-05 0.100000000000D+01
0.101468399631D-08 0.000000000000D+00 0.000000000000D+00 0.163767215005D-04 0.000000000000D+00  6 2 -1 25 24 2 -2 4 0.13082277D+00 0.50865360D-02 0.20441659D+05 0.20441659D+05 0.20441659D+05 0.12327831D+01  1  2 12  7  6  5       21 0.145676574857D-05 0.100000000000D+01
0.104859481097D-05 0.000000000000D+00 0.000000000000D+00 0.163767215005D-04 0.949809960906D-07  6 2 -1 25 24 2 -2 4 0.13082277D+00 0.50865360D-02 0.20441659D+05 0.20441659D+05 0.20441659D+05 0.12327831D+01  1  2 11  7  6  5       21 0.150545096828D-02 0.100000000000D+01
0.970907162944D-09 0.000000000000D+00 0.000000000000D+00 0.163767215005D-04 0.000000000000D+00  6 2 -1 25 24 3 -3 4 0.13082277D+00 0.50865360D-02 0.20441659D+05 0.20441659D+05 0.20441659D+05 0.12327831D+01  1  2 12  8  6  5       21 0.139391604200D-05 0.100000000000D+01
0.970907162944D-09 0.000000000000D+00 0.000000000000D+00 0.163767215005D-04 0.000000000000D+00  6 2 -1 25 24 4 -4 4 0.13082277D+00 0.50865360D-02 0.20441659D+05 0.20441659D+05 0.20441659D+05 0.12327831D+01  1  2 12  8  6  5       21 0.139391604200D-05 0.100000000000D+01
0.101468399631D-08 0.000000000000D+00 0.000000000000D+00 0.163767215005D-04 0.000000000000D+00  6 2 -1 25 24 3 -3 4 0.13082277D+00 0.50865360D-02 0.20441659D+05 0.20441659D+05 0.20441659D+05 0.12327831D+01  1  2 12  8  6  5       21 0.145676574857D-05 0.100000000000D+01
0.101468399631D-08 0.000000000000D+00 0.000000000000D+00 0.163767215005D-04 0.000000000000D+00  6 2 -1 25 24 4 -4 4 0.13082277D+00 0.50865360D-02 0.20441659D+05 0.20441659D+05 0.20441659D+05 0.12327831D+01  1  2 12  8  6  5       21 0.145676574857D-05 0.100000000000D+01
0.103897511470D-05 0.000000000000D+00 0.000000000000D+00 0.163767215005D-04 0.933832148081D-07  6 2 -1 25 24 3 -3 4 0.13082277D+00 0.50865360D-02 0.20441659D+05 0.20441659D+05 0.20441659D+05 0.12327831D+01  1  2 11  8  6  5       21 0.149164012265D-02 0.100000000000D+01
0.103897511470D-05 0.000000000000D+00 0.000000000000D+00 0.163767215005D-04 0.933832148081D-07  6 2 -1 25 24 4 -4 4 0.13082277D+00 0.50865360D-02 0.20441659D+05 0.20441659D+05 0.20441659D+05 0.12327831D+01  1  2 11  8  6  5       21 0.149164012265D-02 0.100000000000D+01
  </mgrwgt>
  </event>
  <event>
  6     66 -.46179844E-03 0.14410772E+02 0.75467711E-02 0.11735205E+00
        2 -1    0    0  502    0 0.00000000E+00 0.00000000E+00 0.71106356E+02 0.71107076E+02 0.32000000E+00 0.0000E+00 0.9000E+01
       -1 -1    0    0    0  501 -.00000000E+00 -.00000000E+00 -.77701867E+03 0.77701873E+03 0.32000000E+00 0.0000E+00 0.9000E+01
       25  1    1    2    0    0 0.95750193E+02 -.75000062E+02 -.86603880E+02 0.19472632E+03 0.12500000E+03 0.0000E+00 0.9000E+01
       24  1    1    2    0    0 -.10103387E+03 0.65751894E+02 -.57583181E+03 0.59378501E+03 0.80419002E+02 0.0000E+00 0.9000E+01
       21  1    1    2  502  503 0.39636475E+01 0.19715963E+02 -.64898405E+01 0.21144982E+02 0.75000000E+00 0.0000E+00 0.9000E+01
       21  1    1    2  503  501 0.13200322E+01 -.10467796E+02 -.36986783E+02 0.38469493E+02 0.75000000E+00 0.0000E+00 0.9000E+01
#aMCatNLO 2  0  0  5  2 0.68282781D+01 0.00000000D+00  -5  6  0 0.00000000D+00 0.00000000D+00 0.00000000D+00 0.00000000D+00 0.00000000D+00
  <mgrwgt>
 -.1131750041D+01    4    2    0
 0.235055949843555D+03 0.000000000000000D+00 0.000000000000000D+00 0.235055949843555D+03
 0.235055949843555D+03 -.000000000000000D+00 -.000000000000000D+00 -.235055949843555D+03
 0.216579099823552D+03 0.913174408532150D+02 -.827588278396401D+02 0.126860584465816D+03
 0.212915281261217D+03 -.105280934600925D+03 0.583181458149555D+02 -.156142946425492D+03
 0.406175186023408D+02 0.139634937477097D+02 0.244406820246845D+02 0.292823619596752D+02
 0.000000000000000D+00 0.000000000000000D+00 0.000000000000000D+00 -.000000000000000D+00
 0.235055949843555D+03 0.000000000000000D+00 0.000000000000000D+00 0.235055949843555D+03
 0.235055949843555D+03 -.000000000000000D+00 -.000000000000000D+00 -.235055949843555D+03
 0.221426866619315D+03 0.958962200012800D+02 -.747444664454893D+02 0.136462584564756D+03
 0.206390027038682D+03 -.100897646359652D+03 0.659903341700417D+02 -.146950903576215D+03
 0.279780665017706D+02 0.334952484281624D+01 0.196246172597674D+02 0.196577538369086D+02
 0.143169395273424D+02 0.165190151555533D+01 -.108704849843199D+02 -.916943482544932D+01
-.114016291187D-01 0.000000000000D+00 0.000000000000D+00 0.124090860329D-04 0.000000000000D+00  6 2 -1 25 24 21 21 4 0.10939500D-01 0.11954139D+00 0.30660657D+05 0.30660657D+05 0.30660657D+05 0.12139068D+01  1  2 13  3  6  5       21 -.108051455208D+01 0.100000000000D+01
-.731586101182D-03 0.000000000000D+00 0.000000000000D+00 0.124185149434D-04 0.000000000000D+00  6 2 -1 25 24 21 21 4 0.10939500D-01 0.11954139D+00 0.30351459D+05 0.30351459D+05 0.30351459D+05 0.12143679D+01  1  2  8  3  6  5       21 -.694370401692D-01 0.100000000000D+01
-.359937665458D-03 0.000000000000D+00 0.000000000000D+00 0.124185149434D-04 0.000000000000D+00  6 2 -1 25 24 21 21 4 0.10939500D-01 0.11954139D+00 0.30351459D+05 0.30351459D+05 0.30351459D+05 0.12143679D+01  1  2  9  3  6  5       21 -.341627678470D-01 0.100000000000D+01
0.551708541544D-03 0.000000000000D+00 0.000000000000D+00 0.124185149434D-04 0.000000000000D+00  6 2 -1 25 24 21 21 4 0.10939500D-01 0.11954139D+00 0.30351459D+05 0.30351459D+05 0.30351459D+05 0.12143679D+01  1  2 10  3  6  5       21 0.523643192496D-01 0.100000000000D+01
  </mgrwgt>
  </event>
  <event>
  5     66 0.46179844E-03 0.51527290E+02 0.75467711E-02 0.11852008E+00
        2 -1    0    0  502    0 0.00000000E+00 0.00000000E+00 0.22586345E+04 0.22586345E+04 0.32000000E+00 0.0000E+00 0.9000E+01
       -1 -1    0    0    0  501 0.00000000E+00 0.00000000E+00 -.13081959E+02 0.13085872E+02 0.32000000E+00 0.0000E+00 0.9000E+01
       25  1    1    2    0    0 0.58456922E+02 0.74881504E+01 0.66910700E+03 0.68322943E+03 0.12500000E+03 0.0000E+00 0.9000E+01
       24  1    1    2    0    0 -.10993718E+03 -.95842402E+01 0.13108774E+04 0.13179700E+04 0.80419002E+02 0.0000E+00 0.9000E+01
       21  1    1    2  502  501 0.51480260E+02 0.20960898E+01 0.26556812E+03 0.27052098E+03 0.75000000E+00 0.0000E+00 0.9000E+01
#aMCatNLO 1  0  0  1  5 0.98035680D+01 0.00000000D+00  -5  6  0 0.00000000D+00 0.00000000D+00 0.00000000D+00 0.00000000D+00 0.00000000D+00
  <mgrwgt>
 0.5603333916D-02    1    2    0
 0.171906468839340D+03 0.000000000000000D+00 0.000000000000000D+00 0.171906468839340D+03
 0.171906468839340D+03 0.000000000000000D+00 0.000000000000000D+00 -.171906468839340D+03
 0.144238216223545D+03 0.584547540346169D+02 0.748806215596480D+01 -.413114230601066D+02
 0.146637286519996D+03 -.109939385270146D+03 -.958432997375390D+01 0.534485736849320D+02
 0.529374349351381D+02 0.514846312355287D+02 0.209626781778910D+01 -.121371506248254D+02
 0.000000000000000D+00 -.000000000000000D+00 -.000000000000000D+00 0.000000000000000D+00
 0.331049106116015D+03 0.000000000000000D+00 0.000000000000000D+00 0.331049106116015D+03
 0.238367826031770D+03 0.000000000000000D+00 0.000000000000000D+00 -.238367826031770D+03
 0.170276088858397D+03 0.763031758816943D+02 0.764207963320783D+02 -.413114230601066D+02
 0.144901473042618D+03 -.933948062752682D+02 0.543128075816512D+02 0.534485736849320D+02
 0.657850812516330D+02 0.582220340099300D+02 0.281169209861396D+02 -.121371506248254D+02
 0.188454288995137D+03 -.411304036163560D+02 -.158850524899869D+03 0.926812800842448D+02
0.602786961459D-05 0.000000000000D+00 0.000000000000D+00 0.680305538538D-05 0.000000000000D+00  6 2 -1 25 24 21 21 4 0.34748253D+00 0.20129118D-02 0.26613408D+05 0.26613408D+05 0.26613408D+05 0.12203964D+01  1  2 14  1  6  1        2 0.560333391559D-02 0.100000000000D+01
  </mgrwgt>
  </event>
  <event>
  6     66 -.46179844E-03 0.13312549E+02 0.75467711E-02 0.12209454E+00
        2 -1    0    0  502    0 0.00000000E+00 0.00000000E+00 0.21045432E+04 0.21045433E+04 0.32000000E+00 0.0000E+00 0.9000E+01
       -1 -1    0    0    0  501 0.00000000E+00 0.00000000E+00 -.17736324E+02 0.17739210E+02 0.32000000E+00 0.0000E+00 0.9000E+01
       25  1    1    2    0    0 0.61164846E+02 -.16468363E+02 0.10044295E+04 0.10141578E+04 0.12500000E+03 0.0000E+00 0.9000E+01
       24  1    1    2    0    0 -.33552843E+02 0.19117013E+01 0.10146533E+04 0.10183899E+04 0.80419002E+02 0.0000E+00 0.9000E+01
       21  1    1    2  503  501 -.53013800E+01 0.18192276E+02 0.67726554E+00 0.18975898E+02 0.75000000E+00 0.0000E+00 0.9000E+01
       21  1    1    2  502  503 -.22310623E+02 -.36356136E+01 0.67046823E+02 0.70758890E+02 0.75000000E+00 0.0000E+00 0.9000E+01
#aMCatNLO 2  0  0  5  1 0.19431884D+02 0.00000000D+00  -5  6  0 0.00000000D+00 0.00000000D+00 0.00000000D+00 0.00000000D+00 0.00000000D+00
  <mgrwgt>
 -.1702838106D+00    2    2    0
 0.193209600029508D+03 0.000000000000000D+00 0.000000000000000D+00 0.193209600029508D+03
 0.193209600029508D+03 -.000000000000000D+00 -.000000000000000D+00 -.193209600029508D+03
 0.147160078235452D+03 0.620909072082264D+02 -.169565699632713D+02 0.434543738121304D+02
 0.115378781501284D+03 -.328284070491121D+02 0.152978883429464D+01 0.759276148913609D+02
 0.123880340322281D+03 -.292625001591142D+02 0.154267811289767D+02 -.119381988703491D+03
 0.000000000000000D+00 -.000000000000000D+00 0.000000000000000D+00 0.000000000000000D+00
 0.193209600029508D+03 0.000000000000000D+00 0.000000000000000D+00 0.193209600029508D+03
 0.193209600029508D+03 -.000000000000000D+00 -.000000000000000D+00 -.193209600029508D+03
 0.145633986577449D+03 0.611598854002376D+02 -.164657482774943D+02 0.396560915614799D+02
 0.113664241457791D+03 -.335567143304733D+02 0.191374225464857D+01 0.729563454795417D+02
 0.100371187743609D+03 -.512871114222028D+01 0.182051077847473D+02 -.985730475415473D+02
 0.267497842801683D+02 -.224744599275440D+02 -.365310176190160D+01 -.140393894994743D+02
-.315631796824D-03 0.000000000000D+00 0.000000000000D+00 0.323083159298D-04 0.000000000000D+00  6 2 -1 25 24 21 21 4 0.32377611D+00 0.27288891D-02 0.18086804D+05 0.18086804D+05 0.18086804D+05 0.12386627D+01  1  2 13  3  6  5       21 -.240724205783D+00 0.100000000000D+01
0.923597542976D-04 0.000000000000D+00 0.000000000000D+00 0.324697502476D-04 0.674729698783D-06  6 2 -1 25 24 21 21 4 0.32377611D+00 0.27288891D-02 0.18086804D+05 0.18086804D+05 0.18086804D+05 0.12386627D+01  1  2  1  3  6  5       21 0.704403951799D-01 0.100000000000D+01
  </mgrwgt>
  </event>
  <event>
  6     66 -.46179844E-03 0.15727601E+02 0.75467711E-02 0.12522369E+00
        2 -1    0    0  502    0 0.00000000E+00 0.00000000E+00 0.25028440E+04 0.25028440E+04 0.32000000E+00 0.0000E+00 0.9000E+01
       21 -1    0    0  503  501 0.00000000E+00 0.00000000E+00 -.78153343E+01 0.78512388E+01 0.75000000E+00 0.0000E+00 0.9000E+01
       25  1    1    2    0    0 -.20881692E+02 0.78117298E+01 0.11335175E+04 0.11406068E+04 0.12500000E+03 0.0000E+00 0.9000E+01
       24  1    1    2    0    0 0.10590323E+02 0.15109611E+02 0.12948487E+04 0.12974748E+04 0.80419002E+02 0.0000E+00 0.9000E+01
        1  1    1    2  503    0 0.67677217E+01 -.36684390E+01 0.97615658E+01 0.12435838E+02 0.32000000E+00 0.0000E+00 0.9000E+01
       21  1    1    2  502  501 0.35236469E+01 -.19252902E+02 0.56900894E+02 0.60177774E+02 0.75000000E+00 0.0000E+00 0.9000E+01
#aMCatNLO 2  0  0  2  5 0.76980194D+01 0.00000000D+00  -5  6  0 0.00000000D+00 0.00000000D+00 0.00000000D+00 0.00000000D+00 0.00000000D+00
  <mgrwgt>
 -.9935493144D+00    1    2    0
 0.127169491118693D+03 0.000000000000000D+00 0.000000000000000D+00 0.127169491118693D+03
 0.127169491118693D+03 0.000000000000000D+00 0.000000000000000D+00 -.127169491118693D+03
 0.126870271220897D+03 -.174989471678907D+02 0.598005053538783D+01 -.113618468249425D+02
 0.920043627222537D+02 0.130361094403543D+02 0.137852772160751D+02 0.404674287333968D+02
 0.000000000000000D+00 0.000000000000000D+00 -.000000000000000D+00 -.000000000000000D+00
 0.354643482942351D+02 0.446283772753636D+01 -.197653277514629D+02 -.291055819084543D+02
 0.127793465615079D+03 0.000000000000000D+00 0.000000000000000D+00 0.127793465615079D+03
 0.153414480342582D+03 0.000000000000000D+00 0.000000000000000D+00 -.153414480342582D+03
 0.127480252782103D+03 -.208821869399743D+02 0.781393337054869D+01 -.113618468249425D+02
 0.918984468869771D+02 0.105899289101325D+02 0.151112277215918D+02 0.404674287333968D+02
 0.267524932992292D+02 0.676772172851522D+01 -.366843899550921D+01 -.256210147275027D+02
 0.350767529893518D+02 0.352453630132662D+01 -.192567220966313D+02 -.291055819084543D+02
-.307000861156D-04 0.000000000000D+00 0.000000000000D+00 0.614580494565D-04 0.000000000000D+00  6 2 21 25 24 1 21 4 0.38317273D+00 0.13036327D-02 0.14013400D+05 0.14013400D+05 0.14013400D+05 0.12512051D+01  1  2 13  5  5  2       -1 -.993549314414D+00 0.100000000000D+01
  </mgrwgt>
  </event>
  <event>
  5     66 0.46179844E-03 0.44848387E+02 0.75467711E-02 0.11862592E+00
        2 -1    0    0  502    0 0.00000000E+00 0.00000000E+00 0.95042366E+03 0.95042372E+03 0.32000000E+00 0.0000E+00 0.9000E+01
       -1 -1    0    0    0  501 0.00000000E+00 0.00000000E+00 -.22143382E+02 0.22145694E+02 0.32000000E+00 0.0000E+00 0.9000E+01
       25  1    1    2    0    0 -.21692197E+02 0.64327959E+02 0.34403563E+03 0.37228236E+03 0.12500000E+03 0.0000E+00 0.9000E+01
       24  1    1    2    0    0 0.84140301E+01 -.21495480E+02 0.47298493E+03 0.48032782E+03 0.80419002E+02 0.0000E+00 0.9000E+01
       21  1    1    2  502  501 0.13278166E+02 -.42832479E+02 0.11125972E+03 0.11995924E+03 0.75000000E+00 0.0000E+00 0.9000E+01
#aMCatNLO 1  0  0  1  2 0.13964600D+01 0.00000000D+00  -5  6  0 0.00000000D+00 0.00000000D+00 0.00000000D+00 0.00000000D+00 0.00000000D+00
  <mgrwgt>
 0.1362245056D+00    7    4    0
 0.145074963179056D+03 0.000000000000000D+00 0.000000000000000D+00 0.145074963179056D+03
 0.145074963179056D+03 0.000000000000000D+00 0.000000000000000D+00 -.145074963179056D+03
 0.147197308417320D+03 -.216930864786005D+02 0.643308301829634D+02 -.378550114556340D+02
 0.968102663055582D+02 0.841344474230436D+01 -.214935921244863D+02 0.487057609830396D+02
 0.461423516352332D+02 0.132796417362961D+02 -.428372380584771D+02 -.108507495274056D+02
 0.000000000000000D+00 -.000000000000000D+00 0.000000000000000D+00 0.000000000000000D+00
 0.232246779427439D+03 0.000000000000000D+00 0.000000000000000D+00 0.232246779427439D+03
 0.154137573042034D+03 0.000000000000000D+00 0.000000000000000D+00 -.154137573042034D+03
 0.138102505132726D+03 -.937280875012840D+01 0.438913486664727D+02 -.378550114556340D+02
 0.102007818028363D+03 0.169991286442920D+02 -.357373398133520D+02 0.487057609830396D+02
 0.541288172485600D+02 0.176097134367817D+02 -.500208764826842D+02 -.108507495274056D+02
 0.921452120598239D+02 -.252360333309453D+02 0.418668676295635D+02 0.781092063854059D+02
 0.145074963179056D+03 0.000000000000000D+00 0.000000000000000D+00 0.145074963179056D+03
 0.145074963179056D+03 0.000000000000000D+00 0.000000000000000D+00 -.145074963179056D+03
 0.147197308417320D+03 -.216930864786005D+02 0.643308301829634D+02 -.378550114556340D+02
 0.968102663055582D+02 0.841344474230436D+01 -.214935921244863D+02 0.487057609830396D+02
 0.000000000000000D+00 -.000000000000000D+00 0.000000000000000D+00 0.000000000000000D+00
 0.461423516352332D+02 0.132796417362961D+02 -.428372380584771D+02 -.108507495274056D+02
 0.232246779427439D+03 0.000000000000000D+00 0.000000000000000D+00 0.232246779427439D+03
 0.154137573042034D+03 0.000000000000000D+00 0.000000000000000D+00 -.154137573042034D+03
 0.138102505132726D+03 -.937280875012840D+01 0.438913486664727D+02 -.378550114556340D+02
 0.102007818028363D+03 0.169991286442920D+02 -.357373398133520D+02 0.487057609830396D+02
 0.921452120598239D+02 -.252360333309453D+02 0.418668676295635D+02 0.781092063854059D+02
 0.541288172485600D+02 0.176097134367817D+02 -.500208764826842D+02 -.108507495274056D+02
0.581451227201D-04 0.000000000000D+00 0.000000000000D+00 0.104183404900D-04 0.000000000000D+00  6 2 -1 25 24 21 21 2 0.14621921D+00 0.34068562D-02 0.18327836D+05 0.18327836D+05 0.18327836D+05 0.12380225D+01  1  2  2  1  6  1        2 0.861426746693D-01 0.100000000000D+01
0.126053221659D-05 0.306840242554D-05 -.223292581208D-06 0.104183404900D-04 0.000000000000D+00  6 2 -1 25 24 21 21 4 0.14621921D+00 0.34068562D-02 0.18327836D+05 0.18327836D+05 0.18327836D+05 0.12380225D+01  1  2  3  1  6  1        2 0.286230636782D-02 0.100000000000D+01
0.224040604441D-05 0.000000000000D+00 0.000000000000D+00 0.104183404900D-04 0.000000000000D+00  6 2 -1 25 24 21 21 4 0.14621921D+00 0.34068562D-02 0.18327836D+05 0.18327836D+05 0.18327836D+05 0.12380225D+01  1  2 15  1  6  1        2 0.508731820022D-02 0.100000000000D+01
-.983703838733D-04 0.000000000000D+00 0.000000000000D+00 0.104183404900D-04 0.000000000000D+00  6 2 -1 25 24 21 21 4 0.14621921D+00 0.34068562D-02 0.18327836D+05 0.18327836D+05 0.18327836D+05 0.12380225D+01  1  2  4  1  6  1        2 -.223370868638D+00 0.100000000000D+01
-.222979003573D-03 0.000000000000D+00 -.448392554319D-04 0.104183404900D-04 0.000000000000D+00  6 2 -1 25 24 21 21 4 0.23964598D+00 0.34068562D-02 0.18327836D+05 0.18327836D+05 0.18327836D+05 0.12380225D+01  1  2  5  1  6  1        2 -.234137330995D+00 0.100000000000D+01
0.222398818328D-03 0.000000000000D+00 0.398731225031D-04 0.104183404900D-04 0.000000000000D+00  6 2 -1 25 24 21 21 4 0.14621921D+00 0.34068562D-02 0.18327836D+05 0.18327836D+05 0.18327836D+05 0.12380225D+01  1  2  6  1  6  1        2 0.505003795633D+00 0.100000000000D+01
-.104586932476D-04 0.000000000000D+00 -.250437267568D-05 0.104183404900D-04 0.000000000000D+00  6 21 -1 25 24 -2 21 4 0.23964598D+00 0.34068562D-02 0.18327836D+05 0.18327836D+05 0.18327836D+05 0.12380225D+01  3  4  5  4  5  1        2 -.536338962265D-02 0.100000000000D+01
  </mgrwgt>
  </event>
  <event>
  5     66 0.46179844E-03 0.10655995E+03 0.75467711E-02 0.11205545E+00
        2 -1    0    0  502    0 0.00000000E+00 0.00000000E+00 0.56502490E+03 0.56502499E+03 0.32000000E+00 0.0000E+00 0.9000E+01
       -1 -1    0    0    0  501 0.00000000E+00 0.00000000E+00 -.14999693E+03 0.14999727E+03 0.32000000E+00 0.0000E+00 0.9000E+01
       25  1    1    2    0    0 -.10014114E+03 -.32483302E+02 0.16632499E+03 0.23317893E+03 0.12500000E+03 0.0000E+00 0.9000E+01
       24  1    1    2    0    0 0.91429661E+02 0.13876383E+03 -.26682472E+02 0.18653138E+03 0.80419002E+02 0.0000E+00 0.9000E+01
       21  1    1    2  502  501 0.87114782E+01 -.10628053E+03 0.27538546E+03 0.29531196E+03 0.75000000E+00 0.0000E+00 0.9000E+01
#aMCatNLO 1  0  0  5  2 0.45533204D+02 0.00000000D+00  -5  6  0 0.00000000D+00 0.00000000D+00 0.00000000D+00 0.00000000D+00 0.00000000D+00
  <mgrwgt>
 0.1539703151D+00   15    2    0
 0.291122237033650D+03 0.000000000000000D+00 0.000000000000000D+00 0.291122237033650D+03
 0.291122237033650D+03 -.000000000000000D+00 -.000000000000000D+00 -.291122237033650D+03
 0.167796406882944D+03 -.100141164464186D+03 -.324829905399536D+02 0.380425639010387D+02
 0.248088945931286D+03 0.914296229881997D+02 0.138764294821588D+03 -.165728705002571D+03
 0.166359121253070D+03 0.871154147598653D+01 -.106281304281634D+03 0.127686141101532D+03
 0.000000000000000D+00 0.000000000000000D+00 0.000000000000000D+00 0.000000000000000D+00
 0.291122237033650D+03 0.000000000000000D+00 0.000000000000000D+00 0.291122237033650D+03
 0.291122237033650D+03 -.000000000000000D+00 -.000000000000000D+00 -.291122237033650D+03
 0.171270243462894D+03 -.995308879549598D+02 -.399283988585415D+02 0.469874621929015D+02
 0.234149489974807D+03 0.922975903597458D+02 0.128175043243540D+03 -.153006799863250D+03
 0.493726955266684D+02 0.464088472028931D+02 -.885251817670943D+01 0.143357904141578D+02
 0.127452045102931D+03 -.391755496076791D+02 -.793941262082892D+02 0.916835472561908D+02
0.911943217820D-03 0.000000000000D+00 0.000000000000D+00 0.136621320387D-05 0.000000000000D+00  6 2 -1 25 24 21 21 2 0.86926941D-01 0.23076484D-01 0.51683069D+05 0.51683069D+05 0.51683069D+05 0.11908604D+01  1  2  2  3  6  5       21 0.127166864276D+00 0.100000000000D+01
-.433356362748D-04 0.481245657522D-04 -.350210207659D-05 0.136621320387D-05 0.000000000000D+00  6 2 -1 25 24 21 21 4 0.86926941D-01 0.23076484D-01 0.51683069D+05 0.51683069D+05 0.51683069D+05 0.11908604D+01  1  2  3  3  6  5       21 -.856984679847D-02 0.100000000000D+01
0.108175959985D-04 0.000000000000D+00 0.000000000000D+00 0.136621320387D-05 0.000000000000D+00  6 2 -1 25 24 21 21 4 0.86926941D-01 0.23076484D-01 0.51683069D+05 0.51683069D+05 0.51683069D+05 0.11908604D+01  1  2 15  3  6  5       21 0.213923570539D-02 0.100000000000D+01
0.996397156359D-04 0.000000000000D+00 0.000000000000D+00 0.135656189593D-05 0.000000000000D+00  6 2 -1 25 24 21 21 4 0.86926941D-01 0.23076484D-01 0.57054144D+05 0.57054144D+05 0.57054144D+05 0.11866467D+01  1  2 12  3  6  5       21 0.194266697095D-01 0.100000000000D+01
-.192011545954D-03 0.000000000000D+00 0.000000000000D+00 0.136621320387D-05 0.000000000000D+00  6 2 -1 25 24 21 21 4 0.86926941D-01 0.23076484D-01 0.51683069D+05 0.51683069D+05 0.51683069D+05 0.11908604D+01  1  2  4  3  6  5       21 -.379712789246D-01 0.100000000000D+01
-.899230877906D-04 0.000000000000D+00 0.000000000000D+00 0.136621320387D-05 0.000000000000D+00  6 2 -1 25 24 21 21 4 0.86926941D-01 0.23076484D-01 0.51683069D+05 0.51683069D+05 0.51683069D+05 0.11908604D+01  1  2  5  3  6  5       21 -.177827569238D-01 0.100000000000D+01
0.403060470689D-03 0.000000000000D+00 -.000000000000D+00 0.136621320387D-05 0.000000000000D+00  6 2 -1 25 24 21 21 4 0.86926941D-01 0.23076484D-01 0.51683069D+05 0.51683069D+05 0.51683069D+05 0.11908604D+01  1  2  6  3  6  5       21 0.797072982251D-01 0.100000000000D+01
0.114208802558D-04 0.000000000000D+00 0.000000000000D+00 0.135656189593D-05 0.000000000000D+00  6 2 -1 25 24 1 -1 4 0.86926941D-01 0.23076484D-01 0.57054144D+05 0.57054144D+05 0.57054144D+05 0.11866467D+01  1  2 12  6  6  5       21 0.222671920634D-02 0.100000000000D+01
-.240862799176D-04 0.000000000000D+00 0.000000000000D+00 0.136621320387D-05 0.000000000000D+00  6 2 -1 25 24 1 -1 4 0.86926941D-01 0.23076484D-01 0.51683069D+05 0.51683069D+05 0.51683069D+05 0.11908604D+01  1  2  5  6  6  5       21 -.476318675767D-02 0.100000000000D+01
0.114208802558D-04 0.000000000000D+00 0.000000000000D+00 0.135656189593D-05 0.000000000000D+00  6 2 -1 25 24 2 -2 4 0.86926941D-01 0.23076484D-01 0.57054144D+05 0.57054144D+05 0.57054144D+05 0.11866467D+01  1  2 12  7  6  5       21 0.222671920634D-02 0.100000000000D+01
-.240862799176D-04 0.000000000000D+00 0.000000000000D+00 0.136621320387D-05 0.000000000000D+00  6 2 -1 25 24 2 -2 4 0.86926941D-01 0.23076484D-01 0.51683069D+05 0.51683069D+05 0.51683069D+05 0.11908604D+01  1  2  5  7  6  5       21 -.476318675767D-02 0.100000000000D+01
0.114208802558D-04 0.000000000000D+00 0.000000000000D+00 0.135656189593D-05 0.000000000000D+00  6 2 -1 25 24 3 -3 4 0.86926941D-01 0.23076484D-01 0.57054144D+05 0.57054144D+05 0.57054144D+05 0.11866467D+01  1  2 12  8  6  5       21 0.222671920634D-02 0.100000000000D+01
0.114208802558D-04 0.000000000000D+00 0.000000000000D+00 0.135656189593D-05 0.000000000000D+00  6 2 -1 25 24 4 -4 4 0.86926941D-01 0.23076484D-01 0.57054144D+05 0.57054144D+05 0.57054144D+05 0.11866467D+01  1  2 12  8  6  5       21 0.222671920634D-02 0.100000000000D+01
-.240862799176D-04 0.000000000000D+00 0.000000000000D+00 0.136621320387D-05 0.000000000000D+00  6 2 -1 25 24 3 -3 4 0.86926941D-01 0.23076484D-01 0.51683069D+05 0.51683069D+05 0.51683069D+05 0.11908604D+01  1  2  5  8  6  5       21 -.476318675767D-02 0.100000000000D+01
-.240862799176D-04 0.000000000000D+00 0.000000000000D+00 0.136621320387D-05 0.000000000000D+00  6 2 -1 25 24 4 -4 4 0.86926941D-01 0.23076484D-01 0.51683069D+05 0.51683069D+05 0.51683069D+05 0.11908604D+01  1  2  5  8  6  5       21 -.476318675767D-02 0.100000000000D+01
  </mgrwgt>
  </event>
  <event>
  5     66 0.46179844E-03 0.54707631E+02 0.75467711E-02 0.11596880E+00
        2 -1    0    0  502    0 0.00000000E+00 0.00000000E+00 0.35374666E+03 0.35374680E+03 0.32000000E+00 0.0000E+00 0.9000E+01
       -1 -1    0    0    0  501 0.00000000E+00 0.00000000E+00 -.15229594E+03 0.15229628E+03 0.32000000E+00 0.0000E+00 0.9000E+01
       25  1    1    2    0    0 0.48243974E+01 -.66989768E+02 0.12860163E+03 0.19150531E+03 0.12500000E+03 0.0000E+00 0.9000E+01
       24  1    1    2    0    0 0.29996603E+02 0.43879608E+00 0.17076897E+03 0.19112626E+03 0.80419002E+02 0.0000E+00 0.9000E+01
       21  1    1    2  502  501 -.34821001E+02 0.66550972E+02 -.97919892E+02 0.12341151E+03 0.75000000E+00 0.0000E+00 0.9000E+01
#aMCatNLO 1  0  0  1  5 0.62974137D+02 0.00000000D+00  -5  6  0 0.00000000D+00 0.00000000D+00 0.00000000D+00 0.00000000D+00 0.00000000D+00
  <mgrwgt>
 0.1798621848D-01    9    4    0
 0.232108386072075D+03 0.000000000000000D+00 0.000000000000000D+00 0.232108386072075D+03
 0.232108386072075D+03 0.000000000000000D+00 0.000000000000000D+00 -.232108386072075D+03
 0.152952616641051D+03 0.482450040813993D+01 -.669899646695266D+02 0.570839011169681D+02
 0.134240621502506D+03 0.299966934892313D+02 0.438623352299427D+00 0.103214991625618D+03
 0.177023534000594D+03 -.348211938973712D+02 0.665513413172272D+02 -.160298892742586D+03
 0.000000000000000D+00 -.000000000000000D+00 -.000000000000000D+00 0.000000000000000D+00
 0.368965871267972D+03 0.000000000000000D+00 0.000000000000000D+00 0.368965871267972D+03
 0.241592967948989D+03 0.000000000000000D+00 0.000000000000000D+00 -.241592967948989D+03
 0.148673232289956D+03 0.197944141435611D+02 -.531821342325083D+02 0.570839011169681D+02
 0.138501683731944D+03 0.435330956107005D+02 0.129242227033689D+02 0.103214991625618D+03
 0.181293816590053D+03 -.170376390486832D+02 0.829543957541464D+02 -.160298892742586D+03
 0.142090106605007D+03 -.462898707055783D+02 -.426964842250071D+02 0.127372903318983D+03
 0.232108386072075D+03 0.000000000000000D+00 0.000000000000000D+00 0.232108386072075D+03
 0.232108386072075D+03 0.000000000000000D+00 0.000000000000000D+00 -.232108386072075D+03
 0.152952616641051D+03 0.482450040813993D+01 -.669899646695266D+02 0.570839011169681D+02
 0.134240621502506D+03 0.299966934892313D+02 0.438623352299427D+00 0.103214991625618D+03
 0.000000000000000D+00 -.000000000000000D+00 -.000000000000000D+00 0.000000000000000D+00
 0.177023534000594D+03 -.348211938973712D+02 0.665513413172272D+02 -.160298892742586D+03
 0.368965871267972D+03 0.000000000000000D+00 0.000000000000000D+00 0.368965871267972D+03
 0.241592967948989D+03 0.000000000000000D+00 0.000000000000000D+00 -.241592967948989D+03
 0.148673232289956D+03 0.197944141435611D+02 -.531821342325083D+02 0.570839011169681D+02
 0.138501683731944D+03 0.435330956107005D+02 0.129242227033689D+02 0.103214991625618D+03
 0.142090106605007D+03 -.462898707055783D+02 -.426964842250071D+02 0.127372903318983D+03
 0.181293816590053D+03 -.170376390486832D+02 0.829543957541464D+02 -.160298892742586D+03
0.205503800900D-03 0.000000000000D+00 0.000000000000D+00 0.837101999434D-05 0.000000000000D+00  6 2 -1 25 24 21 21 2 0.54422599D-01 0.23430182D-01 0.22928644D+05 0.22928644D+05 0.22928644D+05 0.12273453D+01  1  2  2  1  6  1        2 0.493989732622D-01 0.100000000000D+01
-.509485828090D-05 0.108447335157D-04 -.789188705849D-06 0.837101999434D-05 0.000000000000D+00  6 2 -1 25 24 21 21 4 0.54422599D-01 0.23430182D-01 0.22928644D+05 0.22928644D+05 0.22928644D+05 0.12273453D+01  1  2  3  1  6  1        2 -.184486128048D-02 0.100000000000D+01
0.112230403658D-04 0.000000000000D+00 0.000000000000D+00 0.837101999434D-05 0.000000000000D+00  6 2 -1 25 24 21 21 4 0.54422599D-01 0.23430182D-01 0.22928644D+05 0.22928644D+05 0.22928644D+05 0.12273453D+01  1  2 15  1  6  1        2 0.406389176667D-02 0.100000000000D+01
0.888697778005D-03 0.000000000000D+00 0.000000000000D+00 0.809833755659D-05 0.000000000000D+00  6 2 -1 25 24 21 21 4 0.87573872D-01 0.23430182D-01 0.35587393D+05 0.35587393D+05 0.35587393D+05 0.12071897D+01  1  2 12  1  6  1        2 0.179447266320D+00 0.100000000000D+01
-.101167553601D-02 0.000000000000D+00 0.000000000000D+00 0.837101999434D-05 0.000000000000D+00  6 2 -1 25 24 21 21 4 0.54422599D-01 0.23430182D-01 0.22928644D+05 0.22928644D+05 0.22928644D+05 0.12273453D+01  1  2  4  1  6  1        2 -.366330312227D+00 0.100000000000D+01
-.111091301688D-02 0.000000000000D+00 -.177277391778D-03 0.837101999434D-05 0.000000000000D+00  6 2 -1 25 24 21 21 4 0.88410397D-01 0.23430182D-01 0.22928644D+05 0.22928644D+05 0.22928644D+05 0.12273453D+01  1  2  5  1  6  1        2 -.236986804202D+00 0.100000000000D+01
0.108561079170D-02 0.000000000000D+00 0.158277442190D-03 0.837101999434D-05 0.000000000000D+00  6 2 -1 25 24 21 21 4 0.54422599D-01 0.23430182D-01 0.22928644D+05 0.22928644D+05 0.22928644D+05 0.12273453D+01  1  2  6  1  6  1        2 0.393102458375D+00 0.100000000000D+01
0.481893649322D-04 0.000000000000D+00 0.000000000000D+00 0.809833755659D-05 0.000000000000D+00  6 21 -1 25 24 -2 21 4 0.87573872D-01 0.23430182D-01 0.35587393D+05 0.35587393D+05 0.35587393D+05 0.12071897D+01  3  4 12  4  5  1        2 0.161865720865D-01 0.100000000000D+01
-.534480046731D-04 0.000000000000D+00 -.976196251858D-05 0.837101999434D-05 0.000000000000D+00  6 21 -1 25 24 -2 21 4 0.88410397D-01 0.23430182D-01 0.22928644D+05 0.22928644D+05 0.22928644D+05 0.12273453D+01  3  4  5  4  5  1        2 -.190509656187D-01 0.100000000000D+01
  </mgrwgt>
  </event>
  <event>
  5     66 -.46179844E-03 0.22391049E+02 0.75467711E-02 0.98995400E-01
        2 -1    0    0  502    0 0.00000000E+00 0.00000000E+00 0.25774739E+04 0.25774739E+04 0.32000000E+00 0.0000E+00 0.9000E+01
       -1 -1    0    0    0  501 0.00000000E+00 0.00000000E+00 -.22196002E+03 0.22196025E+03 0.32000000E+00 0.0000E+00 0.9000E+01
       25  1    1    2    0    0 0.40552366E+03 -.42580702E+03 0.19777331E+04 0.20670787E+04 0.12500000E+03 0.0000E+00 0.9000E+01
       24  1    1    2    0    0 -.41117712E+03 0.40415009E+03 0.30700490E+03 0.65812093E+03 0.80419002E+02 0.0000E+00 0.9000E+01
       21  1    1    2  502  501 0.56534647E+01 0.21656922E+02 0.70775890E+02 0.74234581E+02 0.75000000E+00 0.0000E+00 0.9000E+01
#aMCatNLO 1  0  0  5  1 0.22868238D+02 0.00000000D+00  -5  6  0 0.00000000D+00 0.00000000D+00 0.00000000D+00 0.00000000D+00 0.00000000D+00
  <mgrwgt>
 -.3859782617D+01    1    2    0
 0.756370620185377D+03 0.000000000000000D+00 0.000000000000000D+00 0.756370620185377D+03
 0.756370620185377D+03 -.000000000000000D+00 -.000000000000000D+00 -.756370620185377D+03
 0.745714435517914D+03 0.405522597868955D+03 -.425811086003545D+03 0.441249771664413D+03
 0.739856956079761D+03 -.411178179027348D+03 0.404146056819813D+03 -.456639430353961D+03
 0.271698487730781D+02 0.565558115839274D+01 0.216650291837321D+02 0.153896586895487D+02
 0.000000000000000D+00 0.000000000000000D+00 0.000000000000000D+00 -.000000000000000D+00
 0.756370620185377D+03 0.000000000000000D+00 0.000000000000000D+00 0.756370620185377D+03
 0.756370620185377D+03 -.000000000000000D+00 -.000000000000000D+00 -.756370620185377D+03
 0.745696422187012D+03 0.406541048526290D+03 -.421909672055906D+03 0.444021123992241D+03
 0.739728677621984D+03 -.410167803547350D+03 0.408016536907998D+03 -.453890051757851D+03
 0.204130351894758D+02 0.772644718509629D+01 0.115894000580788D+02 0.149224604484816D+02
 0.690310537228175D+01 -.409969216403624D+01 0.230373508982929D+01 -.505353268287187D+01
-.801246979691D+00 0.000000000000D+00 0.000000000000D+00 0.161183444511D-04 0.000000000000D+00  6 2 -1 25 24 21 21 4 0.39653447D+00 0.34147715D-01 0.36341094D+06 0.36341094D+06 0.36341094D+06 0.11153533D+01  1  2 14  3  6  5       21 -.385978261680D+01 0.100000000000D+01
  </mgrwgt>
  </event>
  <event>
  5     66 0.46179844E-03 0.44207229E+02 0.75467711E-02 0.11650062E+00
        2 -1    0    0  502    0 0.00000000E+00 0.00000000E+00 0.10545085E+03 0.10545134E+03 0.32000000E+00 0.0000E+00 0.9000E+01
       -1 -1    0    0    0  501 0.00000000E+00 0.00000000E+00 -.20132041E+03 0.20132066E+03 0.32000000E+00 0.0000E+00 0.9000E+01
       25  1    1    2    0    0 0.21888406E+02 0.56904518E+01 -.20857871E+02 0.12873047E+03 0.12500000E+03 0.0000E+00 0.9000E+01
       24  1    1    2    0    0 -.42763930E+02 0.33274571E+02 -.73918159E+01 0.97251250E+02 0.80419002E+02 0.0000E+00 0.9000E+01
       21  1    1    2  502  501 0.20875524E+02 -.38965022E+02 -.67619868E+02 0.80790281E+02 0.75000000E+00 0.0000E+00 0.9000E+01
#aMCatNLO 1  0  0  2  2 0.19799242D+03 0.00000000D+00  -5  6  0 0.00000000D+00 0.00000000D+00 0.00000000D+00 0.00000000D+00 0.00000000D+00
  <mgrwgt>
 0.1275443296D+00    7    4    0
 0.145703543466756D+03 0.000000000000000D+00 0.000000000000000D+00 0.145703543466756D+03
 0.145703543466756D+03 0.000000000000000D+00 0.000000000000000D+00 -.145703543466756D+03
 0.128656163998532D+03 0.218877489709092D+02 0.569167864185692D+01 0.203946015906526D+02
 0.999479600338551D+02 -.427644408503829D+02 0.332755235602842D+02 0.242140639113231D+02
 0.628029629011258D+02 0.208766918794736D+02 -.389672022021411D+02 -.446086655019757D+02
 0.000000000000000D+00 -.000000000000000D+00 0.000000000000000D+00 -.000000000000000D+00
 0.182405847400670D+03 0.000000000000000D+00 0.000000000000000D+00 0.182405847400670D+03
 0.205650697492752D+03 0.000000000000000D+00 0.000000000000000D+00 -.205650697492752D+03
 0.133508488515811D+03 0.301521141925279D+02 -.295707074899409D+02 0.203946015906526D+02
 0.919630244818560D+02 -.367147219013668D+02 0.746258816253349D+01 0.242140639113231D+02
 0.772751516133184D+02 0.252924538321257D+02 -.578083713500387D+02 -.446086655019757D+02
 0.853098802824366D+02 -.187298461232869D+02 0.799164906774461D+02 -.232448500920815D+02
 0.145703543466756D+03 0.000000000000000D+00 0.000000000000000D+00 0.145703543466756D+03
 0.145703543466756D+03 0.000000000000000D+00 0.000000000000000D+00 -.145703543466756D+03
 0.128656163998532D+03 0.218877489709092D+02 0.569167864185692D+01 0.203946015906526D+02
 0.999479600338551D+02 -.427644408503829D+02 0.332755235602842D+02 0.242140639113231D+02
 0.000000000000000D+00 -.000000000000000D+00 0.000000000000000D+00 -.000000000000000D+00
 0.628029629011258D+02 0.208766918794736D+02 -.389672022021411D+02 -.446086655019757D+02
 0.182405847400670D+03 0.000000000000000D+00 0.000000000000000D+00 0.182405847400670D+03
 0.205650697492752D+03 0.000000000000000D+00 0.000000000000000D+00 -.205650697492752D+03
 0.133508488515811D+03 0.301521141925279D+02 -.295707074899409D+02 0.203946015906526D+02
 0.919630244818560D+02 -.367147219013668D+02 0.746258816253349D+01 0.242140639113231D+02
 0.853098802824366D+02 -.187298461232869D+02 0.799164906774461D+02 -.232448500920815D+02
 0.772751516133184D+02 0.252924538321257D+02 -.578083713500387D+02 -.446086655019757D+02
0.125875703767D-03 0.000000000000D+00 0.000000000000D+00 0.140977644458D-04 0.000000000000D+00  6 2 -1 25 24 21 21 2 0.16223265D-01 0.30972428D-01 0.17983763D+05 0.17983763D+05 0.17983763D+05 0.12389393D+01  1  2  2  2  6  2       -1 0.726603228853D-01 0.100000000000D+01
0.143349844357D-05 0.664264338411D-05 -.483395846299D-06 0.140977644458D-04 0.000000000000D+00  6 2 -1 25 24 21 21 4 0.16223265D-01 0.30972428D-01 0.17983763D+05 0.17983763D+05 0.17983763D+05 0.12389393D+01  1  2  3  2  6  2       -1 0.127014317729D-02 0.100000000000D+01
0.238250710575D-05 0.000000000000D+00 0.000000000000D+00 0.140977644458D-04 0.000000000000D+00  6 2 -1 25 24 21 21 4 0.16223265D-01 0.30972428D-01 0.17983763D+05 0.17983763D+05 0.17983763D+05 0.12389393D+01  1  2 15  2  6  2       -1 0.211100692769D-02 0.100000000000D+01
-.227796658705D-04 0.000000000000D+00 0.000000000000D+00 0.140977644458D-04 0.000000000000D+00  6 2 -1 25 24 21 21 4 0.16223265D-01 0.30972428D-01 0.17983763D+05 0.17983763D+05 0.17983763D+05 0.12389393D+01  1  2  4  2  6  2       -1 -.201837939316D-01 0.100000000000D+01
-.103086251280D-03 0.000000000000D+00 -.703220851462D-04 0.140977644458D-04 0.000000000000D+00  6 2 -1 25 24 21 21 4 0.16223265D-01 0.53515244D-01 0.17983763D+05 0.17983763D+05 0.17983763D+05 0.12389393D+01  1  2  5  2  6  2       -1 -.348676650010D-01 0.100000000000D+01
0.130834027467D-03 0.000000000000D+00 0.609748282716D-04 0.140977644458D-04 0.000000000000D+00  6 2 -1 25 24 21 21 4 0.16223265D-01 0.30972428D-01 0.17983763D+05 0.17983763D+05 0.17983763D+05 0.12389393D+01  1  2  6  2  6  2       -1 0.115924749057D+00 0.100000000000D+01
-.275979529840D-05 0.000000000000D+00 -.426382084577D-05 0.140977644458D-04 0.000000000000D+00  6 2 21 25 24 1 21 4 0.16223265D-01 0.53515244D-01 0.17983763D+05 0.17983763D+05 0.17983763D+05 0.12389393D+01  3  4  5  5  5  2       -1 -.937043349391D-02 0.100000000000D+01
  </mgrwgt>
  </event>
  <event>
  6     66 0.46179844E-03 0.87061480E+02 0.75467711E-02 0.11737280E+00
        2 -1    0    0  502    0 0.00000000E+00 0.00000000E+00 0.63884749E+03 0.63884757E+03 0.32000000E+00 0.0000E+00 0.9000E+01
       21 -1    0    0  503  501 0.00000000E+00 0.00000000E+00 -.52485182E+02 0.52490540E+02 0.75000000E+00 0.0000E+00 0.9000E+01
       25  1    1    2    0    0 0.69821120E+02 0.94232018E+01 0.26538721E+03 0.30169381E+03 0.12500000E+03 0.0000E+00 0.9000E+01
       24  1    1    2    0    0 0.52709695E+01 -.68538952E+02 0.23734457E+03 0.25985579E+03 0.80419002E+02 0.0000E+00 0.9000E+01
        1  1    1    2  503    0 -.27045087E+02 0.71744691E+01 0.17957816E+02 0.33248990E+02 0.32000000E+00 0.0000E+00 0.9000E+01
       21  1    1    2  502  501 -.48047002E+02 0.51941281E+02 0.65672719E+02 0.96539524E+02 0.75000000E+00 0.0000E+00 0.9000E+01
#aMCatNLO 2  0  0  2  1 0.27980524D+02 0.00000000D+00  -5  6  0 0.00000000D+00 0.00000000D+00 0.00000000D+00 0.00000000D+00 0.00000000D+00
  <mgrwgt>
 0.5424454467D-02    1    2    0
 0.165238248635445D+03 0.000000000000000D+00 0.000000000000000D+00 0.165238248635445D+03
 0.165238248635445D+03 0.000000000000000D+00 0.000000000000000D+00 -.165238248635445D+03
 0.138810279261890D+03 0.582785590547309D+02 0.124845394220594D+02 0.954145998718660D+01
 0.107319078649619D+03 -.355772341271060D+01 -.661973967229624D+02 0.256010929269447D+02
 0.000000000000000D+00 -.000000000000000D+00 0.000000000000000D+00 -.000000000000000D+00
 0.843471393593801D+02 -.547208356420203D+02 0.537128573009031D+02 -.351425529141313D+02
 0.172752212953636D+03 0.000000000000000D+00 0.000000000000000D+00 0.172752212953636D+03
 0.194102469096850D+03 0.000000000000000D+00 0.000000000000000D+00 -.194102469096850D+03
 0.143805213016721D+03 0.698220600256638D+02 0.942230151660987D+01 0.954145998718660D+01
 0.108849010296508D+03 0.527171663148330D+01 -.685396537258688D+02 0.256010929269447D+02
 0.351957835006642D+02 -.270450870294485D+02 0.717446906846536D+01 -.213502561432134D+02
 0.790046752365932D+02 -.480486896276986D+02 0.519428831407936D+02 -.351425529141313D+02
0.358154434183D-06 0.000000000000D+00 0.000000000000D+00 0.446540721093D-05 0.359776009084D-08  6 2 21 25 24 1 21 4 0.98284244D-01 0.80750285D-02 0.30279947D+05 0.30279947D+05 0.30279947D+05 0.12144753D+01  1  2  1  5  5  2       -1 0.542445446706D-02 0.100000000000D+01
  </mgrwgt>
  </event>
  <event>
  5     66 0.46179844E-03 0.13278971E+03 0.75467711E-02 0.11441850E+00
        2 -1    0    0  502    0 0.00000000E+00 0.00000000E+00 0.11011986E+04 0.11011986E+04 0.32000000E+00 0.0000E+00 0.9000E+01
       -1 -1    0    0    0  501 0.00000000E+00 0.00000000E+00 -.43710870E+02 0.43712042E+02 0.32000000E+00 0.0000E+00 0.9000E+01
       25  1    1    2    0    0 -.58029568E+02 0.29446986E+02 0.29097855E+03 0.32330802E+03 0.12500000E+03 0.0000E+00 0.9000E+01
       24  1    1    2    0    0 -.85676935E+02 -.48539385E+02 0.20121481E+03 0.23801518E+03 0.80419002E+02 0.0000E+00 0.9000E+01
       21  1    1    2  502  501 0.14370650E+03 0.19092399E+02 0.56529434E+03 0.58358747E+03 0.75000000E+00 0.0000E+00 0.9000E+01
#aMCatNLO 1  0  0  1  2 0.41245935D+00 0.00000000D+00  -5  6  0 0.00000000D+00 0.00000000D+00 0.00000000D+00 0.00000000D+00 0.00000000D+00
  <mgrwgt>
 0.5347468944D-01    9    4    0
 0.219397004151276D+03 0.000000000000000D+00 0.000000000000000D+00 0.219397004151276D+03
 0.219397004151276D+03 0.000000000000000D+00 0.000000000000000D+00 -.219397004151276D+03
 0.142327956298260D+03 -.580300777851611D+02 0.294469179723418D+02 -.199408183938791D+02
 0.136109671420749D+03 -.856774227191987D+02 -.485394496130833D+02 -.485996683872273D+02
 0.160356380583544D+03 0.143707500504360D+03 0.190925316407415D+02 0.685404867811064D+02
 0.000000000000000D+00 -.000000000000000D+00 -.000000000000000D+00 0.000000000000000D+00
 0.220347725799451D+03 0.000000000000000D+00 0.000000000000000D+00 0.220347725799451D+03
 0.219441840793307D+03 0.000000000000000D+00 0.000000000000000D+00 -.219441840793307D+03
 0.142277058071037D+03 -.578972220211679D+02 0.294624625135626D+02 -.199408183938791D+02
 0.136024439550778D+03 -.855503884668267D+02 -.485245862069870D+02 -.485996683872273D+02
 0.160492704533296D+03 0.143857275273523D+03 0.191100557586503D+02 0.685404867811064D+02
 0.995364437647888D+00 -.409664785527936D+00 -.479320652259113D-01 0.905885006143509D+00
 0.219397004151276D+03 0.000000000000000D+00 0.000000000000000D+00 0.219397004151276D+03
 0.219397004151276D+03 0.000000000000000D+00 0.000000000000000D+00 -.219397004151276D+03
 0.142327956298260D+03 -.580300777851611D+02 0.294469179723418D+02 -.199408183938791D+02
 0.136109671420749D+03 -.856774227191987D+02 -.485394496130833D+02 -.485996683872273D+02
 0.000000000000000D+00 -.000000000000000D+00 -.000000000000000D+00 0.000000000000000D+00
 0.160356380583544D+03 0.143707500504360D+03 0.190925316407415D+02 0.685404867811064D+02
 0.220347725799451D+03 0.000000000000000D+00 0.000000000000000D+00 0.220347725799451D+03
 0.219441840793307D+03 0.000000000000000D+00 0.000000000000000D+00 -.219441840793307D+03
 0.142277058071037D+03 -.578972220211679D+02 0.294624625135626D+02 -.199408183938791D+02
 0.136024439550778D+03 -.855503884668267D+02 -.485245862069870D+02 -.485996683872273D+02
 0.995364437647888D+00 -.409664785527936D+00 -.479320652259113D-01 0.905885006143509D+00
 0.160492704533296D+03 0.143857275273523D+03 0.191100557586503D+02 0.685404867811064D+02
0.134000302176D-04 0.000000000000D+00 0.000000000000D+00 0.162670516062D-05 0.000000000000D+00  6 2 -1 25 24 21 21 2 0.16941526D+00 0.67248430D-02 0.42648808D+05 0.42648808D+05 0.42648808D+05 0.11991827D+01  1  2  2  1  6  1        2 0.559278980080D-02 0.100000000000D+01
-.125676465377D-05 0.707139022132D-06 -.514596443447D-07 0.162670516062D-05 0.000000000000D+00  6 2 -1 25 24 21 21 4 0.16941526D+00 0.67248430D-02 0.42648808D+05 0.42648808D+05 0.42648808D+05 0.11991827D+01  1  2  3  1  6  1        2 -.754305632607D-03 0.100000000000D+01
0.647914168324D-06 0.000000000000D+00 0.000000000000D+00 0.162670516062D-05 0.000000000000D+00  6 2 -1 25 24 21 21 4 0.16941526D+00 0.67248430D-02 0.42648808D+05 0.42648808D+05 0.42648808D+05 0.11991827D+01  1  2 15  1  6  1        2 0.388875757402D-03 0.100000000000D+01
-.498009132890D-02 0.000000000000D+00 0.000000000000D+00 0.162670516062D-05 0.000000000000D+00  6 2 -1 25 24 21 21 4 0.16941526D+00 0.67248430D-02 0.42648808D+05 0.42648808D+05 0.42648808D+05 0.11991827D+01  1  2  4  1  6  1        2 -.298903293390D+01 0.100000000000D+01
-.167046960050D-01 0.000000000000D+00 -.791245212658D-03 0.162670516062D-05 0.000000000000D+00  6 2 -1 25 24 21 21 4 0.17016476D+00 0.67248430D-02 0.42648808D+05 0.42648808D+05 0.42648808D+05 0.11991827D+01  1  2  5  1  6  1        2 -.996084435955D+01 0.100000000000D+01
0.167080337280D-01 0.000000000000D+00 0.791237503566D-03 0.162670516062D-05 0.000000000000D+00  6 2 -1 25 24 21 21 4 0.16941526D+00 0.67248430D-02 0.42648808D+05 0.42648808D+05 0.42648808D+05 0.11991827D+01  1  2  6  1  6  1        2 0.100281018510D+02 0.100000000000D+01
0.498757324371D-02 0.000000000000D+00 0.000000000000D+00 0.162670516062D-05 0.210001861076D-04  6 2 -1 25 24 21 21 4 0.17014939D+00 0.67262173D-02 0.42735709D+05 0.42735709D+05 0.42735709D+05 0.11990935D+01  1  2 11  1  6  1        2 0.297267360982D+01 0.100000000000D+01
-.137293438166D-04 0.000000000000D+00 -.650585154947D-06 0.162670516062D-05 0.000000000000D+00  6 21 -1 25 24 -2 21 4 0.17016476D+00 0.67248430D-02 0.42648808D+05 0.42648808D+05 0.42648808D+05 0.11991827D+01  3  4  5  4  5  1        2 -.598927529395D-02 0.100000000000D+01
0.765617726134D-05 0.000000000000D+00 0.000000000000D+00 0.162670516062D-05 0.638446409377D-07  6 21 -1 25 24 -2 21 4 0.17014939D+00 0.67262173D-02 0.42735709D+05 0.42735709D+05 0.42735709D+05 0.11990935D+01  3  4 11  4  5  1        2 0.333843743340D-02 0.100000000000D+01
  </mgrwgt>
  </event>
  <event>
  5     66 -.46179844E-03 0.33880733E+02 0.75467711E-02 0.11349874E+00
        2 -1    0    0  502    0 0.00000000E+00 0.00000000E+00 0.10413856E+03 0.10413905E+03 0.32000000E+00 0.0000E+00 0.9000E+01
       -1 -1    0    0    0  501 -.00000000E+00 -.00000000E+00 -.69321376E+03 0.69321383E+03 0.32000000E+00 0.0000E+00 0.9000E+01
       25  1    1    2    0    0 0.13469683E+03 0.12725408E+03 -.24540921E+03 0.33194505E+03 0.12500000E+03 0.0000E+00 0.9000E+01
       24  1    1    2    0    0 -.10089392E+03 -.12496881E+03 -.75062560E+02 0.19467509E+03 0.80419002E+02 0.0000E+00 0.9000E+01
       21  1    1    2  502  501 -.33802909E+02 -.22852700E+01 -.26860343E+03 0.27073276E+03 0.75000000E+00 0.0000E+00 0.9000E+01
#aMCatNLO 1  0  0  5  1 0.25965089D+01 0.00000000D+00  -5  6  0 0.00000000D+00 0.00000000D+00 0.00000000D+00 0.00000000D+00 0.00000000D+00
  <mgrwgt>
 -.8435276271D+00   25    2    0
 0.268682917762239D+03 0.000000000000000D+00 0.000000000000000D+00 0.268682917762239D+03
 0.268682917762239D+03 -.000000000000000D+00 -.000000000000000D+00 -.268682917762239D+03
 0.223521807975253D+03 0.134697171175286D+03 0.127254100558269D+03 -.254183020356656D+00
 0.206576984489383D+03 -.100893600703133D+03 -.124968785880745D+03 0.102029988037858D+03
 0.107267043059840D+03 -.338035704721526D+02 -.228531467752337D+01 -.101775805017502D+03
 0.000000000000000D+00 0.000000000000000D+00 0.000000000000000D+00 -.000000000000000D+00
 0.268682917762239D+03 0.000000000000000D+00 0.000000000000000D+00 0.268682917762239D+03
 0.268682917762239D+03 -.000000000000000D+00 -.000000000000000D+00 -.268682917762239D+03
 0.223510880306800D+03 0.134680024558222D+03 0.127252941348898D+03 -.305808062641336D+00
 0.206561812956755D+03 -.100909447268585D+03 -.124969857199192D+03 0.101982277191545D+03
 0.431220344257623D+02 -.157603724022577D+02 -.207885403892495D+01 -.400848959165872D+02
 0.641711078351596D+02 -.180102048873791D+02 -.204230110781135D+00 -.615915732123167D+02
0.229193779306D-03 0.000000000000D+00 0.000000000000D+00 0.150692176377D-04 0.000000000000D+00  6 2 -1 25 24 21 21 2 0.16021361D-01 0.10664831D+00 0.47747501D+05 0.47747501D+05 0.47747501D+05 0.11942695D+01  1  2  2  3  6  5       21 0.117381793021D-01 0.100000000000D+01
0.365564570005D-04 0.120948880223D-04 -.880164460644D-06 0.150692176377D-04 0.000000000000D+00  6 2 -1 25 24 21 21 4 0.16021361D-01 0.10664831D+00 0.47747501D+05 0.47747501D+05 0.47747501D+05 0.11942695D+01  1  2  3  3  6  5       21 0.267034078984D-02 0.100000000000D+01
0.138084402234D-05 0.000000000000D+00 0.000000000000D+00 0.150692176377D-04 0.000000000000D+00  6 2 -1 25 24 21 21 4 0.16021361D-01 0.10664831D+00 0.47747501D+05 0.47747501D+05 0.47747501D+05 0.11942695D+01  1  2 15  3  6  5       21 0.100866561472D-03 0.100000000000D+01
0.372574908815D-04 0.000000000000D+00 0.000000000000D+00 0.150690869770D-04 0.000000000000D+00  6 2 -1 25 24 21 21 4 0.16021361D-01 0.10664831D+00 0.47753220D+05 0.47753220D+05 0.47753220D+05 0.11942643D+01  1  2 12  3  6  5       21 0.272150047091D-02 0.100000000000D+01
0.368704430006D-04 0.000000000000D+00 0.000000000000D+00 0.150690869770D-04 0.000000000000D+00  6 2 -1 25 24 21 21 4 0.16021361D-01 0.10664831D+00 0.47753220D+05 0.47753220D+05 0.47753220D+05 0.11942643D+01  1  2 12  3  6  5       21 0.269322827745D-02 0.100000000000D+01
-.396732731835D-01 0.000000000000D+00 0.000000000000D+00 0.150692176377D-04 0.000000000000D+00  6 2 -1 25 24 21 21 4 0.16021361D-01 0.10664831D+00 0.47747501D+05 0.47747501D+05 0.47747501D+05 0.11942695D+01  1  2  4  3  6  5       21 -.289801497030D+01 0.100000000000D+01
-.116283894130D-01 0.000000000000D+00 0.000000000000D+00 0.150692176377D-04 0.000000000000D+00  6 2 -1 25 24 21 21 4 0.16021361D-01 0.10664831D+00 0.47747501D+05 0.47747501D+05 0.47747501D+05 0.11942695D+01  1  2  5  3  6  5       21 -.849419367122D+00 0.100000000000D+01
0.281234709713D-01 0.000000000000D+00 -.000000000000D+00 0.150692176377D-04 0.000000000000D+00  6 2 -1 25 24 21 21 4 0.16021361D-01 0.10664831D+00 0.47747501D+05 0.47747501D+05 0.47747501D+05 0.11942695D+01  1  2  6  3  6  5       21 0.205433616517D+01 0.100000000000D+01
0.115018865574D-01 0.000000000000D+00 0.000000000000D+00 0.150692176377D-04 0.117238077602D-04  6 2 -1 25 24 21 21 4 0.16021361D-01 0.10664831D+00 0.47753220D+05 0.47753220D+05 0.47753220D+05 0.11942643D+01  1  2 11  3  6  5       21 0.840163654120D+00 0.100000000000D+01
0.840484624624D-06 0.000000000000D+00 0.000000000000D+00 0.150690869770D-04 0.000000000000D+00  6 2 -1 25 24 1 -1 4 0.16021361D-01 0.10664831D+00 0.47753220D+05 0.47753220D+05 0.47753220D+05 0.11942643D+01  1  2 12  6  6  5       21 0.613938096097D-04 0.100000000000D+01
0.830374209167D-06 0.000000000000D+00 0.000000000000D+00 0.150690869770D-04 0.000000000000D+00  6 2 -1 25 24 1 -1 4 0.16021361D-01 0.10664831D+00 0.47753220D+05 0.47753220D+05 0.47753220D+05 0.11942643D+01  1  2 12  6  6  5       21 0.606552869723D-04 0.100000000000D+01
-.267757551947D-03 0.000000000000D+00 0.000000000000D+00 0.150692176377D-04 0.000000000000D+00  6 2 -1 25 24 1 -1 4 0.16021361D-01 0.10664831D+00 0.47747501D+05 0.47747501D+05 0.47747501D+05 0.11942695D+01  1  2  5  6  6  5       21 -.195588952382D-01 0.100000000000D+01
0.235766892037D-03 0.000000000000D+00 0.000000000000D+00 0.150692176377D-04 0.147472222483D-06  6 2 -1 25 24 1 -1 4 0.16021361D-01 0.10664831D+00 0.47753220D+05 0.47753220D+05 0.47753220D+05 0.11942643D+01  1  2 11  6  6  5       21 0.172217637990D-01 0.100000000000D+01
0.840484624624D-06 0.000000000000D+00 0.000000000000D+00 0.150690869770D-04 0.000000000000D+00  6 2 -1 25 24 2 -2 4 0.16021361D-01 0.10664831D+00 0.47753220D+05 0.47753220D+05 0.47753220D+05 0.11942643D+01  1  2 12  7  6  5       21 0.613938096097D-04 0.100000000000D+01
0.830374209167D-06 0.000000000000D+00 0.000000000000D+00 0.150690869770D-04 0.000000000000D+00  6 2 -1 25 24 2 -2 4 0.16021361D-01 0.10664831D+00 0.47753220D+05 0.47753220D+05 0.47753220D+05 0.11942643D+01  1  2 12  7  6  5       21 0.606552869723D-04 0.100000000000D+01
-.267757551947D-03 0.000000000000D+00 0.000000000000D+00 0.150692176377D-04 0.000000000000D+00  6 2 -1 25 24 2 -2 4 0.16021361D-01 0.10664831D+00 0.47747501D+05 0.47747501D+05 0.47747501D+05 0.11942695D+01  1  2  5  7  6  5       21 -.195588952382D-01 0.100000000000D+01
0.228020010165D-03 0.000000000000D+00 0.000000000000D+00 0.150692176377D-04 0.142219402208D-06  6 2 -1 25 24 2 -2 4 0.16021361D-01 0.10664831D+00 0.47753220D+05 0.47753220D+05 0.47753220D+05 0.11942643D+01  1  2 11  7  6  5       21 0.166558871883D-01 0.100000000000D+01
0.840484624624D-06 0.000000000000D+00 0.000000000000D+00 0.150690869770D-04 0.000000000000D+00  6 2 -1 25 24 3 -3 4 0.16021361D-01 0.10664831D+00 0.47753220D+05 0.47753220D+05 0.47753220D+05 0.11942643D+01  1  2 12  8  6  5       21 0.613938096097D-04 0.100000000000D+01
0.840484624624D-06 0.000000000000D+00 0.000000000000D+00 0.150690869770D-04 0.000000000000D+00  6 2 -1 25 24 4 -4 4 0.16021361D-01 0.10664831D+00 0.47753220D+05 0.47753220D+05 0.47753220D+05 0.11942643D+01  1  2 12  8  6  5       21 0.613938096097D-04 0.100000000000D+01
0.830374209167D-06 0.000000000000D+00 0.000000000000D+00 0.150690869770D-04 0.000000000000D+00  6 2 -1 25 24 3 -3 4 0.16021361D-01 0.10664831D+00 0.47753220D+05 0.47753220D+05 0.47753220D+05 0.11942643D+01  1  2 12  8  6  5       21 0.606552869723D-04 0.100000000000D+01
0.830374209167D-06 0.000000000000D+00 0.000000000000D+00 0.150690869770D-04 0.000000000000D+00  6 2 -1 25 24 4 -4 4 0.16021361D-01 0.10664831D+00 0.47753220D+05 0.47753220D+05 0.47753220D+05 0.11942643D+01  1  2 12  8  6  5       21 0.606552869723D-04 0.100000000000D+01
-.267757551947D-03 0.000000000000D+00 0.000000000000D+00 0.150692176377D-04 0.000000000000D+00  6 2 -1 25 24 3 -3 4 0.16021361D-01 0.10664831D+00 0.47747501D+05 0.47747501D+05 0.47747501D+05 0.11942695D+01  1  2  5  8  6  5       21 -.195588952382D-01 0.100000000000D+01
-.267757551947D-03 0.000000000000D+00 0.000000000000D+00 0.150692176377D-04 0.000000000000D+00  6 2 -1 25 24 4 -4 4 0.16021361D-01 0.10664831D+00 0.47747501D+05 0.47747501D+05 0.47747501D+05 0.11942695D+01  1  2  5  8  6  5       21 -.195588952382D-01 0.100000000000D+01
0.228298841136D-03 0.000000000000D+00 0.000000000000D+00 0.150692176377D-04 0.142391075821D-06  6 2 -1 25 24 3 -3 4 0.16021361D-01 0.10664831D+00 0.47753220D+05 0.47753220D+05 0.47753220D+05 0.11942643D+01  1  2 11  8  6  5       21 0.166762545991D-01 0.100000000000D+01
0.228298841136D-03 0.000000000000D+00 0.000000000000D+00 0.150692176377D-04 0.142391075821D-06  6 2 -1 25 24 4 -4 4 0.16021361D-01 0.10664831D+00 0.47753220D+05 0.47753220D+05 0.47753220D+05 0.11942643D+01  1  2 11  8  6  5       21 0.166762545991D-01 0.100000000000D+01
  </mgrwgt>
  </event>
  <event>
  6     66 0.46179844E-03 0.18397780E+02 0.75467711E-02 0.12422702E+00
        2 -1    0    0  502    0 0.00000000E+00 0.00000000E+00 0.11064322E+04 0.11064323E+04 0.32000000E+00 0.0000E+00 0.9000E+01
       21 -1    0    0  503  501 0.00000000E+00 0.00000000E+00 -.39001548E+02 0.39008759E+02 0.75000000E+00 0.0000E+00 0.9000E+01
       25  1    1    2    0    0 -.19385620E+02 -.11738634E+02 0.93393484E+03 0.94253535E+03 0.12500000E+03 0.0000E+00 0.9000E+01
       24  1    1    2    0    0 0.14841860E+02 0.26786651E+02 0.14276349E+03 0.16669264E+03 0.80419002E+02 0.0000E+00 0.9000E+01
        1  1    1    2  503    0 0.88891424E+01 -.19653755E+02 -.16061704E+02 0.26895495E+02 0.32000000E+00 0.0000E+00 0.9000E+01
       21  1    1    2  502  501 -.43453830E+01 0.46057377E+01 0.67940626E+01 0.93175619E+01 0.75000000E+00 0.0000E+00 0.9000E+01
#aMCatNLO 2  0  0  2  5 0.14740141D+02 0.00000000D+00  -5  6  0 0.00000000D+00 0.00000000D+00 0.00000000D+00 0.00000000D+00 0.00000000D+00
  <mgrwgt>
 0.1413109349D+01    1    2    0
 0.138494667055807D+03 0.000000000000000D+00 0.000000000000000D+00 0.138494667055807D+03
 0.138494667055807D+03 0.000000000000000D+00 0.000000000000000D+00 -.138494667055807D+03
 0.153138717452779D+03 -.144839494714416D+02 -.225691806927446D+02 0.843048876023740D+02
 0.113267630734140D+03 0.184929426809376D+02 0.187193201033553D+02 -.752989929788078D+02
 0.000000000000000D+00 0.000000000000000D+00 -.000000000000000D+00 -.000000000000000D+00
 0.105829859246952D+02 -.400899320949600D+01 0.384986058938927D+01 -.900589462356618D+01
 0.139597275377132D+03 0.000000000000000D+00 0.000000000000000D+00 0.139597275377132D+03
 0.309150981386150D+03 0.000000000000000D+00 0.000000000000000D+00 -.309150981386150D+03
 0.152465794825708D+03 -.193802676470225D+02 -.117434979506017D+02 0.843048876023740D+02
 0.114345319355640D+03 0.148461855823166D+02 0.267822428897497D+02 -.752989929788078D+02
 0.170920291773749D+03 0.888914239342172D+01 -.196537545049345D+02 -.169553706009018D+03
 0.110168508081862D+02 -.435506032871579D+01 0.461500956578650D+01 -.900589462356618D+01
0.101328046063D-03 0.000000000000D+00 0.000000000000D+00 0.477660123065D-03 0.978504578468D-06  6 2 21 25 24 1 21 4 0.17022072D+00 0.60007900D-02 0.14520876D+05 0.14520876D+05 0.14520876D+05 0.12494330D+01  1  2  1  5  5  2       -1 0.141310934878D+01 0.100000000000D+01
  </mgrwgt>
  </event>
  <event>
  5     66 0.46179844E-03 0.89759739E+02 0.75467711E-02 0.11111733E+00
        2 -1    0    0  502    0 0.00000000E+00 0.00000000E+00 0.21418552E+04 0.21418552E+04 0.32000000E+00 0.0000E+00 0.9000E+01
       -1 -1    0    0    0  501 0.00000000E+00 0.00000000E+00 -.32581920E+02 0.32583491E+02 0.32000000E+00 0.0000E+00 0.9000E+01
       25  1    1    2    0    0 -.17191396E+03 -.69064969E+01 0.58297181E+03 0.62055076E+03 0.12500000E+03 0.0000E+00 0.9000E+01
       24  1    1    2    0    0 0.13110153E+03 0.87891341E+02 0.67825770E+03 0.70100872E+03 0.80419002E+02 0.0000E+00 0.9000E+01
       21  1    1    2  502  501 0.40812436E+02 -.80984844E+02 0.84804376E+03 0.85287923E+03 0.75000000E+00 0.0000E+00 0.9000E+01
#aMCatNLO 1  0  0  5  2 0.31469077D+02 0.00000000D+00  -5  6  0 0.00000000D+00 0.00000000D+00 0.00000000D+00 0.00000000D+00 0.00000000D+00
  <mgrwgt>
 0.2359635855D+00    9    2    0
 0.264173216482231D+03 0.000000000000000D+00 0.000000000000000D+00 0.264173216482231D+03
 0.264173216482231D+03 -.000000000000000D+00 -.000000000000000D+00 -.264173216482231D+03
 0.226561511531657D+03 -.171914281528087D+03 -.690586673978422D+01 -.781211067430776D+02
 0.177288400888475D+03 0.131101279907824D+03 0.878918338636037D+02 -.717224385008958D+01
 0.124496520544330D+03 0.408130016202627D+02 -.809859671238195D+02 0.852933505931672D+02
 0.000000000000000D+00 0.000000000000000D+00 0.000000000000000D+00 0.000000000000000D+00
 0.264173216482231D+03 0.000000000000000D+00 0.000000000000000D+00 0.264173216482231D+03
 0.264173216482231D+03 -.000000000000000D+00 -.000000000000000D+00 -.264173216482231D+03
 0.216674227025218D+03 -.164247461981300D+03 -.221192735246472D+02 -.620985477158589D+02
 0.176256055486976D+03 0.137216674748553D+03 0.757569467967685D+02 0.560805888331630D+01
 0.101117695117894D+03 0.386426607000417D+02 -.829582840392496D+02 0.430053037338431D+02
 0.342984553343747D+02 -.116118734672948D+02 0.293206107671284D+02 0.134851850986995D+02
0.693460184625D-03 0.000000000000D+00 0.000000000000D+00 0.224223267105D-05 0.000000000000D+00  6 2 -1 25 24 21 21 2 0.32951631D+00 0.50127257D-02 0.57719774D+05 0.57719774D+05 0.57719774D+05 0.11861553D+01  1  2  2  3  6  5       21 0.122096564086D+00 0.100000000000D+01
-.827050646250D-05 0.365948993307D-04 -.266306970122D-05 0.224223267105D-05 0.000000000000D+00  6 2 -1 25 24 21 21 4 0.32951631D+00 0.50127257D-02 0.57719774D+05 0.57719774D+05 0.57719774D+05 0.11861553D+01  1  2  3  3  6  5       21 -.204878863348D-02 0.100000000000D+01
0.133207006723D-04 0.000000000000D+00 0.000000000000D+00 0.224223267105D-05 0.000000000000D+00  6 2 -1 25 24 21 21 4 0.32951631D+00 0.50127257D-02 0.57719774D+05 0.57719774D+05 0.57719774D+05 0.11861553D+01  1  2 15  3  6  5       21 0.329983420619D-02 0.100000000000D+01
0.598187303027D-03 0.000000000000D+00 0.000000000000D+00 0.222530314295D-05 0.000000000000D+00  6 2 -1 25 24 21 21 4 0.32951631D+00 0.50127257D-02 0.64212773D+05 0.64212773D+05 0.64212773D+05 0.11816689D+01  1  2 12  3  6  5       21 0.145717392967D+00 0.100000000000D+01
-.159234054575D-03 0.000000000000D+00 0.000000000000D+00 0.224223267105D-05 0.000000000000D+00  6 2 -1 25 24 21 21 4 0.32951631D+00 0.50127257D-02 0.57719774D+05 0.57719774D+05 0.57719774D+05 0.11861553D+01  1  2  4  3  6  5       21 -.394458214324D-01 0.100000000000D+01
0.651113440198D-05 0.000000000000D+00 0.000000000000D+00 0.222530314295D-05 0.000000000000D+00  6 2 -1 25 24 1 -1 4 0.32951631D+00 0.50127257D-02 0.64212773D+05 0.64212773D+05 0.64212773D+05 0.11816689D+01  1  2 12  6  6  5       21 0.158610108491D-02 0.100000000000D+01
0.651113440198D-05 0.000000000000D+00 0.000000000000D+00 0.222530314295D-05 0.000000000000D+00  6 2 -1 25 24 2 -2 4 0.32951631D+00 0.50127257D-02 0.64212773D+05 0.64212773D+05 0.64212773D+05 0.11816689D+01  1  2 12  7  6  5       21 0.158610108491D-02 0.100000000000D+01
0.651113440198D-05 0.000000000000D+00 0.000000000000D+00 0.222530314295D-05 0.000000000000D+00  6 2 -1 25 24 3 -3 4 0.32951631D+00 0.50127257D-02 0.64212773D+05 0.64212773D+05 0.64212773D+05 0.11816689D+01  1  2 12  8  6  5       21 0.158610108491D-02 0.100000000000D+01
0.651113440198D-05 0.000000000000D+00 0.000000000000D+00 0.222530314295D-05 0.000000000000D+00  6 2 -1 25 24 4 -4 4 0.32951631D+00 0.50127257D-02 0.64212773D+05 0.64212773D+05 0.64212773D+05 0.11816689D+01  1  2 12  8  6  5       21 0.158610108491D-02 0.100000000000D+01
  </mgrwgt>
  </event>
  <event>
  5     66 0.46179844E-03 0.38566459E+02 0.75467711E-02 0.11737982E+00
        2 -1    0    0  502    0 0.00000000E+00 0.00000000E+00 0.81043182E+03 0.81043188E+03 0.32000000E+00 0.0000E+00 0.9000E+01
       -1 -1    0    0    0  501 0.00000000E+00 0.00000000E+00 -.39177891E+02 0.39179198E+02 0.32000000E+00 0.0000E+00 0.9000E+01
       25  1    1    2    0    0 0.96158913E+02 -.12882755E+02 0.27570551E+03 0.31788525E+03 0.12500000E+03 0.0000E+00 0.9000E+01
       24  1    1    2    0    0 -.12628937E+03 0.36945956E+02 0.39708170E+03 0.42597547E+03 0.80419002E+02 0.0000E+00 0.9000E+01
       21  1    1    2  502  501 0.30130460E+02 -.24063201E+02 0.98466713E+02 0.10575036E+03 0.75000000E+00 0.0000E+00 0.9000E+01
#aMCatNLO 1  0  0  5  2 0.97432560D+01 0.00000000D+00  -5  6  0 0.00000000D+00 0.00000000D+00 0.00000000D+00 0.00000000D+00 0.00000000D+00
  <mgrwgt>
 0.6480819664D-01   25    2    0
 0.178189763158827D+03 0.000000000000000D+00 0.000000000000000D+00 0.178189763158827D+03
 0.178189763158827D+03 -.000000000000000D+00 -.000000000000000D+00 -.178189763158827D+03
 0.161174553403945D+03 0.961563944426588D+02 -.128807437339509D+02 -.306638372290438D+02
 0.156191632269168D+03 -.126291813490562D+03 0.369479052609314D+02 0.247757982440732D+02
 0.390133406445412D+02 0.301354190479029D+02 -.240671615269805D+02 0.588803898497062D+01
 0.000000000000000D+00 0.000000000000000D+00 0.000000000000000D+00 0.000000000000000D+00
 0.178189763158827D+03 0.000000000000000D+00 0.000000000000000D+00 0.178189763158827D+03
 0.178189763158827D+03 -.000000000000000D+00 -.000000000000000D+00 -.178189763158827D+03
 0.162405304450007D+03 0.981069250843250D+02 -.144385032574434D+02 -.302827308491639D+02
 0.154390595319314D+03 -.124419632213006D+03 0.354527181808017D+02 0.251415962550999D+02
 0.241613382713957D+02 0.123172817662746D+02 -.177853713973572D+02 0.107580389111156D+02
 0.154222882769387D+02 0.139954253624065D+02 -.322884352600109D+01 -.561690431705159D+01
0.187098662401D-03 0.000000000000D+00 0.000000000000D+00 0.122137247763D-04 0.000000000000D+00  6 2 -1 25 24 21 21 2 0.12468192D+00 0.60274733D-02 0.30802231D+05 0.30802231D+05 0.30802231D+05 0.12136974D+01  1  2  2  3  6  5       21 0.142583415794D+00 0.100000000000D+01
0.240008211108D-04 0.987346767308D-05 -.718508127827D-06 0.122137247763D-04 0.000000000000D+00  6 2 -1 25 24 21 21 4 0.12468192D+00 0.60274733D-02 0.30802231D+05 0.30802231D+05 0.30802231D+05 0.12136974D+01  1  2  3  3  6  5       21 0.269429568085D-01 0.100000000000D+01
0.657471831993D-05 0.000000000000D+00 0.000000000000D+00 0.122137247763D-04 0.000000000000D+00  6 2 -1 25 24 21 21 4 0.12468192D+00 0.60274733D-02 0.30802231D+05 0.30802231D+05 0.30802231D+05 0.12136974D+01  1  2 15  3  6  5       21 0.738067880696D-02 0.100000000000D+01
0.110821808734D-03 0.000000000000D+00 0.000000000000D+00 0.122301172451D-04 0.000000000000D+00  6 2 -1 25 24 21 21 4 0.12468192D+00 0.60274733D-02 0.30255809D+05 0.30255809D+05 0.30255809D+05 0.12145116D+01  1  2 12  3  6  5       21 0.124699738416D+00 0.100000000000D+01
0.112120301443D-03 0.000000000000D+00 0.000000000000D+00 0.122301172451D-04 0.000000000000D+00  6 2 -1 25 24 21 21 4 0.12468192D+00 0.60274733D-02 0.30255809D+05 0.30255809D+05 0.30255809D+05 0.12145116D+01  1  2 12  3  6  5       21 0.126160838022D+00 0.100000000000D+01
-.511758807567D-03 0.000000000000D+00 0.000000000000D+00 0.122137247763D-04 0.000000000000D+00  6 2 -1 25 24 21 21 4 0.12468192D+00 0.60274733D-02 0.30802231D+05 0.30802231D+05 0.30802231D+05 0.12136974D+01  1  2  4  3  6  5       21 -.574492655272D+00 0.100000000000D+01
-.195665687332D-03 0.000000000000D+00 0.000000000000D+00 0.122137247763D-04 0.000000000000D+00  6 2 -1 25 24 21 21 4 0.12468192D+00 0.60274733D-02 0.30802231D+05 0.30802231D+05 0.30802231D+05 0.12136974D+01  1  2  5  3  6  5       21 -.219651325193D+00 0.100000000000D+01
0.377422545913D-03 0.000000000000D+00 -.000000000000D+00 0.122137247763D-04 0.000000000000D+00  6 2 -1 25 24 21 21 4 0.12468192D+00 0.60274733D-02 0.30802231D+05 0.30802231D+05 0.30802231D+05 0.12136974D+01  1  2  6  3  6  5       21 0.423688810735D+00 0.100000000000D+01
0.207160238831D-09 0.000000000000D+00 0.000000000000D+00 0.122137247763D-04 0.121956089113D-05  6 2 -1 25 24 21 21 4 0.12468192D+00 0.60274733D-02 0.30255809D+05 0.30255809D+05 0.30255809D+05 0.12145116D+01  1  2 11  3  6  5       21 0.233102381990D-06 0.100000000000D+01
0.281485425424D-05 0.000000000000D+00 0.000000000000D+00 0.122301172451D-04 0.000000000000D+00  6 2 -1 25 24 1 -1 4 0.12468192D+00 0.60274733D-02 0.30255809D+05 0.30255809D+05 0.30255809D+05 0.12145116D+01  1  2 12  6  6  5       21 0.316735120273D-02 0.100000000000D+01
0.284520527893D-05 0.000000000000D+00 0.000000000000D+00 0.122301172451D-04 0.000000000000D+00  6 2 -1 25 24 1 -1 4 0.12468192D+00 0.60274733D-02 0.30255809D+05 0.30255809D+05 0.30255809D+05 0.12145116D+01  1  2 12  6  6  5       21 0.320150300807D-02 0.100000000000D+01
-.400413459545D-05 0.000000000000D+00 0.000000000000D+00 0.122137247763D-04 0.000000000000D+00  6 2 -1 25 24 1 -1 4 0.12468192D+00 0.60274733D-02 0.30802231D+05 0.30802231D+05 0.30802231D+05 0.12136974D+01  1  2  5  6  6  5       21 -.449498060765D-02 0.100000000000D+01
0.240149077416D-11 0.000000000000D+00 0.000000000000D+00 0.122137247763D-04 0.193913581870D-07  6 2 -1 25 24 1 -1 4 0.12468192D+00 0.60274733D-02 0.30255809D+05 0.30255809D+05 0.30255809D+05 0.12145116D+01  1  2 11  6  6  5       21 0.270222327868D-08 0.100000000000D+01
0.281485425424D-05 0.000000000000D+00 0.000000000000D+00 0.122301172451D-04 0.000000000000D+00  6 2 -1 25 24 2 -2 4 0.12468192D+00 0.60274733D-02 0.30255809D+05 0.30255809D+05 0.30255809D+05 0.12145116D+01  1  2 12  7  6  5       21 0.316735120273D-02 0.100000000000D+01
0.284520527893D-05 0.000000000000D+00 0.000000000000D+00 0.122301172451D-04 0.000000000000D+00  6 2 -1 25 24 2 -2 4 0.12468192D+00 0.60274733D-02 0.30255809D+05 0.30255809D+05 0.30255809D+05 0.12145116D+01  1  2 12  7  6  5       21 0.320150300807D-02 0.100000000000D+01
-.400413459545D-05 0.000000000000D+00 0.000000000000D+00 0.122137247763D-04 0.000000000000D+00  6 2 -1 25 24 2 -2 4 0.12468192D+00 0.60274733D-02 0.30802231D+05 0.30802231D+05 0.30802231D+05 0.12136974D+01  1  2  5  7  6  5       21 -.449498060765D-02 0.100000000000D+01
0.247597039973D-11 0.000000000000D+00 0.000000000000D+00 0.122137247763D-04 0.197072239046D-07  6 2 -1 25 24 2 -2 4 0.12468192D+00 0.60274733D-02 0.30255809D+05 0.30255809D+05 0.30255809D+05 0.12145116D+01  1  2 11  7  6  5       21 0.278602979593D-08 0.100000000000D+01
0.281485425424D-05 0.000000000000D+00 0.000000000000D+00 0.122301172451D-04 0.000000000000D+00  6 2 -1 25 24 3 -3 4 0.12468192D+00 0.60274733D-02 0.30255809D+05 0.30255809D+05 0.30255809D+05 0.12145116D+01  1  2 12  8  6  5       21 0.316735120273D-02 0.100000000000D+01
0.281485425424D-05 0.000000000000D+00 0.000000000000D+00 0.122301172451D-04 0.000000000000D+00  6 2 -1 25 24 4 -4 4 0.12468192D+00 0.60274733D-02 0.30255809D+05 0.30255809D+05 0.30255809D+05 0.12145116D+01  1  2 12  8  6  5       21 0.316735120273D-02 0.100000000000D+01
0.284520527893D-05 0.000000000000D+00 0.000000000000D+00 0.122301172451D-04 0.000000000000D+00  6 2 -1 25 24 3 -3 4 0.12468192D+00 0.60274733D-02 0.30255809D+05 0.30255809D+05 0.30255809D+05 0.12145116D+01  1  2 12  8  6  5       21 0.320150300807D-02 0.100000000000D+01
0.284520527893D-05 0.000000000000D+00 0.000000000000D+00 0.122301172451D-04 0.000000000000D+00  6 2 -1 25 24 4 -4 4 0.12468192D+00 0.60274733D-02 0.30255809D+05 0.30255809D+05 0.30255809D+05 0.12145116D+01  1  2 12  8  6  5       21 0.320150300807D-02 0.100000000000D+01
-.400413459545D-05 0.000000000000D+00 0.000000000000D+00 0.122137247763D-04 0.000000000000D+00  6 2 -1 25 24 3 -3 4 0.12468192D+00 0.60274733D-02 0.30802231D+05 0.30802231D+05 0.30802231D+05 0.12136974D+01  1  2  5  8  6  5       21 -.449498060765D-02 0.100000000000D+01
-.400413459545D-05 0.000000000000D+00 0.000000000000D+00 0.122137247763D-04 0.000000000000D+00  6 2 -1 25 24 4 -4 4 0.12468192D+00 0.60274733D-02 0.30802231D+05 0.30802231D+05 0.30802231D+05 0.12136974D+01  1  2  5  8  6  5       21 -.449498060765D-02 0.100000000000D+01
0.245055362902D-11 0.000000000000D+00 0.000000000000D+00 0.122137247763D-04 0.190324657468D-07  6 2 -1 25 24 3 -3 4 0.12468192D+00 0.60274733D-02 0.30255809D+05 0.30255809D+05 0.30255809D+05 0.12145116D+01  1  2 11  8  6  5       21 0.275743014849D-08 0.100000000000D+01
0.245055362902D-11 0.000000000000D+00 0.000000000000D+00 0.122137247763D-04 0.190324657468D-07  6 2 -1 25 24 4 -4 4 0.12468192D+00 0.60274733D-02 0.30255809D+05 0.30255809D+05 0.30255809D+05 0.12145116D+01  1  2 11  8  6  5       21 0.275743014849D-08 0.100000000000D+01
  </mgrwgt>
  </event>
  <event>
  5     66 0.46179844E-03 0.35438202E+02 0.75467711E-02 0.12126924E+00
        2 -1    0    0  502    0 0.00000000E+00 0.00000000E+00 0.11093913E+04 0.11093913E+04 0.32000000E+00 0.0000E+00 0.9000E+01
       -1 -1    0    0    0  501 0.00000000E+00 0.00000000E+00 -.20264051E+02 0.20266578E+02 0.32000000E+00 0.0000E+00 0.9000E+01
       25  1    1    2    0    0 0.37994178E+02 0.60803198E+02 0.73437366E+03 0.74837842E+03 0.12500000E+03 0.0000E+00 0.9000E+01
       24  1    1    2    0    0 -.50140879E+02 -.23316293E+02 0.28382797E+03 0.30013879E+03 0.80419002E+02 0.0000E+00 0.9000E+01
       21  1    1    2  502  501 0.12146701E+02 -.37486904E+02 0.70925605E+02 0.81140707E+02 0.75000000E+00 0.0000E+00 0.9000E+01
#aMCatNLO 1  0  0  5  1 0.65451100D+01 0.00000000D+00  -5  6  0 0.00000000D+00 0.00000000D+00 0.00000000D+00 0.00000000D+00 0.00000000D+00
  <mgrwgt>
 0.2347641690D+00   25    2    0
 0.149940705372263D+03 0.000000000000000D+00 0.000000000000000D+00 0.149940705372263D+03
 0.149940705372263D+03 -.000000000000000D+00 -.000000000000000D+00 -.149940705372263D+03
 0.152012194369311D+03 0.379934280659974D+02 0.608055112774598D+02 0.483931447526780D+02
 0.998037097990122D+02 -.501413707469215D+02 -.233147741889988D+02 -.208765126256919D+02
 0.480655065762030D+02 0.121479426809241D+02 -.374907370884610D+02 -.275166321269861D+02
 0.000000000000000D+00 0.000000000000000D+00 0.000000000000000D+00 -.000000000000000D+00
 0.149940705372263D+03 0.000000000000000D+00 0.000000000000000D+00 0.149940705372263D+03
 0.149940705372263D+03 -.000000000000000D+00 -.000000000000000D+00 -.149940705372263D+03
 0.150883664274008D+03 0.386662814088542D+02 0.587289647840566D+02 0.468690465249282D+02
 0.100126153444395D+03 -.496972462302550D+02 -.246854223659142D+02 -.218825110292633D+02
 0.419699718387307D+02 0.124555560067706D+02 -.355981505339586D+02 -.184149216470685D+02
 0.690162118739207D+01 -.142459118536967D+01 0.155460811581614D+01 -.657161384859646D+01
0.574141519939D-04 0.000000000000D+00 0.000000000000D+00 0.140361073352D-04 0.000000000000D+00  6 2 -1 25 24 21 21 2 0.17067578D+00 0.31177442D-02 0.19755578D+05 0.19755578D+05 0.19755578D+05 0.12344144D+01  1  2  2  3  6  5       21 0.776967990719D-01 0.100000000000D+01
0.271952431953D-05 0.302982804054D-05 -.220485461150D-06 0.140361073352D-04 0.000000000000D+00  6 2 -1 25 24 21 21 4 0.17067578D+00 0.31177442D-02 0.19755578D+05 0.19755578D+05 0.19755578D+05 0.12344144D+01  1  2  3  3  6  5       21 0.560788467655D-02 0.100000000000D+01
0.128015427597D-05 0.000000000000D+00 0.000000000000D+00 0.140361073352D-04 0.000000000000D+00  6 2 -1 25 24 21 21 4 0.17067578D+00 0.31177442D-02 0.19755578D+05 0.19755578D+05 0.19755578D+05 0.12344144D+01  1  2 15  3  6  5       21 0.263978428002D-02 0.100000000000D+01
0.394514543293D-04 0.000000000000D+00 0.000000000000D+00 0.140373542369D-04 0.000000000000D+00  6 2 -1 25 24 21 21 4 0.17067578D+00 0.31177442D-02 0.19732971D+05 0.19732971D+05 0.19732971D+05 0.12344692D+01  1  2 12  3  6  5       21 0.813644253311D-01 0.100000000000D+01
0.297784289099D-04 0.000000000000D+00 0.000000000000D+00 0.140373542369D-04 0.000000000000D+00  6 2 -1 25 24 21 21 4 0.17067578D+00 0.31177442D-02 0.19732971D+05 0.19732971D+05 0.19732971D+05 0.12344692D+01  1  2 12  3  6  5       21 0.614148400029D-01 0.100000000000D+01
-.327970810419D-04 0.000000000000D+00 0.000000000000D+00 0.140361073352D-04 0.000000000000D+00  6 2 -1 25 24 21 21 4 0.17067578D+00 0.31177442D-02 0.19755578D+05 0.19755578D+05 0.19755578D+05 0.12344144D+01  1  2  4  3  6  5       21 -.676303009646D-01 0.100000000000D+01
-.140198171774D-03 0.000000000000D+00 0.000000000000D+00 0.140361073352D-04 0.000000000000D+00  6 2 -1 25 24 21 21 4 0.17067578D+00 0.31177442D-02 0.19755578D+05 0.19755578D+05 0.19755578D+05 0.12344144D+01  1  2  5  3  6  5       21 -.289100256808D+00 0.100000000000D+01
0.167136382193D-03 0.000000000000D+00 -.000000000000D+00 0.140361073352D-04 0.000000000000D+00  6 2 -1 25 24 21 21 4 0.17067578D+00 0.31177442D-02 0.19755578D+05 0.19755578D+05 0.19755578D+05 0.12344144D+01  1  2  6  3  6  5       21 0.344649080672D+00 0.100000000000D+01
0.652063174229D-05 0.000000000000D+00 0.000000000000D+00 0.140361073352D-04 0.948167043011D-05  6 2 -1 25 24 21 21 4 0.17067578D+00 0.31177442D-02 0.19732971D+05 0.19732971D+05 0.19732971D+05 0.12344692D+01  1  2 11  3  6  5       21 0.134481089107D-01 0.100000000000D+01
0.754884770006D-06 0.000000000000D+00 0.000000000000D+00 0.140373542369D-04 0.000000000000D+00  6 2 -1 25 24 1 -1 4 0.17067578D+00 0.31177442D-02 0.19732971D+05 0.19732971D+05 0.19732971D+05 0.12344692D+01  1  2 12  6  6  5       21 0.155686948801D-02 0.100000000000D+01
0.676116983974D-06 0.000000000000D+00 0.000000000000D+00 0.140373542369D-04 0.000000000000D+00  6 2 -1 25 24 1 -1 4 0.17067578D+00 0.31177442D-02 0.19732971D+05 0.19732971D+05 0.19732971D+05 0.12344692D+01  1  2 12  6  6  5       21 0.139441931338D-02 0.100000000000D+01
-.986784653264D-06 0.000000000000D+00 0.000000000000D+00 0.140361073352D-04 0.000000000000D+00  6 2 -1 25 24 1 -1 4 0.17067578D+00 0.31177442D-02 0.19755578D+05 0.19755578D+05 0.19755578D+05 0.12344144D+01  1  2  5  6  6  5       21 -.203483178891D-02 0.100000000000D+01
0.265420233358D-07 0.000000000000D+00 0.000000000000D+00 0.140361073352D-04 0.749832673955D-07  6 2 -1 25 24 1 -1 4 0.17067578D+00 0.31177442D-02 0.19732971D+05 0.19732971D+05 0.19732971D+05 0.12344692D+01  1  2 11  6  6  5       21 0.547400979904D-04 0.100000000000D+01
0.754884770006D-06 0.000000000000D+00 0.000000000000D+00 0.140373542369D-04 0.000000000000D+00  6 2 -1 25 24 2 -2 4 0.17067578D+00 0.31177442D-02 0.19732971D+05 0.19732971D+05 0.19732971D+05 0.12344692D+01  1  2 12  7  6  5       21 0.155686948801D-02 0.100000000000D+01
0.676116983974D-06 0.000000000000D+00 0.000000000000D+00 0.140373542369D-04 0.000000000000D+00  6 2 -1 25 24 2 -2 4 0.17067578D+00 0.31177442D-02 0.19732971D+05 0.19732971D+05 0.19732971D+05 0.12344692D+01  1  2 12  7  6  5       21 0.139441931338D-02 0.100000000000D+01
-.986784653264D-06 0.000000000000D+00 0.000000000000D+00 0.140361073352D-04 0.000000000000D+00  6 2 -1 25 24 2 -2 4 0.17067578D+00 0.31177442D-02 0.19755578D+05 0.19755578D+05 0.19755578D+05 0.12344144D+01  1  2  5  7  6  5       21 -.203483178891D-02 0.100000000000D+01
0.154400439579D-06 0.000000000000D+00 0.000000000000D+00 0.140361073352D-04 0.371339592297D-07  6 2 -1 25 24 2 -2 4 0.17067578D+00 0.31177442D-02 0.19732971D+05 0.19732971D+05 0.19732971D+05 0.12344692D+01  1  2 11  7  6  5       21 0.318434472209D-03 0.100000000000D+01
0.754884770006D-06 0.000000000000D+00 0.000000000000D+00 0.140373542369D-04 0.000000000000D+00  6 2 -1 25 24 3 -3 4 0.17067578D+00 0.31177442D-02 0.19732971D+05 0.19732971D+05 0.19732971D+05 0.12344692D+01  1  2 12  8  6  5       21 0.155686948801D-02 0.100000000000D+01
0.754884770006D-06 0.000000000000D+00 0.000000000000D+00 0.140373542369D-04 0.000000000000D+00  6 2 -1 25 24 4 -4 4 0.17067578D+00 0.31177442D-02 0.19732971D+05 0.19732971D+05 0.19732971D+05 0.12344692D+01  1  2 12  8  6  5       21 0.155686948801D-02 0.100000000000D+01
0.676116983974D-06 0.000000000000D+00 0.000000000000D+00 0.140373542369D-04 0.000000000000D+00  6 2 -1 25 24 3 -3 4 0.17067578D+00 0.31177442D-02 0.19732971D+05 0.19732971D+05 0.19732971D+05 0.12344692D+01  1  2 12  8  6  5       21 0.139441931338D-02 0.100000000000D+01
0.676116983974D-06 0.000000000000D+00 0.000000000000D+00 0.140373542369D-04 0.000000000000D+00  6 2 -1 25 24 4 -4 4 0.17067578D+00 0.31177442D-02 0.19732971D+05 0.19732971D+05 0.19732971D+05 0.12344692D+01  1  2 12  8  6  5       21 0.139441931338D-02 0.100000000000D+01
-.986784653264D-06 0.000000000000D+00 0.000000000000D+00 0.140361073352D-04 0.000000000000D+00  6 2 -1 25 24 3 -3 4 0.17067578D+00 0.31177442D-02 0.19755578D+05 0.19755578D+05 0.19755578D+05 0.12344144D+01  1  2  5  8  6  5       21 -.203483178891D-02 0.100000000000D+01
-.986784653264D-06 0.000000000000D+00 0.000000000000D+00 0.140361073352D-04 0.000000000000D+00  6 2 -1 25 24 4 -4 4 0.17067578D+00 0.31177442D-02 0.19755578D+05 0.19755578D+05 0.19755578D+05 0.12344144D+01  1  2  5  8  6  5       21 -.203483178891D-02 0.100000000000D+01
0.153899150990D-06 0.000000000000D+00 0.000000000000D+00 0.140361073352D-04 0.368526314740D-07  6 2 -1 25 24 3 -3 4 0.17067578D+00 0.31177442D-02 0.19732971D+05 0.19732971D+05 0.19732971D+05 0.12344692D+01  1  2 11  8  6  5       21 0.317400617851D-03 0.100000000000D+01
0.153899150990D-06 0.000000000000D+00 0.000000000000D+00 0.140361073352D-04 0.368526314740D-07  6 2 -1 25 24 4 -4 4 0.17067578D+00 0.31177442D-02 0.19732971D+05 0.19732971D+05 0.19732971D+05 0.12344692D+01  1  2 11  8  6  5       21 0.317400617851D-03 0.100000000000D+01
  </mgrwgt>
  </event>
  <event>
  5     66 0.46179844E-03 0.36636965E+02 0.75467711E-02 0.11417091E+00
        2 -1    0    0  502    0 0.00000000E+00 0.00000000E+00 0.10543980E+03 0.10544028E+03 0.32000000E+00 0.0000E+00 0.9000E+01
       -1 -1    0    0    0  501 -.00000000E+00 -.00000000E+00 -.45650749E+03 0.45650760E+03 0.32000000E+00 0.0000E+00 0.9000E+01
       25  1    1    2    0    0 -.51719912E+02 -.13992836E+03 -.91670052E+02 0.21513552E+03 0.12500000E+03 0.0000E+00 0.9000E+01
       24  1    1    2    0    0 0.28232438E+02 0.16804049E+03 -.18590971E+03 0.26469664E+03 0.80419002E+02 0.0000E+00 0.9000E+01
       21  1    1    2  502  501 0.23487474E+02 -.28112127E+02 -.73487933E+02 0.82115723E+02 0.75000000E+00 0.0000E+00 0.9000E+01
#aMCatNLO 1  0  0  5  2 0.12873241D+01 0.00000000D+00  -5  6  0 0.00000000D+00 0.00000000D+00 0.00000000D+00 0.00000000D+00 0.00000000D+00
  <mgrwgt>
 0.9319837930D-01   25    2    0
 0.219395135798368D+03 0.000000000000000D+00 0.000000000000000D+00 0.219395135798368D+03
 0.219395135798368D+03 -.000000000000000D+00 -.000000000000000D+00 -.219395135798368D+03
 0.202174963195017D+03 -.517213282582651D+02 -.139926664910696D+03 0.547279489207952D+02
 0.190248654457599D+03 0.282311053138585D+02 0.168042081780793D+03 -.263096562518727D+02
 0.463666539441201D+02 0.234902229444066D+02 -.281154168700970D+02 -.284182926689224D+02
 0.000000000000000D+00 0.000000000000000D+00 0.000000000000000D+00 0.000000000000000D+00
 0.219395135798368D+03 0.000000000000000D+00 0.000000000000000D+00 0.219395135798368D+03
 0.219395135798368D+03 -.000000000000000D+00 -.000000000000000D+00 -.219395135798368D+03
 0.202179182298621D+03 -.517041238870463D+02 -.139947256799923D+03 0.547071352036314D+02
 0.190236652794084D+03 0.282472941189992D+02 0.168022705421265D+03 -.263292413449363D+02
 0.271587841006964D+02 0.129282679924678D+02 -.161659511169923D+02 -.175818504437441D+02
 0.192156524033350D+02 0.105285617755793D+02 -.119094975043491D+02 -.107960434149509D+02
0.472245980376D-04 0.000000000000D+00 0.000000000000D+00 0.121678466724D-04 0.000000000000D+00  6 2 -1 25 24 21 21 2 0.16221553D-01 0.70231968D-01 0.44033745D+05 0.44033745D+05 0.44033745D+05 0.11977860D+01  1  2  2  3  6  5       21 0.582219880254D-02 0.100000000000D+01
0.774070495186D-05 0.249211050532D-05 -.181354890987D-06 0.121678466724D-04 0.000000000000D+00  6 2 -1 25 24 21 21 4 0.16221553D-01 0.70231968D-01 0.44033745D+05 0.44033745D+05 0.44033745D+05 0.11977860D+01  1  2  3  3  6  5       21 0.136917107161D-02 0.100000000000D+01
-.147545236957D-06 0.000000000000D+00 0.000000000000D+00 0.121678466724D-04 0.000000000000D+00  6 2 -1 25 24 21 21 4 0.16221553D-01 0.70231968D-01 0.44033745D+05 0.44033745D+05 0.44033745D+05 0.11977860D+01  1  2 15  3  6  5       21 -.260977096338D-04 0.100000000000D+01
0.131907687728D-06 0.000000000000D+00 0.000000000000D+00 0.121680399323D-04 0.000000000000D+00  6 2 -1 25 24 21 21 4 0.16221553D-01 0.70231968D-01 0.44024146D+05 0.44024146D+05 0.44024146D+05 0.11977955D+01  1  2 12  3  6  5       21 0.233324651293D-04 0.100000000000D+01
0.131813021206D-06 0.000000000000D+00 0.000000000000D+00 0.121680399323D-04 0.000000000000D+00  6 2 -1 25 24 21 21 4 0.16221553D-01 0.70231968D-01 0.44024146D+05 0.44024146D+05 0.44024146D+05 0.11977955D+01  1  2 12  3  6  5       21 0.233157200603D-04 0.100000000000D+01
-.724198600801D-02 0.000000000000D+00 0.000000000000D+00 0.121678466724D-04 0.000000000000D+00  6 2 -1 25 24 21 21 4 0.16221553D-01 0.70231968D-01 0.44033745D+05 0.44033745D+05 0.44033745D+05 0.11977860D+01  1  2  4  3  6  5       21 -.128095797538D+01 0.100000000000D+01
-.402612487597D-02 0.000000000000D+00 0.000000000000D+00 0.121678466724D-04 0.000000000000D+00  6 2 -1 25 24 21 21 4 0.16221553D-01 0.70231968D-01 0.44033745D+05 0.44033745D+05 0.44033745D+05 0.11977860D+01  1  2  5  3  6  5       21 -.712138460922D+00 0.100000000000D+01
0.774794091289D-02 0.000000000000D+00 -.000000000000D+00 0.121678466724D-04 0.000000000000D+00  6 2 -1 25 24 21 21 4 0.16221553D-01 0.70231968D-01 0.44033745D+05 0.44033745D+05 0.44033745D+05 0.11977860D+01  1  2  6  3  6  5       21 0.137045096389D+01 0.100000000000D+01
0.401456103714D-02 0.000000000000D+00 0.000000000000D+00 0.121678466724D-04 0.388538421206D-04  6 2 -1 25 24 21 21 4 0.16221553D-01 0.70231968D-01 0.44024146D+05 0.44024146D+05 0.44024146D+05 0.11977955D+01  1  2 11  3  6  5       21 0.710114831225D+00 0.100000000000D+01
0.102606058707D-08 0.000000000000D+00 0.000000000000D+00 0.121680399323D-04 0.000000000000D+00  6 2 -1 25 24 1 -1 4 0.16221553D-01 0.70231968D-01 0.44024146D+05 0.44024146D+05 0.44024146D+05 0.11977955D+01  1  2 12  6  6  5       21 0.181494523030D-06 0.100000000000D+01
0.102516179590D-08 0.000000000000D+00 0.000000000000D+00 0.121680399323D-04 0.000000000000D+00  6 2 -1 25 24 1 -1 4 0.16221553D-01 0.70231968D-01 0.44024146D+05 0.44024146D+05 0.44024146D+05 0.11977955D+01  1  2 12  6  6  5       21 0.181335540533D-06 0.100000000000D+01
-.312939750069D-04 0.000000000000D+00 0.000000000000D+00 0.121678466724D-04 0.000000000000D+00  6 2 -1 25 24 1 -1 4 0.16221553D-01 0.70231968D-01 0.44033745D+05 0.44033745D+05 0.44033745D+05 0.11977860D+01  1  2  5  6  6  5       21 -.553525881191D-02 0.100000000000D+01
0.292443672171D-04 0.000000000000D+00 0.000000000000D+00 0.121678466724D-04 0.379005454719D-06  6 2 -1 25 24 1 -1 4 0.16221553D-01 0.70231968D-01 0.44024146D+05 0.44024146D+05 0.44024146D+05 0.11977955D+01  1  2 11  6  6  5       21 0.517288408335D-02 0.100000000000D+01
0.102606058707D-08 0.000000000000D+00 0.000000000000D+00 0.121680399323D-04 0.000000000000D+00  6 2 -1 25 24 2 -2 4 0.16221553D-01 0.70231968D-01 0.44024146D+05 0.44024146D+05 0.44024146D+05 0.11977955D+01  1  2 12  7  6  5       21 0.181494523030D-06 0.100000000000D+01
0.102516179590D-08 0.000000000000D+00 0.000000000000D+00 0.121680399323D-04 0.000000000000D+00  6 2 -1 25 24 2 -2 4 0.16221553D-01 0.70231968D-01 0.44024146D+05 0.44024146D+05 0.44024146D+05 0.11977955D+01  1  2 12  7  6  5       21 0.181335540533D-06 0.100000000000D+01
-.312939750069D-04 0.000000000000D+00 0.000000000000D+00 0.121678466724D-04 0.000000000000D+00  6 2 -1 25 24 2 -2 4 0.16221553D-01 0.70231968D-01 0.44033745D+05 0.44033745D+05 0.44033745D+05 0.11977860D+01  1  2  5  7  6  5       21 -.553525881191D-02 0.100000000000D+01
0.291750051922D-04 0.000000000000D+00 0.000000000000D+00 0.121678466724D-04 0.378078928066D-06  6 2 -1 25 24 2 -2 4 0.16221553D-01 0.70231968D-01 0.44024146D+05 0.44024146D+05 0.44024146D+05 0.11977955D+01  1  2 11  7  6  5       21 0.516061499536D-02 0.100000000000D+01
0.102606058707D-08 0.000000000000D+00 0.000000000000D+00 0.121680399323D-04 0.000000000000D+00  6 2 -1 25 24 3 -3 4 0.16221553D-01 0.70231968D-01 0.44024146D+05 0.44024146D+05 0.44024146D+05 0.11977955D+01  1  2 12  8  6  5       21 0.181494523030D-06 0.100000000000D+01
0.102606058707D-08 0.000000000000D+00 0.000000000000D+00 0.121680399323D-04 0.000000000000D+00  6 2 -1 25 24 4 -4 4 0.16221553D-01 0.70231968D-01 0.44024146D+05 0.44024146D+05 0.44024146D+05 0.11977955D+01  1  2 12  8  6  5       21 0.181494523030D-06 0.100000000000D+01
0.102516179590D-08 0.000000000000D+00 0.000000000000D+00 0.121680399323D-04 0.000000000000D+00  6 2 -1 25 24 3 -3 4 0.16221553D-01 0.70231968D-01 0.44024146D+05 0.44024146D+05 0.44024146D+05 0.11977955D+01  1  2 12  8  6  5       21 0.181335540533D-06 0.100000000000D+01
0.102516179590D-08 0.000000000000D+00 0.000000000000D+00 0.121680399323D-04 0.000000000000D+00  6 2 -1 25 24 4 -4 4 0.16221553D-01 0.70231968D-01 0.44024146D+05 0.44024146D+05 0.44024146D+05 0.11977955D+01  1  2 12  8  6  5       21 0.181335540533D-06 0.100000000000D+01
-.312939750069D-04 0.000000000000D+00 0.000000000000D+00 0.121678466724D-04 0.000000000000D+00  6 2 -1 25 24 3 -3 4 0.16221553D-01 0.70231968D-01 0.44033745D+05 0.44033745D+05 0.44033745D+05 0.11977860D+01  1  2  5  8  6  5       21 -.553525881191D-02 0.100000000000D+01
-.312939750069D-04 0.000000000000D+00 0.000000000000D+00 0.121678466724D-04 0.000000000000D+00  6 2 -1 25 24 4 -4 4 0.16221553D-01 0.70231968D-01 0.44033745D+05 0.44033745D+05 0.44033745D+05 0.11977860D+01  1  2  5  8  6  5       21 -.553525881191D-02 0.100000000000D+01
0.291805313719D-04 0.000000000000D+00 0.000000000000D+00 0.121678466724D-04 0.378148088045D-06  6 2 -1 25 24 3 -3 4 0.16221553D-01 0.70231968D-01 0.44024146D+05 0.44024146D+05 0.44024146D+05 0.11977955D+01  1  2 11  8  6  5       21 0.516159249255D-02 0.100000000000D+01
0.291805313719D-04 0.000000000000D+00 0.000000000000D+00 0.121678466724D-04 0.378148088045D-06  6 2 -1 25 24 4 -4 4 0.16221553D-01 0.70231968D-01 0.44024146D+05 0.44024146D+05 0.44024146D+05 0.11977955D+01  1  2 11  8  6  5       21 0.516159249255D-02 0.100000000000D+01
  </mgrwgt>
  </event>
</LesHouchesEvents>
