<event>
 5    0  0.1911311E+001  0.2789660E+03  0.7546771E-02  0.1096255E+00
         21   -1    0    0  504  501  0.00000000000E+00  0.00000000000E+00  0.27659507729E+03  0.27659507729E+03  0.00000000000E+00 0.  1.
         21   -1    0    0  503  502 -0.00000000000E+00 -0.00000000000E+00 -0.28437713879E+03  0.28437713879E+03  0.00000000000E+00 0.  1.
         25    1    1    2    0    0 -0.23567886093E+03  0.32504293169E+02 -0.52215347218E+01  0.26879977491E+03  0.12500000000E+03 0.  0.
         21    1    1    2  503  501  0.25458668216E+03 -0.55914513936E+02 -0.11103691287E+02  0.26089098022E+03  0.00000000000E+00 0.  1.
         21    1    1    2  504  502 -0.18907821222E+02  0.23410220766E+02  0.85431645119E+01  0.31281460956E+02  0.00000000000E+00 0.  1.
<mgrwt>
<rscale>  4 0.27896599E+03</rscale>
<asrwt>0</asrwt>
<pdfrwt beam="1">  1       21 0.42553089E-01 0.27896599E+03</pdfrwt>
<pdfrwt beam="2">  1       21 0.43750329E-01 0.27896599E+03</pdfrwt>
<totfact> 0.25572107E+04</totfact>
</mgrwt>
</event>
<event>
 5    0  0.1911311E+001  0.2619531E+03  0.7546771E-02  0.1105975E+00
         21   -1    0    0  504  501  0.00000000000E+00  0.00000000000E+00  0.10752771280E+04  0.10752771280E+04  0.00000000000E+00 0.  1.
         21   -1    0    0  503  502 -0.00000000000E+00 -0.00000000000E+00 -0.11490716954E+03  0.11490716954E+03  0.00000000000E+00 0.  1.
         25    1    1    2    0    0  0.13521014286E+03 -0.20158832485E+03  0.40061436524E+03  0.48480563640E+03  0.12500000000E+03 0.  0.
         21    1    1    2  503  501 -0.90149717952E+02  0.20753578670E+03  0.10690587267E+03  0.25025375126E+03  0.00000000000E+00 0.  1.
         21    1    1    2  504  502 -0.45060424910E+02 -0.59474618482E+01  0.45284972050E+03  0.45512490984E+03  0.00000000000E+00 0.  1.
<mgrwt>
<rscale>  4 0.26195305E+03</rscale>
<asrwt>0</asrwt>
<pdfrwt beam="1">  1       21 0.16542724E+00 0.26195305E+03</pdfrwt>
<pdfrwt beam="2">  1       21 0.17678027E-01 0.26195305E+03</pdfrwt>
<totfact> 0.63440939E+03</totfact>
</mgrwt>
</event>
<event>
 5    0  0.1911311E+001  0.2738543E+03  0.7546771E-02  0.1099094E+00
         21   -1    0    0  504  501  0.00000000000E+00  0.00000000000E+00  0.21363750933E+03  0.21363750933E+03  0.00000000000E+00 0. -1.
         21   -1    0    0  503  502 -0.00000000000E+00 -0.00000000000E+00 -0.48430513100E+03  0.48430513100E+03  0.00000000000E+00 0. -1.
         25    1    1    2    0    0 -0.17612908816E+02 -0.22654583007E+03 -0.14521187374E+03  0.29722839023E+03  0.12500000000E+03 0.  0.
         21    1    1    2  503  501 -0.39327053534E+00 -0.25132749687E+02 -0.14544576601E+03  0.14760176360E+03  0.00000000000E+00 0.  1.
         21    1    1    2  504  502  0.18006179351E+02  0.25167857976E+03  0.19990018071E+02  0.25311248651E+03  0.00000000000E+00 0. -1.
<mgrwt>
<rscale>  4 0.27385429E+03</rscale>
<asrwt>0</asrwt>
<pdfrwt beam="1">  1       21 0.32867309E-01 0.27385429E+03</pdfrwt>
<pdfrwt beam="2">  1       21 0.74508482E-01 0.27385429E+03</pdfrwt>
<totfact> 0.13735362E+04</totfact>
</mgrwt>
</event>
<event>
 5    0  0.1911311E+001  0.2287311E+03  0.7546771E-02  0.1127536E+00
         21   -1    0    0  503  501  0.00000000000E+00  0.00000000000E+00  0.52379773998E+03  0.52379773998E+03  0.00000000000E+00 0. -1.
         21   -1    0    0  504  502 -0.00000000000E+00 -0.00000000000E+00 -0.20171755350E+03  0.20171755350E+03  0.00000000000E+00 0. -1.
         25    1    1    2    0    0 -0.13515618477E+03 -0.19273570699E+03  0.22703644166E+03  0.35012111172E+03  0.12500000000E+03 0.  0.
         21    1    1    2  503  502  0.15963154970E+02  0.18589563886E+03 -0.44433532629E+02  0.19179767904E+03  0.00000000000E+00 0. -1.
         21    1    1    2  504  501  0.11919302980E+03  0.68400681340E+01  0.13947727745E+03  0.18359650272E+03  0.00000000000E+00 0. -1.
<mgrwt>
<rscale>  4 0.22873113E+03</rscale>
<asrwt>0</asrwt>
<pdfrwt beam="1">  1       21 0.80584267E-01 0.22873113E+03</pdfrwt>
<pdfrwt beam="2">  1       21 0.31033470E-01 0.22873113E+03</pdfrwt>
<totfact> 0.13192042E+04</totfact>
</mgrwt>
</event>
<event>
 5    0  0.1911311E+001  0.2588176E+03  0.7546771E-02  0.1107856E+00
         21   -1    0    0  503  501  0.00000000000E+00  0.00000000000E+00  0.15274723684E+03  0.15274723684E+03  0.00000000000E+00 0.  1.
         21   -1    0    0  504  502 -0.00000000000E+00 -0.00000000000E+00 -0.76643761071E+03  0.76643761071E+03  0.00000000000E+00 0.  1.
         25    1    1    2    0    0 -0.21210235550E+03  0.10524382822E+03 -0.51647623511E+03  0.58175284616E+03  0.12500000000E+03 0.  0.
         21    1    1    2  503  502  0.19794554813E+02  0.11175623530E+02 -0.10994485966E+03  0.11227017025E+03  0.00000000000E+00 0.  1.
         21    1    1    2  504  501  0.19230780069E+03 -0.11641945175E+03  0.12730720891E+02  0.22516183114E+03  0.00000000000E+00 0.  1.
<mgrwt>
<rscale>  4 0.25881762E+03</rscale>
<asrwt>0</asrwt>
<pdfrwt beam="1">  1       21 0.23499575E-01 0.25881762E+03</pdfrwt>
<pdfrwt beam="2">  1       21 0.11791348E+00 0.25881762E+03</pdfrwt>
<totfact> 0.90023174E+03</totfact>
</mgrwt>
</event>
