<LesHouchesEvents version="3.0">
  <!--
  <scalesfunctionalform>
    muR  H_T/2 := sum_i mT(i)/2, i=final state
    muF1 H_T/2 := sum_i mT(i)/2, i=final state
    muF2 H_T/2 := sum_i mT(i)/2, i=final state
    QES  H_T/2 := sum_i mT(i)/2, i=final state
  </scalesfunctionalform>
HERWIG6   
  -->
  <header>
      225
  </header>
  <init>
   2212   2212 0.65000000D+04 0.65000000D+04 -1 -1   244800   244800 -4   1
 0.20423988D-03 0.95420982D-05 0.17338086D-05     66
  </init>
  <event>
  5     66 -.17338086E-05 0.48697037E+02 0.75467711E-02 0.94781998E-01
        2 -1    0    0  502    0 0.00000000E+00 0.00000000E+00 0.32791703E+04 0.32791703E+04 0.32000000E+00 0.0000E+00 0.9000E+01
        3 -1    0    0  501    0 0.00000000E+00 0.00000000E+00 -.37621286E+03 0.37621320E+03 0.50000000E+00 0.0000E+00 0.9000E+01
       25  1    1    2    0    0 0.43000445E+03 -.21544210E+03 0.11014146E+04 0.12083287E+04 0.12500000E+03 0.0000E+00 0.9000E+01
        4  1    1    2  501    0 -.38142299E+03 0.21887177E+03 -.17251970E+03 0.47239157E+03 0.15500000E+01 0.0000E+00 0.9000E+01
        1  1    1    2  502    0 -.48581462E+02 -.34296666E+01 0.19740625E+04 0.19746632E+04 0.32000000E+00 0.0000E+00 0.9000E+01
#aMCatNLO 1  0  0  4  2 0.95548514D+01 0.00000000D+00  -5  6  0 0.00000000D+00 0.00000000D+00 0.00000000D+00 0.00000000D+00 0.00000000D+00
  <mgrwgt>
 -.7613525015D-02    8    2    0
 0.111070548409571D+04 0.000000000000000D+00 0.000000000000000D+00 0.111070548409571D+04
 0.111070548409571D+04 -.000000000000000D+00 -.000000000000000D+00 -.111070548409571D+04
 0.549055599980298D+03 0.430032991158889D+03 -.215461178674606D+03 0.233420562223668D+03
 0.100279497525036D+04 -.381456851057558D+03 0.218890469595796D+03 -.901207742692418D+03
 0.669560392960762D+03 -.485761401013309D+02 -.342929092118927D+01 0.667787180468751D+03
 0.000000000000000D+00 0.000000000000000D+00 0.000000000000000D+00 -.000000000000000D+00
 0.111070548409571D+04 0.000000000000000D+00 0.000000000000000D+00 0.111070548409571D+04
 0.111070548409571D+04 -.000000000000000D+00 -.000000000000000D+00 -.111070548409571D+04
 0.548845718874503D+03 0.429928703621627D+03 -.215401335607321D+03 0.233174178561175D+03
 0.959765074547600D+03 -.368810381419263D+03 0.217536747966624D+03 -.858956147985940D+03
 0.669269610257680D+03 -.487033129915074D+02 -.335631560675089D+01 0.667486729204159D+03
 0.435305645116423D+02 -.124150092108567D+02 0.122090324744827D+01 -.417047597793940D+02
0.355944930328D-03 0.000000000000D+00 0.000000000000D+00 0.266675698245D-03 0.000000000000D+00  6 2 3 25 4 1 21 0 0.50448776D+00 0.57878929D-01 0.24278425D+06 0.24278425D+06 0.24278425D+06 0.10914173D+01  1  2  2  3  6  4        4 0.107871518845D-03 0.100000000000D+01
0.140361892537D-03 0.000000000000D+00 -.136692225491D-05 0.266675698245D-03 0.000000000000D+00  6 2 3 25 4 1 21 2 0.50448776D+00 0.57878929D-01 0.24278425D+06 0.24278425D+06 0.24278425D+06 0.10914173D+01  1  2  3  3  6  4        4 0.506704604048D-04 0.100000000000D+01
-.248111939455D-03 0.000000000000D+00 0.000000000000D+00 0.266675698245D-03 0.000000000000D+00  6 2 3 25 4 1 21 2 0.50448776D+00 0.57878929D-01 0.24278425D+06 0.24278425D+06 0.24278425D+06 0.10914173D+01  1  2 15  3  6  4        4 -.895680870136D-04 0.100000000000D+01
0.231690119142D-01 0.000000000000D+00 0.000000000000D+00 0.266675698245D-03 0.000000000000D+00  6 2 3 25 4 1 21 2 0.50448776D+00 0.57878929D-01 0.24321237D+06 0.24321237D+06 0.24321237D+06 0.10913596D+01  1  2 12  3  6  4        4 0.836200268327D-02 0.100000000000D+01
-.459006714156D-01 0.000000000000D+00 0.000000000000D+00 0.266675698245D-03 0.000000000000D+00  6 2 3 25 4 1 21 2 0.50448776D+00 0.57878929D-01 0.24278425D+06 0.24278425D+06 0.24278425D+06 0.10914173D+01  1  2  4  3  6  4        4 -.165700826021D-01 0.100000000000D+01
-.328077362547D-01 0.000000000000D+00 0.000000000000D+00 0.266675698245D-03 0.000000000000D+00  6 2 3 25 4 1 21 2 0.50448776D+00 0.57878929D-01 0.24278425D+06 0.24278425D+06 0.24278425D+06 0.10914173D+01  1  2  5  3  6  4        4 -.118435500606D-01 0.100000000000D+01
0.342627754535D-01 0.000000000000D+00 -.000000000000D+00 0.266675698245D-03 0.000000000000D+00  6 2 3 25 4 1 21 2 0.50448776D+00 0.57878929D-01 0.24278425D+06 0.24278425D+06 0.24278425D+06 0.10914173D+01  1  2  6  3  6  4        4 0.123688173164D-01 0.100000000000D+01
0.869337219640D-06 0.000000000000D+00 0.000000000000D+00 0.266675698245D-03 0.403504766008D-04  6 2 3 25 4 1 21 2 0.50448776D+00 0.57878929D-01 0.24321237D+06 0.24321237D+06 0.24321237D+06 0.10913596D+01  1  2 11  3  6  4        4 0.313755294797D-06 0.100000000000D+01
  </mgrwgt>
  </event>
  <event>
  5     66 -.17338086E-05 0.58009626E+02 0.75467711E-02 0.93811452E-01
        2 -1    0    0  502    0 0.00000000E+00 0.00000000E+00 0.17946106E+04 0.17946106E+04 0.32000000E+00 0.0000E+00 0.9000E+01
        3 -1    0    0  501    0 0.00000000E+00 0.00000000E+00 -.14176100E+04 0.14176101E+04 0.50000000E+00 0.0000E+00 0.9000E+01
       25  1    1    2    0    0 0.36588056E+03 0.36865616E+03 -.12144651E+03 0.54785966E+03 0.12500000E+03 0.0000E+00 0.9000E+01
        4  1    1    2  501    0 -.31030000E+03 -.35204623E+03 -.10315427E+04 0.11332720E+04 0.15500000E+01 0.0000E+00 0.9000E+01
        1  1    1    2  502    0 -.55580559E+02 -.16609933E+02 0.15299898E+04 0.15310891E+04 0.32000000E+00 0.0000E+00 0.9000E+01
#aMCatNLO 1  0  0  5  5 0.13221805D+02 0.00000000D+00  -5  6  0 0.00000000D+00 0.00000000D+00 0.00000000D+00 0.00000000D+00 0.00000000D+00
  <mgrwgt>
 -.1034598303D-01    4    2    0
 0.159501041348697D+04 0.000000000000000D+00 0.000000000000000D+00 0.159501041348697D+04
 0.159501041348697D+04 -.000000000000000D+00 -.000000000000000D+00 -.159501041348697D+04
 0.566022517412599D+03 0.365877372985547D+03 0.368652425285399D+03 -.187044453236347D+03
 0.126306444149097D+04 -.310296580488900D+03 -.352042423130007D+03 -.117265252645980D+04
 0.136093386807037D+04 -.555807924966503D+02 -.166100021553925D+02 0.135969697969615D+04
 0.000000000000000D+00 0.000000000000000D+00 -.000000000000000D+00 0.000000000000000D+00
 0.159501041348697D+04 0.000000000000000D+00 0.000000000000000D+00 0.159501041348697D+04
 0.159501041348697D+04 -.000000000000000D+00 -.000000000000000D+00 -.159501041348697D+04
 0.565980361258750D+03 0.365872648500862D+03 0.368651013400154D+03 -.186928876122949D+03
 0.126282848126292D+04 -.310307122460705D+03 -.352045573538026D+03 -.117239463364144D+04
 0.151072926278206D+03 0.183186687940077D+01 0.869701595895865D+01 0.150811256978403D+03
 0.121013905817406D+04 -.573973929195608D+02 -.253024558210872D+02 0.120851225278599D+04
0.397081960658D-02 0.000000000000D+00 0.000000000000D+00 0.892001959694D-03 0.000000000000D+00  6 2 3 25 4 1 21 0 0.27609395D+00 0.21809386D+00 0.28169976D+06 0.28169976D+06 0.28169976D+06 0.10865800D+01  1  2  2  4  6  5        1 0.249660949471D-03 0.100000000000D+01
0.184289653919D-02 0.000000000000D+00 -.152489928301D-04 0.892001959694D-03 0.000000000000D+00  6 2 3 25 4 1 21 2 0.27609395D+00 0.21809386D+00 0.28169976D+06 0.28169976D+06 0.28169976D+06 0.10865800D+01  1  2  3  4  6  5        1 0.136802756373D-03 0.100000000000D+01
-.228222529157D-02 0.000000000000D+00 0.000000000000D+00 0.892001959694D-03 0.000000000000D+00  6 2 3 25 4 1 21 2 0.27609395D+00 0.21809386D+00 0.28169976D+06 0.28169976D+06 0.28169976D+06 0.10865800D+01  1  2 15  4  6  5        1 -.169415213449D-03 0.100000000000D+01
-.142296652195D+00 0.000000000000D+00 0.000000000000D+00 0.892001959694D-03 0.000000000000D+00  6 2 3 25 4 1 21 2 0.27609395D+00 0.21809386D+00 0.28169976D+06 0.28169976D+06 0.28169976D+06 0.10865800D+01  1  2  5  4  6  5        1 -.105630315262D-01 0.100000000000D+01
  </mgrwgt>
  </event>
  <event>
  5     66 0.17338086E-05 0.43215242E+02 0.75467711E-02 0.89346103E-01
        2 -1    0    0  502    0 0.00000000E+00 0.00000000E+00 0.22668497E+04 0.22668498E+04 0.32000000E+00 0.0000E+00 0.9000E+01
        3 -1    0    0  501    0 0.00000000E+00 0.00000000E+00 -.47488610E+03 0.47488637E+03 0.50000000E+00 0.0000E+00 0.9000E+01
       25  1    1    2    0    0 0.27569801E+03 0.57767242E+03 0.58571644E+03 0.87658632E+03 0.12500000E+03 0.0000E+00 0.9000E+01
        4  1    1    2  501    0 -.24691529E+03 -.54542835E+03 -.56761912E+02 0.60140133E+03 0.15500000E+01 0.0000E+00 0.9000E+01
        1  1    1    2  502    0 -.28782721E+02 -.32244077E+02 0.12630091E+04 0.12637485E+04 0.32000000E+00 0.0000E+00 0.9000E+01
#aMCatNLO 1  0  0  4  4 0.32254475D+03 0.00000000D+00  -5  6  0 0.00000000D+00 0.00000000D+00 0.00000000D+00 0.00000000D+00 0.00000000D+00
  <mgrwgt>
 0.1026592187D-02    4    2    0
 0.103754316850938D+04 0.000000000000000D+00 0.000000000000000D+00 0.103754316850938D+04
 0.103754316850938D+04 -.000000000000000D+00 -.000000000000000D+00 -.103754316850938D+04
 0.652456375083695D+03 0.275720053573951D+03 0.577723739422711D+03 0.169721640332901D+02
 0.843658633210942D+03 -.246941710943479D+03 -.545484568135869D+03 -.594328416545336D+03
 0.578971328724120D+03 -.287783426304715D+02 -.322391712868418D+02 0.577356252512046D+03
 0.000000000000000D+00 0.000000000000000D+00 0.000000000000000D+00 0.000000000000000D+00
 0.103754316850938D+04 0.000000000000000D+00 0.000000000000000D+00 0.103754316850938D+04
 0.103754316850938D+04 -.000000000000000D+00 -.000000000000000D+00 -.103754316850938D+04
 0.538702406529431D+03 0.222999063903040D+03 0.461265138028658D+03 -.109914388222707D+03
 0.669062224293791D+03 -.517958487924621D+03 -.253260434552687D+03 -.339444276802512D+03
 0.489243430887142D+03 -.760577987173516D+02 -.136677638108486D+03 0.463566143243419D+03
 0.378078275308393D+03 0.371017222738932D+03 -.713270653674854D+02 -.142074782182004D+02
0.202849223485D-02 0.000000000000D+00 0.000000000000D+00 0.329876545315D-04 0.000000000000D+00  6 2 3 25 4 1 21 0 0.34874613D+00 0.73059422D-01 0.41875627D+06 0.41875627D+06 0.41875627D+06 0.10739959D+01  1  2  2  3  6  4        4 0.148987523529D-02 0.100000000000D+01
0.102075917838D-02 0.000000000000D+00 -.778994429609D-05 0.329876545315D-04 0.000000000000D+00  6 2 3 25 4 1 21 2 0.34874613D+00 0.73059422D-01 0.41875627D+06 0.41875627D+06 0.41875627D+06 0.10739959D+01  1  2  3  3  6  4        4 0.864778895736D-03 0.100000000000D+01
-.155217957588D-02 0.000000000000D+00 0.000000000000D+00 0.329876545315D-04 0.000000000000D+00  6 2 3 25 4 1 21 2 0.34874613D+00 0.73059422D-01 0.41875627D+06 0.41875627D+06 0.41875627D+06 0.10739959D+01  1  2 15  3  6  4        4 -.131499394572D-02 0.100000000000D+01
-.154250744742D-04 0.000000000000D+00 0.000000000000D+00 0.329876545315D-04 0.000000000000D+00  6 2 3 25 4 1 21 2 0.34874613D+00 0.73059422D-01 0.41875627D+06 0.41875627D+06 0.41875627D+06 0.10739959D+01  1  2  4  3  6  4        4 -.130679979695D-04 0.100000000000D+01
  </mgrwgt>
  </event>
  <event>
  5     66 0.17338086E-05 0.97651021E+02 0.75467711E-02 0.94834473E-01
        2 -1    0    0  502    0 0.00000000E+00 0.00000000E+00 0.14491189E+04 0.14491189E+04 0.32000000E+00 0.0000E+00 0.9000E+01
        3 -1    0    0  501    0 0.00000000E+00 0.00000000E+00 -.55427103E+03 0.55427125E+03 0.50000000E+00 0.0000E+00 0.9000E+01
       25  1    1    2    0    0 0.46842692E+03 0.92847220E+02 0.38625152E+03 0.62678515E+03 0.12500000E+03 0.0000E+00 0.9000E+01
        4  1    1    2  501    0 -.38875288E+03 -.36366666E+02 -.34282627E+03 0.51959945E+03 0.15500000E+01 0.0000E+00 0.9000E+01
        1  1    1    2  502    0 -.79674042E+02 -.56480555E+02 0.85142263E+03 0.85700560E+03 0.32000000E+00 0.0000E+00 0.9000E+01
#aMCatNLO 1  0  0  4  2 0.13023080D+02 0.00000000D+00  -5  6  0 0.00000000D+00 0.00000000D+00 0.00000000D+00 0.00000000D+00 0.00000000D+00
  <mgrwgt>
 0.6452884958D-02    3    2    0
 0.896216987089772D+03 0.000000000000000D+00 0.000000000000000D+00 0.896216987089772D+03
 0.896216987089772D+03 -.000000000000000D+00 -.000000000000000D+00 -.896216987089772D+03
 0.507764312195286D+03 0.468455716276267D+03 0.928456472787647D+02 0.118863469613794D+03
 0.751925714385859D+03 -.388791215184703D+03 -.363718561276838D+02 -.642581324838898D+03
 0.532743947598399D+03 -.796645010915643D+02 -.564737911510809D+02 0.523717855225103D+03
 0.000000000000000D+00 0.000000000000000D+00 0.000000000000000D+00 0.000000000000000D+00
 0.896216987089772D+03 0.000000000000000D+00 0.000000000000000D+00 0.896216987089772D+03
 0.896216987089772D+03 -.000000000000000D+00 -.000000000000000D+00 -.896216987089772D+03
 0.392096762751169D+03 0.356221931564138D+03 0.823460502951351D+02 -.666328360003693D+02
 0.435371002194142D+03 0.402208907407677D+03 -.338677893275590D+02 -.163183569024333D+03
 0.391812300496508D+03 -.194978353187136D+03 -.672615319079204D+02 0.333130915608561D+03
 0.573153908737726D+03 -.563452485784678D+03 0.187832709403443D+02 -.103314510583859D+03
0.108993681866D-01 0.000000000000D+00 0.000000000000D+00 0.270351948453D-04 0.000000000000D+00  6 2 3 25 4 1 21 0 0.22294139D+00 0.85272486D-01 0.24098068D+06 0.24098068D+06 0.24098068D+06 0.10916616D+01  1  2  2  3  6  4        4 0.163764191415D-01 0.100000000000D+01
0.214043930839D-02 0.000000000000D+00 -.418564437060D-04 0.270351948453D-04 0.000000000000D+00  6 2 3 25 4 1 21 2 0.22294139D+00 0.85272486D-01 0.24098068D+06 0.24098068D+06 0.24098068D+06 0.10916616D+01  1  2  3  3  6  4        4 0.383262774286D-02 0.100000000000D+01
-.768251750368D-02 0.000000000000D+00 0.000000000000D+00 0.270351948453D-04 0.000000000000D+00  6 2 3 25 4 1 21 2 0.22294139D+00 0.85272486D-01 0.24098068D+06 0.24098068D+06 0.24098068D+06 0.10916616D+01  1  2 15  3  6  4        4 -.137561619263D-01 0.100000000000D+01
  </mgrwgt>
  </event>
  <event>
  5     66 0.17338086E-05 0.22968641E+02 0.75467711E-02 0.92861895E-01
        2 -1    0    0  502    0 0.00000000E+00 0.00000000E+00 0.23903946E+04 0.23903947E+04 0.32000000E+00 0.0000E+00 0.9000E+01
        3 -1    0    0  501    0 0.00000000E+00 0.00000000E+00 -.43539693E+03 0.43539722E+03 0.50000000E+00 0.0000E+00 0.9000E+01
       25  1    1    2    0    0 -.28927442E+03 0.35779195E+03 0.10616813E+04 0.11638243E+04 0.12500000E+03 0.0000E+00 0.9000E+01
        4  1    1    2  501    0 0.30941641E+03 -.34674103E+03 -.24368057E+03 0.52473849E+03 0.15500000E+01 0.0000E+00 0.9000E+01
        1  1    1    2  502    0 -.20141989E+02 -.11050912E+02 0.11369970E+04 0.11372291E+04 0.32000000E+00 0.0000E+00 0.9000E+01
#aMCatNLO 1  0  0  5  1 0.17896076D+02 0.00000000D+00  -5  6  0 0.00000000D+00 0.00000000D+00 0.00000000D+00 0.00000000D+00 0.00000000D+00
  <mgrwgt>
 0.6104151919D-02    6    2    0
 0.102018181088537D+04 0.000000000000000D+00 0.000000000000000D+00 0.102018181088537D+04
 0.102018181088537D+04 -.000000000000000D+00 -.000000000000000D+00 -.102018181088537D+04
 0.594678369908932D+03 -.289314629955259D+03 0.357830004651980D+03 0.355347852536301D+03
 0.960233387039581D+03 0.309451582432548D+03 -.346781855695050D+03 -.840256044474656D+03
 0.485451864822221D+03 -.201369524772889D+02 -.110481489569306D+02 0.484908191938355D+03
 0.000000000000000D+00 0.000000000000000D+00 -.000000000000000D+00 0.000000000000000D+00
 0.102018181088537D+04 0.000000000000000D+00 0.000000000000000D+00 0.102018181088537D+04
 0.102018181088537D+04 -.000000000000000D+00 -.000000000000000D+00 -.102018181088537D+04
 0.605246539831648D+03 -.290030428097641D+03 0.357437281646399D+03 0.372584640645472D+03
 0.936343052480143D+03 0.308320206726223D+03 -.347402585537056D+03 -.813011934484544D+03
 0.267495521323807D+03 0.732846076484534D+02 0.753608267120727D+02 0.245975539449313D+03
 0.231278508135135D+03 -.915743862770351D+02 -.853955228214148D+02 0.194451754389759D+03
0.536706730970D-02 0.000000000000D+00 0.000000000000D+00 0.252700578556D-03 0.000000000000D+00  6 2 3 25 4 1 21 0 0.36775305D+00 0.66984167D-01 0.23260341D+06 0.23260341D+06 0.23260341D+06 0.10928234D+01  1  2  2  4  6  5        1 0.419888626988D-02 0.100000000000D+01
0.311971889088D-02 0.000000000000D+00 -.206109516505D-04 0.252700578556D-03 0.000000000000D+00  6 2 3 25 4 1 21 2 0.36775305D+00 0.66984167D-01 0.23260341D+06 0.23260341D+06 0.23260341D+06 0.10928234D+01  1  2  3  4  6  5        1 0.291482537747D-02 0.100000000000D+01
-.395186408304D-02 0.000000000000D+00 0.000000000000D+00 0.252700578556D-03 0.000000000000D+00  6 2 3 25 4 1 21 2 0.36775305D+00 0.66984167D-01 0.23260341D+06 0.23260341D+06 0.23260341D+06 0.10928234D+01  1  2 15  4  6  5        1 -.369231784031D-02 0.100000000000D+01
-.156474334728D-03 0.000000000000D+00 0.000000000000D+00 0.252700578556D-03 0.000000000000D+00  6 2 3 25 4 1 21 2 0.36775305D+00 0.66984167D-01 0.23260341D+06 0.23260341D+06 0.23260341D+06 0.10928234D+01  1  2  4  4  6  5        1 -.146197583097D-03 0.100000000000D+01
-.499051083117D-02 0.000000000000D+00 0.000000000000D+00 0.252700578556D-03 0.000000000000D+00  6 2 3 25 4 1 21 2 0.36775305D+00 0.66984167D-01 0.23260341D+06 0.23260341D+06 0.23260341D+06 0.10928234D+01  1  2  5  4  6  5        1 -.466274947392D-02 0.100000000000D+01
0.801832395244D-02 0.000000000000D+00 -.000000000000D+00 0.252700578556D-03 0.000000000000D+00  6 2 3 25 4 1 21 2 0.36775305D+00 0.66984167D-01 0.23260341D+06 0.23260341D+06 0.23260341D+06 0.10928234D+01  1  2  6  4  6  5        1 0.749170516923D-02 0.100000000000D+01
  </mgrwgt>
  </event>
  <event>
  5     66 0.17338086E-05 0.15821897E+02 0.75467711E-02 0.94398078E-01
        2 -1    0    0  502    0 0.00000000E+00 0.00000000E+00 0.49225384E+03 0.49225394E+03 0.32000000E+00 0.0000E+00 0.9000E+01
        3 -1    0    0  501    0 -.00000000E+00 -.00000000E+00 -.71421809E+03 0.71421826E+03 0.50000000E+00 0.0000E+00 0.9000E+01
       25  1    1    2    0    0 -.46111809E+03 -.73522811E+02 0.66189795E+02 0.48789505E+03 0.12500000E+03 0.0000E+00 0.9000E+01
        4  1    1    2  501    0 0.46808148E+03 0.87760950E+02 -.38997069E+03 0.61553375E+03 0.15500000E+01 0.0000E+00 0.9000E+01
        1  1    1    2  502    0 -.69633910E+01 -.14238139E+02 0.10181664E+03 0.10304341E+03 0.32000000E+00 0.0000E+00 0.9000E+01
#aMCatNLO 1  0  0  5  5 0.86077041D+01 0.00000000D+00  -5  6  0 0.00000000D+00 0.00000000D+00 0.00000000D+00 0.00000000D+00 0.00000000D+00
  <mgrwgt>
 0.1069263862D-01    6    2    0
 0.592939088205882D+03 0.000000000000000D+00 0.000000000000000D+00 0.592939088205882D+03
 0.592939088205882D+03 -.000000000000000D+00 -.000000000000000D+00 -.592939088205882D+03
 0.508917747057513D+03 -.461239099737468D+03 -.735607334648930D+02 0.158806752487329D+03
 0.553288091012718D+03 0.468190269874686D+03 0.877738841090494D+02 -.281462836125086D+03
 0.123672338341533D+03 -.695117013721809D+01 -.142131506441564D+02 0.122656083637757D+03
 0.000000000000000D+00 0.000000000000000D+00 0.000000000000000D+00 0.000000000000000D+00
 0.592939088205882D+03 0.000000000000000D+00 0.000000000000000D+00 0.592939088205882D+03
 0.592939088205882D+03 -.000000000000000D+00 -.000000000000000D+00 -.592939088205882D+03
 0.512611899322855D+03 -.461778321157267D+03 -.746632867212335D+02 0.168321522844061D+03
 0.547458205145130D+03 0.467609233403785D+03 0.865858310578884D+02 -.271210223030522D+03
 0.975733460922194D+02 0.685004154628131D+01 -.342328128624342D+02 0.911139359372198D+02
 0.282347258515591D+02 -.126809537927992D+02 0.223102685257793D+02 0.117747642492414D+02
0.265006324000D-02 0.000000000000D+00 0.000000000000D+00 0.596233112449D-05 0.000000000000D+00  6 2 3 25 4 1 21 0 0.75731381D-01 0.10987973D+00 0.23798515D+06 0.23798515D+06 0.23798515D+06 0.10920719D+01  1  2  2  4  6  5        1 0.950597415788D-02 0.100000000000D+01
0.132786266626D-02 0.000000000000D+00 -.101769406193D-04 0.596233112449D-05 0.000000000000D+00  6 2 3 25 4 1 21 2 0.75731381D-01 0.10987973D+00 0.23798515D+06 0.23798515D+06 0.23798515D+06 0.10920719D+01  1  2  3  4  6  5        1 0.568062403660D-02 0.100000000000D+01
-.198401962543D-02 0.000000000000D+00 0.000000000000D+00 0.596233112449D-05 0.000000000000D+00  6 2 3 25 4 1 21 2 0.75731381D-01 0.10987973D+00 0.23798515D+06 0.23798515D+06 0.23798515D+06 0.10920719D+01  1  2 15  4  6  5        1 -.848767712178D-02 0.100000000000D+01
-.616618007228D-03 0.000000000000D+00 0.000000000000D+00 0.596233112449D-05 0.000000000000D+00  6 2 3 25 4 1 21 2 0.75731381D-01 0.10987973D+00 0.23798515D+06 0.23798515D+06 0.23798515D+06 0.10920719D+01  1  2  4  4  6  5        1 -.263790462844D-02 0.100000000000D+01
-.307741257669D-02 0.000000000000D+00 0.000000000000D+00 0.596233112449D-05 0.000000000000D+00  6 2 3 25 4 1 21 2 0.75731381D-01 0.10987973D+00 0.23798515D+06 0.23798515D+06 0.23798515D+06 0.10920719D+01  1  2  5  4  6  5        1 -.131652348529D-01 0.100000000000D+01
0.462757386923D-02 0.000000000000D+00 -.000000000000D+00 0.596233112449D-05 0.000000000000D+00  6 2 3 25 4 1 21 2 0.75731381D-01 0.10987973D+00 0.23798515D+06 0.23798515D+06 0.23798515D+06 0.10920719D+01  1  2  6  4  6  5        1 0.197968570249D-01 0.100000000000D+01
  </mgrwgt>
  </event>
  <event>
  5     66 0.17338086E-05 0.21120155E+02 0.75467711E-02 0.85088792E-01
        2 -1    0    0  502    0 0.00000000E+00 0.00000000E+00 0.10698667E+04 0.10698667E+04 0.32000000E+00 0.0000E+00 0.9000E+01
        3 -1    0    0  501    0 0.00000000E+00 0.00000000E+00 -.74716975E+03 0.74716992E+03 0.50000000E+00 0.0000E+00 0.9000E+01
       25  1    1    2    0    0 0.32474787E+03 -.59913126E+03 0.18214891E+03 0.71639561E+03 0.12500000E+03 0.0000E+00 0.9000E+01
        4  1    1    2  501    0 -.31059940E+03 0.58343668E+03 -.25211178E+03 0.70741296E+03 0.15500000E+01 0.0000E+00 0.9000E+01
        1  1    1    2  502    0 -.14148474E+02 0.15694587E+02 0.39265980E+03 0.39322808E+03 0.32000000E+00 0.0000E+00 0.9000E+01
#aMCatNLO 1  0  0  1  5 0.12166132D+03 0.00000000D+00  -5  6  0 0.00000000D+00 0.00000000D+00 0.00000000D+00 0.00000000D+00 0.00000000D+00
  <mgrwgt>
 0.1093586809D-02    3    2    0
 0.894076182718412D+03 0.000000000000000D+00 0.000000000000000D+00 0.894076182718412D+03
 0.894076182718412D+03 0.000000000000000D+00 0.000000000000000D+00 -.894076182718412D+03
 0.695194885885820D+03 0.324789399762460D+03 -.599212280974871D+03 0.559233179687215D+02
 0.764400024346022D+03 -.310647874037721D+03 0.583525400999026D+03 -.383801253209221D+03
 0.328557455204982D+03 -.141415257247389D+02 0.156868799758446D+02 0.327877935240500D+03
 0.000000000000000D+00 -.000000000000000D+00 0.000000000000000D+00 -.000000000000000D+00
 0.127184948094651D+04 0.000000000000000D+00 0.000000000000000D+00 0.127184948094651D+04
 0.177855632915517D+04 0.000000000000000D+00 0.000000000000000D+00 -.177855632915517D+04
 0.109321404108051D+04 0.344526872077173D+03 -.102842878048977D+04 0.559233179687215D+02
 0.553524472527834D+03 -.296102823474786D+03 0.267224732486550D+03 -.383801253209221D+03
 0.360488298271090D+03 -.653698893355093D+01 -.149683467852985D+03 0.327877935240500D+03
 0.104317899822223D+04 -.418870596688362D+02 0.910887515856204D+03 -.506706848208660D+03
0.918462339298D-03 0.000000000000D+00 0.000000000000D+00 0.104761015370D-04 0.000000000000D+00  6 2 3 25 4 1 21 0 0.16459489D+00 0.11494921D+00 0.47274209D+06 0.47274209D+06 0.47274209D+06 0.10702353D+01  1  2  2  1  6  1        2 0.107435379403D-02 0.100000000000D+01
0.621320707128D-03 0.000000000000D+00 -.352713721959D-05 0.104761015370D-04 0.000000000000D+00  6 2 3 25 4 1 21 2 0.16459489D+00 0.11494921D+00 0.47274209D+06 0.47274209D+06 0.47274209D+06 0.10702353D+01  1  2  3  1  6  1        2 0.832454159095D-03 0.100000000000D+01
-.606965718154D-03 0.000000000000D+00 0.000000000000D+00 0.104761015370D-04 0.000000000000D+00  6 2 3 25 4 1 21 2 0.16459489D+00 0.11494921D+00 0.47274209D+06 0.47274209D+06 0.47274209D+06 0.10702353D+01  1  2 15  1  6  1        2 -.813221144425D-03 0.100000000000D+01
  </mgrwgt>
  </event>
  <event>
  6     66 0.17338086E-05 0.85431621E+02 0.75467711E-02 0.92380219E-01
        2 -1    0    0  503    0 0.00000000E+00 0.00000000E+00 0.28121759E+04 0.28121759E+04 0.32000000E+00 0.0000E+00 0.9000E+01
        3 -1    0    0  501    0 0.00000000E+00 0.00000000E+00 -.83541837E+03 0.83541852E+03 0.50000000E+00 0.0000E+00 0.9000E+01
       25  1    1    2    0    0 0.48836941E+03 0.34700494E+02 -.22802274E+03 0.55437187E+03 0.12500000E+03 0.0000E+00 0.9000E+01
        4  1    1    2  501    0 -.33850510E+02 -.33541715E+02 -.39376141E+03 0.39663756E+03 0.15500000E+01 0.0000E+00 0.9000E+01
        1  1    1    2  502    0 -.56243878E+03 -.18135817E+02 0.16838505E+04 0.17753926E+04 0.32000000E+00 0.0000E+00 0.9000E+01
       21  1    1    2  503  502 0.10791988E+03 0.16977038E+02 0.91469112E+03 0.92119234E+03 0.75000000E+00 0.0000E+00 0.9000E+01
#aMCatNLO 2  0  0  1  5 0.85960164D+01 0.00000000D+00  -5  6  0 0.00000000D+00 0.00000000D+00 0.00000000D+00 0.00000000D+00 0.00000000D+00
  <mgrwgt>
 0.1157438121D-02    1    2    0
 0.125432733341049D+04 0.000000000000000D+00 0.000000000000000D+00 0.125432733341049D+04
 0.125432733341049D+04 0.000000000000000D+00 0.000000000000000D+00 -.125432733341049D+04
 0.720543647561528D+03 0.518893410553893D+03 0.394837483286294D+02 -.482440473160100D+03
 0.595752874877366D+03 -.819466478556552D+01 -.294907159217719D+02 -.594966077241485D+03
 0.119235814438208D+04 -.510698745768328D+03 -.999303240685747D+01 0.107740655040158D+04
 0.000000000000000D+00 0.000000000000000D+00 0.000000000000000D+00 0.000000000000000D+00
 0.186393617056116D+04 0.000000000000000D+00 0.000000000000000D+00 0.186393617056116D+04
 0.126042020749147D+04 0.000000000000000D+00 0.000000000000000D+00 -.126042020749147D+04
 0.698637064918236D+03 0.488381983636843D+03 0.346839500860222D+02 -.482440473160100D+03
 0.596869611933736D+03 -.338352428500643D+02 -.335242736399341D+02 -.594966077241485D+03
 0.121552561238717D+04 -.562466620446562D+03 -.181367142667588D+02 0.107740655040158D+04
 0.613324088813485D+03 0.107919879659784D+03 0.169770378206707D+02 0.603515963069697D+03
0.110207919780D-01 0.000000000000D+00 0.000000000000D+00 0.343699581416D-03 0.556068174163D-07  6 2 3 25 4 1 21 2 0.43264237D+00 0.12852589D+00 0.37512781D+06 0.37512781D+06 0.37512781D+06 0.10774433D+01  1  2  1  1  6  1        2 0.115743812082D-02 0.100000000000D+01
  </mgrwgt>
  </event>
  <event>
  6     66 0.17338086E-05 0.19082034E+03 0.75467711E-02 0.92308419E-01
        2 -1    0    0  502    0 0.00000000E+00 0.00000000E+00 0.13747141E+04 0.13747141E+04 0.32000000E+00 0.0000E+00 0.9000E+01
        3 -1    0    0  501    0 0.00000000E+00 0.00000000E+00 -.13640215E+04 0.13640216E+04 0.50000000E+00 0.0000E+00 0.9000E+01
       25  1    1    2    0    0 -.19395316E+03 0.56003721E+03 0.10401028E+03 0.61457517E+03 0.12500000E+03 0.0000E+00 0.9000E+01
        4  1    1    2  501    0 0.14441443E+03 -.13085446E+03 -.10532978E+04 0.10711756E+04 0.15500000E+01 0.0000E+00 0.9000E+01
        1  1    1    2  503    0 0.50868973E+02 -.38230984E+03 0.84844232E+03 0.93198870E+03 0.32000000E+00 0.0000E+00 0.9000E+01
       21  1    1    2  502  503 -.13302421E+01 -.46872913E+02 0.11153781E+03 0.12099622E+03 0.75000000E+00 0.0000E+00 0.9000E+01
#aMCatNLO 2  0  0  5  1 0.75419158D+01 0.00000000D+00  -5  6  0 0.00000000D+00 0.00000000D+00 0.00000000D+00 0.00000000D+00 0.00000000D+00
  <mgrwgt>
 0.7323309403D-03    5    2    0
 0.136935738959797D+04 0.000000000000000D+00 0.000000000000000D+00 0.136935738959797D+04
 0.136935738959797D+04 -.000000000000000D+00 -.000000000000000D+00 -.136935738959797D+04
 0.614223512861673D+03 -.193992224331959D+03 0.560028760824502D+03 0.101883893232663D+03
 0.107554315235195D+04 0.144454829273223D+03 -.130857578841293D+03 -.105773445104649D+04
 0.104894811398232D+04 0.495373950587355D+02 -.429171181983209D+03 0.955850557813823D+03
 0.000000000000000D+00 0.000000000000000D+00 0.000000000000000D+00 0.000000000000000D+00
 0.136935738959797D+04 0.000000000000000D+00 0.000000000000000D+00 0.136935738959797D+04
 0.136935738959797D+04 -.000000000000000D+00 -.000000000000000D+00 -.136935738959797D+04
 0.614209280159239D+03 -.193989385393320D+03 0.560004165452663D+03 0.101938672073552D+03
 0.107545473121166D+04 0.144459800282659D+03 -.130900645578905D+03 -.105763853275817D+04
 0.929142735960360D+03 0.508985569830081D+02 -.382500478004274D+03 0.845227155864891D+03
 0.119908031864688D+03 -.136897187234713D+01 -.466030418694839D+02 0.110472704819729D+03
-.389431764119D-01 0.000000000000D+00 0.000000000000D+00 0.187567077844D-04 0.000000000000D+00  6 2 3 25 4 1 21 2 0.21149448D+00 0.20984947D+00 0.38015324D+06 0.38015324D+06 0.38015324D+06 0.10770245D+01  1  2 13  4  6  5        1 -.550882919070D-02 0.100000000000D+01
-.101118595011D-02 0.000000000000D+00 0.000000000000D+00 0.187567077844D-04 0.000000000000D+00  6 2 3 25 4 1 21 2 0.21149448D+00 0.20984947D+00 0.37985517D+06 0.37985517D+06 0.37985517D+06 0.10770492D+01  1  2  8  4  6  5        1 -.143055513531D-03 0.100000000000D+01
-.792538277619D-03 0.000000000000D+00 0.000000000000D+00 0.187567077844D-04 0.000000000000D+00  6 2 3 25 4 1 21 2 0.21149448D+00 0.20984947D+00 0.37985517D+06 0.37985517D+06 0.37985517D+06 0.10770492D+01  1  2  9  4  6  5        1 -.112122770580D-03 0.100000000000D+01
0.888275703166D-03 0.000000000000D+00 0.000000000000D+00 0.187567077844D-04 0.000000000000D+00  6 2 3 25 4 1 21 2 0.21149448D+00 0.20984947D+00 0.37985517D+06 0.37985517D+06 0.37985517D+06 0.10770492D+01  1  2 10  4  6  5        1 0.125667031727D-03 0.100000000000D+01
0.450357364438D-01 0.000000000000D+00 0.000000000000D+00 0.187567077844D-04 0.181504500132D-05  6 2 3 25 4 1 21 2 0.21149448D+00 0.20984947D+00 0.38015324D+06 0.38015324D+06 0.38015324D+06 0.10770245D+01  1  2  1  4  6  5        1 0.637067138341D-02 0.100000000000D+01
  </mgrwgt>
  </event>
  <event>
  6     66 0.17338086E-05 0.94538017E+02 0.75467711E-02 0.92034909E-01
        2 -1    0    0  502    0 0.00000000E+00 0.00000000E+00 0.27241817E+04 0.27241817E+04 0.32000000E+00 0.0000E+00 0.9000E+01
        3 -1    0    0  501    0 0.00000000E+00 0.00000000E+00 -.41278328E+03 0.41278358E+03 0.50000000E+00 0.0000E+00 0.9000E+01
       25  1    1    2    0    0 0.35652742E+03 -.30318759E+03 0.14635288E+04 0.15416148E+04 0.12500000E+03 0.0000E+00 0.9000E+01
        4  1    1    2  503    0 0.14459125E+03 0.92737753E+02 0.18785164E+02 0.17280685E+03 0.15500000E+01 0.0000E+00 0.9000E+01
        1  1    1    2  502    0 -.13818274E+03 -.65977577E+02 0.94052751E+03 0.95291112E+03 0.32000000E+00 0.0000E+00 0.9000E+01
       21  1    1    2  501  503 -.36293594E+03 0.27642741E+03 -.11144308E+03 0.46963255E+03 0.75000000E+00 0.0000E+00 0.9000E+01
#aMCatNLO 2  0  0  4  2 0.82072662D+02 0.00000000D+00  -5  6  0 0.00000000D+00 0.00000000D+00 0.00000000D+00 0.00000000D+00 0.00000000D+00
  <mgrwgt>
 0.1995115940D-03    1    2    0
 0.106042310710604D+04 0.000000000000000D+00 0.000000000000000D+00 0.106042310710604D+04
 0.106042310710604D+04 -.000000000000000D+00 -.000000000000000D+00 -.106042310710604D+04
 0.720199700496157D+03 0.365238460040098D+03 -.318012801275230D+03 0.518200090821464D+03
 0.999337534494379D+03 -.231985219364609D+03 0.392215634086721D+03 -.889396009786198D+03
 0.401308979221551D+03 -.133253240675488D+03 -.742028328114912D+02 0.371195918964734D+03
 0.000000000000000D+00 -.000000000000000D+00 0.000000000000000D+00 0.000000000000000D+00
 0.106042310710604D+04 0.000000000000000D+00 0.000000000000000D+00 0.106042310710604D+04
 0.106042310710604D+04 -.000000000000000D+00 -.000000000000000D+00 -.106042310710604D+04
 0.685445263701944D+03 0.356542507321890D+03 -.303310620598799D+03 0.484861132115186D+03
 0.233946111419662D+03 0.144080432039043D+03 0.922294063256477D+02 -.159578660104170D+03
 0.384355481551827D+03 -.138113714818871D+03 -.659852663935509D+02 0.352561601137788D+03
 0.817099357538653D+03 -.362509224542061D+03 0.277066480666702D+03 -.677844073148804D+03
0.318766439558D-03 0.000000000000D+00 0.000000000000D+00 0.290165653351D-05 0.254620677251D-10  6 2 3 25 4 1 21 2 0.41910490D+00 0.63505145D-01 0.39999880D+06 0.39999880D+06 0.39999880D+06 0.10754277D+01  1  2  1  3  6  4        4 0.199511593981D-03 0.100000000000D+01
  </mgrwgt>
  </event>
  <event>
  5     66 0.17338086E-05 0.47145035E+02 0.75467711E-02 0.92271664E-01
        2 -1    0    0  502    0 0.00000000E+00 0.00000000E+00 0.25847393E+04 0.25847393E+04 0.32000000E+00 0.0000E+00 0.9000E+01
        3 -1    0    0  501    0 0.00000000E+00 0.00000000E+00 -.91526354E+03 0.91526368E+03 0.50000000E+00 0.0000E+00 0.9000E+01
       25  1    1    2    0    0 -.12212325E+03 -.53793655E+03 -.36649258E+03 0.67396709E+03 0.12500000E+03 0.0000E+00 0.9000E+01
        4  1    1    2  501    0 0.36289133E+02 0.30139569E+02 -.36622703E+03 0.36925592E+03 0.15500000E+01 0.0000E+00 0.9000E+01
        1  1    1    2  502    0 0.85834120E+02 0.50779698E+03 0.24021954E+04 0.24567800E+04 0.32000000E+00 0.0000E+00 0.9000E+01
#aMCatNLO 1  0  0  2  2 0.11943167D+03 0.00000000D+00  -5  6  0 0.00000000D+00 0.00000000D+00 0.00000000D+00 0.00000000D+00 0.00000000D+00
  <mgrwgt>
 0.9332114782D-02    7    2    0
 0.153808905487415D+04 0.000000000000000D+00 0.000000000000000D+00 0.153808905487415D+04
 0.153808905487415D+04 0.000000000000000D+00 0.000000000000000D+00 -.153808905487415D+04
 0.966136033354353D+03 -.122104081508039D+03 -.537937300313888D+03 -.783267444207767D+03
 0.618421156288798D+03 0.362669448890010D+02 0.301224680203666D+02 -.616621498306987D+03
 0.149162092010515D+04 0.858371366190382D+02 0.507814832293522D+03 0.139988894251475D+04
 0.000000000000000D+00 0.000000000000000D+00 -.000000000000000D+00 -.000000000000000D+00
 0.158070424826500D+04 0.000000000000000D+00 0.000000000000000D+00 0.158070424826500D+04
 0.162526545896292D+04 0.000000000000000D+00 0.000000000000000D+00 -.162526545896292D+04
 0.970714901514154D+03 -.159654956396784D+03 -.536343943532326D+03 -.783267444207767D+03
 0.617529863664276D+03 0.123048312934985D+02 0.311392271853947D+02 -.616621498306987D+03
 0.149025092062867D+04 0.280258232082470D+02 0.510267878954805D+03 0.139988894251475D+04
 0.127474021420823D+03 0.119324301895039D+03 -.506316260787314D+01 -.445612106979180D+02
0.571684192544D-01 0.000000000000D+00 0.000000000000D+00 0.349934036357D-03 0.000000000000D+00  6 2 3 25 4 1 21 0 0.39765221D+00 0.14080979D+00 0.31796635D+06 0.31796635D+06 0.31796635D+06 0.10826880D+01  1  2  2  2  6  2        3 0.557990371006D-02 0.100000000000D+01
0.184041403959D-01 0.000000000000D+00 -.219541782728D-03 0.349934036357D-03 0.000000000000D+00  6 2 3 25 4 1 21 2 0.39765221D+00 0.14080979D+00 0.31796635D+06 0.31796635D+06 0.31796635D+06 0.10826880D+01  1  2  3  2  6  2        3 0.210568145855D-02 0.100000000000D+01
-.378236437785D-01 0.000000000000D+00 0.000000000000D+00 0.349934036357D-03 0.000000000000D+00  6 2 3 25 4 1 21 2 0.39765221D+00 0.14080979D+00 0.31796635D+06 0.31796635D+06 0.31796635D+06 0.10826880D+01  1  2 15  2  6  2        3 -.432753411384D-02 0.100000000000D+01
-.928048472294D-03 0.000000000000D+00 0.000000000000D+00 0.349934036357D-03 0.000000000000D+00  6 2 3 25 4 1 21 2 0.39765221D+00 0.14080979D+00 0.31796635D+06 0.31796635D+06 0.31796635D+06 0.10826880D+01  1  2  4  2  6  2        3 -.106181240672D-03 0.100000000000D+01
-.557454655131D+00 0.000000000000D+00 -.142226905483D+00 0.349934036357D-03 0.000000000000D+00  6 2 3 25 4 1 21 2 0.39765221D+00 0.15216213D+00 0.31796635D+06 0.31796635D+06 0.31796635D+06 0.10826880D+01  1  2  5  2  6  2        3 -.509374823154D-01 0.100000000000D+01
0.567203063742D+00 0.000000000000D+00 0.141800444831D+00 0.349934036357D-03 0.000000000000D+00  6 2 3 25 4 1 21 2 0.39765221D+00 0.14080979D+00 0.31796635D+06 0.31796635D+06 0.31796635D+06 0.10826880D+01  1  2  6  2  6  2        3 0.648956674347D-01 0.100000000000D+01
-.695100585570D-02 0.000000000000D+00 -.184755630562D-02 0.349934036357D-03 0.000000000000D+00  6 2 21 25 4 1 -3 2 0.39765221D+00 0.15216213D+00 0.31796635D+06 0.31796635D+06 0.31796635D+06 0.10826880D+01  1  2  5  6  6  2        3 -.787794015101D-02 0.100000000000D+01
  </mgrwgt>
  </event>
  <event>
  5     66 0.17338086E-05 0.74014058E+02 0.75467711E-02 0.90582436E-01
        2 -1    0    0  502    0 0.00000000E+00 0.00000000E+00 0.15748543E+04 0.15748544E+04 0.32000000E+00 0.0000E+00 0.9000E+01
        3 -1    0    0  501    0 0.00000000E+00 0.00000000E+00 -.10229135E+04 0.10229136E+04 0.50000000E+00 0.0000E+00 0.9000E+01
       25  1    1    2    0    0 0.27493276E+03 -.35733025E+03 0.12575044E+03 0.48446992E+03 0.12500000E+03 0.0000E+00 0.9000E+01
        4  1    1    2  501    0 -.32272733E+03 0.41384558E+03 -.76066334E+03 0.92413863E+03 0.15500000E+01 0.0000E+00 0.9000E+01
        1  1    1    2  502    0 0.47794574E+02 -.56515324E+02 0.11868537E+04 0.11891594E+04 0.32000000E+00 0.0000E+00 0.9000E+01
#aMCatNLO 1  0  0  5  2 0.92428473D+02 0.00000000D+00  -5  6  0 0.00000000D+00 0.00000000D+00 0.00000000D+00 0.00000000D+00 0.00000000D+00
  <mgrwgt>
 0.1481151264D-01    6    2    0
 0.126922810190094D+04 0.000000000000000D+00 0.000000000000000D+00 0.126922810190094D+04
 0.126922810190094D+04 -.000000000000000D+00 -.000000000000000D+00 -.126922810190094D+04
 0.468465764833238D+03 0.274943976472494D+03 -.357344605007133D+03 0.233627030666483D+02
 0.111112505769783D+04 -.322737580694105D+03 0.413858782151983D+03 -.979367273441069D+03
 0.958865381270819D+03 0.477936042216117D+02 -.565141771448506D+02 0.956004570374421D+03
 0.000000000000000D+00 0.000000000000000D+00 0.000000000000000D+00 0.000000000000000D+00
 0.126922810190094D+04 0.000000000000000D+00 0.000000000000000D+00 0.126922810190094D+04
 0.126922810190094D+04 -.000000000000000D+00 -.000000000000000D+00 -.126922810190094D+04
 0.471503762994137D+03 0.275983176792060D+03 -.358573421119779D+03 0.441495901662936D+02
 0.106708471361941D+04 -.320329421468277D+03 0.411011222540232D+03 -.931197413402765D+03
 0.547896680608443D+03 -.630928123323016D+02 -.238291637394311D+03 0.489312952211251D+03
 0.451971046579895D+03 0.107439057008519D+03 0.185853835973857D+03 0.397734871025221D+03
0.474411577672D-01 0.000000000000D+00 0.000000000000D+00 0.150761631036D-03 0.000000000000D+00  6 2 3 25 4 1 21 0 0.24228529D+00 0.15737132D+00 0.28447256D+06 0.28447256D+06 0.28447256D+06 0.10862636D+01  1  2  2  4  6  5        1 0.123066466536D-01 0.100000000000D+01
0.162513363316D-01 0.000000000000D+00 -.182186537370D-03 0.150761631036D-03 0.000000000000D+00  6 2 3 25 4 1 21 2 0.24228529D+00 0.15737132D+00 0.28447256D+06 0.28447256D+06 0.28447256D+06 0.10862636D+01  1  2  3  4  6  5        1 0.497443784742D-02 0.100000000000D+01
-.332897136252D-01 0.000000000000D+00 0.000000000000D+00 0.150761631036D-03 0.000000000000D+00  6 2 3 25 4 1 21 2 0.24228529D+00 0.15737132D+00 0.28447256D+06 0.28447256D+06 0.28447256D+06 0.10862636D+01  1  2 15  4  6  5        1 -.101897842742D-01 0.100000000000D+01
-.113571794594D-02 0.000000000000D+00 0.000000000000D+00 0.150761631036D-03 0.000000000000D+00  6 2 3 25 4 1 21 2 0.24228529D+00 0.15737132D+00 0.28447256D+06 0.28447256D+06 0.28447256D+06 0.10862636D+01  1  2  4  4  6  5        1 -.347636540099D-03 0.100000000000D+01
-.468027541709D-01 0.000000000000D+00 0.000000000000D+00 0.150761631036D-03 0.000000000000D+00  6 2 3 25 4 1 21 2 0.24228529D+00 0.15737132D+00 0.28447256D+06 0.28447256D+06 0.28447256D+06 0.10862636D+01  1  2  5  4  6  5        1 -.143260459916D-01 0.100000000000D+01
0.731601699876D-01 0.000000000000D+00 -.000000000000D+00 0.150761631036D-03 0.000000000000D+00  6 2 3 25 4 1 21 2 0.24228529D+00 0.15737132D+00 0.28447256D+06 0.28447256D+06 0.28447256D+06 0.10862636D+01  1  2  6  4  6  5        1 0.223938949440D-01 0.100000000000D+01
  </mgrwgt>
  </event>
  <event>
  5     66 -.17338086E-05 0.29614293E+02 0.75467711E-02 0.92124935E-01
        2 -1    0    0  502    0 0.00000000E+00 0.00000000E+00 0.48471004E+04 0.48471004E+04 0.32000000E+00 0.0000E+00 0.9000E+01
        3 -1    0    0  501    0 0.00000000E+00 0.00000000E+00 -.64604300E+03 0.64604320E+03 0.50000000E+00 0.0000E+00 0.9000E+01
       25  1    1    2    0    0 -.38621154E+03 0.46924326E+03 0.68597648E+03 0.92495261E+03 0.12500000E+03 0.0000E+00 0.9000E+01
        4  1    1    2  501    0 0.40615832E+03 -.44735360E+03 -.35313968E+03 0.69985703E+03 0.15500000E+01 0.0000E+00 0.9000E+01
        1  1    1    2  502    0 -.19946786E+02 -.21889660E+02 0.38682206E+04 0.38683340E+04 0.32000000E+00 0.0000E+00 0.9000E+01
#aMCatNLO 1  0  0  2  4 0.15945905D+03 0.00000000D+00  -5  6  0 0.00000000D+00 0.00000000D+00 0.00000000D+00 0.00000000D+00 0.00000000D+00
  <mgrwgt>
 -.8540423165D-03    1    2    0
 0.176958635249480D+04 0.000000000000000D+00 0.000000000000000D+00 0.176958635249480D+04
 0.176958635249480D+04 0.000000000000000D+00 0.000000000000000D+00 -.176958635249480D+04
 0.621368254849701D+03 -.386223706785249D+03 0.469256409902859D+03 -.332141267701749D+02
 0.150543326895659D+04 0.406170206863641D+03 -.447367063497537D+03 -.137884654723986D+04
 0.141237118118330D+04 -.199465000783922D+02 -.218893464053225D+02 0.141206067401003D+04
 0.000000000000000D+00 0.000000000000000D+00 -.000000000000000D+00 0.000000000000000D+00
 0.183124323664743D+04 0.000000000000000D+00 0.000000000000000D+00 0.183124323664743D+04
 0.181907433873010D+04 0.000000000000000D+00 0.000000000000000D+00 -.181907433873010D+04
 0.635621424679188D+03 -.405306999550276D+03 0.472242155477089D+03 -.332141267701749D+02
 0.149168295303003D+04 0.360668762224556D+03 -.440247970444518D+03 -.137884654723986D+04
 0.141354011334898D+04 -.628487557132750D+02 -.151769188665541D+02 0.141206067401003D+04
 0.109473084319325D+03 0.107486993038995D+03 -.168172661660177D+02 0.121688979173263D+02
-.197121095596D+00 0.000000000000D+00 0.000000000000D+00 0.108311576861D-02 0.000000000000D+00  6 2 3 25 4 1 21 2 0.74570777D+00 0.99391247D-01 0.39334146D+06 0.39334146D+06 0.39334146D+06 0.10759536D+01  1  2 14  2  6  2        3 -.854042316506D-03 0.100000000000D+01
  </mgrwgt>
  </event>
  <event>
  6     66 -.17338086E-05 0.10034957E+03 0.75467711E-02 0.93626383E-01
        2 -1    0    0  502    0 0.00000000E+00 0.00000000E+00 0.14349812E+04 0.14349813E+04 0.32000000E+00 0.0000E+00 0.9000E+01
        3 -1    0    0  501    0 0.00000000E+00 0.00000000E+00 -.72235844E+03 0.72235861E+03 0.50000000E+00 0.0000E+00 0.9000E+01
       25  1    1    2    0    0 -.44298106E+03 -.15291582E+03 0.96093333E+02 0.49444352E+03 0.12500000E+03 0.0000E+00 0.9000E+01
        4  1    1    2  503    0 0.32410298E+03 0.48731610E+02 -.28294897E+03 0.43298965E+03 0.15500000E+01 0.0000E+00 0.9000E+01
        1  1    1    2  502    0 -.44993037E+02 0.10747220E+03 0.10198911E+04 0.10265245E+04 0.32000000E+00 0.0000E+00 0.9000E+01
       21  1    1    2  501  503 0.16387112E+03 -.32879930E+01 -.12041265E+03 0.20338221E+03 0.75000000E+00 0.0000E+00 0.9000E+01
#aMCatNLO 2  0  0  4  2 0.21205478D+02 0.00000000D+00  -5  6  0 0.00000000D+00 0.00000000D+00 0.00000000D+00 0.00000000D+00 0.00000000D+00
  <mgrwgt>
 -.5762463847D-03    2    2    0
 0.101812132919285D+04 0.000000000000000D+00 0.000000000000000D+00 0.101812132919285D+04
 0.101812132919285D+04 -.000000000000000D+00 -.000000000000000D+00 -.101812132919285D+04
 0.490347631908069D+03 -.443155426383123D+03 -.152933310318915D+03 -.709962730003668D+02
 0.814865237080883D+03 0.488423911660437D+03 0.454847142729931D+02 -.650675478167654D+03
 0.731029789396752D+03 -.452684852773141D+02 0.107448596045921D+03 0.721671751168021D+03
 0.000000000000000D+00 0.000000000000000D+00 0.000000000000000D+00 0.000000000000000D+00
 0.101812132919285D+04 0.000000000000000D+00 0.000000000000000D+00 0.101812132919285D+04
 0.101812132919285D+04 -.000000000000000D+00 -.000000000000000D+00 -.101812132919285D+04
 0.490211433616626D+03 -.442971249463518D+03 -.152916158753719D+03 -.712416324153543D+02
 0.557116879403935D+03 0.323705696148453D+03 0.487040306157449D+02 -.450801238906466D+03
 0.730655527219256D+03 -.449939391448984D+02 0.107474163288003D+03 0.721306002416324D+03
 0.258258818145887D+03 0.164259492459964D+03 -.326203515002859D+01 -.199263131094504D+03
-.522436123368D-02 0.000000000000D+00 0.000000000000D+00 0.149046682232D-04 0.000000000000D+00  6 2 3 25 4 1 21 2 0.22076636D+00 0.11113208D+00 0.29875000D+06 0.29875000D+06 0.29875000D+06 0.10846861D+01  1  2 13  3  6  4        4 -.492914597705D-02 0.100000000000D+01
0.461360243545D-02 0.000000000000D+00 0.000000000000D+00 0.149046682232D-04 0.914215214871D-07  6 2 3 25 4 1 21 2 0.22076636D+00 0.11113208D+00 0.29875000D+06 0.29875000D+06 0.29875000D+06 0.10846861D+01  1  2  1  3  6  4        4 0.435289959236D-02 0.100000000000D+01
  </mgrwgt>
  </event>
  <event>
  5     66 0.17338086E-05 0.32682453E+02 0.75467711E-02 0.81519975E-01
        2 -1    0    0  502    0 0.00000000E+00 0.00000000E+00 0.12113790E+04 0.12113790E+04 0.32000000E+00 0.0000E+00 0.9000E+01
        3 -1    0    0  501    0 0.00000000E+00 0.00000000E+00 -.92987718E+03 0.92987731E+03 0.50000000E+00 0.0000E+00 0.9000E+01
       25  1    1    2    0    0 -.61394068E+03 -.51796983E+03 -.20294502E+03 0.83787087E+03 0.12500000E+03 0.0000E+00 0.9000E+01
        4  1    1    2  501    0 -.24861001E+02 0.21242561E+02 -.22491284E+03 0.22728287E+03 0.15500000E+01 0.0000E+00 0.9000E+01
        1  1    1    2  502    0 0.63880168E+03 0.49672727E+03 0.70935965E+03 0.10761026E+04 0.32000000E+00 0.0000E+00 0.9000E+01
#aMCatNLO 1  0  0  1  5 0.11019893D+02 0.00000000D+00  -5  6  0 0.00000000D+00 0.00000000D+00 0.00000000D+00 0.00000000D+00 0.00000000D+00
  <mgrwgt>
 0.1876847711D-02    3    2    0
 0.106133588044868D+04 0.000000000000000D+00 0.000000000000000D+00 0.106133588044868D+04
 0.106133588044868D+04 0.000000000000000D+00 0.000000000000000D+00 -.106133588044868D+04
 0.872266267696952D+03 -.614000292270888D+03 -.517995245875937D+03 -.316082280590296D+03
 0.258888223840539D+03 -.248439925716535D+02 0.212348475040342D+02 -.256816996571273D+03
 0.991517269359862D+03 0.638844284842541D+03 0.496760398371903D+03 0.572899277161569D+03
 0.000000000000000D+00 0.000000000000000D+00 -.000000000000000D+00 -.000000000000000D+00
 0.154499035483689D+04 0.000000000000000D+00 0.000000000000000D+00 0.154499035483689D+04
 0.374489784066072D+04 0.000000000000000D+00 0.000000000000000D+00 -.374489784066072D+04
 0.888522740042734D+03 -.820881227600306D+03 0.967789456955609D+01 -.316082280590296D+03
 0.339448896241899D+03 -.951446035482444D+02 0.200544478476974D+03 -.256816996571273D+03
 0.138541626128239D+04 0.359570487769959D+03 0.120907969116114D+04 0.572899277161569D+03
 0.267650029793058D+04 0.556455343378592D+03 -.141930206420767D+04 -.219990748582383D+04
0.455070329685D-02 0.000000000000D+00 0.000000000000D+00 0.489755475078D-05 0.000000000000D+00  6 2 3 25 4 1 21 0 0.18636601D+00 0.14305804D+00 0.68468958D+06 0.68468958D+06 0.68468958D+06 0.10589933D+01  1  2  2  1  6  1        2 0.237712765014D-02 0.100000000000D+01
0.212637187323D-02 0.000000000000D+00 -.174758988876D-04 0.489755475078D-05 0.000000000000D+00  6 2 3 25 4 1 21 2 0.18636601D+00 0.14305804D+00 0.68468958D+06 0.68468958D+06 0.68468958D+06 0.10589933D+01  1  2  3  1  6  1        2 0.124566042044D-02 0.100000000000D+01
-.298036159203D-02 0.000000000000D+00 0.000000000000D+00 0.489755475078D-05 0.000000000000D+00  6 2 3 25 4 1 21 2 0.18636601D+00 0.14305804D+00 0.68468958D+06 0.68468958D+06 0.68468958D+06 0.10589933D+01  1  2 15  1  6  1        2 -.174594035998D-02 0.100000000000D+01
  </mgrwgt>
  </event>
  <event>
  5     66 0.17338086E-05 0.40425165E+02 0.75467711E-02 0.94740239E-01
        2 -1    0    0  502    0 0.00000000E+00 0.00000000E+00 0.30769638E+04 0.30769638E+04 0.32000000E+00 0.0000E+00 0.9000E+01
        3 -1    0    0  501    0 0.00000000E+00 0.00000000E+00 -.12042112E+03 0.12042216E+03 0.50000000E+00 0.0000E+00 0.9000E+01
       25  1    1    2    0    0 -.22741239E+03 -.39162448E+03 0.11257257E+04 0.12198235E+04 0.12500000E+03 0.0000E+00 0.9000E+01
        4  1    1    2  501    0 0.26639220E+03 0.40243656E+03 0.72464353E+03 0.87064955E+03 0.15500000E+01 0.0000E+00 0.9000E+01
        1  1    1    2  502    0 -.38979808E+02 -.10812074E+02 0.11061735E+04 0.11069129E+04 0.32000000E+00 0.0000E+00 0.9000E+01
#aMCatNLO 1  0  0  4  2 0.11049505D+02 0.00000000D+00  -5  6  0 0.00000000D+00 0.00000000D+00 0.00000000D+00 0.00000000D+00 0.00000000D+00
  <mgrwgt>
 0.6973016863D-01    7    2    0
 0.608714311056047D+03 0.000000000000000D+00 0.000000000000000D+00 0.608714311056047D+03
 0.608714311056047D+03 -.000000000000000D+00 -.000000000000000D+00 -.608714311056047D+03
 0.469933185222248D+03 -.227476325446728D+03 -.391706156349383D+03 -.574517296301944D+01
 0.526863824361935D+03 0.266430726055979D+03 0.402511183105188D+03 -.211151379606739D+03
 0.220631612527910D+03 -.389544006092515D+02 -.108050267558052D+02 0.216896552569759D+03
 0.000000000000000D+00 0.000000000000000D+00 0.000000000000000D+00 0.000000000000000D+00
 0.608714311056047D+03 0.000000000000000D+00 0.000000000000000D+00 0.608714311056047D+03
 0.608714311056047D+03 -.000000000000000D+00 -.000000000000000D+00 -.608714311056047D+03
 0.468761282301632D+03 -.226800092336081D+03 -.390684534731446D+03 -.628110046793810D+01
 0.508432986218514D+03 0.251731792608743D+03 0.386839081619704D+03 -.213285562091504D+03
 0.220305198036431D+03 -.386367508506531D+02 -.103251362340203D+02 0.216644809140040D+03
 0.199291555555178D+02 0.137050505779913D+02 0.141705893457631D+02 0.292185341940173D+01
0.241800906509D-02 0.000000000000D+00 0.000000000000D+00 0.355145723386D-05 0.000000000000D+00  6 2 3 25 4 1 21 0 0.47337913D+00 0.18526407D-01 0.24652445D+06 0.24652445D+06 0.24652445D+06 0.10909168D+01  1  2  2  3  6  4        4 0.870551698236D-02 0.100000000000D+01
0.766528086418D-03 0.000000000000D+00 -.928579148636D-05 0.355145723386D-05 0.000000000000D+00  6 2 3 25 4 1 21 2 0.47337913D+00 0.18526407D-01 0.24652445D+06 0.24652445D+06 0.24652445D+06 0.10909168D+01  1  2  3  3  6  4        4 0.328433897525D-02 0.100000000000D+01
-.175775048430D-02 0.000000000000D+00 0.000000000000D+00 0.355145723386D-05 0.000000000000D+00  6 2 3 25 4 1 21 2 0.47337913D+00 0.18526407D-01 0.24652445D+06 0.24652445D+06 0.24652445D+06 0.10909168D+01  1  2 15  3  6  4        4 -.753142451872D-02 0.100000000000D+01
0.186802434777D-01 0.000000000000D+00 0.000000000000D+00 0.355145723386D-05 0.000000000000D+00  6 2 3 25 4 1 21 2 0.47337913D+00 0.18526407D-01 0.24500486D+06 0.24500486D+06 0.24500486D+06 0.10911191D+01  1  2 12  3  6  4        4 0.800930729445D-01 0.100000000000D+01
-.736111690366D-02 0.000000000000D+00 0.000000000000D+00 0.355145723386D-05 0.000000000000D+00  6 2 3 25 4 1 21 2 0.47337913D+00 0.18526407D-01 0.24652445D+06 0.24652445D+06 0.24652445D+06 0.10909168D+01  1  2  4  3  6  4        4 -.315401399850D-01 0.100000000000D+01
-.101242690533D+00 0.000000000000D+00 0.000000000000D+00 0.355145723386D-05 0.000000000000D+00  6 2 3 25 4 1 21 2 0.47337913D+00 0.18526407D-01 0.24652445D+06 0.24652445D+06 0.24652445D+06 0.10909168D+01  1  2  5  3  6  4        4 -.433794038819D+00 0.100000000000D+01
0.105144672974D+00 0.000000000000D+00 -.000000000000D+00 0.355145723386D-05 0.000000000000D+00  6 2 3 25 4 1 21 2 0.47337913D+00 0.18526407D-01 0.24652445D+06 0.24652445D+06 0.24652445D+06 0.10909168D+01  1  2  6  3  6  4        4 0.450512843050D+00 0.100000000000D+01
  </mgrwgt>
  </event>
  <event>
  6     66 -.17338086E-05 0.10063527E+03 0.75467711E-02 0.95303798E-01
        2 -1    0    0  502    0 0.00000000E+00 0.00000000E+00 0.21191669E+04 0.21191669E+04 0.32000000E+00 0.0000E+00 0.9000E+01
        3 -1    0    0  501    0 0.00000000E+00 0.00000000E+00 -.46771478E+03 0.46771505E+03 0.50000000E+00 0.0000E+00 0.9000E+01
       25  1    1    2    0    0 0.41910414E+03 0.18426447E+03 0.51517924E+03 0.70045437E+03 0.12500000E+03 0.0000E+00 0.9000E+01
        4  1    1    2  501    0 -.12655941E+03 -.61829009E+02 -.34115085E+03 0.36908863E+03 0.15500000E+01 0.0000E+00 0.9000E+01
        1  1    1    2  503    0 -.23451203E+03 -.60702199E+02 0.12764724E+04 0.12992546E+04 0.32000000E+00 0.0000E+00 0.9000E+01
       21  1    1    2  502  503 -.58032696E+02 -.61733266E+02 0.20095137E+03 0.21808440E+03 0.75000000E+00 0.0000E+00 0.9000E+01
#aMCatNLO 2  0  0  5  1 0.49244449D+02 0.00000000D+00  -5  6  0 0.00000000D+00 0.00000000D+00 0.00000000D+00 0.00000000D+00 0.00000000D+00
  <mgrwgt>
 -.4688999846D-02    2    2    0
 0.995573229542055D+03 0.000000000000000D+00 0.000000000000000D+00 0.995573229542055D+03
 0.995573229542055D+03 -.000000000000000D+00 -.000000000000000D+00 -.995573229542055D+03
 0.483547014480072D+03 0.420325980718738D+03 0.184779402807234D+03 0.858799012786111D+02
 0.766615459174893D+03 -.124643915933653D+03 -.610309034997504D+02 -.753948529599111D+03
 0.740983985429145D+03 -.295682064785085D+03 -.123748499307483D+03 0.668068628320500D+03
 0.000000000000000D+00 0.000000000000000D+00 -.000000000000000D+00 0.000000000000000D+00
 0.995573229542055D+03 0.000000000000000D+00 0.000000000000000D+00 0.995573229542055D+03
 0.995573229542055D+03 -.000000000000000D+00 -.000000000000000D+00 -.995573229542055D+03
 0.482774103924203D+03 0.419079971245485D+03 0.184257924432987D+03 0.886951543453651D+02
 0.762625673386618D+03 -.126615774875539D+03 -.618561635136842D+02 -.749493281021537D+03
 0.629020040362507D+03 -.234399914000884D+03 -.606363380104219D+02 0.580556737973744D+03
 0.116726641410781D+03 -.580642823690614D+02 -.617654229088812D+02 0.802413887024274D+02
-.632001511245D-02 0.000000000000D+00 0.000000000000D+00 0.443085094112D-04 0.000000000000D+00  6 2 3 25 4 1 21 2 0.32602570D+00 0.71956143D-01 0.22201191D+06 0.22201191D+06 0.22201191D+06 0.10943596D+01  1  2 13  4  6  5        1 -.720523659500D-02 0.100000000000D+01
0.220709675080D-02 0.000000000000D+00 0.000000000000D+00 0.443085094112D-04 0.216223792815D-07  6 2 3 25 4 1 21 2 0.32602570D+00 0.71956143D-01 0.22201191D+06 0.22201191D+06 0.22201191D+06 0.10943596D+01  1  2  1  4  6  5        1 0.251623674859D-02 0.100000000000D+01
  </mgrwgt>
  </event>
  <event>
  5     66 0.17338086E-05 0.11687053E+03 0.75467711E-02 0.87637119E-01
        2 -1    0    0  502    0 0.00000000E+00 0.00000000E+00 0.19224707E+04 0.19224707E+04 0.32000000E+00 0.0000E+00 0.9000E+01
        3 -1    0    0  501    0 0.00000000E+00 0.00000000E+00 -.76508904E+03 0.76508920E+03 0.50000000E+00 0.0000E+00 0.9000E+01
       25  1    1    2    0    0 0.50374899E+03 -.14015041E+03 -.10229830E+03 0.54726147E+03 0.12500000E+03 0.0000E+00 0.9000E+01
        4  1    1    2  501    0 -.38728323E+03 0.14984720E+03 -.33978962E+03 0.53656488E+03 0.15500000E+01 0.0000E+00 0.9000E+01
        1  1    1    2  502    0 -.11646576E+03 -.96967869E+01 0.15994696E+04 0.16037335E+04 0.32000000E+00 0.0000E+00 0.9000E+01
#aMCatNLO 1  0  0  5  1 0.17536397D+02 0.00000000D+00  -5  6  0 0.00000000D+00 0.00000000D+00 0.00000000D+00 0.00000000D+00 0.00000000D+00
  <mgrwgt>
 0.2966381340D-02    3    2    0
 0.121279078813884D+04 0.000000000000000D+00 0.000000000000000D+00 0.121279078813884D+04
 0.121279078813884D+04 -.000000000000000D+00 -.000000000000000D+00 -.121279078813884D+04
 0.655180227342680D+03 0.503734498405450D+03 -.140144737090127D+03 -.374495845214543D+03
 0.756635826319887D+03 -.387266951540384D+03 0.149841673134274D+03 -.632510517626163D+03
 0.101376552261511D+04 -.116467546865065D+03 -.969693604414766D+01 0.100700636284071D+04
 0.000000000000000D+00 0.000000000000000D+00 0.000000000000000D+00 -.000000000000000D+00
 0.121279078813884D+04 0.000000000000000D+00 0.000000000000000D+00 0.121279078813884D+04
 0.121279078813884D+04 -.000000000000000D+00 -.000000000000000D+00 -.121279078813884D+04
 0.571341524001908D+03 0.487160765546194D+03 -.141524644470980D+03 -.231195373155760D+03
 0.638263626118038D+03 -.406115937190157D+03 0.148272331173679D+03 -.469537663871420D+03
 0.580032999952401D+03 0.347197062952405D+01 0.489159827419878D+03 0.311687166390092D+03
 0.635943426205326D+03 -.845167989855612D+02 -.495907514122577D+03 0.389045870637088D+03
0.181298135814D-01 0.000000000000D+00 0.000000000000D+00 0.406731741028D-04 0.000000000000D+00  6 2 3 25 4 1 21 0 0.29576473D+00 0.11770602D+00 0.28607282D+06 0.28607282D+06 0.28607282D+06 0.10860826D+01  1  2  2  4  6  5        1 0.682204574494D-02 0.100000000000D+01
0.411987487370D-02 0.000000000000D+00 -.696232578420D-04 0.406731741028D-04 0.000000000000D+00  6 2 3 25 4 1 21 2 0.29576473D+00 0.11770602D+00 0.28607282D+06 0.28607282D+06 0.28607282D+06 0.10860826D+01  1  2  3  4  6  5        1 0.182865170337D-02 0.100000000000D+01
-.128065235523D-01 0.000000000000D+00 0.000000000000D+00 0.406731741028D-04 0.000000000000D+00  6 2 3 25 4 1 21 2 0.29576473D+00 0.11770602D+00 0.28607282D+06 0.28607282D+06 0.28607282D+06 0.10860826D+01  1  2 15  4  6  5        1 -.568431610819D-02 0.100000000000D+01
  </mgrwgt>
  </event>
  <event>
  6     66 0.17338086E-05 0.16724040E+03 0.75467711E-02 0.95185074E-01
        2 -1    0    0  502    0 0.00000000E+00 0.00000000E+00 0.12228365E+04 0.12228366E+04 0.32000000E+00 0.0000E+00 0.9000E+01
        3 -1    0    0  501    0 0.00000000E+00 0.00000000E+00 -.38483008E+03 0.38483040E+03 0.50000000E+00 0.0000E+00 0.9000E+01
       25  1    1    2    0    0 -.43491381E+03 -.14895802E+03 0.10990109E+03 0.48891897E+03 0.12500000E+03 0.0000E+00 0.9000E+01
        4  1    1    2  501    0 0.25916366E+03 0.15054498E+03 -.63670830E+02 0.30640818E+03 0.15500000E+01 0.0000E+00 0.9000E+01
        1  1    1    2  503    0 0.15387078E+03 -.84232376E+00 0.60407388E+03 0.62336368E+03 0.32000000E+00 0.0000E+00 0.9000E+01
       21  1    1    2  502  503 0.21879371E+02 -.74463888E+00 0.18770230E+03 0.18897613E+03 0.75000000E+00 0.0000E+00 0.9000E+01
#aMCatNLO 2  0  0  5  1 0.19170449D+02 0.00000000D+00  -5  6  0 0.00000000D+00 0.00000000D+00 0.00000000D+00 0.00000000D+00 0.00000000D+00
  <mgrwgt>
 0.8667357952D-02    2    2    0
 0.685991669390981D+03 0.000000000000000D+00 0.000000000000000D+00 0.685991669390981D+03
 0.685991669390981D+03 -.000000000000000D+00 -.000000000000000D+00 -.685991669390981D+03
 0.506327535991778D+03 -.435339950857405D+03 -.149042285519704D+03 -.170317638599298D+03
 0.398387137679124D+03 0.259121380568821D+03 0.150633477825069D+03 -.262446141062501D+03
 0.467268665111059D+03 0.176218570288584D+03 -.159119230536535D+01 0.432763779661798D+03
 0.000000000000000D+00 0.000000000000000D+00 0.000000000000000D+00 0.000000000000000D+00
 0.685991669390981D+03 0.000000000000000D+00 0.000000000000000D+00 0.685991669390981D+03
 0.685991669390981D+03 -.000000000000000D+00 -.000000000000000D+00 -.685991669390981D+03
 0.505802351531619D+03 -.435027700750986D+03 -.149045105029395D+03 -.169550803775747D+03
 0.398149031646293D+03 0.259367118301403D+03 0.150631258898945D+03 -.261842649672329D+03
 0.361179659009579D+03 0.153769591274435D+03 -.841035884211996D+00 0.326810268413051D+03
 0.106852296594471D+03 0.218909911751485D+02 -.745117985337815D+00 0.104583185035025D+03
-.115433069148D-02 0.000000000000D+00 0.000000000000D+00 0.111547692471D-05 0.000000000000D+00  6 2 3 25 4 1 21 2 0.18812872D+00 0.59204656D-01 0.22664682D+06 0.22664682D+06 0.22664682D+06 0.10936777D+01  1  2 13  4  6  5        1 -.618771949339D-02 0.100000000000D+01
0.277124259397D-02 0.000000000000D+00 0.000000000000D+00 0.111547692471D-05 0.400468578878D-07  6 2 3 25 4 1 21 2 0.18812872D+00 0.59204656D-01 0.22664682D+06 0.22664682D+06 0.22664682D+06 0.10936777D+01  1  2  1  4  6  5        1 0.148550774455D-01 0.100000000000D+01
  </mgrwgt>
  </event>
  <event>
  5     66 -.17338086E-05 0.65256887E+02 0.75467711E-02 0.95414233E-01
        2 -1    0    0  502    0 0.00000000E+00 0.00000000E+00 0.10317908E+04 0.10317908E+04 0.32000000E+00 0.0000E+00 0.9000E+01
        3 -1    0    0  501    0 0.00000000E+00 0.00000000E+00 -.77262774E+03 0.77262790E+03 0.50000000E+00 0.0000E+00 0.9000E+01
       25  1    1    2    0    0 0.14508393E+03 -.43452687E+03 0.31596204E+03 0.57036826E+03 0.12500000E+03 0.0000E+00 0.9000E+01
        4  1    1    2  501    0 -.12150041E+03 0.37366561E+03 -.58342068E+03 0.70339920E+03 0.15500000E+01 0.0000E+00 0.9000E+01
        1  1    1    2  502    0 -.23583518E+02 0.60861253E+02 0.52662165E+03 0.53065124E+03 0.32000000E+00 0.0000E+00 0.9000E+01
#aMCatNLO 1  0  0  2  4 0.43567668D+00 0.00000000D+00  -5  6  0 0.00000000D+00 0.00000000D+00 0.00000000D+00 0.00000000D+00 0.00000000D+00
  <mgrwgt>
 -.4386546605D-03    9    2    0
 0.892855166347693D+03 0.000000000000000D+00 0.000000000000000D+00 0.892855166347693D+03
 0.892855166347693D+03 0.000000000000000D+00 0.000000000000000D+00 -.892855166347693D+03
 0.530561719713906D+03 0.145094074135470D+03 -.434560085060063D+03 0.236592435528142D+03
 0.795465307367384D+03 -.121515575096586D+03 0.373711784987916D+03 -.691620215143526D+03
 0.459683305614097D+03 -.235784990388846D+02 0.608483000721473D+02 0.455027779615384D+03
 0.000000000000000D+00 -.000000000000000D+00 0.000000000000000D+00 -.000000000000000D+00
 0.892857376266100D+03 0.000000000000000D+00 0.000000000000000D+00 0.892857376266100D+03
 0.914589529992426D+03 0.000000000000000D+00 0.000000000000000D+00 -.914589529992426D+03
 0.530673421297553D+03 0.145130069373311D+03 -.434684440124339D+03 0.236592435528142D+03
 0.795369505087071D+03 -.121461616765179D+03 0.373525371668464D+03 -.691620215143526D+03
 0.459667459458846D+03 -.235473162706472D+02 0.607405709562665D+02 0.455027779615384D+03
 0.217365204150553D+02 -.121136337484499D+00 0.418497499608673D+00 -.217321537263263D+02
0.530851189898D-05 0.000000000000D+00 0.000000000000D+00 0.651916058394D-04 0.000000000000D+00  6 2 3 25 4 1 21 0 0.15873706D+00 0.11886582D+00 0.21767707D+06 0.21767707D+06 0.21767707D+06 0.10950115D+01  1  2  2  2  6  2        3 0.622208549289D-05 0.100000000000D+01
0.134393852094D-05 0.000000000000D+00 -.203860834554D-07 0.651916058394D-04 0.000000000000D+00  6 2 3 25 4 1 21 2 0.15873706D+00 0.11886582D+00 0.21767707D+06 0.21767707D+06 0.21767707D+06 0.10950115D+01  1  2  3  2  6  2        3 0.188877377192D-05 0.100000000000D+01
-.353382201760D-05 0.000000000000D+00 0.000000000000D+00 0.651916058394D-04 0.000000000000D+00  6 2 3 25 4 1 21 2 0.15873706D+00 0.11886582D+00 0.21767707D+06 0.21767707D+06 0.21767707D+06 0.10950115D+01  1  2 15  2  6  2        3 -.496644023331D-05 0.100000000000D+01
-.222775633349D+00 0.000000000000D+00 0.000000000000D+00 0.651916058394D-04 0.000000000000D+00  6 2 3 25 4 1 21 2 0.15873706D+00 0.11886582D+00 0.21767707D+06 0.21767707D+06 0.21767707D+06 0.10950115D+01  1  2  4  2  6  2        3 -.313089301882D+00 0.100000000000D+01
-.206297614615D+00 0.000000000000D+00 -.424044558137D-04 0.651916058394D-04 0.000000000000D+00  6 2 3 25 4 1 21 2 0.15873706D+00 0.12175945D+00 0.21767707D+06 0.21767707D+06 0.21767707D+06 0.10950115D+01  1  2  5  2  6  2        3 -.272357882401D+00 0.100000000000D+01
0.206238989137D+00 0.000000000000D+00 0.423921932494D-04 0.651916058394D-04 0.000000000000D+00  6 2 3 25 4 1 21 2 0.15873706D+00 0.11886582D+00 0.21767707D+06 0.21767707D+06 0.21767707D+06 0.10950115D+01  1  2  6  2  6  2        3 0.289848670427D+00 0.100000000000D+01
0.223547811627D+00 0.000000000000D+00 0.000000000000D+00 0.651916058394D-04 0.238324112115D-02  6 2 3 25 4 1 21 2 0.15873745D+00 0.12175932D+00 0.21779596D+06 0.21779596D+06 0.21779596D+06 0.10949934D+01  1  2 11  2  6  2        3 0.295114649756D+00 0.100000000000D+01
-.897670667162D-03 0.000000000000D+00 -.184517958056D-06 0.651916058394D-04 0.000000000000D+00  6 2 21 25 4 1 -3 2 0.15873706D+00 0.12175945D+00 0.21767707D+06 0.21767707D+06 0.21767707D+06 0.10950115D+01  1  2  5  6  6  2        3 -.152400079373D-01 0.100000000000D+01
0.900219527874D-03 0.000000000000D+00 0.000000000000D+00 0.651916058394D-04 0.959639400905D-05  6 2 21 25 4 1 -3 2 0.15873745D+00 0.12175932D+00 0.21779596D+06 0.21779596D+06 0.21779596D+06 0.10949934D+01  1  2 11  6  6  2        3 0.152820729574D-01 0.100000000000D+01
  </mgrwgt>
  </event>
  <event>
  6     66 0.17338086E-05 0.14727007E+03 0.75467711E-02 0.93207998E-01
        2 -1    0    0  502    0 0.00000000E+00 0.00000000E+00 0.61460060E+03 0.61460069E+03 0.32000000E+00 0.0000E+00 0.9000E+01
       21 -1    0    0  501  503 0.00000000E+00 0.00000000E+00 -.14765777E+04 0.14765779E+04 0.75000000E+00 0.0000E+00 0.9000E+01
       25  1    1    2    0    0 -.46118225E+03 -.26623645E+03 0.18850173E+03 0.57855753E+03 0.12500000E+03 0.0000E+00 0.9000E+01
        4  1    1    2  501    0 -.11207243E+02 0.30164182E+02 -.10273191E+03 0.10766488E+03 0.15500000E+01 0.0000E+00 0.9000E+01
        1  1    1    2  502    0 0.37920797E+03 0.10190522E+03 0.48283561E+02 0.39561947E+03 0.32000000E+00 0.0000E+00 0.9000E+01
       -3  1    1    2    0  503 0.93181513E+02 0.13416704E+03 -.99603048E+03 0.10093367E+04 0.50000000E+00 0.0000E+00 0.9000E+01
#aMCatNLO 2  0  0  2  5 0.16335113D+03 0.00000000D+00  -5  6  0 0.00000000D+00 0.00000000D+00 0.00000000D+00 0.00000000D+00 0.00000000D+00
  <mgrwgt>
 0.1299297340D-02    1    2    0
 0.530501640682290D+03 0.000000000000000D+00 0.000000000000000D+00 0.530501640682290D+03
 0.530501640682290D+03 0.000000000000000D+00 0.000000000000000D+00 -.530501640682290D+03
 0.491987520287709D+03 -.415383282915679D+03 -.200151613549633D+03 0.117570319326437D+03
 0.125429697324935D+03 -.426795126269440D+00 0.456523553537348D+02 -.116825892967275D+03
 0.443586063751937D+03 0.415810078041948D+03 0.154499258195898D+03 -.744426359161502D+00
 0.000000000000000D+00 0.000000000000000D+00 0.000000000000000D+00 -.000000000000000D+00
 0.542626087077937D+03 0.000000000000000D+00 0.000000000000000D+00 0.542626087077937D+03
 0.167243277335971D+04 0.000000000000000D+00 0.000000000000000D+00 -.167243277335971D+04
 0.559574639128349D+03 -.461289023723291D+03 -.266248818516655D+03 0.117570319326437D+03
 0.121172152489116D+03 -.111921507439801D+02 0.301518993260498D+02 -.116825892967275D+03
 0.392757541572829D+03 0.379299661203192D+03 0.101929874437636D+03 -.744426359161502D+00
 0.114155452724735D+04 0.931815132640800D+02 0.134167044752969D+03 -.112980668628177D+04
0.296681879502D-03 0.000000000000D+00 0.000000000000D+00 0.247797385270D-06 0.103981893911D-09  6 2 21 25 4 1 -3 2 0.94553951D-01 0.22716580D+00 0.32225727D+06 0.32225727D+06 0.32225727D+06 0.10822598D+01  1  2  1  6  6  2        3 0.129929734020D-02 0.100000000000D+01
  </mgrwgt>
  </event>
  <event>
  5     66 0.17338086E-05 0.19097697E+03 0.75467711E-02 0.95021660E-01
        2 -1    0    0  502    0 0.00000000E+00 0.00000000E+00 0.10686975E+04 0.10686976E+04 0.32000000E+00 0.0000E+00 0.9000E+01
        3 -1    0    0  501    0 0.00000000E+00 0.00000000E+00 -.75038987E+03 0.75039004E+03 0.50000000E+00 0.0000E+00 0.9000E+01
       25  1    1    2    0    0 -.45143104E+03 0.13641179E+03 0.19517682E+03 0.52546851E+03 0.12500000E+03 0.0000E+00 0.9000E+01
        4  1    1    2  501    0 0.28324590E+03 -.45906956E+02 -.53567407E+03 0.60768808E+03 0.15500000E+01 0.0000E+00 0.9000E+01
        1  1    1    2  502    0 0.16818514E+03 -.90504839E+02 0.65880492E+03 0.68593104E+03 0.32000000E+00 0.0000E+00 0.9000E+01
#aMCatNLO 1  0  0  2  4 0.13176630D+03 0.00000000D+00  -5  6  0 0.00000000D+00 0.00000000D+00 0.00000000D+00 0.00000000D+00 0.00000000D+00
  <mgrwgt>
 0.1790895391D-02    9    2    0
 0.895511031308710D+03 0.000000000000000D+00 0.000000000000000D+00 0.895511031308710D+03
 0.895511031308710D+03 0.000000000000000D+00 0.000000000000000D+00 -.895511031308710D+03
 0.499034983971998D+03 -.451441132480326D+03 0.136409869731603D+03 0.104900746292004D+03
 0.712433988612400D+03 0.283267899843566D+03 -.459114379165491D+02 -.652084062768615D+03
 0.579553090033023D+03 0.168173232636761D+03 -.904984318150536D+02 0.547183316476611D+03
 0.000000000000000D+00 -.000000000000000D+00 0.000000000000000D+00 -.000000000000000D+00
 0.903059617851965D+03 0.000000000000000D+00 0.000000000000000D+00 0.903059617851965D+03
 0.174432551288792D+04 0.000000000000000D+00 0.000000000000000D+00 -.174432551288792D+04
 0.467013928497020D+03 -.415957348495393D+03 0.135839342866058D+03 0.104900746292004D+03
 0.735251206215174D+03 0.336442587034257D+03 -.467664083904453D+02 -.652084062768615D+03
 0.593597439774066D+03 0.211264032123396D+03 -.911912682604385D+02 0.547183316476611D+03
 0.851522556253626D+03 -.131749270662260D+03 0.211833378482588D+01 -.841265895035956D+03
0.156891030737D-03 0.000000000000D+00 0.000000000000D+00 0.106167865899D-04 0.000000000000D+00  6 2 3 25 4 1 21 0 0.16441502D+00 0.11544461D+00 0.23320513D+06 0.23320513D+06 0.23320513D+06 0.10927385D+01  1  2  2  2  6  2        3 0.187618132444D-03 0.100000000000D+01
0.158387918122D-04 0.000000000000D+00 -.602502868389D-06 0.106167865899D-04 0.000000000000D+00  6 2 3 25 4 1 21 2 0.16441502D+00 0.11544461D+00 0.23320513D+06 0.23320513D+06 0.23320513D+06 0.10927385D+01  1  2  3  2  6  2        3 0.226168033029D-04 0.100000000000D+01
-.126395875538D-03 0.000000000000D+00 0.000000000000D+00 0.106167865899D-04 0.000000000000D+00  6 2 3 25 4 1 21 2 0.16441502D+00 0.11544461D+00 0.23320513D+06 0.23320513D+06 0.23320513D+06 0.10927385D+01  1  2 15  2  6  2        3 -.180485398711D-03 0.100000000000D+01
0.261483564474D-02 0.000000000000D+00 0.000000000000D+00 0.106167865899D-04 0.000000000000D+00  6 2 3 25 4 1 21 2 0.16441502D+00 0.24197331D+00 0.33444752D+06 0.33444752D+06 0.33444752D+06 0.10810765D+01  1  2 12  2  6  2        3 0.305728470808D-03 0.100000000000D+01
-.110504397207D-02 0.000000000000D+00 0.000000000000D+00 0.106167865899D-04 0.000000000000D+00  6 2 3 25 4 1 21 2 0.16441502D+00 0.11544461D+00 0.23320513D+06 0.23320513D+06 0.23320513D+06 0.10927385D+01  1  2  4  2  6  2        3 -.157793362358D-02 0.100000000000D+01
-.316175392620D-02 0.000000000000D+00 -.755094729630D-04 0.106167865899D-04 0.000000000000D+00  6 2 3 25 4 1 21 2 0.16441502D+00 0.22539043D+00 0.23320513D+06 0.23320513D+06 0.23320513D+06 0.10927385D+01  1  2  5  2  6  2        3 -.534757098006D-03 0.100000000000D+01
0.261831516407D-02 0.000000000000D+00 0.612760586400D-04 0.106167865899D-04 0.000000000000D+00  6 2 3 25 4 1 21 2 0.16441502D+00 0.11544461D+00 0.23320513D+06 0.23320513D+06 0.23320513D+06 0.10927385D+01  1  2  6  2  6  2        3 0.373879016485D-02 0.100000000000D+01
0.209273016233D-03 0.000000000000D+00 0.000000000000D+00 0.106167865899D-04 0.000000000000D+00  6 2 21 25 4 1 -3 2 0.16441502D+00 0.24197331D+00 0.33444752D+06 0.33444752D+06 0.33444752D+06 0.10810765D+01  1  2 12  6  6  2        3 0.348061287986D-03 0.100000000000D+01
-.224783963754D-03 0.000000000000D+00 -.547426157750D-05 0.106167865899D-04 0.000000000000D+00  6 2 21 25 4 1 -3 2 0.16441502D+00 0.22539043D+00 0.23320513D+06 0.23320513D+06 0.23320513D+06 0.10927385D+01  1  2  5  6  6  2        3 -.518743348034D-03 0.100000000000D+01
  </mgrwgt>
  </event>
  <event>
  5     66 0.17338086E-05 0.23194396E+02 0.75467711E-02 0.90982141E-01
        2 -1    0    0  502    0 0.00000000E+00 0.00000000E+00 0.11629111E+04 0.11629111E+04 0.32000000E+00 0.0000E+00 0.9000E+01
        3 -1    0    0  501    0 0.00000000E+00 0.00000000E+00 -.36069003E+03 0.36069038E+03 0.50000000E+00 0.0000E+00 0.9000E+01
       25  1    1    2    0    0 0.44844709E+03 0.97541397E+02 0.16542723E+03 0.50359735E+03 0.12500000E+03 0.0000E+00 0.9000E+01
        4  1    1    2  501    0 -.20688226E+02 -.10510503E+02 -.13302003E+03 0.13503778E+03 0.15500000E+01 0.0000E+00 0.9000E+01
        1  1    1    2  502    0 -.42775887E+03 -.87030894E+02 0.76981387E+03 0.88496639E+03 0.32000000E+00 0.0000E+00 0.9000E+01
#aMCatNLO 1  0  0  2  1 0.80474658D+03 0.00000000D+00  -5  6  0 0.00000000D+00 0.00000000D+00 0.00000000D+00 0.00000000D+00 0.00000000D+00
  <mgrwgt>
 0.1482353231D-01    3    2    0
 0.647650166283012D+03 0.000000000000000D+00 0.000000000000000D+00 0.647650166283012D+03
 0.647650166283012D+03 0.000000000000000D+00 0.000000000000000D+00 -.647650166283012D+03
 0.490027584927737D+03 0.448509277772666D+03 0.975500438711790D+02 -.117581676645144D+03
 0.241004635930728D+03 -.206792613570668D+02 -.105046738734940D+02 -.239885919796558D+03
 0.564268111707558D+03 -.427830016415599D+03 -.870453699976850D+02 0.357467596441702D+03
 0.000000000000000D+00 -.000000000000000D+00 0.000000000000000D+00 0.000000000000000D+00
 0.117217256379067D+04 0.000000000000000D+00 0.000000000000000D+00 0.117217256379067D+04
 0.747853679570518D+03 0.000000000000000D+00 0.000000000000000D+00 -.747853679570518D+03
 0.575680492091696D+03 0.549209971896345D+03 -.180550564072676D+02 -.117581676645144D+03
 0.249527698206319D+03 0.256720308991224D+02 -.637162811612369D+02 -.239885919796558D+03
 0.524840338767911D+03 -.324918178451886D+03 -.205188878849992D+03 0.357467596441702D+03
 0.569977714295267D+03 -.249963824343581D+03 0.286960216418496D+03 0.424318884220156D+03
0.307326559230D-02 0.000000000000D+00 0.000000000000D+00 0.189381225982D-04 0.000000000000D+00  6 2 3 25 4 1 21 0 0.17890943D+00 0.55490804D-01 0.21879068D+06 0.21879068D+06 0.21879068D+06 0.10948427D+01  1  2  2  2  6  2        3 0.170896996766D-01 0.100000000000D+01
0.151896218247D-02 0.000000000000D+00 -.118021490838D-04 0.189381225982D-04 0.000000000000D+00  6 2 3 25 4 1 21 2 0.17890943D+00 0.55490804D-01 0.21879068D+06 0.21879068D+06 0.21879068D+06 0.10948427D+01  1  2  3  2  6  2        3 0.101247598964D-01 0.100000000000D+01
-.185894284036D-02 0.000000000000D+00 0.000000000000D+00 0.189381225982D-04 0.000000000000D+00  6 2 3 25 4 1 21 2 0.17890943D+00 0.55490804D-01 0.21879068D+06 0.21879068D+06 0.21879068D+06 0.10948427D+01  1  2 15  2  6  2        3 -.123909272640D-01 0.100000000000D+01
  </mgrwgt>
  </event>
  <event>
  5     66 0.17338086E-05 0.92821010E+02 0.75467711E-02 0.81374819E-01
        2 -1    0    0  502    0 0.00000000E+00 0.00000000E+00 0.13263548E+04 0.13263548E+04 0.32000000E+00 0.0000E+00 0.9000E+01
        3 -1    0    0  501    0 0.00000000E+00 0.00000000E+00 -.69846895E+03 0.69846913E+03 0.50000000E+00 0.0000E+00 0.9000E+01
       25  1    1    2    0    0 -.40653039E+03 -.28882244E+03 0.22720326E+03 0.56207800E+03 0.12500000E+03 0.0000E+00 0.9000E+01
        4  1    1    2  501    0 -.45062724E+02 0.81152814E+02 -.45976760E+03 0.46904699E+03 0.15500000E+01 0.0000E+00 0.9000E+01
        1  1    1    2  502    0 0.45159311E+03 0.20766963E+03 0.86045017E+03 0.99369895E+03 0.32000000E+00 0.0000E+00 0.9000E+01
#aMCatNLO 1  0  0  2  2 0.13224255D+03 0.00000000D+00  -5  6  0 0.00000000D+00 0.00000000D+00 0.00000000D+00 0.00000000D+00 0.00000000D+00
  <mgrwgt>
 0.4345542260D-02    5    2    0
 0.962506025280678D+03 0.000000000000000D+00 0.000000000000000D+00 0.962506025280678D+03
 0.962506025280678D+03 0.000000000000000D+00 0.000000000000000D+00 -.962506025280678D+03
 0.517121457606645D+03 -.406542788813024D+03 -.288824175199793D+03 0.556161721220515D+02
 0.643307406113635D+03 -.450598391438057D+02 0.811501737918791D+02 -.636575744865083D+03
 0.764583186841075D+03 0.451602627956830D+03 0.207674001407914D+03 0.580959572743031D+03
 0.000000000000000D+00 0.000000000000000D+00 0.000000000000000D+00 -.000000000000000D+00
 0.182310548017449D+04 0.000000000000000D+00 0.000000000000000D+00 0.182310548017449D+04
 0.299239905936163D+04 0.000000000000000D+00 0.000000000000000D+00 -.299239905936163D+04
 0.105624274733975D+04 -.530724822787111D+03 -.902918459875479D+03 0.556161721220515D+02
 0.818940249876147D+03 -.160471698345750D+03 -.489574598959854D+03 -.636575744865083D+03
 0.775370821307777D+03 0.330057584312603D+03 -.393380066108413D+03 0.580959572743031D+03
 0.216495072101244D+04 0.361138936820258D+03 0.178587312494375D+04 -.116929357918714D+04
0.788423762517D-02 0.000000000000D+00 0.000000000000D+00 0.164744935887D-04 0.000000000000D+00  6 2 3 25 4 1 21 0 0.20405460D+00 0.10745678D+00 0.30470832D+06 0.30470832D+06 0.30470832D+06 0.10840519D+01  1  2  2  2  6  2        3 0.790075303888D-02 0.100000000000D+01
0.197844151723D-02 0.000000000000D+00 -.302775484481D-04 0.164744935887D-04 0.000000000000D+00  6 2 3 25 4 1 21 2 0.20405460D+00 0.10745678D+00 0.30470832D+06 0.30470832D+06 0.30470832D+06 0.10840519D+01  1  2  3  2  6  2        3 0.232987229099D-02 0.100000000000D+01
-.507434171977D-02 0.000000000000D+00 0.000000000000D+00 0.164744935887D-04 0.000000000000D+00  6 2 3 25 4 1 21 2 0.20405460D+00 0.10745678D+00 0.30470832D+06 0.30470832D+06 0.30470832D+06 0.10840519D+01  1  2 15  2  6  2        3 -.597569757051D-02 0.100000000000D+01
0.741436927654D-02 0.000000000000D+00 -.437567298552D-02 0.164744935887D-04 0.000000000000D+00  6 2 3 25 4 1 21 2 0.20405460D+00 0.44447105D+00 0.30470832D+06 0.30470832D+06 0.30470832D+06 0.10840519D+01  1  2  5  2  6  2        3 0.250404014890D-04 0.100000000000D+01
0.128809557101D-02 0.000000000000D+00 -.744508982030D-03 0.164744935887D-04 0.000000000000D+00  6 2 21 25 4 1 -3 2 0.20405460D+00 0.44447105D+00 0.30470832D+06 0.30470832D+06 0.30470832D+06 0.10840519D+01  1  2  5  6  6  2        3 0.655740992329D-04 0.100000000000D+01
  </mgrwgt>
  </event>
  <event>
  5     66 0.17338086E-05 0.29982357E+02 0.75467711E-02 0.92466288E-01
        2 -1    0    0  502    0 0.00000000E+00 0.00000000E+00 0.65154712E+03 0.65154720E+03 0.32000000E+00 0.0000E+00 0.9000E+01
        3 -1    0    0  501    0 -.00000000E+00 -.00000000E+00 -.86626493E+03 0.86626507E+03 0.50000000E+00 0.0000E+00 0.9000E+01
       25  1    1    2    0    0 -.46805003E+03 0.29148366E+03 -.24803427E+03 0.61739740E+03 0.12500000E+03 0.0000E+00 0.9000E+01
        4  1    1    2  501    0 0.29983234E+02 -.83674584E+00 -.28451105E+03 0.28609201E+03 0.15500000E+01 0.0000E+00 0.9000E+01
        1  1    1    2  502    0 0.43806679E+03 -.29064692E+03 0.31782751E+03 0.61432286E+03 0.32000000E+00 0.0000E+00 0.9000E+01
#aMCatNLO 1  0  0  4  2 0.43346549D+02 0.00000000D+00  -5  6  0 0.00000000D+00 0.00000000D+00 0.00000000D+00 0.00000000D+00 0.00000000D+00
  <mgrwgt>
 0.3439703843D-02    6    2    0
 0.751273975729583D+03 0.000000000000000D+00 0.000000000000000D+00 0.751273975729583D+03
 0.751273975729583D+03 -.000000000000000D+00 -.000000000000000D+00 -.751273975729583D+03
 0.588343772357891D+03 -.468091072251505D+03 0.291520974388493D+03 -.162572027244339D+03
 0.248140620113844D+03 0.299706310854406D+02 -.838461020765631D+00 -.246322604740085D+03
 0.666063558987431D+03 0.438120441166064D+03 -.290682513367727D+03 0.408894631984425D+03
 0.000000000000000D+00 0.000000000000000D+00 0.000000000000000D+00 0.000000000000000D+00
 0.751273975729583D+03 0.000000000000000D+00 0.000000000000000D+00 0.751273975729583D+03
 0.751273975729583D+03 -.000000000000000D+00 -.000000000000000D+00 -.751273975729583D+03
 0.590621675414986D+03 -.466616215047020D+03 0.291479713653154D+03 -.174693582749549D+03
 0.101370527479532D+03 -.355244685004041D+02 -.373497443786661D+02 -.872868407842245D+02
 0.658914083642794D+03 0.439777956087901D+03 -.290728884151490D+03 0.395271849341691D+03
 0.151641664921855D+03 0.623627274595228D+02 0.365989148770022D+02 -.133291425807917D+03
0.158843927412D-02 0.000000000000D+00 0.000000000000D+00 0.109674654219D-04 0.000000000000D+00  6 2 3 25 4 1 21 0 0.10023804D+00 0.13327154D+00 0.31427252D+06 0.31427252D+06 0.31427252D+06 0.10830616D+01  1  2  2  3  6  4        4 0.246508349341D-02 0.100000000000D+01
0.693544602763D-03 0.000000000000D+00 -.610002505828D-05 0.109674654219D-04 0.000000000000D+00  6 2 3 25 4 1 21 2 0.10023804D+00 0.13327154D+00 0.31427252D+06 0.31427252D+06 0.31427252D+06 0.10830616D+01  1  2  3  3  6  4        4 0.126253014152D-02 0.100000000000D+01
-.103301086699D-02 0.000000000000D+00 0.000000000000D+00 0.109674654219D-04 0.000000000000D+00  6 2 3 25 4 1 21 2 0.10023804D+00 0.13327154D+00 0.31427252D+06 0.31427252D+06 0.31427252D+06 0.10830616D+01  1  2 15  3  6  4        4 -.188049528594D-02 0.100000000000D+01
-.220634278727D-03 0.000000000000D+00 0.000000000000D+00 0.109674654219D-04 0.000000000000D+00  6 2 3 25 4 1 21 2 0.10023804D+00 0.13327154D+00 0.31427252D+06 0.31427252D+06 0.31427252D+06 0.10830616D+01  1  2  4  3  6  4        4 -.401643133023D-03 0.100000000000D+01
-.930381140874D-03 0.000000000000D+00 0.000000000000D+00 0.109674654219D-04 0.000000000000D+00  6 2 3 25 4 1 21 2 0.10023804D+00 0.13327154D+00 0.31427252D+06 0.31427252D+06 0.31427252D+06 0.10830616D+01  1  2  5  3  6  4        4 -.169366790366D-02 0.100000000000D+01
0.202586904693D-02 0.000000000000D+00 -.000000000000D+00 0.109674654219D-04 0.000000000000D+00  6 2 3 25 4 1 21 2 0.10023804D+00 0.13327154D+00 0.31427252D+06 0.31427252D+06 0.31427252D+06 0.10830616D+01  1  2  6  3  6  4        4 0.368789653085D-02 0.100000000000D+01
  </mgrwgt>
  </event>
  <event>
  6     66 0.17338086E-05 0.57624158E+02 0.75467711E-02 0.93673853E-01
        2 -1    0    0  503    0 0.00000000E+00 0.00000000E+00 0.22446418E+04 0.22446418E+04 0.32000000E+00 0.0000E+00 0.9000E+01
        3 -1    0    0  501    0 0.00000000E+00 0.00000000E+00 -.70039016E+03 0.70039034E+03 0.50000000E+00 0.0000E+00 0.9000E+01
       25  1    1    2    0    0 0.75458276E+02 0.52660791E+03 0.28445618E+03 0.61607643E+03 0.12500000E+03 0.0000E+00 0.9000E+01
        4  1    1    2  501    0 -.56997382E+01 -.65238315E+02 -.49915509E+03 0.50343493E+03 0.15500000E+01 0.0000E+00 0.9000E+01
        1  1    1    2  502    0 -.83209134E+02 -.45322686E+03 0.15784896E+04 0.16443746E+04 0.32000000E+00 0.0000E+00 0.9000E+01
       21  1    1    2  503  502 0.13450596E+02 -.81427364E+01 0.18046101E+03 0.18114624E+03 0.75000000E+00 0.0000E+00 0.9000E+01
#aMCatNLO 2  0  0  1  5 0.15723317D+02 0.00000000D+00  -5  6  0 0.00000000D+00 0.00000000D+00 0.00000000D+00 0.00000000D+00 0.00000000D+00
  <mgrwgt>
 0.3765786093D-02    5    2    0
 0.120196643893973D+04 0.000000000000000D+00 0.000000000000000D+00 0.120196643893973D+04
 0.120196643893973D+04 0.000000000000000D+00 0.000000000000000D+00 -.120196643893973D+04
 0.545592706024979D+03 0.785158975383039D+02 0.524762642504890D+03 -.224905253984447D+02
 0.862165213748370D+03 -.876380593929213D+00 -.681572872972772D+02 -.859466504258952D+03
 0.996174958106117D+03 -.776395169443747D+02 -.456605355207613D+03 0.881957029657397D+03
 0.000000000000000D+00 0.000000000000000D+00 -.000000000000000D+00 0.000000000000000D+00
 0.130729185285399D+04 0.000000000000000D+00 0.000000000000000D+00 0.130729185285399D+04
 0.120257909901162D+04 0.000000000000000D+00 0.000000000000000D+00 -.120257909901162D+04
 0.546942565907189D+03 0.754594283401127D+02 0.526612971111636D+03 -.224905253984447D+02
 0.861957692763556D+03 -.569977503530947D+01 -.652372955886135D+02 -.859466504258952D+03
 0.995084039123847D+03 -.832102494845615D+02 -.453232939157834D+03 0.881957029657397D+03
 0.105886654071018D+03 0.134505961797582D+02 -.814273636518902D+01 0.104712753842364D+03
-.394139361181D-01 0.000000000000D+00 0.000000000000D+00 0.173658968816D-03 0.000000000000D+00  6 2 3 25 4 1 21 2 0.34708733D+00 0.10769733D+00 0.29620650D+06 0.29620650D+06 0.29620650D+06 0.10849610D+01  1  2 13  1  6  1        2 -.142577364093D-01 0.100000000000D+01
-.250381764175D-02 0.000000000000D+00 0.000000000000D+00 0.173658968816D-03 0.000000000000D+00  6 2 3 25 4 1 21 2 0.31750679D+00 0.10769733D+00 0.28968667D+06 0.28968667D+06 0.28968667D+06 0.10856777D+01  1  2  8  1  6  1        2 -.116160349017D-02 0.100000000000D+01
-.225010824932D-02 0.000000000000D+00 0.000000000000D+00 0.173658968816D-03 0.000000000000D+00  6 2 3 25 4 1 21 2 0.34538459D+00 0.10769733D+00 0.28968667D+06 0.28968667D+06 0.28968667D+06 0.10856777D+01  1  2  9  1  6  1        2 -.828047237026D-03 0.100000000000D+01
0.224216317028D-02 0.000000000000D+00 0.000000000000D+00 0.173658968816D-03 0.000000000000D+00  6 2 3 25 4 1 21 2 0.31750679D+00 0.10769733D+00 0.28968667D+06 0.28968667D+06 0.28968667D+06 0.10856777D+01  1  2 10  1  6  1        2 0.104021336087D-02 0.100000000000D+01
0.517460588580D-01 0.000000000000D+00 0.000000000000D+00 0.173658968816D-03 0.545273921741D-05  6 2 3 25 4 1 21 2 0.34532914D+00 0.10775223D+00 0.29620650D+06 0.29620650D+06 0.29620650D+06 0.10849610D+01  1  2  1  1  6  1        2 0.189729598689D-01 0.100000000000D+01
  </mgrwgt>
  </event>
  <event>
  5     66 0.17338086E-05 0.53912326E+02 0.75467711E-02 0.94459470E-01
        2 -1    0    0  502    0 0.00000000E+00 0.00000000E+00 0.22880032E+04 0.22880032E+04 0.32000000E+00 0.0000E+00 0.9000E+01
        3 -1    0    0  501    0 0.00000000E+00 0.00000000E+00 -.37582408E+03 0.37582441E+03 0.50000000E+00 0.0000E+00 0.9000E+01
       25  1    1    2    0    0 -.15351061E+03 0.44481465E+03 0.34838155E+03 0.59868212E+03 0.12500000E+03 0.0000E+00 0.9000E+01
        4  1    1    2  501    0 0.10264628E+03 -.46269098E+03 -.25790062E+02 0.47464379E+03 0.15500000E+01 0.0000E+00 0.9000E+01
        1  1    1    2  502    0 0.50864327E+02 0.17876326E+02 0.15895876E+04 0.15905017E+04 0.32000000E+00 0.0000E+00 0.9000E+01
#aMCatNLO 1  0  0  5  1 0.13406121D+01 0.00000000D+00  -5  6  0 0.00000000D+00 0.00000000D+00 0.00000000D+00 0.00000000D+00 0.00000000D+00
  <mgrwgt>
 0.5155586340D-01    8    2    0
 0.927301003219534D+03 0.000000000000000D+00 0.000000000000000D+00 0.927301003219534D+03
 0.927301003219534D+03 -.000000000000000D+00 -.000000000000000D+00 -.927301003219534D+03
 0.500725945105077D+03 -.153514683271938D+03 0.444835122287602D+03 -.116860720948758D+03
 0.708344599387534D+03 0.102652140669788D+03 -.462710820906226D+03 -.526415525714889D+03
 0.645531461946456D+03 0.508625426021505D+02 0.178756986186238D+02 0.643276246663647D+03
 0.000000000000000D+00 0.000000000000000D+00 0.000000000000000D+00 0.000000000000000D+00
 0.927301003219534D+03 0.000000000000000D+00 0.000000000000000D+00 0.927301003219534D+03
 0.927301003219534D+03 -.000000000000000D+00 -.000000000000000D+00 -.927301003219534D+03
 0.500725557718100D+03 -.153514551776586D+03 0.444835168501793D+03 -.116859057881352D+03
 0.708342835252062D+03 0.102652326687596D+03 -.462710755530055D+03 -.526413173083044D+03
 0.221121033291408D+03 0.161032506105527D+02 0.634213495768774D+01 0.220442677373988D+03
 0.424412580177497D+03 0.347589744784371D+02 0.115334520705735D+02 0.422829553590408D+03
0.245851618554D-04 0.000000000000D+00 0.000000000000D+00 0.514673960753D-04 0.000000000000D+00  6 2 3 25 4 1 21 0 0.35200051D+00 0.57819116D-01 0.25744027D+06 0.25744027D+06 0.25744027D+06 0.10895022D+01  1  2  2  4  6  5        1 0.298498245778D-04 0.100000000000D+01
0.984419510746D-05 0.000000000000D+00 -.944134949466D-07 0.514673960753D-04 0.000000000000D+00  6 2 3 25 4 1 21 2 0.35200051D+00 0.57819116D-01 0.25744027D+06 0.25744027D+06 0.25744027D+06 0.10895022D+01  1  2  3  4  6  5        1 0.141874772678D-04 0.100000000000D+01
-.169796959288D-04 0.000000000000D+00 0.000000000000D+00 0.514673960753D-04 0.000000000000D+00  6 2 3 25 4 1 21 2 0.35200051D+00 0.57819116D-01 0.25744027D+06 0.25744027D+06 0.25744027D+06 0.10895022D+01  1  2 15  4  6  5        1 -.244711779252D-04 0.100000000000D+01
0.133297302914D-04 0.000000000000D+00 0.000000000000D+00 0.514673960753D-04 0.000000000000D+00  6 2 3 25 4 1 21 2 0.35200051D+00 0.57819116D-01 0.25744904D+06 0.25744904D+06 0.25744904D+06 0.10895011D+01  1  2 12  4  6  5        1 0.192107643055D-04 0.100000000000D+01
-.222768947427D+00 0.000000000000D+00 0.000000000000D+00 0.514673960753D-04 0.000000000000D+00  6 2 3 25 4 1 21 2 0.35200051D+00 0.57819116D-01 0.25744027D+06 0.25744027D+06 0.25744027D+06 0.10895022D+01  1  2  4  4  6  5        1 -.321055133822D+00 0.100000000000D+01
-.150112794817D+00 0.000000000000D+00 0.000000000000D+00 0.514673960753D-04 0.000000000000D+00  6 2 3 25 4 1 21 2 0.35200051D+00 0.57819116D-01 0.25744027D+06 0.25744027D+06 0.25744027D+06 0.10895022D+01  1  2  5  4  6  5        1 -.216342914868D+00 0.100000000000D+01
0.268698617483D+00 0.000000000000D+00 -.000000000000D+00 0.514673960753D-04 0.000000000000D+00  6 2 3 25 4 1 21 2 0.35200051D+00 0.57819116D-01 0.25744027D+06 0.25744027D+06 0.25744027D+06 0.10895022D+01  1  2  6  4  6  5        1 0.387249082919D+00 0.100000000000D+01
0.139929575061D+00 0.000000000000D+00 0.000000000000D+00 0.514673960753D-04 0.323466148269D-04  6 2 3 25 4 1 21 2 0.35200051D+00 0.57819116D-01 0.25744904D+06 0.25744904D+06 0.25744904D+06 0.10895011D+01  1  2 11  4  6  5        1 0.201666052283D+00 0.100000000000D+01
  </mgrwgt>
  </event>
  <event>
  5     66 -.17338086E-05 0.27682322E+02 0.75467711E-02 0.92679012E-01
        2 -1    0    0  502    0 0.00000000E+00 0.00000000E+00 0.14382517E+04 0.14382517E+04 0.32000000E+00 0.0000E+00 0.9000E+01
        3 -1    0    0  501    0 0.00000000E+00 0.00000000E+00 -.78899637E+03 0.78899653E+03 0.50000000E+00 0.0000E+00 0.9000E+01
       25  1    1    2    0    0 0.56891772E+03 0.13359306E+03 0.51385713E+03 0.78815521E+03 0.12500000E+03 0.0000E+00 0.9000E+01
        4  1    1    2  501    0 -.22616240E+02 0.15958928E+02 -.54957506E+03 0.55027387E+03 0.15500000E+01 0.0000E+00 0.9000E+01
        1  1    1    2  502    0 -.54630148E+03 -.14955199E+03 0.68497322E+03 0.88881917E+03 0.32000000E+00 0.0000E+00 0.9000E+01
#aMCatNLO 1  0  0  2  4 0.15455269D+02 0.00000000D+00  -5  6  0 0.00000000D+00 0.00000000D+00 0.00000000D+00 0.00000000D+00 0.00000000D+00
  <mgrwgt>
 -.7127077740D-03    1    2    0
 0.106525845283626D+04 0.000000000000000D+00 0.000000000000000D+00 0.106525845283626D+04
 0.106525845283626D+04 0.000000000000000D+00 0.000000000000000D+00 -.106525845283626D+04
 0.667349106055883D+03 0.568889193622287D+03 0.133583879650559D+03 0.297069456240245D+03
 0.742773808323285D+03 -.226185795189203D+02 0.159596618320640D+02 -.742257784995097D+03
 0.720393991293357D+03 -.546270614103367D+03 -.149543541482623D+03 0.445188328754852D+03
 0.000000000000000D+00 0.000000000000000D+00 0.000000000000000D+00 0.000000000000000D+00
 0.121197249469482D+04 0.000000000000000D+00 0.000000000000000D+00 0.121197249469482D+04
 0.116340812347013D+04 0.000000000000000D+00 0.000000000000000D+00 -.116340812347013D+04
 0.617350934022083D+03 0.519422220931740D+03 0.862987271598098D+02 0.297069456240245D+03
 0.747569397234807D+03 -.800037778913052D+02 -.388944702921086D+02 -.742257784995097D+03
 0.777720892325497D+03 -.603955058505485D+03 -.204683720910250D+03 0.445188328754852D+03
 0.232739394582556D+03 0.164536615465050D+03 0.157279464042549D+03 0.485643712246911D+02
-.969533517295D-03 0.000000000000D+00 0.000000000000D+00 0.484727212356D-04 0.000000000000D+00  6 2 3 25 4 1 21 2 0.22126950D+00 0.12138407D+00 0.35499818D+06 0.35499818D+06 0.35499818D+06 0.10791843D+01  1  2 14  2  6  2        3 -.712707773999D-03 0.100000000000D+01
  </mgrwgt>
  </event>
  <event>
  5     66 0.17338086E-05 0.11063455E+03 0.75467711E-02 0.95437293E-01
        2 -1    0    0  502    0 0.00000000E+00 0.00000000E+00 0.21057401E+04 0.21057401E+04 0.32000000E+00 0.0000E+00 0.9000E+01
        3 -1    0    0  501    0 0.00000000E+00 0.00000000E+00 -.86831280E+03 0.86831294E+03 0.50000000E+00 0.0000E+00 0.9000E+01
       25  1    1    2    0    0 -.43502566E+03 0.13547827E+03 0.13951078E+04 0.14729401E+04 0.12500000E+03 0.0000E+00 0.9000E+01
        4  1    1    2  501    0 0.32473044E+03 -.12616562E+03 -.78777470E+03 0.86137042E+03 0.15500000E+01 0.0000E+00 0.9000E+01
        1  1    1    2  502    0 0.11029522E+03 -.93126546E+01 0.63009415E+03 0.63974253E+03 0.32000000E+00 0.0000E+00 0.9000E+01
#aMCatNLO 1  0  0  2  4 0.15455269D+02 0.00000000D+00  -5  6  0 0.00000000D+00 0.00000000D+00 0.00000000D+00 0.00000000D+00 0.00000000D+00
  <mgrwgt>
 0.6174257385D-03    4    2    0
 0.135219869127172D+04 0.000000000000000D+00 0.000000000000000D+00 0.135219869127172D+04
 0.135219869127172D+04 0.000000000000000D+00 0.000000000000000D+00 -.135219869127172D+04
 0.981635362248917D+03 -.435009310817521D+03 0.135487509895219D+03 0.860460933791896D+03
 0.130773675467747D+04 0.324767030891249D+03 -.126179324805330D+03 -.126046839435668D+04
 0.415025265617048D+03 0.110242279926272D+03 -.930818508988857D+01 0.400007460564789D+03
 0.000000000000000D+00 -.000000000000000D+00 0.000000000000000D+00 0.000000000000000D+00
 0.181279580125704D+04 0.000000000000000D+00 0.000000000000000D+00 0.181279580125704D+04
 0.167062184826502D+04 0.000000000000000D+00 0.000000000000000D+00 -.167062184826502D+04
 0.952853399603601D+03 -.377489890840512D+03 -.970204353079181D+02 0.860460933791896D+03
 0.139887316384208D+04 0.405244434372352D+03 -.451489206687906D+03 -.126046839435668D+04
 0.436878227235355D+03 0.135572483828999D+03 -.111699232554443D+03 0.400007460564789D+03
 0.694812858841023D+03 -.163327027360839D+03 0.660208874550267D+03 0.142173952992023D+03
0.160555252111D-01 0.000000000000D+00 0.000000000000D+00 0.464182906143D-04 0.000000000000D+00  6 2 3 25 4 1 21 0 0.32396002D+00 0.13358660D+00 0.21692702D+06 0.21692702D+06 0.21692702D+06 0.10951257D+01  1  2  2  2  6  2        3 0.349389246353D-02 0.100000000000D+01
0.965883648101D-03 0.000000000000D+00 -.616574443275D-04 0.464182906143D-04 0.000000000000D+00  6 2 3 25 4 1 21 2 0.32396002D+00 0.13358660D+00 0.21692702D+06 0.21692702D+06 0.21692702D+06 0.10951257D+01  1  2  3  2  6  2        3 0.252079662873D-03 0.100000000000D+01
-.119425820509D-01 0.000000000000D+00 0.000000000000D+00 0.464182906143D-04 0.000000000000D+00  6 2 3 25 4 1 21 2 0.32396002D+00 0.13358660D+00 0.21692702D+06 0.21692702D+06 0.21692702D+06 0.10951257D+01  1  2 15  2  6  2        3 -.311681646453D-02 0.100000000000D+01
-.449450822900D-04 0.000000000000D+00 0.000000000000D+00 0.464182906143D-04 0.000000000000D+00  6 2 3 25 4 1 21 2 0.32396002D+00 0.13358660D+00 0.21692702D+06 0.21692702D+06 0.21692702D+06 0.10951257D+01  1  2  4  2  6  2        3 -.117299233854D-04 0.100000000000D+01
  </mgrwgt>
  </event>
  <event>
  5     66 0.17338086E-05 0.26773336E+02 0.75467711E-02 0.85029815E-01
        2 -1    0    0  502    0 0.00000000E+00 0.00000000E+00 0.42968554E+04 0.42968554E+04 0.32000000E+00 0.0000E+00 0.9000E+01
        3 -1    0    0  501    0 0.00000000E+00 0.00000000E+00 -.10224098E+04 0.10224099E+04 0.50000000E+00 0.0000E+00 0.9000E+01
       25  1    1    2    0    0 -.59338923E+03 0.11251029E+04 0.24689084E+04 0.27801261E+04 0.12500000E+03 0.0000E+00 0.9000E+01
        4  1    1    2  501    0 -.18781803E+02 -.19077846E+02 -.62757993E+03 0.62815260E+03 0.15500000E+01 0.0000E+00 0.9000E+01
        1  1    1    2  502    0 0.61217103E+03 -.11060251E+04 0.14331172E+04 0.19109866E+04 0.32000000E+00 0.0000E+00 0.9000E+01
#aMCatNLO 1  0  0  1  5 0.14063001D+02 0.00000000D+00  -5  6  0 0.00000000D+00 0.00000000D+00 0.00000000D+00 0.00000000D+00 0.00000000D+00
  <mgrwgt>
 0.4053833894D-02    7    2    0
 0.209598359921657D+04 0.000000000000000D+00 0.000000000000000D+00 0.209598359921657D+04
 0.209598359921657D+04 0.000000000000000D+00 0.000000000000000D+00 -.209598359921657D+04
 0.159923026953963D+04 -.593345450891115D+03 0.112502693376053D+04 0.961336584777667D+03
 0.128738400199024D+04 -.187826716029506D+02 -.190793800866245D+02 -.128710557340234D+04
 0.130535292690328D+04 0.612128122494065D+03 -.110594755367391D+04 0.325768988624671D+03
 0.000000000000000D+00 -.000000000000000D+00 -.000000000000000D+00 0.000000000000000D+00
 0.315830733734697D+04 0.000000000000000D+00 0.000000000000000D+00 0.315830733734697D+04
 0.275647807690001D+04 0.000000000000000D+00 0.000000000000000D+00 -.275647807690001D+04
 0.196657199598231D+04 -.366459401811502D+03 0.167132279735957D+04 0.961336584777667D+03
 0.135177766579860D+04 0.149142782221765D+03 0.385251257207182D+03 -.128710557340234D+04
 0.111087346849282D+04 0.765868576874827D+03 -.735771535197881D+03 0.325768988624671D+03
 0.148556228397325D+04 -.548551957285090D+03 -.132080251936887D+04 0.401829260446957D+03
0.581989374328D+00 0.000000000000D+00 0.000000000000D+00 0.935580330862D-05 0.000000000000D+00  6 2 3 25 4 1 21 0 0.66105469D+00 0.15729382D+00 0.16497555D+07 0.16497555D+07 0.16497555D+07 0.10336906D+01  1  2  2  1  6  1        2 0.199186322209D-02 0.100000000000D+01
0.617555655620D+00 0.000000000000D+00 -.223499243874D-02 0.935580330862D-05 0.000000000000D+00  6 2 3 25 4 1 21 2 0.66105469D+00 0.15729382D+00 0.16497555D+07 0.16497555D+07 0.16497555D+07 0.10336906D+01  1  2  3  1  6  1        2 0.225840413846D-02 0.100000000000D+01
-.388859977645D+00 0.000000000000D+00 0.000000000000D+00 0.935580330862D-05 0.000000000000D+00  6 2 3 25 4 1 21 2 0.66105469D+00 0.15729382D+00 0.16497555D+07 0.16497555D+07 0.16497555D+07 0.10336906D+01  1  2 15  1  6  1        2 -.142206289394D-02 0.100000000000D+01
-.470931867549D-01 0.000000000000D+00 0.000000000000D+00 0.935580330862D-05 0.000000000000D+00  6 2 3 25 4 1 21 2 0.66105469D+00 0.15729382D+00 0.16497555D+07 0.16497555D+07 0.16497555D+07 0.10336906D+01  1  2  4  1  6  1        2 -.172220020808D-03 0.100000000000D+01
-.230993094495D+00 0.000000000000D+00 -.181119114632D+00 0.935580330862D-05 0.000000000000D+00  6 2 3 25 4 1 21 2 0.99660197D+00 0.15729382D+00 0.16497555D+07 0.16497555D+07 0.16497555D+07 0.10336906D+01  1  2  5  1  6  1        2 -.628511455910D-08 0.100000000000D+01
0.382240582871D+00 0.000000000000D+00 0.231299595901D+00 0.935580330862D-05 0.000000000000D+00  6 2 3 25 4 1 21 2 0.66105469D+00 0.15729382D+00 0.16497555D+07 0.16497555D+07 0.16497555D+07 0.10336906D+01  1  2  6  1  6  1        2 0.139785573395D-02 0.100000000000D+01
-.480569075905D-02 0.000000000000D+00 -.878745636895D-02 0.935580330862D-05 0.000000000000D+00  6 21 3 25 4 1 -2 2 0.99660197D+00 0.15729382D+00 0.16497555D+07 0.16497555D+07 0.16497555D+07 0.10336906D+01  1  2  5  5  6  1        2 -.362913088186D-12 0.100000000000D+01
  </mgrwgt>
  </event>
  <event>
  6     66 -.17338086E-05 0.95021469E+02 0.75467711E-02 0.94861123E-01
        2 -1    0    0  502    0 0.00000000E+00 0.00000000E+00 0.20150442E+04 0.20150442E+04 0.32000000E+00 0.0000E+00 0.9000E+01
        3 -1    0    0  503    0 0.00000000E+00 0.00000000E+00 -.87619647E+03 0.87619662E+03 0.50000000E+00 0.0000E+00 0.9000E+01
       25  1    1    2    0    0 0.42691623E+03 -.16070993E+03 0.87491003E+03 0.99457413E+03 0.12500000E+03 0.0000E+00 0.9000E+01
        4  1    1    2  501    0 -.34221574E+03 0.16039506E+03 -.53629404E+03 0.65608832E+03 0.15500000E+01 0.0000E+00 0.9000E+01
        1  1    1    2  502    0 -.10596976E+03 0.71322130E+01 0.10170655E+04 0.10225961E+04 0.32000000E+00 0.0000E+00 0.9000E+01
       21  1    1    2  503  501 0.21269274E+02 -.68173454E+01 -.21683373E+03 0.21798231E+03 0.75000000E+00 0.0000E+00 0.9000E+01
#aMCatNLO 2  0  0  2  4 0.22335134D+02 0.00000000D+00  -5  6  0 0.00000000D+00 0.00000000D+00 0.00000000D+00 0.00000000D+00 0.00000000D+00
  <mgrwgt>
 -.3526908155D-02    2    2    0
 0.115194835353141D+04 0.000000000000000D+00 0.000000000000000D+00 0.115194835353141D+04
 0.115194835353141D+04 0.000000000000000D+00 0.000000000000000D+00 -.115194835353141D+04
 0.643712524538288D+03 0.432853768009288D+03 -.162622949726423D+03 0.430037447194887D+03
 0.107322928740652D+04 -.332327477011535D+03 0.157230337130812D+03 -.100829468532566D+04
 0.586954895118017D+03 -.100526290997753D+03 0.539261259561054D+01 0.578257238130774D+03
 0.000000000000000D+00 0.000000000000000D+00 -.000000000000000D+00 -.000000000000000D+00
 0.115233053027993D+04 0.000000000000000D+00 0.000000000000000D+00 0.115233053027993D+04
 0.153217646256715D+04 0.000000000000000D+00 0.000000000000000D+00 -.153217646256715D+04
 0.639265513934155D+03 0.426931764070633D+03 -.160724796292111D+03 0.430037447194887D+03
 0.107681297549010D+04 -.342251698913499D+03 0.160411303587643D+03 -.100829468532566D+04
 0.587926479112866D+03 -.105949339496643D+03 0.713083807455958D+01 0.578257238130774D+03
 0.380502024309961D+03 0.212692743395100D+02 -.681734537009158D+01 -.379845932287229D+03
-.353675489150D-01 0.000000000000D+00 0.000000000000D+00 0.918552001844D-04 0.000000000000D+00  6 2 3 25 4 1 21 2 0.30990390D+00 0.13547069D+00 0.23985612D+06 0.23985612D+06 0.23985612D+06 0.10918150D+01  1  2 13  2  6  2        3 -.983776518751D-02 0.100000000000D+01
0.223995443870D-01 0.000000000000D+00 0.000000000000D+00 0.918552001844D-04 0.757493775657D-06  6 2 3 25 4 1 21 2 0.31000671D+00 0.13479943D+00 0.23985612D+06 0.23985612D+06 0.23985612D+06 0.10918150D+01  1  2  1  2  6  2        3 0.631085703229D-02 0.100000000000D+01
  </mgrwgt>
  </event>
  <event>
  5     66 0.17338086E-05 0.73659574E+02 0.75467711E-02 0.89082766E-01
        2 -1    0    0  502    0 0.00000000E+00 0.00000000E+00 0.25071100E+04 0.25071100E+04 0.32000000E+00 0.0000E+00 0.9000E+01
        3 -1    0    0  501    0 0.00000000E+00 0.00000000E+00 -.41098335E+03 0.41098366E+03 0.50000000E+00 0.0000E+00 0.9000E+01
       25  1    1    2    0    0 0.27836737E+03 0.52395813E+03 0.50231417E+03 0.78737859E+03 0.12500000E+03 0.0000E+00 0.9000E+01
        4  1    1    2  501    0 -.34620803E+03 -.49524350E+03 0.73606558E+02 0.60872527E+03 0.15500000E+01 0.0000E+00 0.9000E+01
        1  1    1    2  502    0 0.67840666E+02 -.28714635E+02 0.15202059E+04 0.15219898E+04 0.32000000E+00 0.0000E+00 0.9000E+01
#aMCatNLO 1  0  0  2  5 0.51805652D+02 0.00000000D+00  -5  6  0 0.00000000D+00 0.00000000D+00 0.00000000D+00 0.00000000D+00 0.00000000D+00
  <mgrwgt>
 0.1634133687D-02    6    2    0
 0.101507680952820D+04 0.000000000000000D+00 0.000000000000000D+00 0.101507680952820D+04
 0.101507680952820D+04 0.000000000000000D+00 0.000000000000000D+00 -.101507680952820D+04
 0.613165147425136D+03 0.278399791377727D+03 0.523999565647196D+03 -.909093470402124D+02
 0.798990315239467D+03 -.346233248244140D+03 -.495287982228213D+03 -.522683342299216D+03
 0.617998156391801D+03 0.678334568664134D+02 -.287115834189827D+02 0.613592689339429D+03
 0.000000000000000D+00 -.000000000000000D+00 0.000000000000000D+00 -.000000000000000D+00
 0.104941965726062D+04 0.000000000000000D+00 0.000000000000000D+00 0.104941965726062D+04
 0.199669292910865D+04 0.000000000000000D+00 0.000000000000000D+00 -.199669292910865D+04
 0.617743665721993D+03 0.357396930515254D+03 0.479567681582738D+03 -.909093470402124D+02
 0.798969697423624D+03 -.243679534997257D+03 -.552969244450031D+03 -.522683342299216D+03
 0.635574364201656D+03 0.148285105088113D+03 -.739615550712218D+02 0.613592689339429D+03
 0.993824859021996D+03 -.262002500606110D+03 0.147363117938515D+03 -.947273271848032D+03
0.640579470882D-03 0.000000000000D+00 0.000000000000D+00 0.111543068015D-04 0.000000000000D+00  6 2 3 25 4 1 21 0 0.38570925D+00 0.63228233D-01 0.41239235D+06 0.41239235D+06 0.41239235D+06 0.10744737D+01  1  2  2  2  6  2        3 0.469609819753D-03 0.100000000000D+01
0.215449427061D-03 0.000000000000D+00 -.245999383664D-05 0.111543068015D-04 0.000000000000D+00  6 2 3 25 4 1 21 2 0.38570925D+00 0.63228233D-01 0.41239235D+06 0.41239235D+06 0.41239235D+06 0.10744737D+01  1  2  3  2  6  2        3 0.182348030389D-03 0.100000000000D+01
-.532324122046D-03 0.000000000000D+00 0.000000000000D+00 0.111543068015D-04 0.000000000000D+00  6 2 3 25 4 1 21 2 0.38570925D+00 0.63228233D-01 0.41239235D+06 0.41239235D+06 0.41239235D+06 0.10744737D+01  1  2 15  2  6  2        3 -.450538469783D-03 0.100000000000D+01
-.335020390505D-02 0.000000000000D+00 -.323565430024D-03 0.111543068015D-04 0.000000000000D+00  6 2 3 25 4 1 21 2 0.38570925D+00 0.12602221D+00 0.41239235D+06 0.41239235D+06 0.41239235D+06 0.10744737D+01  1  2  5  2  6  2        3 -.556551325475D-03 0.100000000000D+01
0.291604026701D-02 0.000000000000D+00 0.259386178845D-03 0.111543068015D-04 0.000000000000D+00  6 2 3 25 4 1 21 2 0.38570925D+00 0.63228233D-01 0.41239235D+06 0.41239235D+06 0.41239235D+06 0.10744737D+01  1  2  6  2  6  2        3 0.246802326874D-02 0.100000000000D+01
-.230697318343D-03 0.000000000000D+00 -.241507258116D-04 0.111543068015D-04 0.000000000000D+00  6 2 21 25 4 1 -3 2 0.38570925D+00 0.12602221D+00 0.41239235D+06 0.41239235D+06 0.41239235D+06 0.10744737D+01  1  2  5  6  6  2        3 -.478757636851D-03 0.100000000000D+01
  </mgrwgt>
  </event>
  <event>
  5     66 0.17338086E-05 0.17045360E+03 0.75467711E-02 0.92414497E-01
        2 -1    0    0  502    0 0.00000000E+00 0.00000000E+00 0.26766935E+04 0.26766935E+04 0.32000000E+00 0.0000E+00 0.9000E+01
        3 -1    0    0  501    0 0.00000000E+00 0.00000000E+00 -.53626368E+03 0.53626391E+03 0.50000000E+00 0.0000E+00 0.9000E+01
       25  1    1    2    0    0 -.55690830E+03 0.13533424E+03 0.93047066E+03 0.10999377E+04 0.12500000E+03 0.0000E+00 0.9000E+01
        4  1    1    2  501    0 0.45176747E+03 -.11449636E+01 -.33264406E+03 0.56102552E+03 0.15500000E+01 0.0000E+00 0.9000E+01
        1  1    1    2  502    0 0.10514083E+03 -.13418928E+03 0.15426032E+04 0.15519942E+04 0.32000000E+00 0.0000E+00 0.9000E+01
#aMCatNLO 1  0  0  1  5 0.92020437D+01 0.00000000D+00  -5  6  0 0.00000000D+00 0.00000000D+00 0.00000000D+00 0.00000000D+00 0.00000000D+00
  <mgrwgt>
 0.1657395653D-02   11    2    0
 0.119808759478514D+04 0.000000000000000D+00 0.000000000000000D+00 0.119808759478514D+04
 0.119808759478514D+04 0.000000000000000D+00 0.000000000000000D+00 -.119808759478514D+04
 0.643770954889910D+03 -.556937275811341D+03 0.135321250681860D+03 0.265188748414421D+03
 0.104942704228568D+04 0.451808977688710D+03 -.114796604861391D+01 -.947187651383985D+03
 0.702977192394692D+03 0.105128298122630D+03 -.134173284633246D+03 0.681998902969564D+03
 0.000000000000000D+00 -.000000000000000D+00 -.000000000000000D+00 0.000000000000000D+00
 0.129941157243654D+04 0.000000000000000D+00 0.000000000000000D+00 0.129941157243654D+04
 0.119830537549824D+04 0.000000000000000D+00 0.000000000000000D+00 -.119830537549824D+04
 0.641784040689234D+03 -.554518696108716D+03 0.135814941238741D+03 0.265188748414421D+03
 0.105113392747304D+04 0.455760869395447D+03 -.341289462634075D+00 -.947187651383985D+03
 0.703274890670434D+03 0.107773951367004D+03 -.133633242879769D+03 0.681998902969564D+03
 0.101524089102063D+03 -.901612465373453D+01 -.184040889633811D+01 0.101106196938300D+03
0.371872526374D-04 0.000000000000D+00 0.000000000000D+00 0.946992711660D-05 0.000000000000D+00  6 2 3 25 4 1 21 0 0.41179901D+00 0.82502124D-01 0.36534652D+06 0.36534652D+06 0.36534652D+06 0.10782762D+01  1  2  2  1  6  1        2 0.121330738255D-04 0.100000000000D+01
0.472836995635D-05 0.000000000000D+00 -.142808841756D-06 0.946992711660D-05 0.000000000000D+00  6 2 3 25 4 1 21 2 0.41179901D+00 0.82502124D-01 0.36534652D+06 0.36534652D+06 0.36534652D+06 0.10782762D+01  1  2  3  1  6  1        2 0.179369360360D-05 0.100000000000D+01
-.280161311352D-04 0.000000000000D+00 0.000000000000D+00 0.946992711660D-05 0.000000000000D+00  6 2 3 25 4 1 21 2 0.41179901D+00 0.82502124D-01 0.36534652D+06 0.36534652D+06 0.36534652D+06 0.10782762D+01  1  2 15  1  6  1        2 -.106278391240D-04 0.100000000000D+01
0.146799479778D-01 0.000000000000D+00 0.000000000000D+00 0.946992711660D-05 0.000000000000D+00  6 2 3 25 4 1 21 2 0.45102714D+00 0.82502124D-01 0.37275485D+06 0.37275485D+06 0.37275485D+06 0.10776432D+01  1  2 12  1  6  1        2 0.387961311941D-02 0.100000000000D+01
-.104146214294D-01 0.000000000000D+00 0.000000000000D+00 0.946992711660D-05 0.000000000000D+00  6 2 3 25 4 1 21 2 0.41179901D+00 0.82502124D-01 0.36534652D+06 0.36534652D+06 0.36534652D+06 0.10782762D+01  1  2  4  1  6  1        2 -.395075681773D-02 0.100000000000D+01
-.168852237061D-01 0.000000000000D+00 -.801085657126D-04 0.946992711660D-05 0.000000000000D+00  6 2 3 25 4 1 21 2 0.44664702D+00 0.82502124D-01 0.36534652D+06 0.36534652D+06 0.36534652D+06 0.10782762D+01  1  2  5  1  6  1        2 -.466126269784D-02 0.100000000000D+01
0.168364138491D-01 0.000000000000D+00 0.798449788549D-04 0.946992711660D-05 0.000000000000D+00  6 2 3 25 4 1 21 2 0.41179901D+00 0.82502124D-01 0.36534652D+06 0.36534652D+06 0.36534652D+06 0.10782762D+01  1  2  6  1  6  1        2 0.638684538382D-02 0.100000000000D+01
0.758570110423D-06 0.000000000000D+00 0.000000000000D+00 0.946992711660D-05 0.443953494101D-06  6 2 3 25 4 1 21 2 0.44662544D+00 0.82517121D-01 0.37275485D+06 0.37275485D+06 0.37275485D+06 0.10776432D+01  1  2 11  1  6  1        2 0.208804049030D-06 0.100000000000D+01
0.236831505827D-03 0.000000000000D+00 0.000000000000D+00 0.946992711660D-05 0.000000000000D+00  6 21 3 25 4 1 -2 2 0.45102714D+00 0.82502124D-01 0.37275485D+06 0.37275485D+06 0.37275485D+06 0.10776432D+01  1  2 12  5  6  1        2 0.448384761413D-05 0.100000000000D+01
-.246070039114D-03 0.000000000000D+00 -.108463153170D-05 0.946992711660D-05 0.000000000000D+00  6 21 3 25 4 1 -2 2 0.44664702D+00 0.82502124D-01 0.36534652D+06 0.36534652D+06 0.36534652D+06 0.10782762D+01  1  2  5  5  6  1        2 -.503525252498D-05 0.100000000000D+01
0.165820041722D-07 0.000000000000D+00 0.000000000000D+00 0.946992711660D-05 0.908530423096D-08  6 21 3 25 4 1 -2 2 0.44662544D+00 0.82517121D-01 0.37275485D+06 0.37275485D+06 0.37275485D+06 0.10776432D+01  1  2 11  5  6  1        2 0.338019305845D-09 0.100000000000D+01
  </mgrwgt>
  </event>
  <event>
  6     66 0.17338086E-05 0.80581847E+02 0.75467711E-02 0.91565404E-01
       21 -1    0    0  502  503 0.00000000E+00 0.00000000E+00 0.80772705E+03 0.80772740E+03 0.75000000E+00 0.0000E+00 0.9000E+01
        3 -1    0    0  501    0 0.00000000E+00 0.00000000E+00 -.65507704E+03 0.65507723E+03 0.50000000E+00 0.0000E+00 0.9000E+01
       25  1    1    2    0    0 0.30811677E+03 -.54890793E+03 -.82428060E+02 0.64703574E+03 0.12500000E+03 0.0000E+00 0.9000E+01
        4  1    1    2  501    0 0.19253820E+02 -.50259725E+01 -.68742838E+02 0.71581773E+02 0.15500000E+01 0.0000E+00 0.9000E+01
        1  1    1    2  502    0 -.32870110E+03 0.45650030E+03 0.18863460E+03 0.59331278E+03 0.32000000E+00 0.0000E+00 0.9000E+01
       -2  1    1    2    0  503 0.13305189E+01 0.97433604E+02 0.11518631E+03 0.15087434E+03 0.32000000E+00 0.0000E+00 0.9000E+01
#aMCatNLO 2  0  0  1  5 0.92020437D+01 0.00000000D+00  -5  6  0 0.00000000D+00 0.00000000D+00 0.00000000D+00 0.00000000D+00 0.00000000D+00
  <mgrwgt>
 0.2879357847D-04    1    2    0
 0.653885019351532D+03 0.000000000000000D+00 0.000000000000000D+00 0.653885019351532D+03
 0.653885019351532D+03 0.000000000000000D+00 0.000000000000000D+00 -.653885019351532D+03
 0.611101451544234D+03 0.308895891659767D+03 -.502133169919634D+03 -.101319257111601D+03
 0.730642487349537D+02 0.192589159828162D+02 0.453797346701322D+00 -.704788809952180D+02
 0.623604338423878D+03 -.328154807642583D+03 0.501679372572933D+03 0.171798138106819D+03
 0.000000000000000D+00 0.000000000000000D+00 0.000000000000000D+00 0.000000000000000D+00
 0.784981647714588D+03 0.000000000000000D+00 0.000000000000000D+00 0.784981647714588D+03
 0.674058523076843D+03 0.000000000000000D+00 0.000000000000000D+00 -.674058523076843D+03
 0.649891938062702D+03 0.308255315252817D+03 -.549042439084297D+03 -.101319257111601D+03
 0.732133844857133D+02 0.191846079004124D+02 -.498776715797622D+01 -.704788809952180D+02
 0.588289946458245D+03 -.328770442024977D+03 0.456596602371915D+03 0.171798138106819D+03
 0.147644901784771D+03 0.133051887174693D+01 0.974336038703585D+02 0.110923124637744D+03
0.109078769418D-04 0.000000000000D+00 0.000000000000D+00 0.791527773994D-06 0.127025461961D-10  6 21 3 25 4 1 -2 2 0.12426571D+00 0.10078110D+00 0.43682612D+06 0.43682612D+06 0.43682612D+06 0.10726811D+01  1  2  1  5  6  1        2 0.287935784694D-04 0.100000000000D+01
  </mgrwgt>
  </event>
  <event>
  5     66 0.17338086E-05 0.28218003E+02 0.75467711E-02 0.91032582E-01
        2 -1    0    0  502    0 0.00000000E+00 0.00000000E+00 0.23697454E+04 0.23697454E+04 0.32000000E+00 0.0000E+00 0.9000E+01
        3 -1    0    0  501    0 0.00000000E+00 0.00000000E+00 -.57202306E+03 0.57202328E+03 0.50000000E+00 0.0000E+00 0.9000E+01
       25  1    1    2    0    0 -.52387226E+03 0.13625053E+03 0.54421101E+03 0.77768694E+03 0.12500000E+03 0.0000E+00 0.9000E+01
        4  1    1    2  501    0 0.50056505E+03 -.12034019E+03 -.30957673E+03 0.60073895E+03 0.15500000E+01 0.0000E+00 0.9000E+01
        1  1    1    2  502    0 0.23307209E+02 -.15910346E+02 0.15630880E+04 0.15633428E+04 0.32000000E+00 0.0000E+00 0.9000E+01
#aMCatNLO 1  0  0  4  2 0.20138840D+02 0.00000000D+00  -5  6  0 0.00000000D+00 0.00000000D+00 0.00000000D+00 0.00000000D+00 0.00000000D+00
  <mgrwgt>
 0.3244753100D-02    4    2    0
 0.116428061421662D+04 0.000000000000000D+00 0.000000000000000D+00 0.116428061421662D+04
 0.116428061421662D+04 -.000000000000000D+00 -.000000000000000D+00 -.116428061421662D+04
 0.562376857694994D+03 -.523905887033018D+03 0.136258177170654D+03 0.871725917773110D+02
 0.997953974815476D+03 0.500600279363125D+03 -.120348924486893D+03 -.854884572633298D+03
 0.768230395922761D+03 0.233056076698924D+02 -.159092526837616D+02 0.767711980855987D+03
 0.000000000000000D+00 0.000000000000000D+00 0.000000000000000D+00 0.000000000000000D+00
 0.116428061421662D+04 0.000000000000000D+00 0.000000000000000D+00 0.116428061421662D+04
 0.116428061421662D+04 -.000000000000000D+00 -.000000000000000D+00 -.116428061421662D+04
 0.520971377301999D+03 -.488607452298875D+03 0.127772107882540D+03 0.268927866387433D+02
 0.774997453667746D+03 0.405644522963641D+03 0.228118022686728D+03 -.619706173849017D+03
 0.690719461235498D+03 0.708421657678804D+02 -.273374797078853D+02 0.686532900800824D+03
 0.341872936227989D+03 0.121207635673539D+02 -.328552650861382D+03 -.937195135905500D+02
0.764469728451D-02 0.000000000000D+00 0.000000000000D+00 0.282517149907D-03 0.000000000000D+00  6 2 3 25 4 1 21 0 0.36457623D+00 0.88003566D-01 0.30176409D+06 0.30176409D+06 0.30176409D+06 0.10843635D+01  1  2  2  3  6  4        4 0.328679793278D-02 0.100000000000D+01
0.515150168229D-02 0.000000000000D+00 -.293576504675D-04 0.282517149907D-03 0.000000000000D+00  6 2 3 25 4 1 21 2 0.36457623D+00 0.88003566D-01 0.30176409D+06 0.30176409D+06 0.30176409D+06 0.10843635D+01  1  2  3  3  6  4        4 0.260433209933D-02 0.100000000000D+01
-.505017763378D-02 0.000000000000D+00 0.000000000000D+00 0.282517149907D-03 0.000000000000D+00  6 2 3 25 4 1 21 2 0.36457623D+00 0.88003566D-01 0.30176409D+06 0.30176409D+06 0.30176409D+06 0.10843635D+01  1  2 15  3  6  4        4 -.255310791495D-02 0.100000000000D+01
-.184490872266D-03 0.000000000000D+00 0.000000000000D+00 0.282517149907D-03 0.000000000000D+00  6 2 3 25 4 1 21 2 0.36457623D+00 0.88003566D-01 0.30176409D+06 0.30176409D+06 0.30176409D+06 0.10843635D+01  1  2  4  3  6  4        4 -.932690175230D-04 0.100000000000D+01
  </mgrwgt>
  </event>
  <event>
  5     66 0.17338086E-05 0.36867776E+02 0.75467711E-02 0.92831148E-01
        2 -1    0    0  502    0 0.00000000E+00 0.00000000E+00 0.15523928E+04 0.15523929E+04 0.32000000E+00 0.0000E+00 0.9000E+01
        3 -1    0    0  501    0 0.00000000E+00 0.00000000E+00 -.57206770E+03 0.57206791E+03 0.50000000E+00 0.0000E+00 0.9000E+01
       25  1    1    2    0    0 -.27131169E+03 0.44801090E+03 0.57127874E+03 0.78505299E+03 0.12500000E+03 0.0000E+00 0.9000E+01
        4  1    1    2  501    0 0.24286375E+03 -.42454518E+03 -.33603348E+03 0.59341580E+03 0.15500000E+01 0.0000E+00 0.9000E+01
        1  1    1    2  502    0 0.28447935E+02 -.23465719E+02 0.74507986E+03 0.74599198E+03 0.32000000E+00 0.0000E+00 0.9000E+01
#aMCatNLO 1  0  0  4  2 0.31728937D+02 0.00000000D+00  -5  6  0 0.00000000D+00 0.00000000D+00 0.00000000D+00 0.00000000D+00 0.00000000D+00
  <mgrwgt>
 0.1947773235D-02    6    2    0
 0.942376809831607D+03 0.000000000000000D+00 0.000000000000000D+00 0.942376809831607D+03
 0.942376809831607D+03 -.000000000000000D+00 -.000000000000000D+00 -.942376809831607D+03
 0.587845179020421D+03 -.271335654006273D+03 0.448057885410841D+03 0.235707549059644D+03
 0.843696662832826D+03 0.242894958603744D+03 -.424598137853758D+03 -.687417281781055D+03
 0.453211777809966D+03 0.284406954025290D+02 -.234597475570831D+02 0.451709732721411D+03
 0.000000000000000D+00 0.000000000000000D+00 0.000000000000000D+00 -.000000000000000D+00
 0.942376809831607D+03 0.000000000000000D+00 0.000000000000000D+00 0.942376809831607D+03
 0.942376809831607D+03 -.000000000000000D+00 -.000000000000000D+00 -.942376809831607D+03
 0.558970129362637D+03 -.261370666060835D+03 0.430638358263425D+03 0.207505626031635D+03
 0.701683269167073D+03 0.244215745738373D+03 -.467919029891588D+03 -.462352529167687D+03
 0.433009584848768D+03 0.361413121725788D+02 -.369209884147933D+02 0.429916208975449D+03
 0.191090636284735D+03 -.189863918501169D+02 0.742016600429559D+02 -.175069305839397D+03
0.183094509552D-02 0.000000000000D+00 0.000000000000D+00 0.769930138310D-04 0.000000000000D+00  6 2 3 25 4 1 21 0 0.23882968D+00 0.88010434D-01 0.28331774D+06 0.28331774D+06 0.28331774D+06 0.10863950D+01  1  2  2  3  6  4        4 0.222752798381D-02 0.100000000000D+01
0.821035177287D-03 0.000000000000D+00 -.703131126571D-05 0.769930138310D-04 0.000000000000D+00  6 2 3 25 4 1 21 2 0.23882968D+00 0.88010434D-01 0.28331774D+06 0.28331774D+06 0.28331774D+06 0.10863950D+01  1  2  3  3  6  4        4 0.117892213453D-02 0.100000000000D+01
-.126668317377D-02 0.000000000000D+00 0.000000000000D+00 0.769930138310D-04 0.000000000000D+00  6 2 3 25 4 1 21 2 0.23882968D+00 0.88010434D-01 0.28331774D+06 0.28331774D+06 0.28331774D+06 0.10863950D+01  1  2 15  3  6  4        4 -.181882685701D-02 0.100000000000D+01
-.446078599633D-03 0.000000000000D+00 0.000000000000D+00 0.769930138310D-04 0.000000000000D+00  6 2 3 25 4 1 21 2 0.23882968D+00 0.88010434D-01 0.28331774D+06 0.28331774D+06 0.28331774D+06 0.10863950D+01  1  2  4  3  6  4        4 -.640523024345D-03 0.100000000000D+01
-.277296795940D-02 0.000000000000D+00 0.000000000000D+00 0.769930138310D-04 0.000000000000D+00  6 2 3 25 4 1 21 2 0.23882968D+00 0.88010434D-01 0.28331774D+06 0.28331774D+06 0.28331774D+06 0.10863950D+01  1  2  5  3  6  4        4 -.398169700413D-02 0.100000000000D+01
0.346986532687D-02 0.000000000000D+00 -.000000000000D+00 0.769930138310D-04 0.000000000000D+00  6 2 3 25 4 1 21 2 0.23882968D+00 0.88010434D-01 0.28331774D+06 0.28331774D+06 0.28331774D+06 0.10863950D+01  1  2  6  3  6  4        4 0.498237000175D-02 0.100000000000D+01
  </mgrwgt>
  </event>
  <event>
  5     66 0.17338086E-05 0.27601176E+02 0.75467711E-02 0.92726666E-01
        2 -1    0    0  502    0 0.00000000E+00 0.00000000E+00 0.76002069E+03 0.76002076E+03 0.32000000E+00 0.0000E+00 0.9000E+01
        3 -1    0    0  501    0 0.00000000E+00 0.00000000E+00 -.51935032E+03 0.51935056E+03 0.50000000E+00 0.0000E+00 0.9000E+01
       25  1    1    2    0    0 -.44719500E+03 -.26403886E+03 0.40436938E+03 0.66995484E+03 0.12500000E+03 0.0000E+00 0.9000E+01
        4  1    1    2  501    0 0.47157891E+03 0.27754370E+03 -.18130432E+03 0.57644673E+03 0.15500000E+01 0.0000E+00 0.9000E+01
        1  1    1    2  502    0 -.24383912E+02 -.13504840E+02 0.17605299E+02 0.32969756E+02 0.32000000E+00 0.0000E+00 0.9000E+01
#aMCatNLO 1  0  0  2  4 0.54709993D+02 0.00000000D+00  -5  6  0 0.00000000D+00 0.00000000D+00 0.00000000D+00 0.00000000D+00 0.00000000D+00
  <mgrwgt>
 0.1099108737D-02    7    2    0
 0.628265219812719D+03 0.000000000000000D+00 0.000000000000000D+00 0.628265219812719D+03
 0.628265219812719D+03 0.000000000000000D+00 0.000000000000000D+00 -.628265219812719D+03
 0.604974830665664D+03 -.447488136464602D+03 -.264205384741554D+03 0.283406824434334D+03
 0.621655742610502D+03 0.471633446928088D+03 0.277578076741551D+03 -.294903654388694D+03
 0.298998663492725D+02 -.241453104634854D+02 -.133726919999969D+02 0.114968299543605D+02
 0.000000000000000D+00 0.000000000000000D+00 0.000000000000000D+00 -.000000000000000D+00
 0.656972164392819D+03 0.000000000000000D+00 0.000000000000000D+00 0.656972164392819D+03
 0.680412279634528D+03 0.000000000000000D+00 0.000000000000000D+00 -.680412279634528D+03
 0.630170472069843D+03 -.460357115051189D+03 -.298733530683318D+03 0.283406824434334D+03
 0.597393588986584D+03 0.458932172260588D+03 0.243499889229222D+03 -.294903654388694D+03
 0.312050508715126D+02 -.247819625800485D+02 -.150808630911924D+02 0.114968299543605D+02
 0.786153320994080D+02 0.262069053706503D+02 0.703145045452887D+02 -.234401152417081D+02
0.236208319338D-03 0.000000000000D+00 0.000000000000D+00 0.965732775947D-07 0.000000000000D+00  6 2 3 25 4 1 21 0 0.11692628D+00 0.79900073D-01 0.30765976D+06 0.30765976D+06 0.30765976D+06 0.10837427D+01  1  2  2  2  6  2        3 0.107123549895D-02 0.100000000000D+01
0.749350657317D-04 0.000000000000D+00 -.907102141337D-06 0.965732775947D-07 0.000000000000D+00  6 2 3 25 4 1 21 2 0.11692628D+00 0.79900073D-01 0.30765976D+06 0.30765976D+06 0.30765976D+06 0.10837427D+01  1  2  3  2  6  2        3 0.399141821698D-03 0.100000000000D+01
-.169753278149D-03 0.000000000000D+00 0.000000000000D+00 0.965732775947D-07 0.000000000000D+00  6 2 3 25 4 1 21 2 0.11692628D+00 0.79900073D-01 0.30765976D+06 0.30765976D+06 0.30765976D+06 0.10837427D+01  1  2 15  2  6  2        3 -.904191275715D-03 0.100000000000D+01
-.496277127601D-04 0.000000000000D+00 0.000000000000D+00 0.965732775947D-07 0.000000000000D+00  6 2 3 25 4 1 21 2 0.11692628D+00 0.79900073D-01 0.30765976D+06 0.30765976D+06 0.30765976D+06 0.10837427D+01  1  2  4  2  6  2        3 -.264342140550D-03 0.100000000000D+01
-.206211464184D-02 0.000000000000D+00 -.432845784599D-03 0.965732775947D-07 0.000000000000D+00  6 2 3 25 4 1 21 2 0.11692628D+00 0.89660969D-01 0.30765976D+06 0.30765976D+06 0.30765976D+06 0.10837427D+01  1  2  5  2  6  2        3 -.843006062194D-02 0.100000000000D+01
0.210089297556D-02 0.000000000000D+00 0.429986524925D-03 0.965732775947D-07 0.000000000000D+00  6 2 3 25 4 1 21 2 0.11692628D+00 0.79900073D-01 0.30765976D+06 0.30765976D+06 0.30765976D+06 0.10837427D+01  1  2  6  2  6  2        3 0.111904118755D-01 0.100000000000D+01
-.359595065464D-04 0.000000000000D+00 -.793815609679D-05 0.965732775947D-07 0.000000000000D+00  6 2 21 25 4 1 -3 2 0.11692628D+00 0.89660969D-01 0.30765976D+06 0.30765976D+06 0.30765976D+06 0.10837427D+01  1  2  5  6  6  2        3 -.196308642146D-02 0.100000000000D+01
  </mgrwgt>
  </event>
  <event>
  6     66 -.17338086E-05 0.53138338E+02 0.75467711E-02 0.88580258E-01
        2 -1    0    0  502    0 0.00000000E+00 0.00000000E+00 0.10998981E+04 0.10998982E+04 0.32000000E+00 0.0000E+00 0.9000E+01
        3 -1    0    0  501    0 -.00000000E+00 -.00000000E+00 -.19248019E+04 0.19248019E+04 0.50000000E+00 0.0000E+00 0.9000E+01
       25  1    1    2    0    0 -.80321316E+03 -.26019256E+03 -.40051923E+03 0.94281080E+03 0.12500000E+03 0.0000E+00 0.9000E+01
        4  1    1    2  503    0 0.20818906E+01 -.39444568E+02 -.75869266E+03 0.75972176E+03 0.15500000E+01 0.0000E+00 0.9000E+01
        1  1    1    2  502    0 0.78832934E+03 0.32049137E+03 0.60895962E+03 0.10464272E+04 0.32000000E+00 0.0000E+00 0.9000E+01
       21  1    1    2  501  503 0.12801929E+02 -.20854236E+02 -.27465147E+03 0.27574042E+03 0.75000000E+00 0.0000E+00 0.9000E+01
#aMCatNLO 2  0  0  4  2 0.10073987D+02 0.00000000D+00  -5  6  0 0.00000000D+00 0.00000000D+00 0.00000000D+00 0.00000000D+00 0.00000000D+00
  <mgrwgt>
 -.5921840793D-03    2    2    0
 0.145502102577459D+04 0.000000000000000D+00 0.000000000000000D+00 0.145502102577459D+04
 0.145502102577459D+04 -.000000000000000D+00 -.000000000000000D+00 -.145502102577459D+04
 0.866461592286533D+03 -.803244388030464D+03 -.260204331792967D+03 -.149073303181539D+03
 0.783151772680151D+03 0.148900870147316D+02 -.603093475210102D+02 -.780684165948270D+03
 0.126042868658249D+04 0.788354301015733D+03 0.320513679313977D+03 0.929757469129809D+03
 0.000000000000000D+00 0.000000000000000D+00 0.000000000000000D+00 0.000000000000000D+00
 0.145502102577459D+04 0.000000000000000D+00 0.000000000000000D+00 0.145502102577459D+04
 0.145502102577459D+04 -.000000000000000D+00 -.000000000000000D+00 -.145502102577459D+04
 0.866479021748874D+03 -.803242516440022D+03 -.260211912299263D+03 -.149171430279215D+03
 0.573527384358734D+03 0.206137303231097D+01 -.393614072184755D+02 -.572171382517838D+03
 0.126032229916987D+04 0.788357023448003D+03 0.320502652641416D+03 0.929614732571967D+03
 0.209713346271693D+03 0.128241199597085D+02 -.209293331236787D+02 -.208271919774914D+03
-.354169628390D-01 0.000000000000D+00 0.000000000000D+00 0.209385313769D-04 0.000000000000D+00  6 2 3 25 4 1 21 2 0.16921511D+00 0.29612337D+00 0.78191515D+06 0.78191515D+06 0.78191515D+06 0.10550509D+01  1  2 13  3  6  4        4 -.109925498407D-02 0.100000000000D+01
0.163373481602D-01 0.000000000000D+00 0.000000000000D+00 0.209385313769D-04 0.283437444433D-06  6 2 3 25 4 1 21 2 0.16921511D+00 0.29612337D+00 0.78191515D+06 0.78191515D+06 0.78191515D+06 0.10550509D+01  1  2  1  3  6  4        4 0.507070904787D-03 0.100000000000D+01
  </mgrwgt>
  </event>
  <event>
  6     66 0.17338086E-05 0.14905060E+03 0.75467711E-02 0.89924543E-01
        2 -1    0    0  502    0 0.00000000E+00 0.00000000E+00 0.18289433E+04 0.18289433E+04 0.32000000E+00 0.0000E+00 0.9000E+01
       21 -1    0    0  501  503 0.00000000E+00 0.00000000E+00 -.33563638E+03 0.33563722E+03 0.75000000E+00 0.0000E+00 0.9000E+01
       25  1    1    2    0    0 0.35965596E+03 -.48753358E+03 0.50691992E+03 0.79977135E+03 0.12500000E+03 0.0000E+00 0.9000E+01
        4  1    1    2  501    0 0.13627233E+03 -.78931651E+02 0.19983975E+03 0.25443797E+03 0.15500000E+01 0.0000E+00 0.9000E+01
        1  1    1    2  502    0 -.48600347E+03 0.57859470E+03 0.79115464E+03 0.10940279E+04 0.32000000E+00 0.0000E+00 0.9000E+01
       -3  1    1    2    0  503 -.99248200E+01 -.12129473E+02 -.46074242E+01 0.16343333E+02 0.50000000E+00 0.0000E+00 0.9000E+01
#aMCatNLO 2  0  0  2  4 0.15672465D+02 0.00000000D+00  -5  6  0 0.00000000D+00 0.00000000D+00 0.00000000D+00 0.00000000D+00 0.00000000D+00
  <mgrwgt>
 0.1976862976D-02    2    2    0
 0.769891240828234D+03 0.000000000000000D+00 0.000000000000000D+00 0.769891240828234D+03
 0.769891240828234D+03 0.000000000000000D+00 0.000000000000000D+00 -.769891240828234D+03
 0.624710955805151D+03 0.356351253142912D+03 -.492624657086731D+03 -.705231161864101D+02
 0.159678232950795D+03 0.134603475779907D+03 -.801070105692719D+02 0.310146617571579D+02
 0.755393292900522D+03 -.490954728922820D+03 0.572731667656003D+03 0.395084544292522D+02
 0.000000000000000D+00 -.000000000000000D+00 -.000000000000000D+00 -.000000000000000D+00
 0.772407020655213D+03 0.000000000000000D+00 0.000000000000000D+00 0.772407020655213D+03
 0.794732816837555D+03 0.000000000000000D+00 0.000000000000000D+00 -.794732816837555D+03
 0.623159613437259D+03 0.360372785482693D+03 -.487709800379362D+03 -.705231161864101D+02
 0.159923069515882D+03 0.135633459982905D+03 -.788482304971802D+02 0.310146617571579D+02
 0.756779556660210D+03 -.486081425418644D+03 0.578687503986750D+03 0.395084544292522D+02
 0.272775978794165D+02 -.992482004695405D+01 -.121294731102077D+02 -.223257961823420D+02
-.451991060393D-06 0.000000000000D+00 0.000000000000D+00 0.124480879427D-08 0.000000000000D+00  6 2 21 25 4 1 -3 2 0.28045867D+00 0.52295550D-01 0.59866048D+06 0.59866048D+06 0.59866048D+06 0.10630264D+01  1  2 13  6  6  2        3 -.188742621787D-04 0.100000000000D+01
0.468268322268D-04 0.000000000000D+00 0.000000000000D+00 0.124480879427D-08 0.173845268759D-10  6 2 21 25 4 1 -3 2 0.28137512D+00 0.51636280D-01 0.59866048D+06 0.59866048D+06 0.59866048D+06 0.10630264D+01  1  2  1  6  6  2        3 0.199573723785D-02 0.100000000000D+01
  </mgrwgt>
  </event>
  <event>
  5     66 0.17338086E-05 0.70656029E+02 0.75467711E-02 0.94276071E-01
        2 -1    0    0  502    0 0.00000000E+00 0.00000000E+00 0.23677250E+04 0.23677250E+04 0.32000000E+00 0.0000E+00 0.9000E+01
        3 -1    0    0  501    0 0.00000000E+00 0.00000000E+00 -.39832130E+03 0.39832162E+03 0.50000000E+00 0.0000E+00 0.9000E+01
       25  1    1    2    0    0 -.43410567E+03 -.14415748E+03 0.10395255E+04 0.11425705E+04 0.12500000E+03 0.0000E+00 0.9000E+01
        4  1    1    2  501    0 -.20714640E+02 0.67545993E+02 -.30091451E+03 0.30910112E+03 0.15500000E+01 0.0000E+00 0.9000E+01
        1  1    1    2  502    0 0.45482031E+03 0.76611483E+02 0.12307928E+04 0.13143750E+04 0.32000000E+00 0.0000E+00 0.9000E+01
#aMCatNLO 1  0  0  2  4 0.28380910D+02 0.00000000D+00  -5  6  0 0.00000000D+00 0.00000000D+00 0.00000000D+00 0.00000000D+00 0.00000000D+00
  <mgrwgt>
 0.1322057517D-02    4    2    0
 0.971141476214973D+03 0.000000000000000D+00 0.000000000000000D+00 0.971141476214973D+03
 0.971141476214973D+03 0.000000000000000D+00 0.000000000000000D+00 -.971141476214973D+03
 0.573130571944784D+03 -.434069642524050D+03 -.144156650639781D+03 0.321956608898029D+03
 0.745350412430685D+03 -.207150972799552D+02 0.675511596839918D+02 -.741993910271925D+03
 0.623801968054478D+03 0.454784739804005D+03 0.766054909557893D+02 0.420037301373896D+03
 0.000000000000000D+00 0.000000000000000D+00 0.000000000000000D+00 0.000000000000000D+00
 0.987219385866923D+03 0.000000000000000D+00 0.000000000000000D+00 0.987219385866923D+03
 0.983851006971241D+03 0.000000000000000D+00 0.000000000000000D+00 -.983851006971241D+03
 0.579592787756589D+03 -.440961025759968D+03 -.148997031403491D+03 0.321956608898029D+03
 0.745110341102222D+03 -.296255927290549D+02 0.612925916591932D+02 -.741993910271925D+03
 0.617787165417434D+03 0.447362085905049D+03 0.713919554552631D+02 0.420037301373896D+03
 0.285800985619183D+02 0.232245325839742D+02 0.163124842890348D+02 0.336837889568183D+01
0.258407769807D-02 0.000000000000D+00 0.000000000000D+00 0.271193965525D-04 0.000000000000D+00  6 2 3 25 4 1 21 0 0.36426541D+00 0.61280226D-01 0.25301005D+06 0.25301005D+06 0.25301005D+06 0.10900683D+01  1  2  2  2  6  2        3 0.250567097769D-02 0.100000000000D+01
0.844487901099D-03 0.000000000000D+00 -.992353876386D-05 0.271193965525D-04 0.000000000000D+00  6 2 3 25 4 1 21 2 0.36426541D+00 0.61280226D-01 0.25301005D+06 0.25301005D+06 0.25301005D+06 0.10900683D+01  1  2  3  2  6  2        3 0.973014527127D-03 0.100000000000D+01
-.171678668878D-02 0.000000000000D+00 0.000000000000D+00 0.271193965525D-04 0.000000000000D+00  6 2 3 25 4 1 21 2 0.36426541D+00 0.61280226D-01 0.25301005D+06 0.25301005D+06 0.25301005D+06 0.10900683D+01  1  2 15  2  6  2        3 -.197807261180D-02 0.100000000000D+01
-.154969788089D-03 0.000000000000D+00 0.000000000000D+00 0.271193965525D-04 0.000000000000D+00  6 2 3 25 4 1 21 2 0.36426541D+00 0.61280226D-01 0.25301005D+06 0.25301005D+06 0.25301005D+06 0.10900683D+01  1  2  4  2  6  2        3 -.178555376436D-03 0.100000000000D+01
  </mgrwgt>
  </event>
  <event>
  6     66 0.17338086E-05 0.25871540E+02 0.75467711E-02 0.92710105E-01
        2 -1    0    0  502    0 0.00000000E+00 0.00000000E+00 0.61429775E+03 0.61429783E+03 0.32000000E+00 0.0000E+00 0.9000E+01
        3 -1    0    0  501    0 -.00000000E+00 -.00000000E+00 -.12076784E+04 0.12076785E+04 0.50000000E+00 0.0000E+00 0.9000E+01
       25  1    1    2    0    0 -.23005188E+03 -.53820874E+03 -.12417283E+03 0.61125805E+03 0.12500000E+03 0.0000E+00 0.9000E+01
        4  1    1    2  503    0 0.63803344E+02 0.81201212E+02 -.94224420E+02 0.13980396E+03 0.15500000E+01 0.0000E+00 0.9000E+01
        1  1    1    2  502    0 0.14454110E+02 0.45349353E+02 0.27919612E+03 0.28322440E+03 0.32000000E+00 0.0000E+00 0.9000E+01
       21  1    1    2  501  503 0.15179443E+03 0.41165818E+03 -.65417951E+03 0.78768991E+03 0.75000000E+00 0.0000E+00 0.9000E+01
#aMCatNLO 2  0  0  4  4 0.31337869D+03 0.00000000D+00  -5  6  0 0.00000000D+00 0.00000000D+00 0.00000000D+00 0.00000000D+00 0.00000000D+00
  <mgrwgt>
 0.8431590388D-03    1    2    0
 0.861321247988984D+03 0.000000000000000D+00 0.000000000000000D+00 0.861321247988984D+03
 0.861321247988984D+03 -.000000000000000D+00 -.000000000000000D+00 -.861321247988984D+03
 0.605935495664284D+03 -.230863954147830D+03 -.540063371413012D+03 0.810321815031623D+02
 0.720098730479437D+03 0.216931332059678D+03 0.495909056210070D+03 -.474928612296363D+03
 0.396608269834247D+03 0.139326220881523D+02 0.441543152029416D+02 0.393896430793201D+03
 0.000000000000000D+00 0.000000000000000D+00 0.000000000000000D+00 -.000000000000000D+00
 0.861321247988984D+03 0.000000000000000D+00 0.000000000000000D+00 0.861321247988984D+03
 0.861321247988984D+03 -.000000000000000D+00 -.000000000000000D+00 -.861321247988984D+03
 0.603815108681039D+03 -.230081207576545D+03 -.538273998205683D+03 0.793185113783785D+02
 0.114406131059322D+03 0.632633564447505D+02 0.805053965773574D+02 -.510430375000328D+02
 0.395644627190111D+03 0.144452345526628D+02 0.453261568224225D+02 0.392774166323130D+03
 0.608776629047496D+03 0.152372616579131D+03 0.412442444805903D+03 -.421049640201475D+03
0.120997777127D-02 0.000000000000D+00 0.000000000000D+00 0.146295143802D-04 0.535890548623D-08  6 2 3 25 4 1 21 2 0.94507361D-01 0.18579669D+00 0.35297388D+06 0.35297388D+06 0.35297388D+06 0.10793653D+01  1  2  1  3  6  4        4 0.843159038847D-03 0.100000000000D+01
  </mgrwgt>
  </event>
  <event>
  6     66 0.17338086E-05 0.13323738E+02 0.75467711E-02 0.94514961E-01
        2 -1    0    0  502    0 0.00000000E+00 0.00000000E+00 0.11628788E+04 0.11628788E+04 0.32000000E+00 0.0000E+00 0.9000E+01
       21 -1    0    0  501  503 0.00000000E+00 0.00000000E+00 -.75540411E+03 0.75540448E+03 0.75000000E+00 0.0000E+00 0.9000E+01
       25  1    1    2    0    0 -.31182400E+03 -.36517440E+03 0.36289658E+03 0.61474017E+03 0.12500000E+03 0.0000E+00 0.9000E+01
        4  1    1    2  501    0 0.28945365E+03 0.38542737E+03 -.49946147E+02 0.48459746E+03 0.15500000E+01 0.0000E+00 0.9000E+01
        1  1    1    2  502    0 0.54874502E+01 -.10769480E+02 0.45639585E+03 0.45655598E+03 0.32000000E+00 0.0000E+00 0.9000E+01
       -3  1    1    2    0  503 0.16882898E+02 -.94834947E+01 -.36187162E+03 0.36238969E+03 0.50000000E+00 0.0000E+00 0.9000E+01
#aMCatNLO 2  0  0  2  2 0.19364114D+02 0.00000000D+00  -5  6  0 0.00000000D+00 0.00000000D+00 0.00000000D+00 0.00000000D+00 0.00000000D+00
  <mgrwgt>
 0.7732576529D-02    1    2    0
 0.676116901994690D+03 0.000000000000000D+00 0.000000000000000D+00 0.676116901994690D+03
 0.676116901994690D+03 0.000000000000000D+00 0.000000000000000D+00 -.676116901994690D+03
 0.499619795194706D+03 -.305628270250294D+03 -.368751640677063D+03 0.678861375553758D+02
 0.586952199106755D+03 0.296828022710918D+03 0.381378062613331D+03 -.333101759717784D+03
 0.265661809687919D+03 0.880024753937598D+01 -.126264219362683D+02 0.265215622162408D+03
 0.000000000000000D+00 0.000000000000000D+00 -.000000000000000D+00 -.000000000000000D+00
 0.676336778629737D+03 0.000000000000000D+00 0.000000000000000D+00 0.676336778629737D+03
 0.129882563169688D+04 0.000000000000000D+00 0.000000000000000D+00 -.129882563169688D+04
 0.500900715966207D+03 -.311873795156694D+03 -.365243392107005D+03 0.678861375553758D+02
 0.585981106083557D+03 0.289506249604425D+03 0.385490863445303D+03 -.333101759717784D+03
 0.265490622792019D+03 0.548464760000084D+01 -.107639765981227D+02 0.265215622162408D+03
 0.622789965484832D+03 0.168828979522689D+02 -.948349474017559D+01 -.622488853067141D+03
0.491152787190D-03 0.000000000000D+00 0.000000000000D+00 0.185080944992D-04 0.289547500336D-07  6 2 21 25 4 1 -3 2 0.17890443D+00 0.11621603D+00 0.25493439D+06 0.25493439D+06 0.25493439D+06 0.10898211D+01  1  2  1  6  6  2        3 0.773257652861D-02 0.100000000000D+01
  </mgrwgt>
  </event>
  <event>
  6     66 0.17338086E-05 0.92066908E+02 0.75467711E-02 0.92772398E-01
        2 -1    0    0  502    0 0.00000000E+00 0.00000000E+00 0.23077159E+04 0.23077160E+04 0.32000000E+00 0.0000E+00 0.9000E+01
        3 -1    0    0  501    0 0.00000000E+00 0.00000000E+00 -.50615773E+03 0.50615798E+03 0.50000000E+00 0.0000E+00 0.9000E+01
       25  1    1    2    0    0 0.25547190E+03 0.46942783E+03 0.14949540E+03 0.56886049E+03 0.12500000E+03 0.0000E+00 0.9000E+01
        4  1    1    2  501    0 -.18704678E+02 -.26384439E+02 -.24804414E+03 0.25014856E+03 0.15500000E+01 0.0000E+00 0.9000E+01
        1  1    1    2  503    0 -.31990369E+03 -.37381757E+03 0.16627012E+04 0.17339704E+04 0.32000000E+00 0.0000E+00 0.9000E+01
       21  1    1    2  502  503 0.83136467E+02 -.69225820E+02 0.23740570E+03 0.26089445E+03 0.75000000E+00 0.0000E+00 0.9000E+01
#aMCatNLO 2  0  0  5  2 0.19761729D+02 0.00000000D+00  -5  6  0 0.00000000D+00 0.00000000D+00 0.00000000D+00 0.00000000D+00 0.00000000D+00
  <mgrwgt>
 0.2372123753D-03    1    2    0
 0.108077224090598D+04 0.000000000000000D+00 0.000000000000000D+00 0.108077224090598D+04
 0.108077224090598D+04 -.000000000000000D+00 -.000000000000000D+00 -.108077224090598D+04
 0.630613961128454D+03 0.259778665592540D+03 0.477486284938780D+03 -.294229265316081D+03
 0.544709012829594D+03 -.149861833053718D+02 -.194258816472908D+02 -.544156189057842D+03
 0.986221507853913D+03 -.244792482287169D+03 -.458060403291489D+03 0.838385454373924D+03
 0.000000000000000D+00 0.000000000000000D+00 0.000000000000000D+00 0.000000000000000D+00
 0.108077224090598D+04 0.000000000000000D+00 0.000000000000000D+00 0.108077224090598D+04
 0.108077224090598D+04 -.000000000000000D+00 -.000000000000000D+00 -.108077224090598D+04
 0.615917752255326D+03 0.255470262391575D+03 0.469424317964396D+03 -.279473491194594D+03
 0.532389872691050D+03 -.187089736975524D+02 -.263920386651827D+02 -.531406069914781D+03
 0.871396263735656D+03 -.319938522643793D+03 -.373765186298747D+03 0.719215110861856D+03
 0.141840593129929D+03 0.831772339497702D+02 -.692670930004666D+02 0.916644502475187D+02
0.333131079383D-03 0.000000000000D+00 0.000000000000D+00 0.184429417678D-03 0.184624360272D-07  6 2 3 25 4 1 21 2 0.35503324D+00 0.77870441D-01 0.34895703D+06 0.34895703D+06 0.34895703D+06 0.10797279D+01  1  2  1  4  6  5        1 0.237212375287D-03 0.100000000000D+01
  </mgrwgt>
  </event>
  <event>
  5     66 0.17338086E-05 0.15256078E+02 0.75467711E-02 0.77626491E-01
        2 -1    0    0  502    0 0.00000000E+00 0.00000000E+00 0.19069432E+04 0.19069432E+04 0.32000000E+00 0.0000E+00 0.9000E+01
        3 -1    0    0  501    0 0.00000000E+00 0.00000000E+00 -.91068784E+03 0.91068798E+03 0.50000000E+00 0.0000E+00 0.9000E+01
       25  1    1    2    0    0 -.19095149E+03 -.40996647E+03 0.22261805E+03 0.51934456E+03 0.12500000E+03 0.0000E+00 0.9000E+01
        4  1    1    2  501    0 -.34159958E+01 0.14868368E+02 -.73068559E+03 0.73084647E+03 0.15500000E+01 0.0000E+00 0.9000E+01
        1  1    1    2  502    0 0.19436748E+03 0.39509810E+03 0.15043229E+04 0.15674401E+04 0.32000000E+00 0.0000E+00 0.9000E+01
#aMCatNLO 1  0  0  1  5 0.98614024D+02 0.00000000D+00  -5  6  0 0.00000000D+00 0.00000000D+00 0.00000000D+00 0.00000000D+00 0.00000000D+00
  <mgrwgt>
 0.5011719236D-01    3    2    0
 0.131781265284363D+04 0.000000000000000D+00 0.000000000000000D+00 0.131781265284363D+04
 0.131781265284363D+04 0.000000000000000D+00 0.000000000000000D+00 -.131781265284363D+04
 0.471062705711202D+03 -.190954061145408D+03 -.409971131314531D+03 0.416568209626947D+02
 0.105749728564810D+04 -.341548118576890D+01 0.148688400437157D+02 -.105738723334317D+04
 0.110706531432797D+04 0.194369542331177D+03 0.395102291270815D+03 0.101573041238047D+04
 0.000000000000000D+00 0.000000000000000D+00 -.000000000000000D+00 -.000000000000000D+00
 0.279537098655517D+04 0.000000000000000D+00 0.000000000000000D+00 0.279537098655517D+04
 0.493553980669419D+04 0.000000000000000D+00 0.000000000000000D+00 -.493553980669419D+04
 0.913406366716750D+03 -.821259934454512D+03 -.377469230647674D+03 0.416568209626947D+02
 0.161715406312628D+04 -.122110137086052D+04 0.776591574206779D+02 -.105738723334317D+04
 0.148792985727281D+04 -.987051357884604D+03 0.456022594207182D+03 0.101573041238047D+04
 0.371242050613351D+04 0.302941266319964D+04 -.156212520980186D+03 -.214016882013902D+04
0.144248805162D+00 0.000000000000D+00 0.000000000000D+00 0.140007288235D-02 0.000000000000D+00  6 2 3 25 4 1 21 0 0.29337588D+00 0.14010583D+00 0.21381256D+06 0.21381256D+06 0.21381256D+06 0.10956048D+01  1  2  2  1  6  1        2 0.353595779837D-01 0.100000000000D+01
0.140373661233D+00 0.000000000000D+00 -.553953393404D-03 0.140007288235D-02 0.000000000000D+00  6 2 3 25 4 1 21 2 0.29337588D+00 0.14010583D+00 0.21381256D+06 0.21381256D+06 0.21381256D+06 0.10956048D+01  1  2  3  1  6  1        2 0.413036389499D-01 0.100000000000D+01
-.902187496160D-01 0.000000000000D+00 0.000000000000D+00 0.140007288235D-02 0.000000000000D+00  6 2 3 25 4 1 21 2 0.29337588D+00 0.14010583D+00 0.21381256D+06 0.21381256D+06 0.21381256D+06 0.10956048D+01  1  2 15  1  6  1        2 -.265460245741D-01 0.100000000000D+01
  </mgrwgt>
  </event>
  <event>
  6     66 0.17338086E-05 0.72742094E+01 0.75467711E-02 0.93697625E-01
        2 -1    0    0  502    0 0.00000000E+00 0.00000000E+00 0.10244440E+04 0.10244440E+04 0.32000000E+00 0.0000E+00 0.9000E+01
        3 -1    0    0  501    0 0.00000000E+00 0.00000000E+00 -.70180011E+03 0.70180029E+03 0.50000000E+00 0.0000E+00 0.9000E+01
       25  1    1    2    0    0 -.47321179E+03 0.22973646E+03 -.36935601E+02 0.54193863E+03 0.12500000E+03 0.0000E+00 0.9000E+01
        4  1    1    2  501    0 -.31081435E+00 0.13187828E+02 -.31961799E+03 0.31989385E+03 0.15500000E+01 0.0000E+00 0.9000E+01
        1  1    1    2  503    0 0.44264952E+03 -.22386217E+03 0.60956562E+03 0.78589008E+03 0.32000000E+00 0.0000E+00 0.9000E+01
       21  1    1    2  502  503 0.30873086E+02 -.19062116E+02 0.69631840E+02 0.78521764E+02 0.75000000E+00 0.0000E+00 0.9000E+01
#aMCatNLO 2  0  0  5  2 0.14602370D+02 0.00000000D+00  -5  6  0 0.00000000D+00 0.00000000D+00 0.00000000D+00 0.00000000D+00 0.00000000D+00
  <mgrwgt>
 0.2733682027D-01    4    2    0
 0.847912203242288D+03 0.000000000000000D+00 0.000000000000000D+00 0.847912203242288D+03
 0.847912203242288D+03 -.000000000000000D+00 -.000000000000000D+00 -.847912203242288D+03
 0.559162348139948D+03 -.473575416774097D+03 0.229921707112047D+03 -.141066880603860D+03
 0.386768270846135D+03 -.563204320990300D+00 0.133186038656937D+02 -.386538475349182D+03
 0.749893787498493D+03 0.474138621095087D+03 -.243240310977741D+03 0.527605355953042D+03
 0.000000000000000D+00 0.000000000000000D+00 0.000000000000000D+00 0.000000000000000D+00
 0.847912203242288D+03 0.000000000000000D+00 0.000000000000000D+00 0.847912203242288D+03
 0.847912203242288D+03 -.000000000000000D+00 -.000000000000000D+00 -.847912203242288D+03
 0.558666749029364D+03 -.473205119011387D+03 0.229731738737930D+03 -.140654825828714D+03
 0.386478611077488D+03 -.307054618747032D+00 0.131871951795871D+02 -.386253440659291D+03
 0.684064405776103D+03 0.442690955912540D+03 -.223880614857727D+03 0.471005625331567D+03
 0.666146406016214D+02 0.308212177175938D+02 -.190383190597899D+02 0.559026411564383D+02
-.135061244811D-02 0.000000000000D+00 0.000000000000D+00 0.519704629019D-04 0.000000000000D+00  6 2 3 25 4 1 21 2 0.15760678D+00 0.10796927D+00 0.29555392D+06 0.29555392D+06 0.29555392D+06 0.10850319D+01  1  2  8  4  6  5        1 -.236927347137D-02 0.100000000000D+01
-.575505354811D-03 0.000000000000D+00 0.000000000000D+00 0.519704629019D-04 0.000000000000D+00  6 2 3 25 4 1 21 2 0.15760678D+00 0.10796927D+00 0.29555392D+06 0.29555392D+06 0.29555392D+06 0.10850319D+01  1  2  9  4  6  5        1 -.100956389946D-02 0.100000000000D+01
0.628889611586D-03 0.000000000000D+00 0.000000000000D+00 0.519704629019D-04 0.000000000000D+00  6 2 3 25 4 1 21 2 0.15760678D+00 0.10796927D+00 0.29555392D+06 0.29555392D+06 0.29555392D+06 0.10850319D+01  1  2 10  4  6  5        1 0.110321171349D-02 0.100000000000D+01
0.168771479712D-01 0.000000000000D+00 0.000000000000D+00 0.519704629019D-04 0.232538060551D-05  6 2 3 25 4 1 21 2 0.15760678D+00 0.10796927D+00 0.29494187D+06 0.29494187D+06 0.29494187D+06 0.10850987D+01  1  2  1  4  6  5        1 0.296124459256D-01 0.100000000000D+01
  </mgrwgt>
  </event>
  <event>
  5     66 0.17338086E-05 0.10353686E+03 0.75467711E-02 0.91279030E-01
        2 -1    0    0  502    0 0.00000000E+00 0.00000000E+00 0.21282436E+04 0.21282437E+04 0.32000000E+00 0.0000E+00 0.9000E+01
        3 -1    0    0  501    0 0.00000000E+00 0.00000000E+00 -.12335125E+04 0.12335126E+04 0.50000000E+00 0.0000E+00 0.9000E+01
       25  1    1    2    0    0 -.37216860E+02 0.66097880E+03 -.38301701E+03 0.77498716E+03 0.12500000E+03 0.0000E+00 0.9000E+01
        4  1    1    2  501    0 -.54679454E+02 -.87946485E+02 -.60644364E+03 0.61522412E+03 0.15500000E+01 0.0000E+00 0.9000E+01
        1  1    1    2  502    0 0.91896314E+02 -.57303232E+03 0.18841918E+04 0.19715450E+04 0.32000000E+00 0.0000E+00 0.9000E+01
#aMCatNLO 1  0  0  4  2 0.22418629D+02 0.00000000D+00  -5  6  0 0.00000000D+00 0.00000000D+00 0.00000000D+00 0.00000000D+00 0.00000000D+00
  <mgrwgt>
 0.3937250972D-02    7    2    0
 0.162025164237101D+04 0.000000000000000D+00 0.000000000000000D+00 0.162025164237101D+04
 0.162025164237101D+04 -.000000000000000D+00 -.000000000000000D+00 -.162025164237101D+04
 0.909877287422902D+03 -.372304507437655D+02 0.660974387608225D+03 -.611537758958027D+03
 0.805513183324716D+03 -.546681766823772D+02 -.879276454353245D+02 -.798831401571284D+03
 0.152511281399441D+04 0.918986274261426D+02 -.573046742172901D+03 0.141036916052931D+04
 0.000000000000000D+00 -.000000000000000D+00 0.000000000000000D+00 0.000000000000000D+00
 0.162025164237101D+04 0.000000000000000D+00 0.000000000000000D+00 0.162025164237101D+04
 0.162025164237101D+04 -.000000000000000D+00 -.000000000000000D+00 -.162025164237101D+04
 0.910098489435982D+03 -.372558890913730D+02 0.660933472872365D+03 -.611909473401533D+03
 0.505085451318424D+03 -.180873518382434D+02 -.397906910387159D+02 -.503190681296541D+03
 0.152456002798740D+04 0.918560012336240D+02 -.573115301634172D+03 0.140974629100668D+04
 0.300759316000217D+03 -.365127603040077D+02 -.480274801994773D+02 -.294646136308605D+03
0.711784909592D-03 0.000000000000D+00 0.000000000000D+00 0.538518092452D-04 0.000000000000D+00  6 2 3 25 4 1 21 0 0.32742211D+00 0.18977117D+00 0.46078665D+06 0.46078665D+06 0.46078665D+06 0.10710263D+01  1  2  2  3  6  4        4 0.478533364302D-04 0.100000000000D+01
0.155661122266D-03 0.000000000000D+00 -.273344147010D-05 0.538518092452D-04 0.000000000000D+00  6 2 3 25 4 1 21 2 0.32742211D+00 0.18977117D+00 0.46078665D+06 0.46078665D+06 0.46078665D+06 0.10710263D+01  1  2  3  3  6  4        4 0.120044943712D-04 0.100000000000D+01
-.525895823554D-03 0.000000000000D+00 0.000000000000D+00 0.538518092452D-04 0.000000000000D+00  6 2 3 25 4 1 21 2 0.32742211D+00 0.18977117D+00 0.46078665D+06 0.46078665D+06 0.46078665D+06 0.10710263D+01  1  2 15  3  6  4        4 -.405567771952D-04 0.100000000000D+01
0.476203545579D-01 0.000000000000D+00 0.000000000000D+00 0.538518092452D-04 0.000000000000D+00  6 2 3 25 4 1 21 2 0.32742211D+00 0.18977117D+00 0.46114309D+06 0.46114309D+06 0.46114309D+06 0.10710024D+01  1  2 12  3  6  4        4 0.367204767638D-02 0.100000000000D+01
-.212157368249D-01 0.000000000000D+00 0.000000000000D+00 0.538518092452D-04 0.000000000000D+00  6 2 3 25 4 1 21 2 0.32742211D+00 0.18977117D+00 0.46078665D+06 0.46078665D+06 0.46078665D+06 0.10710263D+01  1  2  4  3  6  4        4 -.163614516963D-02 0.100000000000D+01
-.555698476582D-01 0.000000000000D+00 0.000000000000D+00 0.538518092452D-04 0.000000000000D+00  6 2 3 25 4 1 21 2 0.32742211D+00 0.18977117D+00 0.46078665D+06 0.46078665D+06 0.46078665D+06 0.10710263D+01  1  2  5  3  6  4        4 -.428551403016D-02 0.100000000000D+01
0.799741751768D-01 0.000000000000D+00 -.000000000000D+00 0.538518092452D-04 0.000000000000D+00  6 2 3 25 4 1 21 2 0.32742211D+00 0.18977117D+00 0.46078665D+06 0.46078665D+06 0.46078665D+06 0.10710263D+01  1  2  6  3  6  4        4 0.616756144228D-02 0.100000000000D+01
  </mgrwgt>
  </event>
  <event>
  5     66 0.17338086E-05 0.23886831E+03 0.75467711E-02 0.87005889E-01
        2 -1    0    0  502    0 0.00000000E+00 0.00000000E+00 0.13480449E+04 0.13480449E+04 0.32000000E+00 0.0000E+00 0.9000E+01
        3 -1    0    0  501    0 0.00000000E+00 0.00000000E+00 -.10566484E+04 0.10566485E+04 0.50000000E+00 0.0000E+00 0.9000E+01
       25  1    1    2    0    0 -.59510039E+02 0.46574486E+03 -.41095988E+03 0.63637469E+03 0.12500000E+03 0.0000E+00 0.9000E+01
        4  1    1    2  501    0 0.19299556E+03 -.26766511E+03 -.46866483E+03 0.57318498E+03 0.15500000E+01 0.0000E+00 0.9000E+01
        1  1    1    2  502    0 -.13348552E+03 -.19807975E+03 0.11710212E+04 0.11951338E+04 0.32000000E+00 0.0000E+00 0.9000E+01
#aMCatNLO 1  0  0  2  1 0.87740544D+03 0.00000000D+00  -5  6  0 0.00000000D+00 0.00000000D+00 0.00000000D+00 0.00000000D+00 0.00000000D+00
  <mgrwgt>
 0.7461151767D-03    3    2    0
 0.119348633960172D+04 0.000000000000000D+00 0.000000000000000D+00 0.119348633960172D+04
 0.119348633960172D+04 0.000000000000000D+00 0.000000000000000D+00 -.119348633960172D+04
 0.691283748695263D+03 -.594839455104573D+02 0.465702109685909D+03 -.491763587987945D+03
 0.634600233335811D+03 0.192974261213569D+03 -.267615242674250D+03 -.542088989509421D+03
 0.106108869717237D+04 -.133490315703112D+03 -.198086867011659D+03 0.103385257749737D+04
 0.000000000000000D+00 0.000000000000000D+00 -.000000000000000D+00 0.000000000000000D+00
 0.196267903551588D+04 0.000000000000000D+00 0.000000000000000D+00 0.196267903551588D+04
 0.155003870871554D+04 0.000000000000000D+00 0.000000000000000D+00 -.155003870871554D+04
 0.907081901029525D+03 -.137922896707404D+03 0.739133562536838D+03 -.491763587987945D+03
 0.561998374901059D+03 0.134251815664275D+03 -.629138365936428D+02 -.542088989509421D+03
 0.107404356485345D+04 -.238270805279390D+03 0.167168928203368D+03 0.103385257749737D+04
 0.969593903447388D+03 0.241941886322519D+03 -.843388654146563D+03 0.412640326800342D+03
0.938318701451D-02 0.000000000000D+00 0.000000000000D+00 0.654366113498D-05 0.000000000000D+00  6 2 3 25 4 1 21 0 0.20739153D+00 0.16256130D+00 0.27806873D+06 0.27806873D+06 0.27806873D+06 0.10869995D+01  1  2  2  2  6  2        3 0.294465255143D-02 0.100000000000D+01
0.740442212000D-03 0.000000000000D+00 -.360339087856D-04 0.654366113498D-05 0.000000000000D+00  6 2 3 25 4 1 21 2 0.20739153D+00 0.16256130D+00 0.27806873D+06 0.27806873D+06 0.27806873D+06 0.10869995D+01  1  2  3  2  6  2        3 0.274557658945D-03 0.100000000000D+01
-.666957885721D-02 0.000000000000D+00 0.000000000000D+00 0.654366113498D-05 0.000000000000D+00  6 2 3 25 4 1 21 2 0.20739153D+00 0.16256130D+00 0.27806873D+06 0.27806873D+06 0.27806873D+06 0.10869995D+01  1  2 15  2  6  2        3 -.247309503363D-02 0.100000000000D+01
  </mgrwgt>
  </event>
  <event>
  6     66 0.17338086E-05 0.72641437E+02 0.75467711E-02 0.93899609E-01
        2 -1    0    0  502    0 0.00000000E+00 0.00000000E+00 0.14832702E+04 0.14832703E+04 0.32000000E+00 0.0000E+00 0.9000E+01
        3 -1    0    0  501    0 0.00000000E+00 0.00000000E+00 -.40636530E+03 0.40636561E+03 0.50000000E+00 0.0000E+00 0.9000E+01
       25  1    1    2    0    0 -.33762942E+03 -.32973424E+03 0.13702941E+03 0.50707037E+03 0.12500000E+03 0.0000E+00 0.9000E+01
        4  1    1    2  503    0 0.39298608E+03 0.26138961E+03 0.25865076E+03 0.53820554E+03 0.15500000E+01 0.0000E+00 0.9000E+01
        1  1    1    2  502    0 0.12424268E+02 0.18967534E+02 0.74101750E+03 0.74136440E+03 0.32000000E+00 0.0000E+00 0.9000E+01
       21  1    1    2  501  503 -.67780924E+02 0.49377105E+02 -.59792748E+02 0.10299557E+03 0.75000000E+00 0.0000E+00 0.9000E+01
#aMCatNLO 2  0  0  4  1 0.87285856D+00 0.00000000D+00  -5  6  0 0.00000000D+00 0.00000000D+00 0.00000000D+00 0.00000000D+00 0.00000000D+00
  <mgrwgt>
 0.1133447401D-02    1    2    0
 0.776369680747662D+03 0.000000000000000D+00 0.000000000000000D+00 0.776369680747662D+03
 0.776369680747662D+03 -.000000000000000D+00 -.000000000000000D+00 -.776369680747662D+03
 0.560548435829292D+03 -.373628117928226D+03 -.364134434681769D+03 -.162473665198597D+03
 0.587923533931774D+03 0.387535565026823D+03 0.370330492447725D+03 -.241506923200127D+03
 0.404267391734257D+03 -.139074470985966D+02 -.619605776595626D+01 0.403980588398725D+03
 0.000000000000000D+00 -.000000000000000D+00 0.000000000000000D+00 0.000000000000000D+00
 0.776369680747662D+03 0.000000000000000D+00 0.000000000000000D+00 0.776369680747662D+03
 0.776369680747662D+03 -.000000000000000D+00 -.000000000000000D+00 -.776369680747662D+03
 0.522006034479640D+03 -.337588854012193D+03 -.329695173984356D+03 -.184932847085958D+03
 0.475304746436434D+03 0.392920396149550D+03 0.261078175926066D+03 -.580202579260138D+02
 0.388206252826676D+03 0.124747513091028D+02 0.190148735907585D+02 0.387539559136655D+03
 0.167222327752573D+03 -.678062934464602D+02 0.496021244675310D+02 -.144586454124683D+03
0.339152592297D-03 0.000000000000D+00 0.000000000000D+00 0.146620967375D-04 0.405028866420D-08  6 2 3 25 4 1 21 2 0.22819545D+00 0.62517765D-01 0.28443763D+06 0.28443763D+06 0.28443763D+06 0.10862676D+01  1  2  1  3  6  4        4 0.113344740116D-02 0.100000000000D+01
  </mgrwgt>
  </event>
  <event>
  6     66 -.17338086E-05 0.19978070E+02 0.75467711E-02 0.90714584E-01
        2 -1    0    0  502    0 0.00000000E+00 0.00000000E+00 0.26237592E+04 0.26237592E+04 0.32000000E+00 0.0000E+00 0.9000E+01
        3 -1    0    0  501    0 0.00000000E+00 0.00000000E+00 -.10188278E+04 0.10188279E+04 0.50000000E+00 0.0000E+00 0.9000E+01
       25  1    1    2    0    0 -.30150207E+03 -.64325749E+03 0.13883910E+03 0.73456449E+03 0.12500000E+03 0.0000E+00 0.9000E+01
        4  1    1    2  501    0 0.27405954E+01 0.27205115E+02 -.66647047E+03 0.66703292E+03 0.15500000E+01 0.0000E+00 0.9000E+01
        1  1    1    2  503    0 0.28870773E+03 0.59098496E+03 0.20850456E+04 0.21863281E+04 0.32000000E+00 0.0000E+00 0.9000E+01
       21  1    1    2  502  503 0.10053742E+02 0.25067413E+02 0.47517150E+02 0.54661641E+02 0.75000000E+00 0.0000E+00 0.9000E+01
#aMCatNLO 2  0  0  5  1 0.11555761D+02 0.00000000D+00  -5  6  0 0.00000000D+00 0.00000000D+00 0.00000000D+00 0.00000000D+00 0.00000000D+00
  <mgrwgt>
 -.1105375201D-02    5    2    0
 0.163497984143966D+04 0.000000000000000D+00 0.000000000000000D+00 0.163497984143966D+04
 0.163497984143966D+04 -.000000000000000D+00 -.000000000000000D+00 -.163497984143966D+04
 0.750342746995317D+03 -.301578084740885D+03 -.643418284691020D+03 -.206040791344250D+03
 0.107083866044848D+04 0.261507308959835D+01 0.269503419364091D+02 -.107049627611372D+04
 0.144877827543552D+04 0.298963011651287D+03 0.616467942754611D+03 0.127653706745797D+04
 0.000000000000000D+00 0.000000000000000D+00 0.000000000000000D+00 0.000000000000000D+00
 0.163497984143966D+04 0.000000000000000D+00 0.000000000000000D+00 0.163497984143966D+04
 0.163497984143966D+04 -.000000000000000D+00 -.000000000000000D+00 -.163497984143966D+04
 0.750046003683864D+03 -.301489288986914D+03 -.643235186001073D+03 -.205661643867942D+03
 0.107030469608410D+04 0.274178987457635D+01 0.272116345803265D+02 -.106995521027351D+04
 0.141216608511664D+04 0.288718548967734D+03 0.591005296111252D+03 0.124962690088045D+04
 0.374428979947169D+02 0.100289501446035D+02 0.250182553094946D+02 0.259899532609964D+02
-.309192762139D-01 0.000000000000D+00 0.000000000000D+00 0.416928938490D-03 0.000000000000D+00  6 2 3 25 4 1 21 2 0.40365527D+00 0.15674275D+00 0.51363025D+06 0.51363025D+06 0.51363025D+06 0.10676859D+01  1  2 13  4  6  5        1 -.228497533529D-02 0.100000000000D+01
-.149895461159D+00 0.000000000000D+00 0.000000000000D+00 0.416928938490D-03 0.000000000000D+00  6 2 3 25 4 1 21 2 0.40365527D+00 0.15674275D+00 0.51388292D+06 0.51388292D+06 0.51388292D+06 0.10676708D+01  1  2  8  4  6  5        1 -.110766822391D-01 0.100000000000D+01
-.193445197791D+00 0.000000000000D+00 0.000000000000D+00 0.416928938490D-03 0.000000000000D+00  6 2 3 25 4 1 21 2 0.40365527D+00 0.15674275D+00 0.51388292D+06 0.51388292D+06 0.51388292D+06 0.10676708D+01  1  2  9  4  6  5        1 -.142948356812D-01 0.100000000000D+01
0.198509267639D+00 0.000000000000D+00 0.000000000000D+00 0.416928938490D-03 0.000000000000D+00  6 2 3 25 4 1 21 2 0.40365527D+00 0.15674275D+00 0.51388292D+06 0.51388292D+06 0.51388292D+06 0.10676708D+01  1  2 10  4  6  5        1 0.146690504313D-01 0.100000000000D+01
0.160782886867D+00 0.000000000000D+00 0.000000000000D+00 0.416928938490D-03 0.677510709204D-05  6 2 3 25 4 1 21 2 0.40365527D+00 0.15674275D+00 0.51363025D+06 0.51363025D+06 0.51363025D+06 0.10676859D+01  1  2  1  4  6  5        1 0.118820676230D-01 0.100000000000D+01
  </mgrwgt>
  </event>
  <event>
  5     66 0.17338086E-05 0.79824467E+02 0.75467711E-02 0.94020442E-01
        2 -1    0    0  502    0 0.00000000E+00 0.00000000E+00 0.66097223E+03 0.66097231E+03 0.32000000E+00 0.0000E+00 0.9000E+01
        3 -1    0    0  501    0 -.00000000E+00 -.00000000E+00 -.11285846E+04 0.11285847E+04 0.50000000E+00 0.0000E+00 0.9000E+01
       25  1    1    2    0    0 -.71476045E+02 -.51415377E+03 0.40315927E+01 0.53395147E+03 0.12500000E+03 0.0000E+00 0.9000E+01
        4  1    1    2  501    0 0.27602279E+02 0.74896063E+02 -.73649282E+03 0.74080725E+03 0.15500000E+01 0.0000E+00 0.9000E+01
        1  1    1    2  502    0 0.43873766E+02 0.43925771E+03 0.26484888E+03 0.51479828E+03 0.32000000E+00 0.0000E+00 0.9000E+01
#aMCatNLO 1  0  0  5  1 0.11555761D+02 0.00000000D+00  -5  6  0 0.00000000D+00 0.00000000D+00 0.00000000D+00 0.00000000D+00 0.00000000D+00
  <mgrwgt>
 0.7271731494D-03    1    2    0
 0.863691634192921D+03 0.000000000000000D+00 0.000000000000000D+00 0.863691634192921D+03
 0.863691634192921D+03 -.000000000000000D+00 -.000000000000000D+00 -.863691634192921D+03
 0.554261944811194D+03 -.714760043961405D+02 -.514146667953405D+03 0.148747060790664D+03
 0.568113033428138D+03 0.276033350029244D+02 0.748999427834627D+02 -.562477086838807D+03
 0.605008290146509D+03 0.438726693932161D+02 0.439246725169942D+03 0.413730026048143D+03
 0.000000000000000D+00 0.000000000000000D+00 -.000000000000000D+00 0.000000000000000D+00
 0.863691634192921D+03 0.000000000000000D+00 0.000000000000000D+00 0.863691634192921D+03
 0.863691634192921D+03 -.000000000000000D+00 -.000000000000000D+00 -.863691634192921D+03
 0.483312433913134D+03 -.553606387929356D+02 -.352801993375235D+03 0.300718908480887D+03
 0.475363955958950D+03 0.438103785916253D+02 0.237162483893491D+03 -.409640693274082D+03
 0.414578392618109D+03 -.293590370250167D+03 0.287334518693279D+03 0.558463292391380D+02
 0.354128485895649D+03 0.305140630451478D+03 -.171695009211535D+03 0.530754555540578D+02
0.883086644344D-03 0.000000000000D+00 0.000000000000D+00 0.136446643941D-04 0.000000000000D+00  6 2 3 25 4 1 21 2 0.10168805D+00 0.17362841D+00 0.27835448D+06 0.27835448D+06 0.27835448D+06 0.10869663D+01  1  2 14  4  6  5        1 0.727173149381D-03 0.100000000000D+01
  </mgrwgt>
  </event>
  <event>
  5     66 0.17338086E-05 0.39806805E+02 0.75467711E-02 0.93649073E-01
        2 -1    0    0  502    0 0.00000000E+00 0.00000000E+00 0.24845059E+04 0.24845059E+04 0.32000000E+00 0.0000E+00 0.9000E+01
        3 -1    0    0  501    0 0.00000000E+00 0.00000000E+00 -.23639581E+03 0.23639634E+03 0.50000000E+00 0.0000E+00 0.9000E+01
       25  1    1    2    0    0 0.71613397E+02 0.49740950E+03 0.12985459E+04 0.13979954E+04 0.12500000E+03 0.0000E+00 0.9000E+01
        4  1    1    2  501    0 0.36583731E+02 0.15693760E+02 -.12285147E+03 0.12914933E+03 0.15500000E+01 0.0000E+00 0.9000E+01
        1  1    1    2  502    0 -.10819713E+03 -.51310326E+03 0.10724157E+04 0.11937575E+04 0.32000000E+00 0.0000E+00 0.9000E+01
#aMCatNLO 1  0  0  2  4 0.88091529D+01 0.00000000D+00  -5  6  0 0.00000000D+00 0.00000000D+00 0.00000000D+00 0.00000000D+00 0.00000000D+00
  <mgrwgt>
 0.2037188749D-02   11    2    0
 0.766372963086553D+03 0.000000000000000D+00 0.000000000000000D+00 0.766372963086553D+03
 0.766372963086553D+03 0.000000000000000D+00 0.000000000000000D+00 -.766372963086553D+03
 0.577093784286564D+03 0.716139086399706D+02 0.497412200399873D+03 0.254685662817619D+03
 0.409449201933230D+03 0.365834020029658D+02 0.156919219518969D+02 -.407509591601356D+03
 0.546202939953311D+03 -.108197310642936D+03 -.513104122351770D+03 0.152823928783737D+03
 0.000000000000000D+00 0.000000000000000D+00 -.000000000000000D+00 -.000000000000000D+00
 0.766517098959537D+03 0.000000000000000D+00 0.000000000000000D+00 0.766517098959537D+03
 0.913940201876172D+03 0.000000000000000D+00 0.000000000000000D+00 -.913940201876172D+03
 0.579426626961929D+03 0.700406229074893D+02 0.500339624985228D+03 0.254685662817619D+03
 0.409435870644932D+03 0.354694223544455D+02 0.177647122552326D+02 -.407509591601356D+03
 0.543908742786102D+03 -.109680256504146D+03 -.510344793843776D+03 0.152823928783737D+03
 0.147686060442746D+03 0.417021124221096D+01 -.775954339668450D+01 -.147423102916635D+03
0.818584325379D-05 0.000000000000D+00 0.000000000000D+00 0.531166130426D-05 0.000000000000D+00  6 2 3 25 4 1 21 0 0.38223171D+00 0.36368628D-01 0.29270710D+06 0.29270710D+06 0.29270710D+06 0.10853435D+01  1  2  2  2  6  2        3 0.193451103189D-04 0.100000000000D+01
0.356721877612D-05 0.000000000000D+00 -.314357934766D-07 0.531166130426D-05 0.000000000000D+00  6 2 3 25 4 1 21 2 0.38223171D+00 0.36368628D-01 0.29270710D+06 0.29270710D+06 0.29270710D+06 0.10853435D+01  1  2  3  2  6  2        3 0.993051905700D-05 0.100000000000D+01
-.578414981692D-05 0.000000000000D+00 0.000000000000D+00 0.531166130426D-05 0.000000000000D+00  6 2 3 25 4 1 21 2 0.38223171D+00 0.36368628D-01 0.29270710D+06 0.29270710D+06 0.29270710D+06 0.10853435D+01  1  2 15  2  6  2        3 -.161020709943D-04 0.100000000000D+01
0.344948466352D-02 0.000000000000D+00 0.000000000000D+00 0.531166130426D-05 0.000000000000D+00  6 2 3 25 4 1 21 2 0.38223171D+00 0.46134650D-01 0.29753120D+06 0.29753120D+06 0.29753120D+06 0.10848175D+01  1  2 12  2  6  2        3 0.600142838407D-02 0.100000000000D+01
-.248569663127D-02 0.000000000000D+00 0.000000000000D+00 0.531166130426D-05 0.000000000000D+00  6 2 3 25 4 1 21 2 0.38223171D+00 0.36368628D-01 0.29270710D+06 0.29270710D+06 0.29270710D+06 0.10853435D+01  1  2  4  2  6  2        3 -.691974877795D-02 0.100000000000D+01
-.505433139787D-02 0.000000000000D+00 -.106814921851D-04 0.531166130426D-05 0.000000000000D+00  6 2 3 25 4 1 21 2 0.38223171D+00 0.43375098D-01 0.29270710D+06 0.29270710D+06 0.29270710D+06 0.10853435D+01  1  2  5  2  6  2        3 -.996443618198D-02 0.100000000000D+01
0.497890662653D-02 0.000000000000D+00 0.105178378127D-04 0.531166130426D-05 0.000000000000D+00  6 2 3 25 4 1 21 2 0.38223171D+00 0.36368628D-01 0.29270710D+06 0.29270710D+06 0.29270710D+06 0.10853435D+01  1  2  6  2  6  2        3 0.138604134596D-01 0.100000000000D+01
0.104953829324D-05 0.000000000000D+00 0.000000000000D+00 0.531166130426D-05 0.323318438051D-06  6 2 3 25 4 1 21 2 0.38230360D+00 0.43371508D-01 0.29753120D+06 0.29753120D+06 0.29753120D+06 0.10848175D+01  1  2 11  2  6  2        3 0.206440231677D-05 0.100000000000D+01
0.112515613820D-03 0.000000000000D+00 0.000000000000D+00 0.531166130426D-05 0.000000000000D+00  6 2 21 25 4 1 -3 2 0.38223171D+00 0.46134650D-01 0.29753120D+06 0.29753120D+06 0.29753120D+06 0.10848175D+01  1  2 12  6  6  2        3 0.289930907422D-02 0.100000000000D+01
-.130979846268D-03 0.000000000000D+00 -.277012731663D-06 0.531166130426D-05 0.000000000000D+00  6 2 21 25 4 1 -3 2 0.38223171D+00 0.43375098D-01 0.29270710D+06 0.29270710D+06 0.29270710D+06 0.10853435D+01  1  2  5  6  6  2        3 -.385654394794D-02 0.100000000000D+01
0.520712766638D-07 0.000000000000D+00 0.000000000000D+00 0.531166130426D-05 0.112334129465D-07  6 2 21 25 4 1 -3 2 0.38230360D+00 0.43371508D-01 0.29753120D+06 0.29753120D+06 0.29753120D+06 0.10848175D+01  1  2 11  6  6  2        3 0.152877820117D-05 0.100000000000D+01
  </mgrwgt>
  </event>
  <event>
  6     66 0.17338086E-05 0.40054474E+02 0.75467711E-02 0.95191527E-01
        2 -1    0    0  502    0 0.00000000E+00 0.00000000E+00 0.91046829E+03 0.91046834E+03 0.32000000E+00 0.0000E+00 0.9000E+01
        3 -1    0    0  503    0 0.00000000E+00 0.00000000E+00 -.61657418E+03 0.61657438E+03 0.50000000E+00 0.0000E+00 0.9000E+01
       25  1    1    2    0    0 0.10025710E+02 0.46436770E+03 0.18008769E+03 0.51360924E+03 0.12500000E+03 0.0000E+00 0.9000E+01
        4  1    1    2  501    0 -.22020157E+02 -.45077398E+02 -.36882517E+03 0.37222475E+03 0.15500000E+01 0.0000E+00 0.9000E+01
        1  1    1    2  502    0 0.20431113E+02 -.35535674E+03 0.38632474E+03 0.52530253E+03 0.32000000E+00 0.0000E+00 0.9000E+01
       21  1    1    2  503  501 -.84366667E+01 -.63933555E+02 0.96306851E+02 0.11590621E+03 0.75000000E+00 0.0000E+00 0.9000E+01
#aMCatNLO 2  0  0  2  4 0.36240501D+00 0.00000000D+00  -5  6  0 0.00000000D+00 0.00000000D+00 0.00000000D+00 0.00000000D+00 0.00000000D+00
  <mgrwgt>
 0.6395116166D-03    1    2    0
 0.697872996630555D+03 0.000000000000000D+00 0.000000000000000D+00 0.697872996630555D+03
 0.697872996630555D+03 0.000000000000000D+00 0.000000000000000D+00 -.697872996630555D+03
 0.472450265284236D+03 0.710799213119489D+01 0.442268163153335D+03 0.109236447562077D+03
 0.430729442939894D+03 -.246139730421154D+02 -.647371965414682D+02 -.425124806063284D+03
 0.492566285036980D+03 0.175059809109205D+02 -.377530966611867D+03 0.315888358501207D+03
 0.000000000000000D+00 -.000000000000000D+00 -.000000000000000D+00 0.000000000000000D+00
 0.790773358115316D+03 0.000000000000000D+00 0.000000000000000D+00 0.790773358115316D+03
 0.709899121572811D+03 0.000000000000000D+00 0.000000000000000D+00 -.709899121572811D+03
 0.493255777225521D+03 0.100250689578871D+02 0.464373942295172D+03 0.109236447562077D+03
 0.428074809535521D+03 -.220198109748987D+02 -.450784843706782D+02 -.425124806063284D+03
 0.475904380769295D+03 0.204314087452670D+02 -.355361903044632D+03 0.315888358501207D+03
 0.103437512157791D+03 -.843666672825546D+01 -.639335548798619D+02 0.808742365425053D+02
0.219823678354D-03 0.000000000000D+00 0.000000000000D+00 0.120666681914D-04 0.435629824930D-06  6 2 3 25 4 1 21 2 0.14007180D+00 0.94857407D-01 0.22639214D+06 0.22639214D+06 0.22639214D+06 0.10937148D+01  1  2  1  2  6  2        3 0.639511616586D-03 0.100000000000D+01
  </mgrwgt>
  </event>
  <event>
  5     66 0.17338086E-05 0.12208607E+02 0.75467711E-02 0.91925898E-01
        2 -1    0    0  502    0 0.00000000E+00 0.00000000E+00 0.20408275E+04 0.20408275E+04 0.32000000E+00 0.0000E+00 0.9000E+01
        3 -1    0    0  501    0 0.00000000E+00 0.00000000E+00 -.25271188E+03 0.25271237E+03 0.50000000E+00 0.0000E+00 0.9000E+01
       25  1    1    2    0    0 0.17121040E+01 -.62178783E+03 0.63943008E+03 0.90062138E+03 0.12500000E+03 0.0000E+00 0.9000E+01
        4  1    1    2  501    0 0.47504215E+01 0.11250444E+02 -.47955109E+02 0.49509938E+02 0.15500000E+01 0.0000E+00 0.9000E+01
        1  1    1    2  502    0 -.64625254E+01 0.61053738E+03 0.11966406E+04 0.13434085E+04 0.32000000E+00 0.0000E+00 0.9000E+01
#aMCatNLO 1  0  0  4  2 0.17522174D+01 0.00000000D+00  -5  6  0 0.00000000D+00 0.00000000D+00 0.00000000D+00 0.00000000D+00 0.00000000D+00
  <mgrwgt>
 0.3302505363D-02    4    2    0
 0.718151748909238D+03 0.000000000000000D+00 0.000000000000000D+00 0.718151748909238D+03
 0.718151748909238D+03 -.000000000000000D+00 -.000000000000000D+00 -.718151748909238D+03
 0.642217253662922D+03 0.171756135621481D+01 -.621878194076936D+03 -.100411964510920D+03
 0.138534180309133D+03 0.474594242401609D+01 0.112483830195168D+02 -.137995177538483D+03
 0.655552063846420D+03 -.646350378023086D+01 0.610629811057420D+03 0.238407142049403D+03
 0.000000000000000D+00 0.000000000000000D+00 0.000000000000000D+00 0.000000000000000D+00
 0.718151748909238D+03 0.000000000000000D+00 0.000000000000000D+00 0.718151748909238D+03
 0.718151748909238D+03 -.000000000000000D+00 -.000000000000000D+00 -.718151748909238D+03
 0.642798495003171D+03 0.195848790937771D+01 -.621307172790240D+03 -.107417254400070D+03
 0.137748519487458D+02 -.134382824733717D+02 0.289267844341037D+01 0.889675108544644D+00
 0.653532176580737D+03 -.621806464520595D+01 0.611211527638044D+03 0.231270642280408D+03
 0.126197974285822D+03 0.176978592092000D+02 0.720296670878572D+01 -.124743062988883D+03
0.132258543665D-02 0.000000000000D+00 0.000000000000D+00 0.314817771123D-05 0.000000000000D+00  6 2 3 25 4 1 21 0 0.31397350D+00 0.38878790D-01 0.39513262D+06 0.39513262D+06 0.39513262D+06 0.10758111D+01  1  2  2  3  6  4        4 0.481681807895D-02 0.100000000000D+01
0.890983679900D-03 0.000000000000D+00 -.507907632149D-05 0.314817771123D-05 0.000000000000D+00  6 2 3 25 4 1 21 2 0.31397350D+00 0.38878790D-01 0.39513262D+06 0.39513262D+06 0.39513262D+06 0.10758111D+01  1  2  3  3  6  4        4 0.375559134174D-02 0.100000000000D+01
-.831755411130D-03 0.000000000000D+00 0.000000000000D+00 0.314817771123D-05 0.000000000000D+00  6 2 3 25 4 1 21 2 0.31397350D+00 0.38878790D-01 0.39513262D+06 0.39513262D+06 0.39513262D+06 0.10758111D+01  1  2 15  3  6  4        4 -.350593786503D-02 0.100000000000D+01
-.418486716655D-03 0.000000000000D+00 0.000000000000D+00 0.314817771123D-05 0.000000000000D+00  6 2 3 25 4 1 21 2 0.31397350D+00 0.38878790D-01 0.39513262D+06 0.39513262D+06 0.39513262D+06 0.10758111D+01  1  2  4  3  6  4        4 -.176396619283D-02 0.100000000000D+01
  </mgrwgt>
  </event>
  <event>
  5     66 0.17338086E-05 0.77610976E+02 0.75467711E-02 0.92857393E-01
        2 -1    0    0  502    0 0.00000000E+00 0.00000000E+00 0.14108096E+04 0.14108096E+04 0.32000000E+00 0.0000E+00 0.9000E+01
        3 -1    0    0  501    0 0.00000000E+00 0.00000000E+00 -.94467102E+03 0.94467115E+03 0.50000000E+00 0.0000E+00 0.9000E+01
       25  1    1    2    0    0 0.54224197E+03 -.12641022E+03 0.49540808E+03 0.75568516E+03 0.12500000E+03 0.0000E+00 0.9000E+01
        4  1    1    2  501    0 -.54614505E+02 -.55134184E+02 -.72604248E+03 0.73017985E+03 0.15500000E+01 0.0000E+00 0.9000E+01
        1  1    1    2  502    0 -.48762746E+03 0.18154440E+03 0.69677299E+03 0.86961578E+03 0.32000000E+00 0.0000E+00 0.9000E+01
#aMCatNLO 1  0  0  5  1 0.58729486D+01 0.00000000D+00  -5  6  0 0.00000000D+00 0.00000000D+00 0.00000000D+00 0.00000000D+00 0.00000000D+00
  <mgrwgt>
 0.4505098612D-02    4    2    0
 0.115444841853082D+04 0.000000000000000D+00 0.000000000000000D+00 0.115444841853082D+04
 0.115444841853082D+04 -.000000000000000D+00 -.000000000000000D+00 -.115444841853082D+04
 0.670929733811183D+03 0.542209154686194D+03 -.126392475154092D+03 0.352924754743630D+03
 0.891533941626580D+03 -.546193703728686D+02 -.551378997209035D+02 -.888149371145792D+03
 0.746433161623875D+03 -.487589784313325D+03 0.181530374874995D+03 0.535224616402163D+03
 0.000000000000000D+00 0.000000000000000D+00 0.000000000000000D+00 -.000000000000000D+00
 0.115444841853082D+04 0.000000000000000D+00 0.000000000000000D+00 0.115444841853082D+04
 0.115444841853082D+04 -.000000000000000D+00 -.000000000000000D+00 -.115444841853082D+04
 0.670418586807411D+03 0.540493817461517D+03 -.125753852649170D+03 0.354807670952326D+03
 0.889134482123672D+03 -.568965170208453D+02 -.542901147632373D+02 -.885649759832419D+03
 0.641600600757846D+01 0.266332301002035D+00 -.629213885963602D+01 -.122604598842181D+01
 0.742927762122978D+03 -.483863632741673D+03 0.186336106272043D+03 0.532068134868515D+03
0.174306200851D-01 0.000000000000D+00 0.000000000000D+00 0.302308102057D-04 0.000000000000D+00  6 2 3 25 4 1 21 0 0.21704764D+00 0.14533402D+00 0.34134935D+06 0.34134935D+06 0.34134935D+06 0.10804272D+01  1  2  2  4  6  5        1 0.696603065621D-02 0.100000000000D+01
0.608863327428D-02 0.000000000000D+00 -.669381707146D-04 0.302308102057D-04 0.000000000000D+00  6 2 3 25 4 1 21 2 0.21704764D+00 0.14533402D+00 0.34134935D+06 0.34134935D+06 0.34134935D+06 0.10804272D+01  1  2  3  4  6  5        1 0.284042537424D-02 0.100000000000D+01
-.121949953769D-01 0.000000000000D+00 0.000000000000D+00 0.302308102057D-04 0.000000000000D+00  6 2 3 25 4 1 21 2 0.21704764D+00 0.14533402D+00 0.34134935D+06 0.34134935D+06 0.34134935D+06 0.10804272D+01  1  2 15  4  6  5        1 -.568912147388D-02 0.100000000000D+01
0.831835447884D-03 0.000000000000D+00 0.000000000000D+00 0.302308102057D-04 0.655733209244D-08  6 2 3 25 4 1 21 2 0.21704764D+00 0.14533402D+00 0.34355859D+06 0.34355859D+06 0.34355859D+06 0.10802224D+01  1  2 11  4  6  5        1 0.387764054932D-03 0.100000000000D+01
  </mgrwgt>
  </event>
  <event>
  5     66 0.17338086E-05 0.20690210E+03 0.75467711E-02 0.94849147E-01
        2 -1    0    0  502    0 0.00000000E+00 0.00000000E+00 0.18890965E+04 0.18890965E+04 0.32000000E+00 0.0000E+00 0.9000E+01
        3 -1    0    0  501    0 0.00000000E+00 0.00000000E+00 -.62524118E+03 0.62524138E+03 0.50000000E+00 0.0000E+00 0.9000E+01
       25  1    1    2    0    0 -.15138096E+03 -.42480045E+03 0.95055703E+03 0.10595071E+04 0.12500000E+03 0.0000E+00 0.9000E+01
        4  1    1    2  501    0 -.13505129E+02 0.29972981E+03 -.51774834E+03 0.59840295E+03 0.15500000E+01 0.0000E+00 0.9000E+01
        1  1    1    2  502    0 0.16488609E+03 0.12507063E+03 0.83104664E+03 0.85642788E+03 0.32000000E+00 0.0000E+00 0.9000E+01
#aMCatNLO 1  0  0  1  4 0.62807983D+01 0.00000000D+00  -5  6  0 0.00000000D+00 0.00000000D+00 0.00000000D+00 0.00000000D+00 0.00000000D+00
  <mgrwgt>
 0.1209350553D-01    9    2    0
 0.108680321244124D+04 0.000000000000000D+00 0.000000000000000D+00 0.108680321244124D+04
 0.108680321244124D+04 0.000000000000000D+00 0.000000000000000D+00 -.108680321244124D+04
 0.672982506525608D+03 -.151340305380487D+03 -.424804604253529D+03 0.483650301624876D+03
 0.993288344061450D+03 -.135041877672278D+02 0.299765523070863D+03 -.946879085490400D+03
 0.507335574295421D+03 0.164844493147715D+03 0.125039081182666D+03 0.463228783865524D+03
 0.000000000000000D+00 -.000000000000000D+00 0.000000000000000D+00 0.000000000000000D+00
 0.109050818429702D+04 0.000000000000000D+00 0.000000000000000D+00 0.109050818429702D+04
 0.108947287082111D+04 0.000000000000000D+00 0.000000000000000D+00 -.108947287082111D+04
 0.673261194231325D+03 -.149687803225056D+03 -.425830462698024D+03 0.483650301624876D+03
 0.992802485395244D+03 -.110662789586563D+02 0.298252091254776D+03 -.946879085490400D+03
 0.507551819655101D+03 0.166090258387010D+03 0.124265721349888D+03 0.463228783865524D+03
 0.636555583645918D+01 -.533617620329786D+01 0.331265009336004D+01 0.103531347590903D+01
0.315510062581D-02 0.000000000000D+00 0.000000000000D+00 0.892453327466D-05 0.000000000000D+00  6 2 3 25 4 1 21 0 0.29063025D+00 0.96190968D-01 0.23762359D+06 0.23762359D+06 0.23762359D+06 0.10921218D+01  1  2  2  1  6  1        2 0.206250678026D-02 0.100000000000D+01
0.192250876535D-03 0.000000000000D+00 -.121164171602D-04 0.892453327466D-05 0.000000000000D+00  6 2 3 25 4 1 21 2 0.29063025D+00 0.96190968D-01 0.23762359D+06 0.23762359D+06 0.23762359D+06 0.10921218D+01  1  2  3  1  6  1        2 0.149896911385D-03 0.100000000000D+01
-.215002884380D-02 0.000000000000D+00 0.000000000000D+00 0.892453327466D-05 0.000000000000D+00  6 2 3 25 4 1 21 2 0.29063025D+00 0.96190968D-01 0.23762359D+06 0.23762359D+06 0.23762359D+06 0.10921218D+01  1  2 15  1  6  1        2 -.167636522071D-02 0.100000000000D+01
-.589494270524D-03 0.000000000000D+00 0.000000000000D+00 0.892453327466D-05 0.000000000000D+00  6 2 3 25 4 1 21 2 0.29063025D+00 0.96190968D-01 0.23762359D+06 0.23762359D+06 0.23762359D+06 0.10921218D+01  1  2  4  1  6  1        2 -.459625318872D-03 0.100000000000D+01
-.131961514852D+01 0.000000000000D+00 -.136993365274D+00 0.892453327466D-05 0.000000000000D+00  6 2 3 25 4 1 21 2 0.29198887D+00 0.96190968D-01 0.23762359D+06 0.23762359D+06 0.23762359D+06 0.10921218D+01  1  2  5  1  6  1        2 -.101758529502D+01 0.100000000000D+01
0.132024119643D+01 0.000000000000D+00 0.136991875382D+00 0.892453327466D-05 0.000000000000D+00  6 2 3 25 4 1 21 2 0.29063025D+00 0.96190968D-01 0.23762359D+06 0.23762359D+06 0.23762359D+06 0.10921218D+01  1  2  6  1  6  1        2 0.102938452711D+01 0.100000000000D+01
0.535258551707D-03 0.000000000000D+00 0.000000000000D+00 0.892453327466D-05 0.921474729435D-07  6 2 3 25 4 1 21 2 0.29162103D+00 0.96427255D-01 0.24036073D+06 0.24036073D+06 0.24036073D+06 0.10917461D+01  1  2 11  1  6  1        2 0.411017933721D-03 0.100000000000D+01
-.114482459234D-02 0.000000000000D+00 -.118963141083D-03 0.892453327466D-05 0.000000000000D+00  6 21 3 25 4 1 -2 2 0.29198887D+00 0.96190968D-01 0.23762359D+06 0.23762359D+06 0.23762359D+06 0.10921218D+01  1  2  5  5  6  1        2 -.197988858028D-03 0.100000000000D+01
0.279965208223D-04 0.000000000000D+00 0.000000000000D+00 0.892453327466D-05 0.101915239619D-08  6 21 3 25 4 1 -2 2 0.29162103D+00 0.96427255D-01 0.24036073D+06 0.24036073D+06 0.24036073D+06 0.10917461D+01  1  2 11  5  6  1        2 0.483121964365D-05 0.100000000000D+01
  </mgrwgt>
  </event>
  <event>
  6     66 0.17338086E-05 0.19050443E+02 0.75467711E-02 0.94083114E-01
        2 -1    0    0  502    0 0.00000000E+00 0.00000000E+00 0.12480806E+04 0.12480807E+04 0.32000000E+00 0.0000E+00 0.9000E+01
        3 -1    0    0  501    0 0.00000000E+00 0.00000000E+00 -.32809371E+03 0.32809409E+03 0.50000000E+00 0.0000E+00 0.9000E+01
       25  1    1    2    0    0 0.38656706E+03 -.30904938E+03 0.45473637E+03 0.68363424E+03 0.12500000E+03 0.0000E+00 0.9000E+01
        4  1    1    2  503    0 0.15772017E+02 -.14713717E+02 -.11398932E+03 0.11602248E+03 0.15500000E+01 0.0000E+00 0.9000E+01
        1  1    1    2  502    0 -.38609342E+03 0.31508683E+03 0.56378537E+03 0.75246388E+03 0.32000000E+00 0.0000E+00 0.9000E+01
       21  1    1    2  501  503 -.16245652E+02 0.86762709E+01 0.15454507E+02 0.24054172E+02 0.75000000E+00 0.0000E+00 0.9000E+01
#aMCatNLO 2  0  0  4  4 0.31541498D+02 0.00000000D+00  -5  6  0 0.00000000D+00 0.00000000D+00 0.00000000D+00 0.00000000D+00 0.00000000D+00
  <mgrwgt>
 0.1122913917D-01    1    2    0
 0.639912295305824D+03 0.000000000000000D+00 0.000000000000000D+00 0.639912295305824D+03
 0.639912295305824D+03 -.000000000000000D+00 -.000000000000000D+00 -.639912295305824D+03
 0.516236332062510D+03 0.386689808291964D+03 -.308904747595760D+03 0.769662238730605D+02
 0.239260781081952D+03 -.517542121140208D+00 -.649910671675473D+01 -.239171936326114D+03
 0.524327477467186D+03 -.386172266170823D+03 0.315403854312515D+03 0.162205712453054D+03
 0.000000000000000D+00 0.000000000000000D+00 0.000000000000000D+00 0.000000000000000D+00
 0.639912295305824D+03 0.000000000000000D+00 0.000000000000000D+00 0.639912295305824D+03
 0.639912295305824D+03 -.000000000000000D+00 -.000000000000000D+00 -.639912295305824D+03
 0.515142352372738D+03 0.386671047707375D+03 -.309140336229663D+03 0.682963878167019D+02
 0.224509083183684D+03 0.158696229546924D+02 -.147808277559106D+02 -.223459192315072D+03
 0.521544371264672D+03 -.386191290383348D+03 0.315164955134358D+03 0.153414045918438D+03
 0.186287837905535D+02 -.163493802787195D+02 0.875620885121634D+01 0.174875857993266D+01
0.158457097558D-02 0.000000000000D+00 0.000000000000D+00 0.714271976590D-05 0.842448573673D-06  6 2 3 25 4 1 21 2 0.19201244D+00 0.50475988D-01 0.27525691D+06 0.27525691D+06 0.27525691D+06 0.10873285D+01  1  2  1  3  6  4        4 0.112291391676D-01 0.100000000000D+01
  </mgrwgt>
  </event>
  <event>
  5     66 0.17338086E-05 0.86756881E+02 0.75467711E-02 0.93822333E-01
        2 -1    0    0  502    0 0.00000000E+00 0.00000000E+00 0.21729059E+04 0.21729060E+04 0.32000000E+00 0.0000E+00 0.9000E+01
        3 -1    0    0  501    0 0.00000000E+00 0.00000000E+00 -.19785728E+03 0.19785791E+03 0.50000000E+00 0.0000E+00 0.9000E+01
       25  1    1    2    0    0 -.38724485E+03 -.27274099E+03 0.92707643E+03 0.10485428E+04 0.12500000E+03 0.0000E+00 0.9000E+01
        4  1    1    2  501    0 -.71799742E+02 0.48744818E+02 -.57729746E+02 0.10424196E+03 0.15500000E+01 0.0000E+00 0.9000E+01
        1  1    1    2  502    0 0.45904459E+03 0.22399618E+03 0.11057020E+04 0.12179791E+04 0.32000000E+00 0.0000E+00 0.9000E+01
#aMCatNLO 1  0  0  5  1 0.35836339D+02 0.00000000D+00  -5  6  0 0.00000000D+00 0.00000000D+00 0.00000000D+00 0.00000000D+00 0.00000000D+00
  <mgrwgt>
 0.1904257415D-01    7    2    0
 0.655687446044613D+03 0.000000000000000D+00 0.000000000000000D+00 0.655687446044613D+03
 0.655687446044613D+03 -.000000000000000D+00 -.000000000000000D+00 -.655687446044613D+03
 0.499387263133042D+03 -.387323487382363D+03 -.272754000461829D+03 0.966871756415665D+02
 0.275288527922153D+03 -.717785852096741D+02 0.487297766410810D+02 -.261260439369136D+03
 0.536699101034031D+03 0.459102072592037D+03 0.224024223820748D+03 0.164573263727569D+03
 0.000000000000000D+00 0.000000000000000D+00 0.000000000000000D+00 0.000000000000000D+00
 0.655687446044613D+03 0.000000000000000D+00 0.000000000000000D+00 0.655687446044613D+03
 0.655687446044613D+03 -.000000000000000D+00 -.000000000000000D+00 -.655687446044613D+03
 0.495151069703766D+03 -.382960123773231D+03 -.270624846175366D+03 0.982513005559471D+02
 0.274060016412724D+03 -.693684142107913D+02 0.499058477580149D+02 -.260396470916133D+03
 0.482856274808852D+03 0.402199655066162D+03 0.195826469782542D+03 0.181762519017121D+03
 0.593075311638837D+02 0.501288829178602D+02 0.248925286348086D+02 -.196173486569346D+02
0.406698437514D-03 0.000000000000D+00 0.000000000000D+00 0.608241701024D-06 0.000000000000D+00  6 2 3 25 4 1 21 0 0.33429327D+00 0.30439631D-01 0.29568518D+06 0.29568518D+06 0.29568518D+06 0.10850177D+01  1  2  2  4  6  5        1 0.202434040157D-02 0.100000000000D+01
0.659934096966D-04 0.000000000000D+00 -.156182908621D-05 0.608241701024D-06 0.000000000000D+00  6 2 3 25 4 1 21 2 0.33429327D+00 0.30439631D-01 0.29568518D+06 0.29568518D+06 0.29568518D+06 0.10850177D+01  1  2  3  4  6  5        1 0.386709837759D-03 0.100000000000D+01
-.251986782453D-03 0.000000000000D+00 0.000000000000D+00 0.608241701024D-06 0.000000000000D+00  6 2 3 25 4 1 21 2 0.33429327D+00 0.30439631D-01 0.29568518D+06 0.29568518D+06 0.29568518D+06 0.10850177D+01  1  2 15  4  6  5        1 -.147659846957D-02 0.100000000000D+01
0.392677527308D-02 0.000000000000D+00 0.000000000000D+00 0.608241701024D-06 0.000000000000D+00  6 2 3 25 4 1 21 2 0.33429327D+00 0.30439631D-01 0.28840604D+06 0.28840604D+06 0.28840604D+06 0.10858205D+01  1  2 12  4  6  5        1 0.230668405821D-01 0.100000000000D+01
-.131532143109D-02 0.000000000000D+00 0.000000000000D+00 0.608241701024D-06 0.000000000000D+00  6 2 3 25 4 1 21 2 0.33429327D+00 0.30439631D-01 0.29568518D+06 0.29568518D+06 0.29568518D+06 0.10850177D+01  1  2  4  4  6  5        1 -.770755352020D-02 0.100000000000D+01
-.402424029215D-02 0.000000000000D+00 0.000000000000D+00 0.608241701024D-06 0.000000000000D+00  6 2 3 25 4 1 21 2 0.33429327D+00 0.30439631D-01 0.29568518D+06 0.29568518D+06 0.29568518D+06 0.10850177D+01  1  2  5  4  6  5        1 -.235813442226D-01 0.100000000000D+01
0.449333881950D-02 0.000000000000D+00 -.000000000000D+00 0.608241701024D-06 0.000000000000D+00  6 2 3 25 4 1 21 2 0.33429327D+00 0.30439631D-01 0.29568518D+06 0.29568518D+06 0.29568518D+06 0.10850177D+01  1  2  6  4  6  5        1 0.263301795418D-01 0.100000000000D+01
  </mgrwgt>
  </event>
  <event>
  5     66 0.17338086E-05 0.10766721E+03 0.75467711E-02 0.89130795E-01
        2 -1    0    0  502    0 0.00000000E+00 0.00000000E+00 0.20235797E+04 0.20235798E+04 0.32000000E+00 0.0000E+00 0.9000E+01
        3 -1    0    0  501    0 0.00000000E+00 0.00000000E+00 -.98229238E+03 0.98229251E+03 0.50000000E+00 0.0000E+00 0.9000E+01
       25  1    1    2    0    0 -.53745873E+03 0.36484615E+03 -.15334226E+02 0.66169082E+03 0.12500000E+03 0.0000E+00 0.9000E+01
        4  1    1    2  501    0 0.58323962E+02 0.90517150E+02 -.57434717E+03 0.58435616E+03 0.15500000E+01 0.0000E+00 0.9000E+01
        1  1    1    2  502    0 0.47913477E+03 -.45536330E+03 0.16309688E+04 0.17598253E+04 0.32000000E+00 0.0000E+00 0.9000E+01
#aMCatNLO 1  0  0  2  1 0.22414458D+02 0.00000000D+00  -5  6  0 0.00000000D+00 0.00000000D+00 0.00000000D+00 0.00000000D+00 0.00000000D+00
  <mgrwgt>
 0.7568737076D-03    4    2    0
 0.140987488105609D+04 0.000000000000000D+00 0.000000000000000D+00 0.140987488105609D+04
 0.140987488105609D+04 0.000000000000000D+00 0.000000000000000D+00 -.140987488105609D+04
 0.711088047659291D+03 -.537464352090494D+03 0.364869010357527D+03 -.260813893488377D+03
 0.834933871018663D+03 0.583174407623339D+02 0.905058296254027D+02 -.827962764791363D+03
 0.127372784343422D+04 0.479146911328160D+03 -.455374839982930D+03 0.108877665827974D+04
 0.000000000000000D+00 0.000000000000000D+00 -.000000000000000D+00 0.000000000000000D+00
 0.164901547042765D+04 0.000000000000000D+00 0.000000000000000D+00 0.164901547042765D+04
 0.148689150614868D+04 0.000000000000000D+00 0.000000000000000D+00 -.148689150614868D+04
 0.772961604385101D+03 -.588377433226071D+03 0.409429787493930D+03 -.260813893488377D+03
 0.839848755196805D+03 0.860910507096818D+00 0.140793645303199D+03 -.827962764791363D+03
 0.121868579759468D+04 0.393640029699022D+03 -.380536448533816D+03 0.108877665827974D+04
 0.304410819399742D+03 0.193876493019952D+03 -.169686984263313D+03 0.162123964278972D+03
0.121722925340D-01 0.000000000000D+00 0.000000000000D+00 0.207708401135D-04 0.000000000000D+00  6 2 3 25 4 1 21 0 0.31131997D+00 0.15112192D+00 0.51138083D+06 0.51138083D+06 0.51138083D+06 0.10678203D+01  1  2  2  2  6  2        3 0.194190259464D-02 0.100000000000D+01
0.314890580492D-02 0.000000000000D+00 -.467448083688D-04 0.207708401135D-04 0.000000000000D+00  6 2 3 25 4 1 21 2 0.31131997D+00 0.15112192D+00 0.51138083D+06 0.51138083D+06 0.51138083D+06 0.10678203D+01  1  2  3  2  6  2        3 0.572810614153D-03 0.100000000000D+01
-.920615094331D-02 0.000000000000D+00 0.000000000000D+00 0.207708401135D-04 0.000000000000D+00  6 2 3 25 4 1 21 2 0.31131997D+00 0.15112192D+00 0.51138083D+06 0.51138083D+06 0.51138083D+06 0.10678203D+01  1  2 15  2  6  2        3 -.167467091825D-02 0.100000000000D+01
-.457201782076D-03 0.000000000000D+00 0.000000000000D+00 0.207708401135D-04 0.000000000000D+00  6 2 3 25 4 1 21 2 0.31131997D+00 0.15112192D+00 0.51138083D+06 0.51138083D+06 0.51138083D+06 0.10678203D+01  1  2  4  2  6  2        3 -.831685829323D-04 0.100000000000D+01
  </mgrwgt>
  </event>
  <event>
  5     66 0.17338086E-05 0.39883590E+02 0.75467711E-02 0.91842491E-01
        2 -1    0    0  502    0 0.00000000E+00 0.00000000E+00 0.34715570E+04 0.34715570E+04 0.32000000E+00 0.0000E+00 0.9000E+01
        3 -1    0    0  501    0 0.00000000E+00 0.00000000E+00 -.13124964E+04 0.13124965E+04 0.50000000E+00 0.0000E+00 0.9000E+01
       25  1    1    2    0    0 0.39411229E+01 0.60864570E+03 0.17374926E+04 0.18452563E+04 0.12500000E+03 0.0000E+00 0.9000E+01
        4  1    1    2  501    0 -.35227058E+02 -.58389954E+03 -.11903866E+04 0.13263492E+04 0.15500000E+01 0.0000E+00 0.9000E+01
        1  1    1    2  502    0 0.31285935E+02 -.24746155E+02 0.16119545E+04 0.16124480E+04 0.32000000E+00 0.0000E+00 0.9000E+01
#aMCatNLO 1  0  0  1  2 0.44091000D+02 0.00000000D+00  -5  6  0 0.00000000D+00 0.00000000D+00 0.00000000D+00 0.00000000D+00 0.00000000D+00
  <mgrwgt>
 0.1518028178D-01    7    2    0
 0.213457404399188D+04 0.000000000000000D+00 0.000000000000000D+00 0.213457404399188D+04
 0.213457404399188D+04 0.000000000000000D+00 0.000000000000000D+00 -.213457404399188D+04
 0.118924499227763D+04 0.394792533033045D+01 0.608680738233295D+03 0.101398758594314D+04
 0.208834935429810D+04 -.352291300521618D+02 -.583938325350404D+03 -.200473887730548D+04
 0.991553741408030D+03 0.312812047218314D+02 -.247424128828915D+02 0.990751291362341D+03
 0.000000000000000D+00 0.000000000000000D+00 0.000000000000000D+00 0.000000000000000D+00
 0.263345025520271D+04 0.000000000000000D+00 0.000000000000000D+00 0.263345025520271D+04
 0.213566230203125D+04 0.000000000000000D+00 0.000000000000000D+00 -.213566230203125D+04
 0.118814541274768D+04 -.813094720125994D+01 0.606487910089054D+03 0.101398758594314D+04
 0.208989595626501D+04 -.564576554156557D+02 -.587792203910349D+03 -.200473887730548D+04
 0.991334394892316D+03 0.212066906697232D+02 -.265713648728426D+02 0.990751291362341D+03
 0.499736793328948D+03 0.433819119471925D+02 0.787565869413795D+01 0.497787953171468D+03
0.146024869436D-01 0.000000000000D+00 0.000000000000D+00 0.143207648129D-02 0.000000000000D+00  6 2 3 25 4 1 21 0 0.53408569D+00 0.20192253D+00 0.38830315D+06 0.38830315D+06 0.38830315D+06 0.10763580D+01  1  2  2  1  6  1        2 0.117404998806D-03 0.100000000000D+01
0.648084878088D-02 0.000000000000D+00 -.560773947864D-04 0.143207648129D-02 0.000000000000D+00  6 2 3 25 4 1 21 2 0.53408569D+00 0.20192253D+00 0.38830315D+06 0.38830315D+06 0.38830315D+06 0.10763580D+01  1  2  3  1  6  1        2 0.603677723204D-04 0.100000000000D+01
-.109809485651D-01 0.000000000000D+00 0.000000000000D+00 0.143207648129D-02 0.000000000000D+00  6 2 3 25 4 1 21 2 0.53408569D+00 0.20192253D+00 0.38830315D+06 0.38830315D+06 0.38830315D+06 0.10763580D+01  1  2 15  1  6  1        2 -.102285275471D-03 0.100000000000D+01
-.797392853234D-01 0.000000000000D+00 0.000000000000D+00 0.143207648129D-02 0.000000000000D+00  6 2 3 25 4 1 21 2 0.53408569D+00 0.20192253D+00 0.38830315D+06 0.38830315D+06 0.38830315D+06 0.10763580D+01  1  2  4  1  6  1        2 -.742755028569D-03 0.100000000000D+01
-.217380706149D+01 0.000000000000D+00 -.104514811884D-01 0.143207648129D-02 0.000000000000D+00  6 2 3 25 4 1 21 2 0.65895943D+00 0.20192253D+00 0.38830315D+06 0.38830315D+06 0.38830315D+06 0.10763580D+01  1  2  5  1  6  1        2 -.454675542567D-02 0.100000000000D+01
0.218965610851D+01 0.000000000000D+00 0.105186001972D-01 0.143207648129D-02 0.000000000000D+00  6 2 3 25 4 1 21 2 0.53408569D+00 0.20192253D+00 0.38830315D+06 0.38830315D+06 0.38830315D+06 0.10763580D+01  1  2  6  1  6  1        2 0.203961959132D-01 0.100000000000D+01
-.644621069331D-01 0.000000000000D+00 -.310558042732D-03 0.143207648129D-02 0.000000000000D+00  6 21 3 25 4 1 -2 2 0.65895943D+00 0.20192253D+00 0.38830315D+06 0.38830315D+06 0.38830315D+06 0.10763580D+01  1  2  5  5  6  1        2 -.189117896960D-05 0.100000000000D+01
  </mgrwgt>
  </event>
  <event>
  6     66 0.17338086E-05 0.71790870E+02 0.75467711E-02 0.94288891E-01
        2 -1    0    0  502    0 0.00000000E+00 0.00000000E+00 0.75633912E+03 0.75633918E+03 0.32000000E+00 0.0000E+00 0.9000E+01
        3 -1    0    0  501    0 -.00000000E+00 -.00000000E+00 -.83238087E+03 0.83238102E+03 0.50000000E+00 0.0000E+00 0.9000E+01
       25  1    1    2    0    0 0.23390551E+03 -.40837706E+03 -.79769139E+02 0.49342854E+03 0.12500000E+03 0.0000E+00 0.9000E+01
        4  1    1    2  501    0 0.56762243E+02 0.69615305E+02 -.44344160E+03 0.45245010E+03 0.15500000E+01 0.0000E+00 0.9000E+01
        1  1    1    2  503    0 -.28620070E+03 0.30036769E+03 0.36732092E+03 0.55412665E+03 0.32000000E+00 0.0000E+00 0.9000E+01
       21  1    1    2  502  503 -.44670554E+01 0.38394065E+02 0.79848063E+02 0.88714906E+02 0.75000000E+00 0.0000E+00 0.9000E+01
#aMCatNLO 2  0  0  5  1 0.40313545D+02 0.00000000D+00  -5  6  0 0.00000000D+00 0.00000000D+00 0.00000000D+00 0.00000000D+00 0.00000000D+00
  <mgrwgt>
 0.7851460054D-02    2    2    0
 0.793449673907592D+03 0.000000000000000D+00 0.000000000000000D+00 0.793449673907592D+03
 0.793449673907592D+03 -.000000000000000D+00 -.000000000000000D+00 -.793449673907592D+03
 0.492529493955693D+03 0.235329576877380D+03 -.410076546681184D+03 -.584595460553632D+02
 0.433856840028627D+03 0.580682153308858D+02 0.681330326250444D+02 -.424520588279563D+03
 0.660513013830863D+03 -.293397792208265D+03 0.341943514056140D+03 0.482980134334926D+03
 0.000000000000000D+00 0.000000000000000D+00 0.000000000000000D+00 0.000000000000000D+00
 0.793449673907592D+03 0.000000000000000D+00 0.000000000000000D+00 0.793449673907592D+03
 0.793449673907592D+03 -.000000000000000D+00 -.000000000000000D+00 -.793449673907592D+03
 0.490120197613715D+03 0.233860486234793D+03 -.408364379684247D+03 -.560411856765528D+02
 0.431840907123696D+03 0.567739713387882D+02 0.696414227713129D+02 -.422390053716025D+03
 0.572234574612931D+03 -.286165937933446D+03 0.300303027743247D+03 0.394182135411223D+03
 0.927036684648406D+02 -.446851964013486D+01 0.384199291696867D+02 0.842491039813544D+02
-.837157471214D-02 0.000000000000D+00 0.000000000000D+00 0.816178015966D-05 0.000000000000D+00  6 2 3 25 4 1 21 2 0.11635988D+00 0.12805861D+00 0.26535498D+06 0.26535498D+06 0.26535498D+06 0.10885169D+01  1  2 13  4  6  5        1 -.143778656673D-01 0.100000000000D+01
0.129431214187D-01 0.000000000000D+00 0.000000000000D+00 0.816178015966D-05 0.648050159387D-07  6 2 3 25 4 1 21 2 0.11635988D+00 0.12805861D+00 0.26535498D+06 0.26535498D+06 0.26535498D+06 0.10885169D+01  1  2  1  4  6  5        1 0.222293257210D-01 0.100000000000D+01
  </mgrwgt>
  </event>
  <event>
  5     66 -.17338086E-05 0.12493534E+03 0.75467711E-02 0.92418819E-01
        2 -1    0    0  502    0 0.00000000E+00 0.00000000E+00 0.19647866E+04 0.19647866E+04 0.32000000E+00 0.0000E+00 0.9000E+01
        3 -1    0    0  501    0 0.00000000E+00 0.00000000E+00 -.43166228E+03 0.43166257E+03 0.50000000E+00 0.0000E+00 0.9000E+01
       25  1    1    2    0    0 -.45648297E+03 -.24370144E+03 0.54213925E+03 0.75980725E+03 0.12500000E+03 0.0000E+00 0.9000E+01
        4  1    1    2  501    0 -.83572465E+02 0.92878943E+02 -.24743562E+03 0.27719603E+03 0.15500000E+01 0.0000E+00 0.9000E+01
        1  1    1    2  502    0 0.54005543E+03 0.15082250E+03 0.12384207E+04 0.13594459E+04 0.32000000E+00 0.0000E+00 0.9000E+01
#aMCatNLO 1  0  0  4  2 0.15997305D+02 0.00000000D+00  -5  6  0 0.00000000D+00 0.00000000D+00 0.00000000D+00 0.00000000D+00 0.00000000D+00
  <mgrwgt>
 -.3165944814D-02    7    2    0
 0.920936832009045D+03 0.000000000000000D+00 0.000000000000000D+00 0.920936832009045D+03
 0.920936832009045D+03 -.000000000000000D+00 -.000000000000000D+00 -.920936832009045D+03
 0.537330943233108D+03 -.456505679574853D+03 -.243700641898392D+03 0.728841835379560D+02
 0.566581039744302D+03 -.835664820657174D+02 0.928734680329337D+02 -.552634813062324D+03
 0.737961681040681D+03 0.540072161640571D+03 0.150827173865458D+03 0.479750629524368D+03
 0.000000000000000D+00 0.000000000000000D+00 0.000000000000000D+00 -.000000000000000D+00
 0.920936832009045D+03 0.000000000000000D+00 0.000000000000000D+00 0.920936832009045D+03
 0.920936832009045D+03 -.000000000000000D+00 -.000000000000000D+00 -.920936832009045D+03
 0.537298981689912D+03 -.456563896532818D+03 -.243635941187643D+03 0.724991880602672D+02
 0.446408434669838D+03 -.809295914054656D+02 0.773697543140922D+02 -.432139807118826D+03
 0.737577776607831D+03 0.539992225825842D+03 0.150916012310615D+03 0.479222004734409D+03
 0.120588471050510D+03 -.249873788755880D+01 0.153501745629360D+02 -.119581385675850D+03
0.359376888578D-04 0.000000000000D+00 0.000000000000D+00 0.253421180337D-05 0.000000000000D+00  6 2 3 25 4 1 21 0 0.30227489D+00 0.66409606D-01 0.37090414D+06 0.37090414D+06 0.37090414D+06 0.10778000D+01  1  2  2  3  6  4        4 0.482009577533D-04 0.100000000000D+01
0.639130095010D-05 0.000000000000D+00 -.138010187825D-06 0.253421180337D-05 0.000000000000D+00  6 2 3 25 4 1 21 2 0.30227489D+00 0.66409606D-01 0.37090414D+06 0.37090414D+06 0.37090414D+06 0.10778000D+01  1  2  3  3  6  4        4 0.995797831237D-05 0.100000000000D+01
-.215142811159D-04 0.000000000000D+00 0.000000000000D+00 0.253421180337D-05 0.000000000000D+00  6 2 3 25 4 1 21 2 0.30227489D+00 0.66409606D-01 0.37090414D+06 0.37090414D+06 0.37090414D+06 0.10778000D+01  1  2 15  3  6  4        4 -.335203656393D-04 0.100000000000D+01
0.244036251071D-02 0.000000000000D+00 0.000000000000D+00 0.253421180337D-05 0.000000000000D+00  6 2 3 25 4 1 21 2 0.30227489D+00 0.66409606D-01 0.37245690D+06 0.37245690D+06 0.37245690D+06 0.10776684D+01  1  2 12  3  6  4        4 0.380048659788D-02 0.100000000000D+01
-.515533211989D-02 0.000000000000D+00 0.000000000000D+00 0.253421180337D-05 0.000000000000D+00  6 2 3 25 4 1 21 2 0.30227489D+00 0.66409606D-01 0.37090414D+06 0.37090414D+06 0.37090414D+06 0.10778000D+01  1  2  4  3  6  4        4 -.803227478156D-02 0.100000000000D+01
-.284551751241D-02 0.000000000000D+00 0.000000000000D+00 0.253421180337D-05 0.000000000000D+00  6 2 3 25 4 1 21 2 0.30227489D+00 0.66409606D-01 0.37090414D+06 0.37090414D+06 0.37090414D+06 0.10778000D+01  1  2  5  3  6  4        4 -.443346384363D-02 0.100000000000D+01
0.351379103270D-02 0.000000000000D+00 -.000000000000D+00 0.253421180337D-05 0.000000000000D+00  6 2 3 25 4 1 21 2 0.30227489D+00 0.66409606D-01 0.37090414D+06 0.37090414D+06 0.37090414D+06 0.10778000D+01  1  2  6  3  6  4        4 0.547466864274D-02 0.100000000000D+01
  </mgrwgt>
  </event>
  <event>
  5     66 0.17338086E-05 0.27599417E+02 0.75467711E-02 0.94235258E-01
        2 -1    0    0  502    0 0.00000000E+00 0.00000000E+00 0.94254390E+03 0.94254396E+03 0.32000000E+00 0.0000E+00 0.9000E+01
        3 -1    0    0  501    0 0.00000000E+00 0.00000000E+00 -.50948236E+03 0.50948261E+03 0.50000000E+00 0.0000E+00 0.9000E+01
       25  1    1    2    0    0 -.34077922E+03 -.30908415E+03 0.19923237E+03 0.51670303E+03 0.12500000E+03 0.0000E+00 0.9000E+01
        4  1    1    2  501    0 0.23189381E+01 -.27510070E+02 -.25242334E+03 0.25393331E+03 0.15500000E+01 0.0000E+00 0.9000E+01
        1  1    1    2  502    0 0.33846028E+03 0.33659422E+03 0.48625251E+03 0.68139022E+03 0.32000000E+00 0.0000E+00 0.9000E+01
#aMCatNLO 1  0  0  4  2 0.10116704D+01 0.00000000D+00  -5  6  0 0.00000000D+00 0.00000000D+00 0.00000000D+00 0.00000000D+00 0.00000000D+00
  <mgrwgt>
 0.1094821744D-01    6    2    0
 0.692971653181660D+03 0.000000000000000D+00 0.000000000000000D+00 0.692971653181660D+03
 0.692971653181660D+03 -.000000000000000D+00 -.000000000000000D+00 -.692971653181660D+03
 0.479127046580770D+03 -.340814969630555D+03 -.309126500760431D+03 0.471560151894370D+02
 0.344817852446811D+03 0.232052273844951D+01 -.275016906716676D+02 -.343711541194722D+03
 0.561998407335740D+03 0.338494446892105D+03 0.336628191432098D+03 0.296555526005285D+03
 0.000000000000000D+00 0.000000000000000D+00 0.000000000000000D+00 0.000000000000000D+00
 0.692971653181660D+03 0.000000000000000D+00 0.000000000000000D+00 0.692971653181660D+03
 0.692971653181660D+03 -.000000000000000D+00 -.000000000000000D+00 -.692971653181660D+03
 0.478973351630024D+03 -.340793469346377D+03 -.309381311521388D+03 0.439714328156833D+02
 0.176960080839605D+03 -.275565054074453D+02 0.135695724895872D+02 -.174273853239489D+03
 0.559875605973810D+03 0.338519622343595D+03 0.336329824401292D+03 0.292826584638566D+03
 0.170134267919882D+03 0.298303524102276D+02 -.405180853694914D+02 -.162524164214761D+03
0.981133675350D-03 0.000000000000D+00 0.000000000000D+00 0.163584548722D-04 0.000000000000D+00  6 2 3 25 4 1 21 0 0.14500678D+00 0.78381925D-01 0.24097587D+06 0.24097587D+06 0.24097587D+06 0.10916623D+01  1  2  2  3  6  4        4 0.352343723065D-02 0.100000000000D+01
0.516173407783D-03 0.000000000000D+00 -.376781165177D-05 0.163584548722D-04 0.000000000000D+00  6 2 3 25 4 1 21 2 0.14500678D+00 0.78381925D-01 0.24097587D+06 0.24097587D+06 0.24097587D+06 0.10916623D+01  1  2  3  3  6  4        4 0.220907572496D-02 0.100000000000D+01
-.695747710951D-03 0.000000000000D+00 0.000000000000D+00 0.163584548722D-04 0.000000000000D+00  6 2 3 25 4 1 21 2 0.14500678D+00 0.78381925D-01 0.24097587D+06 0.24097587D+06 0.24097587D+06 0.10916623D+01  1  2 15  3  6  4        4 -.297760278965D-02 0.100000000000D+01
-.187234176890D-03 0.000000000000D+00 0.000000000000D+00 0.163584548722D-04 0.000000000000D+00  6 2 3 25 4 1 21 2 0.14500678D+00 0.78381925D-01 0.24097587D+06 0.24097587D+06 0.24097587D+06 0.10916623D+01  1  2  4  3  6  4        4 -.801309150789D-03 0.100000000000D+01
-.353025729259D-02 0.000000000000D+00 0.000000000000D+00 0.163584548722D-04 0.000000000000D+00  6 2 3 25 4 1 21 2 0.14500678D+00 0.78381925D-01 0.24097587D+06 0.24097587D+06 0.24097587D+06 0.10916623D+01  1  2  5  3  6  4        4 -.151084995281D-01 0.100000000000D+01
0.563194251638D-02 0.000000000000D+00 -.000000000000D+00 0.163584548722D-04 0.000000000000D+00  6 2 3 25 4 1 21 2 0.14500678D+00 0.78381925D-01 0.24097587D+06 0.24097587D+06 0.24097587D+06 0.10916623D+01  1  2  6  3  6  4        4 0.241031159484D-01 0.100000000000D+01
  </mgrwgt>
  </event>
  <event>
  6     66 0.17338086E-05 0.27597361E+02 0.75467711E-02 0.94739284E-01
        2 -1    0    0  502    0 0.00000000E+00 0.00000000E+00 0.22721018E+04 0.22721019E+04 0.32000000E+00 0.0000E+00 0.9000E+01
        3 -1    0    0  501    0 0.00000000E+00 0.00000000E+00 -.67754301E+03 0.67754320E+03 0.50000000E+00 0.0000E+00 0.9000E+01
       25  1    1    2    0    0 -.42847557E+03 0.21238108E+03 0.27108199E+03 0.56374417E+03 0.12500000E+03 0.0000E+00 0.9000E+01
        4  1    1    2  503    0 0.26350276E+03 -.12331190E+03 -.27824291E+03 0.40256807E+03 0.15500000E+01 0.0000E+00 0.9000E+01
        1  1    1    2  502    0 -.97249006E+01 -.57556113E+01 0.17434208E+04 0.17434575E+04 0.32000000E+00 0.0000E+00 0.9000E+01
       21  1    1    2  501  503 0.17469771E+03 -.83313569E+02 -.14170105E+03 0.23987537E+03 0.75000000E+00 0.0000E+00 0.9000E+01
#aMCatNLO 2  0  0  4  1 0.19609390D+02 0.00000000D+00  -5  6  0 0.00000000D+00 0.00000000D+00 0.00000000D+00 0.00000000D+00 0.00000000D+00
  <mgrwgt>
 0.2079633706D-01    1    2    0
 0.124074454608212D+04 0.000000000000000D+00 0.000000000000000D+00 0.124074454608212D+04
 0.124074454608212D+04 -.000000000000000D+00 -.000000000000000D+00 -.124074454608212D+04
 0.495958095289647D+03 -.428532733000786D+03 0.212408151918242D+03 -.398986970825972D+02
 0.103315420500719D+04 0.438388768728458D+03 -.206714198348660D+03 -.912410071720962D+03
 0.952376791867414D+03 -.985603572767184D+01 -.569395356958271D+01 0.952308768803559D+03
 0.000000000000000D+00 0.000000000000000D+00 -.000000000000000D+00 0.000000000000000D+00
 0.124074454608212D+04 0.000000000000000D+00 0.000000000000000D+00 0.124074454608212D+04
 0.124074454608212D+04 -.000000000000000D+00 -.000000000000000D+00 -.124074454608212D+04
 0.495896907047482D+03 -.428464612612222D+03 0.212376030996089D+03 -.400404747307689D+02
 0.656385321615505D+03 0.263106443248251D+03 -.123125090376456D+03 -.588605897076588D+03
 0.952103607066138D+03 -.972523642285215D+01 -.575562958723889D+01 0.952036538738364D+03
 0.377103256435124D+03 0.175083405786824D+03 -.834953110323940D+02 -.323390166931008D+03
0.528361335619D-01 0.000000000000D+00 0.000000000000D+00 0.695519386043D-03 0.417525368448D-05  6 2 3 25 4 1 21 2 0.34955415D+00 0.10423740D+00 0.24504604D+06 0.24504604D+06 0.24504604D+06 0.10911136D+01  1  2  1  3  6  4        4 0.207963370570D-01 0.100000000000D+01
  </mgrwgt>
  </event>
  <event>
  5     66 0.17338086E-05 0.12825299E+03 0.75467711E-02 0.90384781E-01
        2 -1    0    0  502    0 0.00000000E+00 0.00000000E+00 0.11525367E+04 0.11525367E+04 0.32000000E+00 0.0000E+00 0.9000E+01
        3 -1    0    0  501    0 0.00000000E+00 0.00000000E+00 -.92646786E+03 0.92646800E+03 0.50000000E+00 0.0000E+00 0.9000E+01
       25  1    1    2    0    0 -.41858850E+03 -.28600153E+03 0.66788046E+02 0.52640179E+03 0.12500000E+03 0.0000E+00 0.9000E+01
        4  1    1    2  501    0 -.23948014E+02 0.12600214E+03 -.62497494E+03 0.63800166E+03 0.15500000E+01 0.0000E+00 0.9000E+01
        1  1    1    2  502    0 0.44253651E+03 0.15999939E+03 0.78425570E+03 0.91460126E+03 0.32000000E+00 0.0000E+00 0.9000E+01
#aMCatNLO 1  0  0  2  1 0.27180507D+03 0.00000000D+00  -5  6  0 0.00000000D+00 0.00000000D+00 0.00000000D+00 0.00000000D+00 0.00000000D+00
  <mgrwgt>
 0.3224143594D-02    7    2    0
 0.103333846182119D+04 0.000000000000000D+00 0.000000000000000D+00 0.103333846182119D+04
 0.103333846182119D+04 0.000000000000000D+00 0.000000000000000D+00 -.103333846182119D+04
 0.522242641311271D+03 -.418598543175098D+03 -.286000041207926D+03 0.957144108914946D+01
 0.710149508188592D+03 -.239463427283919D+02 0.125997625626114D+03 -.698472257850671D+03
 0.834284774142522D+03 0.442544885903490D+03 0.160002415581812D+03 0.688900816761522D+03
 0.000000000000000D+00 0.000000000000000D+00 0.000000000000000D+00 -.000000000000000D+00
 0.112459036188556D+04 0.000000000000000D+00 0.000000000000000D+00 0.112459036188556D+04
 0.148213751787011D+04 0.000000000000000D+00 0.000000000000000D+00 -.148213751787011D+04
 0.613943641151949D+03 -.513899143050451D+03 -.311637373879326D+03 0.957144108914946D+01
 0.719264885711910D+03 -.143842218353515D+03 0.937437840621531D+02 -.698472257850671D+03
 0.764889986219920D+03 0.308409914974550D+03 0.123918037549862D+03 0.688900816761522D+03
 0.508629366671894D+03 0.349331446429416D+03 0.939755522673107D+02 -.357547155984547D+03
0.312133466446D-02 0.000000000000D+00 0.000000000000D+00 0.129442260252D-04 0.000000000000D+00  6 2 3 25 4 1 21 0 0.17731335D+00 0.14253353D+00 0.31415420D+06 0.31415420D+06 0.31415420D+06 0.10830737D+01  1  2  2  2  6  2        3 0.186103784483D-02 0.100000000000D+01
0.575880052779D-03 0.000000000000D+00 -.119867469778D-04 0.129442260252D-04 0.000000000000D+00  6 2 3 25 4 1 21 2 0.17731335D+00 0.14253353D+00 0.31415420D+06 0.31415420D+06 0.31415420D+06 0.10830737D+01  1  2  3  2  6  2        3 0.402775374252D-03 0.100000000000D+01
-.190231814019D-02 0.000000000000D+00 0.000000000000D+00 0.129442260252D-04 0.000000000000D+00  6 2 3 25 4 1 21 2 0.17731335D+00 0.14253353D+00 0.31415420D+06 0.31415420D+06 0.31415420D+06 0.10830737D+01  1  2 15  2  6  2        3 -.133049737903D-02 0.100000000000D+01
-.120074845328D-03 0.000000000000D+00 0.000000000000D+00 0.129442260252D-04 0.000000000000D+00  6 2 3 25 4 1 21 2 0.17731335D+00 0.14253353D+00 0.31415420D+06 0.31415420D+06 0.31415420D+06 0.10830737D+01  1  2  4  2  6  2        3 -.839813612781D-04 0.100000000000D+01
-.469527008278D-02 0.000000000000D+00 -.188414018843D-02 0.129442260252D-04 0.000000000000D+00  6 2 3 25 4 1 21 2 0.17731335D+00 0.21305698D+00 0.31415420D+06 0.31415420D+06 0.31415420D+06 0.10830737D+01  1  2  5  2  6  2        3 -.859675231630D-03 0.100000000000D+01
0.517176353715D-02 0.000000000000D+00 0.174152856962D-02 0.129442260252D-04 0.000000000000D+00  6 2 3 25 4 1 21 2 0.17731335D+00 0.14253353D+00 0.31415420D+06 0.31415420D+06 0.31415420D+06 0.10830737D+01  1  2  6  2  6  2        3 0.361717511167D-02 0.100000000000D+01
-.159565029158D-03 0.000000000000D+00 -.900108298262D-04 0.129442260252D-04 0.000000000000D+00  6 2 21 25 4 1 -3 2 0.17731335D+00 0.21305698D+00 0.31415420D+06 0.31415420D+06 0.31415420D+06 0.10830737D+01  1  2  5  6  6  2        3 -.382690764635D-03 0.100000000000D+01
  </mgrwgt>
  </event>
  <event>
  5     66 0.17338086E-05 0.13042939E+02 0.75467711E-02 0.94333714E-01
        2 -1    0    0  502    0 0.00000000E+00 0.00000000E+00 0.14950087E+04 0.14950087E+04 0.32000000E+00 0.0000E+00 0.9000E+01
        3 -1    0    0  501    0 0.00000000E+00 0.00000000E+00 -.26937915E+03 0.26937961E+03 0.50000000E+00 0.0000E+00 0.9000E+01
       25  1    1    2    0    0 -.34625635E+03 -.36491240E+03 0.78428408E+03 0.94009629E+03 0.12500000E+03 0.0000E+00 0.9000E+01
        4  1    1    2  501    0 -.13551819E+01 0.12972835E+02 -.94279576E+02 0.95190188E+02 0.15500000E+01 0.0000E+00 0.9000E+01
        1  1    1    2  502    0 0.34761153E+03 0.35193957E+03 0.53562505E+03 0.72910187E+03 0.32000000E+00 0.0000E+00 0.9000E+01
#aMCatNLO 1  0  0  1  5 0.63932100D+02 0.00000000D+00  -5  6  0 0.00000000D+00 0.00000000D+00 0.00000000D+00 0.00000000D+00 0.00000000D+00
  <mgrwgt>
 0.5113184161D-02    7    2    0
 0.634605866389193D+03 0.000000000000000D+00 0.000000000000000D+00 0.634605866389193D+03
 0.634605866389193D+03 0.000000000000000D+00 0.000000000000000D+00 -.634605866389193D+03
 0.549541823560597D+03 -.346296979981781D+03 -.364950586101339D+03 0.182375127695895D+03
 0.223291321181377D+03 -.135246836555075D+01 0.129726282629597D+02 -.222910062267714D+03
 0.496378588036411D+03 0.347649448347332D+03 0.351977957838379D+03 0.405349345718195D+02
 0.000000000000000D+00 -.000000000000000D+00 -.000000000000000D+00 0.000000000000000D+00
 0.783384564418791D+03 0.000000000000000D+00 0.000000000000000D+00 0.783384564418791D+03
 0.766189487490510D+03 0.000000000000000D+00 0.000000000000000D+00 -.766189487490510D+03
 0.459652335056057D+03 -.279815398732194D+03 -.289996421620569D+03 0.182375127695895D+03
 0.229502795140179D+03 0.284757550506738D+02 0.466022369769182D+02 -.222910062267714D+03
 0.605323984680285D+03 0.420225105346120D+03 0.433802842712352D+03 0.405349345718195D+02
 0.255094937032780D+03 -.168885461664600D+03 -.190408658068701D+03 0.171950769282809D+02
0.322936981228D-03 0.000000000000D+00 0.000000000000D+00 0.283189797513D-05 0.000000000000D+00  6 2 3 25 4 1 21 0 0.23000138D+00 0.41442984D-01 0.26325148D+06 0.26325148D+06 0.26325148D+06 0.10887756D+01  1  2  2  1  6  1        2 0.209331003397D-02 0.100000000000D+01
0.235328670247D-03 0.000000000000D+00 -.124016303918D-05 0.283189797513D-05 0.000000000000D+00  6 2 3 25 4 1 21 2 0.23000138D+00 0.41442984D-01 0.26325148D+06 0.26325148D+06 0.26325148D+06 0.10887756D+01  1  2  3  1  6  1        2 0.180828721739D-02 0.100000000000D+01
-.189785864893D-03 0.000000000000D+00 0.000000000000D+00 0.283189797513D-05 0.000000000000D+00  6 2 3 25 4 1 21 2 0.23000138D+00 0.41442984D-01 0.26325148D+06 0.26325148D+06 0.26325148D+06 0.10887756D+01  1  2 15  1  6  1        2 -.145833209854D-02 0.100000000000D+01
-.210124520871D-04 0.000000000000D+00 0.000000000000D+00 0.283189797513D-05 0.000000000000D+00  6 2 3 25 4 1 21 2 0.23000138D+00 0.41442984D-01 0.26325148D+06 0.26325148D+06 0.26325148D+06 0.10887756D+01  1  2  4  1  6  1        2 -.161461620785D-03 0.100000000000D+01
-.609346644147D-03 0.000000000000D+00 -.276208261725D-03 0.283189797513D-05 0.000000000000D+00  6 2 3 25 4 1 21 2 0.31468147D+00 0.41442984D-01 0.26325148D+06 0.26325148D+06 0.26325148D+06 0.10887756D+01  1  2  5  1  6  1        2 -.234630792206D-02 0.100000000000D+01
0.675505354763D-03 0.000000000000D+00 0.263171495466D-03 0.283189797513D-05 0.000000000000D+00  6 2 3 25 4 1 21 2 0.23000138D+00 0.41442984D-01 0.26325148D+06 0.26325148D+06 0.26325148D+06 0.10887756D+01  1  2  6  1  6  1        2 0.519064547901D-02 0.100000000000D+01
-.176870191866D-04 0.000000000000D+00 -.110208747170D-04 0.283189797513D-05 0.000000000000D+00  6 21 3 25 4 1 -2 2 0.31468147D+00 0.41442984D-01 0.26325148D+06 0.26325148D+06 0.26325148D+06 0.10887756D+01  1  2  5  5  6  1        2 -.129569279470D-04 0.100000000000D+01
  </mgrwgt>
  </event>
  <event>
  5     66 0.17338086E-05 0.14124597E+03 0.75467711E-02 0.94201292E-01
        2 -1    0    0  502    0 0.00000000E+00 0.00000000E+00 0.18709494E+04 0.18709494E+04 0.32000000E+00 0.0000E+00 0.9000E+01
        3 -1    0    0  501    0 0.00000000E+00 0.00000000E+00 -.10657880E+04 0.10657881E+04 0.50000000E+00 0.0000E+00 0.9000E+01
       25  1    1    2    0    0 -.48056456E+03 0.15950436E+02 0.55524825E+03 0.74506532E+03 0.12500000E+03 0.0000E+00 0.9000E+01
        4  1    1    2  501    0 0.38183576E+03 -.11697660E+03 -.92540369E+03 0.10078971E+04 0.15500000E+01 0.0000E+00 0.9000E+01
        1  1    1    2  502    0 0.98728798E+02 0.10102616E+03 0.11753169E+04 0.11837751E+04 0.32000000E+00 0.0000E+00 0.9000E+01
#aMCatNLO 1  0  0  5  1 0.12315578D+02 0.00000000D+00  -5  6  0 0.00000000D+00 0.00000000D+00 0.00000000D+00 0.00000000D+00 0.00000000D+00
  <mgrwgt>
 0.4463536096D-02    7    2    0
 0.141210322773773D+04 0.000000000000000D+00 0.000000000000000D+00 0.141210322773773D+04
 0.141210322773773D+04 -.000000000000000D+00 -.000000000000000D+00 -.141210322773773D+04
 0.616516303359114D+03 -.480585026329636D+03 0.159660604991113D+02 0.365034888315444D+03
 0.131189463250385D+04 0.381864238267001D+03 -.116984027887892D+03 -.124962473068690D+04
 0.895795519612496D+03 0.987207880626350D+02 0.101017967388780D+03 0.884589842371454D+03
 0.000000000000000D+00 0.000000000000000D+00 0.000000000000000D+00 0.000000000000000D+00
 0.141210322773773D+04 0.000000000000000D+00 0.000000000000000D+00 0.141210322773773D+04
 0.141210322773773D+04 -.000000000000000D+00 -.000000000000000D+00 -.141210322773773D+04
 0.616558909913561D+03 -.480575668239847D+03 0.159756363465865D+02 0.365118741689529D+03
 0.131172866650405D+04 0.381884149544221D+03 -.116963653286024D+03 -.124944631523942D+04
 0.286953483909297D+03 0.294417274403096D+02 0.203113879407294D+02 0.284715531948882D+03
 0.608965395148552D+03 0.692497912553165D+02 0.806766289987078D+02 0.599612041601011D+03
0.234240684885D-03 0.000000000000D+00 0.000000000000D+00 0.935571179961D-04 0.000000000000D+00  6 2 3 25 4 1 21 0 0.28783838D+00 0.16396739D+00 0.26908044D+06 0.26908044D+06 0.26908044D+06 0.10880642D+01  1  2  2  4  6  5        1 0.370899997205D-04 0.100000000000D+01
0.340861283177D-04 0.000000000000D+00 -.899545906948D-06 0.935571179961D-04 0.000000000000D+00  6 2 3 25 4 1 21 2 0.28783838D+00 0.16396739D+00 0.26908044D+06 0.26908044D+06 0.26908044D+06 0.10880642D+01  1  2  3  4  6  5        1 0.638971126448D-05 0.100000000000D+01
-.159135672993D-03 0.000000000000D+00 0.000000000000D+00 0.935571179961D-04 0.000000000000D+00  6 2 3 25 4 1 21 2 0.28783838D+00 0.16396739D+00 0.26908044D+06 0.26908044D+06 0.26908044D+06 0.10880642D+01  1  2 15  4  6  5        1 -.298312261464D-04 0.100000000000D+01
0.287173506283D-01 0.000000000000D+00 0.000000000000D+00 0.935571179961D-04 0.000000000000D+00  6 2 3 25 4 1 21 2 0.28783838D+00 0.16396739D+00 0.26952054D+06 0.26952054D+06 0.26952054D+06 0.10880112D+01  1  2 12  4  6  5        1 0.538209726685D-02 0.100000000000D+01
-.286674011688D-01 0.000000000000D+00 0.000000000000D+00 0.935571179961D-04 0.000000000000D+00  6 2 3 25 4 1 21 2 0.28783838D+00 0.16396739D+00 0.26908044D+06 0.26908044D+06 0.26908044D+06 0.10880642D+01  1  2  4  4  6  5        1 -.537392849267D-02 0.100000000000D+01
-.291081094849D-01 0.000000000000D+00 0.000000000000D+00 0.935571179961D-04 0.000000000000D+00  6 2 3 25 4 1 21 2 0.28783838D+00 0.16396739D+00 0.26908044D+06 0.26908044D+06 0.26908044D+06 0.10880642D+01  1  2  5  4  6  5        1 -.545654271232D-02 0.100000000000D+01
0.528026070861D-01 0.000000000000D+00 -.000000000000D+00 0.935571179961D-04 0.000000000000D+00  6 2 3 25 4 1 21 2 0.28783838D+00 0.16396739D+00 0.26908044D+06 0.26908044D+06 0.26908044D+06 0.10880642D+01  1  2  6  4  6  5        1 0.989826154929D-02 0.100000000000D+01
  </mgrwgt>
  </event>
  <event>
  5     66 -.17338086E-05 0.32656939E+02 0.75467711E-02 0.82407155E-01
        2 -1    0    0  502    0 0.00000000E+00 0.00000000E+00 0.11473445E+04 0.11473445E+04 0.32000000E+00 0.0000E+00 0.9000E+01
        3 -1    0    0  501    0 0.00000000E+00 0.00000000E+00 -.40051034E+04 0.40051035E+04 0.50000000E+00 0.0000E+00 0.9000E+01
       25  1    1    2    0    0 -.12184903E+04 -.10662878E+04 -.37612830E+03 0.16669690E+04 0.12500000E+03 0.0000E+00 0.9000E+01
        4  1    1    2  501    0 -.11479400E+02 -.30572432E+02 -.16301909E+04 0.16305187E+04 0.15500000E+01 0.0000E+00 0.9000E+01
        1  1    1    2  502    0 0.12299697E+04 0.10968602E+04 -.85143976E+03 0.18549602E+04 0.32000000E+00 0.0000E+00 0.9000E+01
#aMCatNLO 1  0  0  1  5 0.42319193D+02 0.00000000D+00  -5  6  0 0.00000000D+00 0.00000000D+00 0.00000000D+00 0.00000000D+00 0.00000000D+00
  <mgrwgt>
 -.1110882288D-02    7    2    0
 0.214364956167012D+04 0.000000000000000D+00 0.000000000000000D+00 0.214364956167012D+04
 0.214364956167012D+04 0.000000000000000D+00 0.000000000000000D+00 -.214364956167012D+04
 0.175262615745478D+04 -.121846361099216D+04 -.106626320601285D+04 0.659168151525743D+03
 0.872969404416509D+03 -.114791076234421D+02 -.305729580701980D+02 -.872358358342672D+03
 0.166170356146895D+04 0.122994271861560D+04 0.109683616408305D+04 0.213190206816929D+03
 0.000000000000000D+00 0.000000000000000D+00 0.000000000000000D+00 0.000000000000000D+00
 0.270960945503999D+04 0.000000000000000D+00 0.000000000000000D+00 0.270960945503999D+04
 0.215217934444644D+04 0.000000000000000D+00 0.000000000000000D+00 -.215217934444644D+04
 0.179292349128260D+04 -.127225433091130D+04 -.107042791026980D+04 0.659168151525743D+03
 0.873793996498569D+03 -.379798395754228D+02 -.326247564350221D+02 -.872358358342672D+03
 0.162256753628395D+04 0.118011594300673D+04 0.109297836510210D+04 0.213190206816929D+03
 0.572503775421309D+03 0.130118227479994D+03 0.100743016027264D+02 0.557430110593547D+03
0.274326798283D-01 0.000000000000D+00 0.000000000000D+00 0.243653845550D-05 0.000000000000D+00  6 2 3 25 4 1 21 0 0.17651454D+00 0.61616977D+00 0.27300499D+07 0.27300499D+07 0.27300499D+07 0.10200074D+01  1  2  2  1  6  1        2 0.357448762339D-04 0.100000000000D+01
0.247848204413D-01 0.000000000000D+00 -.105348713731D-03 0.243653845550D-05 0.000000000000D+00  6 2 3 25 4 1 21 2 0.17651454D+00 0.61616977D+00 0.27300499D+07 0.27300499D+07 0.27300499D+07 0.10200074D+01  1  2  3  1  6  1        2 0.335998982489D-04 0.100000000000D+01
-.177202365238D-01 0.000000000000D+00 0.000000000000D+00 0.243653845550D-05 0.000000000000D+00  6 2 3 25 4 1 21 2 0.17651454D+00 0.61616977D+00 0.27300499D+07 0.27300499D+07 0.27300499D+07 0.10200074D+01  1  2 15  1  6  1        2 -.240226934690D-04 0.100000000000D+01
-.116721722367D+01 0.000000000000D+00 0.000000000000D+00 0.243653845550D-05 0.000000000000D+00  6 2 3 25 4 1 21 2 0.17651454D+00 0.61616977D+00 0.27300499D+07 0.27300499D+07 0.27300499D+07 0.10200074D+01  1  2  4  1  6  1        2 -.158235481441D-02 0.100000000000D+01
-.100514770098D+01 0.000000000000D+00 -.314949221382D-01 0.243653845550D-05 0.000000000000D+00  6 2 3 25 4 1 21 2 0.22343048D+00 0.61616977D+00 0.27300499D+07 0.27300499D+07 0.27300499D+07 0.10200074D+01  1  2  5  1  6  1        2 -.900739125027D-03 0.100000000000D+01
0.985913679344D+00 0.000000000000D+00 0.306399038118D-01 0.243653845550D-05 0.000000000000D+00  6 2 3 25 4 1 21 2 0.17651454D+00 0.61616977D+00 0.27300499D+07 0.27300499D+07 0.27300499D+07 0.10200074D+01  1  2  6  1  6  1        2 0.133656805731D-02 0.100000000000D+01
-.320852212519D-01 0.000000000000D+00 -.102035233518D-02 0.243653845550D-05 0.000000000000D+00  6 21 3 25 4 1 -2 2 0.22343048D+00 0.61616977D+00 0.27300499D+07 0.27300499D+07 0.27300499D+07 0.10200074D+01  1  2  5  5  6  1        2 -.967848711241D-05 0.100000000000D+01
  </mgrwgt>
  </event>
  <event>
  6     66 0.17338086E-05 0.63079809E+02 0.75467711E-02 0.93202981E-01
        2 -1    0    0  502    0 0.00000000E+00 0.00000000E+00 0.43127416E+04 0.43127416E+04 0.32000000E+00 0.0000E+00 0.9000E+01
       21 -1    0    0  501  503 0.00000000E+00 0.00000000E+00 -.71876669E+03 0.71876708E+03 0.75000000E+00 0.0000E+00 0.9000E+01
       25  1    1    2    0    0 0.10371785E+03 -.51486767E+03 0.68605167E+02 0.54422218E+03 0.12500000E+03 0.0000E+00 0.9000E+01
        4  1    1    2  501    0 -.33113346E+01 0.49244535E+03 -.16292294E+03 0.51870963E+03 0.15500000E+01 0.0000E+00 0.9000E+01
        1  1    1    2  502    0 -.24687945E+02 0.10947338E+02 0.38179204E+04 0.38180159E+04 0.32000000E+00 0.0000E+00 0.9000E+01
       -3  1    1    2    0  503 -.75718569E+02 0.11474981E+02 -.12962777E+03 0.15056091E+03 0.50000000E+00 0.0000E+00 0.9000E+01
#aMCatNLO 2  0  0  2  2 0.76583137D+02 0.00000000D+00  -5  6  0 0.00000000D+00 0.00000000D+00 0.00000000D+00 0.00000000D+00 0.00000000D+00
  <mgrwgt>
 0.3307558460D-02    1    2    0
 0.157738465090732D+04 0.000000000000000D+00 0.000000000000000D+00 0.157738465090732D+04
 0.157738465090732D+04 0.000000000000000D+00 0.000000000000000D+00 -.157738465090732D+04
 0.756657141413301D+03 0.855078584856798D+02 -.512080644199059D+03 -.536066086994522D+03
 0.996686397604499D+03 -.272010137954200D+02 0.496038335379411D+03 -.864054309550250D+03
 0.140142576279683D+04 -.583068446902597D+02 0.160423088196477D+02 0.140012039654477D+04
 0.000000000000000D+00 -.000000000000000D+00 0.000000000000000D+00 -.000000000000000D+00
 0.158168778027321D+04 0.000000000000000D+00 0.000000000000000D+00 0.158168778027321D+04
 0.195984024644063D+04 0.000000000000000D+00 0.000000000000000D+00 -.195984024644063D+04
 0.760794968212333D+03 0.103715589191485D+03 -.514839985422898D+03 -.536066086994522D+03
 0.994522902578312D+03 -.330872586972840D+01 0.492417512110965D+03 -.864054309550250D+03
 0.140038083544596D+04 -.246882944197413D+02 0.109474920549444D+02 0.140012039654477D+04
 0.385829320477232D+03 -.757185689020155D+02 0.114749812569886D+02 -.378152466167424D+03
0.206981771301D-01 0.000000000000D+00 0.000000000000D+00 0.320949022031D-03 0.215009474185D-07  6 2 21 25 4 1 -3 2 0.66349867D+00 0.11057951D+00 0.32255143D+06 0.32255143D+06 0.32255143D+06 0.10822307D+01  1  2  1  6  6  2        3 0.330755846016D-02 0.100000000000D+01
  </mgrwgt>
  </event>
  <event>
  6     66 0.17338086E-05 0.76880056E+02 0.75467711E-02 0.94054112E-01
        2 -1    0    0  502    0 0.00000000E+00 0.00000000E+00 0.20452986E+04 0.20452987E+04 0.32000000E+00 0.0000E+00 0.9000E+01
        3 -1    0    0  501    0 0.00000000E+00 0.00000000E+00 -.12188987E+04 0.12188988E+04 0.50000000E+00 0.0000E+00 0.9000E+01
       25  1    1    2    0    0 -.46894968E+02 -.50475023E+03 0.68255758E+02 0.52655084E+03 0.12500000E+03 0.0000E+00 0.9000E+01
        4  1    1    2  503    0 -.24355500E+02 0.14557832E+03 -.15776756E+03 0.21605380E+03 0.15500000E+01 0.0000E+00 0.9000E+01
        1  1    1    2  502    0 0.41848139E+02 0.29103699E+02 0.16841560E+04 0.16849272E+04 0.32000000E+00 0.0000E+00 0.9000E+01
       21  1    1    2  501  503 0.29402329E+02 0.33006822E+03 -.76824421E+03 0.83666556E+03 0.75000000E+00 0.0000E+00 0.9000E+01
#aMCatNLO 2  0  0  4  1 0.70468682D+02 0.00000000D+00  -5  6  0 0.00000000D+00 0.00000000D+00 0.00000000D+00 0.00000000D+00 0.00000000D+00
  <mgrwgt>
 0.9490149308D-02    1    2    0
 0.157892747488141D+04 0.000000000000000D+00 0.000000000000000D+00 0.157892747488141D+04
 0.157892747488141D+04 -.000000000000000D+00 -.000000000000000D+00 -.157892747488141D+04
 0.526757602439014D+03 -.469011017135495D+02 -.505287874610506D+03 -.658256952637096D+02
 0.132662578052020D+04 0.506684347388927D+01 0.477554962539686D+03 -.123767990465700D+04
 0.130447156680360D+04 0.418342582396602D+02 0.277329120708206D+02 0.130350559992071D+04
 0.000000000000000D+00 0.000000000000000D+00 0.000000000000000D+00 -.000000000000000D+00
 0.157892747488141D+04 0.000000000000000D+00 0.000000000000000D+00 0.157892747488141D+04
 0.157892747488141D+04 -.000000000000000D+00 -.000000000000000D+00 -.157892747488141D+04
 0.526408422074815D+03 -.468952441748335D+02 -.504735795846576D+03 -.672565186149543D+02
 0.263646721205588D+03 -.242779648037241D+02 0.145065487422310D+03 -.218806257649030D+03
 0.130096476731701D+04 0.418487492542239D+02 0.290987043935503D+02 0.129996587393234D+04
 0.106683503916540D+04 0.293244597243337D+02 0.330571604030715D+03 -.101390309766835D+04
0.986035247507D-01 0.000000000000D+00 0.000000000000D+00 0.111528209558D-02 0.239126945850D-06  6 2 3 25 4 1 21 2 0.31466134D+00 0.18752288D+00 0.27668550D+06 0.27668550D+06 0.27668550D+06 0.10871609D+01  1  2  1  3  6  4        4 0.949014930769D-02 0.100000000000D+01
  </mgrwgt>
  </event>
  <event>
  6     66 0.17338086E-05 0.57030550E+02 0.75467711E-02 0.94796757E-01
        2 -1    0    0  502    0 0.00000000E+00 0.00000000E+00 0.14495096E+04 0.14495096E+04 0.32000000E+00 0.0000E+00 0.9000E+01
        3 -1    0    0  501    0 0.00000000E+00 0.00000000E+00 -.64430329E+03 0.64430349E+03 0.50000000E+00 0.0000E+00 0.9000E+01
       25  1    1    2    0    0 0.61537412E+01 -.48395541E+03 0.64401287E+03 0.81524738E+03 0.12500000E+03 0.0000E+00 0.9000E+01
        4  1    1    2  503    0 -.26713131E+01 0.40849941E+03 -.44149227E+03 0.60149541E+03 0.15500000E+01 0.0000E+00 0.9000E+01
        1  1    1    2  502    0 0.19914050E+01 0.62592360E+02 0.63696819E+03 0.64003933E+03 0.32000000E+00 0.0000E+00 0.9000E+01
       21  1    1    2  501  503 -.54738331E+01 0.12863639E+02 -.34282538E+02 0.37030946E+02 0.75000000E+00 0.0000E+00 0.9000E+01
#aMCatNLO 2  0  0  4  2 0.14533236D+02 0.00000000D+00  -5  6  0 0.00000000D+00 0.00000000D+00 0.00000000D+00 0.00000000D+00 0.00000000D+00
  <mgrwgt>
 0.1140360854D-01    5    2    0
 0.966397443744469D+03 0.000000000000000D+00 0.000000000000000D+00 0.966397443744469D+03
 0.966397443744469D+03 -.000000000000000D+00 -.000000000000000D+00 -.966397443744469D+03
 0.615550029019155D+03 0.616119352301471D+01 -.484304464238553D+03 0.358731186041112D+03
 0.888984528337830D+03 -.815635621012636D+01 0.421949285450522D+03 -.782423009621523D+03
 0.428260330131953D+03 0.199516268711162D+01 0.623551787880313D+02 0.423691823580411D+03
 0.000000000000000D+00 0.000000000000000D+00 0.000000000000000D+00 -.000000000000000D+00
 0.966397443744469D+03 0.000000000000000D+00 0.000000000000000D+00 0.966397443744469D+03
 0.966397443744469D+03 -.000000000000000D+00 -.000000000000000D+00 -.966397443744469D+03
 0.614956071297886D+03 0.615504519040768D+01 -.483986395178863D+03 0.358141388737191D+03
 0.835562193835395D+03 -.266495801290789D+01 0.408565319894038D+03 -.728856266451548D+03
 0.427886638224365D+03 0.199088487303121D+01 0.625764811132381D+02 0.423281461394018D+03
 0.543899841312927D+02 -.548097205053103D+01 0.128445941715871D+02 -.525665836796610D+02
-.101202328905D-01 0.000000000000D+00 0.000000000000D+00 0.609599992661D-04 0.000000000000D+00  6 2 3 25 4 1 21 2 0.22300149D+00 0.99123601D-01 0.24258235D+06 0.24258235D+06 0.24258235D+06 0.10914445D+01  1  2 13  3  6  4        4 -.127109929563D-01 0.100000000000D+01
-.121498146080D-01 0.000000000000D+00 0.000000000000D+00 0.609599992661D-04 0.000000000000D+00  6 2 3 25 4 1 21 2 0.22300149D+00 0.99123601D-01 0.24237353D+06 0.24237353D+06 0.24237353D+06 0.10914728D+01  1  2  8  3  6  4        4 -.152615778779D-01 0.100000000000D+01
-.467355954182D-02 0.000000000000D+00 0.000000000000D+00 0.609599992661D-04 0.000000000000D+00  6 2 3 25 4 1 21 2 0.22300149D+00 0.99123601D-01 0.24237353D+06 0.24237353D+06 0.24237353D+06 0.10914728D+01  1  2  9  3  6  4        4 -.587053343741D-02 0.100000000000D+01
0.496822771926D-02 0.000000000000D+00 0.000000000000D+00 0.609599992661D-04 0.000000000000D+00  6 2 3 25 4 1 21 2 0.22300149D+00 0.99123601D-01 0.24237353D+06 0.24237353D+06 0.24237353D+06 0.10914728D+01  1  2 10  3  6  4        4 0.624067088256D-02 0.100000000000D+01
0.310558136424D-01 0.000000000000D+00 0.000000000000D+00 0.609599992661D-04 0.561970853179D-05  6 2 3 25 4 1 21 2 0.22300149D+00 0.99123601D-01 0.24258235D+06 0.24258235D+06 0.24258235D+06 0.10914445D+01  1  2  1  3  6  4        4 0.390060419291D-01 0.100000000000D+01
  </mgrwgt>
  </event>
  <event>
  5     66 0.17338086E-05 0.80181186E+02 0.75467711E-02 0.90697544E-01
        2 -1    0    0  502    0 0.00000000E+00 0.00000000E+00 0.57598931E+03 0.57598940E+03 0.32000000E+00 0.0000E+00 0.9000E+01
        3 -1    0    0  501    0 -.00000000E+00 -.00000000E+00 -.32344881E+04 0.32344881E+04 0.50000000E+00 0.0000E+00 0.9000E+01
       25  1    1    2    0    0 0.21980985E+03 0.53438075E+03 -.32949815E+03 0.67681104E+03 0.12500000E+03 0.0000E+00 0.9000E+01
        4  1    1    2  501    0 -.16640299E+03 -.47456767E+03 -.27039091E+04 0.27502784E+04 0.15500000E+01 0.0000E+00 0.9000E+01
        1  1    1    2  502    0 -.53406861E+02 -.59813084E+02 0.37490851E+03 0.38338804E+03 0.32000000E+00 0.0000E+00 0.9000E+01
#aMCatNLO 1  0  0  5  1 0.11294204D+02 0.00000000D+00  -5  6  0 0.00000000D+00 0.00000000D+00 0.00000000D+00 0.00000000D+00 0.00000000D+00
  <mgrwgt>
 0.4997569987D-03    6    2    0
 0.136492885997935D+04 0.000000000000000D+00 0.000000000000000D+00 0.136492885997935D+04
 0.136492885997935D+04 -.000000000000000D+00 -.000000000000000D+00 -.136492885997935D+04
 0.623890529292973D+03 0.219818378480390D+03 0.534409835070388D+03 0.199249595241142D+03
 0.120576718757761D+04 -.166415152405515D+03 -.474600821479129D+03 -.109587160194067D+04
 0.900200003088121D+03 -.534032260748745D+02 -.598090135912587D+02 0.896622006699528D+03
 0.000000000000000D+00 0.000000000000000D+00 0.000000000000000D+00 0.000000000000000D+00
 0.136492885997935D+04 0.000000000000000D+00 0.000000000000000D+00 0.136492885997935D+04
 0.136492885997935D+04 -.000000000000000D+00 -.000000000000000D+00 -.136492885997935D+04
 0.627552695966893D+03 0.218953617397155D+03 0.533441344752820D+03 0.213768639777490D+03
 0.118162742773251D+04 -.168064868438950D+03 -.476448423130143D+03 -.106817343070455D+04
 0.612470177787063D+03 -.134583632273136D+03 -.159134427663773D+03 0.575919437538628D+03
 0.308207418472245D+03 0.836948833149311D+02 0.102141506041096D+03 0.278485353388436D+03
0.460695826154D-01 0.000000000000D+00 0.000000000000D+00 0.153579918791D-03 0.000000000000D+00  6 2 3 25 4 1 21 0 0.88613749D-01 0.49761356D+00 0.34476319D+06 0.34476319D+06 0.34476319D+06 0.10801113D+01  1  2  2  4  6  5        1 0.323795088602D-03 0.100000000000D+01
0.147147989302D-01 0.000000000000D+00 -.176919327643D-03 0.153579918791D-03 0.000000000000D+00  6 2 3 25 4 1 21 2 0.88613749D-01 0.49761356D+00 0.34476319D+06 0.34476319D+06 0.34476319D+06 0.10801113D+01  1  2  3  4  6  5        1 0.120655562685D-03 0.100000000000D+01
-.307722775958D-01 0.000000000000D+00 0.000000000000D+00 0.153579918791D-03 0.000000000000D+00  6 2 3 25 4 1 21 2 0.88613749D-01 0.49761356D+00 0.34476319D+06 0.34476319D+06 0.34476319D+06 0.10801113D+01  1  2 15  4  6  5        1 -.252320571012D-03 0.100000000000D+01
-.187587692569D-02 0.000000000000D+00 0.000000000000D+00 0.153579918791D-03 0.000000000000D+00  6 2 3 25 4 1 21 2 0.88613749D-01 0.49761356D+00 0.34476319D+06 0.34476319D+06 0.34476319D+06 0.10801113D+01  1  2  4  4  6  5        1 -.153814528536D-04 0.100000000000D+01
-.994296487652D-01 0.000000000000D+00 0.000000000000D+00 0.153579918791D-03 0.000000000000D+00  6 2 3 25 4 1 21 2 0.88613749D-01 0.49761356D+00 0.34476319D+06 0.34476319D+06 0.34476319D+06 0.10801113D+01  1  2  5  4  6  5        1 -.815284005999D-03 0.100000000000D+01
0.138822803382D+00 0.000000000000D+00 -.000000000000D+00 0.153579918791D-03 0.000000000000D+00  6 2 3 25 4 1 21 2 0.88613749D-01 0.49761356D+00 0.34476319D+06 0.34476319D+06 0.34476319D+06 0.10801113D+01  1  2  6  4  6  5        1 0.113829237728D-02 0.100000000000D+01
  </mgrwgt>
  </event>
  <event>
  5     66 0.17338086E-05 0.12310653E+03 0.75467711E-02 0.84017598E-01
        2 -1    0    0  502    0 0.00000000E+00 0.00000000E+00 0.12554958E+04 0.12554959E+04 0.32000000E+00 0.0000E+00 0.9000E+01
        3 -1    0    0  501    0 0.00000000E+00 0.00000000E+00 -.28472333E+04 0.28472334E+04 0.50000000E+00 0.0000E+00 0.9000E+01
       25  1    1    2    0    0 0.55605708E+03 0.34039121E+02 -.47605469E+03 0.74337824E+03 0.12500000E+03 0.0000E+00 0.9000E+01
        4  1    1    2  501    0 -.12119130E+03 0.21662505E+02 -.21928899E+04 0.21963436E+04 0.15500000E+01 0.0000E+00 0.9000E+01
        1  1    1    2  502    0 -.43486578E+03 -.55701626E+02 0.10772071E+04 0.11630074E+04 0.32000000E+00 0.0000E+00 0.9000E+01
#aMCatNLO 1  0  0  2  2 0.10509125D+03 0.00000000D+00  -5  6  0 0.00000000D+00 0.00000000D+00 0.00000000D+00 0.00000000D+00 0.00000000D+00
  <mgrwgt>
 0.3521115547D-02    7    2    0
 0.189068499360499D+04 0.000000000000000D+00 0.000000000000000D+00 0.189068499360499D+04
 0.189068499360499D+04 0.000000000000000D+00 0.000000000000000D+00 -.189068499360499D+04
 0.606178188457443D+03 0.556056028696777D+03 0.340408113325150D+02 -.203641627069075D+03
 0.145988718312540D+04 -.121185819027810D+03 0.216613817719019D+02 -.145468737853193D+04
 0.171530461562714D+04 -.434870209668967D+03 -.557021931044168D+02 0.165832900560100D+04
 0.000000000000000D+00 0.000000000000000D+00 0.000000000000000D+00 -.000000000000000D+00
 0.248123399700629D+04 0.000000000000000D+00 0.000000000000000D+00 0.248123399700629D+04
 0.259129934551466D+04 0.000000000000000D+00 0.000000000000000D+00 -.259129934551466D+04
 0.609889620034496D+03 0.542824158391161D+03 -.142170212834510D+03 -.203641627069075D+03
 0.151914939465311D+04 -.153600315454400D+03 -.410007874445287D+03 -.145468737853193D+04
 0.181546330871448D+04 -.473288020688943D+03 -.567318591219476D+03 0.165832900560100D+04
 0.112803101911886D+04 0.840641777521824D+02 0.111949667849927D+04 -.110065348508371D+03
0.165539163017D+01 0.000000000000D+00 0.000000000000D+00 0.519791119024D-03 0.000000000000D+00  6 2 3 25 4 1 21 0 0.19315321D+00 0.43803590D+00 0.32062664D+06 0.32062664D+06 0.32062664D+06 0.10824218D+01  1  2  2  2  6  2        3 0.540829967540D-02 0.100000000000D+01
0.397835230293D+00 0.000000000000D+00 -.635713973448D-02 0.519791119024D-03 0.000000000000D+00  6 2 3 25 4 1 21 2 0.19315321D+00 0.43803590D+00 0.32062664D+06 0.32062664D+06 0.32062664D+06 0.10824218D+01  1  2  3  2  6  2        3 0.152284697283D-02 0.100000000000D+01
-.111244626716D+01 0.000000000000D+00 0.000000000000D+00 0.519791119024D-03 0.000000000000D+00  6 2 3 25 4 1 21 2 0.19315321D+00 0.43803590D+00 0.32062664D+06 0.32062664D+06 0.32062664D+06 0.10824218D+01  1  2 15  2  6  2        3 -.425825895092D-02 0.100000000000D+01
-.482602753849D-02 0.000000000000D+00 0.000000000000D+00 0.519791119024D-03 0.000000000000D+00  6 2 3 25 4 1 21 2 0.19315321D+00 0.43803590D+00 0.32062664D+06 0.32062664D+06 0.32062664D+06 0.10824218D+01  1  2  4  2  6  2        3 -.184732292873D-04 0.100000000000D+01
0.116116228643D+00 0.000000000000D+00 -.679282425074D+00 0.519791119024D-03 0.000000000000D+00  6 2 3 25 4 1 21 2 0.19315321D+00 0.64096119D+00 0.32062664D+06 0.32062664D+06 0.32062664D+06 0.10824218D+01  1  2  5  2  6  2        3 0.156008435051D-03 0.100000000000D+01
0.175970909597D+00 0.000000000000D+00 0.632871875861D+00 0.519791119024D-03 0.000000000000D+00  6 2 3 25 4 1 21 2 0.19315321D+00 0.43803590D+00 0.32062664D+06 0.32062664D+06 0.32062664D+06 0.10824218D+01  1  2  6  2  6  2        3 0.673587321033D-03 0.100000000000D+01
0.269879255881D-01 0.000000000000D+00 -.311843617204D-01 0.519791119024D-03 0.000000000000D+00  6 2 21 25 4 1 -3 2 0.19315321D+00 0.64096119D+00 0.32062664D+06 0.32062664D+06 0.32062664D+06 0.10824218D+01  1  2  5  6  6  2        3 0.371053233603D-04 0.100000000000D+01
  </mgrwgt>
  </event>
  <event>
  5     66 0.17338086E-05 0.30161838E+02 0.75467711E-02 0.91808210E-01
        2 -1    0    0  502    0 0.00000000E+00 0.00000000E+00 0.11589185E+04 0.11589186E+04 0.32000000E+00 0.0000E+00 0.9000E+01
        3 -1    0    0  501    0 -.00000000E+00 -.00000000E+00 -.17191358E+04 0.17191359E+04 0.50000000E+00 0.0000E+00 0.9000E+01
       25  1    1    2    0    0 -.59349251E+03 -.20054834E+03 -.57628490E+03 0.86033847E+03 0.12500000E+03 0.0000E+00 0.9000E+01
        4  1    1    2  501    0 0.29290111E+02 -.72182526E+01 -.91168053E+03 0.91218080E+03 0.15500000E+01 0.0000E+00 0.9000E+01
        1  1    1    2  502    0 0.56420240E+03 0.20776659E+03 0.92774815E+03 0.11055352E+04 0.32000000E+00 0.0000E+00 0.9000E+01
#aMCatNLO 1  0  0  4  2 0.40016179D+02 0.00000000D+00  -5  6  0 0.00000000D+00 0.00000000D+00 0.00000000D+00 0.00000000D+00 0.00000000D+00
  <mgrwgt>
 0.7442586939D-03    6    2    0
 0.141150221423196D+04 0.000000000000000D+00 0.000000000000000D+00 0.141150221423196D+04
 0.141150221423196D+04 -.000000000000000D+00 -.000000000000000D+00 -.141150221423196D+04
 0.762876567742640D+03 -.593506508532788D+03 -.200557405775952D+03 -.416992096961597D+03
 0.748883058550653D+03 0.292859655549923D+02 -.721586547347823D+01 -.748275416468536D+03
 0.131124480217063D+04 0.564220542977794D+03 0.207773271249431D+03 0.116526751343013D+04
 0.000000000000000D+00 0.000000000000000D+00 0.000000000000000D+00 0.000000000000000D+00
 0.141150221423196D+04 0.000000000000000D+00 0.000000000000000D+00 0.141150221423196D+04
 0.141150221423196D+04 -.000000000000000D+00 -.000000000000000D+00 -.141150221423196D+04
 0.768013151981481D+03 -.593122393147535D+03 -.200652049230377D+03 -.426806494213855D+03
 0.717927933460186D+03 -.114725344804276D+02 -.732270566536092D+00 -.717835888190905D+03
 0.129666875599898D+04 0.564874894305782D+03 0.207612043471358D+03 0.114854841255065D+04
 0.403945870232734D+02 0.397200333221783D+02 -.622772367444460D+01 -.390603014589122D+01
0.115982951931D-01 0.000000000000D+00 0.000000000000D+00 0.313759446281D-03 0.000000000000D+00  6 2 3 25 4 1 21 0 0.17829517D+00 0.26448244D+00 0.40338270D+06 0.40338270D+06 0.40338270D+06 0.10751641D+01  1  2  2  3  6  4        4 0.639116923233D-03 0.100000000000D+01
0.722879349520D-02 0.000000000000D+00 -.445405074426D-04 0.313759446281D-03 0.000000000000D+00  6 2 3 25 4 1 21 2 0.17829517D+00 0.26448244D+00 0.40338270D+06 0.40338270D+06 0.40338270D+06 0.10751641D+01  1  2  3  3  6  4        4 0.460470131751D-03 0.100000000000D+01
-.860228366913D-02 0.000000000000D+00 0.000000000000D+00 0.313759446281D-03 0.000000000000D+00  6 2 3 25 4 1 21 2 0.17829517D+00 0.26448244D+00 0.40338270D+06 0.40338270D+06 0.40338270D+06 0.10751641D+01  1  2 15  3  6  4        4 -.547960693180D-03 0.100000000000D+01
-.612641397594D-03 0.000000000000D+00 0.000000000000D+00 0.313759446281D-03 0.000000000000D+00  6 2 3 25 4 1 21 2 0.17829517D+00 0.26448244D+00 0.40338270D+06 0.40338270D+06 0.40338270D+06 0.10751641D+01  1  2  4  3  6  4        4 -.390249168486D-04 0.100000000000D+01
-.656539533489D-01 0.000000000000D+00 0.000000000000D+00 0.313759446281D-03 0.000000000000D+00  6 2 3 25 4 1 21 2 0.17829517D+00 0.26448244D+00 0.40338270D+06 0.40338270D+06 0.40338270D+06 0.10751641D+01  1  2  5  3  6  4        4 -.418212037301D-02 0.100000000000D+01
0.692906765562D-01 0.000000000000D+00 -.000000000000D+00 0.313759446281D-03 0.000000000000D+00  6 2 3 25 4 1 21 2 0.17829517D+00 0.26448244D+00 0.40338270D+06 0.40338270D+06 0.40338270D+06 0.10751641D+01  1  2  6  3  6  4        4 0.441377762197D-02 0.100000000000D+01
  </mgrwgt>
  </event>
  <event>
  5     66 -.17338086E-05 0.35379112E+02 0.75467711E-02 0.93860999E-01
        2 -1    0    0  502    0 0.00000000E+00 0.00000000E+00 0.22495817E+04 0.22495817E+04 0.32000000E+00 0.0000E+00 0.9000E+01
        3 -1    0    0  501    0 0.00000000E+00 0.00000000E+00 -.22277240E+03 0.22277296E+03 0.50000000E+00 0.0000E+00 0.9000E+01
       25  1    1    2    0    0 0.43589810E+03 -.29139447E+03 0.79604891E+03 0.96137233E+03 0.12500000E+03 0.0000E+00 0.9000E+01
        4  1    1    2  501    0 -.12654060E+02 0.33044311E+02 -.91867208E+02 0.98458306E+02 0.15500000E+01 0.0000E+00 0.9000E+01
        1  1    1    2  502    0 -.42324404E+03 0.25835016E+03 0.13226276E+04 0.14125241E+04 0.32000000E+00 0.0000E+00 0.9000E+01
#aMCatNLO 1  0  0  4  2 0.40016179D+02 0.00000000D+00  -5  6  0 0.00000000D+00 0.00000000D+00 0.00000000D+00 0.00000000D+00 0.00000000D+00
  <mgrwgt>
 -.1362775671D-02    1    2    0
 0.707916266719232D+03 0.000000000000000D+00 0.000000000000000D+00 0.707916266719232D+03
 0.707916266719232D+03 -.000000000000000D+00 -.000000000000000D+00 -.707916266719232D+03
 0.539236870029940D+03 0.435937355041195D+03 -.291413149025441D+03 0.137259263603459D+02
 0.303348279174761D+03 -.126537382393520D+02 0.330388324422623D+02 -.301278105639475D+03
 0.573247384233762D+03 -.423283616801843D+03 0.258374316583179D+03 0.287552179279129D+03
 0.000000000000000D+00 0.000000000000000D+00 0.000000000000000D+00 0.000000000000000D+00
 0.707916266719232D+03 0.000000000000000D+00 0.000000000000000D+00 0.707916266719232D+03
 0.707916266719232D+03 -.000000000000000D+00 -.000000000000000D+00 -.707916266719232D+03
 0.535601476526528D+03 0.433765228119497D+03 -.285741739039566D+03 -.379911450535873D+02
 0.885310129676349D+02 -.345112757405335D+02 0.728648740835759D+02 0.365707838119586D+02
 0.552655630139222D+03 -.425558939650694D+03 0.264315170497910D+03 0.233378073204443D+03
 0.239044413805079D+03 0.263049872717306D+02 -.514383055419200D+02 -.231957711962814D+03
-.320370978198D-03 0.000000000000D+00 0.000000000000D+00 0.832415059757D-05 0.000000000000D+00  6 2 3 25 4 1 21 2 0.34608954D+00 0.34272722D-01 0.28641273D+06 0.28641273D+06 0.28641273D+06 0.10860442D+01  1  2 14  3  6  4        4 -.136277567100D-02 0.100000000000D+01
  </mgrwgt>
  </event>
  <event>
  5     66 0.17338086E-05 0.92084707E+02 0.75467711E-02 0.94982758E-01
        2 -1    0    0  502    0 0.00000000E+00 0.00000000E+00 0.46214218E+03 0.46214229E+03 0.32000000E+00 0.0000E+00 0.9000E+01
        3 -1    0    0  501    0 0.00000000E+00 0.00000000E+00 -.66822464E+03 0.66822483E+03 0.50000000E+00 0.0000E+00 0.9000E+01
       25  1    1    2    0    0 0.17008071E+03 0.43744147E+03 -.12820462E+03 0.50233844E+03 0.12500000E+03 0.0000E+00 0.9000E+01
        4  1    1    2  501    0 0.12264080E+02 -.91302570E+02 -.19832033E+03 0.21867767E+03 0.15500000E+01 0.0000E+00 0.9000E+01
        1  1    1    2  502    0 -.18234479E+03 -.34613890E+03 0.12044248E+03 0.40935101E+03 0.32000000E+00 0.0000E+00 0.9000E+01
#aMCatNLO 1  0  0  2  2 0.17316238D+03 0.00000000D+00  -5  6  0 0.00000000D+00 0.00000000D+00 0.00000000D+00 0.00000000D+00 0.00000000D+00
  <mgrwgt>
 0.1541000194D-03    1    2    0
 0.555711219923593D+03 0.000000000000000D+00 0.000000000000000D+00 0.555711219923593D+03
 0.555711219923593D+03 0.000000000000000D+00 0.000000000000000D+00 -.555711219923593D+03
 0.487171339283338D+03 0.170113850361009D+03 0.437463605770577D+03 -.373869677919817D+02
 0.185513703485890D+03 0.122626208857404D+02 -.912645679598091D+02 -.161045772826152D+03
 0.438737397077958D+03 -.182376471246750D+03 -.346199037810768D+03 0.198432740618134D+03
 0.000000000000000D+00 0.000000000000000D+00 0.000000000000000D+00 -.000000000000000D+00
 0.558383123603553D+03 0.000000000000000D+00 0.000000000000000D+00 0.558383123603553D+03
 0.573717281426351D+03 0.000000000000000D+00 0.000000000000000D+00 -.573717281426351D+03
 0.482561079374120D+03 0.165025385379334D+03 0.434291413853002D+03 -.373869677919817D+02
 0.185996307014705D+03 0.103132009814423D+02 -.924798527434611D+02 -.161045772826152D+03
 0.442950046735949D+03 -.187002938915884D+03 -.349083216713404D+03 0.198432740618134D+03
 0.205929719051310D+02 0.116643525551068D+02 0.727165560386402D+01 -.153341578227981D+02
0.284354256770D-04 0.000000000000D+00 0.000000000000D+00 0.307424033484D-06 0.000000000000D+00  6 2 3 25 4 1 21 2 0.71098820D-01 0.10280381D+00 0.23479761D+06 0.23479761D+06 0.23479761D+06 0.10925148D+01  1  2 14  2  6  2        3 0.154100019385D-03 0.100000000000D+01
  </mgrwgt>
  </event>
  <event>
  6     66 0.17338086E-05 0.84981154E+02 0.75467711E-02 0.94679849E-01
        2 -1    0    0  502    0 0.00000000E+00 0.00000000E+00 0.11832191E+04 0.11832191E+04 0.32000000E+00 0.0000E+00 0.9000E+01
       21 -1    0    0  501  503 0.00000000E+00 0.00000000E+00 -.62862475E+03 0.62862520E+03 0.75000000E+00 0.0000E+00 0.9000E+01
       25  1    1    2    0    0 -.99655896E+02 -.47746118E+03 0.80082563E+03 0.94596362E+03 0.12500000E+03 0.0000E+00 0.9000E+01
        4  1    1    2  501    0 0.57034072E+02 0.37220899E+03 -.31771343E+03 0.49268311E+03 0.15500000E+01 0.0000E+00 0.9000E+01
        1  1    1    2  502    0 0.28739805E+02 0.90720433E+02 0.21140556E+03 0.23183741E+03 0.32000000E+00 0.0000E+00 0.9000E+01
       -3  1    1    2    0  503 0.13882020E+02 0.14531759E+02 -.13992343E+03 0.14136018E+03 0.50000000E+00 0.0000E+00 0.9000E+01
#aMCatNLO 2  0  0  2  4 0.20096828D+02 0.00000000D+00  -5  6  0 0.00000000D+00 0.00000000D+00 0.00000000D+00 0.00000000D+00 0.00000000D+00
  <mgrwgt>
 0.4525902531D-04    2    2    0
 0.759565411957009D+03 0.000000000000000D+00 0.000000000000000D+00 0.759565411957009D+03
 0.759565411957009D+03 0.000000000000000D+00 0.000000000000000D+00 -.759565411957009D+03
 0.668737969921192D+03 -.934957042615095D+02 -.470996409834945D+03 0.448337381467968D+03
 0.691202692004830D+03 0.633470584386915D+02 0.378886809122767D+03 -.574624309870942D+03
 0.159190161987996D+03 0.301486458228180D+02 0.921096007121773D+02 0.126286928402974D+03
 0.000000000000000D+00 0.000000000000000D+00 0.000000000000000D+00 -.000000000000000D+00
 0.760093068436849D+03 0.000000000000000D+00 0.000000000000000D+00 0.760093068436849D+03
 0.978565274735442D+03 0.000000000000000D+00 0.000000000000000D+00 -.978565274735442D+03
 0.674156337058849D+03 -.996312093238447D+02 -.477419083514388D+03 0.448337381467968D+03
 0.687059929623419D+03 0.570499602618108D+02 0.372294979060430D+03 -.574624309870942D+03
 0.158047483516127D+03 0.286992293126452D+02 0.905923451356830D+02 0.126286928402974D+03
 0.219394592973896D+03 0.138820197493887D+02 0.145317593182750D+02 -.218472206298593D+03
-.202229006202D-04 0.000000000000D+00 0.000000000000D+00 0.787194837383D-06 0.000000000000D+00  6 2 21 25 4 1 -3 2 0.18190731D+00 0.97084136D-01 0.24762341D+06 0.24762341D+06 0.24762341D+06 0.10907713D+01  1  2 13  6  6  2        3 -.500569248266D-03 0.100000000000D+01
0.218592254618D-04 0.000000000000D+00 0.000000000000D+00 0.787194837383D-06 0.467673952603D-09  6 2 21 25 4 1 -3 2 0.18203367D+00 0.96711501D-01 0.24762341D+06 0.24762341D+06 0.24762341D+06 0.10907713D+01  1  2  1  6  6  2        3 0.545828273574D-03 0.100000000000D+01
  </mgrwgt>
  </event>
  <event>
  6     66 0.17338086E-05 0.22920110E+03 0.75467711E-02 0.89708958E-01
        2 -1    0    0  502    0 0.00000000E+00 0.00000000E+00 0.25998917E+04 0.25998917E+04 0.32000000E+00 0.0000E+00 0.9000E+01
        3 -1    0    0  501    0 0.00000000E+00 0.00000000E+00 -.17341349E+04 0.17341350E+04 0.50000000E+00 0.0000E+00 0.9000E+01
       25  1    1    2    0    0 -.49794782E+03 -.38916780E+03 -.59337272E+02 0.64695403E+03 0.12500000E+03 0.0000E+00 0.9000E+01
        4  1    1    2  501    0 -.16428443E+03 0.17291339E+03 -.13165997E+04 0.13380305E+04 0.15500000E+01 0.0000E+00 0.9000E+01
        1  1    1    2  503    0 0.63067463E+03 0.21458953E+03 0.20730263E+04 0.21774383E+04 0.32000000E+00 0.0000E+00 0.9000E+01
       21  1    1    2  502  503 0.31557621E+02 0.16648760E+01 0.16866744E+03 0.17160397E+03 0.75000000E+00 0.0000E+00 0.9000E+01
#aMCatNLO 2  0  0  5  1 0.22383424D+02 0.00000000D+00  -5  6  0 0.00000000D+00 0.00000000D+00 0.00000000D+00 0.00000000D+00 0.00000000D+00
  <mgrwgt>
 0.3747814204D-02    5    2    0
 0.212333775753007D+04 0.000000000000000D+00 0.000000000000000D+00 0.212333775753007D+04
 0.212333775753007D+04 -.000000000000000D+00 -.000000000000000D+00 -.212333775753007D+04
 0.672479445462375D+03 -.498017098949369D+03 -.389222115233531D+03 -.192584315915325D+03
 0.163477475304152D+04 -.164556590484672D+03 0.172856211652667D+03 -.161726013733200D+04
 0.193942131655624D+04 0.662573689434042D+03 0.216365903580865D+03 0.180984445324733D+04
 0.000000000000000D+00 0.000000000000000D+00 0.000000000000000D+00 0.000000000000000D+00
 0.212333775753007D+04 0.000000000000000D+00 0.000000000000000D+00 0.212333775753007D+04
 0.212333775753007D+04 -.000000000000000D+00 -.000000000000000D+00 -.212333775753007D+04
 0.672300605946859D+03 -.497912599467523D+03 -.389187990538914D+03 -.192298871729113D+03
 0.163407155819360D+04 -.164302576643970D+03 0.172939160817480D+03 -.161656628916391D+04
 0.179963263140691D+04 0.630689021514551D+03 0.214596952767057D+03 0.167178261566170D+04
 0.140670719512766D+03 0.315261545969424D+02 0.165187695437731D+01 0.137082545231319D+03
-.390989431356D+00 0.000000000000D+00 0.000000000000D+00 0.137973730826D-04 0.000000000000D+00  6 2 3 25 4 1 21 2 0.39998335D+00 0.26679000D+00 0.62451416D+06 0.62451416D+06 0.62451416D+06 0.10617514D+01  1  2 13  4  6  5        1 -.341347618071D-02 0.100000000000D+01
-.237072203808D+00 0.000000000000D+00 0.000000000000D+00 0.137973730826D-04 0.000000000000D+00  6 2 3 25 4 1 21 2 0.39998335D+00 0.26679000D+00 0.62408347D+06 0.62408347D+06 0.62408347D+06 0.10617722D+01  1  2  8  4  6  5        1 -.206997093545D-02 0.100000000000D+01
-.107785012685D+00 0.000000000000D+00 0.000000000000D+00 0.137973730826D-04 0.000000000000D+00  6 2 3 25 4 1 21 2 0.39998335D+00 0.26679000D+00 0.62408347D+06 0.62408347D+06 0.62408347D+06 0.10617722D+01  1  2  9  4  6  5        1 -.941113466497D-03 0.100000000000D+01
0.115885632487D+00 0.000000000000D+00 0.000000000000D+00 0.137973730826D-04 0.000000000000D+00  6 2 3 25 4 1 21 2 0.39998335D+00 0.26679000D+00 0.62408347D+06 0.62408347D+06 0.62408347D+06 0.10617722D+01  1  2 10  4  6  5        1 0.101184317365D-02 0.100000000000D+01
0.104927377745D+01 0.000000000000D+00 0.000000000000D+00 0.137973730826D-04 0.371961490290D-06  6 2 3 25 4 1 21 2 0.39998335D+00 0.26679000D+00 0.62451416D+06 0.62451416D+06 0.62451416D+06 0.10617514D+01  1  2  1  4  6  5        1 0.916053161323D-02 0.100000000000D+01
  </mgrwgt>
  </event>
  <event>
  5     66 0.17338086E-05 0.46287312E+02 0.75467711E-02 0.85136529E-01
        2 -1    0    0  502    0 0.00000000E+00 0.00000000E+00 0.13962568E+04 0.13962568E+04 0.32000000E+00 0.0000E+00 0.9000E+01
        3 -1    0    0  501    0 0.00000000E+00 0.00000000E+00 -.13293209E+04 0.13293210E+04 0.50000000E+00 0.0000E+00 0.9000E+01
       25  1    1    2    0    0 -.61191388E+03 0.34753420E+03 0.12243351E+03 0.72514383E+03 0.12500000E+03 0.0000E+00 0.9000E+01
        4  1    1    2  501    0 -.15022859E+02 -.43780511E+02 -.90253187E+03 0.90371932E+03 0.15500000E+01 0.0000E+00 0.9000E+01
        1  1    1    2  502    0 0.62693674E+03 -.30375369E+03 0.84703424E+03 0.10967147E+04 0.32000000E+00 0.0000E+00 0.9000E+01
#aMCatNLO 1  0  0  2  4 0.31042837D+02 0.00000000D+00  -5  6  0 0.00000000D+00 0.00000000D+00 0.00000000D+00 0.00000000D+00 0.00000000D+00
  <mgrwgt>
 0.3235128507D-02    7    2    0
 0.136237788972906D+04 0.000000000000000D+00 0.000000000000000D+00 0.136237788972906D+04
 0.136237788972906D+04 0.000000000000000D+00 0.000000000000000D+00 -.136237788972906D+04
 0.722352906472991D+03 -.611908755647858D+03 0.347532710304422D+03 0.104677655303940D+03
 0.926175477161585D+03 -.150221524640498D+02 -.437818478495892D+02 -.925018107514503D+03
 0.107622739582353D+04 0.626930908111907D+03 -.303750862454833D+03 0.820340452210563D+03
 0.000000000000000D+00 -.000000000000000D+00 0.000000000000000D+00 -.000000000000000D+00
 0.156353241228357D+04 0.000000000000000D+00 0.000000000000000D+00 0.156353241228357D+04
 0.224770267407375D+04 0.000000000000000D+00 0.000000000000000D+00 -.224770267407375D+04
 0.571243491445969D+03 -.500546211507482D+03 0.221788649720759D+03 0.104677655303940D+03
 0.963968266967475D+03 0.147695690965206D+03 -.227513303700849D+03 -.925018107514503D+03
 0.128299775993263D+04 0.830030820857211D+03 -.533079385163419D+03 0.820340452210563D+03
 0.993025568011244D+03 -.477180300314935D+03 0.538804039143508D+03 -.684170261790180D+03
0.141995136488D-01 0.000000000000D+00 0.000000000000D+00 0.712687666675D-04 0.000000000000D+00  6 2 3 25 4 1 21 0 0.21480875D+00 0.20451092D+00 0.53118967D+06 0.53118967D+06 0.53118967D+06 0.10666580D+01  1  2  2  2  6  2        3 0.181619953067D-02 0.100000000000D+01
0.835650551544D-02 0.000000000000D+00 -.545298712292D-04 0.712687666675D-04 0.000000000000D+00  6 2 3 25 4 1 21 2 0.21480875D+00 0.20451092D+00 0.53118967D+06 0.53118967D+06 0.53118967D+06 0.10666580D+01  1  2  3  2  6  2        3 0.121608858905D-02 0.100000000000D+01
-.100706497875D-01 0.000000000000D+00 0.000000000000D+00 0.712687666675D-04 0.000000000000D+00  6 2 3 25 4 1 21 2 0.21480875D+00 0.20451092D+00 0.53118967D+06 0.53118967D+06 0.53118967D+06 0.10666580D+01  1  2 15  2  6  2        3 -.146554110068D-02 0.100000000000D+01
-.165566766196D-03 0.000000000000D+00 0.000000000000D+00 0.712687666675D-04 0.000000000000D+00  6 2 3 25 4 1 21 2 0.21480875D+00 0.20451092D+00 0.53118967D+06 0.53118967D+06 0.53118967D+06 0.10666580D+01  1  2  4  2  6  2        3 -.240942646091D-04 0.100000000000D+01
-.980364829608D-02 0.000000000000D+00 -.663759457801D-02 0.712687666675D-04 0.000000000000D+00  6 2 3 25 4 1 21 2 0.21480875D+00 0.35478774D+00 0.53118967D+06 0.53118967D+06 0.53118967D+06 0.10666580D+01  1  2  5  2  6  2        3 -.690026114819D-04 0.100000000000D+01
0.124211431323D-01 0.000000000000D+00 0.574374567121D-02 0.712687666675D-04 0.000000000000D+00  6 2 3 25 4 1 21 2 0.21480875D+00 0.20451092D+00 0.53118967D+06 0.53118967D+06 0.53118967D+06 0.10666580D+01  1  2  6  2  6  2        3 0.180759892975D-02 0.100000000000D+01
-.266164661689D-03 0.000000000000D+00 -.404923982146D-03 0.712687666675D-04 0.000000000000D+00  6 2 21 25 4 1 -3 2 0.21480875D+00 0.35478774D+00 0.53118967D+06 0.53118967D+06 0.53118967D+06 0.10666580D+01  1  2  5  6  6  2        3 -.461205659297D-04 0.100000000000D+01
  </mgrwgt>
  </event>
  <event>
  5     66 0.17338086E-05 0.20835893E+03 0.75467711E-02 0.92741349E-01
        2 -1    0    0  502    0 0.00000000E+00 0.00000000E+00 0.20513132E+04 0.20513132E+04 0.32000000E+00 0.0000E+00 0.9000E+01
        3 -1    0    0  501    0 0.00000000E+00 0.00000000E+00 -.97884647E+03 0.97884660E+03 0.50000000E+00 0.0000E+00 0.9000E+01
       25  1    1    2    0    0 0.52777719E+03 0.18590538E+02 0.82573648E+03 0.98810936E+03 0.12500000E+03 0.0000E+00 0.9000E+01
        4  1    1    2  501    0 -.39374638E+03 -.17815703E+03 -.83511553E+03 0.94031723E+03 0.15500000E+01 0.0000E+00 0.9000E+01
        1  1    1    2  502    0 -.13403082E+03 0.15956649E+03 0.10818458E+04 0.11017332E+04 0.32000000E+00 0.0000E+00 0.9000E+01
#aMCatNLO 1  0  0  4  2 0.43049204D+02 0.00000000D+00  -5  6  0 0.00000000D+00 0.00000000D+00 0.00000000D+00 0.00000000D+00 0.00000000D+00
  <mgrwgt>
 0.2274025613D-02    7    2    0
 0.141701125288828D+04 0.000000000000000D+00 0.000000000000000D+00 0.141701125288828D+04
 0.141701125288828D+04 -.000000000000000D+00 -.000000000000000D+00 -.141701125288828D+04
 0.744104336264706D+03 0.527793535740127D+03 0.186262086502400D+02 0.509071027686895D+03
 0.132144300022963D+04 -.393781673465319D+03 -.178170139076556D+03 -.124876058475602D+04
 0.768475169282229D+03 -.134011862274808D+03 0.159543930426316D+03 0.739689557069120D+03
 0.000000000000000D+00 -.000000000000000D+00 0.000000000000000D+00 0.000000000000000D+00
 0.141701125288828D+04 0.000000000000000D+00 0.000000000000000D+00 0.141701125288828D+04
 0.141701125288828D+04 -.000000000000000D+00 -.000000000000000D+00 -.141701125288828D+04
 0.742642614818681D+03 0.527287605959614D+03 0.183972960689005D+02 0.507466622984665D+03
 0.115805009484706D+04 -.303820526188298D+03 -.160158983221136D+03 -.110594855673106D+04
 0.766922794789009D+03 -.134534347661038D+03 0.159307527108938D+03 0.738032651224076D+03
 0.166407001321822D+03 -.889327321102776D+02 -.175458399567018D+02 -.139550717477683D+03
0.475663946244D-03 0.000000000000D+00 0.000000000000D+00 0.110432141039D-04 0.000000000000D+00  6 2 3 25 4 1 21 0 0.31558665D+00 0.15059178D+00 0.35004147D+06 0.35004147D+06 0.35004147D+06 0.10796296D+01  1  2  2  3  6  4        4 0.761539101650D-04 0.100000000000D+01
0.384290081380D-04 0.000000000000D+00 -.182667479877D-05 0.110432141039D-04 0.000000000000D+00  6 2 3 25 4 1 21 2 0.31558665D+00 0.15059178D+00 0.35004147D+06 0.35004147D+06 0.35004147D+06 0.10796296D+01  1  2  3  3  6  4        4 0.717134627203D-05 0.100000000000D+01
-.358734828152D-03 0.000000000000D+00 0.000000000000D+00 0.110432141039D-04 0.000000000000D+00  6 2 3 25 4 1 21 2 0.31558665D+00 0.15059178D+00 0.35004147D+06 0.35004147D+06 0.35004147D+06 0.10796296D+01  1  2 15  3  6  4        4 -.669445243883D-04 0.100000000000D+01
0.159606996929D-01 0.000000000000D+00 0.000000000000D+00 0.110432141039D-04 0.000000000000D+00  6 2 3 25 4 1 21 2 0.31558665D+00 0.15059178D+00 0.35095275D+06 0.35095275D+06 0.35095275D+06 0.10795472D+01  1  2 12  3  6  4        4 0.297743258041D-02 0.100000000000D+01
-.683453445689D-02 0.000000000000D+00 0.000000000000D+00 0.110432141039D-04 0.000000000000D+00  6 2 3 25 4 1 21 2 0.31558665D+00 0.15059178D+00 0.35004147D+06 0.35004147D+06 0.35004147D+06 0.10796296D+01  1  2  4  3  6  4        4 -.127541187174D-02 0.100000000000D+01
-.222550805919D-01 0.000000000000D+00 0.000000000000D+00 0.110432141039D-04 0.000000000000D+00  6 2 3 25 4 1 21 2 0.31558665D+00 0.15059178D+00 0.35004147D+06 0.35004147D+06 0.35004147D+06 0.10796296D+01  1  2  5  3  6  4        4 -.415308375025D-02 0.100000000000D+01
0.252324972466D-01 0.000000000000D+00 -.000000000000D+00 0.110432141039D-04 0.000000000000D+00  6 2 3 25 4 1 21 2 0.31558665D+00 0.15059178D+00 0.35004147D+06 0.35004147D+06 0.35004147D+06 0.10796296D+01  1  2  6  3  6  4        4 0.470870792224D-02 0.100000000000D+01
  </mgrwgt>
  </event>
  <event>
  5     66 0.17338086E-05 0.69063640E+02 0.75467711E-02 0.94898363E-01
        2 -1    0    0  502    0 0.00000000E+00 0.00000000E+00 0.53030692E+03 0.53030702E+03 0.32000000E+00 0.0000E+00 0.9000E+01
        3 -1    0    0  501    0 -.00000000E+00 -.00000000E+00 -.92359912E+03 0.92359926E+03 0.50000000E+00 0.0000E+00 0.9000E+01
       25  1    1    2    0    0 0.35008917E+03 0.31924313E+03 -.82932671E+02 0.49697226E+03 0.12500000E+03 0.0000E+00 0.9000E+01
        4  1    1    2  501    0 -.33120090E+03 -.25279233E+03 -.55995104E+03 0.69795814E+03 0.15500000E+01 0.0000E+00 0.9000E+01
        1  1    1    2  502    0 -.18888276E+02 -.66450803E+02 0.24959151E+03 0.25897587E+03 0.32000000E+00 0.0000E+00 0.9000E+01
#aMCatNLO 1  0  0  5  1 0.64324125D+01 0.00000000D+00  -5  6  0 0.00000000D+00 0.00000000D+00 0.00000000D+00 0.00000000D+00 0.00000000D+00
  <mgrwgt>
 0.9849297977D-02    8    2    0
 0.699850823025708D+03 0.000000000000000D+00 0.000000000000000D+00 0.699850823025708D+03
 0.699850823025708D+03 -.000000000000000D+00 -.000000000000000D+00 -.699850823025708D+03
 0.492970416482506D+03 0.350131986535973D+03 0.319266662859848D+03 0.535837803597736D+02
 0.567691092039300D+03 -.331249034328414D+03 -.252834588221426D+03 -.385515141383795D+03
 0.339040137529610D+03 -.188829522075590D+02 -.664320746384221D+02 0.331931361024022D+03
 0.000000000000000D+00 -.000000000000000D+00 0.000000000000000D+00 0.000000000000000D+00
 0.699850823025708D+03 0.000000000000000D+00 0.000000000000000D+00 0.699850823025708D+03
 0.699850823025708D+03 -.000000000000000D+00 -.000000000000000D+00 -.699850823025708D+03
 0.492964183349640D+03 0.350126194336987D+03 0.319246285336718D+03 0.536855977277185D+02
 0.567625823801676D+03 -.331255704123237D+03 -.252858053212629D+03 -.385397897318951D+03
 0.240048298421128D+03 -.809668551951875D+01 -.434685274627241D+02 0.235940917135412D+03
 0.990633404789724D+02 -.107738046942319D+02 -.229197046613645D+02 0.957713824558213D+02
0.473450208602D-04 0.000000000000D+00 0.000000000000D+00 0.794371888893D-05 0.000000000000D+00  6 2 3 25 4 1 21 0 0.81585698D-01 0.14209219D+00 0.23806011D+06 0.23806011D+06 0.23806011D+06 0.10920616D+01  1  2  2  4  6  5        1 0.789767054360D-04 0.100000000000D+01
0.109929758951D-04 0.000000000000D+00 -.181817346333D-06 0.794371888893D-05 0.000000000000D+00  6 2 3 25 4 1 21 2 0.81585698D-01 0.14209219D+00 0.23806011D+06 0.23806011D+06 0.23806011D+06 0.10920616D+01  1  2  3  4  6  5        1 0.218692682181D-04 0.100000000000D+01
-.333559682610D-04 0.000000000000D+00 0.000000000000D+00 0.794371888893D-05 0.000000000000D+00  6 2 3 25 4 1 21 2 0.81585698D-01 0.14209219D+00 0.23806011D+06 0.23806011D+06 0.23806011D+06 0.10920616D+01  1  2 15  4  6  5        1 -.663578837558D-04 0.100000000000D+01
0.752434022264D-02 0.000000000000D+00 0.000000000000D+00 0.794371888893D-05 0.000000000000D+00  6 2 3 25 4 1 21 2 0.81585698D-01 0.14209219D+00 0.23829450D+06 0.23829450D+06 0.23829450D+06 0.10920293D+01  1  2 12  4  6  5        1 0.149673954637D-01 0.100000000000D+01
-.623644096572D-02 0.000000000000D+00 0.000000000000D+00 0.794371888893D-05 0.000000000000D+00  6 2 3 25 4 1 21 2 0.81585698D-01 0.14209219D+00 0.23806011D+06 0.23806011D+06 0.23806011D+06 0.10920616D+01  1  2  4  4  6  5        1 -.124066860064D-01 0.100000000000D+01
-.882807330041D-02 0.000000000000D+00 0.000000000000D+00 0.794371888893D-05 0.000000000000D+00  6 2 3 25 4 1 21 2 0.81585698D-01 0.14209219D+00 0.23806011D+06 0.23806011D+06 0.23806011D+06 0.10920616D+01  1  2  5  4  6  5        1 -.175624421175D-01 0.100000000000D+01
0.118715495171D-01 0.000000000000D+00 -.000000000000D+00 0.794371888893D-05 0.000000000000D+00  6 2 3 25 4 1 21 2 0.81585698D-01 0.14209219D+00 0.23806011D+06 0.23806011D+06 0.23806011D+06 0.10920616D+01  1  2  6  4  6  5        1 0.236170899520D-01 0.100000000000D+01
0.602983293379D-03 0.000000000000D+00 0.000000000000D+00 0.794371888893D-05 0.386241568166D-06  6 2 3 25 4 1 21 2 0.81585698D-01 0.14209219D+00 0.23829450D+06 0.23829450D+06 0.23829450D+06 0.10920293D+01  1  2 11  4  6  5        1 0.119945259557D-02 0.100000000000D+01
  </mgrwgt>
  </event>
  <event>
  5     66 0.17338086E-05 0.36963775E+02 0.75467711E-02 0.94240373E-01
        2 -1    0    0  502    0 0.00000000E+00 0.00000000E+00 0.21512921E+04 0.21512921E+04 0.32000000E+00 0.0000E+00 0.9000E+01
        3 -1    0    0  501    0 0.00000000E+00 0.00000000E+00 -.42843145E+03 0.42843174E+03 0.50000000E+00 0.0000E+00 0.9000E+01
       25  1    1    2    0    0 0.18081895E+03 -.46466459E+03 0.11735207E+03 0.52726197E+03 0.12500000E+03 0.0000E+00 0.9000E+01
        4  1    1    2  501    0 -.14407434E+03 0.46063989E+03 0.37591947E+02 0.48410958E+03 0.15500000E+01 0.0000E+00 0.9000E+01
        1  1    1    2  502    0 -.36744605E+02 0.40246996E+01 0.15679166E+04 0.15683523E+04 0.32000000E+00 0.0000E+00 0.9000E+01
#aMCatNLO 1  0  0  4  2 0.22587150D+02 0.00000000D+00  -5  6  0 0.00000000D+00 0.00000000D+00 0.00000000D+00 0.00000000D+00 0.00000000D+00
  <mgrwgt>
 0.8877962392D-03    7    2    0
 0.960042507153093D+03 0.000000000000000D+00 0.000000000000000D+00 0.960042507153093D+03
 0.960042507153093D+03 -.000000000000000D+00 -.000000000000000D+00 -.960042507153093D+03
 0.603109638119070D+03 0.180822641891077D+03 -.464676020745213D+03 -.315429236939192D+03
 0.616697781277558D+03 -.144078622180710D+03 0.460651385278819D+03 -.383872121029746D+03
 0.700277594909558D+03 -.367440197103675D+02 0.402463546639448D+01 0.699301357968939D+03
 0.000000000000000D+00 0.000000000000000D+00 0.000000000000000D+00 0.000000000000000D+00
 0.960042507153093D+03 0.000000000000000D+00 0.000000000000000D+00 0.960042507153093D+03
 0.960042507153093D+03 -.000000000000000D+00 -.000000000000000D+00 -.960042507153093D+03
 0.602911094225980D+03 0.180677479590352D+03 -.464211904598715D+03 -.315815996330901D+03
 0.184524463596945D+03 -.620153095403859D+02 0.126261654462677D+03 -.119420993383483D+03
 0.699841390920151D+03 -.369125445854554D+02 0.456344695687208D+01 0.698852353111264D+03
 0.432808065563109D+03 -.817496254645109D+02 0.333386803179166D+03 -.263615363396880D+03
0.164910278548D-03 0.000000000000D+00 0.000000000000D+00 0.448448566596D-04 0.000000000000D+00  6 2 3 25 4 1 21 0 0.33096804D+00 0.65912556D-01 0.26711823D+06 0.26711823D+06 0.26711823D+06 0.10883018D+01  1  2  2  3  6  4        4 0.180448385472D-03 0.100000000000D+01
0.914990647751D-04 0.000000000000D+00 -.633298891497D-06 0.448448566596D-04 0.000000000000D+00  6 2 3 25 4 1 21 2 0.33096804D+00 0.65912556D-01 0.26711823D+06 0.26711823D+06 0.26711823D+06 0.10883018D+01  1  2  3  3  6  4        4 0.118582509553D-03 0.100000000000D+01
-.115600027492D-03 0.000000000000D+00 0.000000000000D+00 0.448448566596D-04 0.000000000000D+00  6 2 3 25 4 1 21 2 0.33096804D+00 0.65912556D-01 0.26711823D+06 0.26711823D+06 0.26711823D+06 0.10883018D+01  1  2 15  3  6  4        4 -.149817283904D-03 0.100000000000D+01
0.248847433097D-02 0.000000000000D+00 0.000000000000D+00 0.448448566596D-04 0.000000000000D+00  6 2 3 25 4 1 21 2 0.33096804D+00 0.65912556D-01 0.26765316D+06 0.26765316D+06 0.26765316D+06 0.10882369D+01  1  2 12  3  6  4        4 0.322432052303D-02 0.100000000000D+01
-.399496342361D-02 0.000000000000D+00 0.000000000000D+00 0.448448566596D-04 0.000000000000D+00  6 2 3 25 4 1 21 2 0.33096804D+00 0.65912556D-01 0.26711823D+06 0.26711823D+06 0.26711823D+06 0.10883018D+01  1  2  4  3  6  4        4 -.517746044191D-02 0.100000000000D+01
-.248233569316D-02 0.000000000000D+00 0.000000000000D+00 0.448448566596D-04 0.000000000000D+00  6 2 3 25 4 1 21 2 0.33096804D+00 0.65912556D-01 0.26711823D+06 0.26711823D+06 0.26711823D+06 0.10883018D+01  1  2  5  3  6  4        4 -.321709950557D-02 0.100000000000D+01
0.455928697889D-02 0.000000000000D+00 -.000000000000D+00 0.448448566596D-04 0.000000000000D+00  6 2 3 25 4 1 21 2 0.33096804D+00 0.65912556D-01 0.26711823D+06 0.26711823D+06 0.26711823D+06 0.10883018D+01  1  2  6  3  6  4        4 0.590882205254D-02 0.100000000000D+01
  </mgrwgt>
  </event>
  <event>
  5     66 0.17338086E-05 0.29098557E+02 0.75467711E-02 0.94782729E-01
        2 -1    0    0  502    0 0.00000000E+00 0.00000000E+00 0.29271851E+04 0.29271852E+04 0.32000000E+00 0.0000E+00 0.9000E+01
        3 -1    0    0  501    0 0.00000000E+00 0.00000000E+00 -.23307393E+03 0.23307446E+03 0.50000000E+00 0.0000E+00 0.9000E+01
       25  1    1    2    0    0 -.41588095E+03 -.18996002E+03 0.12442587E+04 0.13314828E+04 0.12500000E+03 0.0000E+00 0.9000E+01
        4  1    1    2  501    0 0.44431104E+03 0.18371579E+03 0.11598205E+03 0.49458874E+03 0.15500000E+01 0.0000E+00 0.9000E+01
        1  1    1    2  502    0 -.28430086E+02 0.62442347E+01 0.13338705E+04 0.13341880E+04 0.32000000E+00 0.0000E+00 0.9000E+01
#aMCatNLO 1  0  0  1  5 0.25634776D+01 0.00000000D+00  -5  6  0 0.00000000D+00 0.00000000D+00 0.00000000D+00 0.00000000D+00 0.00000000D+00
  <mgrwgt>
 0.1256682380D-01    9    2    0
 0.825985112361973D+03 0.000000000000000D+00 0.000000000000000D+00 0.825985112361973D+03
 0.825985112361973D+03 0.000000000000000D+00 0.000000000000000D+00 -.825985112361973D+03
 0.518063483145993D+03 -.415948290072578D+03 -.189983764587026D+03 0.208944877296377D+03
 0.757030296837624D+03 0.444369411046246D+03 0.183741498821034D+03 -.584696295924195D+03
 0.376876444740330D+03 -.284211209736674D+02 0.624226576599261D+01 0.375751418627818D+03
 0.000000000000000D+00 -.000000000000000D+00 0.000000000000000D+00 0.000000000000000D+00
 0.841427490255685D+03 0.000000000000000D+00 0.000000000000000D+00 0.841427490255685D+03
 0.826092499795863D+03 0.000000000000000D+00 0.000000000000000D+00 -.826092499795863D+03
 0.517912100426072D+03 -.415465472193284D+03 -.190626397528147D+03 0.208944877296377D+03
 0.757217450553710D+03 0.445075128340857D+03 0.182802185676088D+03 -.584696295924195D+03
 0.376842662706631D+03 -.280698491224655D+02 0.577472122683694D+01 0.375751418627818D+03
 0.155477763651357D+02 -.153980702510814D+01 0.204949062522224D+01 0.153349904598218D+02
0.161626248535D-03 0.000000000000D+00 0.000000000000D+00 0.602408132888D-04 0.000000000000D+00  6 2 3 25 4 1 21 0 0.45033622D+00 0.35857570D-01 0.24207195D+06 0.24207195D+06 0.24207195D+06 0.10915136D+01  1  2  2  1  6  1        2 0.215513346079D-03 0.100000000000D+01
0.786482793083D-04 0.000000000000D+00 -.620687351541D-06 0.602408132888D-04 0.000000000000D+00  6 2 3 25 4 1 21 2 0.45033622D+00 0.35857570D-01 0.24207195D+06 0.24207195D+06 0.24207195D+06 0.10915136D+01  1  2  3  1  6  1        2 0.124942377759D-03 0.100000000000D+01
-.115445620249D-03 0.000000000000D+00 0.000000000000D+00 0.602408132888D-04 0.000000000000D+00  6 2 3 25 4 1 21 2 0.45033622D+00 0.35857570D-01 0.24207195D+06 0.24207195D+06 0.24207195D+06 0.10915136D+01  1  2 15  1  6  1        2 -.183399438903D-03 0.100000000000D+01
-.417585782101D-02 0.000000000000D+00 0.000000000000D+00 0.602408132888D-04 0.000000000000D+00  6 2 3 25 4 1 21 2 0.45033622D+00 0.35857570D-01 0.24207195D+06 0.24207195D+06 0.24207195D+06 0.10915136D+01  1  2  4  1  6  1        2 -.663385912483D-02 0.100000000000D+01
-.106798149080D+00 0.000000000000D+00 -.137630949300D-02 0.602408132888D-04 0.000000000000D+00  6 2 3 25 4 1 21 2 0.45877161D+00 0.35857570D-01 0.24207195D+06 0.24207195D+06 0.24207195D+06 0.10915136D+01  1  2  5  1  6  1        2 -.156789819886D+00 0.100000000000D+01
0.106805535156D+00 0.000000000000D+00 0.137607252543D-02 0.602408132888D-04 0.000000000000D+00  6 2 3 25 4 1 21 2 0.45033622D+00 0.35857570D-01 0.24207195D+06 0.24207195D+06 0.24207195D+06 0.10915136D+01  1  2  6  1  6  1        2 0.169673610632D+00 0.100000000000D+01
0.420230859540D-02 0.000000000000D+00 0.000000000000D+00 0.602408132888D-04 0.243790663225D-04  6 2 3 25 4 1 21 2 0.45875557D+00 0.35862231D-01 0.24318110D+06 0.24318110D+06 0.24318110D+06 0.10913638D+01  1  2 11  1  6  1        2 0.616543267345D-02 0.100000000000D+01
-.363138154173D-03 0.000000000000D+00 -.465848005921D-05 0.602408132888D-04 0.000000000000D+00  6 21 3 25 4 1 -2 2 0.45877161D+00 0.35857570D-01 0.24207195D+06 0.24207195D+06 0.24207195D+06 0.10915136D+01  1  2  5  5  6  1        2 -.368616422343D-04 0.100000000000D+01
0.308239897094D-03 0.000000000000D+00 0.000000000000D+00 0.602408132888D-04 0.197254580296D-06  6 21 3 25 4 1 -2 2 0.45875557D+00 0.35862231D-01 0.24318110D+06 0.24318110D+06 0.24318110D+06 0.10913638D+01  1  2 11  5  6  1        2 0.312648594047D-04 0.100000000000D+01
  </mgrwgt>
  </event>
  <event>
  5     66 -.17338086E-05 0.49990020E+02 0.75467711E-02 0.94395743E-01
        2 -1    0    0  502    0 0.00000000E+00 0.00000000E+00 0.96808424E+03 0.96808429E+03 0.32000000E+00 0.0000E+00 0.9000E+01
        3 -1    0    0  501    0 0.00000000E+00 0.00000000E+00 -.31046198E+03 0.31046238E+03 0.50000000E+00 0.0000E+00 0.9000E+01
       25  1    1    2    0    0 -.24864653E+03 -.39147959E+03 0.49134020E+03 0.68711102E+03 0.12500000E+03 0.0000E+00 0.9000E+01
        4  1    1    2  501    0 -.48705849E+02 0.11544574E+02 -.42552156E+02 0.65716249E+02 0.15500000E+01 0.0000E+00 0.9000E+01
        1  1    1    2  502    0 0.29735238E+03 0.37993502E+03 0.20883421E+03 0.52571940E+03 0.32000000E+00 0.0000E+00 0.9000E+01
#aMCatNLO 1  0  0  4  4 0.17257906D+02 0.00000000D+00  -5  6  0 0.00000000D+00 0.00000000D+00 0.00000000D+00 0.00000000D+00 0.00000000D+00
  <mgrwgt>
 -.4109522093D-01    4    2    0
 0.548227726178238D+03 0.000000000000000D+00 0.000000000000000D+00 0.548227726178238D+03
 0.548227726178238D+03 -.000000000000000D+00 -.000000000000000D+00 -.548227726178238D+03
 0.506609538089702D+03 -.248788162754785D+03 -.391562771615201D+03 0.160658862318833D+03
 0.101942825062053D+03 -.486428069780892D+02 0.115273340029165D+02 -.888444566740653D+02
 0.487903089204721D+03 0.297430969732874D+03 0.380035437612284D+03 -.718144056447682D+02
 0.000000000000000D+00 0.000000000000000D+00 0.000000000000000D+00 0.000000000000000D+00
 0.548227726178238D+03 0.000000000000000D+00 0.000000000000000D+00 0.548227726178238D+03
 0.548227726178238D+03 -.000000000000000D+00 -.000000000000000D+00 -.548227726178238D+03
 0.505337782089800D+03 -.253885034424899D+03 -.390354918989881D+03 0.151349597035835D+03
 0.176179729381796D+02 -.594167347267035D+01 -.157232248911873D+02 0.527917472866215D+01
 0.487244109714525D+03 0.292519449109962D+03 0.381199365892739D+03 -.807851334521222D+02
 0.862555876139712D+02 -.326927412123928D+02 0.248787779883289D+02 -.758436383123753D+02
0.345681900496D-02 0.000000000000D+00 0.000000000000D+00 0.967377534224D-07 0.000000000000D+00  6 2 3 25 4 1 21 0 0.14893607D+00 0.47763417D-01 0.25656207D+06 0.25656207D+06 0.25656207D+06 0.10896136D+01  1  2  2  3  6  4        4 0.341063030016D-01 0.100000000000D+01
0.570743420970D-03 0.000000000000D+00 -.132750951804D-04 0.967377534224D-07 0.000000000000D+00  6 2 3 25 4 1 21 2 0.14893607D+00 0.47763417D-01 0.25656207D+06 0.25656207D+06 0.25656207D+06 0.10896136D+01  1  2  3  3  6  4        4 0.668565479196D-02 0.100000000000D+01
-.216441481202D-02 0.000000000000D+00 0.000000000000D+00 0.967377534224D-07 0.000000000000D+00  6 2 3 25 4 1 21 2 0.14893607D+00 0.47763417D-01 0.25656207D+06 0.25656207D+06 0.25656207D+06 0.10896136D+01  1  2 15  3  6  4        4 -.253538275311D-01 0.100000000000D+01
-.482615977980D-02 0.000000000000D+00 0.000000000000D+00 0.967377534224D-07 0.000000000000D+00  6 2 3 25 4 1 21 2 0.14893607D+00 0.47763417D-01 0.25656207D+06 0.25656207D+06 0.25656207D+06 0.10896136D+01  1  2  4  3  6  4        4 -.565333511927D-01 0.100000000000D+01
  </mgrwgt>
  </event>
  <event>
  5     66 0.17338086E-05 0.14071115E+02 0.75467711E-02 0.87530078E-01
        2 -1    0    0  502    0 0.00000000E+00 0.00000000E+00 0.19892964E+04 0.19892964E+04 0.32000000E+00 0.0000E+00 0.9000E+01
        3 -1    0    0  501    0 0.00000000E+00 0.00000000E+00 -.16250838E+04 0.16250838E+04 0.50000000E+00 0.0000E+00 0.9000E+01
       25  1    1    2    0    0 -.52706484E+03 -.53163712E+03 0.12027077E+03 0.76845653E+03 0.12500000E+03 0.0000E+00 0.9000E+01
        4  1    1    2  501    0 -.13060102E+02 -.52389788E+01 -.12070964E+04 0.12071794E+04 0.15500000E+01 0.0000E+00 0.9000E+01
        1  1    1    2  502    0 0.54012494E+03 0.53687610E+03 0.14510383E+04 0.16387444E+04 0.32000000E+00 0.0000E+00 0.9000E+01
#aMCatNLO 1  0  0  1  5 0.34551026D+02 0.00000000D+00  -5  6  0 0.00000000D+00 0.00000000D+00 0.00000000D+00 0.00000000D+00 0.00000000D+00
  <mgrwgt>
 0.5534009199D-02    7    2    0
 0.179799152115367D+04 0.000000000000000D+00 0.000000000000000D+00 0.179799152115367D+04
 0.179799152115367D+04 0.000000000000000D+00 0.000000000000000D+00 -.179799152115367D+04
 0.760204519732372D+03 -.527062614081208D+03 -.531635019450408D+03 0.430710895308372D+02
 0.133562345913967D+04 -.130596704866567D+02 -.523844331041732D+01 -.133554933578759D+04
 0.150015506343529D+04 0.540122284567865D+03 0.536873462760826D+03 0.129247824625675D+04
 0.000000000000000D+00 -.000000000000000D+00 0.000000000000000D+00 0.000000000000000D+00
 0.200247939247967D+04 0.000000000000000D+00 0.000000000000000D+00 0.200247939247967D+04
 0.194901483065447D+04 0.000000000000000D+00 0.000000000000000D+00 -.194901483065447D+04
 0.792797866652061D+03 -.501775107760377D+03 -.599391424568909D+03 0.430710895308372D+02
 0.134146091974658D+04 0.305312400914577D+02 -.122037757530740D+03 -.133554933578759D+04
 0.147735501902591D+04 0.588605020776575D+03 0.406966785758642D+03 0.129247824625675D+04
 0.339880417709595D+03 -.117361153107655D+03 0.314462396341008D+03 0.534645618252073D+02
0.697588601015D-01 0.000000000000D+00 0.000000000000D+00 0.471942556553D-03 0.000000000000D+00  6 2 3 25 4 1 21 0 0.30604561D+00 0.25001290D+00 0.58875617D+06 0.58875617D+06 0.58875617D+06 0.10635308D+01  1  2  2  1  6  1        2 0.171987396852D-02 0.100000000000D+01
0.876681352673D-01 0.000000000000D+00 -.267892390720D-03 0.471942556553D-03 0.000000000000D+00  6 2 3 25 4 1 21 2 0.30604561D+00 0.25001290D+00 0.58875617D+06 0.58875617D+06 0.58875617D+06 0.10635308D+01  1  2  3  1  6  1        2 0.244477645320D-02 0.100000000000D+01
-.474419659565D-01 0.000000000000D+00 0.000000000000D+00 0.471942556553D-03 0.000000000000D+00  6 2 3 25 4 1 21 2 0.30604561D+00 0.25001290D+00 0.58875617D+06 0.58875617D+06 0.58875617D+06 0.10635308D+01  1  2 15  1  6  1        2 -.132300066507D-02 0.100000000000D+01
-.541935531785D-02 0.000000000000D+00 0.000000000000D+00 0.471942556553D-03 0.000000000000D+00  6 2 3 25 4 1 21 2 0.30604561D+00 0.25001290D+00 0.58875617D+06 0.58875617D+06 0.58875617D+06 0.10635308D+01  1  2  4  1  6  1        2 -.151128026531D-03 0.100000000000D+01
-.270407999372D+00 0.000000000000D+00 -.103171627101D+00 0.471942556553D-03 0.000000000000D+00  6 2 3 25 4 1 21 2 0.35382670D+00 0.25001290D+00 0.58875617D+06 0.58875617D+06 0.58875617D+06 0.10635308D+01  1  2  5  1  6  1        2 -.504753004104D-02 0.100000000000D+01
0.283463522770D+00 0.000000000000D+00 0.102095381233D+00 0.471942556553D-03 0.000000000000D+00  6 2 3 25 4 1 21 2 0.30604561D+00 0.25001290D+00 0.58875617D+06 0.58875617D+06 0.58875617D+06 0.10635308D+01  1  2  6  1  6  1        2 0.790486695872D-02 0.100000000000D+01
-.532896296985D-02 0.000000000000D+00 -.229048391578D-02 0.471942556553D-03 0.000000000000D+00  6 21 3 25 4 1 -2 2 0.35382670D+00 0.25001290D+00 0.58875617D+06 0.58875617D+06 0.58875617D+06 0.10635308D+01  1  2  5  5  6  1        2 -.138494489152D-04 0.100000000000D+01
  </mgrwgt>
  </event>
  <event>
  5     66 -.17338086E-05 0.43773746E+02 0.75467711E-02 0.94096384E-01
        2 -1    0    0  502    0 0.00000000E+00 0.00000000E+00 0.22900184E+04 0.22900184E+04 0.32000000E+00 0.0000E+00 0.9000E+01
        3 -1    0    0  501    0 0.00000000E+00 0.00000000E+00 -.44795001E+03 0.44795029E+03 0.50000000E+00 0.0000E+00 0.9000E+01
       25  1    1    2    0    0 0.18941415E+03 0.44113615E+03 0.21769700E+03 0.54175253E+03 0.12500000E+03 0.0000E+00 0.9000E+01
        4  1    1    2  501    0 -.23175564E+03 -.45224481E+03 -.59618931E+02 0.51165698E+03 0.15500000E+01 0.0000E+00 0.9000E+01
        1  1    1    2  502    0 0.42341494E+02 0.11108661E+02 0.16839903E+04 0.16845592E+04 0.32000000E+00 0.0000E+00 0.9000E+01
#aMCatNLO 1  0  0  5  1 0.52691219D+02 0.00000000D+00  -5  6  0 0.00000000D+00 0.00000000D+00 0.00000000D+00 0.00000000D+00 0.00000000D+00
  <mgrwgt>
 -.7199956793D-03    1    2    0
 0.101282485332878D+04 0.000000000000000D+00 0.000000000000000D+00 0.101282485332878D+04
 0.101282485332878D+04 -.000000000000000D+00 -.000000000000000D+00 -.101282485332878D+04
 0.534301591850397D+03 0.189420206136287D+03 0.441148010526810D+03 -.198397604243075D+03
 0.745799742543055D+03 -.231760997194327D+03 -.452256487309150D+03 -.545864603948238D+03
 0.745548372264104D+03 0.423407910580401D+02 0.111084767823396D+02 0.744262208191314D+03
 0.000000000000000D+00 0.000000000000000D+00 0.000000000000000D+00 0.000000000000000D+00
 0.101282485332878D+04 0.000000000000000D+00 0.000000000000000D+00 0.101282485332878D+04
 0.101282485332878D+04 -.000000000000000D+00 -.000000000000000D+00 -.101282485332878D+04
 0.523308340408207D+03 0.191447133910075D+03 0.441679792752696D+03 -.162768469711874D+03
 0.709335187723517D+03 -.228972205868900D+03 -.451524823518390D+03 -.496843507785875D+03
 0.628598502377483D+03 0.168409686919726D+03 -.708831175760766D+02 0.601456430828960D+03
 0.164407676148348D+03 -.130884614960901D+03 0.807281483417706D+02 0.581555466687895D+02
-.733414861323D-03 0.000000000000D+00 0.000000000000D+00 0.722620755177D-04 0.000000000000D+00  6 2 3 25 4 1 21 2 0.35231055D+00 0.68915409D-01 0.27460601D+06 0.27460601D+06 0.27460601D+06 0.10874052D+01  1  2 14  4  6  5        1 -.719995679290D-03 0.100000000000D+01
  </mgrwgt>
  </event>
  <event>
  5     66 0.17338086E-05 0.96763156E+02 0.75467711E-02 0.94857599E-01
        2 -1    0    0  502    0 0.00000000E+00 0.00000000E+00 0.15878477E+04 0.15878477E+04 0.32000000E+00 0.0000E+00 0.9000E+01
        3 -1    0    0  501    0 0.00000000E+00 0.00000000E+00 -.53074388E+03 0.53074411E+03 0.50000000E+00 0.0000E+00 0.9000E+01
       25  1    1    2    0    0 0.47889708E+03 0.52139274E+02 0.65026239E+03 0.81885718E+03 0.12500000E+03 0.0000E+00 0.9000E+01
        4  1    1    2  501    0 -.96730900E+02 -.21055705E+01 -.39680971E+03 0.40843806E+03 0.15500000E+01 0.0000E+00 0.9000E+01
        1  1    1    2  502    0 -.38216618E+03 -.50033704E+02 0.80365112E+03 0.89129657E+03 0.32000000E+00 0.0000E+00 0.9000E+01
#aMCatNLO 1  0  0  4  2 0.22441919D+00 0.00000000D+00  -5  6  0 0.00000000D+00 0.00000000D+00 0.00000000D+00 0.00000000D+00 0.00000000D+00
  <mgrwgt>
 0.1739024036D-02    1    2    0
 0.918009103883382D+03 0.000000000000000D+00 0.000000000000000D+00 0.918009103883382D+03
 0.918009103883382D+03 -.000000000000000D+00 -.000000000000000D+00 -.918009103883382D+03
 0.570505418347907D+03 0.478868537491982D+03 0.521346552197505D+02 0.278959376773264D+03
 0.699806058975728D+03 -.967402376092846D+02 -.210591075763704D+01 -.693083986069740D+03
 0.565706730443129D+03 -.382128299882698D+03 -.500287444621135D+02 0.414124609296476D+03
 0.000000000000000D+00 0.000000000000000D+00 0.000000000000000D+00 0.000000000000000D+00
 0.918009103883382D+03 0.000000000000000D+00 0.000000000000000D+00 0.918009103883382D+03
 0.918009103883382D+03 -.000000000000000D+00 -.000000000000000D+00 -.918009103883382D+03
 0.499130950757930D+03 0.459512748154727D+03 0.517133045388424D+02 0.140287114238902D+03
 0.481191562822768D+03 0.149718933004796D+03 -.294065649515323D+03 -.350221294336673D+03
 0.490292910842843D+03 -.401237323460528D+03 -.504447233692878D+02 0.277220270848247D+03
 0.365402783343224D+03 -.207994357698994D+03 0.292797068345768D+03 -.672860907504762D+02
0.104749671710D-02 0.000000000000D+00 0.000000000000D+00 0.190634265125D-04 0.000000000000D+00  6 2 3 25 4 1 21 2 0.24428428D+00 0.81652925D-01 0.24000448D+06 0.24000448D+06 0.24000448D+06 0.10917947D+01  1  2 14  3  6  4        4 0.173902403613D-02 0.100000000000D+01
  </mgrwgt>
  </event>
  <event>
  5     66 0.17338086E-05 0.47814861E+02 0.75467711E-02 0.87555207E-01
        2 -1    0    0  502    0 0.00000000E+00 0.00000000E+00 0.21707459E+04 0.21707459E+04 0.32000000E+00 0.0000E+00 0.9000E+01
        3 -1    0    0  501    0 0.00000000E+00 0.00000000E+00 -.93967233E+03 0.93967247E+03 0.50000000E+00 0.0000E+00 0.9000E+01
       25  1    1    2    0    0 -.90898346E+03 0.21664446E+03 0.34114028E+03 0.10025904E+04 0.12500000E+03 0.0000E+00 0.9000E+01
        4  1    1    2  501    0 0.33362705E+02 0.34251505E+02 -.46923878E+03 0.47167115E+03 0.15500000E+01 0.0000E+00 0.9000E+01
        1  1    1    2  502    0 0.87562076E+03 -.25089596E+03 0.13591720E+04 0.16361568E+04 0.32000000E+00 0.0000E+00 0.9000E+01
#aMCatNLO 1  0  0  4  2 0.65499428D+02 0.00000000D+00  -5  6  0 0.00000000D+00 0.00000000D+00 0.00000000D+00 0.00000000D+00 0.00000000D+00
  <mgrwgt>
 0.3158980182D-03    6    2    0
 0.142821219434627D+04 0.000000000000000D+00 0.000000000000000D+00 0.142821219434627D+04
 0.142821219434627D+04 -.000000000000000D+00 -.000000000000000D+00 -.142821219434627D+04
 0.944721515606708D+03 -.908988884869950D+03 0.216646480411740D+03 -.606403476105320D+02
 0.715834416503898D+03 0.333639245972373D+02 0.342506861021361D+02 -.714235711014564D+03
 0.119586845658193D+04 0.875624960272712D+03 -.250897166513876D+03 0.774876058625096D+03
 0.000000000000000D+00 0.000000000000000D+00 0.000000000000000D+00 0.000000000000000D+00
 0.142821219434627D+04 0.000000000000000D+00 0.000000000000000D+00 0.142821219434627D+04
 0.142821219434627D+04 -.000000000000000D+00 -.000000000000000D+00 -.142821219434627D+04
 0.944882714938421D+03 -.908759631124513D+03 0.216881827367096D+03 -.655480799547180D+02
 0.512394291611763D+03 -.229628327000104D+02 -.214549207851133D+02 -.511429667466423D+03
 0.119200954785061D+04 0.875914666427743D+03 -.250599760417392D+03 0.768674195860985D+03
 0.207137834291742D+03 0.558077973967793D+02 0.551728538354095D+02 -.191696448439844D+03
0.639874669095D-03 0.000000000000D+00 0.000000000000D+00 0.159956717444D-04 0.000000000000D+00  6 2 3 25 4 1 21 0 0.33396091D+00 0.14456499D+00 0.90387759D+06 0.90387759D+06 0.90387759D+06 0.10507981D+01  1  2  2  3  6  4        4 0.922135949678D-04 0.100000000000D+01
0.369294845666D-03 0.000000000000D+00 -.245728721219D-05 0.159956717444D-04 0.000000000000D+00  6 2 3 25 4 1 21 2 0.33396091D+00 0.14456499D+00 0.90387759D+06 0.90387759D+06 0.90387759D+06 0.10507981D+01  1  2  3  3  6  4        4 0.587640714499D-04 0.100000000000D+01
-.430375714653D-03 0.000000000000D+00 0.000000000000D+00 0.159956717444D-04 0.000000000000D+00  6 2 3 25 4 1 21 2 0.33396091D+00 0.14456499D+00 0.90387759D+06 0.90387759D+06 0.90387759D+06 0.10507981D+01  1  2 15  3  6  4        4 -.684835695460D-04 0.100000000000D+01
-.161656523230D-03 0.000000000000D+00 0.000000000000D+00 0.159956717444D-04 0.000000000000D+00  6 2 3 25 4 1 21 2 0.33396091D+00 0.14456499D+00 0.90387759D+06 0.90387759D+06 0.90387759D+06 0.10507981D+01  1  2  4  3  6  4        4 -.257236070119D-04 0.100000000000D+01
-.495116874883D-02 0.000000000000D+00 0.000000000000D+00 0.159956717444D-04 0.000000000000D+00  6 2 3 25 4 1 21 2 0.33396091D+00 0.14456499D+00 0.90387759D+06 0.90387759D+06 0.90387759D+06 0.10507981D+01  1  2  5  3  6  4        4 -.787855117749D-03 0.100000000000D+01
0.657962059397D-02 0.000000000000D+00 -.000000000000D+00 0.159956717444D-04 0.000000000000D+00  6 2 3 25 4 1 21 2 0.33396091D+00 0.14456499D+00 0.90387759D+06 0.90387759D+06 0.90387759D+06 0.10507981D+01  1  2  6  3  6  4        4 0.104698264607D-02 0.100000000000D+01
  </mgrwgt>
  </event>
  <event>
  5     66 -.17338086E-05 0.10550831E+02 0.75467711E-02 0.93141529E-01
        2 -1    0    0  502    0 0.00000000E+00 0.00000000E+00 0.72118434E+03 0.72118441E+03 0.32000000E+00 0.0000E+00 0.9000E+01
        3 -1    0    0  501    0 0.00000000E+00 0.00000000E+00 -.64874022E+03 0.64874041E+03 0.50000000E+00 0.0000E+00 0.9000E+01
       25  1    1    2    0    0 -.15211188E+03 -.53625330E+03 -.18865988E+03 0.60160051E+03 0.12500000E+03 0.0000E+00 0.9000E+01
        4  1    1    2  501    0 -.10578301E+02 0.18921684E+00 -.10081295E+03 0.10137845E+03 0.15500000E+01 0.0000E+00 0.9000E+01
        1  1    1    2  502    0 0.16269018E+03 0.53606408E+03 0.36191696E+03 0.66694586E+03 0.32000000E+00 0.0000E+00 0.9000E+01
#aMCatNLO 1  0  0  4  2 0.65499428D+02 0.00000000D+00  -5  6  0 0.00000000D+00 0.00000000D+00 0.00000000D+00 0.00000000D+00 0.00000000D+00
  <mgrwgt>
 -.3952152542D-02    1    2    0
 0.684003998827408D+03 0.000000000000000D+00 0.000000000000000D+00 0.684003998827408D+03
 0.684003998827408D+03 -.000000000000000D+00 -.000000000000000D+00 -.684003998827408D+03
 0.612712376078296D+03 -.152172022181993D+03 -.536368549133607D+03 -.221232707719415D+03
 0.106458504558512D+03 -.105488726642884D+02 0.203266219701506D+00 -.105934381393348D+03
 0.648837117018009D+03 0.162720894846281D+03 0.536165282913905D+03 0.327167089112763D+03
 0.000000000000000D+00 0.000000000000000D+00 0.000000000000000D+00 0.000000000000000D+00
 0.684003998827408D+03 0.000000000000000D+00 0.000000000000000D+00 0.684003998827408D+03
 0.684003998827408D+03 -.000000000000000D+00 -.000000000000000D+00 -.684003998827408D+03
 0.621563720693930D+03 -.154378324306338D+03 -.536326035899576D+03 -.243388937882343D+03
 0.273464392994096D+02 0.190713987343380D+02 0.995917436576518D+01 0.168797019708427D+02
 0.636964936253310D+03 0.160422488671974D+03 0.536209570900807D+03 0.304085927360748D+03
 0.821329014081670D+02 -.251155630999738D+02 -.984270936699650D+01 -.775766914492475D+02
-.117423909680D-02 0.000000000000D+00 0.000000000000D+00 0.481069722526D-05 0.000000000000D+00  6 2 3 25 4 1 21 2 0.11095146D+00 0.99806208D-01 0.32617929D+06 0.32617929D+06 0.32617929D+06 0.10818738D+01  1  2 14  3  6  4        4 -.395215254229D-02 0.100000000000D+01
  </mgrwgt>
  </event>
  <event>
  5     66 0.17338086E-05 0.15741325E+03 0.75467711E-02 0.88425426E-01
        2 -1    0    0  502    0 0.00000000E+00 0.00000000E+00 0.37527553E+04 0.37527553E+04 0.32000000E+00 0.0000E+00 0.9000E+01
        3 -1    0    0  501    0 0.00000000E+00 0.00000000E+00 -.22932324E+03 0.22932378E+03 0.50000000E+00 0.0000E+00 0.9000E+01
       25  1    1    2    0    0 -.27271458E+03 0.46228637E+03 0.21451201E+04 0.22147792E+04 0.12500000E+03 0.0000E+00 0.9000E+01
        4  1    1    2  501    0 0.22063302E+02 -.15583906E+03 -.13233361E+03 0.20563849E+03 0.15500000E+01 0.0000E+00 0.9000E+01
        1  1    1    2  502    0 0.25065127E+03 -.30644732E+03 0.15106456E+04 0.15616614E+04 0.32000000E+00 0.0000E+00 0.9000E+01
#aMCatNLO 1  0  0  1  4 0.64166811D+03 0.00000000D+00  -5  6  0 0.00000000D+00 0.00000000D+00 0.00000000D+00 0.00000000D+00 0.00000000D+00
  <mgrwgt>
 0.2241315039D-02    6    2    0
 0.927682653542970D+03 0.000000000000000D+00 0.000000000000000D+00 0.927682653542970D+03
 0.927682653542970D+03 0.000000000000000D+00 0.000000000000000D+00 -.927682653542970D+03
 0.679807045708655D+03 -.272668052413050D+03 0.462244116082732D+03 0.398114468131087D+03
 0.692731198215680D+03 0.220674673134624D+02 -.155858772521677D+03 -.674609207538510D+03
 0.482827063161605D+03 0.250600585099587D+03 -.306385343561055D+03 0.276494739407424D+03
 0.000000000000000D+00 0.000000000000000D+00 -.000000000000000D+00 0.000000000000000D+00
 0.141370902220256D+04 0.000000000000000D+00 0.000000000000000D+00 0.141370902220256D+04
 0.121980708453200D+04 0.000000000000000D+00 0.000000000000000D+00 -.121980708453200D+04
 0.901351113847835D+03 -.360405370468554D+03 0.713036934272594D+03 0.398114468131087D+03
 0.679590209246264D+03 -.540816510230862D+02 0.618097454311360D+02 -.674609207538510D+03
 0.382249545435924D+03 0.202598112296874D+03 -.169172630646139D+03 0.276494739407424D+03
 0.670325238204535D+03 0.211888909194767D+03 -.605674049057591D+03 0.193901937670568D+03
0.553405606927D-02 0.000000000000D+00 0.000000000000D+00 0.166075955508D-05 0.000000000000D+00  6 2 3 25 4 1 21 0 0.57734702D+00 0.35280541D-01 0.30485297D+06 0.30485297D+06 0.30485297D+06 0.10840366D+01  1  2  2  1  6  1        2 0.203936192555D-02 0.100000000000D+01
0.739687292660D-03 0.000000000000D+00 -.212522324564D-04 0.166075955508D-05 0.000000000000D+00  6 2 3 25 4 1 21 2 0.57734702D+00 0.35280541D-01 0.30485297D+06 0.30485297D+06 0.30485297D+06 0.10840366D+01  1  2  3  1  6  1        2 0.320322043842D-03 0.100000000000D+01
-.362051995511D-02 0.000000000000D+00 0.000000000000D+00 0.166075955508D-05 0.000000000000D+00  6 2 3 25 4 1 21 2 0.57734702D+00 0.35280541D-01 0.30485297D+06 0.30485297D+06 0.30485297D+06 0.10840366D+01  1  2 15  1  6  1        2 -.156786842670D-02 0.100000000000D+01
-.227105326105D-02 0.000000000000D+00 -.206294226316D-02 0.166075955508D-05 0.000000000000D+00  6 2 3 25 4 1 21 2 0.89413789D+00 0.35280541D-01 0.30485297D+06 0.30485297D+06 0.30485297D+06 0.10840366D+01  1  2  5  1  6  1        2 -.200038820310D-05 0.100000000000D+01
0.335180204592D-02 0.000000000000D+00 0.214505974426D-02 0.166075955508D-05 0.000000000000D+00  6 2 3 25 4 1 21 2 0.57734702D+00 0.35280541D-01 0.30485297D+06 0.30485297D+06 0.30485297D+06 0.10840366D+01  1  2  6  1  6  1        2 0.145149996837D-02 0.100000000000D+01
-.363073940013D-04 0.000000000000D+00 -.104931056737D-03 0.166075955508D-05 0.000000000000D+00  6 21 3 25 4 1 -2 2 0.89413789D+00 0.35280541D-01 0.30485297D+06 0.30485297D+06 0.30485297D+06 0.10840366D+01  1  2  5  5  6  1        2 -.842112842517D-10 0.100000000000D+01
  </mgrwgt>
  </event>
  <event>
  5     66 0.17338086E-05 0.81231201E+02 0.75467711E-02 0.94435964E-01
        2 -1    0    0  502    0 0.00000000E+00 0.00000000E+00 0.10056394E+04 0.10056394E+04 0.32000000E+00 0.0000E+00 0.9000E+01
        3 -1    0    0  501    0 0.00000000E+00 0.00000000E+00 -.66543500E+03 0.66543519E+03 0.50000000E+00 0.0000E+00 0.9000E+01
       25  1    1    2    0    0 -.76300063E+02 0.47951740E+03 0.57485183E+03 0.76278324E+03 0.12500000E+03 0.0000E+00 0.9000E+01
        4  1    1    2  501    0 0.96474409E+02 -.40075491E+03 -.48999046E+03 0.64031622E+03 0.15500000E+01 0.0000E+00 0.9000E+01
        1  1    1    2  502    0 -.20174346E+02 -.78762488E+02 0.25534303E+03 0.26797518E+03 0.32000000E+00 0.0000E+00 0.9000E+01
#aMCatNLO 1  0  0  5  1 0.33111034D+02 0.00000000D+00  -5  6  0 0.00000000D+00 0.00000000D+00 0.00000000D+00 0.00000000D+00 0.00000000D+00
  <mgrwgt>
 0.3653588610D-02    7    2    0
 0.818039027111784D+03 0.000000000000000D+00 0.000000000000000D+00 0.818039027111784D+03
 0.818039027111784D+03 -.000000000000000D+00 -.000000000000000D+00 -.818039027111784D+03
 0.659708051075109D+03 -.763328062119095D+02 0.479523386998478D+03 0.428742739496125D+03
 0.755959447948653D+03 0.964887939986205D+02 -.400832572988983D+03 -.633638578376155D+03
 0.220410555199805D+03 -.201559877867111D+02 -.786908140094951D+02 0.204895838880030D+03
 0.000000000000000D+00 0.000000000000000D+00 0.000000000000000D+00 0.000000000000000D+00
 0.818039027111784D+03 0.000000000000000D+00 0.000000000000000D+00 0.818039027111784D+03
 0.818039027111784D+03 -.000000000000000D+00 -.000000000000000D+00 -.818039027111784D+03
 0.661328305735135D+03 -.767464373212142D+02 0.477908533435593D+03 0.432947509514082D+03
 0.752863021794077D+03 0.960163649782637D+02 -.402676978957421D+03 -.628836097770313D+03
 0.789673099352087D+02 -.389558565870934D+02 -.187939295774751D+02 0.660686422367376D+02
 0.142919416759146D+03 0.196859289300439D+02 -.564376249006963D+02 0.129819946019493D+03
0.686400764000D-03 0.000000000000D+00 0.000000000000D+00 0.414476053953D-05 0.000000000000D+00  6 2 3 25 4 1 21 0 0.15471377D+00 0.10237463D+00 0.24745954D+06 0.24745954D+06 0.24745954D+06 0.10907930D+01  1  2  2  4  6  5        1 0.120624022106D-02 0.100000000000D+01
0.858371745444D-04 0.000000000000D+00 -.263595966723D-05 0.414476053953D-05 0.000000000000D+00  6 2 3 25 4 1 21 2 0.15471377D+00 0.10237463D+00 0.24745954D+06 0.24745954D+06 0.24745954D+06 0.10907930D+01  1  2  3  4  6  5        1 0.179480024506D-03 0.100000000000D+01
-.397928534599D-03 0.000000000000D+00 0.000000000000D+00 0.414476053953D-05 0.000000000000D+00  6 2 3 25 4 1 21 2 0.15471377D+00 0.10237463D+00 0.24745954D+06 0.24745954D+06 0.24745954D+06 0.10907930D+01  1  2 15  4  6  5        1 -.832043034038D-03 0.100000000000D+01
0.759711399603D-03 0.000000000000D+00 0.000000000000D+00 0.414476053953D-05 0.000000000000D+00  6 2 3 25 4 1 21 2 0.15471377D+00 0.10237463D+00 0.25852264D+06 0.25852264D+06 0.25852264D+06 0.10893656D+01  1  2 12  4  6  5        1 0.158163289009D-02 0.100000000000D+01
-.542027484307D-03 0.000000000000D+00 0.000000000000D+00 0.414476053953D-05 0.000000000000D+00  6 2 3 25 4 1 21 2 0.15471377D+00 0.10237463D+00 0.24745954D+06 0.24745954D+06 0.24745954D+06 0.10907930D+01  1  2  4  4  6  5        1 -.113334469223D-02 0.100000000000D+01
-.849067430151D-03 0.000000000000D+00 0.000000000000D+00 0.414476053953D-05 0.000000000000D+00  6 2 3 25 4 1 21 2 0.15471377D+00 0.10237463D+00 0.24745954D+06 0.24745954D+06 0.24745954D+06 0.10907930D+01  1  2  5  4  6  5        1 -.177534551876D-02 0.100000000000D+01
0.211721882518D-02 0.000000000000D+00 -.000000000000D+00 0.414476053953D-05 0.000000000000D+00  6 2 3 25 4 1 21 2 0.15471377D+00 0.10237463D+00 0.24745954D+06 0.24745954D+06 0.24745954D+06 0.10907930D+01  1  2  6  4  6  5        1 0.442696871891D-02 0.100000000000D+01
  </mgrwgt>
  </event>
  <event>
  5     66 0.17338086E-05 0.26655360E+03 0.75467711E-02 0.89489834E-01
        2 -1    0    0  502    0 0.00000000E+00 0.00000000E+00 0.33875683E+04 0.33875683E+04 0.32000000E+00 0.0000E+00 0.9000E+01
        3 -1    0    0  501    0 0.00000000E+00 0.00000000E+00 -.22883422E+03 0.22883476E+03 0.50000000E+00 0.0000E+00 0.9000E+01
       25  1    1    2    0    0 0.42077143E+03 0.46518633E+03 0.72152096E+03 0.96419107E+03 0.12500000E+03 0.0000E+00 0.9000E+01
        4  1    1    2  501    0 -.15643283E+03 -.56192874E+03 0.79491305E+03 0.98596364E+03 0.15500000E+01 0.0000E+00 0.9000E+01
        1  1    1    2  502    0 -.26433860E+03 0.96742405E+02 0.16423001E+04 0.16662484E+04 0.32000000E+00 0.0000E+00 0.9000E+01
#aMCatNLO 1  0  0  2  4 0.10338571D+03 0.00000000D+00  -5  6  0 0.00000000D+00 0.00000000D+00 0.00000000D+00 0.00000000D+00 0.00000000D+00
  <mgrwgt>
 0.4173312267D-04    9    2    0
 0.880450200519359D+03 0.000000000000000D+00 0.000000000000000D+00 0.880450200519359D+03
 0.880450200519359D+03 0.000000000000000D+00 0.000000000000000D+00 -.880450200519359D+03
 0.685940386569957D+03 0.420780391372596D+03 0.465251409344368D+03 -.247738172809816D+03
 0.599018806736835D+03 -.156489489048381D+03 -.561976356966686D+03 -.136077716222200D+03
 0.475941207731927D+03 -.264290902324215D+03 0.967249476223186D+02 0.383815889032016D+03
 0.000000000000000D+00 0.000000000000000D+00 0.000000000000000D+00 -.000000000000000D+00
 0.910897033388157D+03 0.000000000000000D+00 0.000000000000000D+00 0.910897033388157D+03
 0.974330417313638D+03 0.000000000000000D+00 0.000000000000000D+00 -.974330417313638D+03
 0.650716954513634D+03 0.390378428876939D+03 0.440497485681728D+03 -.247738172809816D+03
 0.628007826003337D+03 -.184397926404133D+03 -.584699999492939D+03 -.136077716222200D+03
 0.485207992312597D+03 -.286152018882925D+03 0.789251621462433D+02 0.383815889032016D+03
 0.121294677872227D+03 0.801715164101187D+02 0.652773516649679D+02 -.634333839254809D+02
0.281932188951D-04 0.000000000000D+00 0.000000000000D+00 0.142059035673D-07 0.000000000000D+00  6 2 3 25 4 1 21 0 0.52116440D+00 0.35205307D-01 0.56582960D+06 0.56582960D+06 0.56582960D+06 0.10647346D+01  1  2  2  2  6  2        3 0.184152742759D-04 0.100000000000D+01
0.831900073005D-06 0.000000000000D+00 -.108269384002D-06 0.142059035673D-07 0.000000000000D+00  6 2 3 25 4 1 21 2 0.52116440D+00 0.35205307D-01 0.56582960D+06 0.56582960D+06 0.56582960D+06 0.10647346D+01  1  2  3  2  6  2        3 0.616009574163D-06 0.100000000000D+01
-.192245164517D-04 0.000000000000D+00 0.000000000000D+00 0.142059035673D-07 0.000000000000D+00  6 2 3 25 4 1 21 2 0.52116440D+00 0.35205307D-01 0.56582960D+06 0.56582960D+06 0.56582960D+06 0.10647346D+01  1  2 15  2  6  2        3 -.142354671879D-04 0.100000000000D+01
0.663190267501D-04 0.000000000000D+00 0.000000000000D+00 0.142059035673D-07 0.000000000000D+00  6 2 3 25 4 1 21 2 0.52116440D+00 0.41190992D-01 0.65207507D+06 0.65207507D+06 0.65207507D+06 0.10604539D+01  1  2 12  2  6  2        3 0.354720461582D-04 0.100000000000D+01
-.230986593392D-04 0.000000000000D+00 0.000000000000D+00 0.142059035673D-07 0.000000000000D+00  6 2 3 25 4 1 21 2 0.52116440D+00 0.35205307D-01 0.56582960D+06 0.56582960D+06 0.56582960D+06 0.10647346D+01  1  2  4  2  6  2        3 -.171042121103D-04 0.100000000000D+01
-.204335559031D-03 0.000000000000D+00 -.427669912963D-04 0.142059035673D-07 0.000000000000D+00  6 2 3 25 4 1 21 2 0.52116440D+00 0.40865752D-01 0.56582960D+06 0.56582960D+06 0.56582960D+06 0.10647346D+01  1  2  5  2  6  2        3 -.113023463886D-03 0.100000000000D+01
0.208857209781D-03 0.000000000000D+00 0.422960108144D-04 0.142059035673D-07 0.000000000000D+00  6 2 3 25 4 1 21 2 0.52116440D+00 0.35205307D-01 0.56582960D+06 0.56582960D+06 0.56582960D+06 0.10647346D+01  1  2  6  2  6  2        3 0.154655643187D-03 0.100000000000D+01
0.156964376510D-05 0.000000000000D+00 0.000000000000D+00 0.142059035673D-07 0.000000000000D+00  6 2 21 25 4 1 -3 2 0.52116440D+00 0.41190992D-01 0.65207507D+06 0.65207507D+06 0.65207507D+06 0.10604539D+01  1  2 12  6  6  2        3 0.122738087847D-04 0.100000000000D+01
-.434469713119D-05 0.000000000000D+00 -.970789047295D-06 0.142059035673D-07 0.000000000000D+00  6 2 21 25 4 1 -3 2 0.52116440D+00 0.40865752D-01 0.56582960D+06 0.56582960D+06 0.56582960D+06 0.10647346D+01  1  2  5  6  6  2        3 -.353365161234D-04 0.100000000000D+01
  </mgrwgt>
  </event>
  <event>
  6     66 -.17338086E-05 0.13173409E+03 0.75467711E-02 0.94903525E-01
        2 -1    0    0  502    0 0.00000000E+00 0.00000000E+00 0.31991744E+04 0.31991744E+04 0.32000000E+00 0.0000E+00 0.9000E+01
        3 -1    0    0  501    0 0.00000000E+00 0.00000000E+00 -.13524582E+04 0.13524583E+04 0.50000000E+00 0.0000E+00 0.9000E+01
       25  1    1    2    0    0 0.20497966E+03 0.41186694E+03 0.13776962E+03 0.49624238E+03 0.12500000E+03 0.0000E+00 0.9000E+01
        4  1    1    2  503    0 -.40338719E+02 -.20469753E+03 -.91505604E+03 0.93854049E+03 0.15500000E+01 0.0000E+00 0.9000E+01
        1  1    1    2  502    0 -.14834097E+03 -.92729076E+02 0.28540422E+04 0.28593987E+04 0.32000000E+00 0.0000E+00 0.9000E+01
       21  1    1    2  501  503 -.16299968E+02 -.11444033E+03 -.23003962E+03 0.25745110E+03 0.75000000E+00 0.0000E+00 0.9000E+01
#aMCatNLO 2  0  0  4  2 0.48423365D+02 0.00000000D+00  -5  6  0 0.00000000D+00 0.00000000D+00 0.00000000D+00 0.00000000D+00 0.00000000D+00
  <mgrwgt>
 -.3030257396D-02    2    2    0
 0.208008408782869D+04 0.000000000000000D+00 0.000000000000000D+00 0.208008408782869D+04
 0.208008408782869D+04 -.000000000000000D+00 -.000000000000000D+00 -.208008408782869D+04
 0.481779637271411D+03 0.204991926783956D+03 0.411926224480062D+03 -.691499416368143D+02
 0.181513401866070D+04 -.567029224839827D+02 -.319501719151928D+03 -.178589331588986D+04
 0.186325451972526D+04 -.148289004299974D+03 -.924245053281349D+02 0.185504325752668D+04
 0.000000000000000D+00 0.000000000000000D+00 -.000000000000000D+00 0.000000000000000D+00
 0.208008408782869D+04 0.000000000000000D+00 0.000000000000000D+00 0.208008408782869D+04
 0.208008408782869D+04 -.000000000000000D+00 -.000000000000000D+00 -.208008408782869D+04
 0.481769691103088D+03 0.204977871885304D+03 0.411847029897397D+03 -.695926092888440D+02
 0.143274456170480D+04 -.403240592633022D+02 -.204604851563457D+03 -.141748643875555D+04
 0.186157038658602D+04 -.148343336792370D+03 -.927306504784345D+02 0.185333202236005D+04
 0.384083536263471D+03 -.163104758296321D+02 -.114511527855507D+03 -.366252974315652D+03
-.374098855390D+00 0.000000000000D+00 0.000000000000D+00 0.106846795717D-02 0.000000000000D+00  6 2 3 25 4 1 21 2 0.49218068D+00 0.20807050D+00 0.23807896D+06 0.23807896D+06 0.23807896D+06 0.10920590D+01  1  2 13  3  6  4        4 -.519109561422D-02 0.100000000000D+01
0.155721867622D+00 0.000000000000D+00 0.000000000000D+00 0.106846795717D-02 0.606841936092D-06  6 2 3 25 4 1 21 2 0.49218068D+00 0.20807050D+00 0.23807896D+06 0.23807896D+06 0.23807896D+06 0.10920590D+01  1  2  1  3  6  4        4 0.216083821804D-02 0.100000000000D+01
  </mgrwgt>
  </event>
  <event>
  5     66 0.17338086E-05 0.14871077E+03 0.75467711E-02 0.93356712E-01
        2 -1    0    0  502    0 0.00000000E+00 0.00000000E+00 0.12645925E+04 0.12645925E+04 0.32000000E+00 0.0000E+00 0.9000E+01
        3 -1    0    0  501    0 0.00000000E+00 0.00000000E+00 -.15907070E+04 0.15907071E+04 0.50000000E+00 0.0000E+00 0.9000E+01
       25  1    1    2    0    0 0.47454306E+03 -.18368333E+03 0.27211808E+03 0.59042691E+03 0.12500000E+03 0.0000E+00 0.9000E+01
        4  1    1    2  501    0 -.34474216E+03 0.11108896E+03 -.14017083E+04 0.14477488E+04 0.15500000E+01 0.0000E+00 0.9000E+01
        1  1    1    2  502    0 -.12980090E+03 0.72594377E+02 0.80347567E+03 0.81712390E+03 0.32000000E+00 0.0000E+00 0.9000E+01
#aMCatNLO 1  0  0  1  5 0.55439773D+02 0.00000000D+00  -5  6  0 0.00000000D+00 0.00000000D+00 0.00000000D+00 0.00000000D+00 0.00000000D+00
  <mgrwgt>
 0.5080728475D-02    9    2    0
 0.141830752668352D+04 0.000000000000000D+00 0.000000000000000D+00 0.141830752668352D+04
 0.141830752668352D+04 0.000000000000000D+00 0.000000000000000D+00 -.141830752668352D+04
 0.625654554756010D+03 0.474558461980979D+03 -.183686235683107D+03 0.341865843379766D+03
 0.129615061247736D+04 -.344767315558198D+03 0.111097312768008D+03 -.124450765182218D+04
 0.914809886133674D+03 -.129791146422781D+03 0.725889229150989D+02 0.902641808442414D+03
 0.000000000000000D+00 0.000000000000000D+00 -.000000000000000D+00 0.000000000000000D+00
 0.193651558305432D+04 0.000000000000000D+00 0.000000000000000D+00 0.193651558305432D+04
 0.142006194660665D+04 0.000000000000000D+00 0.000000000000000D+00 -.142006194660665D+04
 0.616509348871180D+03 0.465607271493040D+03 -.175489005663073D+03 0.341865843379766D+03
 0.130283392626938D+04 -.363495927469716D+03 0.128248410155727D+03 -.124450765182218D+04
 0.917813493429176D+03 -.142997262713245D+03 0.846826855324980D+02 0.902641808442414D+03
 0.519420761091233D+03 0.408859186899210D+02 -.374420900251524D+02 0.516453636447673D+03
0.120184758529D-02 0.000000000000D+00 0.000000000000D+00 0.116069179684D-03 0.000000000000D+00  6 2 3 25 4 1 21 0 0.19455269D+00 0.24472416D+00 0.26777084D+06 0.26777084D+06 0.26777084D+06 0.10882226D+01  1  2  2  1  6  1        2 0.889929632077D-04 0.100000000000D+01
0.177245952153D-03 0.000000000000D+00 -.461541118123D-05 0.116069179684D-03 0.000000000000D+00  6 2 3 25 4 1 21 2 0.19455269D+00 0.24472416D+00 0.26777084D+06 0.26777084D+06 0.26777084D+06 0.10882226D+01  1  2  3  1  6  1        2 0.155423994427D-04 0.100000000000D+01
-.849969583120D-03 0.000000000000D+00 0.000000000000D+00 0.116069179684D-03 0.000000000000D+00  6 2 3 25 4 1 21 2 0.19455269D+00 0.24472416D+00 0.26777084D+06 0.26777084D+06 0.26777084D+06 0.10882226D+01  1  2 15  1  6  1        2 -.745324032202D-04 0.100000000000D+01
0.931240273177D-01 0.000000000000D+00 0.000000000000D+00 0.116069179684D-03 0.000000000000D+00  6 2 3 25 4 1 21 2 0.29476670D+00 0.24472416D+00 0.31367213D+06 0.31367213D+06 0.31367213D+06 0.10831228D+01  1  2 12  1  6  1        2 0.349308799386D-02 0.100000000000D+01
-.372221663402D-01 0.000000000000D+00 0.000000000000D+00 0.116069179684D-03 0.000000000000D+00  6 2 3 25 4 1 21 2 0.19455269D+00 0.24472416D+00 0.26777084D+06 0.26777084D+06 0.26777084D+06 0.10882226D+01  1  2  4  1  6  1        2 -.326394916417D-02 0.100000000000D+01
-.138266489640D+00 0.000000000000D+00 -.107960480275D-02 0.116069179684D-03 0.000000000000D+00  6 2 3 25 4 1 21 2 0.26573920D+00 0.24472416D+00 0.26777084D+06 0.26777084D+06 0.26777084D+06 0.10882226D+01  1  2  5  1  6  1        2 -.673396089504D-02 0.100000000000D+01
0.132175808017D+00 0.000000000000D+00 0.102916676161D-02 0.116069179684D-03 0.000000000000D+00  6 2 3 25 4 1 21 2 0.19455269D+00 0.24472416D+00 0.26777084D+06 0.26777084D+06 0.26777084D+06 0.10882226D+01  1  2  6  1  6  1        2 0.115902743047D-01 0.100000000000D+01
0.455849152688D-02 0.000000000000D+00 0.000000000000D+00 0.116069179684D-03 0.000000000000D+00  6 21 3 25 4 1 -2 2 0.29476670D+00 0.24472416D+00 0.31367213D+06 0.31367213D+06 0.31367213D+06 0.10831228D+01  1  2 12  5  6  1        2 0.370591101544D-04 0.100000000000D+01
-.547010482627D-02 0.000000000000D+00 -.429119644160D-04 0.116069179684D-03 0.000000000000D+00  6 21 3 25 4 1 -2 2 0.26573920D+00 0.24472416D+00 0.26777084D+06 0.26777084D+06 0.26777084D+06 0.10882226D+01  1  2  5  5  6  1        2 -.717858344384D-04 0.100000000000D+01
  </mgrwgt>
  </event>
  <event>
  6     66 0.17338086E-05 0.42533093E+02 0.75467711E-02 0.93643235E-01
        2 -1    0    0  502    0 0.00000000E+00 0.00000000E+00 0.78518081E+03 0.78518088E+03 0.32000000E+00 0.0000E+00 0.9000E+01
        3 -1    0    0  503    0 0.00000000E+00 0.00000000E+00 -.34370072E+04 0.34370073E+04 0.50000000E+00 0.0000E+00 0.9000E+01
       25  1    1    2    0    0 -.90907772E+02 -.47103709E+03 0.41043775E+03 0.64360260E+03 0.12500000E+03 0.0000E+00 0.9000E+01
        4  1    1    2  501    0 0.10097171E+03 0.44307952E+03 -.28132047E+04 0.28496733E+04 0.15500000E+01 0.0000E+00 0.9000E+01
        1  1    1    2  502    0 -.69976721E+02 -.94551849E+01 0.23209554E+03 0.24259964E+03 0.32000000E+00 0.0000E+00 0.9000E+01
       21  1    1    2  503  501 0.59912784E+02 0.37412753E+02 -.48115497E+03 0.48631258E+03 0.75000000E+00 0.0000E+00 0.9000E+01
#aMCatNLO 2  0  0  2  4 0.70634664D+02 0.00000000D+00  -5  6  0 0.00000000D+00 0.00000000D+00 0.00000000D+00 0.00000000D+00 0.00000000D+00
  <mgrwgt>
 0.1938679171D-02    1    2    0
 0.151986532616393D+04 0.000000000000000D+00 0.000000000000000D+00 0.151986532616393D+04
 0.151986532616393D+04 0.000000000000000D+00 0.000000000000000D+00 -.151986532616393D+04
 0.107669758223043D+04 -.696590935098722D+02 -.457790736654001D+03 0.963964696296516D+03
 0.150083358616072D+04 0.130482936199165D+03 0.461545397891965D+03 -.142212921438020D+04
 0.462199483936709D+03 -.608238426892928D+02 -.375466123796367D+01 0.458164518083687D+03
 0.000000000000000D+00 0.000000000000000D+00 0.000000000000000D+00 -.000000000000000D+00
 0.152528461697745D+04 0.000000000000000D+00 0.000000000000000D+00 0.152528461697745D+04
 0.176928971558466D+04 0.000000000000000D+00 0.000000000000000D+00 -.176928971558466D+04
 0.108399565663085D+04 -.909497426878551D+02 -.471085758852375D+03 0.963964696296516D+03
 0.149298626222537D+04 0.100982974359296D+03 0.443124040974496D+03 -.142212921438020D+04
 0.463569296716441D+03 -.699460160613921D+02 -.945103509982266D+01 0.458164518083687D+03
 0.254023116989461D+03 0.599127843899511D+02 0.374127529777009D+02 -.244005098607210D+03
0.382490481880D+00 0.000000000000D+00 0.000000000000D+00 0.148464532227D-03 0.232073295234D-06  6 2 3 25 4 1 21 2 0.12079701D+00 0.52877016D+00 0.29784424D+06 0.29784424D+06 0.29784424D+06 0.10847837D+01  1  2  1  2  6  2        3 0.193867917139D-02 0.100000000000D+01
  </mgrwgt>
  </event>
  <event>
  6     66 0.17338086E-05 0.42588145E+02 0.75467711E-02 0.94553641E-01
        2 -1    0    0  502    0 0.00000000E+00 0.00000000E+00 0.14922674E+04 0.14922675E+04 0.32000000E+00 0.0000E+00 0.9000E+01
        3 -1    0    0  503    0 0.00000000E+00 0.00000000E+00 -.51684677E+03 0.51684701E+03 0.50000000E+00 0.0000E+00 0.9000E+01
       25  1    1    2    0    0 -.47835694E+03 0.91463809E+02 0.14168847E+03 0.52239028E+03 0.12500000E+03 0.0000E+00 0.9000E+01
        4  1    1    2  501    0 0.40531655E+02 -.45663524E+02 -.24054292E+03 0.24817589E+03 0.15500000E+01 0.0000E+00 0.9000E+01
        1  1    1    2  502    0 0.40445143E+03 -.30041558E+02 0.11132751E+04 0.11848481E+04 0.32000000E+00 0.0000E+00 0.9000E+01
       21  1    1    2  503  501 0.33373852E+02 -.15758727E+02 -.38999977E+02 0.53700207E+02 0.75000000E+00 0.0000E+00 0.9000E+01
#aMCatNLO 2  0  0  2  4 0.36907336D+02 0.00000000D+00  -5  6  0 0.00000000D+00 0.00000000D+00 0.00000000D+00 0.00000000D+00 0.00000000D+00
  <mgrwgt>
 0.3039691604D-03    2    2    0
 0.835648484553671D+03 0.000000000000000D+00 0.000000000000000D+00 0.835648484553671D+03
 0.835648484553671D+03 0.000000000000000D+00 0.000000000000000D+00 -.835648484553671D+03
 0.514847971322295D+03 -.467997324152463D+03 0.865520231967250D+02 -.151428813114847D+03
 0.437481810480798D+03 0.492433610643319D+02 -.497699300416515D+02 -.431843003829277D+03
 0.718967187304250D+03 0.418753963088131D+03 -.367820931550735D+02 0.583271816944124D+03
 0.000000000000000D+00 0.000000000000000D+00 -.000000000000000D+00 -.000000000000000D+00
 0.839987938317984D+03 0.000000000000000D+00 0.000000000000000D+00 0.839987938317984D+03
 0.918192826198954D+03 0.000000000000000D+00 0.000000000000000D+00 -.918192826198954D+03
 0.525134955177438D+03 -.478379681819208D+03 0.914544462035162D+02 -.151428813114847D+03
 0.436135853719108D+03 0.405218611025611D+02 -.456517438416843D+02 -.431843003829277D+03
 0.710433623836044D+03 0.404483968752414D+03 -.300439753995778D+02 0.583271816944124D+03
 0.864763317843477D+02 0.333738519642332D+02 -.157587269622541D+02 -.782048878809705D+02
-.742946272958D-06 0.000000000000D+00 0.000000000000D+00 0.277809229706D-04 0.000000000000D+00  6 2 3 25 4 1 21 2 0.22839316D+00 0.72366482D-01 0.24130454D+06 0.24130454D+06 0.24130454D+06 0.10916176D+01  1  2  8  2  6  2        3 -.183735503180D-05 0.100000000000D+01
0.154693232265D-03 0.000000000000D+00 0.000000000000D+00 0.277809229706D-04 0.223482414903D-07  6 2 3 25 4 1 21 2 0.22957918D+00 0.79514755D-01 0.25319787D+06 0.25319787D+06 0.25319787D+06 0.10900441D+01  1  2  1  2  6  2        3 0.305806515407D-03 0.100000000000D+01
  </mgrwgt>
  </event>
  <event>
  5     66 0.17338086E-05 0.17447930E+03 0.75467711E-02 0.92753476E-01
        2 -1    0    0  502    0 0.00000000E+00 0.00000000E+00 0.17135127E+04 0.17135128E+04 0.32000000E+00 0.0000E+00 0.9000E+01
        3 -1    0    0  501    0 0.00000000E+00 0.00000000E+00 -.22905843E+04 0.22905844E+04 0.50000000E+00 0.0000E+00 0.9000E+01
       25  1    1    2    0    0 0.40651838E+03 0.41204560E+03 -.16762345E+03 0.61543594E+03 0.12500000E+03 0.0000E+00 0.9000E+01
        4  1    1    2  501    0 -.89072285E+02 -.15003194E+03 -.18664734E+04 0.18746117E+04 0.15500000E+01 0.0000E+00 0.9000E+01
        1  1    1    2  502    0 -.31744610E+03 -.26201366E+03 0.14570253E+04 0.15140495E+04 0.32000000E+00 0.0000E+00 0.9000E+01
#aMCatNLO 1  0  0  2  4 0.37847940D+01 0.00000000D+00  -5  6  0 0.00000000D+00 0.00000000D+00 0.00000000D+00 0.00000000D+00 0.00000000D+00
  <mgrwgt>
 0.2507134013D-02    9    2    0
 0.198114753899455D+04 0.000000000000000D+00 0.000000000000000D+00 0.198114753899455D+04
 0.198114753899455D+04 0.000000000000000D+00 0.000000000000000D+00 -.198114753899455D+04
 0.597517376547268D+03 0.406518793093954D+03 0.412045228332691D+03 -.797697683688832D+02
 0.162254777494010D+04 -.890717829123186D+02 -.150030814467605D+03 -.161313925442352D+04
 0.174222992650174D+04 -.317447010181636D+03 -.262014413865086D+03 0.169290902279241D+04
 0.000000000000000D+00 -.000000000000000D+00 0.000000000000000D+00 -.000000000000000D+00
 0.198130408404662D+04 0.000000000000000D+00 0.000000000000000D+00 0.198130408404662D+04
 0.200415755261007D+04 0.000000000000000D+00 0.000000000000000D+00 -.200415755261007D+04
 0.597246058864090D+03 0.406675755469407D+03 0.411496620637946D+03 -.797697683688832D+02
 0.162266289287136D+04 -.886454424668662D+02 -.151520940036116D+03 -.161313925442352D+04
 0.174238793387551D+04 -.316989217550310D+03 -.263614469670936D+03 0.169290902279241D+04
 0.231647510457237D+02 -.104109545223107D+01 0.363878906910489D+01 -.228534685634427D+02
0.116591052630D-01 0.000000000000D+00 0.000000000000D+00 0.277616892828D-03 0.000000000000D+00  6 2 3 25 4 1 21 0 0.26361735D+00 0.35239760D+00 0.34707397D+06 0.34707397D+06 0.34707397D+06 0.10798994D+01  1  2  2  2  6  2        3 0.519578600161D-04 0.100000000000D+01
0.218696264497D-02 0.000000000000D+00 -.447740341230D-04 0.277616892828D-03 0.000000000000D+00  6 2 3 25 4 1 21 2 0.26361735D+00 0.35239760D+00 0.34707397D+06 0.34707397D+06 0.34707397D+06 0.10798994D+01  1  2  3  2  6  2        3 0.113656433762D-04 0.100000000000D+01
-.786122239023D-02 0.000000000000D+00 0.000000000000D+00 0.277616892828D-03 0.000000000000D+00  6 2 3 25 4 1 21 2 0.26361735D+00 0.35239760D+00 0.34707397D+06 0.34707397D+06 0.34707397D+06 0.10798994D+01  1  2 15  2  6  2        3 -.408547674074D-04 0.100000000000D+01
-.128717143592D+01 0.000000000000D+00 0.000000000000D+00 0.277616892828D-03 0.000000000000D+00  6 2 3 25 4 1 21 2 0.26361735D+00 0.35239760D+00 0.34707397D+06 0.34707397D+06 0.34707397D+06 0.10798994D+01  1  2  4  2  6  2        3 -.668942907571D-02 0.100000000000D+01
-.104969313640D+02 0.000000000000D+00 -.141345011820D+00 0.277616892828D-03 0.000000000000D+00  6 2 3 25 4 1 21 2 0.26361735D+00 0.35649956D+00 0.34707397D+06 0.34707397D+06 0.34707397D+06 0.10798994D+01  1  2  5  2  6  2        3 -.510909021879D-01 0.100000000000D+01
0.104978735928D+02 0.000000000000D+00 0.141335546967D+00 0.277616892828D-03 0.000000000000D+00  6 2 3 25 4 1 21 2 0.26361735D+00 0.35239760D+00 0.34707397D+06 0.34707397D+06 0.34707397D+06 0.10798994D+01  1  2  6  2  6  2        3 0.545574419114D-01 0.100000000000D+01
0.127078558278D+01 0.000000000000D+00 0.000000000000D+00 0.277616892828D-03 0.218295847240D-04  6 2 3 25 4 1 21 2 0.26363818D+00 0.35649051D+00 0.35017179D+06 0.35017179D+06 0.35017179D+06 0.10796178D+01  1  2 11  2  6  2        3 0.617682434919D-02 0.100000000000D+01
-.239203691759D-01 0.000000000000D+00 -.301452320947D-03 0.277616892828D-03 0.000000000000D+00  6 2 21 25 4 1 -3 2 0.26361735D+00 0.35649956D+00 0.34707397D+06 0.34707397D+06 0.34707397D+06 0.10798994D+01  1  2  5  6  6  2        3 -.293388357053D-02 0.100000000000D+01
0.201313313294D-01 0.000000000000D+00 0.000000000000D+00 0.277616892828D-03 0.251200326345D-06  6 2 21 25 4 1 -3 2 0.26363818D+00 0.35649051D+00 0.35017179D+06 0.35017179D+06 0.35017179D+06 0.10796178D+01  1  2 11  6  6  2        3 0.246461385018D-02 0.100000000000D+01
  </mgrwgt>
  </event>
  <event>
  6     66 0.17338086E-05 0.84208684E+02 0.75467711E-02 0.93722843E-01
        2 -1    0    0  503    0 0.00000000E+00 0.00000000E+00 0.98645640E+03 0.98645645E+03 0.32000000E+00 0.0000E+00 0.9000E+01
        3 -1    0    0  501    0 0.00000000E+00 0.00000000E+00 -.12770731E+04 0.12770732E+04 0.50000000E+00 0.0000E+00 0.9000E+01
       25  1    1    2    0    0 -.34517135E+03 -.38020390E+03 -.37077094E+03 0.64559613E+03 0.12500000E+03 0.0000E+00 0.9000E+01
        4  1    1    2  501    0 0.12197357E+03 0.27777790E+03 -.71141117E+03 0.77339923E+03 0.15500000E+01 0.0000E+00 0.9000E+01
        1  1    1    2  502    0 0.11329989E+03 0.82369624E+02 0.21063790E+03 0.25296255E+03 0.32000000E+00 0.0000E+00 0.9000E+01
       21  1    1    2  503  502 0.10989789E+03 0.20056374E+02 0.58092751E+03 0.59157175E+03 0.75000000E+00 0.0000E+00 0.9000E+01
#aMCatNLO 2  0  0  1  5 0.11171304D+03 0.00000000D+00  -5  6  0 0.00000000D+00 0.00000000D+00 0.00000000D+00 0.00000000D+00 0.00000000D+00
  <mgrwgt>
 0.1041093150D-02    2    2    0
 0.711226778967102D+03 0.000000000000000D+00 0.000000000000000D+00 0.711226778967102D+03
 0.711226778967102D+03 0.000000000000000D+00 0.000000000000000D+00 -.711226778967102D+03
 0.499646254016701D+03 -.305461337931937D+03 -.372972705978103D+03 -.400763119201899D+02
 0.486537796686556D+03 0.158949906275855D+03 0.284547256987101D+03 -.361229585500167D+03
 0.436269507230946D+03 0.146511431656082D+03 0.884254489910014D+02 0.401305897420356D+03
 0.000000000000000D+00 0.000000000000000D+00 0.000000000000000D+00 0.000000000000000D+00
 0.175847680730709D+04 0.000000000000000D+00 0.000000000000000D+00 0.175847680730709D+04
 0.716402193726835D+03 0.000000000000000D+00 0.000000000000000D+00 -.716402193726835D+03
 0.530043361917113D+03 -.345176786891032D+03 -.380220778662679D+03 -.400763119201899D+02
 0.471743484219346D+03 0.121988699023356D+03 0.277801833639333D+03 -.361229585500167D+03
 0.425046686133085D+03 0.113290198008727D+03 0.823625711321784D+02 0.401305897420356D+03
 0.104804546876438D+04 0.109897889858949D+03 0.200563738911680D+02 0.104207461358026D+04
-.254837856882D-02 0.000000000000D+00 0.000000000000D+00 0.145655370110D-05 0.000000000000D+00  6 2 3 25 4 1 21 2 0.16330245D+00 0.19505341D+00 0.29360695D+06 0.29360695D+06 0.29360695D+06 0.10852447D+01  1  2 13  1  6  1        2 -.747211494363D-03 0.100000000000D+01
0.563173901737D-02 0.000000000000D+00 0.000000000000D+00 0.145655370110D-05 0.337616079714D-08  6 2 3 25 4 1 21 2 0.15176251D+00 0.19647276D+00 0.29360695D+06 0.29360695D+06 0.29360695D+06 0.10852447D+01  1  2  1  1  6  1        2 0.178830464395D-02 0.100000000000D+01
  </mgrwgt>
  </event>
  <event>
  6     66 0.17338086E-05 0.31854241E+02 0.75467711E-02 0.94948234E-01
        2 -1    0    0  502    0 0.00000000E+00 0.00000000E+00 0.78260611E+03 0.78260617E+03 0.32000000E+00 0.0000E+00 0.9000E+01
        3 -1    0    0  501    0 -.00000000E+00 -.00000000E+00 -.11263465E+04 0.11263466E+04 0.50000000E+00 0.0000E+00 0.9000E+01
       25  1    1    2    0    0 -.38925496E+03 -.25867700E+03 0.38687169E+03 0.61945776E+03 0.12500000E+03 0.0000E+00 0.9000E+01
        4  1    1    2  503    0 0.32337790E+03 0.24050518E+03 -.91266431E+03 0.99768459E+03 0.15500000E+01 0.0000E+00 0.9000E+01
        1  1    1    2  502    0 0.17926350E+02 0.30734431E+02 0.22403766E+03 0.22684561E+03 0.32000000E+00 0.0000E+00 0.9000E+01
       21  1    1    2  501  503 0.47950713E+02 -.12562605E+02 -.41985431E+02 0.64964828E+02 0.75000000E+00 0.0000E+00 0.9000E+01
#aMCatNLO 2  0  0  4  1 0.92497613D+02 0.00000000D+00  -5  6  0 0.00000000D+00 0.00000000D+00 0.00000000D+00 0.00000000D+00 0.00000000D+00
  <mgrwgt>
 0.2567116210D-02    2    2    0
 0.938874765921568D+03 0.000000000000000D+00 0.000000000000000D+00 0.938874765921568D+03
 0.938874765921568D+03 -.000000000000000D+00 -.000000000000000D+00 -.938874765921568D+03
 0.706348493929505D+03 -.391746685833644D+03 -.260194901941223D+03 0.511992521447954D+03
 0.898113906465978D+03 0.374780630479543D+03 0.230063019214634D+03 -.783083057660414D+03
 0.273287131447653D+03 0.169660553541009D+02 0.301318827265894D+02 0.271090536212460D+03
 0.000000000000000D+00 0.000000000000000D+00 0.000000000000000D+00 0.000000000000000D+00
 0.938874765921568D+03 0.000000000000000D+00 0.000000000000000D+00 0.938874765921568D+03
 0.938874765921568D+03 -.000000000000000D+00 -.000000000000000D+00 -.938874765921568D+03
 0.700719765881115D+03 -.389293465491906D+03 -.258688966914920D+03 0.506866655461057D+03
 0.847158987766940D+03 0.323364949104822D+03 0.240553559794650D+03 -.745149277067934D+03
 0.271445165757791D+03 0.179157948873385D+02 0.307148902961230D+02 0.269106108851001D+03
 0.584256124372892D+02 0.480127214997455D+02 -.125794831758525D+02 -.308234872441235D+02
-.143507339438D-02 0.000000000000D+00 0.000000000000D+00 0.708930497864D-04 0.000000000000D+00  6 2 3 25 4 1 21 2 0.12040095D+00 0.17328409D+00 0.23085786D+06 0.23085786D+06 0.23085786D+06 0.10930713D+01  1  2  8  3  6  4        4 -.985833448780D-03 0.100000000000D+01
0.518533983510D-02 0.000000000000D+00 0.000000000000D+00 0.708930497864D-04 0.589359627569D-07  6 2 3 25 4 1 21 2 0.12040095D+00 0.17328409D+00 0.23622109D+06 0.23622109D+06 0.23622109D+06 0.10923162D+01  1  2  1  3  6  4        4 0.355294965835D-02 0.100000000000D+01
  </mgrwgt>
  </event>
  <event>
  5     66 0.17338086E-05 0.19721526E+02 0.75467711E-02 0.86823134E-01
        2 -1    0    0  502    0 0.00000000E+00 0.00000000E+00 0.27108408E+04 0.27108408E+04 0.32000000E+00 0.0000E+00 0.9000E+01
        3 -1    0    0  501    0 0.00000000E+00 0.00000000E+00 -.71814354E+03 0.71814371E+03 0.50000000E+00 0.0000E+00 0.9000E+01
       25  1    1    2    0    0 -.60562748E+02 -.10360084E+04 0.90785617E+03 0.13844887E+04 0.12500000E+03 0.0000E+00 0.9000E+01
        4  1    1    2  501    0 0.53298574E+02 0.10543508E+04 0.10106828E+03 0.10605251E+04 0.15500000E+01 0.0000E+00 0.9000E+01
        1  1    1    2  502    0 0.72641739E+01 -.18342411E+02 0.98377279E+03 0.98397064E+03 0.32000000E+00 0.0000E+00 0.9000E+01
#aMCatNLO 1  0  0  4  5 0.34518035D+02 0.00000000D+00  -5  6  0 0.00000000D+00 0.00000000D+00 0.00000000D+00 0.00000000D+00 0.00000000D+00
  <mgrwgt>
 0.1295276647D-03    6    2    0
 0.139526811910920D+04 0.000000000000000D+00 0.000000000000000D+00 0.139526811910920D+04
 0.139526811910920D+04 -.000000000000000D+00 -.000000000000000D+00 -.139526811910920D+04
 0.105307732111420D+04 -.605667045690217D+02 -.103611894078614D+04 0.127027788640618D+03
 0.123104678022762D+04 0.533050848054097D+02 0.105445490196959D+04 -.633055765912422D+03
 0.506412136876582D+03 0.726161976361201D+01 -.183359611834570D+02 0.506027977271804D+03
 0.000000000000000D+00 0.000000000000000D+00 0.000000000000000D+00 -.000000000000000D+00
 0.139526811910920D+04 0.000000000000000D+00 0.000000000000000D+00 0.139526811910920D+04
 0.139526811910920D+04 -.000000000000000D+00 -.000000000000000D+00 -.139526811910920D+04
 0.104558475162409D+04 -.602088399418763D+02 -.102903983920113D+04 0.122777757589030D+03
 0.120215312939228D+04 0.710985698117556D+02 0.104337787203136D+04 -.592857281336480D+03
 0.504257058047310D+03 0.743395944578717D+01 -.149268225743192D+02 0.503981256402777D+03
 0.385412991547123D+02 -.183236893156664D+02 0.588789744083995D+00 -.339017326553263D+02
0.101665215580D-02 0.000000000000D+00 0.000000000000D+00 0.118026799775D-04 0.000000000000D+00  6 2 3 25 4 1 21 0 0.41705244D+00 0.11048364D+00 0.11245656D+07 0.11245656D+07 0.11245656D+07 0.10444868D+01  1  2  2  3  6  4        4 0.144217318272D-03 0.100000000000D+01
0.917683504494D-03 0.000000000000D+00 -.390421196892D-05 0.118026799775D-04 0.000000000000D+00  6 2 3 25 4 1 21 2 0.41705244D+00 0.11048364D+00 0.11245656D+07 0.11245656D+07 0.11245656D+07 0.10444868D+01  1  2  3  3  6  4        4 0.142018165610D-03 0.100000000000D+01
-.713508960854D-03 0.000000000000D+00 0.000000000000D+00 0.118026799775D-04 0.000000000000D+00  6 2 3 25 4 1 21 2 0.41705244D+00 0.11048364D+00 0.11245656D+07 0.11245656D+07 0.11245656D+07 0.10444868D+01  1  2 15  3  6  4        4 -.110420676922D-03 0.100000000000D+01
-.809061867309D-03 0.000000000000D+00 0.000000000000D+00 0.118026799775D-04 0.000000000000D+00  6 2 3 25 4 1 21 2 0.41705244D+00 0.11048364D+00 0.11245656D+07 0.11245656D+07 0.11245656D+07 0.10444868D+01  1  2  4  3  6  4        4 -.125208180922D-03 0.100000000000D+01
-.160379066545D-01 0.000000000000D+00 0.000000000000D+00 0.118026799775D-04 0.000000000000D+00  6 2 3 25 4 1 21 2 0.41705244D+00 0.11048364D+00 0.11245656D+07 0.11245656D+07 0.11245656D+07 0.10444868D+01  1  2  5  3  6  4        4 -.248198215630D-02 0.100000000000D+01
0.165478733550D-01 0.000000000000D+00 -.000000000000D+00 0.118026799775D-04 0.000000000000D+00  6 2 3 25 4 1 21 2 0.41705244D+00 0.11048364D+00 0.11245656D+07 0.11245656D+07 0.11245656D+07 0.10444868D+01  1  2  6  3  6  4        4 0.256090319495D-02 0.100000000000D+01
  </mgrwgt>
  </event>
  <event>
  5     66 0.17338086E-05 0.68611878E+02 0.75467711E-02 0.93461903E-01
        2 -1    0    0  502    0 0.00000000E+00 0.00000000E+00 0.24670072E+04 0.24670072E+04 0.32000000E+00 0.0000E+00 0.9000E+01
        3 -1    0    0  501    0 0.00000000E+00 0.00000000E+00 -.51127042E+03 0.51127067E+03 0.50000000E+00 0.0000E+00 0.9000E+01
       25  1    1    2    0    0 0.44795382E+03 0.27705106E+03 0.42359829E+03 0.68737212E+03 0.12500000E+03 0.0000E+00 0.9000E+01
        4  1    1    2  501    0 -.63358843E+02 0.26337875E+02 -.34456038E+03 0.35132931E+03 0.15500000E+01 0.0000E+00 0.9000E+01
        1  1    1    2  502    0 -.38459498E+03 -.30338894E+03 0.18766989E+04 0.19395765E+04 0.32000000E+00 0.0000E+00 0.9000E+01
#aMCatNLO 1  0  0  5  1 0.46004077D+02 0.00000000D+00  -5  6  0 0.00000000D+00 0.00000000D+00 0.00000000D+00 0.00000000D+00 0.00000000D+00
  <mgrwgt>
 0.1793330148D-02    7    2    0
 0.112307978663140D+04 0.000000000000000D+00 0.000000000000000D+00 0.112307978663140D+04
 0.112307978663140D+04 -.000000000000000D+00 -.000000000000000D+00 -.112307978663140D+04
 0.542600488175740D+03 0.447959797332464D+03 0.277059974399880D+03 -.368792669117356D+02
 0.765818408760586D+03 -.633563083539786D+02 0.263356784452787D+02 -.762738648181130D+03
 0.937740676326470D+03 -.384603488978485D+03 -.303395652845159D+03 0.799617915092866D+03
 0.000000000000000D+00 -.000000000000000D+00 0.000000000000000D+00 0.000000000000000D+00
 0.112307978663140D+04 0.000000000000000D+00 0.000000000000000D+00 0.112307978663140D+04
 0.112307978663140D+04 -.000000000000000D+00 -.000000000000000D+00 -.112307978663140D+04
 0.541353746610936D+03 0.447047275850520D+03 0.276340129004081D+03 -.349820700693262D+02
 0.763226569558678D+03 -.646435272648856D+02 0.253202518227420D+02 -.760062428824563D+03
 0.803414251011344D+03 -.291299222353830D+03 -.284456717031608D+03 0.692606380218788D+03
 0.138165006081839D+03 -.911045262318046D+02 -.172036637952142D+02 0.102438118675101D+03
0.274427149030D-03 0.000000000000D+00 0.000000000000D+00 0.925069276038D-04 0.000000000000D+00  6 2 3 25 4 1 21 0 0.37953959D+00 0.78657009D-01 0.30240304D+06 0.30240304D+06 0.30240304D+06 0.10842956D+01  1  2  2  4  6  5        1 0.134107245316D-03 0.100000000000D+01
0.962459199653D-04 0.000000000000D+00 -.105387251060D-05 0.925069276038D-04 0.000000000000D+00  6 2 3 25 4 1 21 2 0.37953959D+00 0.78657009D-01 0.30240304D+06 0.30240304D+06 0.30240304D+06 0.10842956D+01  1  2  3  4  6  5        1 0.552971687856D-04 0.100000000000D+01
-.195905286335D-03 0.000000000000D+00 0.000000000000D+00 0.925069276038D-04 0.000000000000D+00  6 2 3 25 4 1 21 2 0.37953959D+00 0.78657009D-01 0.30240304D+06 0.30240304D+06 0.30240304D+06 0.10842956D+01  1  2 15  4  6  5        1 -.112555500414D-03 0.100000000000D+01
0.533954380919D-02 0.000000000000D+00 0.000000000000D+00 0.925069276038D-04 0.000000000000D+00  6 2 3 25 4 1 21 2 0.37953959D+00 0.78657009D-01 0.30775428D+06 0.30775428D+06 0.30775428D+06 0.10837329D+01  1  2 12  4  6  5        1 0.306109978848D-02 0.100000000000D+01
-.334024798894D-02 0.000000000000D+00 0.000000000000D+00 0.925069276038D-04 0.000000000000D+00  6 2 3 25 4 1 21 2 0.37953959D+00 0.78657009D-01 0.30240304D+06 0.30240304D+06 0.30240304D+06 0.10842956D+01  1  2  4  4  6  5        1 -.191910739589D-02 0.100000000000D+01
-.632630319291D-02 0.000000000000D+00 0.000000000000D+00 0.925069276038D-04 0.000000000000D+00  6 2 3 25 4 1 21 2 0.37953959D+00 0.78657009D-01 0.30240304D+06 0.30240304D+06 0.30240304D+06 0.10842956D+01  1  2  5  4  6  5        1 -.363471672953D-02 0.100000000000D+01
0.732621346482D-02 0.000000000000D+00 -.000000000000D+00 0.925069276038D-04 0.000000000000D+00  6 2 3 25 4 1 21 2 0.37953959D+00 0.78657009D-01 0.30240304D+06 0.30240304D+06 0.30240304D+06 0.10842956D+01  1  2  6  4  6  5        1 0.420920557120D-02 0.100000000000D+01
  </mgrwgt>
  </event>
  <event>
  5     66 0.17338086E-05 0.13234512E+03 0.75467711E-02 0.95373432E-01
        2 -1    0    0  502    0 0.00000000E+00 0.00000000E+00 0.24973253E+04 0.24973253E+04 0.32000000E+00 0.0000E+00 0.9000E+01
        3 -1    0    0  501    0 0.00000000E+00 0.00000000E+00 -.20289483E+03 0.20289545E+03 0.50000000E+00 0.0000E+00 0.9000E+01
       25  1    1    2    0    0 -.60449065E+02 0.45509980E+03 0.73759318E+03 0.87774633E+03 0.12500000E+03 0.0000E+00 0.9000E+01
        4  1    1    2  501    0 0.25259747E+02 -.32750599E+03 0.77856536E+02 0.33758299E+03 0.15500000E+01 0.0000E+00 0.9000E+01
        1  1    1    2  502    0 0.35189318E+02 -.12759380E+03 0.14789808E+04 0.14848915E+04 0.32000000E+00 0.0000E+00 0.9000E+01
#aMCatNLO 1  0  0  1  5 0.54019578D+02 0.00000000D+00  -5  6  0 0.00000000D+00 0.00000000D+00 0.00000000D+00 0.00000000D+00 0.00000000D+00
  <mgrwgt>
 0.1718466500D-04    1    2    0
 0.711825300840870D+03 0.000000000000000D+00 0.000000000000000D+00 0.711825300840870D+03
 0.711825300840870D+03 0.000000000000000D+00 0.000000000000000D+00 -.711825300840870D+03
 0.476082696950604D+03 -.604490718860330D+02 0.455118183292765D+03 -.155911282520381D+02
 0.514835893526895D+03 0.252630030227736D+02 -.327536162341111D+03 -.396406155730161D+03
 0.432732011204241D+03 0.351860688632594D+02 -.127582020951653D+03 0.411997283982199D+03
 0.000000000000000D+00 0.000000000000000D+00 0.000000000000000D+00 0.000000000000000D+00
 0.780477291067294D+03 0.000000000000000D+00 0.000000000000000D+00 0.780477291067294D+03
 0.712459286721415D+03 0.000000000000000D+00 0.000000000000000D+00 -.712459286721415D+03
 0.476150060993994D+03 -.647268717746691D+02 0.454600076302984D+03 -.155911282520381D+02
 0.514986422235097D+03 0.206366406644877D+02 -.328096485576767D+03 -.396406155730161D+03
 0.432572425541003D+03 0.312987848013930D+02 -.128052830502392D+03 0.411997283982199D+03
 0.692276690186138D+02 0.127914463087884D+02 0.154923977617441D+01 0.680180043458792D+02
0.454899284143D-05 0.000000000000D+00 0.000000000000D+00 0.440588764463D-05 0.000000000000D+00  6 2 3 25 4 1 21 2 0.38420394D+00 0.31214638D-01 0.21934303D+06 0.21934303D+06 0.21934303D+06 0.10947593D+01  1  2 14  1  6  1        2 0.171846649971D-04 0.100000000000D+01
  </mgrwgt>
  </event>
  <event>
  5     66 0.17338086E-05 0.37767553E+02 0.75467711E-02 0.91696661E-01
        2 -1    0    0  502    0 0.00000000E+00 0.00000000E+00 0.16284254E+04 0.16284254E+04 0.32000000E+00 0.0000E+00 0.9000E+01
        3 -1    0    0  501    0 0.00000000E+00 0.00000000E+00 -.10181347E+04 0.10181348E+04 0.50000000E+00 0.0000E+00 0.9000E+01
       25  1    1    2    0    0 0.12691641E+03 -.58000811E+03 0.34994247E+03 0.70042981E+03 0.12500000E+03 0.0000E+00 0.9000E+01
        4  1    1    2  501    0 -.97699519E+02 0.60394648E+03 -.73146780E+03 0.95359535E+03 0.15500000E+01 0.0000E+00 0.9000E+01
        1  1    1    2  502    0 -.29216890E+02 -.23938369E+02 0.99181603E+03 0.99253504E+03 0.32000000E+00 0.0000E+00 0.9000E+01
#aMCatNLO 1  0  0  4  4 0.34047115D+02 0.00000000D+00  -5  6  0 0.00000000D+00 0.00000000D+00 0.00000000D+00 0.00000000D+00 0.00000000D+00
  <mgrwgt>
 0.2579176234D-02    6    2    0
 0.128761661458421D+04 0.000000000000000D+00 0.000000000000000D+00 0.128761661458421D+04
 0.128761661458421D+04 -.000000000000000D+00 -.000000000000000D+00 -.128761661458421D+04
 0.636964681412611D+03 0.126922216594529D+03 -.580057859635975D+03 0.193707603816506D+03
 0.115336636349864D+04 -.977082362605122D+02 0.603993845125072D+03 -.977700620879403D+03
 0.784902184257169D+03 -.292139803340168D+02 -.239359854890979D+02 0.783993017062897D+03
 0.000000000000000D+00 0.000000000000000D+00 -.000000000000000D+00 0.000000000000000D+00
 0.128761661458421D+04 0.000000000000000D+00 0.000000000000000D+00 0.128761661458421D+04
 0.128761661458421D+04 -.000000000000000D+00 -.000000000000000D+00 -.128761661458421D+04
 0.601575031819851D+03 0.122838328026864D+03 -.554812868492445D+03 0.152842876941661D+03
 0.113973504407076D+04 -.692040244503263D+02 0.614997336959386D+03 -.957071078455368D+03
 0.734686612553360D+03 -.342245837474917D+02 0.703759194845310D+01 0.733855277852527D+03
 0.992365407244493D+02 -.194097198290458D+02 -.672220604153941D+02 0.703729236611806D+02
0.126687547644D-01 0.000000000000D+00 0.000000000000D+00 0.171640085589D-03 0.000000000000D+00  6 2 3 25 4 1 21 0 0.25052699D+00 0.15663612D+00 0.39464120D+06 0.39464120D+06 0.39464120D+06 0.10758501D+01  1  2  2  3  6  4        4 0.304752748314D-02 0.100000000000D+01
0.730316795128D-02 0.000000000000D+00 -.486513540552D-04 0.171640085589D-03 0.000000000000D+00  6 2 3 25 4 1 21 2 0.25052699D+00 0.15663612D+00 0.39464120D+06 0.39464120D+06 0.39464120D+06 0.10758501D+01  1  2  3  3  6  4        4 0.203342685027D-02 0.100000000000D+01
-.886921686899D-02 0.000000000000D+00 0.000000000000D+00 0.171640085589D-03 0.000000000000D+00  6 2 3 25 4 1 21 2 0.25052699D+00 0.15663612D+00 0.39464120D+06 0.39464120D+06 0.39464120D+06 0.10758501D+01  1  2 15  3  6  4        4 -.246946309363D-02 0.100000000000D+01
-.437715663228D-04 0.000000000000D+00 0.000000000000D+00 0.171640085589D-03 0.000000000000D+00  6 2 3 25 4 1 21 2 0.25052699D+00 0.15663612D+00 0.39464120D+06 0.39464120D+06 0.39464120D+06 0.10758501D+01  1  2  4  3  6  4        4 -.121873519592D-04 0.100000000000D+01
0.805658539035D-03 0.000000000000D+00 0.000000000000D+00 0.171640085589D-03 0.000000000000D+00  6 2 3 25 4 1 21 2 0.25052699D+00 0.15663612D+00 0.39464120D+06 0.39464120D+06 0.39464120D+06 0.10758501D+01  1  2  5  3  6  4        4 0.224320146593D-03 0.100000000000D+01
-.877948150075D-03 0.000000000000D+00 0.000000000000D+00 0.171640085589D-03 0.000000000000D+00  6 2 3 25 4 1 21 2 0.25052699D+00 0.15663612D+00 0.39464120D+06 0.39464120D+06 0.39464120D+06 0.10758501D+01  1  2  6  3  6  4        4 -.244447800382D-03 0.100000000000D+01
  </mgrwgt>
  </event>
  <event>
  6     66 0.17338086E-05 0.83495922E+02 0.75467711E-02 0.92298552E-01
        2 -1    0    0  503    0 0.00000000E+00 0.00000000E+00 0.14960370E+04 0.14960370E+04 0.32000000E+00 0.0000E+00 0.9000E+01
        3 -1    0    0  501    0 0.00000000E+00 0.00000000E+00 -.12477495E+04 0.12477496E+04 0.50000000E+00 0.0000E+00 0.9000E+01
       25  1    1    2    0    0 0.51685523E+03 -.16727482E+03 -.35810252E+03 0.66255763E+03 0.12500000E+03 0.0000E+00 0.9000E+01
        4  1    1    2  501    0 -.11060216E+02 -.21131467E+02 -.64836340E+03 0.64880380E+03 0.15500000E+01 0.0000E+00 0.9000E+01
        1  1    1    2  502    0 -.48166330E+03 0.28072203E+03 0.84956087E+03 0.10161487E+04 0.32000000E+00 0.0000E+00 0.9000E+01
       21  1    1    2  503  502 -.24131713E+02 -.92315744E+02 0.40519254E+03 0.41627647E+03 0.75000000E+00 0.0000E+00 0.9000E+01
#aMCatNLO 2  0  0  1  1 0.95417693D+02 0.00000000D+00  -5  6  0 0.00000000D+00 0.00000000D+00 0.00000000D+00 0.00000000D+00 0.00000000D+00
  <mgrwgt>
 0.6254293486D-02    1    2    0
 0.116012710769574D+04 0.000000000000000D+00 0.000000000000000D+00 0.116012710769574D+04
 0.116012710769574D+04 0.000000000000000D+00 0.000000000000000D+00 -.116012710769574D+04
 0.641836042571995D+03 0.510214865881148D+03 -.192786177562280D+03 -.314392725614456D+03
 0.607746615372164D+03 -.173692127341538D+02 -.452648839835473D+02 -.605809664187749D+03
 0.107067155744732D+04 -.492845653146994D+03 0.238051061545827D+03 0.920202389802205D+03
 0.000000000000000D+00 -.000000000000000D+00 -.000000000000000D+00 0.000000000000000D+00
 0.160053033118027D+04 0.000000000000000D+00 0.000000000000000D+00 0.160053033118027D+04
 0.116628750672972D+04 0.000000000000000D+00 0.000000000000000D+00 -.116628750672972D+04
 0.640014643060491D+03 0.516877968890523D+03 -.167296511285109D+03 -.314392725614456D+03
 0.606278701364259D+03 -.110586682752158D+02 -.211239286269735D+02 -.605809664187749D+03
 0.107592201170780D+04 -.481687587522928D+03 0.280736184176538D+03 0.920202389802205D+03
 0.444602481777444D+03 -.241317130923800D+02 -.923157442644554D+02 0.434242824450547D+03
0.369396839869D-01 0.000000000000D+00 0.000000000000D+00 0.107732535493D-03 0.114576468156D-06  6 2 3 25 4 1 21 2 0.23015948D+00 0.19196142D+00 0.38084975D+06 0.38084975D+06 0.38084975D+06 0.10769669D+01  1  2  1  1  6  1        2 0.625429348609D-02 0.100000000000D+01
  </mgrwgt>
  </event>
  <event>
  6     66 0.17338086E-05 0.30723935E+02 0.75467711E-02 0.94261182E-01
        2 -1    0    0  502    0 0.00000000E+00 0.00000000E+00 0.25056189E+04 0.25056190E+04 0.32000000E+00 0.0000E+00 0.9000E+01
        3 -1    0    0  501    0 0.00000000E+00 0.00000000E+00 -.13227316E+04 0.13227317E+04 0.50000000E+00 0.0000E+00 0.9000E+01
       25  1    1    2    0    0 -.45188401E+03 0.23264245E+03 0.85568298E+03 0.10030653E+04 0.12500000E+03 0.0000E+00 0.9000E+01
        4  1    1    2  501    0 0.36501927E+02 -.24303993E+02 -.12138215E+04 0.12146143E+04 0.15500000E+01 0.0000E+00 0.9000E+01
        1  1    1    2  503    0 0.17544983E+03 -.10553565E+03 0.59223510E+03 0.62662823E+03 0.32000000E+00 0.0000E+00 0.9000E+01
       21  1    1    2  502  503 0.23993225E+03 -.10280281E+03 0.94879068E+03 0.98404280E+03 0.75000000E+00 0.0000E+00 0.9000E+01
#aMCatNLO 2  0  0  5  1 0.31201274D+02 0.00000000D+00  -5  6  0 0.00000000D+00 0.00000000D+00 0.00000000D+00 0.00000000D+00 0.00000000D+00
  <mgrwgt>
 0.9322064442D-02    1    2    0
 0.182051136888540D+04 0.000000000000000D+00 0.000000000000000D+00 0.182051136888540D+04
 0.182051136888540D+04 -.000000000000000D+00 -.000000000000000D+00 -.182051136888540D+04
 0.776772658789489D+03 -.451888728994466D+03 0.232646427443134D+03 0.573953813340939D+03
 0.167217757837733D+04 0.362733968406107D+02 -.241909774279210D+02 -.167160907239719D+04
 0.119207250060399D+04 0.415615332153855D+03 -.208455450015212D+03 0.109765525905625D+04
 0.000000000000000D+00 0.000000000000000D+00 0.000000000000000D+00 0.000000000000000D+00
 0.182051136888540D+04 0.000000000000000D+00 0.000000000000000D+00 0.182051136888540D+04
 0.182051136888540D+04 -.000000000000000D+00 -.000000000000000D+00 -.182051136888540D+04
 0.776907741854583D+03 -.451778001528962D+03 0.232590891128987D+03 0.574246248618055D+03
 0.167155535390009D+04 0.365116975057660D+02 -.243104991792877D+02 -.167097971164433D+04
 0.466033830007947D+03 0.175289580136636D+03 -.105441116169182D+03 0.418740092215201D+03
 0.726525812008180D+03 0.239976723886560D+03 -.102839275780517D+03 0.677993370811070D+03
0.235491072858D+00 0.000000000000D+00 0.000000000000D+00 0.141815423486D-02 0.281271017680D-05  6 2 3 25 4 1 21 2 0.38547985D+00 0.20349718D+00 0.26666474D+06 0.26666474D+06 0.26666474D+06 0.10883570D+01  1  2  1  4  6  5        1 0.932206444211D-02 0.100000000000D+01
  </mgrwgt>
  </event>
  <event>
  6     66 0.17338086E-05 0.41373898E+02 0.75467711E-02 0.94860086E-01
        2 -1    0    0  502    0 0.00000000E+00 0.00000000E+00 0.36155897E+04 0.36155898E+04 0.32000000E+00 0.0000E+00 0.9000E+01
       21 -1    0    0  501  503 0.00000000E+00 0.00000000E+00 -.47446765E+03 0.47446824E+03 0.75000000E+00 0.0000E+00 0.9000E+01
       25  1    1    2    0    0 0.89135160E+01 -.45149465E+03 0.26708475E+03 0.53933860E+03 0.12500000E+03 0.0000E+00 0.9000E+01
        4  1    1    2  501    0 -.13815990E+02 0.38189438E+03 0.57773129E+02 0.38648976E+03 0.15500000E+01 0.0000E+00 0.9000E+01
        1  1    1    2  502    0 0.54906503E+02 0.19815991E+02 0.29827950E+04 0.29833661E+04 0.32000000E+00 0.0000E+00 0.9000E+01
       -3  1    1    2    0  503 -.50004029E+02 0.49784276E+02 -.16653075E+03 0.18086353E+03 0.50000000E+00 0.0000E+00 0.9000E+01
#aMCatNLO 2  0  0  2  1 0.12255007D+03 0.00000000D+00  -5  6  0 0.00000000D+00 0.00000000D+00 0.00000000D+00 0.00000000D+00 0.00000000D+00
  <mgrwgt>
 0.2602123693D-02    1    2    0
 0.104118384274471D+04 0.000000000000000D+00 0.000000000000000D+00 0.104118384274471D+04
 0.104118384274471D+04 0.000000000000000D+00 0.000000000000000D+00 -.104118384274471D+04
 0.577236665991595D+03 -.507370073036647D+01 -.437544476293620D+03 -.355114428587368D+03
 0.643228393950409D+03 -.291391241619160D+02 0.397123704015195D+03 -.505159818212366D+03
 0.861902625547425D+03 0.342128248922825D+02 0.404207722784246D+02 0.860274246799735D+03
 0.000000000000000D+00 -.000000000000000D+00 0.000000000000000D+00 -.000000000000000D+00
 0.104385030614400D+04 0.000000000000000D+00 0.000000000000000D+00 0.104385030614400D+04
 0.164341693593847D+04 0.000000000000000D+00 0.000000000000000D+00 -.164341693593847D+04
 0.587906735982492D+03 0.891161772063906D+01 -.451468333210931D+03 -.355114428587368D+03
 0.633403596582715D+03 -.138155984035442D+02 0.381867520834543D+03 -.505159818212366D+03
 0.862252494572729D+03 0.549080100282562D+02 0.198165366494645D+02 0.860274246799735D+03
 0.603704414944534D+03 -.500040293453511D+02 0.497842757269236D+02 -.599566629794468D+03
0.145598585481D-02 0.000000000000D+00 0.000000000000D+00 0.126299242598D-03 0.859255033513D-08  6 2 21 25 4 1 -3 2 0.55624457D+00 0.72995062D-01 0.23989976D+06 0.23989976D+06 0.23989976D+06 0.10918090D+01  1  2  1  6  6  2        3 0.260212369263D-02 0.100000000000D+01
  </mgrwgt>
  </event>
  <event>
  5     66 0.17338086E-05 0.34668875E+02 0.75467711E-02 0.88103813E-01
        2 -1    0    0  502    0 0.00000000E+00 0.00000000E+00 0.11722248E+04 0.11722249E+04 0.32000000E+00 0.0000E+00 0.9000E+01
        3 -1    0    0  501    0 0.00000000E+00 0.00000000E+00 -.93156631E+03 0.93156645E+03 0.50000000E+00 0.0000E+00 0.9000E+01
       25  1    1    2    0    0 -.67117213E+03 0.12031933E+02 0.67108026E+03 0.95738733E+03 0.12500000E+03 0.0000E+00 0.9000E+01
        4  1    1    2  501    0 0.69455424E+03 -.37692089E+02 -.63323175E+03 0.94064401E+03 0.15500000E+01 0.0000E+00 0.9000E+01
        1  1    1    2  502    0 -.23382116E+02 0.25660156E+02 0.20281002E+03 0.20575999E+03 0.32000000E+00 0.0000E+00 0.9000E+01
#aMCatNLO 1  0  0  2  4 0.37853204D+02 0.00000000D+00  -5  6  0 0.00000000D+00 0.00000000D+00 0.00000000D+00 0.00000000D+00 0.00000000D+00
  <mgrwgt>
 0.2197672201D-03    5    2    0
 0.104499060384850D+04 0.000000000000000D+00 0.000000000000000D+00 0.104499060384850D+04
 0.104499060384850D+04 0.000000000000000D+00 0.000000000000000D+00 -.104499060384850D+04
 0.886659094411181D+03 -.671298989135452D+03 0.120658114523675D+02 0.565465678075841D+03
 0.101980297020861D+04 0.694649692050030D+03 -.376914933964320D+02 -.745680397158631D+03
 0.183519143077206D+03 -.233507029145774D+02 0.256256819440645D+02 0.180214719082790D+03
 0.000000000000000D+00 0.000000000000000D+00 0.000000000000000D+00 -.000000000000000D+00
 0.110537356196347D+04 0.000000000000000D+00 0.000000000000000D+00 0.110537356196347D+04
 0.207261230717424D+04 0.000000000000000D+00 0.000000000000000D+00 -.207261230717424D+04
 0.100144182951079D+04 -.810244992013578D+03 -.104939781441874D+03 0.565465678075841D+03
 0.940378513237083D+03 0.550399255757277D+03 -.159163917748868D+03 -.745680397158631D+03
 0.187211282934016D+03 -.506328837487269D+02 0.265152163844185D+01 0.180214719082790D+03
 0.104895424345582D+04 0.310478620005028D+03 0.261452177552300D+03 -.967238745210769D+03
0.148328768304D-02 0.000000000000D+00 0.000000000000D+00 0.619085361325D-05 0.000000000000D+00  6 2 3 25 4 1 21 0 0.18034230D+00 0.14331791D+00 0.49934340D+06 0.49934340D+06 0.49934340D+06 0.10685507D+01  1  2  2  2  6  2        3 0.826770920560D-03 0.100000000000D+01
0.493121663367D-03 0.000000000000D+00 -.569621526150D-05 0.619085361325D-05 0.000000000000D+00  6 2 3 25 4 1 21 2 0.18034230D+00 0.14331791D+00 0.49934340D+06 0.49934340D+06 0.49934340D+06 0.10685507D+01  1  2  3  2  6  2        3 0.313837023926D-03 0.100000000000D+01
-.941192447324D-03 0.000000000000D+00 0.000000000000D+00 0.619085361325D-05 0.000000000000D+00  6 2 3 25 4 1 21 2 0.18034230D+00 0.14331791D+00 0.49934340D+06 0.49934340D+06 0.49934340D+06 0.10685507D+01  1  2 15  2  6  2        3 -.599002352875D-03 0.100000000000D+01
-.413772101877D-02 0.000000000000D+00 -.681956186288D-03 0.619085361325D-05 0.000000000000D+00  6 2 3 25 4 1 21 2 0.18034230D+00 0.28908973D+00 0.49934340D+06 0.49934340D+06 0.49934340D+06 0.10685507D+01  1  2  5  2  6  2        3 -.145820290262D-03 0.100000000000D+01
-.272859604470D-03 0.000000000000D+00 -.517595813518D-04 0.619085361325D-05 0.000000000000D+00  6 2 21 25 4 1 -3 2 0.18034230D+00 0.28908973D+00 0.49934340D+06 0.49934340D+06 0.49934340D+06 0.10685507D+01  1  2  5  6  6  2        3 -.176018081266D-03 0.100000000000D+01
  </mgrwgt>
  </event>
  <event>
  6     66 0.17338086E-05 0.28634756E+02 0.75467711E-02 0.93448635E-01
        2 -1    0    0  503    0 0.00000000E+00 0.00000000E+00 0.30272842E+04 0.30272842E+04 0.32000000E+00 0.0000E+00 0.9000E+01
        3 -1    0    0  501    0 0.00000000E+00 0.00000000E+00 -.27787875E+03 0.27787920E+03 0.50000000E+00 0.0000E+00 0.9000E+01
       25  1    1    2    0    0 0.42449632E+03 0.31827551E+03 0.24558072E+03 0.59785560E+03 0.12500000E+03 0.0000E+00 0.9000E+01
        4  1    1    2  501    0 -.30833147E+02 -.34847204E+02 -.65539067E+02 0.80391432E+02 0.15500000E+01 0.0000E+00 0.9000E+01
        1  1    1    2  502    0 -.34934425E+03 -.31039541E+03 0.19430381E+04 0.19984453E+04 0.32000000E+00 0.0000E+00 0.9000E+01
       21  1    1    2  503  502 -.44318928E+02 0.26967108E+02 0.62632572E+03 0.62847105E+03 0.75000000E+00 0.0000E+00 0.9000E+01
#aMCatNLO 2  0  0  1  5 0.51878631D+02 0.00000000D+00  -5  6  0 0.00000000D+00 0.00000000D+00 0.00000000D+00 0.00000000D+00 0.00000000D+00
  <mgrwgt>
 0.2278755802D-02    1    2    0
 0.814635365873773D+03 0.000000000000000D+00 0.000000000000000D+00 0.814635365873773D+03
 0.814635365873773D+03 0.000000000000000D+00 0.000000000000000D+00 -.814635365873773D+03
 0.656140068131245D+03 0.406588640560443D+03 0.329185380571053D+03 -.375789105207665D+03
 0.217419693352739D+03 -.367157636248182D+02 -.312186910938051D+02 -.212011011707965D+03
 0.755710970263562D+03 -.369872876935624D+03 -.297966689477248D+03 0.587800116915630D+03
 0.000000000000000D+00 -.000000000000000D+00 0.000000000000000D+00 0.000000000000000D+00
 0.102812418356724D+04 0.000000000000000D+00 0.000000000000000D+00 0.102812418356724D+04
 0.818206021526207D+03 0.000000000000000D+00 0.000000000000000D+00 -.818206021526207D+03
 0.662083952370440D+03 0.424513063422438D+03 0.318278757345480D+03 -.375789105207665D+03
 0.217047874747460D+03 -.308081331391538D+02 -.348133563368163D+02 -.212011011707965D+03
 0.750964645389913D+03 -.349386001843975D+03 -.310432509404301D+03 0.587800116915630D+03
 0.216233732585633D+03 -.443189284393096D+02 0.269671083956379D+02 0.209918162041030D+03
0.240662923177D-02 0.000000000000D+00 0.000000000000D+00 0.969021141499D-05 0.271571884102D-07  6 2 3 25 4 1 21 2 0.46573570D+00 0.42750580D-01 0.30849375D+06 0.30849375D+06 0.30849375D+06 0.10836559D+01  1  2  1  1  6  1        2 0.227875580244D-02 0.100000000000D+01
  </mgrwgt>
  </event>
  <event>
  5     66 -.17338086E-05 0.15638233E+02 0.75467711E-02 0.92689612E-01
        2 -1    0    0  502    0 0.00000000E+00 0.00000000E+00 0.78944645E+03 0.78944652E+03 0.32000000E+00 0.0000E+00 0.9000E+01
        3 -1    0    0  501    0 0.00000000E+00 0.00000000E+00 -.48506761E+03 0.48506787E+03 0.50000000E+00 0.0000E+00 0.9000E+01
       25  1    1    2    0    0 -.87417103E+02 0.57293674E+03 0.35845430E+02 0.59397655E+03 0.12500000E+03 0.0000E+00 0.9000E+01
        4  1    1    2  501    0 -.40006991E+01 -.15154237E+02 -.35424239E+02 0.38767714E+02 0.15500000E+01 0.0000E+00 0.9000E+01
        1  1    1    2  502    0 0.91417802E+02 -.55778250E+03 0.30395765E+03 0.64177012E+03 0.32000000E+00 0.0000E+00 0.9000E+01
#aMCatNLO 1  0  0  4  5 0.97761128D+01 0.00000000D+00  -5  6  0 0.00000000D+00 0.00000000D+00 0.00000000D+00 0.00000000D+00 0.00000000D+00
  <mgrwgt>
 -.1467587696D-01    5    2    0
 0.618817510257984D+03 0.000000000000000D+00 0.000000000000000D+00 0.618817510257984D+03
 0.618817510257984D+03 -.000000000000000D+00 -.000000000000000D+00 -.618817510257984D+03
 0.603013912634714D+03 -.874529348496426D+02 0.573034627303591D+03 -.109471817963553D+03
 0.483444150303398D+02 -.398625271401398D+01 -.151216443112968D+02 -.457452525104889D+02
 0.586276692850915D+03 0.914391875636565D+02 -.557912982992294D+03 0.155217070474042D+03
 0.000000000000000D+00 0.000000000000000D+00 0.000000000000000D+00 0.000000000000000D+00
 0.618817510257984D+03 0.000000000000000D+00 0.000000000000000D+00 0.618817510257984D+03
 0.618817510257984D+03 -.000000000000000D+00 -.000000000000000D+00 -.618817510257984D+03
 0.601902848213000D+03 -.883270496697625D+02 0.569718717765137D+03 -.119502943945348D+03
 0.124868385818805D+02 0.146247430584176D+00 0.117128964104996D+02 0.432525226268848D+01
 0.586721141001267D+03 0.905882285398835D+02 -.561141052210221D+03 0.145451674697270D+03
 0.365241927198210D+02 -.240742630070516D+01 -.202905619654159D+02 -.302739830146103D+02
0.626903729154D-03 0.000000000000D+00 0.000000000000D+00 0.385138669678D-06 0.000000000000D+00  6 2 3 25 4 1 21 0 0.12145333D+00 0.74625811D-01 0.34456232D+06 0.34456232D+06 0.34456232D+06 0.10801298D+01  1  2  2  3  6  4        4 0.314737959816D-02 0.100000000000D+01
0.270323863433D-03 0.000000000000D+00 -.240747538749D-05 0.385138669678D-06 0.000000000000D+00  6 2 3 25 4 1 21 2 0.12145333D+00 0.74625811D-01 0.34456232D+06 0.34456232D+06 0.34456232D+06 0.10801298D+01  1  2  3  3  6  4        4 0.158337785152D-02 0.100000000000D+01
-.450612836228D-03 0.000000000000D+00 0.000000000000D+00 0.385138669678D-06 0.000000000000D+00  6 2 3 25 4 1 21 2 0.12145333D+00 0.74625811D-01 0.34456232D+06 0.34456232D+06 0.34456232D+06 0.10801298D+01  1  2 15  3  6  4        4 -.263939104537D-02 0.100000000000D+01
-.286260541281D-02 0.000000000000D+00 0.000000000000D+00 0.385138669678D-06 0.000000000000D+00  6 2 3 25 4 1 21 2 0.12145333D+00 0.74625811D-01 0.34456232D+06 0.34456232D+06 0.34456232D+06 0.10801298D+01  1  2  4  3  6  4        4 -.167672433751D-01 0.100000000000D+01
0.248490906335D-11 0.000000000000D+00 0.000000000000D+00 0.385138669678D-06 0.109176605562D-09  6 2 3 25 4 1 21 2 0.12145333D+00 0.74625811D-01 0.35430661D+06 0.35430661D+06 0.35430661D+06 0.10792460D+01  1  2 11  3  6  4        4 0.145209213830D-10 0.100000000000D+01
  </mgrwgt>
  </event>
  <event>
  5     66 0.17338086E-05 0.13476580E+03 0.75467711E-02 0.86937236E-01
        2 -1    0    0  502    0 0.00000000E+00 0.00000000E+00 0.29901712E+04 0.29901712E+04 0.32000000E+00 0.0000E+00 0.9000E+01
        3 -1    0    0  501    0 0.00000000E+00 0.00000000E+00 -.56646793E+03 0.56646815E+03 0.50000000E+00 0.0000E+00 0.9000E+01
       25  1    1    2    0    0 -.58793892E+02 0.48516460E+03 0.51724641E+02 0.50709156E+03 0.12500000E+03 0.0000E+00 0.9000E+01
        4  1    1    2  501    0 0.10271938E+03 -.87296587E+02 -.30990424E+03 0.33795710E+03 0.15500000E+01 0.0000E+00 0.9000E+01
        1  1    1    2  502    0 -.43925483E+02 -.39786801E+03 0.26818829E+04 0.27115907E+04 0.32000000E+00 0.0000E+00 0.9000E+01
#aMCatNLO 1  0  0  1  1 0.65622301D+02 0.00000000D+00  -5  6  0 0.00000000D+00 0.00000000D+00 0.00000000D+00 0.00000000D+00 0.00000000D+00
  <mgrwgt>
 0.9583944508D-02    6    2    0
 0.130147475259877D+04 0.000000000000000D+00 0.000000000000000D+00 0.130147475259877D+04
 0.130147475259877D+04 0.000000000000000D+00 0.000000000000000D+00 -.130147475259877D+04
 0.644834687936336D+03 -.587653997327468D+02 0.485153594845880D+03 -.401695645941453D+03
 0.750183095085364D+03 0.102692606227032D+03 -.872699737873593D+02 -.737978899734478D+03
 0.120793172217583D+04 -.439272064942851D+02 -.397883621058521D+03 0.113967454567593D+04
 0.000000000000000D+00 -.000000000000000D+00 -.000000000000000D+00 0.000000000000000D+00
 0.222799703728236D+04 0.000000000000000D+00 0.000000000000000D+00 0.222799703728236D+04
 0.165330735343666D+04 0.000000000000000D+00 0.000000000000000D+00 -.165330735343666D+04
 0.836630979486874D+03 0.550175739288943D+02 0.721068700213665D+03 -.401695645941453D+03
 0.786186409470853D+03 0.220692432153156D+03 0.157388259961428D+03 -.737978899734478D+03
 0.114810695785954D+04 0.137026758873372D+03 -.226976645605245D+02 0.113967454567593D+04
 0.111038004390176D+04 -.412736764955422D+03 -.855759295614568D+03 0.574689683845701D+03
0.698447621040D-01 0.000000000000D+00 0.000000000000D+00 0.589667636747D-04 0.000000000000D+00  6 2 3 25 4 1 21 0 0.46002636D+00 0.87148931D-01 0.27013987D+06 0.27013987D+06 0.27013987D+06 0.10879367D+01  1  2  2  1  6  1        2 0.131994805715D-01 0.100000000000D+01
0.963555398814D-02 0.000000000000D+00 -.268222277027D-03 0.589667636747D-04 0.000000000000D+00  6 2 3 25 4 1 21 2 0.46002636D+00 0.87148931D-01 0.27013987D+06 0.27013987D+06 0.27013987D+06 0.10879367D+01  1  2  3  1  6  1        2 0.215529619129D-02 0.100000000000D+01
-.464579120366D-01 0.000000000000D+00 0.000000000000D+00 0.589667636747D-04 0.000000000000D+00  6 2 3 25 4 1 21 2 0.46002636D+00 0.87148931D-01 0.27013987D+06 0.27013987D+06 0.27013987D+06 0.10879367D+01  1  2 15  1  6  1        2 -.103917803783D-01 0.100000000000D+01
-.368200947026D-02 0.000000000000D+00 -.290443478644D-01 0.589667636747D-04 0.000000000000D+00  6 2 3 25 4 1 21 2 0.80659960D+00 0.87148931D-01 0.27013987D+06 0.27013987D+06 0.27013987D+06 0.10879367D+01  1  2  5  1  6  1        2 -.684130879103D-05 0.100000000000D+01
0.206891286420D-01 0.000000000000D+00 0.249983096167D-01 0.589667636747D-04 0.000000000000D+00  6 2 3 25 4 1 21 2 0.46002636D+00 0.87148931D-01 0.27013987D+06 0.27013987D+06 0.27013987D+06 0.10879367D+01  1  2  6  1  6  1        2 0.462777752251D-02 0.100000000000D+01
0.125159388904D-02 0.000000000000D+00 -.180053877167D-02 0.589667636747D-04 0.000000000000D+00  6 21 3 25 4 1 -2 2 0.80659960D+00 0.87148931D-01 0.27013987D+06 0.27013987D+06 0.27013987D+06 0.10879367D+01  1  2  5  5  6  1        2 0.119100794180D-07 0.100000000000D+01
  </mgrwgt>
  </event>
  <event>
  6     66 -.17338086E-05 0.49633487E+02 0.75467711E-02 0.95597699E-01
        2 -1    0    0  503    0 0.00000000E+00 0.00000000E+00 0.14739782E+04 0.14739782E+04 0.32000000E+00 0.0000E+00 0.9000E+01
        3 -1    0    0  501    0 0.00000000E+00 0.00000000E+00 -.37861572E+03 0.37861605E+03 0.50000000E+00 0.0000E+00 0.9000E+01
       25  1    1    2    0    0 0.75312408E+02 0.43799867E+03 0.32621325E+03 0.56529185E+03 0.12500000E+03 0.0000E+00 0.9000E+01
        4  1    1    2  501    0 -.23493791E+02 -.53500876E+02 -.19878812E+03 0.20720381E+03 0.15500000E+01 0.0000E+00 0.9000E+01
        1  1    1    2  502    0 -.61569922E+02 -.39913317E+03 0.67469117E+03 0.78632462E+03 0.32000000E+00 0.0000E+00 0.9000E+01
       21  1    1    2  503  502 0.97513052E+01 0.14635374E+02 0.29324615E+03 0.29377397E+03 0.75000000E+00 0.0000E+00 0.9000E+01
#aMCatNLO 2  0  0  1  5 0.17586418D+02 0.00000000D+00  -5  6  0 0.00000000D+00 0.00000000D+00 0.00000000D+00 0.00000000D+00 0.00000000D+00
  <mgrwgt>
 -.1597167966D-01    1    2    0
 0.668247866337695D+03 0.000000000000000D+00 0.000000000000000D+00 0.668247866337695D+03
 0.668247866337695D+03 0.000000000000000D+00 0.000000000000000D+00 -.668247866337695D+03
 0.468909063522112D+03 0.787157498455555D+02 0.443128143361123D+03 0.411337956036187D+02
 0.360166135935178D+03 -.208608363074733D+02 -.495483641122684D+02 -.356131198572700D+03
 0.507420533218101D+03 -.578549135380823D+02 -.393579779248855D+03 0.314997402969081D+03
 0.000000000000000D+00 0.000000000000000D+00 0.000000000000000D+00 0.000000000000000D+00
 0.834471305044585D+03 0.000000000000000D+00 0.000000000000000D+00 0.834471305044585D+03
 0.668771039161246D+03 0.000000000000000D+00 0.000000000000000D+00 -.668771039161246D+03
 0.463522833215537D+03 0.753143044843601D+02 0.438023039703890D+03 0.411337956036187D+02
 0.360892102271212D+03 -.234912055688425D+02 -.534961881429829D+02 -.356131198572700D+03
 0.512196498540595D+03 -.615744040821165D+02 -.399162225169056D+03 0.314997402969081D+03
 0.166630910178488D+03 0.975130516659889D+01 0.146353736081490D+02 0.165700265883339D+03
-.398236600157D-02 0.000000000000D+00 0.000000000000D+00 0.125856305765D-04 0.000000000000D+00  6 2 3 25 4 1 21 2 0.22729303D+00 0.58202960D-01 0.22164827D+06 0.22164827D+06 0.22164827D+06 0.10944137D+01  1  2 13  1  6  1        2 -.159716796640D-01 0.100000000000D+01
  </mgrwgt>
  </event>
  <event>
  5     66 0.17338086E-05 0.32256747E+02 0.75467711E-02 0.94382325E-01
        2 -1    0    0  502    0 0.00000000E+00 0.00000000E+00 0.21021667E+04 0.21021668E+04 0.32000000E+00 0.0000E+00 0.9000E+01
        3 -1    0    0  501    0 0.00000000E+00 0.00000000E+00 -.83119195E+03 0.83119210E+03 0.50000000E+00 0.0000E+00 0.9000E+01
       25  1    1    2    0    0 0.40485706E+02 0.47925045E+03 -.13417031E+03 0.51472979E+03 0.12500000E+03 0.0000E+00 0.9000E+01
        4  1    1    2  501    0 0.31830180E+02 -.53058045E+01 -.47613018E+03 0.47722496E+03 0.15500000E+01 0.0000E+00 0.9000E+01
        1  1    1    2  502    0 -.72315886E+02 -.47394465E+03 0.18812753E+04 0.19414041E+04 0.32000000E+00 0.0000E+00 0.9000E+01
#aMCatNLO 1  0  0  5  1 0.37968830D+02 0.00000000D+00  -5  6  0 0.00000000D+00 0.00000000D+00 0.00000000D+00 0.00000000D+00 0.00000000D+00
  <mgrwgt>
 0.4451656588D-02    6    2    0
 0.132185639055440D+04 0.000000000000000D+00 0.000000000000000D+00 0.132185639055440D+04
 0.132185639055440D+04 -.000000000000000D+00 -.000000000000000D+00 -.132185639055440D+04
 0.635836752768128D+03 0.405016503146516D+02 0.479271070205698D+03 -.396638669012986D+03
 0.758148069875267D+03 0.318173090260875D+02 -.530627699311636D+01 -.757461548942521D+03
 0.124972795846541D+04 -.723189593407391D+02 -.473964793212581D+03 0.115410021795551D+04
 0.000000000000000D+00 0.000000000000000D+00 -.000000000000000D+00 0.000000000000000D+00
 0.132185639055440D+04 0.000000000000000D+00 0.000000000000000D+00 0.132185639055440D+04
 0.132185639055440D+04 -.000000000000000D+00 -.000000000000000D+00 -.132185639055440D+04
 0.623624627609534D+03 0.396825696818885D+02 0.473902970522420D+03 -.383567392194121D+03
 0.742618891000775D+03 0.308412972395446D+02 -.117028738025687D+02 -.741885890417498D+03
 0.118769120255043D+04 -.121824457848383D+03 -.389201140513602D+03 0.111547822314402D+04
 0.897780599480637D+02 0.513005909269497D+02 -.729989562062489D+02 0.997505946759405D+01
0.155418910435D-01 0.000000000000D+00 0.000000000000D+00 0.693337051437D-03 0.000000000000D+00  6 2 3 25 4 1 21 0 0.32341028D+00 0.12787570D+00 0.25435077D+06 0.25435077D+06 0.25435077D+06 0.10898959D+01  1  2  2  4  6  5        1 0.377929920816D-02 0.100000000000D+01
0.822783078741D-02 0.000000000000D+00 -.596849538811D-04 0.693337051437D-03 0.000000000000D+00  6 2 3 25 4 1 21 2 0.32341028D+00 0.12787570D+00 0.25435077D+06 0.25435077D+06 0.25435077D+06 0.10898959D+01  1  2  3  4  6  5        1 0.237663654505D-02 0.100000000000D+01
-.105973938050D-01 0.000000000000D+00 0.000000000000D+00 0.693337051437D-03 0.000000000000D+00  6 2 3 25 4 1 21 2 0.32341028D+00 0.12787570D+00 0.25435077D+06 0.25435077D+06 0.25435077D+06 0.10898959D+01  1  2 15  4  6  5        1 -.306109277766D-02 0.100000000000D+01
-.195842510589D-02 0.000000000000D+00 0.000000000000D+00 0.693337051437D-03 0.000000000000D+00  6 2 3 25 4 1 21 2 0.32341028D+00 0.12787570D+00 0.25435077D+06 0.25435077D+06 0.25435077D+06 0.10898959D+01  1  2  4  4  6  5        1 -.565697666573D-03 0.100000000000D+01
-.894443022197D-01 0.000000000000D+00 0.000000000000D+00 0.693337051437D-03 0.000000000000D+00  6 2 3 25 4 1 21 2 0.32341028D+00 0.12787570D+00 0.25435077D+06 0.25435077D+06 0.25435077D+06 0.10898959D+01  1  2  5  4  6  5        1 -.258362869745D-01 0.100000000000D+01
0.960999675647D-01 0.000000000000D+00 -.000000000000D+00 0.693337051437D-03 0.000000000000D+00  6 2 3 25 4 1 21 2 0.32341028D+00 0.12787570D+00 0.25435077D+06 0.25435077D+06 0.25435077D+06 0.10898959D+01  1  2  6  4  6  5        1 0.277587982535D-01 0.100000000000D+01
  </mgrwgt>
  </event>
  <event>
  5     66 0.17338086E-05 0.22489631E+02 0.75467711E-02 0.94507356E-01
        2 -1    0    0  502    0 0.00000000E+00 0.00000000E+00 0.48982038E+03 0.48982048E+03 0.32000000E+00 0.0000E+00 0.9000E+01
        3 -1    0    0  501    0 -.00000000E+00 -.00000000E+00 -.77967959E+03 0.77967975E+03 0.50000000E+00 0.0000E+00 0.9000E+01
       25  1    1    2    0    0 0.47758299E+03 0.12933756E+03 -.80900997E+02 0.51670464E+03 0.12500000E+03 0.0000E+00 0.9000E+01
        4  1    1    2  501    0 -.48899559E+03 -.14874446E+03 -.34386335E+03 0.61602435E+03 0.15500000E+01 0.0000E+00 0.9000E+01
        1  1    1    2  502    0 0.11412600E+02 0.19406897E+02 0.13490514E+03 0.13677124E+03 0.32000000E+00 0.0000E+00 0.9000E+01
#aMCatNLO 1  0  0  4  1 0.98964571D+02 0.00000000D+00  -5  6  0 0.00000000D+00 0.00000000D+00 0.00000000D+00 0.00000000D+00 0.00000000D+00
  <mgrwgt>
 0.3718314501D-02    6    2    0
 0.617983108065232D+03 0.000000000000000D+00 0.000000000000000D+00 0.617983108065232D+03
 0.617983108065232D+03 -.000000000000000D+00 -.000000000000000D+00 -.617983108065232D+03
 0.511874483900424D+03 0.477695468188661D+03 0.129381033053551D+03 0.381847512279124D+02
 0.552157360387990D+03 -.489095772829805D+03 -.148767022275998D+03 -.208641915045326D+03
 0.171934371842050D+03 0.114003046411446D+02 0.193859892224473D+02 0.170457163817414D+03
 0.000000000000000D+00 0.000000000000000D+00 -.000000000000000D+00 0.000000000000000D+00
 0.617983108065232D+03 0.000000000000000D+00 0.000000000000000D+00 0.617983108065232D+03
 0.617983108065232D+03 -.000000000000000D+00 -.000000000000000D+00 -.617983108065232D+03
 0.493154986262143D+03 0.459669593625389D+03 0.123898148449615D+03 0.304951468637453D+02
 0.424188943345150D+03 -.350601838322079D+03 -.512060597105263D+02 -.233222104592116D+03
 0.168845247843312D+03 0.528819463786874D+01 0.175268842055509D+02 0.167849816939986D+03
 0.149777038679859D+03 -.114355949941179D+03 -.902189729446399D+02 0.348771407883849D+02
0.108930442653D-02 0.000000000000D+00 0.000000000000D+00 0.417220435981D-05 0.000000000000D+00  6 2 3 25 4 1 21 0 0.75357002D-01 0.11995073D+00 0.27256663D+06 0.27256663D+06 0.27256663D+06 0.10876467D+01  1  2  2  3  6  4        4 0.313306766980D-02 0.100000000000D+01
0.506167340231D-03 0.000000000000D+00 -.418321581832D-05 0.417220435981D-05 0.000000000000D+00  6 2 3 25 4 1 21 2 0.75357002D-01 0.11995073D+00 0.27256663D+06 0.27256663D+06 0.27256663D+06 0.10876467D+01  1  2  3  3  6  4        4 0.172222677940D-02 0.100000000000D+01
-.706762341349D-03 0.000000000000D+00 0.000000000000D+00 0.417220435981D-05 0.000000000000D+00  6 2 3 25 4 1 21 2 0.75357002D-01 0.11995073D+00 0.27256663D+06 0.27256663D+06 0.27256663D+06 0.10876467D+01  1  2 15  3  6  4        4 -.240474826050D-02 0.100000000000D+01
-.284548270441D-03 0.000000000000D+00 0.000000000000D+00 0.417220435981D-05 0.000000000000D+00  6 2 3 25 4 1 21 2 0.75357002D-01 0.11995073D+00 0.27256663D+06 0.27256663D+06 0.27256663D+06 0.10876467D+01  1  2  4  3  6  4        4 -.968171220138D-03 0.100000000000D+01
-.214558091899D-02 0.000000000000D+00 0.000000000000D+00 0.417220435981D-05 0.000000000000D+00  6 2 3 25 4 1 21 2 0.75357002D-01 0.11995073D+00 0.27256663D+06 0.27256663D+06 0.27256663D+06 0.10876467D+01  1  2  5  3  6  4        4 -.730030687948D-02 0.100000000000D+01
0.280272989590D-02 0.000000000000D+00 -.000000000000D+00 0.417220435981D-05 0.000000000000D+00  6 2 3 25 4 1 21 2 0.75357002D-01 0.11995073D+00 0.27256663D+06 0.27256663D+06 0.27256663D+06 0.10876467D+01  1  2  6  3  6  4        4 0.953624641199D-02 0.100000000000D+01
  </mgrwgt>
  </event>
  <event>
  5     66 -.17338086E-05 0.42269602E+02 0.75467711E-02 0.94824378E-01
        2 -1    0    0  502    0 0.00000000E+00 0.00000000E+00 0.96842215E+03 0.96842220E+03 0.32000000E+00 0.0000E+00 0.9000E+01
        3 -1    0    0  501    0 0.00000000E+00 0.00000000E+00 -.61251789E+03 0.61251809E+03 0.50000000E+00 0.0000E+00 0.9000E+01
       25  1    1    2    0    0 0.16341182E+03 -.44983731E+03 0.27958149E+03 0.56819701E+03 0.12500000E+03 0.0000E+00 0.9000E+01
        4  1    1    2  501    0 0.12638518E+02 0.40334421E+02 -.37560526E+03 0.37797925E+03 0.15500000E+01 0.0000E+00 0.9000E+01
        1  1    1    2  502    0 -.17605034E+03 0.40950289E+03 0.45192803E+03 0.63476404E+03 0.32000000E+00 0.0000E+00 0.9000E+01
#aMCatNLO 1  0  0  2  1 0.70582875D+02 0.00000000D+00  -5  6  0 0.00000000D+00 0.00000000D+00 0.00000000D+00 0.00000000D+00 0.00000000D+00
  <mgrwgt>
 -.6320818987D-04    1    2    0
 0.770179258978106D+03 0.000000000000000D+00 0.000000000000000D+00 0.770179258978106D+03
 0.770179258978106D+03 0.000000000000000D+00 0.000000000000000D+00 -.770179258978106D+03
 0.518570134790915D+03 0.163412178353199D+03 -.449838525731013D+03 0.155665492101103D+03
 0.474721054402890D+03 0.126379542717540D+02 0.403361050843985D+02 -.472835447308931D+03
 0.547067328762407D+03 -.176050132624953D+03 0.409502420646615D+03 0.317169955207828D+03
 0.000000000000000D+00 -.000000000000000D+00 -.000000000000000D+00 -.000000000000000D+00
 0.816814535536131D+03 0.000000000000000D+00 0.000000000000000D+00 0.816814535536131D+03
 0.851245964520871D+03 0.000000000000000D+00 0.000000000000000D+00 -.851245964520871D+03
 0.527197942853408D+03 0.203022767592330D+03 -.443692101977191D+03 0.155665492101103D+03
 0.477551667641317D+03 0.487072170871670D+02 0.459330168701112D+02 -.472835447308931D+03
 0.540141798483731D+03 -.134869879491401D+03 0.415892411073681D+03 0.317169955207828D+03
 0.123169091078545D+03 -.116860105188096D+03 -.181333259666010D+02 -.344314289847401D+02
-.234312963779D-04 0.000000000000D+00 0.000000000000D+00 0.206324287769D-04 0.000000000000D+00  6 2 3 25 4 1 21 2 0.14898804D+00 0.94233541D-01 0.24140822D+06 0.24140822D+06 0.24140822D+06 0.10916035D+01  1  2 14  2  6  2        3 -.632081898695D-04 0.100000000000D+01
  </mgrwgt>
  </event>
  <event>
  5     66 -.17338086E-05 0.49910947E+02 0.75467711E-02 0.94528941E-01
        2 -1    0    0  502    0 0.00000000E+00 0.00000000E+00 0.31950049E+03 0.31950065E+03 0.32000000E+00 0.0000E+00 0.9000E+01
        3 -1    0    0  501    0 0.00000000E+00 0.00000000E+00 -.13850860E+04 0.13850861E+04 0.50000000E+00 0.0000E+00 0.9000E+01
       25  1    1    2    0    0 0.35720406E+03 -.28057823E+03 -.37182146E+03 0.60016254E+03 0.12500000E+03 0.0000E+00 0.9000E+01
        4  1    1    2  501    0 -.33362250E+03 0.32458663E+03 -.83425537E+03 0.95532449E+03 0.15500000E+01 0.0000E+00 0.9000E+01
        1  1    1    2  502    0 -.23581561E+02 -.44008401E+02 0.14049128E+03 0.14909974E+03 0.32000000E+00 0.0000E+00 0.9000E+01
#aMCatNLO 1  0  0  2  4 0.19836691D+02 0.00000000D+00  -5  6  0 0.00000000D+00 0.00000000D+00 0.00000000D+00 0.00000000D+00 0.00000000D+00
  <mgrwgt>
 -.7058221921D-02    9    2    0
 0.665233700171410D+03 0.000000000000000D+00 0.000000000000000D+00 0.665233700171410D+03
 0.665233700171410D+03 0.000000000000000D+00 0.000000000000000D+00 -.665233700171410D+03
 0.471199148327575D+03 0.357250996270863D+03 -.280635508002152D+03 0.436745881285782D+01
 0.555826918150113D+03 -.333677604194784D+03 0.324628664286333D+03 -.303675895854038D+03
 0.303441333865133D+03 -.235733920760787D+02 -.439931562841804D+02 0.299308437041180D+03
 0.000000000000000D+00 -.000000000000000D+00 0.000000000000000D+00 -.000000000000000D+00
 0.667542641191888D+03 0.000000000000000D+00 0.000000000000000D+00 0.667542641191888D+03
 0.709322539942530D+03 0.000000000000000D+00 0.000000000000000D+00 -.709322539942530D+03
 0.476231293882871D+03 0.358376884568996D+03 -.287607682761592D+03 0.436745881285782D+01
 0.550317417739108D+03 -.332363106677776D+03 0.316488508264968D+03 -.303675895854038D+03
 0.304066558725963D+03 -.228514540880024D+02 -.484638287538149D+02 0.299308437041180D+03
 0.462499107864766D+02 -.316232380321718D+01 0.195830032504387D+02 -.417798987506427D+02
0.105484779978D-02 0.000000000000D+00 0.000000000000D+00 0.706394865395D-05 0.000000000000D+00  6 2 3 25 4 1 21 0 0.49153940D-01 0.21309018D+00 0.24335804D+06 0.24335804D+06 0.24335804D+06 0.10913400D+01  1  2  2  2  6  2        3 0.805533547799D-03 0.100000000000D+01
0.321807709593D-03 0.000000000000D+00 -.405089329895D-05 0.706394865395D-05 0.000000000000D+00  6 2 3 25 4 1 21 2 0.49153940D-01 0.21309018D+00 0.24335804D+06 0.24335804D+06 0.24335804D+06 0.10913400D+01  1  2  3  2  6  2        3 0.292691687307D-03 0.100000000000D+01
-.783826607608D-03 0.000000000000D+00 0.000000000000D+00 0.706394865395D-05 0.000000000000D+00  6 2 3 25 4 1 21 2 0.49153940D-01 0.21309018D+00 0.24335804D+06 0.24335804D+06 0.24335804D+06 0.10913400D+01  1  2 15  2  6  2        3 -.712908751091D-03 0.100000000000D+01
0.197317168050D-01 0.000000000000D+00 0.000000000000D+00 0.706394865395D-05 0.000000000000D+00  6 2 3 25 4 1 21 2 0.49153940D-01 0.22918405D+00 0.25430523D+06 0.25430523D+06 0.25430523D+06 0.10899017D+01  1  2 12  2  6  2        3 0.131664871430D-01 0.100000000000D+01
-.307574033009D-01 0.000000000000D+00 0.000000000000D+00 0.706394865395D-05 0.000000000000D+00  6 2 3 25 4 1 21 2 0.49153940D-01 0.21309018D+00 0.24335804D+06 0.24335804D+06 0.24335804D+06 0.10913400D+01  1  2  4  2  6  2        3 -.279745823390D-01 0.100000000000D+01
-.393157498077D-01 0.000000000000D+00 -.282381020820D-02 0.706394865395D-05 0.000000000000D+00  6 2 3 25 4 1 21 2 0.49153940D-01 0.22752643D+00 0.24335804D+06 0.24335804D+06 0.24335804D+06 0.10913400D+01  1  2  5  2  6  2        3 -.272106764426D-01 0.100000000000D+01
0.394221818099D-01 0.000000000000D+00 0.281775419700D-02 0.706394865395D-05 0.000000000000D+00  6 2 3 25 4 1 21 2 0.49153940D-01 0.21309018D+00 0.24335804D+06 0.24335804D+06 0.24335804D+06 0.10913400D+01  1  2  6  2  6  2        3 0.358554023640D-01 0.100000000000D+01
0.310109398926D-03 0.000000000000D+00 0.000000000000D+00 0.706394865395D-05 0.000000000000D+00  6 2 21 25 4 1 -3 2 0.49153940D-01 0.22918405D+00 0.25430523D+06 0.25430523D+06 0.25430523D+06 0.10899017D+01  1  2 12  6  6  2        3 0.284602488384D-02 0.100000000000D+01
-.434928842264D-03 0.000000000000D+00 -.315389507267D-04 0.706394865395D-05 0.000000000000D+00  6 2 21 25 4 1 -3 2 0.49153940D-01 0.22752643D+00 0.24335804D+06 0.24335804D+06 0.24335804D+06 0.10913400D+01  1  2  5  6  6  2        3 -.412619401428D-02 0.100000000000D+01
  </mgrwgt>
  </event>
  <event>
  5     66 0.17338086E-05 0.17687565E+02 0.75467711E-02 0.92956179E-01
        2 -1    0    0  502    0 0.00000000E+00 0.00000000E+00 0.48239444E+03 0.48239455E+03 0.32000000E+00 0.0000E+00 0.9000E+01
        3 -1    0    0  501    0 -.00000000E+00 -.00000000E+00 -.15107210E+04 0.15107211E+04 0.50000000E+00 0.0000E+00 0.9000E+01
       25  1    1    2    0    0 0.22468630E+03 0.49544309E+03 -.56120879E+03 0.79153528E+03 0.12500000E+03 0.0000E+00 0.9000E+01
        4  1    1    2  501    0 -.24180067E+03 -.49991969E+03 -.74162846E+03 0.92650010E+03 0.15500000E+01 0.0000E+00 0.9000E+01
        1  1    1    2  502    0 0.17114369E+02 0.44766002E+01 0.27451067E+03 0.27508027E+03 0.32000000E+00 0.0000E+00 0.9000E+01
#aMCatNLO 1  0  0  4  1 0.14215235D+03 0.00000000D+00  -5  6  0 0.00000000D+00 0.00000000D+00 0.00000000D+00 0.00000000D+00 0.00000000D+00
  <mgrwgt>
 0.3056160019D-02    3    2    0
 0.853676523949562D+03 0.000000000000000D+00 0.000000000000000D+00 0.853676523949562D+03
 0.853676523949562D+03 -.000000000000000D+00 -.000000000000000D+00 -.853676523949562D+03
 0.586044990049542D+03 0.224711460198267D+03 0.495493985363034D+03 -.178365356745049D+03
 0.634922621802209D+03 -.241823324202245D+03 -.499969930294923D+03 -.307698365853407D+03
 0.486385436047372D+03 0.171118640039783D+02 0.447594493188916D+01 0.486063722598455D+03
 0.000000000000000D+00 0.000000000000000D+00 0.000000000000000D+00 0.000000000000000D+00
 0.853676523949562D+03 0.000000000000000D+00 0.000000000000000D+00 0.853676523949562D+03
 0.853676523949562D+03 -.000000000000000D+00 -.000000000000000D+00 -.853676523949562D+03
 0.529307716210858D+03 0.189600456531397D+03 0.422901955153292D+03 -.223040941647410D+03
 0.242510867213579D+03 -.905621845732539D+02 0.108380811062883D+03 -.197138558469300D+03
 0.452198580751124D+03 -.124345087895829D+02 -.566112061723198D+02 0.448468628512862D+03
 0.483335883723563D+03 -.866037631685602D+02 -.474671560043855D+03 -.282891283961520D+02
0.789982199283D-02 0.000000000000D+00 0.000000000000D+00 0.216347371899D-04 0.000000000000D+00  6 2 3 25 4 1 21 0 0.74214544D-01 0.23241863D+00 0.31996630D+06 0.31996630D+06 0.31996630D+06 0.10824876D+01  1  2  2  3  6  4        4 0.260455084146D-02 0.100000000000D+01
0.653449083909D-02 0.000000000000D+00 -.303373965234D-04 0.216347371899D-04 0.000000000000D+00  6 2 3 25 4 1 21 2 0.74214544D-01 0.23241863D+00 0.31996630D+06 0.31996630D+06 0.31996630D+06 0.10824876D+01  1  2  3  3  6  4        4 0.252448711840D-02 0.100000000000D+01
-.536552625590D-02 0.000000000000D+00 0.000000000000D+00 0.216347371899D-04 0.000000000000D+00  6 2 3 25 4 1 21 2 0.74214544D-01 0.23241863D+00 0.31996630D+06 0.31996630D+06 0.31996630D+06 0.10824876D+01  1  2 15  3  6  4        4 -.207287794107D-02 0.100000000000D+01
  </mgrwgt>
  </event>
  <event>
  6     66 0.17338086E-05 0.48206845E+02 0.75467711E-02 0.94126134E-01
        2 -1    0    0  502    0 0.00000000E+00 0.00000000E+00 0.12487634E+04 0.12487634E+04 0.32000000E+00 0.0000E+00 0.9000E+01
       21 -1    0    0  501  503 0.00000000E+00 0.00000000E+00 -.43934775E+03 0.43934839E+03 0.75000000E+00 0.0000E+00 0.9000E+01
       25  1    1    2    0    0 -.25926003E+03 -.40047708E+03 0.25522817E+03 0.55530539E+03 0.12500000E+03 0.0000E+00 0.9000E+01
        4  1    1    2  501    0 0.16174168E+03 0.42144730E+03 0.15845165E+03 0.47842191E+03 0.15500000E+01 0.0000E+00 0.9000E+01
        1  1    1    2  502    0 0.62653524E+02 -.19703171E+02 0.52060523E+03 0.52473192E+03 0.32000000E+00 0.0000E+00 0.9000E+01
       -3  1    1    2    0  503 0.34864827E+02 -.12670462E+01 -.12486945E+03 0.12965257E+03 0.50000000E+00 0.0000E+00 0.9000E+01
#aMCatNLO 2  0  0  2  4 0.34887843D+02 0.00000000D+00  -5  6  0 0.00000000D+00 0.00000000D+00 0.00000000D+00 0.00000000D+00 0.00000000D+00
  <mgrwgt>
 0.1415102592D-02    2    2    0
 0.623435925725234D+03 0.000000000000000D+00 0.000000000000000D+00 0.623435925725234D+03
 0.623435925725234D+03 0.000000000000000D+00 0.000000000000000D+00 -.623435925725234D+03
 0.496043670404437D+03 -.245319344599010D+03 -.401058335627741D+03 -.969791397019193D+02
 0.483401077483191D+03 0.175242296376768D+03 0.421023902475454D+03 -.160329700357875D+03
 0.267427103562840D+03 0.700770482222423D+02 -.199655668477133D+02 0.257308840059794D+03
 0.000000000000000D+00 0.000000000000000D+00 -.000000000000000D+00 -.000000000000000D+00
 0.624876406663945D+03 0.000000000000000D+00 0.000000000000000D+00 0.624876406663945D+03
 0.878000057414766D+03 0.000000000000000D+00 0.000000000000000D+00 -.878000057414766D+03
 0.502689839953932D+03 -.259279824382903D+03 -.400550988419148D+03 -.969791397019193D+02
 0.479118006652842D+03 0.161788028470136D+03 0.421512853096906D+03 -.160329700357875D+03
 0.265551995424613D+03 0.626269688372199D+02 -.196948184896125D+02 0.257308840059794D+03
 0.255516622047323D+03 0.348648270755475D+02 -.126704618814562D+01 -.253123650750822D+03
-.847050251543D-04 0.000000000000D+00 0.000000000000D+00 0.106693445530D-05 0.000000000000D+00  6 2 21 25 4 1 -3 2 0.19167454D+00 0.67814949D-01 0.27315305D+06 0.27315305D+06 0.27315305D+06 0.10875771D+01  1  2 13  6  6  2        3 -.455873564356D-02 0.100000000000D+01
0.110571598109D-03 0.000000000000D+00 0.000000000000D+00 0.106693445530D-05 0.322706238652D-09  6 2 21 25 4 1 -3 2 0.19211742D+00 0.67591988D-01 0.27315305D+06 0.27315305D+06 0.27315305D+06 0.10875771D+01  1  2  1  6  6  2        3 0.597383823523D-02 0.100000000000D+01
  </mgrwgt>
  </event>
  <event>
  5     66 -.17338086E-05 0.50926824E+02 0.75467711E-02 0.95011426E-01
        2 -1    0    0  502    0 0.00000000E+00 0.00000000E+00 0.15077191E+04 0.15077192E+04 0.32000000E+00 0.0000E+00 0.9000E+01
        3 -1    0    0  501    0 0.00000000E+00 0.00000000E+00 -.53276616E+03 0.53276640E+03 0.50000000E+00 0.0000E+00 0.9000E+01
       25  1    1    2    0    0 -.58122019E+02 -.47150757E+03 0.95666038E+03 0.10754170E+04 0.12500000E+03 0.0000E+00 0.9000E+01
        4  1    1    2  501    0 0.46655631E+02 0.42184331E+03 -.37628954E+03 0.56720785E+03 0.15500000E+01 0.0000E+00 0.9000E+01
        1  1    1    2  502    0 0.11466388E+02 0.49664263E+02 0.39458214E+03 0.39786076E+03 0.32000000E+00 0.0000E+00 0.9000E+01
#aMCatNLO 1  0  0  5  4 0.46082712D-01 0.00000000D+00  -5  6  0 0.00000000D+00 0.00000000D+00 0.00000000D+00 0.00000000D+00 0.00000000D+00
  <mgrwgt>
 -.4333989132D-02    7    2    0
 0.896248854387289D+03 0.000000000000000D+00 0.000000000000000D+00 0.896248854387289D+03
 0.896248854387289D+03 -.000000000000000D+00 -.000000000000000D+00 -.896248854387289D+03
 0.704030128508662D+03 -.581205840763426D+02 -.471536364925667D+03 0.504290467991649D+03
 0.850385463937120D+03 0.466640772444606D+02 0.421914899560566D+03 -.736862075764028D+03
 0.238082116328796D+03 0.114565068318820D+02 0.496214653651012D+02 0.232571607772379D+03
 0.000000000000000D+00 0.000000000000000D+00 0.000000000000000D+00 0.000000000000000D+00
 0.896248854387289D+03 0.000000000000000D+00 0.000000000000000D+00 0.896248854387289D+03
 0.896248854387289D+03 -.000000000000000D+00 -.000000000000000D+00 -.896248854387289D+03
 0.704030502993349D+03 -.581205516744272D+02 -.471536224583541D+03 0.504291125763312D+03
 0.850384861743904D+03 0.466641163821333D+02 0.421915069077217D+03 -.736861281253834D+03
 0.237460522834841D+03 0.114604491991308D+02 0.495221064608557D+02 0.231956286788761D+03
 0.621821202483438D+00 -.401390683690304D-02 0.990490454687584D-01 0.613868701760874D+00
0.100440063843D-04 0.000000000000D+00 0.000000000000D+00 0.241511793136D-04 0.000000000000D+00  6 2 3 25 4 1 21 0 0.23195681D+00 0.81964045D-01 0.23362133D+06 0.23362133D+06 0.23362133D+06 0.10926799D+01  1  2  2  4  6  5        1 0.153577892641D-04 0.100000000000D+01
0.199204098103D-05 0.000000000000D+00 -.385716291634D-07 0.241511793136D-04 0.000000000000D+00  6 2 3 25 4 1 21 2 0.23195681D+00 0.81964045D-01 0.23362133D+06 0.23362133D+06 0.23362133D+06 0.10926799D+01  1  2  3  4  6  5        1 0.363668652815D-05 0.100000000000D+01
-.606399750332D-05 0.000000000000D+00 0.000000000000D+00 0.241511793136D-04 0.000000000000D+00  6 2 3 25 4 1 21 2 0.23195681D+00 0.81964045D-01 0.23362133D+06 0.23362133D+06 0.23362133D+06 0.10926799D+01  1  2 15  4  6  5        1 -.110704841100D-04 0.100000000000D+01
-.761239968643D+00 0.000000000000D+00 0.000000000000D+00 0.241511793136D-04 0.000000000000D+00  6 2 3 25 4 1 21 2 0.23195681D+00 0.81964045D-01 0.23362133D+06 0.23362133D+06 0.23362133D+06 0.10926799D+01  1  2  4  4  6  5        1 -.138972599711D+01 0.100000000000D+01
-.423930321071D+00 0.000000000000D+00 0.000000000000D+00 0.241511793136D-04 0.000000000000D+00  6 2 3 25 4 1 21 2 0.23195681D+00 0.81964045D-01 0.23362133D+06 0.23362133D+06 0.23362133D+06 0.10926799D+01  1  2  5  4  6  5        1 -.773930708350D+00 0.100000000000D+01
0.425741082594D+00 0.000000000000D+00 -.000000000000D+00 0.241511793136D-04 0.000000000000D+00  6 2 3 25 4 1 21 2 0.23195681D+00 0.81964045D-01 0.23362133D+06 0.23362133D+06 0.23362133D+06 0.10926799D+01  1  2  6  4  6  5        1 0.777236449597D+00 0.100000000000D+01
0.757051405161D+00 0.000000000000D+00 0.000000000000D+00 0.241511793136D-04 0.130235842266D+00  6 2 3 25 4 1 21 2 0.23195681D+00 0.81964045D-01 0.23362290D+06 0.23362290D+06 0.23362290D+06 0.10926796D+01  1  2 11  4  6  5        1 0.138207834274D+01 0.100000000000D+01
  </mgrwgt>
  </event>
  <event>
  6     66 0.17338086E-05 0.77379370E+02 0.75467711E-02 0.93372835E-01
        2 -1    0    0  503    0 0.00000000E+00 0.00000000E+00 0.27942128E+04 0.27942129E+04 0.32000000E+00 0.0000E+00 0.9000E+01
        3 -1    0    0  501    0 0.00000000E+00 0.00000000E+00 -.27548615E+03 0.27548661E+03 0.50000000E+00 0.0000E+00 0.9000E+01
       25  1    1    2    0    0 0.54031882E+02 0.46430742E+03 0.94401640E+03 0.10607982E+04 0.12500000E+03 0.0000E+00 0.9000E+01
        4  1    1    2  501    0 -.26191688E+02 -.52552915E+03 0.10669777E+03 0.53689264E+03 0.15500000E+01 0.0000E+00 0.9000E+01
        1  1    1    2  502    0 -.33641630E+02 0.81003597E+02 0.11704390E+04 0.11737210E+04 0.32000000E+00 0.0000E+00 0.9000E+01
       21  1    1    2  503  502 0.58014366E+01 -.19781863E+02 0.29757354E+03 0.29828770E+03 0.75000000E+00 0.0000E+00 0.9000E+01
#aMCatNLO 2  0  0  1  1 0.20615013D+02 0.00000000D+00  -5  6  0 0.00000000D+00 0.00000000D+00 0.00000000D+00 0.00000000D+00 0.00000000D+00
  <mgrwgt>
 0.8954190848D-03    1    2    0
 0.828670154595186D+03 0.000000000000000D+00 0.000000000000000D+00 0.828670154595186D+03
 0.828670154595186D+03 0.000000000000000D+00 0.000000000000000D+00 -.828670154595186D+03
 0.503453636713722D+03 0.558004335144257D+02 0.458352259249039D+03 0.156971597370917D+03
 0.760993486380126D+03 -.235454175723252D+02 -.534637288296671D+03 -.541035737809534D+03
 0.392893186096523D+03 -.322550159421005D+02 0.762850290476320D+02 0.384064140438617D+03
 0.000000000000000D+00 0.000000000000000D+00 -.000000000000000D+00 0.000000000000000D+00
 0.927641890253480D+03 0.000000000000000D+00 0.000000000000000D+00 0.927641890253480D+03
 0.829808438559165D+03 0.000000000000000D+00 0.000000000000000D+00 -.829808438559165D+03
 0.508768106289399D+03 0.540288863117782D+02 0.464392918809098D+03 0.156971597370917D+03
 0.754753391846580D+03 -.261982129312527D+02 -.525591729915930D+03 -.541035737809534D+03
 0.393947017169513D+03 -.336321100132977D+02 0.809806738793626D+02 0.384064140438617D+03
 0.999818135071529D+02 0.580143663277213D+01 -.197818627725308D+02 0.978334516943146D+02
0.666850461396D-03 0.000000000000D+00 0.000000000000D+00 0.615726419926D-05 0.174415097320D-07  6 2 3 25 4 1 21 2 0.42987821D+00 0.42382450D-01 0.31275685D+06 0.31275685D+06 0.31275685D+06 0.10832163D+01  1  2  1  1  6  1        2 0.895419084804D-03 0.100000000000D+01
  </mgrwgt>
  </event>
  <event>
  5     66 -.17338086E-05 0.13305620E+03 0.75467711E-02 0.94220670E-01
        2 -1    0    0  502    0 0.00000000E+00 0.00000000E+00 0.35948255E+04 0.35948255E+04 0.32000000E+00 0.0000E+00 0.9000E+01
        3 -1    0    0  501    0 0.00000000E+00 0.00000000E+00 -.18268117E+03 0.18268185E+03 0.50000000E+00 0.0000E+00 0.9000E+01
       25  1    1    2    0    0 0.45765551E+03 -.11284899E+02 0.69483145E+03 0.84142240E+03 0.12500000E+03 0.0000E+00 0.9000E+01
        4  1    1    2  501    0 -.62768194E+02 0.11736210E+03 -.47407152E+02 0.14129243E+03 0.15500000E+01 0.0000E+00 0.9000E+01
        1  1    1    2  502    0 -.39488731E+03 -.10607720E+03 0.27647201E+04 0.27947926E+04 0.32000000E+00 0.0000E+00 0.9000E+01
#aMCatNLO 1  0  0  1  5 0.21534725D+02 0.00000000D+00  -5  6  0 0.00000000D+00 0.00000000D+00 0.00000000D+00 0.00000000D+00 0.00000000D+00
  <mgrwgt>
 -.2557532656D-02    9    2    0
 0.810375371454436D+03 0.000000000000000D+00 0.000000000000000D+00 0.810375371454436D+03
 0.810375371454436D+03 0.000000000000000D+00 0.000000000000000D+00 -.810375371454436D+03
 0.498353613596139D+03 0.457667337494356D+03 -.112459482588878D+02 -.152136323811623D+03
 0.429001694430928D+03 -.627464054487430D+02 0.117332182814540D+03 -.407846173579996D+03
 0.693395434881805D+03 -.394920932045613D+03 -.106086234555652D+03 0.559982497391620D+03
 0.000000000000000D+00 -.000000000000000D+00 -.000000000000000D+00 0.000000000000000D+00
 0.111453574031409D+04 0.000000000000000D+00 0.000000000000000D+00 0.111453574031409D+04
 0.810828157972488D+03 0.000000000000000D+00 0.000000000000000D+00 -.810828157972488D+03
 0.502463334042267D+03 0.462231365704043D+03 -.641136438916784D+01 -.152136323811623D+03
 0.429600879061557D+03 -.588309178307764D+02 0.121479780596634D+03 -.407846173579996D+03
 0.688829588179071D+03 -.388617567566954D+03 -.994092065371104D+02 0.559982497391620D+03
 0.304470097003686D+03 -.147828803063131D+02 -.156592096703556D+02 0.303707582341605D+03
0.811039799249D-04 0.000000000000D+00 0.000000000000D+00 0.411425441644D-05 0.000000000000D+00  6 2 3 25 4 1 21 0 0.55305013D+00 0.28104849D-01 0.25833921D+06 0.25833921D+06 0.25833921D+06 0.10893887D+01  1  2  2  1  6  1        2 0.609147446178D-04 0.100000000000D+01
0.952734519681D-05 0.000000000000D+00 -.311460638080D-06 0.411425441644D-05 0.000000000000D+00  6 2 3 25 4 1 21 2 0.55305013D+00 0.28104849D-01 0.25833921D+06 0.25833921D+06 0.25833921D+06 0.10893887D+01  1  2  3  1  6  1        2 0.849215431009D-05 0.100000000000D+01
-.526931653798D-04 0.000000000000D+00 0.000000000000D+00 0.411425441644D-05 0.000000000000D+00  6 2 3 25 4 1 21 2 0.55305013D+00 0.28104849D-01 0.25833921D+06 0.25833921D+06 0.25833921D+06 0.10893887D+01  1  2 15  1  6  1        2 -.469678050126D-04 0.100000000000D+01
0.114332102694D-01 0.000000000000D+00 0.000000000000D+00 0.411425441644D-05 0.000000000000D+00  6 2 3 25 4 1 21 2 0.76272829D+00 0.28104849D-01 0.26859280D+06 0.26859280D+06 0.26859280D+06 0.10881231D+01  1  2 12  1  6  1        2 0.538766064548D-03 0.100000000000D+01
-.146404835115D-01 0.000000000000D+00 0.000000000000D+00 0.411425441644D-05 0.000000000000D+00  6 2 3 25 4 1 21 2 0.55305013D+00 0.28104849D-01 0.25833921D+06 0.25833921D+06 0.25833921D+06 0.10893887D+01  1  2  4  1  6  1        2 -.130497260870D-01 0.100000000000D+01
-.115798533672D-01 0.000000000000D+00 -.397619275642D-04 0.411425441644D-05 0.000000000000D+00  6 2 3 25 4 1 21 2 0.76067078D+00 0.28104849D-01 0.25833921D+06 0.25833921D+06 0.25833921D+06 0.10893887D+01  1  2  5  1  6  1        2 -.570840339395D-03 0.100000000000D+01
0.117820097771D-01 0.000000000000D+00 0.404148501685D-04 0.411425441644D-05 0.000000000000D+00  6 2 3 25 4 1 21 2 0.55305013D+00 0.28104849D-01 0.25833921D+06 0.25833921D+06 0.25833921D+06 0.10893887D+01  1  2  6  1  6  1        2 0.105018389744D-01 0.100000000000D+01
0.464528673503D-03 0.000000000000D+00 0.000000000000D+00 0.411425441644D-05 0.000000000000D+00  6 21 3 25 4 1 -2 2 0.76272829D+00 0.28104849D-01 0.26859280D+06 0.26859280D+06 0.26859280D+06 0.10881231D+01  1  2 12  5  6  1        2 0.153508477066D-06 0.100000000000D+01
-.466656534980D-03 0.000000000000D+00 -.160572566104D-05 0.411425441644D-05 0.000000000000D+00  6 21 3 25 4 1 -2 2 0.76067078D+00 0.28104849D-01 0.25833921D+06 0.25833921D+06 0.25833921D+06 0.10893887D+01  1  2  5  5  6  1        2 -.163870948386D-06 0.100000000000D+01
  </mgrwgt>
  </event>
  <event>
  5     66 0.17338086E-05 0.22174866E+02 0.75467711E-02 0.89821785E-01
        2 -1    0    0  502    0 0.00000000E+00 0.00000000E+00 0.27746224E+04 0.27746225E+04 0.32000000E+00 0.0000E+00 0.9000E+01
        3 -1    0    0  501    0 0.00000000E+00 0.00000000E+00 -.40882855E+03 0.40882886E+03 0.50000000E+00 0.0000E+00 0.9000E+01
       25  1    1    2    0    0 0.57534041E+03 -.21280159E+03 0.17316973E+04 0.18413858E+04 0.12500000E+03 0.0000E+00 0.9000E+01
        4  1    1    2  501    0 -.57147378E+03 0.19094955E+03 -.97294194E+02 0.61033808E+03 0.15500000E+01 0.0000E+00 0.9000E+01
        1  1    1    2  502    0 -.38666343E+01 0.21852048E+02 0.73139082E+03 0.73172747E+03 0.32000000E+00 0.0000E+00 0.9000E+01
#aMCatNLO 1  0  0  1  5 0.21534725D+02 0.00000000D+00  -5  6  0 0.00000000D+00 0.00000000D+00 0.00000000D+00 0.00000000D+00 0.00000000D+00
  <mgrwgt>
 0.1847017234D-02    7    2    0
 0.106505651937568D+04 0.000000000000000D+00 0.000000000000000D+00 0.106505651937568D+04
 0.106505651937568D+04 0.000000000000000D+00 0.000000000000000D+00 -.106505651937568D+04
 0.828832021160139D+03 0.575416009228371D+03 -.212813736537615D+03 0.543087699331327D+03
 0.102023991494051D+04 -.571552273804941D+03 0.190978071850599D+03 -.823252609117303D+03
 0.281041102650716D+03 -.386373542343032D+01 0.218356646870165D+02 0.280164909785976D+03
 0.000000000000000D+00 -.000000000000000D+00 -.000000000000000D+00 0.000000000000000D+00
 0.201233622008845D+04 0.000000000000000D+00 0.000000000000000D+00 0.201233622008845D+04
 0.109899856883466D+04 0.000000000000000D+00 0.000000000000000D+00 -.109899856883466D+04
 0.907802706325323D+03 0.692591447770220D+03 -.183993453476307D+03 0.543087699331327D+03
 0.959006057458743D+03 -.438007198880708D+03 0.223824604440152D+03 -.823252609117303D+03
 0.283972326870644D+03 0.342592476877395D+02 0.312123325115880D+02 0.280164909785976D+03
 0.960553698268400D+03 -.288843496577251D+03 -.710434834754337D+02 0.913337651253798D+03
0.685463119538D-03 0.000000000000D+00 0.000000000000D+00 0.461867464446D-04 0.000000000000D+00  6 2 3 25 4 1 21 0 0.42686502D+00 0.62896725D-01 0.39118978D+06 0.39118978D+06 0.39118978D+06 0.10761256D+01  1  2  2  1  6  1        2 0.353465266341D-03 0.100000000000D+01
0.352353475794D-03 0.000000000000D+00 -.263235886561D-05 0.461867464446D-04 0.000000000000D+00  6 2 3 25 4 1 21 2 0.42686502D+00 0.62896725D-01 0.39118978D+06 0.39118978D+06 0.39118978D+06 0.10761256D+01  1  2  3  1  6  1        2 0.210410367510D-03 0.100000000000D+01
-.448293491630D-03 0.000000000000D+00 0.000000000000D+00 0.461867464446D-04 0.000000000000D+00  6 2 3 25 4 1 21 2 0.42686502D+00 0.62896725D-01 0.39118978D+06 0.39118978D+06 0.39118978D+06 0.10761256D+01  1  2 15  1  6  1        2 -.267701625800D-03 0.100000000000D+01
-.135036744743D-04 0.000000000000D+00 0.000000000000D+00 0.461867464446D-04 0.000000000000D+00  6 2 3 25 4 1 21 2 0.42686502D+00 0.62896725D-01 0.39118978D+06 0.39118978D+06 0.39118978D+06 0.10761256D+01  1  2  4  1  6  1        2 -.806381461817D-05 0.100000000000D+01
-.294814902717D-02 0.000000000000D+00 -.287092923753D-03 0.461867464446D-04 0.000000000000D+00  6 2 3 25 4 1 21 2 0.80829235D+00 0.62896725D-01 0.39118978D+06 0.39118978D+06 0.39118978D+06 0.10761256D+01  1  2  5  1  6  1        2 -.101078286212D-04 0.100000000000D+01
0.262747976665D-02 0.000000000000D+00 0.237104029771D-03 0.461867464446D-04 0.000000000000D+00  6 2 3 25 4 1 21 2 0.42686502D+00 0.62896725D-01 0.39118978D+06 0.39118978D+06 0.39118978D+06 0.10761256D+01  1  2  6  1  6  1        2 0.156901810627D-02 0.100000000000D+01
-.188280604172D-03 0.000000000000D+00 -.199251541884D-04 0.461867464446D-04 0.000000000000D+00  6 21 3 25 4 1 -2 2 0.80829235D+00 0.62896725D-01 0.39118978D+06 0.39118978D+06 0.39118978D+06 0.10761256D+01  1  2  5  5  6  1        2 -.323667801863D-08 0.100000000000D+01
  </mgrwgt>
  </event>
  <event>
  5     66 0.17338086E-05 0.15175040E+02 0.75467711E-02 0.92068135E-01
        2 -1    0    0  502    0 0.00000000E+00 0.00000000E+00 0.28078304E+04 0.28078305E+04 0.32000000E+00 0.0000E+00 0.9000E+01
        3 -1    0    0  501    0 0.00000000E+00 0.00000000E+00 -.32837681E+03 0.32837719E+03 0.50000000E+00 0.0000E+00 0.9000E+01
       25  1    1    2    0    0 -.46589951E+03 -.39651443E+03 0.18508648E+04 0.19533591E+04 0.12500000E+03 0.0000E+00 0.9000E+01
        4  1    1    2  501    0 0.46258899E+03 0.41134307E+03 0.68782864E+02 0.62283639E+03 0.15500000E+01 0.0000E+00 0.9000E+01
        1  1    1    2  502    0 0.33105193E+01 -.14828635E+02 0.55980594E+03 0.56001218E+03 0.32000000E+00 0.0000E+00 0.9000E+01
#aMCatNLO 1  0  0  5  1 0.41088006D+01 0.00000000D+00  -5  6  0 0.00000000D+00 0.00000000D+00 0.00000000D+00 0.00000000D+00 0.00000000D+00
  <mgrwgt>
 0.4327081764D-02    8    2    0
 0.960222380314388D+03 0.000000000000000D+00 0.000000000000000D+00 0.960222380314388D+03
 0.960222380314388D+03 -.000000000000000D+00 -.000000000000000D+00 -.960222380314388D+03
 0.800540668447830D+03 -.465968175431809D+03 -.396593512925281D+03 0.500826923027540D+03
 0.928360329393158D+03 0.462661717861688D+03 0.411403954705436D+03 -.691768618881322D+03
 0.191543762787788D+03 0.330645757012084D+01 -.148104417801553D+02 0.190941695853782D+03
 0.000000000000000D+00 0.000000000000000D+00 -.000000000000000D+00 0.000000000000000D+00
 0.960222380314388D+03 0.000000000000000D+00 0.000000000000000D+00 0.960222380314388D+03
 0.960222380314388D+03 -.000000000000000D+00 -.000000000000000D+00 -.960222380314388D+03
 0.800591342222393D+03 -.465966833664814D+03 -.396599523031729D+03 0.500904407543840D+03
 0.928291066333253D+03 0.462663273756860D+03 0.411396985465891D+03 -.691678768866221D+03
 0.735025085886561D+02 0.522978447946730D+01 -.458955003673542D+01 0.731724275501646D+02
 0.118059843484472D+03 -.192622457151301D+01 -.102079123974261D+02 0.117601933772216D+03
0.485723946121D-04 0.000000000000D+00 0.000000000000D+00 0.235991989400D-04 0.000000000000D+00  6 2 3 25 4 1 21 0 0.43197395D+00 0.50519539D-01 0.39615989D+06 0.39615989D+06 0.39615989D+06 0.10757298D+01  1  2  2  4  6  5        1 0.377606221627D-04 0.100000000000D+01
0.285071496088D-04 0.000000000000D+00 -.186530784716D-06 0.235991989400D-04 0.000000000000D+00  6 2 3 25 4 1 21 2 0.43197395D+00 0.50519539D-01 0.39615989D+06 0.39615989D+06 0.39615989D+06 0.10757298D+01  1  2  3  4  6  5        1 0.256454188217D-04 0.100000000000D+01
-.322712296366D-04 0.000000000000D+00 0.000000000000D+00 0.235991989400D-04 0.000000000000D+00  6 2 3 25 4 1 21 2 0.43197395D+00 0.50519539D-01 0.39615989D+06 0.39615989D+06 0.39615989D+06 0.10757298D+01  1  2 15  4  6  5        1 -.290316363186D-04 0.100000000000D+01
0.395011068428D-03 0.000000000000D+00 0.000000000000D+00 0.235991989400D-04 0.000000000000D+00  6 2 3 25 4 1 21 2 0.43197395D+00 0.50519539D-01 0.39752716D+06 0.39752716D+06 0.39752716D+06 0.10756218D+01  1  2 12  4  6  5        1 0.355210291950D-03 0.100000000000D+01
-.367005719940D-02 0.000000000000D+00 0.000000000000D+00 0.235991989400D-04 0.000000000000D+00  6 2 3 25 4 1 21 2 0.43197395D+00 0.50519539D-01 0.39615989D+06 0.39615989D+06 0.39615989D+06 0.10757298D+01  1  2  4  4  6  5        1 -.330163328393D-02 0.100000000000D+01
-.335689858256D-02 0.000000000000D+00 0.000000000000D+00 0.235991989400D-04 0.000000000000D+00  6 2 3 25 4 1 21 2 0.43197395D+00 0.50519539D-01 0.39615989D+06 0.39615989D+06 0.39615989D+06 0.10757298D+01  1  2  5  4  6  5        1 -.301991154055D-02 0.100000000000D+01
0.916710211689D-02 0.000000000000D+00 -.000000000000D+00 0.235991989400D-04 0.000000000000D+00  6 2 3 25 4 1 21 2 0.43197395D+00 0.50519539D-01 0.39615989D+06 0.39615989D+06 0.39615989D+06 0.10757298D+01  1  2  6  4  6  5        1 0.824684952355D-02 0.100000000000D+01
0.223765548297D-02 0.000000000000D+00 0.000000000000D+00 0.235991989400D-04 0.147632415467D-05  6 2 3 25 4 1 21 2 0.43197395D+00 0.50519539D-01 0.39752716D+06 0.39752716D+06 0.39752716D+06 0.10756218D+01  1  2 11  4  6  5        1 0.201219236857D-02 0.100000000000D+01
  </mgrwgt>
  </event>
  <event>
  5     66 0.17338086E-05 0.28980160E+02 0.75467711E-02 0.93551589E-01
        2 -1    0    0  502    0 0.00000000E+00 0.00000000E+00 0.41541345E+04 0.41541345E+04 0.32000000E+00 0.0000E+00 0.9000E+01
        3 -1    0    0  501    0 0.00000000E+00 0.00000000E+00 -.19801592E+03 0.19801655E+03 0.50000000E+00 0.0000E+00 0.9000E+01
       25  1    1    2    0    0 0.11299493E+03 0.50449132E+03 0.53117092E+03 0.75169601E+03 0.12500000E+03 0.0000E+00 0.9000E+01
        4  1    1    2  501    0 -.14112736E+03 -.51145754E+03 0.71501639E+03 0.89036879E+03 0.15500000E+01 0.0000E+00 0.9000E+01
        1  1    1    2  502    0 0.28132435E+02 0.69662137E+01 0.27099313E+04 0.27100863E+04 0.32000000E+00 0.0000E+00 0.9000E+01
#aMCatNLO 1  0  0  1  2 0.68578426D+01 0.00000000D+00  -5  6  0 0.00000000D+00 0.00000000D+00 0.00000000D+00 0.00000000D+00 0.00000000D+00
  <mgrwgt>
 0.1422988706D-01    9    2    0
 0.906965366653256D+03 0.000000000000000D+00 0.000000000000000D+00 0.906965366653256D+03
 0.906965366653256D+03 0.000000000000000D+00 0.000000000000000D+00 -.906965366653256D+03
 0.645093384644764D+03 0.113004156610587D+03 0.504525472950944D+03 -.364972029948589D+03
 0.576850344129808D+03 -.141134710281398D+03 -.511491220917901D+03 -.226305201001608D+03
 0.591987004531939D+03 0.281305536708115D+02 0.696574796695759D+01 0.591277230950197D+03
 0.000000000000000D+00 -.000000000000000D+00 -.000000000000000D+00 0.000000000000000D+00
 0.918153941732264D+03 0.000000000000000D+00 0.000000000000000D+00 0.918153941732264D+03
 0.908023306407056D+03 0.000000000000000D+00 0.000000000000000D+00 -.908023306407056D+03
 0.645739427938634D+03 0.115428404883892D+03 0.504803040299561D+03 -.364972029948589D+03
 0.576104376398322D+03 -.138969403927862D+03 -.511243301449375D+03 -.226305201001608D+03
 0.592099892484873D+03 0.303543278013993D+02 0.722036177699793D+01 0.591277230950197D+03
 0.122335513174916D+02 -.681332875742975D+01 -.780100627183792D+00 0.101306353252078D+02
0.438292736790D-02 0.000000000000D+00 0.000000000000D+00 0.160800467260D-04 0.000000000000D+00  6 2 3 25 4 1 21 0 0.63909767D+00 0.30464038D-01 0.29784722D+06 0.29784722D+06 0.29784722D+06 0.10847833D+01  1  2  2  1  6  1        2 0.101003276616D-02 0.100000000000D+01
0.277094366517D-02 0.000000000000D+00 -.168315951440D-04 0.160800467260D-04 0.000000000000D+00  6 2 3 25 4 1 21 2 0.63909767D+00 0.30464038D-01 0.29784722D+06 0.29784722D+06 0.29784722D+06 0.10847833D+01  1  2  3  1  6  1        2 0.751423721807D-03 0.100000000000D+01
-.310897451951D-02 0.000000000000D+00 0.000000000000D+00 0.160800467260D-04 0.000000000000D+00  6 2 3 25 4 1 21 2 0.63909767D+00 0.30464038D-01 0.29784722D+06 0.29784722D+06 0.29784722D+06 0.10847833D+01  1  2 15  1  6  1        2 -.843090833575D-03 0.100000000000D+01
-.389760486750D-03 0.000000000000D+00 0.000000000000D+00 0.160800467260D-04 0.000000000000D+00  6 2 3 25 4 1 21 2 0.63909767D+00 0.30464038D-01 0.29784722D+06 0.29784722D+06 0.29784722D+06 0.10847833D+01  1  2  4  1  6  1        2 -.105695138898D-03 0.100000000000D+01
-.466026044107D+00 0.000000000000D+00 -.363556764812D-01 0.160800467260D-04 0.000000000000D+00  6 2 3 25 4 1 21 2 0.64711702D+00 0.30464038D-01 0.29784722D+06 0.29784722D+06 0.29784722D+06 0.10847833D+01  1  2  5  1  6  1        2 -.113757923158D+00 0.100000000000D+01
0.468790720290D+00 0.000000000000D+00 0.367597841711D-01 0.160800467260D-04 0.000000000000D+00  6 2 3 25 4 1 21 2 0.63909767D+00 0.30464038D-01 0.29784722D+06 0.29784722D+06 0.29784722D+06 0.10847833D+01  1  2  6  1  6  1        2 0.127126535345D+00 0.100000000000D+01
0.216044244912D-03 0.000000000000D+00 0.000000000000D+00 0.160800467260D-04 0.954366914385D-07  6 2 3 25 4 1 21 2 0.64698175D+00 0.30499573D-01 0.30280742D+06 0.30280742D+06 0.30280742D+06 0.10842527D+01  1  2 11  1  6  1        2 0.525907874957D-04 0.100000000000D+01
-.106742882540D-02 0.000000000000D+00 -.834351945010D-04 0.160800467260D-04 0.000000000000D+00  6 21 3 25 4 1 -2 2 0.64711702D+00 0.30464038D-01 0.29784722D+06 0.29784722D+06 0.29784722D+06 0.10847833D+01  1  2  5  5  6  1        2 -.399845954881D-05 0.100000000000D+01
0.322046127127D-05 0.000000000000D+00 0.000000000000D+00 0.160800467260D-04 0.272107971256D-08  6 21 3 25 4 1 -2 2 0.64698175D+00 0.30499573D-01 0.30280742D+06 0.30280742D+06 0.30280742D+06 0.10842527D+01  1  2 11  5  6  1        2 0.120333075177D-07 0.100000000000D+01
  </mgrwgt>
  </event>
  <event>
  6     66 0.17338086E-05 0.32157949E+02 0.75467711E-02 0.92882513E-01
        2 -1    0    0  502    0 0.00000000E+00 0.00000000E+00 0.11122730E+04 0.11122731E+04 0.32000000E+00 0.0000E+00 0.9000E+01
        3 -1    0    0  503    0 0.00000000E+00 0.00000000E+00 -.14335016E+04 0.14335017E+04 0.50000000E+00 0.0000E+00 0.9000E+01
       25  1    1    2    0    0 0.42785673E+03 0.36398600E+03 0.34544078E+03 0.67119411E+03 0.12500000E+03 0.0000E+00 0.9000E+01
        4  1    1    2  501    0 -.43286691E+03 -.32081831E+03 -.10675643E+04 0.11958236E+04 0.15500000E+01 0.0000E+00 0.9000E+01
        1  1    1    2  502    0 0.18273319E+02 -.35411869E+02 0.53866194E+03 0.54013396E+03 0.32000000E+00 0.0000E+00 0.9000E+01
       21  1    1    2  503  501 -.13263143E+02 -.77558257E+01 -.13776695E+03 0.13862308E+03 0.75000000E+00 0.0000E+00 0.9000E+01
#aMCatNLO 2  0  0  2  4 0.15364368D+02 0.00000000D+00  -5  6  0 0.00000000D+00 0.00000000D+00 0.00000000D+00 0.00000000D+00 0.00000000D+00
  <mgrwgt>
 0.8142198871D-02    5    2    0
 0.120005050918681D+04 0.000000000000000D+00 0.000000000000000D+00 0.120005050918681D+04
 0.120005050918681D+04 0.000000000000000D+00 0.000000000000000D+00 -.120005050918681D+04
 0.696138218514374D+03 0.424048527577339D+03 0.361757912324596D+03 0.397866156397358D+03
 0.112117846118059D+04 -.439097533653664D+03 -.324470426335751D+03 -.979261681159861D+03
 0.582784338678657D+03 0.150490060763248D+02 -.372874859888447D+02 0.581395524762503D+03
 0.000000000000000D+00 -.000000000000000D+00 -.000000000000000D+00 -.000000000000000D+00
 0.120053603881490D+04 0.000000000000000D+00 0.000000000000000D+00 0.120053603881490D+04
 0.132810874804098D+04 0.000000000000000D+00 0.000000000000000D+00 -.132810874804098D+04
 0.699664812557836D+03 0.427905145643829D+03 0.364013128687303D+03 0.397866156397358D+03
 0.111772643441617D+04 -.432911416502966D+03 -.320852999777210D+03 -.979261681159861D+03
 0.582758948784601D+03 0.182694141135920D+02 -.354043031651833D+02 0.581395524762503D+03
 0.128494591097273D+03 -.132631432544544D+02 -.775582574490912D+01 -.127572709226080D+03
-.675009244119D-01 0.000000000000D+00 0.000000000000D+00 0.152213055139D-03 0.000000000000D+00  6 2 3 25 4 1 21 2 0.17104958D+00 0.22124798D+00 0.34198105D+06 0.34198105D+06 0.34198105D+06 0.10803685D+01  1  2 13  2  6  2        3 -.110650591567D-01 0.100000000000D+01
-.127911778336D-03 0.000000000000D+00 0.000000000000D+00 0.152213055139D-03 0.000000000000D+00  6 2 3 25 4 1 21 2 0.17104958D+00 0.19927386D+00 0.33490540D+06 0.33490540D+06 0.33490540D+06 0.10810330D+01  1  2  8  2  6  2        3 -.318003821774D-04 0.100000000000D+01
-.768064913422D-04 0.000000000000D+00 0.000000000000D+00 0.152213055139D-03 0.000000000000D+00  6 2 3 25 4 1 21 2 0.17104958D+00 0.22057170D+00 0.33490540D+06 0.33490540D+06 0.33490540D+06 0.10810330D+01  1  2  9  2  6  2        3 -.127882712716D-04 0.100000000000D+01
0.764122122588D-04 0.000000000000D+00 0.000000000000D+00 0.152213055139D-03 0.000000000000D+00  6 2 3 25 4 1 21 2 0.17104958D+00 0.19927386D+00 0.33490540D+06 0.33490540D+06 0.33490540D+06 0.10810330D+01  1  2 10  2  6  2        3 0.189969804538D-04 0.100000000000D+01
0.115826817250D+00 0.000000000000D+00 0.000000000000D+00 0.152213055139D-03 0.694497635324D-05  6 2 3 25 4 1 21 2 0.17111878D+00 0.22053851D+00 0.34198105D+06 0.34198105D+06 0.34198105D+06 0.10803685D+01  1  2  1  2  6  2        3 0.192328497007D-01 0.100000000000D+01
  </mgrwgt>
  </event>
  <event>
  5     66 -.17338086E-05 0.89013938E+02 0.75467711E-02 0.92020006E-01
        2 -1    0    0  502    0 0.00000000E+00 0.00000000E+00 0.20658142E+04 0.20658142E+04 0.32000000E+00 0.0000E+00 0.9000E+01
        3 -1    0    0  501    0 0.00000000E+00 0.00000000E+00 -.73181939E+03 0.73181956E+03 0.50000000E+00 0.0000E+00 0.9000E+01
       25  1    1    2    0    0 -.33330069E+03 -.38620928E+03 -.24553602E+02 0.52580874E+03 0.12500000E+03 0.0000E+00 0.9000E+01
        4  1    1    2  501    0 0.31334949E+03 0.29946115E+03 -.35236662E+03 0.55859603E+03 0.15500000E+01 0.0000E+00 0.9000E+01
        1  1    1    2  502    0 0.19951195E+02 0.86748129E+02 0.17109150E+04 0.17132290E+04 0.32000000E+00 0.0000E+00 0.9000E+01
#aMCatNLO 1  0  0  2  1 0.17320893D+03 0.00000000D+00  -5  6  0 0.00000000D+00 0.00000000D+00 0.00000000D+00 0.00000000D+00 0.00000000D+00
  <mgrwgt>
 -.1959094036D-02    7    2    0
 0.122955403735831D+04 0.000000000000000D+00 0.000000000000000D+00 0.122955403735831D+04
 0.122955403735831D+04 0.000000000000000D+00 0.000000000000000D+00 -.122955403735831D+04
 0.611509308521903D+03 -.333291895640551D+03 -.386201037475245D+03 -.313183501101684D+03
 0.826632665077049D+03 0.313340457935661D+03 0.299451851823495D+03 -.703894813755957D+03
 0.102096610111766D+04 0.199514377048902D+02 0.867491856517501D+02 0.101707831485764D+04
 0.000000000000000D+00 0.000000000000000D+00 -.000000000000000D+00 -.000000000000000D+00
 0.124207845577038D+04 0.000000000000000D+00 0.000000000000000D+00 0.124207845577038D+04
 0.234013814661847D+04 0.000000000000000D+00 0.000000000000000D+00 -.234013814661847D+04
 0.632474468664743D+03 -.381453824867184D+03 -.375243957505829D+03 -.313183501101684D+03
 0.810225848299039D+03 0.249968036750620D+03 0.313869394848246D+03 -.703894813755957D+03
 0.102417357518380D+04 -.592279488393372D+02 0.104762892416109D+03 0.101707831485764D+04
 0.111534271024127D+04 0.190713736955901D+03 -.433883297585256D+02 -.109805969084809D+04
0.818327244440D-03 0.000000000000D+00 0.000000000000D+00 0.950516835626D-04 0.000000000000D+00  6 2 3 25 4 1 21 0 0.31781758D+00 0.11258761D+00 0.27439699D+06 0.27439699D+06 0.27439699D+06 0.10874299D+01  1  2  2  2  6  2        3 0.288508450637D-03 0.100000000000D+01
0.244551424785D-03 0.000000000000D+00 -.314259208916D-05 0.950516835626D-04 0.000000000000D+00  6 2 3 25 4 1 21 2 0.31781758D+00 0.11258761D+00 0.27439699D+06 0.27439699D+06 0.27439699D+06 0.10874299D+01  1  2  3  2  6  2        3 0.101953990226D-03 0.100000000000D+01
-.577981538363D-03 0.000000000000D+00 0.000000000000D+00 0.950516835626D-04 0.000000000000D+00  6 2 3 25 4 1 21 2 0.31781758D+00 0.11258761D+00 0.27439699D+06 0.27439699D+06 0.27439699D+06 0.10874299D+01  1  2 15  2  6  2        3 -.240961687974D-03 0.100000000000D+01
-.127228106806D-01 0.000000000000D+00 0.000000000000D+00 0.950516835626D-04 0.000000000000D+00  6 2 3 25 4 1 21 2 0.31781758D+00 0.11258761D+00 0.27439699D+06 0.27439699D+06 0.27439699D+06 0.10874299D+01  1  2  4  2  6  2        3 -.530416584941D-02 0.100000000000D+01
-.130856137079D-01 0.000000000000D+00 -.399588922608D-03 0.950516835626D-04 0.000000000000D+00  6 2 3 25 4 1 21 2 0.31781758D+00 0.21490605D+00 0.27439699D+06 0.27439699D+06 0.27439699D+06 0.10874299D+01  1  2  5  2  6  2        3 -.736332988193D-03 0.100000000000D+01
0.110289867568D-01 0.000000000000D+00 0.328517220557D-03 0.950516835626D-04 0.000000000000D+00  6 2 3 25 4 1 21 2 0.31781758D+00 0.11258761D+00 0.27439699D+06 0.27439699D+06 0.27439699D+06 0.10874299D+01  1  2  6  2  6  2        3 0.459800718391D-02 0.100000000000D+01
-.895743400295D-03 0.000000000000D+00 -.280532537684D-04 0.950516835626D-04 0.000000000000D+00  6 2 21 25 4 1 -3 2 0.31781758D+00 0.21490605D+00 0.27439699D+06 0.27439699D+06 0.27439699D+06 0.10874299D+01  1  2  5  6  6  2        3 -.666103135209D-03 0.100000000000D+01
  </mgrwgt>
  </event>
  <event>
  5     66 0.17338086E-05 0.61239790E+02 0.75467711E-02 0.87606240E-01
        2 -1    0    0  502    0 0.00000000E+00 0.00000000E+00 0.20205535E+04 0.20205535E+04 0.32000000E+00 0.0000E+00 0.9000E+01
        3 -1    0    0  501    0 0.00000000E+00 0.00000000E+00 -.76951177E+03 0.76951193E+03 0.50000000E+00 0.0000E+00 0.9000E+01
       25  1    1    2    0    0 -.76201956E+03 -.58359673E+03 0.82537798E+03 0.12720585E+04 0.12500000E+03 0.0000E+00 0.9000E+01
        4  1    1    2  501    0 0.10517643E+02 -.60331087E+02 -.29019654E+03 0.29659214E+03 0.15500000E+01 0.0000E+00 0.9000E+01
        1  1    1    2  502    0 0.75150192E+03 0.64392782E+03 0.71586031E+03 0.12214149E+04 0.32000000E+00 0.0000E+00 0.9000E+01
#aMCatNLO 1  0  0  5  1 0.31724927D+02 0.00000000D+00  -5  6  0 0.00000000D+00 0.00000000D+00 0.00000000D+00 0.00000000D+00 0.00000000D+00
  <mgrwgt>
 0.3333715655D-03    4    2    0
 0.124693222095367D+04 0.000000000000000D+00 0.000000000000000D+00 0.124693222095367D+04
 0.124693222095367D+04 -.000000000000000D+00 -.000000000000000D+00 -.124693222095367D+04
 0.100909750116503D+04 -.762022920744316D+03 -.583599837699305D+03 0.285280676799472D+03
 0.477389634802359D+03 0.105191227146441D+02 -.603295940839322D+02 -.473445405038123D+03
 0.100737730593995D+04 0.751503798029672D+03 0.643929431783237D+03 0.188164728238651D+03
 0.000000000000000D+00 0.000000000000000D+00 0.000000000000000D+00 -.000000000000000D+00
 0.124693222095367D+04 0.000000000000000D+00 0.000000000000000D+00 0.124693222095367D+04
 0.124693222095367D+04 -.000000000000000D+00 -.000000000000000D+00 -.124693222095367D+04
 0.861208257995889D+03 -.633381752775815D+03 -.473373070501226D+03 0.317490401453638D+03
 0.463416129950000D+03 0.752285167890860D+02 -.488305679877032D+01 -.457243190781283D+03
 0.608986330575608D+03 0.533332213995140D+03 -.616093874895195D+02 0.287446314493946D+03
 0.560253723385846D+03 0.248210219915887D+02 0.539865514789516D+03 -.147693525166300D+03
0.168017029372D-02 0.000000000000D+00 0.000000000000D+00 0.840964557167D-06 0.000000000000D+00  6 2 3 25 4 1 21 0 0.31085440D+00 0.11838644D+00 0.10189085D+07 0.10189085D+07 0.10189085D+07 0.10473229D+01  1  2  2  4  6  5        1 0.506255411441D-03 0.100000000000D+01
0.694874829346D-03 0.000000000000D+00 -.645229632689D-05 0.840964557167D-06 0.000000000000D+00  6 2 3 25 4 1 21 2 0.31085440D+00 0.11838644D+00 0.10189085D+07 0.10189085D+07 0.10189085D+07 0.10473229D+01  1  2  3  4  6  5        1 0.229659343619D-03 0.100000000000D+01
-.118246090280D-02 0.000000000000D+00 0.000000000000D+00 0.840964557167D-06 0.000000000000D+00  6 2 3 25 4 1 21 2 0.31085440D+00 0.11838644D+00 0.10189085D+07 0.10189085D+07 0.10189085D+07 0.10473229D+01  1  2 15  4  6  5        1 -.390808795083D-03 0.100000000000D+01
-.355044790036D-04 0.000000000000D+00 0.000000000000D+00 0.840964557167D-06 0.000000000000D+00  6 2 3 25 4 1 21 2 0.31085440D+00 0.11838644D+00 0.10189085D+07 0.10189085D+07 0.10189085D+07 0.10473229D+01  1  2  4  4  6  5        1 -.117343944537D-04 0.100000000000D+01
  </mgrwgt>
  </event>
  <event>
  5     66 0.17338086E-05 0.32722452E+02 0.75467711E-02 0.86781098E-01
        2 -1    0    0  502    0 0.00000000E+00 0.00000000E+00 0.74192842E+03 0.74192849E+03 0.32000000E+00 0.0000E+00 0.9000E+01
        3 -1    0    0  501    0 0.00000000E+00 0.00000000E+00 -.97687182E+03 0.97687194E+03 0.50000000E+00 0.0000E+00 0.9000E+01
       25  1    1    2    0    0 -.22675758E+02 0.51147854E+03 0.19710014E+03 0.56267038E+03 0.12500000E+03 0.0000E+00 0.9000E+01
        4  1    1    2  501    0 0.46837231E+02 -.48938855E+03 -.71696664E+03 0.86933218E+03 0.15500000E+01 0.0000E+00 0.9000E+01
        1  1    1    2  502    0 -.24161473E+02 -.22089986E+02 0.28492311E+03 0.28679788E+03 0.32000000E+00 0.0000E+00 0.9000E+01
#aMCatNLO 1  0  0  2  4 0.22444663D+01 0.00000000D+00  -5  6  0 0.00000000D+00 0.00000000D+00 0.00000000D+00 0.00000000D+00 0.00000000D+00
  <mgrwgt>
 0.2268737877D-02    5    2    0
 0.851333739839626D+03 0.000000000000000D+00 0.000000000000000D+00 0.851333739839626D+03
 0.851333739839626D+03 0.000000000000000D+00 0.000000000000000D+00 -.851333739839626D+03
 0.595317176973422D+03 -.226913616549053D+02 0.511543439694012D+03 0.276741671260165D+03
 0.778671086676748D+03 0.468417246246354D+02 -.489463610502666D+03 -.603787949576863D+03
 0.328679216029081D+03 -.241503629697301D+02 -.220798291913463D+02 0.327046278316698D+03
 0.000000000000000D+00 0.000000000000000D+00 -.000000000000000D+00 -.000000000000000D+00
 0.115928209721242D+04 0.000000000000000D+00 0.000000000000000D+00 0.115928209721242D+04
 0.161690814819296D+04 0.000000000000000D+00 0.000000000000000D+00 -.161690814819296D+04
 0.690853401527358D+03 -.301311791343335D+03 0.542474583909258D+03 0.276741671260165D+03
 0.810321059846100D+03 -.297378305001449D+03 -.451249903812001D+03 -.603787949576863D+03
 0.371335399885538D+03 -.175793058219110D+03 -.524516246862125D+01 0.327046278316698D+03
 0.903680384146374D+03 0.774483154563894D+03 -.859795176286356D+02 -.457626050980540D+03
0.308765147220D-02 0.000000000000D+00 0.000000000000D+00 0.408184788959D-04 0.000000000000D+00  6 2 3 25 4 1 21 0 0.11414285D+00 0.15028799D+00 0.27641592D+06 0.27641592D+06 0.27641592D+06 0.10871925D+01  1  2  2  2  6  2        3 0.292207431055D-02 0.100000000000D+01
0.130823354310D-02 0.000000000000D+00 -.118573946505D-04 0.408184788959D-04 0.000000000000D+00  6 2 3 25 4 1 21 2 0.11414285D+00 0.15028799D+00 0.27641592D+06 0.27641592D+06 0.27641592D+06 0.10871925D+01  1  2  3  2  6  2        3 0.146339352388D-02 0.100000000000D+01
-.193542653963D-02 0.000000000000D+00 0.000000000000D+00 0.408184788959D-04 0.000000000000D+00  6 2 3 25 4 1 21 2 0.11414285D+00 0.15028799D+00 0.27641592D+06 0.27641592D+06 0.27641592D+06 0.10871925D+01  1  2 15  2  6  2        3 -.216497327941D-02 0.100000000000D+01
-.149741086905D-03 0.000000000000D+00 -.137463164458D-02 0.408184788959D-04 0.000000000000D+00  6 2 3 25 4 1 21 2 0.11414285D+00 0.33118607D+00 0.27641592D+06 0.27641592D+06 0.27641592D+06 0.10871925D+01  1  2  5  2  6  2        3 -.441680176552D-05 0.100000000000D+01
0.737906665764D-04 0.000000000000D+00 -.117740050456D-03 0.408184788959D-04 0.000000000000D+00  6 2 21 25 4 1 -3 2 0.11414285D+00 0.33118607D+00 0.27641592D+06 0.27641592D+06 0.27641592D+06 0.10871925D+01  1  2  5  6  6  2        3 0.526601232933D-04 0.100000000000D+01
  </mgrwgt>
  </event>
  <event>
  5     66 0.17338086E-05 0.13314644E+03 0.75467711E-02 0.94276483E-01
        2 -1    0    0  502    0 0.00000000E+00 0.00000000E+00 0.13131638E+04 0.13131638E+04 0.32000000E+00 0.0000E+00 0.9000E+01
        3 -1    0    0  501    0 0.00000000E+00 0.00000000E+00 -.31770261E+03 0.31770300E+03 0.50000000E+00 0.0000E+00 0.9000E+01
       25  1    1    2    0    0 -.37240642E+03 0.34542873E+03 0.51052283E+03 0.73093509E+03 0.12500000E+03 0.0000E+00 0.9000E+01
        4  1    1    2  501    0 0.26967652E+03 -.26063311E+03 -.22094109E+02 0.37569349E+03 0.15500000E+01 0.0000E+00 0.9000E+01
        1  1    1    2  502    0 0.10272990E+03 -.84795613E+02 0.50703245E+03 0.52423825E+03 0.32000000E+00 0.0000E+00 0.9000E+01
#aMCatNLO 1  0  0  4  2 0.73011229D+02 0.00000000D+00  -5  6  0 0.00000000D+00 0.00000000D+00 0.00000000D+00 0.00000000D+00 0.00000000D+00
  <mgrwgt>
 0.1435985960D-02    1    2    0
 0.645907048859766D+03 0.000000000000000D+00 0.000000000000000D+00 0.645907048859766D+03
 0.645907048859766D+03 -.000000000000000D+00 -.000000000000000D+00 -.645907048859766D+03
 0.529415535904354D+03 -.372420325114099D+03 0.345446618885619D+03 0.813974483586373D+02
 0.491402999909703D+03 0.269736037454280D+03 -.260688658008775D+03 -.317428420284483D+03
 0.270995561905475D+03 0.102684287659819D+03 -.847579608768441D+02 0.236030971925845D+03
 0.000000000000000D+00 0.000000000000000D+00 0.000000000000000D+00 -.000000000000000D+00
 0.645907048859766D+03 0.000000000000000D+00 0.000000000000000D+00 0.645907048859766D+03
 0.645907048859766D+03 -.000000000000000D+00 -.000000000000000D+00 -.645907048859766D+03
 0.480417616902324D+03 -.339306623527802D+03 0.313443603976283D+03 0.424288697307572D+02
 0.273220147803659D+03 0.265111322441598D+03 -.430106157763122D+02 -.501529940249098D+02
 0.266804858767816D+03 0.120319441144000D+03 -.101801603020320D+03 0.215277723806721D+03
 0.271371474245733D+03 -.461241400577959D+02 -.168631385179650D+03 -.207553599512569D+03
0.206039886077D-03 0.000000000000D+00 0.000000000000D+00 0.465655941249D-06 0.000000000000D+00  6 2 3 25 4 1 21 2 0.20202523D+00 0.48877358D-01 0.26594061D+06 0.26594061D+06 0.26594061D+06 0.10884453D+01  1  2 14  3  6  4        4 0.143598596020D-02 0.100000000000D+01
  </mgrwgt>
  </event>
  <event>
  5     66 0.17338086E-05 0.47780480E+02 0.75467711E-02 0.88034447E-01
        2 -1    0    0  502    0 0.00000000E+00 0.00000000E+00 0.22445203E+04 0.22445203E+04 0.32000000E+00 0.0000E+00 0.9000E+01
        3 -1    0    0  501    0 0.00000000E+00 0.00000000E+00 -.53135099E+03 0.53135122E+03 0.50000000E+00 0.0000E+00 0.9000E+01
       25  1    1    2    0    0 0.53862970E+03 0.47569051E+03 0.70585043E+03 0.10150139E+04 0.12500000E+03 0.0000E+00 0.9000E+01
        4  1    1    2  501    0 -.54594916E+03 -.42846234E+03 -.56189498E+02 0.69627590E+03 0.15500000E+01 0.0000E+00 0.9000E+01
        1  1    1    2  502    0 0.73194631E+01 -.47228162E+02 0.10635084E+04 0.10645817E+04 0.32000000E+00 0.0000E+00 0.9000E+01
#aMCatNLO 1  0  0  5  2 0.82492046D+02 0.00000000D+00  -5  6  0 0.00000000D+00 0.00000000D+00 0.00000000D+00 0.00000000D+00 0.00000000D+00
  <mgrwgt>
 0.1414000550D-02    4    2    0
 0.109207528118157D+04 0.000000000000000D+00 0.000000000000000D+00 0.109207528118157D+04
 0.109207528118157D+04 -.000000000000000D+00 -.000000000000000D+00 -.109207528118157D+04
 0.736438468141663D+03 0.538691547658647D+03 0.475731364470263D+03 0.101033176230545D+03
 0.929021122814912D+03 -.546009248774858D+03 -.428514571875149D+03 -.617518751601320D+03
 0.518690971406556D+03 0.731770111621122D+01 -.472167925951129D+02 0.516485575370775D+03
 0.000000000000000D+00 -.000000000000000D+00 0.000000000000000D+00 0.000000000000000D+00
 0.109207528118157D+04 0.000000000000000D+00 0.000000000000000D+00 0.109207528118157D+04
 0.109207528118157D+04 -.000000000000000D+00 -.000000000000000D+00 -.109207528118157D+04
 0.756703930338150D+03 0.540395317032455D+03 0.464737949478933D+03 0.221285737978551D+03
 0.846232431484867D+03 -.543983572831532D+03 -.441585059363228D+03 -.474545926052901D+03
 0.235155176066021D+03 0.431608822761820D+02 -.230186185845345D+03 -.211994084293755D+02
 0.346059024474093D+03 -.395726264771055D+02 0.207033295729640D+03 0.274459596503726D+03
0.469173706506D-02 0.000000000000D+00 0.000000000000D+00 0.156517291987D-04 0.000000000000D+00  6 2 3 25 4 1 21 0 0.34531083D+00 0.81746325D-01 0.54120910D+06 0.54120910D+06 0.54120910D+06 0.10660880D+01  1  2  2  4  6  5        1 0.271401618109D-02 0.100000000000D+01
0.217834048033D-02 0.000000000000D+00 -.180175056926D-04 0.156517291987D-04 0.000000000000D+00  6 2 3 25 4 1 21 2 0.34531083D+00 0.81746325D-01 0.54120910D+06 0.54120910D+06 0.54120910D+06 0.10660880D+01  1  2  3  4  6  5        1 0.143215701555D-02 0.100000000000D+01
-.374846177145D-02 0.000000000000D+00 0.000000000000D+00 0.156517291987D-04 0.000000000000D+00  6 2 3 25 4 1 21 2 0.34531083D+00 0.81746325D-01 0.54120910D+06 0.54120910D+06 0.54120910D+06 0.10660880D+01  1  2 15  4  6  5        1 -.246443835203D-02 0.100000000000D+01
-.407229406187D-03 0.000000000000D+00 0.000000000000D+00 0.156517291987D-04 0.000000000000D+00  6 2 3 25 4 1 21 2 0.34531083D+00 0.81746325D-01 0.54120910D+06 0.54120910D+06 0.54120910D+06 0.10660880D+01  1  2  4  4  6  5        1 -.267734294192D-03 0.100000000000D+01
  </mgrwgt>
  </event>
  <event>
  5     66 0.17338086E-05 0.63723701E+02 0.75467711E-02 0.91729828E-01
        2 -1    0    0  502    0 0.00000000E+00 0.00000000E+00 0.39163137E+03 0.39163150E+03 0.32000000E+00 0.0000E+00 0.9000E+01
        3 -1    0    0  501    0 -.00000000E+00 -.00000000E+00 -.41020367E+04 0.41020368E+04 0.50000000E+00 0.0000E+00 0.9000E+01
       25  1    1    2    0    0 -.50060630E+03 -.36126097E+03 -.10633293E+04 0.12358844E+04 0.12500000E+03 0.0000E+00 0.9000E+01
        4  1    1    2  501    0 0.47815880E+03 0.30161910E+03 -.29216843E+04 0.29758782E+04 0.15500000E+01 0.0000E+00 0.9000E+01
        1  1    1    2  502    0 0.22447499E+02 0.59641868E+02 0.27460815E+03 0.28190563E+03 0.32000000E+00 0.0000E+00 0.9000E+01
#aMCatNLO 1  0  0  5  2 0.32205855D+02 0.00000000D+00  -5  6  0 0.00000000D+00 0.00000000D+00 0.00000000D+00 0.00000000D+00 0.00000000D+00
  <mgrwgt>
 0.6266239179D-03    6    2    0
 0.126747253057407D+04 0.000000000000000D+00 0.000000000000000D+00 0.126747253057407D+04
 0.126747253057407D+04 -.000000000000000D+00 -.000000000000000D+00 -.126747253057407D+04
 0.634464667610692D+03 -.500631105090998D+03 -.361275807628897D+03 -.759519709013539D+02
 0.998841851334613D+03 0.478184525170149D+03 0.301636381676245D+03 -.823431901929128D+03
 0.901638542202839D+03 0.224465799208495D+02 0.596394259526527D+02 0.899383872830481D+03
 0.000000000000000D+00 0.000000000000000D+00 0.000000000000000D+00 0.000000000000000D+00
 0.126747253057407D+04 0.000000000000000D+00 0.000000000000000D+00 0.126747253057407D+04
 0.126747253057407D+04 -.000000000000000D+00 -.000000000000000D+00 -.126747253057407D+04
 0.634103033656653D+03 -.500579701163243D+03 -.361139229996410D+03 -.738923313577802D+02
 0.996277001299520D+03 0.478265369846598D+03 0.301851181886869D+03 -.820192637931700D+03
 0.832659073628787D+03 0.528670798427222D+02 0.533300581645130D+02 0.829266006575346D+03
 0.719059525631852D+02 -.305527485260774D+02 0.595798994502887D+01 0.648189627141337D+02
0.377650145539D-01 0.000000000000D+00 0.000000000000D+00 0.861722117942D-04 0.000000000000D+00  6 2 3 25 4 1 21 0 0.60250992D-01 0.63108259D+00 0.39626859D+06 0.39626859D+06 0.39626859D+06 0.10757212D+01  1  2  2  4  6  5        1 0.203852533282D-03 0.100000000000D+01
0.162305222250D-01 0.000000000000D+00 -.145027599643D-03 0.861722117942D-04 0.000000000000D+00  6 2 3 25 4 1 21 2 0.60250992D-01 0.63108259D+00 0.39626859D+06 0.39626859D+06 0.39626859D+06 0.10757212D+01  1  2  3  4  6  5        1 0.101381423110D-03 0.100000000000D+01
-.258867193652D-01 0.000000000000D+00 0.000000000000D+00 0.861722117942D-04 0.000000000000D+00  6 2 3 25 4 1 21 2 0.60250992D-01 0.63108259D+00 0.39626859D+06 0.39626859D+06 0.39626859D+06 0.10757212D+01  1  2 15  4  6  5        1 -.161697350985D-03 0.100000000000D+01
-.120687555781D-01 0.000000000000D+00 0.000000000000D+00 0.861722117942D-04 0.000000000000D+00  6 2 3 25 4 1 21 2 0.60250992D-01 0.63108259D+00 0.39626859D+06 0.39626859D+06 0.39626859D+06 0.10757212D+01  1  2  4  4  6  5        1 -.753855975000D-04 0.100000000000D+01
-.107825132007D+01 0.000000000000D+00 0.000000000000D+00 0.861722117942D-04 0.000000000000D+00  6 2 3 25 4 1 21 2 0.60250992D-01 0.63108259D+00 0.39626859D+06 0.39626859D+06 0.39626859D+06 0.10757212D+01  1  2  5  4  6  5        1 -.673512853028D-02 0.100000000000D+01
0.116765928752D+01 0.000000000000D+00 -.000000000000D+00 0.861722117942D-04 0.000000000000D+00  6 2 3 25 4 1 21 2 0.60250992D-01 0.63108259D+00 0.39626859D+06 0.39626859D+06 0.39626859D+06 0.10757212D+01  1  2  6  4  6  5        1 0.729360144023D-02 0.100000000000D+01
  </mgrwgt>
  </event>
  <event>
  5     66 0.17338086E-05 0.47214311E+02 0.75467711E-02 0.92085817E-01
        2 -1    0    0  502    0 0.00000000E+00 0.00000000E+00 0.11081787E+04 0.11081788E+04 0.32000000E+00 0.0000E+00 0.9000E+01
        3 -1    0    0  501    0 -.00000000E+00 -.00000000E+00 -.11861520E+04 0.11861521E+04 0.50000000E+00 0.0000E+00 0.9000E+01
       25  1    1    2    0    0 0.61923655E+03 0.26251700E+02 0.25579026E+03 0.68205331E+03 0.12500000E+03 0.0000E+00 0.9000E+01
        4  1    1    2  501    0 -.57387264E+03 -.39374622E+02 -.88691219E+03 0.10571167E+04 0.15500000E+01 0.0000E+00 0.9000E+01
        1  1    1    2  502    0 -.45363913E+02 0.13122922E+02 0.55314862E+03 0.55516088E+03 0.32000000E+00 0.0000E+00 0.9000E+01
#aMCatNLO 1  0  0  5  1 0.11545629D+02 0.00000000D+00  -5  6  0 0.00000000D+00 0.00000000D+00 0.00000000D+00 0.00000000D+00 0.00000000D+00
  <mgrwgt>
 0.5720900376D-02    7    2    0
 0.114650278396060D+04 0.000000000000000D+00 0.000000000000000D+00 0.114650278396060D+04
 0.114650278396060D+04 -.000000000000000D+00 -.000000000000000D+00 -.114650278396060D+04
 0.691236248122987D+03 0.619289187797205D+03 0.262578297554615D+02 0.279238211878596D+03
 0.102759439674554D+04 -.573934476015568D+03 -.393780905036310D+02 -.851468629752062D+03
 0.574174923052668D+03 -.453547117816368D+02 0.131202607481695D+02 0.572230417873466D+03
 0.000000000000000D+00 0.000000000000000D+00 0.000000000000000D+00 0.000000000000000D+00
 0.114650278396060D+04 0.000000000000000D+00 0.000000000000000D+00 0.114650278396060D+04
 0.114650278396060D+04 -.000000000000000D+00 -.000000000000000D+00 -.114650278396060D+04
 0.691300983179288D+03 0.619273823885378D+03 0.262622742447190D+02 0.279432054973168D+03
 0.102736817450429D+04 -.573957312481045D+03 -.393714843458613D+02 -.851180507092488D+03
 0.438957378045900D+03 -.314815674242856D+02 -.106047648346147D+01 0.437825725652421D+03
 0.135379032191713D+03 -.138349439800466D+02 0.141696865846039D+02 0.133922726466899D+03
0.160176945560D-03 0.000000000000D+00 0.000000000000D+00 0.691099448449D-04 0.000000000000D+00  6 2 3 25 4 1 21 0 0.17048905D+00 0.18248494D+00 0.39364458D+06 0.39364458D+06 0.39364458D+06 0.10759294D+01  1  2  2  4  6  5        1 0.464165197259D-04 0.100000000000D+01
0.690755906629D-04 0.000000000000D+00 -.615121646508D-06 0.691099448449D-04 0.000000000000D+00  6 2 3 25 4 1 21 2 0.17048905D+00 0.18248494D+00 0.39364458D+06 0.39364458D+06 0.39364458D+06 0.10759294D+01  1  2  3  4  6  5        1 0.231720647493D-04 0.100000000000D+01
-.108553439490D-03 0.000000000000D+00 0.000000000000D+00 0.691099448449D-04 0.000000000000D+00  6 2 3 25 4 1 21 2 0.17048905D+00 0.18248494D+00 0.39364458D+06 0.39364458D+06 0.39364458D+06 0.10759294D+01  1  2 15  4  6  5        1 -.364152851169D-04 0.100000000000D+01
0.171291302659D-01 0.000000000000D+00 0.000000000000D+00 0.691099448449D-04 0.000000000000D+00  6 2 3 25 4 1 21 2 0.17048905D+00 0.18248494D+00 0.39621881D+06 0.39621881D+06 0.39621881D+06 0.10757251D+01  1  2 12  4  6  5        1 0.574160608876D-02 0.100000000000D+01
-.708840403248D-02 0.000000000000D+00 0.000000000000D+00 0.691099448449D-04 0.000000000000D+00  6 2 3 25 4 1 21 2 0.17048905D+00 0.18248494D+00 0.39364458D+06 0.39364458D+06 0.39364458D+06 0.10759294D+01  1  2  4  4  6  5        1 -.237787264117D-02 0.100000000000D+01
-.263814625727D-01 0.000000000000D+00 0.000000000000D+00 0.691099448449D-04 0.000000000000D+00  6 2 3 25 4 1 21 2 0.17048905D+00 0.18248494D+00 0.39364458D+06 0.39364458D+06 0.39364458D+06 0.10759294D+01  1  2  5  4  6  5        1 -.884991287153D-02 0.100000000000D+01
0.333092540474D-01 0.000000000000D+00 -.000000000000D+00 0.691099448449D-04 0.000000000000D+00  6 2 3 25 4 1 21 2 0.17048905D+00 0.18248494D+00 0.39364458D+06 0.39364458D+06 0.39364458D+06 0.10759294D+01  1  2  6  4  6  5        1 0.111739065005D-01 0.100000000000D+01
  </mgrwgt>
  </event>
  <event>
  5     66 -.17338086E-05 0.80711808E+02 0.75467711E-02 0.94992194E-01
        2 -1    0    0  502    0 0.00000000E+00 0.00000000E+00 0.10216147E+04 0.10216147E+04 0.32000000E+00 0.0000E+00 0.9000E+01
        3 -1    0    0  501    0 0.00000000E+00 0.00000000E+00 -.10039358E+04 0.10039359E+04 0.50000000E+00 0.0000E+00 0.9000E+01
       25  1    1    2    0    0 -.42542586E+03 -.21346034E+03 0.11728793E+02 0.49225506E+03 0.12500000E+03 0.0000E+00 0.9000E+01
        4  1    1    2  501    0 0.72536723E+02 0.35399521E+02 -.71048472E+03 0.71505639E+03 0.15500000E+01 0.0000E+00 0.9000E+01
        1  1    1    2  502    0 0.35288914E+03 0.17806082E+03 0.71643480E+03 0.81823916E+03 0.32000000E+00 0.0000E+00 0.9000E+01
#aMCatNLO 1  0  0  4  2 0.81401460D+01 0.00000000D+00  -5  6  0 0.00000000D+00 0.00000000D+00 0.00000000D+00 0.00000000D+00 0.00000000D+00
  <mgrwgt>
 -.2470189570D-01    8    2    0
 0.101273672833186D+04 0.000000000000000D+00 0.000000000000000D+00 0.101273672833186D+04
 0.101273672833186D+04 -.000000000000000D+00 -.000000000000000D+00 -.101273672833186D+04
 0.492176229831174D+03 -.425430701114985D+03 -.213462824833342D+03 0.740149807885786D+01
 0.721265122512546D+03 0.725350119312458D+02 0.353987002973196D+02 -.716734944742080D+03
 0.812032104320003D+03 0.352895689183739D+03 0.178064124536022D+03 0.709333446663222D+03
 0.000000000000000D+00 0.000000000000000D+00 0.000000000000000D+00 -.000000000000000D+00
 0.101273672833186D+04 0.000000000000000D+00 0.000000000000000D+00 0.101273672833186D+04
 0.101273672833186D+04 -.000000000000000D+00 -.000000000000000D+00 -.101273672833186D+04
 0.492170206997894D+03 -.425425781136105D+03 -.213460423774140D+03 0.735288264892337D+01
 0.467214880681998D+03 0.527112303401815D+02 0.286416324104817D+02 -.463347523808622D+03
 0.811966438832620D+03 0.352903806283810D+03 0.178068085861526D+03 0.709253239751880D+03
 0.254121930151211D+03 0.198107445121134D+02 0.675070550213218D+01 -.253258598592182D+03
0.411141629641D-04 0.000000000000D+00 0.000000000000D+00 0.972500359822D-04 0.000000000000D+00  6 2 3 25 4 1 21 0 0.15717150D+00 0.15445167D+00 0.23430790D+06 0.23430790D+06 0.23430790D+06 0.10925834D+01  1  2  2  3  6  4        4 0.236066835533D-04 0.100000000000D+01
0.114551339755D-04 0.000000000000D+00 -.157889211390D-06 0.972500359822D-04 0.000000000000D+00  6 2 3 25 4 1 21 2 0.15717150D+00 0.15445167D+00 0.23430790D+06 0.23430790D+06 0.23430790D+06 0.10925834D+01  1  2  3  3  6  4        4 0.785150460448D-05 0.100000000000D+01
-.254168038156D-04 0.000000000000D+00 0.000000000000D+00 0.972500359822D-04 0.000000000000D+00  6 2 3 25 4 1 21 2 0.15717150D+00 0.15445167D+00 0.23430790D+06 0.23430790D+06 0.23430790D+06 0.10925834D+01  1  2 15  3  6  4        4 -.174210229768D-04 0.100000000000D+01
0.190115587951D-01 0.000000000000D+00 0.000000000000D+00 0.972500359822D-04 0.000000000000D+00  6 2 3 25 4 1 21 2 0.15717150D+00 0.15445167D+00 0.23441025D+06 0.23441025D+06 0.23441025D+06 0.10925690D+01  1  2 12  3  6  4        4 0.130301335398D-01 0.100000000000D+01
-.633937914430D-01 0.000000000000D+00 0.000000000000D+00 0.972500359822D-04 0.000000000000D+00  6 2 3 25 4 1 21 2 0.15717150D+00 0.15445167D+00 0.23430790D+06 0.23430790D+06 0.23430790D+06 0.10925834D+01  1  2  4  3  6  4        4 -.434509667435D-01 0.100000000000D+01
-.200526437439D-01 0.000000000000D+00 0.000000000000D+00 0.972500359822D-04 0.000000000000D+00  6 2 3 25 4 1 21 2 0.15717150D+00 0.15445167D+00 0.23430790D+06 0.23430790D+06 0.23430790D+06 0.10925834D+01  1  2  5  3  6  4        4 -.137443547168D-01 0.100000000000D+01
0.282535272178D-01 0.000000000000D+00 -.000000000000D+00 0.972500359822D-04 0.000000000000D+00  6 2 3 25 4 1 21 2 0.15717150D+00 0.15445167D+00 0.23430790D+06 0.23430790D+06 0.23430790D+06 0.10925834D+01  1  2  6  3  6  4        4 0.193653517731D-01 0.100000000000D+01
0.122418716680D-03 0.000000000000D+00 0.000000000000D+00 0.972500359822D-04 0.799837543915D-05  6 2 3 25 4 1 21 2 0.15717150D+00 0.15445167D+00 0.23441025D+06 0.23441025D+06 0.23441025D+06 0.10925690D+01  1  2 11  3  6  4        4 0.839032844859D-04 0.100000000000D+01
  </mgrwgt>
  </event>
  <event>
  5     66 -.17338086E-05 0.19637805E+02 0.75467711E-02 0.94231662E-01
        2 -1    0    0  502    0 0.00000000E+00 0.00000000E+00 0.88599525E+03 0.88599531E+03 0.32000000E+00 0.0000E+00 0.9000E+01
        3 -1    0    0  501    0 0.00000000E+00 0.00000000E+00 -.62408006E+03 0.62408026E+03 0.50000000E+00 0.0000E+00 0.9000E+01
       25  1    1    2    0    0 -.22148099E+03 -.45696799E+03 -.17383201E+03 0.55110448E+03 0.12500000E+03 0.0000E+00 0.9000E+01
        4  1    1    2  501    0 -.31612629E+01 0.19397962E+02 -.17425549E+03 0.17536719E+03 0.15500000E+01 0.0000E+00 0.9000E+01
        1  1    1    2  502    0 0.22464226E+03 0.43757003E+03 0.61000269E+03 0.78360389E+03 0.32000000E+00 0.0000E+00 0.9000E+01
#aMCatNLO 1  0  0  5  1 0.47609845D+02 0.00000000D+00  -5  6  0 0.00000000D+00 0.00000000D+00 0.00000000D+00 0.00000000D+00 0.00000000D+00
  <mgrwgt>
 -.6137646287D-03    6    2    0
 0.743594084128528D+03 0.000000000000000D+00 0.000000000000000D+00 0.743594084128528D+03
 0.743594084128528D+03 -.000000000000000D+00 -.000000000000000D+00 -.743594084128528D+03
 0.590440611707864D+03 -.221520159588317D+03 -.457016697667050D+03 -.273970204408120D+03
 0.208413954154621D+03 -.315492500524792D+01 0.193827198146262D+02 -.207486705374497D+03
 0.688333602394572D+03 0.224675084593565D+03 0.437633977852424D+03 0.481456909782617D+03
 0.000000000000000D+00 0.000000000000000D+00 0.000000000000000D+00 0.000000000000000D+00
 0.743594084128528D+03 0.000000000000000D+00 0.000000000000000D+00 0.743594084128528D+03
 0.743594084128528D+03 -.000000000000000D+00 -.000000000000000D+00 -.743594084128528D+03
 0.586865037883182D+03 -.220276923584381D+03 -.454595057017417D+03 -.271306070262279D+03
 0.207552336211941D+03 -.271566416522151D+01 0.202383352429382D+02 -.206545412008523D+03
 0.564903970332666D+03 0.203860453740559D+03 0.324748306897611D+03 0.414844486844695D+03
 0.127866823829268D+03 0.191321340090443D+02 0.109608414876868D+03 0.630069954261075D+02
0.480466589924D-04 0.000000000000D+00 0.000000000000D+00 0.215393265114D-04 0.000000000000D+00  6 2 3 25 4 1 21 0 0.13630698D+00 0.96012336D-01 0.26760201D+06 0.26760201D+06 0.26760201D+06 0.10882431D+01  1  2  2  4  6  5        1 0.117112188871D-03 0.100000000000D+01
0.246976973279D-04 0.000000000000D+00 -.184511821507D-06 0.215393265114D-04 0.000000000000D+00  6 2 3 25 4 1 21 2 0.13630698D+00 0.96012336D-01 0.26760201D+06 0.26760201D+06 0.26760201D+06 0.10882431D+01  1  2  3  4  6  5        1 0.712930477704D-04 0.100000000000D+01
-.310103789200D-04 0.000000000000D+00 0.000000000000D+00 0.215393265114D-04 0.000000000000D+00  6 2 3 25 4 1 21 2 0.13630698D+00 0.96012336D-01 0.26760201D+06 0.26760201D+06 0.26760201D+06 0.10882431D+01  1  2 15  4  6  5        1 -.895154068969D-04 0.100000000000D+01
-.392637585192D-03 0.000000000000D+00 0.000000000000D+00 0.215393265114D-04 0.000000000000D+00  6 2 3 25 4 1 21 2 0.13630698D+00 0.96012336D-01 0.26760201D+06 0.26760201D+06 0.26760201D+06 0.10882431D+01  1  2  4  4  6  5        1 -.113339837904D-02 0.100000000000D+01
-.719219992147D-03 0.000000000000D+00 0.000000000000D+00 0.215393265114D-04 0.000000000000D+00  6 2 3 25 4 1 21 2 0.13630698D+00 0.96012336D-01 0.26760201D+06 0.26760201D+06 0.26760201D+06 0.10882431D+01  1  2  5  4  6  5        1 -.207612007617D-02 0.100000000000D+01
0.864976224056D-03 0.000000000000D+00 -.000000000000D+00 0.215393265114D-04 0.000000000000D+00  6 2 3 25 4 1 21 2 0.13630698D+00 0.96012336D-01 0.26760201D+06 0.26760201D+06 0.26760201D+06 0.10882431D+01  1  2  6  4  6  5        1 0.249686399680D-02 0.100000000000D+01
  </mgrwgt>
  </event>
  <event>
  5     66 0.17338086E-05 0.79739549E+02 0.75467711E-02 0.93057613E-01
        2 -1    0    0  502    0 0.00000000E+00 0.00000000E+00 0.25339167E+04 0.25339167E+04 0.32000000E+00 0.0000E+00 0.9000E+01
        3 -1    0    0  501    0 0.00000000E+00 0.00000000E+00 -.68925150E+03 0.68925168E+03 0.50000000E+00 0.0000E+00 0.9000E+01
       25  1    1    2    0    0 0.48884178E+03 0.12641217E+02 0.81205241E+03 0.95612772E+03 0.12500000E+03 0.0000E+00 0.9000E+01
        4  1    1    2  501    0 0.43122861E+02 0.67068838E+02 -.57052257E+03 0.57606962E+03 0.15500000E+01 0.0000E+00 0.9000E+01
        1  1    1    2  502    0 -.53196464E+03 -.79710055E+02 0.16031353E+04 0.16909710E+04 0.32000000E+00 0.0000E+00 0.9000E+01
#aMCatNLO 1  0  0  1  5 0.26326996D+02 0.00000000D+00  -5  6  0 0.00000000D+00 0.00000000D+00 0.00000000D+00 0.00000000D+00 0.00000000D+00
  <mgrwgt>
 0.3444795146D-02    9    2    0
 0.132155445878889D+04 0.000000000000000D+00 0.000000000000000D+00 0.132155445878889D+04
 0.132155445878889D+04 0.000000000000000D+00 0.000000000000000D+00 -.132155445878889D+04
 0.599229452329108D+03 0.488818701599019D+03 0.126345643564172D+02 0.323028762324991D+03
 0.110069659349480D+04 0.431243379414001D+02 0.670722530627989D+02 -.109780444309414D+04
 0.943182871753884D+03 -.531943039540419D+03 -.797068174192161D+02 0.774775680769153D+03
 0.000000000000000D+00 0.000000000000000D+00 -.000000000000000D+00 0.000000000000000D+00
 0.144571923303715D+04 0.000000000000000D+00 0.000000000000000D+00 0.144571923303715D+04
 0.132301629882031D+04 0.000000000000000D+00 0.000000000000000D+00 -.132301629882031D+04
 0.594996412649876D+03 0.483540819080423D+03 0.153761523158505D+02 0.323028762324991D+03
 0.110067797235461D+04 0.333953606359357D+02 0.721259553656222D+02 -.109780444309414D+04
 0.947565645881455D+03 -.540299204685498D+03 -.753662202823783D+02 0.774775680769153D+03
 0.125495500971520D+03 0.233630249691398D+02 -.121358873990943D+02 0.122702934216833D+03
0.445113890495D-03 0.000000000000D+00 0.000000000000D+00 0.828441932100D-04 0.000000000000D+00  6 2 3 25 4 1 21 0 0.38983335D+00 0.10603871D+00 0.31490465D+06 0.31490465D+06 0.31490465D+06 0.10829973D+01  1  2  2  1  6  1        2 0.982092945607D-04 0.100000000000D+01
0.156240542754D-03 0.000000000000D+00 -.170935454068D-05 0.828441932100D-04 0.000000000000D+00  6 2 3 25 4 1 21 2 0.38983335D+00 0.10603871D+00 0.31490465D+06 0.31490465D+06 0.31490465D+06 0.10829973D+01  1  2  3  1  6  1        2 0.404324416122D-04 0.100000000000D+01
-.323031789835D-03 0.000000000000D+00 0.000000000000D+00 0.828441932100D-04 0.000000000000D+00  6 2 3 25 4 1 21 2 0.38983335D+00 0.10603871D+00 0.31490465D+06 0.31490465D+06 0.31490465D+06 0.10829973D+01  1  2 15  1  6  1        2 -.835952291968D-04 0.100000000000D+01
0.332697342291D-01 0.000000000000D+00 0.000000000000D+00 0.828441932100D-04 0.000000000000D+00  6 2 3 25 4 1 21 2 0.42994542D+00 0.10603871D+00 0.33120740D+06 0.33120740D+06 0.33120740D+06 0.10813864D+01  1  2 12  1  6  1        2 0.598181614097D-02 0.100000000000D+01
-.206775579675D-01 0.000000000000D+00 0.000000000000D+00 0.828441932100D-04 0.000000000000D+00  6 2 3 25 4 1 21 2 0.38983335D+00 0.10603871D+00 0.31490465D+06 0.31490465D+06 0.31490465D+06 0.10829973D+01  1  2  4  1  6  1        2 -.535100647031D-02 0.100000000000D+01
-.385241484703D-01 0.000000000000D+00 -.901362585478D-03 0.828441932100D-04 0.000000000000D+00  6 2 3 25 4 1 21 2 0.42658969D+00 0.10603871D+00 0.31490465D+06 0.31490465D+06 0.31490465D+06 0.10829973D+01  1  2  5  1  6  1        2 -.719085488341D-02 0.100000000000D+01
0.384528135568D-01 0.000000000000D+00 0.897716018808D-03 0.828441932100D-04 0.000000000000D+00  6 2 3 25 4 1 21 2 0.38983335D+00 0.10603871D+00 0.31490465D+06 0.31490465D+06 0.31490465D+06 0.10829973D+01  1  2  6  1  6  1        2 0.995094558399D-02 0.100000000000D+01
0.542800951899D-03 0.000000000000D+00 0.000000000000D+00 0.828441932100D-04 0.000000000000D+00  6 21 3 25 4 1 -2 2 0.42994542D+00 0.10603871D+00 0.33120740D+06 0.33120740D+06 0.33120740D+06 0.10813864D+01  1  2 12  5  6  1        2 0.822736049404D-05 0.100000000000D+01
-.580144443675D-03 0.000000000000D+00 -.133713312595D-04 0.828441932100D-04 0.000000000000D+00  6 21 3 25 4 1 -2 2 0.42658969D+00 0.10603871D+00 0.31490465D+06 0.31490465D+06 0.31490465D+06 0.10829973D+01  1  2  5  5  6  1        2 -.937909270691D-05 0.100000000000D+01
  </mgrwgt>
  </event>
  <event>
  6     66 -.17338086E-05 0.16922921E+03 0.75467711E-02 0.94376249E-01
        2 -1    0    0  502    0 0.00000000E+00 0.00000000E+00 0.99720392E+03 0.99720397E+03 0.32000000E+00 0.0000E+00 0.9000E+01
        3 -1    0    0  503    0 0.00000000E+00 0.00000000E+00 -.16222210E+04 0.16222211E+04 0.50000000E+00 0.0000E+00 0.9000E+01
       25  1    1    2    0    0 0.37690811E+03 -.30205846E+03 0.26667474E+03 0.56572029E+03 0.12500000E+03 0.0000E+00 0.9000E+01
        4  1    1    2  501    0 -.31422402E+03 0.13869104E+03 -.12849092E+04 0.13300248E+04 0.15500000E+01 0.0000E+00 0.9000E+01
        1  1    1    2  502    0 -.68108947E+02 0.15880664E+03 0.54499634E+03 0.57173376E+03 0.32000000E+00 0.0000E+00 0.9000E+01
       21  1    1    2  503  501 0.54248644E+01 0.45607771E+01 -.15177899E+03 0.15194622E+03 0.75000000E+00 0.0000E+00 0.9000E+01
#aMCatNLO 2  0  0  2  4 0.70873014D+01 0.00000000D+00  -5  6  0 0.00000000D+00 0.00000000D+00 0.00000000D+00 0.00000000D+00 0.00000000D+00
  <mgrwgt>
 -.4252611429D-03    5    2    0
 0.121083104428902D+04 0.000000000000000D+00 0.000000000000000D+00 0.121083104428902D+04
 0.121083104428902D+04 0.000000000000000D+00 0.000000000000000D+00 -.121083104428902D+04
 0.628882540384811D+03 0.378336371698963D+03 -.300867815517720D+03 0.382372066234070D+03
 0.110367132202854D+04 -.311779985316405D+03 0.140784558384955D+03 -.104931565124356D+04
 0.689108226164690D+03 -.665563863825583D+02 0.160083257132765D+03 0.666943585009487D+03
 0.000000000000000D+00 0.000000000000000D+00 0.000000000000000D+00 -.000000000000000D+00
 0.121093664348082D+04 0.000000000000000D+00 0.000000000000000D+00 0.121093664348082D+04
 0.133589343320640D+04 0.000000000000000D+00 0.000000000000000D+00 -.133589343320640D+04
 0.628604338731937D+03 0.376927900785059D+03 -.302051941305253D+03 0.382372066234070D+03
 0.110410933658791D+04 -.314252849959037D+03 0.138705578433354D+03 -.104931565124356D+04
 0.688958784179535D+03 -.680999152524930D+02 0.158785585792414D+03 0.666943585009487D+03
 0.125157617187841D+03 0.542486442647099D+01 0.456077707948516D+01 -.124956789725584D+03
-.287775667675D-01 0.000000000000D+00 0.000000000000D+00 0.302676482555D-04 0.000000000000D+00  6 2 3 25 4 1 21 2 0.15340248D+00 0.25003137D+00 0.26127265D+06 0.26127265D+06 0.26127265D+06 0.10890211D+01  1  2 13  2  6  2        3 -.328082236621D-02 0.100000000000D+01
-.109934560382D-03 0.000000000000D+00 0.000000000000D+00 0.302676482555D-04 0.000000000000D+00  6 2 3 25 4 1 21 2 0.15340248D+00 0.22620803D+00 0.25742651D+06 0.25742651D+06 0.25742651D+06 0.10895040D+01  1  2  8  2  6  2        3 -.199826816632D-04 0.100000000000D+01
-.132935318602D-03 0.000000000000D+00 0.000000000000D+00 0.302676482555D-04 0.000000000000D+00  6 2 3 25 4 1 21 2 0.15340248D+00 0.24958001D+00 0.25742651D+06 0.25742651D+06 0.25742651D+06 0.10895040D+01  1  2  9  2  6  2        3 -.153241705914D-04 0.100000000000D+01
0.132295306873D-03 0.000000000000D+00 0.000000000000D+00 0.302676482555D-04 0.000000000000D+00  6 2 3 25 4 1 21 2 0.15340248D+00 0.22620803D+00 0.25742651D+06 0.25742651D+06 0.25742651D+06 0.10895040D+01  1  2 10  2  6  2        3 0.240471694579D-04 0.100000000000D+01
0.249192468449D-01 0.000000000000D+00 0.000000000000D+00 0.302676482555D-04 0.325192281992D-05  6 2 3 25 4 1 21 2 0.15341586D+00 0.24957224D+00 0.26127265D+06 0.26127265D+06 0.26127265D+06 0.10890211D+01  1  2  1  2  6  2        3 0.286682090611D-02 0.100000000000D+01
  </mgrwgt>
  </event>
  <event>
  5     66 0.17338086E-05 0.33954410E+02 0.75467711E-02 0.94620696E-01
        2 -1    0    0  502    0 0.00000000E+00 0.00000000E+00 0.30853754E+04 0.30853754E+04 0.32000000E+00 0.0000E+00 0.9000E+01
        3 -1    0    0  501    0 0.00000000E+00 0.00000000E+00 -.53946010E+03 0.53946033E+03 0.50000000E+00 0.0000E+00 0.9000E+01
       25  1    1    2    0    0 0.89616553E+02 -.47829943E+03 0.54964139E+03 0.74466914E+03 0.12500000E+03 0.0000E+00 0.9000E+01
        4  1    1    2  501    0 -.10053923E+03 0.44614902E+03 -.32347157E+03 0.56017260E+03 0.15500000E+01 0.0000E+00 0.9000E+01
        1  1    1    2  502    0 0.10922673E+02 0.32150410E+02 0.23197455E+04 0.23199940E+04 0.32000000E+00 0.0000E+00 0.9000E+01
#aMCatNLO 1  0  0  1  1 0.16255446D+02 0.00000000D+00  -5  6  0 0.00000000D+00 0.00000000D+00 0.00000000D+00 0.00000000D+00 0.00000000D+00
  <mgrwgt>
 0.3409714407D-01    7    2    0
 0.129013075059490D+04 0.000000000000000D+00 0.000000000000000D+00 0.129013075059490D+04
 0.129013075059490D+04 0.000000000000000D+00 0.000000000000000D+00 -.129013075059490D+04
 0.503827680351042D+03 0.896203291733240D+02 -.478315202333301D+03 0.374178473943910D+02
 0.110611924246408D+04 -.100542756873369D+03 0.446165513117245D+03 -.100713815710380D+04
 0.970314578374691D+03 0.109224277000452D+02 0.321496892160564D+02 0.969720309709404D+03
 0.000000000000000D+00 0.000000000000000D+00 0.000000000000000D+00 0.000000000000000D+00
 0.130787839677193D+04 0.000000000000000D+00 0.000000000000000D+00 0.130787839677193D+04
 0.129388390660385D+04 0.000000000000000D+00 0.000000000000000D+00 -.129388390660385D+04
 0.506749067382136D+03 0.891966385032140D+02 -.481470125416688D+03 0.374178473943910D+02
 0.110343970085152D+04 -.101469128384925D+03 0.439267483323856D+03 -.100713815710380D+04
 0.970123936469098D+03 0.101088866241146D+02 0.260918274296008D+02 0.969720309709404D+03
 0.214495986730235D+02 0.216360325759635D+01 0.161108146632317D+02 0.139944901680800D+02
0.225924839501D-01 0.000000000000D+00 0.000000000000D+00 0.775828827283D-03 0.000000000000D+00  6 2 3 25 4 1 21 0 0.47467315D+00 0.82993880D-01 0.24688204D+06 0.24688204D+06 0.24688204D+06 0.10908694D+01  1  2  2  1  6  1        2 0.418379336963D-02 0.100000000000D+01
0.136788267789D-01 0.000000000000D+00 -.867610871059D-04 0.775828827283D-03 0.000000000000D+00  6 2 3 25 4 1 21 2 0.47467315D+00 0.82993880D-01 0.24688204D+06 0.24688204D+06 0.24688204D+06 0.10908694D+01  1  2  3  1  6  1        2 0.301439805500D-02 0.100000000000D+01
-.133885593472D-01 0.000000000000D+00 0.000000000000D+00 0.775828827283D-03 0.000000000000D+00  6 2 3 25 4 1 21 2 0.47467315D+00 0.82993880D-01 0.24688204D+06 0.24688204D+06 0.24688204D+06 0.10908694D+01  1  2 15  1  6  1        2 -.295043192722D-02 0.100000000000D+01
-.138077303661D-03 0.000000000000D+00 0.000000000000D+00 0.775828827283D-03 0.000000000000D+00  6 2 3 25 4 1 21 2 0.47467315D+00 0.82993880D-01 0.24688204D+06 0.24688204D+06 0.24688204D+06 0.10908694D+01  1  2  4  1  6  1        2 -.304280449136D-04 0.100000000000D+01
-.205119627112D+01 0.000000000000D+00 -.235212569371D+00 0.775828827283D-03 0.000000000000D+00  6 2 3 25 4 1 21 2 0.48159467D+00 0.82993880D-01 0.24688204D+06 0.24688204D+06 0.24688204D+06 0.10908694D+01  1  2  5  1  6  1        2 -.422785386932D+00 0.100000000000D+01
0.205441066802D+01 0.000000000000D+00 0.235187925344D+00 0.775828827283D-03 0.000000000000D+00  6 2 3 25 4 1 21 2 0.47467315D+00 0.82993880D-01 0.24688204D+06 0.24688204D+06 0.24688204D+06 0.10908694D+01  1  2  6  1  6  1        2 0.452729727624D+00 0.100000000000D+01
-.543048833475D-02 0.000000000000D+00 -.624800606124D-03 0.775828827283D-03 0.000000000000D+00  6 21 3 25 4 1 -2 2 0.48159467D+00 0.82993880D-01 0.24688204D+06 0.24688204D+06 0.24688204D+06 0.10908694D+01  1  2  5  5  6  1        2 -.645280753139D-04 0.100000000000D+01
  </mgrwgt>
  </event>
  <event>
  6     66 0.17338086E-05 0.39457760E+02 0.75467711E-02 0.92195089E-01
        2 -1    0    0  502    0 0.00000000E+00 0.00000000E+00 0.28518674E+04 0.28518674E+04 0.32000000E+00 0.0000E+00 0.9000E+01
        3 -1    0    0  501    0 0.00000000E+00 0.00000000E+00 -.10146933E+04 0.10146935E+04 0.50000000E+00 0.0000E+00 0.9000E+01
       25  1    1    2    0    0 -.57939801E+03 -.10046185E+03 0.96344850E+03 0.11356287E+04 0.12500000E+03 0.0000E+00 0.9000E+01
        4  1    1    2  503    0 0.53512396E+03 0.36038323E+02 -.71739958E+03 0.89572371E+03 0.15500000E+01 0.0000E+00 0.9000E+01
        1  1    1    2  502    0 -.11625256E+02 0.49347132E+02 0.17059012E+04 0.17066544E+04 0.32000000E+00 0.0000E+00 0.9000E+01
       21  1    1    2  501  503 0.55899310E+02 0.15076396E+02 -.11477605E+03 0.12855402E+03 0.75000000E+00 0.0000E+00 0.9000E+01
#aMCatNLO 2  0  0  4  2 0.22968019D+02 0.00000000D+00  -5  6  0 0.00000000D+00 0.00000000D+00 0.00000000D+00 0.00000000D+00 0.00000000D+00
  <mgrwgt>
 0.4026723369D-02    2    2    0
 0.170110880038708D+04 0.000000000000000D+00 0.000000000000000D+00 0.170110880038708D+04
 0.170110880038708D+04 -.000000000000000D+00 -.000000000000000D+00 -.170110880038708D+04
 0.770722116821509D+03 -.579554084400504D+03 -.100472154951796D+03 0.482089193709902D+03
 0.161275781638689D+04 0.591338511543496D+03 0.511425904078344D+02 -.149956359469311D+04
 0.101873766756576D+04 -.117844271429921D+02 0.493295645439621D+02 0.101747440098321D+04
 0.000000000000000D+00 0.000000000000000D+00 0.000000000000000D+00 -.000000000000000D+00
 0.170110880038708D+04 0.000000000000000D+00 0.000000000000000D+00 0.170110880038708D+04
 0.170110880038708D+04 -.000000000000000D+00 -.000000000000000D+00 -.170110880038708D+04
 0.770437498992050D+03 -.579432933690089D+03 -.100461677093447D+03 0.481781970027929D+03
 0.140525584682439D+04 0.535124625660062D+03 0.360320356374073D+02 -.129887925630296D+04
 0.101833092072332D+04 -.116242929790148D+02 0.493434139310707D+02 0.101706831993508D+04
 0.208193334234406D+03 0.559326010090424D+02 0.150862275249693D+02 -.199971033660046D+03
-.955787953871D-01 0.000000000000D+00 0.000000000000D+00 0.519204553275D-03 0.000000000000D+00  6 2 3 25 4 1 21 2 0.43874885D+00 0.15610668D+00 0.38823954D+06 0.38823954D+06 0.38823954D+06 0.10763632D+01  1  2 13  3  6  4        4 -.542368994294D-02 0.100000000000D+01
0.166539593855D+00 0.000000000000D+00 0.000000000000D+00 0.519204553275D-03 0.825206961137D-05  6 2 3 25 4 1 21 2 0.43874885D+00 0.15610668D+00 0.38823954D+06 0.38823954D+06 0.38823954D+06 0.10763632D+01  1  2  1  3  6  4        4 0.945041331223D-02 0.100000000000D+01
  </mgrwgt>
  </event>
  <event>
  6     66 -.17338086E-05 0.46171586E+02 0.75467711E-02 0.91476671E-01
        2 -1    0    0  502    0 0.00000000E+00 0.00000000E+00 0.25793924E+04 0.25793924E+04 0.32000000E+00 0.0000E+00 0.9000E+01
        3 -1    0    0  501    0 0.00000000E+00 0.00000000E+00 -.44124908E+03 0.44124936E+03 0.50000000E+00 0.0000E+00 0.9000E+01
       25  1    1    2    0    0 -.36693681E+03 -.50161200E+03 0.97387757E+02 0.64137867E+03 0.12500000E+03 0.0000E+00 0.9000E+01
        4  1    1    2  503    0 -.19318508E+02 -.47538570E+01 -.67031362E+02 0.69938615E+02 0.15500000E+01 0.0000E+00 0.9000E+01
        1  1    1    2  502    0 0.41909941E+03 0.46112887E+03 0.21505059E+04 0.22389640E+04 0.32000000E+00 0.0000E+00 0.9000E+01
       21  1    1    2  501  503 -.32844093E+02 0.45236991E+02 -.42718992E+02 0.70360462E+02 0.75000000E+00 0.0000E+00 0.9000E+01
#aMCatNLO 2  0  0  4  2 0.28475225D+02 0.00000000D+00  -5  6  0 0.00000000D+00 0.00000000D+00 0.00000000D+00 0.00000000D+00 0.00000000D+00
  <mgrwgt>
 -.9960821029D-03    2    2    0
 0.106684346330738D+04 0.000000000000000D+00 0.000000000000000D+00 0.106684346330738D+04
 0.106684346330738D+04 -.000000000000000D+00 -.000000000000000D+00 -.106684346330738D+04
 0.809630170461906D+03 -.366702914347050D+03 -.501880729943852D+03 -.503508409505324D+03
 0.307264434068750D+03 -.528830764706518D+02 0.410396798693743D+02 -.299884239904013D+03
 0.101679232208410D+04 0.419585990817702D+03 0.460841050074477D+03 0.803392649409337D+03
 0.000000000000000D+00 0.000000000000000D+00 0.000000000000000D+00 0.000000000000000D+00
 0.106684346330738D+04 0.000000000000000D+00 0.000000000000000D+00 0.106684346330738D+04
 0.106684346330738D+04 -.000000000000000D+00 -.000000000000000D+00 -.106684346330738D+04
 0.810853880808576D+03 -.367052235864598D+03 -.501609640510172D+03 -.505489308211740D+03
 0.164869669874508D+03 -.191196098157356D+02 -.487911119044517D+01 -.163684583388341D+03
 0.101480464630697D+04 0.419148047268990D+03 0.461180914247280D+03 0.800909201452235D+03
 0.143158729624696D+03 -.329762015886565D+02 0.453078374533368D+02 -.131735309852155D+03
-.186878355164D-02 0.000000000000D+00 0.000000000000D+00 0.604970417365D-05 0.000000000000D+00  6 2 3 25 4 1 21 2 0.39682962D+00 0.67884497D-01 0.44420398D+06 0.44420398D+06 0.44420398D+06 0.10721613D+01  1  2 13  3  6  4        4 -.121984045167D-02 0.100000000000D+01
0.342795585418D-03 0.000000000000D+00 0.000000000000D+00 0.604970417365D-05 0.230249378047D-08  6 2 3 25 4 1 21 2 0.39682962D+00 0.67884497D-01 0.44420398D+06 0.44420398D+06 0.44420398D+06 0.10721613D+01  1  2  1  3  6  4        4 0.223758348782D-03 0.100000000000D+01
  </mgrwgt>
  </event>
  <event>
  5     66 0.17338086E-05 0.16635525E+03 0.75467711E-02 0.90652578E-01
        2 -1    0    0  502    0 0.00000000E+00 0.00000000E+00 0.38939665E+04 0.38939665E+04 0.32000000E+00 0.0000E+00 0.9000E+01
        3 -1    0    0  501    0 0.00000000E+00 0.00000000E+00 -.89283922E+03 0.89283936E+03 0.50000000E+00 0.0000E+00 0.9000E+01
       25  1    1    2    0    0 -.64401605E+03 0.14176929E+03 0.65516671E+03 0.93793583E+03 0.12500000E+03 0.0000E+00 0.9000E+01
        4  1    1    2  501    0 0.53991676E+03 -.27153343E+03 -.62724035E+03 0.87101859E+03 0.15500000E+01 0.0000E+00 0.9000E+01
        1  1    1    2  502    0 0.10409930E+03 0.12976414E+03 0.29732009E+04 0.29778514E+04 0.32000000E+00 0.0000E+00 0.9000E+01
#aMCatNLO 1  0  0  1  2 0.27232234D+02 0.00000000D+00  -5  6  0 0.00000000D+00 0.00000000D+00 0.00000000D+00 0.00000000D+00 0.00000000D+00
  <mgrwgt>
 0.6764135775D-04    1    2    0
 0.186458744732207D+04 0.000000000000000D+00 0.000000000000000D+00 0.186458744732207D+04
 0.186458744732207D+04 0.000000000000000D+00 0.000000000000000D+00 -.186458744732207D+04
 0.676711665214965D+03 -.644036379233604D+03 0.141782210144641D+03 0.861894712141863D+02
 0.162284012398501D+04 0.539939575450326D+03 -.271543243785724D+03 -.150610078999798D+04
 0.142962310544417D+04 0.104096803783278D+03 0.129761033641083D+03 0.141991131878379D+04
 0.000000000000000D+00 0.000000000000000D+00 -.000000000000000D+00 0.000000000000000D+00
 0.302298050368194D+04 0.000000000000000D+00 0.000000000000000D+00 0.302298050368194D+04
 0.192451568520610D+04 0.000000000000000D+00 0.000000000000000D+00 -.192451568520610D+04
 0.762689441112216D+03 -.728699726605582D+03 0.166247607744692D+03 0.861894712141863D+02
 0.156203100873867D+04 0.352610380092962D+03 -.217410217053633D+03 -.150610078999798D+04
 0.143251730810608D+04 -.642498697010073D+02 0.178408629434138D+03 0.141991131878379D+04
 0.119025843093107D+04 0.440339216213627D+03 -.127246020125197D+03 0.109846481847584D+04
0.458062871656D-02 0.000000000000D+00 0.000000000000D+00 0.435975251009D-04 0.000000000000D+00  6 2 3 25 4 1 21 2 0.59907178D+00 0.13735989D+00 0.51979184D+06 0.51979184D+06 0.51979184D+06 0.10673209D+01  1  2 14  1  6  1        2 0.676413577475D-04 0.100000000000D+01
  </mgrwgt>
  </event>
  <event>
  5     66 0.17338086E-05 0.44089775E+02 0.75467711E-02 0.89045712E-01
        2 -1    0    0  502    0 0.00000000E+00 0.00000000E+00 0.83570925E+03 0.83570931E+03 0.32000000E+00 0.0000E+00 0.9000E+01
        3 -1    0    0  501    0 0.00000000E+00 0.00000000E+00 -.12363642E+04 0.12363643E+04 0.50000000E+00 0.0000E+00 0.9000E+01
       25  1    1    2    0    0 0.37810713E+03 0.70013226E+03 -.37156516E+03 0.88703768E+03 0.12500000E+03 0.0000E+00 0.9000E+01
        4  1    1    2  501    0 -.28358419E+02 -.33769329E+02 -.36016601E+03 0.36285883E+03 0.15500000E+01 0.0000E+00 0.9000E+01
        1  1    1    2  502    0 -.34974871E+03 -.66636293E+03 0.33107618E+03 0.82217714E+03 0.32000000E+00 0.0000E+00 0.9000E+01
#aMCatNLO 1  0  0  2  4 0.21802177D+02 0.00000000D+00  -5  6  0 0.00000000D+00 0.00000000D+00 0.00000000D+00 0.00000000D+00 0.00000000D+00
  <mgrwgt>
 0.2916526356D-03    7    2    0
 0.101648472507294D+04 0.000000000000000D+00 0.000000000000000D+00 0.101648472507294D+04
 0.101648472507294D+04 0.000000000000000D+00 0.000000000000000D+00 -.101648472507294D+04
 0.830941608014137D+03 0.378121589386182D+03 0.700164580502168D+03 -.204040632667638D+03
 0.298737081692871D+03 -.283531267737977D+02 -.337640112341639D+02 -.295465625286430D+03
 0.903290760438867D+03 -.349768462612384D+03 -.666400569268004D+03 0.499506257954068D+03
 0.000000000000000D+00 -.000000000000000D+00 0.000000000000000D+00 -.000000000000000D+00
 0.103690971887364D+04 0.000000000000000D+00 0.000000000000000D+00 0.103690971887364D+04
 0.108525602974085D+04 0.000000000000000D+00 0.000000000000000D+00 -.108525602974085D+04
 0.806926996776453D+03 0.379602537672121D+03 0.670653048707110D+03 -.204040632667638D+03
 0.300097451045970D+03 -.278116651619037D+02 -.445539636767535D+02 -.295465625286430D+03
 0.927268794748644D+03 -.348113284640455D+03 -.699384055463205D+03 0.499506257954068D+03
 0.878725060434274D+02 -.367758786976205D+01 0.732849704328484D+02 -.483463108672098D+02
0.274637770080D-03 0.000000000000D+00 0.000000000000D+00 0.339356501257D-05 0.000000000000D+00  6 2 3 25 4 1 21 0 0.12857067D+00 0.19020990D+00 0.64176472D+06 0.64176472D+06 0.64176472D+06 0.10609322D+01  1  2  2  2  6  2        3 0.997627951704D-04 0.100000000000D+01
0.109895195211D-03 0.000000000000D+00 -.105468135089D-05 0.339356501257D-05 0.000000000000D+00  6 2 3 25 4 1 21 2 0.12857067D+00 0.19020990D+00 0.64176472D+06 0.64176472D+06 0.64176472D+06 0.10609322D+01  1  2  3  2  6  2        3 0.449326757778D-04 0.100000000000D+01
-.178865669369D-03 0.000000000000D+00 0.000000000000D+00 0.339356501257D-05 0.000000000000D+00  6 2 3 25 4 1 21 2 0.12857067D+00 0.19020990D+00 0.64176472D+06 0.64176472D+06 0.64176472D+06 0.10609322D+01  1  2 15  2  6  2        3 -.731325251673D-04 0.100000000000D+01
-.201709393381D-04 0.000000000000D+00 0.000000000000D+00 0.339356501257D-05 0.000000000000D+00  6 2 3 25 4 1 21 2 0.12857067D+00 0.19020990D+00 0.64176472D+06 0.64176472D+06 0.64176472D+06 0.10609322D+01  1  2  4  2  6  2        3 -.824726027076D-05 0.100000000000D+01
-.402839011848D-02 0.000000000000D+00 -.657156212358D-03 0.339356501257D-05 0.000000000000D+00  6 2 3 25 4 1 21 2 0.12857067D+00 0.20521109D+00 0.64176472D+06 0.64176472D+06 0.64176472D+06 0.10609322D+01  1  2  5  2  6  2        3 -.124097978286D-02 0.100000000000D+01
0.406843662122D-02 0.000000000000D+00 0.655267323090D-03 0.339356501257D-05 0.000000000000D+00  6 2 3 25 4 1 21 2 0.12857067D+00 0.19020990D+00 0.64176472D+06 0.64176472D+06 0.64176472D+06 0.10609322D+01  1  2  6  2  6  2        3 0.166345528822D-02 0.100000000000D+01
-.500600901755D-04 0.000000000000D+00 -.837664475405D-05 0.339356501257D-05 0.000000000000D+00  6 2 21 25 4 1 -3 2 0.12857067D+00 0.20521109D+00 0.64176472D+06 0.64176472D+06 0.64176472D+06 0.10609322D+01  1  2  5  6  6  2        3 -.194138555288D-03 0.100000000000D+01
  </mgrwgt>
  </event>
  <event>
  5     66 0.17338086E-05 0.59424449E+02 0.75467711E-02 0.94310368E-01
        2 -1    0    0  502    0 0.00000000E+00 0.00000000E+00 0.33006365E+03 0.33006380E+03 0.32000000E+00 0.0000E+00 0.9000E+01
        3 -1    0    0  501    0 -.00000000E+00 -.00000000E+00 -.18098356E+04 0.18098357E+04 0.50000000E+00 0.0000E+00 0.9000E+01
       25  1    1    2    0    0 0.36487997E+02 -.46814222E+03 -.77168483E+03 0.91192707E+03 0.12500000E+03 0.0000E+00 0.9000E+01
        4  1    1    2  501    0 0.40499992E+02 0.43523539E+02 -.78702633E+03 0.78927017E+03 0.15500000E+01 0.0000E+00 0.9000E+01
        1  1    1    2  502    0 -.76987989E+02 0.42461868E+03 0.78939186E+02 0.43870226E+03 0.32000000E+00 0.0000E+00 0.9000E+01
#aMCatNLO 1  0  0  4  4 0.58746604D+02 0.00000000D+00  -5  6  0 0.00000000D+00 0.00000000D+00 0.00000000D+00 0.00000000D+00 0.00000000D+00
  <mgrwgt>
 0.2572543877D-02    6    2    0
 0.772891447454985D+03 0.000000000000000D+00 0.000000000000000D+00 0.772891447454985D+03
 0.772891447454985D+03 -.000000000000000D+00 -.000000000000000D+00 -.772891447454985D+03
 0.523812894103051D+03 0.365156379783232D+02 -.468169942350070D+03 -.195546570646436D+03
 0.339009014201126D+03 0.404810150360523D+02 0.435034777760914D+02 -.333760163220022D+03
 0.682960986605792D+03 -.769966530143755D+02 0.424666464573979D+03 0.529306733866458D+03
 0.000000000000000D+00 0.000000000000000D+00 0.000000000000000D+00 0.000000000000000D+00
 0.772891447454985D+03 0.000000000000000D+00 0.000000000000000D+00 0.772891447454985D+03
 0.772891447454985D+03 -.000000000000000D+00 -.000000000000000D+00 -.772891447454985D+03
 0.525742892842882D+03 0.373769911776802D+02 -.467244277325806D+03 -.202648304240602D+03
 0.193278215348964D+03 -.151990148021532D+01 -.293186259288000D+02 -.191035537535869D+03
 0.676484876377865D+03 -.758809781183885D+02 0.425865439896107D+03 0.520108154358175D+03
 0.150276910340256D+03 0.400238884209237D+02 0.706974633584992D+02 -.126424312581705D+03
0.826318697667D-02 0.000000000000D+00 0.000000000000D+00 0.186321554470D-04 0.000000000000D+00  6 2 3 25 4 1 21 0 0.50779040D-01 0.27843627D+00 0.23861200D+06 0.23861200D+06 0.23861200D+06 0.10919856D+01  1  2  2  3  6  4        4 0.164941046715D-02 0.100000000000D+01
0.209921116772D-02 0.000000000000D+00 -.317328137375D-04 0.186321554470D-04 0.000000000000D+00  6 2 3 25 4 1 21 2 0.50779040D-01 0.27843627D+00 0.23861200D+06 0.23861200D+06 0.23861200D+06 0.10919856D+01  1  2  3  3  6  4        4 0.499656023750D-03 0.100000000000D+01
-.596634285139D-02 0.000000000000D+00 0.000000000000D+00 0.186321554470D-04 0.000000000000D+00  6 2 3 25 4 1 21 2 0.50779040D-01 0.27843627D+00 0.23861200D+06 0.23861200D+06 0.23861200D+06 0.10919856D+01  1  2 15  3  6  4        4 -.142011398915D-02 0.100000000000D+01
-.145045580152D-02 0.000000000000D+00 0.000000000000D+00 0.186321554470D-04 0.000000000000D+00  6 2 3 25 4 1 21 2 0.50779040D-01 0.27843627D+00 0.23861200D+06 0.23861200D+06 0.23861200D+06 0.10919856D+01  1  2  4  3  6  4        4 -.345238720886D-03 0.100000000000D+01
-.149422886650D-01 0.000000000000D+00 0.000000000000D+00 0.186321554470D-04 0.000000000000D+00  6 2 3 25 4 1 21 2 0.50779040D-01 0.27843627D+00 0.23861200D+06 0.23861200D+06 0.23861200D+06 0.10919856D+01  1  2  5  3  6  4        4 -.355657622963D-02 0.100000000000D+01
0.241382482143D-01 0.000000000000D+00 -.000000000000D+00 0.186321554470D-04 0.000000000000D+00  6 2 3 25 4 1 21 2 0.50779040D-01 0.27843627D+00 0.23861200D+06 0.23861200D+06 0.23861200D+06 0.10919856D+01  1  2  6  3  6  4        4 0.574540632618D-02 0.100000000000D+01
  </mgrwgt>
  </event>
  <event>
  5     66 0.17338086E-05 0.10518497E+03 0.75467711E-02 0.93704330E-01
        2 -1    0    0  502    0 0.00000000E+00 0.00000000E+00 0.20210871E+04 0.20210872E+04 0.32000000E+00 0.0000E+00 0.9000E+01
        3 -1    0    0  501    0 0.00000000E+00 0.00000000E+00 -.45505196E+03 0.45505224E+03 0.50000000E+00 0.0000E+00 0.9000E+01
       25  1    1    2    0    0 -.35039303E+03 0.29378485E+03 0.73881757E+02 0.47975861E+03 0.12500000E+03 0.0000E+00 0.9000E+01
        4  1    1    2  501    0 0.28701203E+03 -.20984359E+03 -.12419580E+03 0.37661285E+03 0.15500000E+01 0.0000E+00 0.9000E+01
        1  1    1    2  502    0 0.63381000E+02 -.83941253E+02 0.16163492E+04 0.16197679E+04 0.32000000E+00 0.0000E+00 0.9000E+01
#aMCatNLO 1  0  0  1  2 0.15588526D+03 0.00000000D+00  -5  6  0 0.00000000D+00 0.00000000D+00 0.00000000D+00 0.00000000D+00 0.00000000D+00
  <mgrwgt>
 0.9271213053D-02    7    2    0
 0.959009925842036D+03 0.000000000000000D+00 0.000000000000000D+00 0.959009925842036D+03
 0.959009925842036D+03 0.000000000000000D+00 0.000000000000000D+00 -.959009925842036D+03
 0.559037014020492D+03 -.350377883899985D+03 0.293773945782004D+03 -.296360574804390D+03
 0.587587821333780D+03 0.286995187305099D+03 -.209830445990409D+03 -.467829449884202D+03
 0.771395016329800D+03 0.633826965948866D+02 -.839434997915955D+02 0.764190024688593D+03
 0.000000000000000D+00 0.000000000000000D+00 0.000000000000000D+00 0.000000000000000D+00
 0.161505979907310D+04 0.000000000000000D+00 0.000000000000000D+00 0.161505979907310D+04
 0.971476967151106D+03 0.000000000000000D+00 0.000000000000000D+00 -.971476967151106D+03
 0.582100595855103D+03 -.395054372346565D+03 0.281635502531799D+03 -.296360574804390D+03
 0.571487376709805D+03 0.241616427332621D+03 -.222159693920207D+03 -.467829449884202D+03
 0.770756166465229D+03 0.300619256525140D+01 -.100347581519860D+03 0.764190024688593D+03
 0.662192627194067D+03 0.150431752448693D+03 0.408717729082677D+02 0.643582831921991D+03
0.840868409705D-03 0.000000000000D+00 0.000000000000D+00 0.312037105434D-04 0.000000000000D+00  6 2 3 25 4 1 21 0 0.31093651D+00 0.70008017D-01 0.21842701D+06 0.21842701D+06 0.21842701D+06 0.10948977D+01  1  2  2  1  6  1        2 0.962784733266D-03 0.100000000000D+01
0.177627475048D-03 0.000000000000D+00 -.322915609900D-05 0.312037105434D-04 0.000000000000D+00  6 2 3 25 4 1 21 2 0.31093651D+00 0.70008017D-01 0.21842701D+06 0.21842701D+06 0.21842701D+06 0.10948977D+01  1  2  3  1  6  1        2 0.243813861112D-03 0.100000000000D+01
-.600442879069D-03 0.000000000000D+00 0.000000000000D+00 0.312037105434D-04 0.000000000000D+00  6 2 3 25 4 1 21 2 0.31093651D+00 0.70008017D-01 0.21842701D+06 0.21842701D+06 0.21842701D+06 0.10948977D+01  1  2 15  1  6  1        2 -.824175970995D-03 0.100000000000D+01
-.754968871974D-03 0.000000000000D+00 0.000000000000D+00 0.312037105434D-04 0.000000000000D+00  6 2 3 25 4 1 21 2 0.31093651D+00 0.70008017D-01 0.21842701D+06 0.21842701D+06 0.21842701D+06 0.10948977D+01  1  2  4  1  6  1        2 -.103628042703D-02 0.100000000000D+01
-.951870042248D-02 0.000000000000D+00 -.461615042078D-03 0.312037105434D-04 0.000000000000D+00  6 2 3 25 4 1 21 2 0.52488179D+00 0.70008017D-01 0.21842701D+06 0.21842701D+06 0.21842701D+06 0.10948977D+01  1  2  5  1  6  1        2 -.188858517805D-02 0.100000000000D+01
0.860980909970D-02 0.000000000000D+00 0.404843648106D-03 0.312037105434D-04 0.000000000000D+00  6 2 3 25 4 1 21 2 0.31093651D+00 0.70008017D-01 0.21842701D+06 0.21842701D+06 0.21842701D+06 0.10948977D+01  1  2  6  1  6  1        2 0.118179397611D-01 0.100000000000D+01
-.534987925325D-03 0.000000000000D+00 -.270067010561D-04 0.312037105434D-04 0.000000000000D+00  6 21 3 25 4 1 -2 2 0.52488179D+00 0.70008017D-01 0.21842701D+06 0.21842701D+06 0.21842701D+06 0.10948977D+01  1  2  5  5  6  1        2 -.428372634963D-05 0.100000000000D+01
  </mgrwgt>
  </event>
  <event>
  6     66 0.17338086E-05 0.55574950E+02 0.75467711E-02 0.93886575E-01
        2 -1    0    0  502    0 0.00000000E+00 0.00000000E+00 0.30609576E+04 0.30609576E+04 0.32000000E+00 0.0000E+00 0.9000E+01
        3 -1    0    0  503    0 0.00000000E+00 0.00000000E+00 -.31048777E+03 0.31048817E+03 0.50000000E+00 0.0000E+00 0.9000E+01
       25  1    1    2    0    0 0.35172810E+03 -.37292665E+03 0.92754147E+03 0.10671200E+04 0.12500000E+03 0.0000E+00 0.9000E+01
        4  1    1    2  501    0 -.32817034E+03 0.32428312E+03 0.16750659E+03 0.49083213E+03 0.15500000E+01 0.0000E+00 0.9000E+01
        1  1    1    2  502    0 0.15428992E+02 -.12423353E+01 0.17217360E+04 0.17218056E+04 0.32000000E+00 0.0000E+00 0.9000E+01
       21  1    1    2  503  501 -.38986757E+02 0.49885857E+02 -.66314206E+02 0.91688071E+02 0.75000000E+00 0.0000E+00 0.9000E+01
#aMCatNLO 2  0  0  2  4 0.90442961D+03 0.00000000D+00  -5  6  0 0.00000000D+00 0.00000000D+00 0.00000000D+00 0.00000000D+00 0.00000000D+00
  <mgrwgt>
 0.7686287044D-02    1    2    0
 0.839423885499540D+03 0.000000000000000D+00 0.000000000000000D+00 0.839423885499540D+03
 0.839423885499540D+03 0.000000000000000D+00 0.000000000000000D+00 -.839423885499540D+03
 0.509265653464240D+03 0.339724010111670D+03 -.357555307508222D+03 0.216403517694495D+02
 0.695112567573666D+03 -.344135612386450D+03 0.344703050800832D+03 -.495915283747997D+03
 0.474469549961174D+03 0.441160227478042D+01 0.128522567073904D+02 0.474274931978547D+03
 0.000000000000000D+00 -.000000000000000D+00 0.000000000000000D+00 -.000000000000000D+00
 0.843516286685922D+03 0.000000000000000D+00 0.000000000000000D+00 0.843516286685922D+03
 0.112669967369855D+04 0.000000000000000D+00 0.000000000000000D+00 -.112669967369855D+04
 0.528141372263991D+03 0.351765234570063D+03 -.372962764924402D+03 0.216403517694495D+02
 0.677372437790149D+03 -.328205124539828D+03 0.324319051319389D+03 -.495915283747997D+03
 0.474527381158848D+03 0.154266472615066D+02 -.124214350553790D+01 0.474274931978547D+03
 0.290174769171481D+03 -.389867572917415D+02 0.498858571105505D+02 -.283183387012626D+03
0.105456141039D-01 0.000000000000D+00 0.000000000000D+00 0.741658971908D-04 0.234001119801D-06  6 2 3 25 4 1 21 2 0.47091632D+00 0.47767354D-01 0.28510265D+06 0.28510265D+06 0.28510265D+06 0.10861922D+01  1  2  1  2  6  2        3 0.768628704371D-02 0.100000000000D+01
  </mgrwgt>
  </event>
  <event>
  5     66 0.17338086E-05 0.94040367E+02 0.75467711E-02 0.89294251E-01
        2 -1    0    0  502    0 0.00000000E+00 0.00000000E+00 0.35239313E+04 0.35239313E+04 0.32000000E+00 0.0000E+00 0.9000E+01
        3 -1    0    0  501    0 0.00000000E+00 0.00000000E+00 -.67731972E+03 0.67731990E+03 0.50000000E+00 0.0000E+00 0.9000E+01
       25  1    1    2    0    0 0.19054377E+03 -.68007835E+03 0.12153286E+04 0.14111918E+04 0.12500000E+03 0.0000E+00 0.9000E+01
        4  1    1    2  501    0 0.35429228E+01 0.93967371E+02 -.53207523E+03 0.54032293E+03 0.15500000E+01 0.0000E+00 0.9000E+01
        1  1    1    2  502    0 -.19408669E+03 0.58611098E+03 0.21633581E+04 0.22497365E+04 0.32000000E+00 0.0000E+00 0.9000E+01
#aMCatNLO 1  0  0  1  5 0.24045089D+03 0.00000000D+00  -5  6  0 0.00000000D+00 0.00000000D+00 0.00000000D+00 0.00000000D+00 0.00000000D+00
  <mgrwgt>
 0.5624218094D-03    7    2    0
 0.154493642017552D+04 0.000000000000000D+00 0.000000000000000D+00 0.154493642017552D+04
 0.154493642017552D+04 0.000000000000000D+00 0.000000000000000D+00 -.154493642017552D+04
 0.799142526222763D+03 0.190533722754110D+03 -.680054213014660D+03 0.352458430275361D+03
 0.122489454958235D+04 0.354290740272069D+01 0.939736052265247D+02 -.122127927474612D+04
 0.106583576454594D+04 -.194076630156831D+03 0.586080607788135D+03 0.868820844470756D+03
 0.000000000000000D+00 -.000000000000000D+00 0.000000000000000D+00 0.000000000000000D+00
 0.208403938717652D+04 0.000000000000000D+00 0.000000000000000D+00 0.208403938717652D+04
 0.157665309912156D+04 0.000000000000000D+00 0.000000000000000D+00 -.157665309912156D+04
 0.845946477744532D+03 0.240749244933622D+03 -.719592453545824D+03 0.352458430275361D+03
 0.122429045683201D+04 0.783030594156097D+02 0.351096375898789D+02 -.122127927474612D+04
 0.102897761136011D+04 -.130133495599329D+03 0.535733644842828D+03 0.868820844470756D+03
 0.561477940361429D+03 -.188918808749902D+03 0.148749171113118D+03 0.507386288054959D+03
0.365324827508D-02 0.000000000000D+00 0.000000000000D+00 0.470991961293D-04 0.000000000000D+00  6 2 3 25 4 1 21 0 0.54214329D+00 0.10420305D+00 0.51025091D+06 0.51025091D+06 0.51025091D+06 0.10678880D+01  1  2  2  1  6  1        2 0.186682172150D-03 0.100000000000D+01
0.133832102872D-02 0.000000000000D+00 -.140294352987D-04 0.470991961293D-04 0.000000000000D+00  6 2 3 25 4 1 21 2 0.54214329D+00 0.10420305D+00 0.51025091D+06 0.51025091D+06 0.51025091D+06 0.10678880D+01  1  2  3  1  6  1        2 0.779893690180D-04 0.100000000000D+01
-.272759104430D-02 0.000000000000D+00 0.000000000000D+00 0.470991961293D-04 0.000000000000D+00  6 2 3 25 4 1 21 2 0.54214329D+00 0.10420305D+00 0.51025091D+06 0.51025091D+06 0.51025091D+06 0.10678880D+01  1  2 15  1  6  1        2 -.158947741177D-03 0.100000000000D+01
-.702401527531D-02 0.000000000000D+00 0.000000000000D+00 0.470991961293D-04 0.000000000000D+00  6 2 3 25 4 1 21 2 0.54214329D+00 0.10420305D+00 0.51025091D+06 0.51025091D+06 0.51025091D+06 0.10678880D+01  1  2  4  1  6  1        2 -.409317725374D-03 0.100000000000D+01
-.154636330164D-01 0.000000000000D+00 -.191291409081D-02 0.470991961293D-04 0.000000000000D+00  6 2 3 25 4 1 21 2 0.73307484D+00 0.10420305D+00 0.51025091D+06 0.51025091D+06 0.51025091D+06 0.10678880D+01  1  2  5  1  6  1        2 -.709154579562D-04 0.100000000000D+01
0.160783926183D-01 0.000000000000D+00 0.192064256245D-02 0.470991961293D-04 0.000000000000D+00  6 2 3 25 4 1 21 2 0.54214329D+00 0.10420305D+00 0.51025091D+06 0.51025091D+06 0.51025091D+06 0.10678880D+01  1  2  6  1  6  1        2 0.936952844810D-03 0.100000000000D+01
-.556949278317D-03 0.000000000000D+00 -.742497576444D-04 0.470991961293D-04 0.000000000000D+00  6 21 3 25 4 1 -2 2 0.73307484D+00 0.10420305D+00 0.51025091D+06 0.51025091D+06 0.51025091D+06 0.10678880D+01  1  2  5  5  6  1        2 -.216521113129D-07 0.100000000000D+01
  </mgrwgt>
  </event>
  <event>
  5     66 0.17338086E-05 0.53284620E+02 0.75467711E-02 0.92780401E-01
        2 -1    0    0  502    0 0.00000000E+00 0.00000000E+00 0.13340465E+04 0.13340466E+04 0.32000000E+00 0.0000E+00 0.9000E+01
        3 -1    0    0  501    0 0.00000000E+00 0.00000000E+00 -.79662358E+03 0.79662374E+03 0.50000000E+00 0.0000E+00 0.9000E+01
       25  1    1    2    0    0 0.41632986E+03 -.32202822E+03 0.36302123E+02 0.54219514E+03 0.12500000E+03 0.0000E+00 0.9000E+01
        4  1    1    2  501    0 0.50705236E+02 -.16419013E+02 -.46242723E+03 0.46549108E+03 0.15500000E+01 0.0000E+00 0.9000E+01
        1  1    1    2  502    0 -.46703510E+03 0.33844723E+03 0.96354807E+03 0.11229841E+04 0.32000000E+00 0.0000E+00 0.9000E+01
#aMCatNLO 1  0  0  4  2 0.46325707D+02 0.00000000D+00  -5  6  0 0.00000000D+00 0.00000000D+00 0.00000000D+00 0.00000000D+00 0.00000000D+00
  <mgrwgt>
 0.2304029588D-02    6    2    0
 0.103088949495318D+04 0.000000000000000D+00 0.000000000000000D+00 0.103088949495318D+04
 0.103088949495318D+04 -.000000000000000D+00 -.000000000000000D+00 -.103088949495318D+04
 0.550917550300771D+03 0.416365931214594D+03 -.322050276756445D+03 -.103962386440020D+03
 0.601465712736706D+03 0.506933489345667D+02 -.164144794596123D+02 -.599100786876250D+03
 0.909395726868887D+03 -.467059280149161D+03 0.338464756216057D+03 0.703063173316270D+03
 0.000000000000000D+00 0.000000000000000D+00 0.000000000000000D+00 0.000000000000000D+00
 0.103088949495318D+04 0.000000000000000D+00 0.000000000000000D+00 0.103088949495318D+04
 0.103088949495318D+04 -.000000000000000D+00 -.000000000000000D+00 -.103088949495318D+04
 0.553350237988626D+03 0.417111408063849D+03 -.322291661764279D+03 -.112772531683396D+03
 0.560706328701651D+03 0.935656775972447D+00 -.154407822144058D+02 -.560492902575125D+03
 0.897514614342131D+03 -.465839458433507D+03 0.338069778592428D+03 0.688647156914590D+03
 0.502078088739554D+02 0.477923935936857D+02 -.337334613743055D+00 -.153817226560692D+02
0.360464895749D-02 0.000000000000D+00 0.000000000000D+00 0.443780032308D-04 0.000000000000D+00  6 2 3 25 4 1 21 0 0.20523795D+00 0.12255749D+00 0.34287344D+06 0.34287344D+06 0.34287344D+06 0.10802858D+01  1  2  2  3  6  4        4 0.254205894038D-02 0.100000000000D+01
0.146131039727D-02 0.000000000000D+00 -.138428011226D-04 0.443780032308D-04 0.000000000000D+00  6 2 3 25 4 1 21 2 0.20523795D+00 0.12255749D+00 0.34287344D+06 0.34287344D+06 0.34287344D+06 0.10802858D+01  1  2  3  3  6  4        4 0.120265874764D-02 0.100000000000D+01
-.281127847165D-02 0.000000000000D+00 0.000000000000D+00 0.443780032308D-04 0.000000000000D+00  6 2 3 25 4 1 21 2 0.20523795D+00 0.12255749D+00 0.34287344D+06 0.34287344D+06 0.34287344D+06 0.10802858D+01  1  2 15  3  6  4        4 -.231368274140D-02 0.100000000000D+01
-.417330521054D-03 0.000000000000D+00 0.000000000000D+00 0.443780032308D-04 0.000000000000D+00  6 2 3 25 4 1 21 2 0.20523795D+00 0.12255749D+00 0.34287344D+06 0.34287344D+06 0.34287344D+06 0.10802858D+01  1  2  4  3  6  4        4 -.343463101845D-03 0.100000000000D+01
-.169998127081D-01 0.000000000000D+00 0.000000000000D+00 0.443780032308D-04 0.000000000000D+00  6 2 3 25 4 1 21 2 0.20523795D+00 0.12255749D+00 0.34287344D+06 0.34287344D+06 0.34287344D+06 0.10802858D+01  1  2  5  3  6  4        4 -.139908492404D-01 0.100000000000D+01
0.184778898027D-01 0.000000000000D+00 -.000000000000D+00 0.443780032308D-04 0.000000000000D+00  6 2 3 25 4 1 21 2 0.20523795D+00 0.12255749D+00 0.34287344D+06 0.34287344D+06 0.34287344D+06 0.10802858D+01  1  2  6  3  6  4        4 0.152073069833D-01 0.100000000000D+01
  </mgrwgt>
  </event>
  <event>
  5     66 0.17338086E-05 0.16187250E+03 0.75467711E-02 0.87022450E-01
        2 -1    0    0  502    0 0.00000000E+00 0.00000000E+00 0.72779586E+03 0.72779593E+03 0.32000000E+00 0.0000E+00 0.9000E+01
        3 -1    0    0  501    0 0.00000000E+00 0.00000000E+00 -.98745182E+03 0.98745194E+03 0.50000000E+00 0.0000E+00 0.9000E+01
       25  1    1    2    0    0 0.57865079E+03 -.64758709E+02 0.13004846E+02 0.59567151E+03 0.12500000E+03 0.0000E+00 0.9000E+01
        4  1    1    2  501    0 -.45414223E+03 0.16826857E+03 -.58999627E+03 0.76332004E+03 0.15500000E+01 0.0000E+00 0.9000E+01
        1  1    1    2  502    0 -.12450855E+03 -.10350986E+03 0.31733546E+03 0.35625632E+03 0.32000000E+00 0.0000E+00 0.9000E+01
#aMCatNLO 1  0  0  2  4 0.10514591D+03 0.00000000D+00  -5  6  0 0.00000000D+00 0.00000000D+00 0.00000000D+00 0.00000000D+00 0.00000000D+00
  <mgrwgt>
 0.8014573819D-03    6    2    0
 0.847740237007972D+03 0.000000000000000D+00 0.000000000000000D+00 0.847740237007972D+03
 0.847740237007972D+03 0.000000000000000D+00 0.000000000000000D+00 -.847740237007972D+03
 0.604665275313380D+03 0.578686986966264D+03 -.647987785162394D+02 0.104487246056713D+03
 0.681915745838801D+03 -.454211594538138D+03 0.168281066720848D+03 -.479981660476006D+03
 0.408899452863764D+03 -.124475392428126D+03 -.103482288204608D+03 0.375494414419293D+03
 0.000000000000000D+00 -.000000000000000D+00 0.000000000000000D+00 -.000000000000000D+00
 0.124071304691365D+04 0.000000000000000D+00 0.000000000000000D+00 0.124071304691365D+04
 0.129058683642098D+04 0.000000000000000D+00 0.000000000000000D+00 -.129058683642098D+04
 0.791130372423731D+03 0.710897222989669D+03 -.306544972113998D+03 0.104487246056713D+03
 0.587027570977270D+03 -.334016854220268D+03 -.514948132433343D+02 -.479981660476006D+03
 0.454822376977871D+03 -.426633684638295D+02 -.253075436048290D+03 0.375494414419293D+03
 0.698319562955756D+03 -.334217000305572D+03 0.611115221405622D+03 -.498737895073285D+02
0.936417269395D-03 0.000000000000D+00 0.000000000000D+00 0.625868747874D-06 0.000000000000D+00  6 2 3 25 4 1 21 0 0.11196861D+00 0.15191568D+00 0.38553194D+06 0.38553194D+06 0.38553194D+06 0.10765829D+01  1  2  2  2  6  2        3 0.866229517529D-03 0.100000000000D+01
0.971757958463D-04 0.000000000000D+00 -.359608887881D-05 0.625868747874D-06 0.000000000000D+00  6 2 3 25 4 1 21 2 0.11196861D+00 0.15191568D+00 0.38553194D+06 0.38553194D+06 0.38553194D+06 0.10765829D+01  1  2  3  2  6  2        3 0.104187746219D-03 0.100000000000D+01
-.594225672296D-03 0.000000000000D+00 0.000000000000D+00 0.625868747874D-06 0.000000000000D+00  6 2 3 25 4 1 21 2 0.11196861D+00 0.15191568D+00 0.38553194D+06 0.38553194D+06 0.38553194D+06 0.10765829D+01  1  2 15  2  6  2        3 -.637103437157D-03 0.100000000000D+01
-.162713763212D-03 0.000000000000D+00 -.435438431063D-03 0.625868747874D-06 0.000000000000D+00  6 2 3 25 4 1 21 2 0.11196861D+00 0.29195896D+00 0.38553194D+06 0.38553194D+06 0.38553194D+06 0.10765829D+01  1  2  5  2  6  2        3 -.108267968893D-04 0.100000000000D+01
0.430779471880D-03 0.000000000000D+00 0.356597993201D-03 0.625868747874D-06 0.000000000000D+00  6 2 3 25 4 1 21 2 0.11196861D+00 0.15191568D+00 0.38553194D+06 0.38553194D+06 0.38553194D+06 0.10765829D+01  1  2  6  2  6  2        3 0.461863387913D-03 0.100000000000D+01
0.136430255650D-04 0.000000000000D+00 -.308693438478D-04 0.625868747874D-06 0.000000000000D+00  6 2 21 25 4 1 -3 2 0.11196861D+00 0.29195896D+00 0.38553194D+06 0.38553194D+06 0.38553194D+06 0.10765829D+01  1  2  5  6  6  2        3 0.171069643326D-04 0.100000000000D+01
  </mgrwgt>
  </event>
  <event>
  6     66 0.17338086E-05 0.41117568E+02 0.75467711E-02 0.92496269E-01
        2 -1    0    0  502    0 0.00000000E+00 0.00000000E+00 0.20388385E+04 0.20388385E+04 0.32000000E+00 0.0000E+00 0.9000E+01
        3 -1    0    0  501    0 0.00000000E+00 0.00000000E+00 -.35370334E+03 0.35370369E+03 0.50000000E+00 0.0000E+00 0.9000E+01
       25  1    1    2    0    0 -.53289820E+03 0.22760644E+03 0.10763098E+04 0.12287607E+04 0.12500000E+03 0.0000E+00 0.9000E+01
        4  1    1    2  501    0 0.31060763E+02 0.29555444E+02 -.17730223E+03 0.18241924E+03 0.15500000E+01 0.0000E+00 0.9000E+01
        1  1    1    2  503    0 0.42984223E+03 -.26379351E+03 0.74027608E+03 0.89574558E+03 0.32000000E+00 0.0000E+00 0.9000E+01
       21  1    1    2  502  503 0.71995204E+02 0.66316214E+01 0.45851489E+02 0.85616641E+02 0.75000000E+00 0.0000E+00 0.9000E+01
#aMCatNLO 2  0  0  5  1 0.93046818D+01 0.00000000D+00  -5  6  0 0.00000000D+00 0.00000000D+00 0.00000000D+00 0.00000000D+00 0.00000000D+00
  <mgrwgt>
 0.1123591317D-02    2    2    0
 0.849202235857116D+03 0.000000000000000D+00 0.000000000000000D+00 0.849202235857116D+03
 0.849202235857116D+03 -.000000000000000D+00 -.000000000000000D+00 -.849202235857116D+03
 0.669784181621015D+03 -.540552758193633D+03 0.231506951781592D+03 0.295284772441426D+03
 0.434376167727127D+03 0.259736559316809D+02 0.321842810611889D+02 -.432402817219571D+03
 0.594244122366089D+03 0.514579102261952D+03 -.263691232842781D+03 0.137118044778145D+03
 0.000000000000000D+00 0.000000000000000D+00 0.000000000000000D+00 0.000000000000000D+00
 0.849202235857116D+03 0.000000000000000D+00 0.000000000000000D+00 0.849202235857116D+03
 0.849202235857116D+03 -.000000000000000D+00 -.000000000000000D+00 -.849202235857116D+03
 0.663009266132656D+03 -.532704645829859D+03 0.227485260236802D+03 0.297376030749021D+03
 0.433170994421115D+03 0.310821801526607D+02 0.295664657556003D+02 -.431041567122543D+03
 0.527060270402601D+03 0.429575977638769D+03 -.263685938775566D+03 0.154034845942751D+03
 0.751639407578591D+02 0.720464880384299D+02 0.663421278316359D+01 -.203693095692280D+02
-.876553448355D-05 0.000000000000D+00 0.000000000000D+00 0.383251711585D-05 0.000000000000D+00  6 2 3 25 4 1 21 2 0.31366749D+00 0.54415928D-01 0.37255531D+06 0.37255531D+06 0.37255531D+06 0.10776601D+01  1  2  8  4  6  5        1 -.189400474725D-04 0.100000000000D+01
0.527953014951D-03 0.000000000000D+00 0.000000000000D+00 0.383251711585D-05 0.347691586881D-08  6 2 3 25 4 1 21 2 0.31366749D+00 0.54415928D-01 0.36716160D+06 0.36716160D+06 0.36716160D+06 0.10781198D+01  1  2  1  4  6  5        1 0.114253136471D-02 0.100000000000D+01
  </mgrwgt>
  </event>
  <event>
  5     66 0.17338086E-05 0.35526331E+02 0.75467711E-02 0.86975490E-01
        2 -1    0    0  502    0 0.00000000E+00 0.00000000E+00 0.25430665E+04 0.25430665E+04 0.32000000E+00 0.0000E+00 0.9000E+01
        3 -1    0    0  501    0 0.00000000E+00 0.00000000E+00 -.11511711E+04 0.11511712E+04 0.50000000E+00 0.0000E+00 0.9000E+01
       25  1    1    2    0    0 0.14597672E+03 0.44185640E+03 0.42619386E+02 0.48372274E+03 0.12500000E+03 0.0000E+00 0.9000E+01
        4  1    1    2  501    0 -.29057585E+02 0.20446178E+02 -.90533185E+03 0.90603010E+03 0.15500000E+01 0.0000E+00 0.9000E+01
        1  1    1    2  502    0 -.11691913E+03 -.46230258E+03 0.22546079E+04 0.23044849E+04 0.32000000E+00 0.0000E+00 0.9000E+01
#aMCatNLO 1  0  0  2  2 0.16049161D+03 0.00000000D+00  -5  6  0 0.00000000D+00 0.00000000D+00 0.00000000D+00 0.00000000D+00 0.00000000D+00
  <mgrwgt>
 0.2752773589D-01    7    2    0
 0.171099528298534D+04 0.000000000000000D+00 0.000000000000000D+00 0.171099528298534D+04
 0.171099528298534D+04 0.000000000000000D+00 0.000000000000000D+00 -.171099528298534D+04
 0.504906384593531D+03 0.145976209739067D+03 0.441867268113320D+03 -.150830105627483D+03
 0.134629453881651D+04 -.290551007192963D+02 0.204431244129773D+02 -.134582571866999D+04
 0.157078964256064D+04 -.116921109019771D+03 -.462310392526297D+03 0.149665582429747D+04
 0.000000000000000D+00 -.000000000000000D+00 -.000000000000000D+00 -.000000000000000D+00
 0.215914615312972D+04 0.000000000000000D+00 0.000000000000000D+00 0.215914615312972D+04
 0.238238327076752D+04 0.000000000000000D+00 0.000000000000000D+00 -.238238327076752D+04
 0.654265371914682D+03 0.213885352795404D+03 0.586465269204106D+03 -.150830105627483D+03
 0.140015319383446D+04 0.131843326046355D+03 0.363041923954070D+03 -.134582571866999D+04
 0.150007498890454D+04 0.629830202811388D+02 -.792430128759770D+02 0.149665582429747D+04
 0.987035869243569D+03 -.408711699122899D+03 -.870264180282199D+03 -.223237117637797D+03
0.573126885855D+00 0.000000000000D+00 0.000000000000D+00 0.275794828006D-02 0.000000000000D+00  6 2 3 25 4 1 21 0 0.39124101D+00 0.17710325D+00 0.24713027D+06 0.24713027D+06 0.24713027D+06 0.10908365D+01  1  2  2  2  6  2        3 0.300379868589D-01 0.100000000000D+01
0.347255336248D+00 0.000000000000D+00 -.220095814946D-02 0.275794828006D-02 0.000000000000D+00  6 2 3 25 4 1 21 2 0.39124101D+00 0.17710325D+00 0.24713027D+06 0.24713027D+06 0.24713027D+06 0.10908365D+01  1  2  3  2  6  2        3 0.216565016651D-01 0.100000000000D+01
-.422285132490D+00 0.000000000000D+00 0.000000000000D+00 0.275794828006D-02 0.000000000000D+00  6 2 3 25 4 1 21 2 0.39124101D+00 0.17710325D+00 0.24713027D+06 0.24713027D+06 0.24713027D+06 0.10908365D+01  1  2 15  2  6  2        3 -.263357181887D-01 0.100000000000D+01
-.290215259208D-02 0.000000000000D+00 0.000000000000D+00 0.275794828006D-02 0.000000000000D+00  6 2 3 25 4 1 21 2 0.39124101D+00 0.17710325D+00 0.24713027D+06 0.24713027D+06 0.24713027D+06 0.10908365D+01  1  2  4  2  6  2        3 -.180992099710D-03 0.100000000000D+01
0.214953273371D+00 0.000000000000D+00 -.287495857468D+00 0.275794828006D-02 0.000000000000D+00  6 2 3 25 4 1 21 2 0.39124101D+00 0.29548536D+00 0.24713027D+06 0.24713027D+06 0.24713027D+06 0.10908365D+01  1  2  5  2  6  2        3 0.125986259473D-02 0.100000000000D+01
-.298424265516D-01 0.000000000000D+00 0.253546110246D+00 0.275794828006D-02 0.000000000000D+00  6 2 3 25 4 1 21 2 0.39124101D+00 0.17710325D+00 0.24713027D+06 0.24713027D+06 0.24713027D+06 0.10908365D+01  1  2  6  2  6  2        3 -.186111628201D-02 0.100000000000D+01
0.256595444832D-01 0.000000000000D+00 -.165161642057D-01 0.275794828006D-02 0.000000000000D+00  6 2 21 25 4 1 -3 2 0.39124101D+00 0.29548536D+00 0.24713027D+06 0.24713027D+06 0.24713027D+06 0.10908365D+01  1  2  5  6  6  2        3 0.295121134050D-02 0.100000000000D+01
  </mgrwgt>
  </event>
  <event>
  5     66 0.17338086E-05 0.32889321E+02 0.75467711E-02 0.88082070E-01
        2 -1    0    0  502    0 0.00000000E+00 0.00000000E+00 0.24698164E+04 0.24698165E+04 0.32000000E+00 0.0000E+00 0.9000E+01
        3 -1    0    0  501    0 0.00000000E+00 0.00000000E+00 -.75447249E+03 0.75447266E+03 0.50000000E+00 0.0000E+00 0.9000E+01
       25  1    1    2    0    0 0.62830035E+03 0.18994259E+03 0.11557963E+03 0.67810262E+03 0.12500000E+03 0.0000E+00 0.9000E+01
        4  1    1    2  501    0 -.63079668E+03 -.15714730E+03 -.24973285E+03 0.69639689E+03 0.15500000E+01 0.0000E+00 0.9000E+01
        1  1    1    2  502    0 0.24963351E+01 -.32795291E+02 0.18494972E+04 0.18497896E+04 0.32000000E+00 0.0000E+00 0.9000E+01
#aMCatNLO 1  0  0  1  2 0.11581509D+03 0.00000000D+00  -5  6  0 0.00000000D+00 0.00000000D+00 0.00000000D+00 0.00000000D+00 0.00000000D+00
  <mgrwgt>
 0.7378463737D-02    7    2    0
 0.136506735164757D+04 0.000000000000000D+00 0.000000000000000D+00 0.136506735164757D+04
 0.136506735164757D+04 0.000000000000000D+00 0.000000000000000D+00 -.136506735164757D+04
 0.728237164838366D+03 0.628325701733453D+03 0.189948861728427D+03 -.289535163185855D+03
 0.979361461217566D+03 -.630821972962698D+03 -.157154409907424D+03 -.732471843549160D+03
 0.102253607723921D+04 0.249627122924512D+01 -.327944518210026D+02 0.102200700673502D+04
 0.000000000000000D+00 -.000000000000000D+00 0.000000000000000D+00 0.000000000000000D+00
 0.207976884651571D+04 0.000000000000000D+00 0.000000000000000D+00 0.207976884651571D+04
 0.143656529904389D+04 0.000000000000000D+00 0.000000000000000D+00 -.143656529904389D+04
 0.819148580503857D+03 0.737949385734372D+03 0.164254346410335D+03 -.289535163185855D+03
 0.905178135959020D+03 -.497312811520594D+03 -.188447403068929D+03 -.732471843549160D+03
 0.103487217002355D+04 0.148252216207875D+03 -.669579484694542D+02 0.102200700673502D+04
 0.757135259073170D+03 -.388888790421654D+03 0.911510051280476D+02 0.643203547471814D+03
0.116398860006D-01 0.000000000000D+00 0.000000000000D+00 0.112779106479D-03 0.000000000000D+00  6 2 3 25 4 1 21 0 0.37997178D+00 0.11607271D+00 0.45643395D+06 0.45643395D+06 0.45643395D+06 0.10713198D+01  1  2  2  1  6  1        2 0.216767455548D-02 0.100000000000D+01
0.858317860803D-02 0.000000000000D+00 -.447002270946D-04 0.112779106479D-03 0.000000000000D+00  6 2 3 25 4 1 21 2 0.37997178D+00 0.11607271D+00 0.45643395D+06 0.45643395D+06 0.45643395D+06 0.10713198D+01  1  2  3  1  6  1        2 0.183455951428D-02 0.100000000000D+01
-.822384639475D-02 0.000000000000D+00 0.000000000000D+00 0.112779106479D-03 0.000000000000D+00  6 2 3 25 4 1 21 2 0.37997178D+00 0.11607271D+00 0.45643395D+06 0.45643395D+06 0.45643395D+06 0.10713198D+01  1  2 15  1  6  1        2 -.175775622720D-02 0.100000000000D+01
-.281421772824D-03 0.000000000000D+00 0.000000000000D+00 0.112779106479D-03 0.000000000000D+00  6 2 3 25 4 1 21 2 0.37997178D+00 0.11607271D+00 0.45643395D+06 0.45643395D+06 0.45643395D+06 0.10713198D+01  1  2  4  1  6  1        2 -.601507919661D-04 0.100000000000D+01
-.271942851458D-01 0.000000000000D+00 -.642943707832D-02 0.112779106479D-03 0.000000000000D+00  6 2 3 25 4 1 21 2 0.58435826D+00 0.11607271D+00 0.45643395D+06 0.45643395D+06 0.45643395D+06 0.10713198D+01  1  2  5  1  6  1        2 -.766465079465D-03 0.100000000000D+01
0.278907890836D-01 0.000000000000D+00 0.587663166917D-02 0.112779106479D-03 0.000000000000D+00  6 2 3 25 4 1 21 2 0.37997178D+00 0.11607271D+00 0.45643395D+06 0.45643395D+06 0.45643395D+06 0.10713198D+01  1  2  6  1  6  1        2 0.596134774898D-02 0.100000000000D+01
-.112480216179D-02 0.000000000000D+00 -.323102860880D-03 0.112779106479D-03 0.000000000000D+00  6 21 3 25 4 1 -2 2 0.58435826D+00 0.11607271D+00 0.45643395D+06 0.45643395D+06 0.45643395D+06 0.10713198D+01  1  2  5  5  6  1        2 -.745982730055D-06 0.100000000000D+01
  </mgrwgt>
  </event>
  <event>
  5     66 0.17338086E-05 0.16305807E+03 0.75467711E-02 0.95365073E-01
        2 -1    0    0  502    0 0.00000000E+00 0.00000000E+00 0.10304241E+04 0.10304242E+04 0.32000000E+00 0.0000E+00 0.9000E+01
        3 -1    0    0  501    0 0.00000000E+00 0.00000000E+00 -.74626727E+03 0.74626744E+03 0.50000000E+00 0.0000E+00 0.9000E+01
       25  1    1    2    0    0 -.64840833E+02 -.45016545E+03 0.80358961E+02 0.47847239E+03 0.12500000E+03 0.0000E+00 0.9000E+01
        4  1    1    2  501    0 -.24882612E+02 0.16115069E+03 -.50331466E+03 0.52907158E+03 0.15500000E+01 0.0000E+00 0.9000E+01
        1  1    1    2  502    0 0.89723445E+02 0.28901476E+03 0.70711254E+03 0.76914763E+03 0.32000000E+00 0.0000E+00 0.9000E+01
#aMCatNLO 1  0  0  2  2 0.16049161D+03 0.00000000D+00  -5  6  0 0.00000000D+00 0.00000000D+00 0.00000000D+00 0.00000000D+00 0.00000000D+00
  <mgrwgt>
 0.2002147751D-02    4    2    0
 0.876910474734427D+03 0.000000000000000D+00 0.000000000000000D+00 0.876910474734427D+03
 0.876910474734427D+03 0.000000000000000D+00 0.000000000000000D+00 -.876910474734427D+03
 0.471693500162455D+03 -.648425782746802D+02 -.450166891610716D+03 0.386882873053185D+01
 0.617508843135745D+03 -.248820143557085D+02 0.161148437809222D+03 -.595591502377339D+03
 0.664618606170653D+03 0.897245926303886D+02 0.289018453801494D+03 0.591722673646807D+03
 0.000000000000000D+00 0.000000000000000D+00 -.000000000000000D+00 0.000000000000000D+00
 0.124744198742336D+04 0.000000000000000D+00 0.000000000000000D+00 0.124744198742336D+04
 0.121272373794599D+04 0.000000000000000D+00 0.000000000000000D+00 -.121272373794599D+04
 0.420036975853532D+03 -.181817453571456D+03 -.357398246813308D+03 0.386882873053185D+01
 0.694337303513426D+03 -.196966566291658D+03 0.297622621971976D+03 -.595591502377339D+03
 0.740601966361548D+03 -.946085726672732D+02 0.435206580888578D+03 0.591722673646807D+03
 0.605189479640850D+03 0.473392592530387D+03 -.375430956047246D+03 0.347182494773697D+02
0.469806130028D-02 0.000000000000D+00 0.000000000000D+00 0.152625108230D-04 0.000000000000D+00  6 2 3 25 4 1 21 0 0.15852680D+00 0.11481037D+00 0.21966149D+06 0.21966149D+06 0.21966149D+06 0.10947113D+01  1  2  2  2  6  2        3 0.602533491770D-02 0.100000000000D+01
0.566543671418D-03 0.000000000000D+00 -.180417924210D-04 0.152625108230D-04 0.000000000000D+00  6 2 3 25 4 1 21 2 0.15852680D+00 0.11481037D+00 0.21966149D+06 0.21966149D+06 0.21966149D+06 0.10947113D+01  1  2  3  2  6  2        3 0.870753273749D-03 0.100000000000D+01
-.313026745090D-02 0.000000000000D+00 0.000000000000D+00 0.152625108230D-04 0.000000000000D+00  6 2 3 25 4 1 21 2 0.15852680D+00 0.11481037D+00 0.21966149D+06 0.21966149D+06 0.21966149D+06 0.10947113D+01  1  2 15  2  6  2        3 -.481108653770D-02 0.100000000000D+01
-.539077549964D-04 0.000000000000D+00 0.000000000000D+00 0.152625108230D-04 0.000000000000D+00  6 2 3 25 4 1 21 2 0.15852680D+00 0.11481037D+00 0.21966149D+06 0.21966149D+06 0.21966149D+06 0.10947113D+01  1  2  4  2  6  2        3 -.828539025528D-04 0.100000000000D+01
  </mgrwgt>
  </event>
  <event>
  5     66 0.17338086E-05 0.60242693E+02 0.75467711E-02 0.94868254E-01
        2 -1    0    0  502    0 0.00000000E+00 0.00000000E+00 0.21605203E+04 0.21605203E+04 0.32000000E+00 0.0000E+00 0.9000E+01
        3 -1    0    0  501    0 0.00000000E+00 0.00000000E+00 -.15730574E+03 0.15730654E+03 0.50000000E+00 0.0000E+00 0.9000E+01
       25  1    1    2    0    0 -.42602728E+03 0.17897253E+03 0.97365000E+03 0.10849653E+04 0.12500000E+03 0.0000E+00 0.9000E+01
        4  1    1    2  501    0 0.40951393E+03 -.12098339E+03 0.35415880E+03 0.55476977E+03 0.15500000E+01 0.0000E+00 0.9000E+01
        1  1    1    2  502    0 0.16513348E+02 -.57989139E+02 0.67540577E+03 0.67809180E+03 0.32000000E+00 0.0000E+00 0.9000E+01
#aMCatNLO 1  0  0  5  1 0.14003912D+02 0.00000000D+00  -5  6  0 0.00000000D+00 0.00000000D+00 0.00000000D+00 0.00000000D+00 0.00000000D+00
  <mgrwgt>
 0.8682897891D-02    6    2    0
 0.582977876884529D+03 0.000000000000000D+00 0.000000000000000D+00 0.582977876884529D+03
 0.582977876884529D+03 -.000000000000000D+00 -.000000000000000D+00 -.582977876884529D+03
 0.484094919702246D+03 -.426106142574183D+03 0.178967612903993D+03 0.716033523902330D+02
 0.494436616390704D+03 0.409606992760209D+03 -.121028333419725D+03 -.249081957635376D+03
 0.187424217676109D+03 0.164991498139748D+02 -.579392794842685D+02 0.177478605245143D+03
 0.000000000000000D+00 0.000000000000000D+00 0.000000000000000D+00 0.000000000000000D+00
 0.582977876884529D+03 0.000000000000000D+00 0.000000000000000D+00 0.582977876884529D+03
 0.582977876884529D+03 -.000000000000000D+00 -.000000000000000D+00 -.582977876884529D+03
 0.483927394921457D+03 -.425799679669897D+03 0.177891421702434D+03 0.748999227847890D+02
 0.493281365757022D+03 0.409919691049134D+03 -.122126421124884D+03 -.245718314247274D+03
 0.172260317885075D+03 0.290268429566828D+02 -.517278726379291D+02 0.161725961732152D+03
 0.164866752055052D+02 -.131468543359199D+02 -.403712793962075D+01 0.909242973033366D+01
0.100520977021D-02 0.000000000000D+00 0.000000000000D+00 0.150568605492D-05 0.000000000000D+00  6 2 3 25 4 1 21 0 0.33238781D+00 0.24200947D-01 0.23334991D+06 0.23334991D+06 0.23334991D+06 0.10927181D+01  1  2  2  4  6  5        1 0.783333456261D-02 0.100000000000D+01
0.194719178936D-03 0.000000000000D+00 -.386027019543D-05 0.150568605492D-05 0.000000000000D+00  6 2 3 25 4 1 21 2 0.33238781D+00 0.24200947D-01 0.23334991D+06 0.23334991D+06 0.23334991D+06 0.10927181D+01  1  2  3  4  6  5        1 0.181181962893D-02 0.100000000000D+01
-.719431206599D-03 0.000000000000D+00 0.000000000000D+00 0.150568605492D-05 0.000000000000D+00  6 2 3 25 4 1 21 2 0.33238781D+00 0.24200947D-01 0.23334991D+06 0.23334991D+06 0.23334991D+06 0.10927181D+01  1  2 15  4  6  5        1 -.669415097631D-02 0.100000000000D+01
-.174381036187D-03 0.000000000000D+00 0.000000000000D+00 0.150568605492D-05 0.000000000000D+00  6 2 3 25 4 1 21 2 0.33238781D+00 0.24200947D-01 0.23334991D+06 0.23334991D+06 0.23334991D+06 0.10927181D+01  1  2  4  4  6  5        1 -.162257763207D-02 0.100000000000D+01
-.588831596499D-02 0.000000000000D+00 0.000000000000D+00 0.150568605492D-05 0.000000000000D+00  6 2 3 25 4 1 21 2 0.33238781D+00 0.24200947D-01 0.23334991D+06 0.23334991D+06 0.23334991D+06 0.10927181D+01  1  2  5  4  6  5        1 -.547894999610D-01 0.100000000000D+01
0.667871297056D-02 0.000000000000D+00 -.000000000000D+00 0.150568605492D-05 0.000000000000D+00  6 2 3 25 4 1 21 2 0.33238781D+00 0.24200947D-01 0.23334991D+06 0.23334991D+06 0.23334991D+06 0.10927181D+01  1  2  6  4  6  5        1 0.621439722691D-01 0.100000000000D+01
  </mgrwgt>
  </event>
  <event>
  5     66 0.17338086E-05 0.78794353E+02 0.75467711E-02 0.86733122E-01
        2 -1    0    0  502    0 0.00000000E+00 0.00000000E+00 0.12120385E+04 0.12120385E+04 0.32000000E+00 0.0000E+00 0.9000E+01
        3 -1    0    0  501    0 -.00000000E+00 -.00000000E+00 -.20984037E+04 0.20984038E+04 0.50000000E+00 0.0000E+00 0.9000E+01
       25  1    1    2    0    0 -.13045606E+02 0.62008155E+03 -.10171310E+04 0.11978530E+04 0.12500000E+03 0.0000E+00 0.9000E+01
        4  1    1    2  501    0 0.90345190E+02 -.63535628E+03 -.88532140E+03 0.10934515E+04 0.15500000E+01 0.0000E+00 0.9000E+01
        1  1    1    2  502    0 -.77299583E+02 0.15274729E+02 0.10160871E+04 0.10191377E+04 0.32000000E+00 0.0000E+00 0.9000E+01
#aMCatNLO 1  0  0  5  4 0.13917620D+03 0.00000000D+00  -5  6  0 0.00000000D+00 0.00000000D+00 0.00000000D+00 0.00000000D+00 0.00000000D+00
  <mgrwgt>
 0.6764015896D-03    6    2    0
 0.159478718480731D+04 0.000000000000000D+00 0.000000000000000D+00 0.159478718480731D+04
 0.159478718480731D+04 -.000000000000000D+00 -.000000000000000D+00 -.159478718480731D+04
 0.960591151714776D+03 -.130455322135386D+02 0.620081540450341D+03 -.722799459071960D+03
 0.888859774493431D+03 0.903451603168993D+02 -.635356278539006D+03 -.615005569113721D+03
 0.134012344340642D+04 -.772996281033599D+02 0.152747380886654D+02 0.133780502818568D+04
 0.000000000000000D+00 0.000000000000000D+00 0.000000000000000D+00 0.000000000000000D+00
 0.159478718480731D+04 0.000000000000000D+00 0.000000000000000D+00 0.159478718480731D+04
 0.159478718480731D+04 -.000000000000000D+00 -.000000000000000D+00 -.159478718480731D+04
 0.897432252312877D+03 -.180974267270465D+02 0.621079816476225D+03 -.635367603992430D+03
 0.833633238989568D+03 0.856617677474046D+02 -.634430820077941D+03 -.533951283573565D+03
 0.809488777915358D+03 -.186403759560696D+03 -.396751884014800D+03 0.680524549537521D+03
 0.649020100396825D+03 0.118839418540339D+03 0.410102887616515D+03 0.488794338028475D+03
0.507426104181D-01 0.000000000000D+00 0.000000000000D+00 0.348793633597D-04 0.000000000000D+00  6 2 3 25 4 1 21 0 0.18646746D+00 0.32283135D+00 0.45780893D+06 0.45780893D+06 0.45780893D+06 0.10712268D+01  1  2  2  4  6  5        1 0.714690315661D-03 0.100000000000D+01
0.208184152630D-01 0.000000000000D+00 -.194864984842D-03 0.348793633597D-04 0.000000000000D+00  6 2 3 25 4 1 21 2 0.18646746D+00 0.32283135D+00 0.45780893D+06 0.45780893D+06 0.45780893D+06 0.10712268D+01  1  2  3  4  6  5        1 0.336477175202D-03 0.100000000000D+01
-.378497900248D-01 0.000000000000D+00 0.000000000000D+00 0.348793633597D-04 0.000000000000D+00  6 2 3 25 4 1 21 2 0.18646746D+00 0.32283135D+00 0.45780893D+06 0.45780893D+06 0.45780893D+06 0.10712268D+01  1  2 15  4  6  5        1 -.611746392252D-03 0.100000000000D+01
-.168453213935D-02 0.000000000000D+00 0.000000000000D+00 0.348793633597D-04 0.000000000000D+00  6 2 3 25 4 1 21 2 0.18646746D+00 0.32283135D+00 0.45780893D+06 0.45780893D+06 0.45780893D+06 0.10712268D+01  1  2  4  4  6  5        1 -.272262133608D-04 0.100000000000D+01
-.281919250294D-01 0.000000000000D+00 0.000000000000D+00 0.348793633597D-04 0.000000000000D+00  6 2 3 25 4 1 21 2 0.18646746D+00 0.32283135D+00 0.45780893D+06 0.45780893D+06 0.45780893D+06 0.10712268D+01  1  2  5  4  6  5        1 -.455651363352D-03 0.100000000000D+01
0.445388433122D-01 0.000000000000D+00 -.000000000000D+00 0.348793633597D-04 0.000000000000D+00  6 2 3 25 4 1 21 2 0.18646746D+00 0.32283135D+00 0.45780893D+06 0.45780893D+06 0.45780893D+06 0.10712268D+01  1  2  6  4  6  5        1 0.719858067732D-03 0.100000000000D+01
  </mgrwgt>
  </event>
  <event>
  6     66 0.17338086E-05 0.40158244E+02 0.75467711E-02 0.95306503E-01
        2 -1    0    0  503    0 0.00000000E+00 0.00000000E+00 0.30579051E+04 0.30579051E+04 0.32000000E+00 0.0000E+00 0.9000E+01
        3 -1    0    0  501    0 0.00000000E+00 0.00000000E+00 -.10365520E+04 0.10365521E+04 0.50000000E+00 0.0000E+00 0.9000E+01
       25  1    1    2    0    0 -.10724164E+02 0.45490578E+03 0.63920983E+02 0.47619866E+03 0.12500000E+03 0.0000E+00 0.9000E+01
        4  1    1    2  501    0 0.30174388E+02 -.43414011E+02 -.81377508E+03 0.81549222E+03 0.15500000E+01 0.0000E+00 0.9000E+01
        1  1    1    2  502    0 -.36793459E+02 -.37680828E+03 0.24220646E+04 0.24514762E+04 0.32000000E+00 0.0000E+00 0.9000E+01
       21  1    1    2  503  502 0.17343236E+02 -.34683488E+02 0.34914250E+03 0.35129017E+03 0.75000000E+00 0.0000E+00 0.9000E+01
#aMCatNLO 2  0  0  1  5 0.60061631D+01 0.00000000D+00  -5  6  0 0.00000000D+00 0.00000000D+00 0.00000000D+00 0.00000000D+00 0.00000000D+00
  <mgrwgt>
 0.2298726109D-01    1    2    0
 0.167432880149716D+04 0.000000000000000D+00 0.000000000000000D+00 0.167432880149716D+04
 0.167432880149716D+04 0.000000000000000D+00 0.000000000000000D+00 -.167432880149716D+04
 0.495642179550705D+03 -.814095476746134D+01 0.449750323435454D+03 -.166416770714228D+03
 0.131848872184383D+04 0.369976491827336D+02 -.570619134505355D+02 -.131673369426687D+04
 0.153452670159978D+04 -.288566944152723D+02 -.392688409984919D+03 0.148315046498110D+04
 0.000000000000000D+00 0.000000000000000D+00 -.000000000000000D+00 0.000000000000000D+00
 0.189101493530306D+04 0.000000000000000D+00 0.000000000000000D+00 0.189101493530306D+04
 0.167617688056522D+04 0.000000000000000D+00 0.000000000000000D+00 -.167617688056522D+04
 0.500375832288522D+03 -.107201370046524D+02 0.454908244183462D+03 -.166416770714228D+03
 0.131779449202189D+04 0.301710107519168D+02 -.434098110539999D+02 -.131673369426687D+04
 0.153071179877080D+04 -.367941098022805D+02 -.376814944775731D+03 0.148315046498110D+04
 0.218309692787068D+03 0.173432360550161D+02 -.346834883537311D+02 0.214838054737844D+03
0.533380157311D+00 0.000000000000D+00 0.000000000000D+00 0.229426162886D-02 0.496464095041D-04  6 2 3 25 4 1 21 2 0.47044676D+00 0.15946949D+00 0.22190757D+06 0.22190757D+06 0.22190757D+06 0.10943751D+01  1  2  1  1  6  1        2 0.229872610888D-01 0.100000000000D+01
  </mgrwgt>
  </event>
  <event>
  5     66 0.17338086E-05 0.24077042E+02 0.75467711E-02 0.93087729E-01
        2 -1    0    0  502    0 0.00000000E+00 0.00000000E+00 0.22463259E+04 0.22463260E+04 0.32000000E+00 0.0000E+00 0.9000E+01
        3 -1    0    0  501    0 0.00000000E+00 0.00000000E+00 -.41274749E+03 0.41274779E+03 0.50000000E+00 0.0000E+00 0.9000E+01
       25  1    1    2    0    0 0.70933425E+01 -.52916273E+03 0.42092902E+03 0.68765525E+03 0.12500000E+03 0.0000E+00 0.9000E+01
        4  1    1    2  501    0 -.29772748E+02 0.53725241E+03 -.20112010E+02 0.53845470E+03 0.15500000E+01 0.0000E+00 0.9000E+01
        1  1    1    2  502    0 0.22679406E+02 -.80896806E+01 0.14327614E+04 0.14329638E+04 0.32000000E+00 0.0000E+00 0.9000E+01
#aMCatNLO 1  0  0  1  4 0.42514299D+02 0.00000000D+00  -5  6  0 0.00000000D+00 0.00000000D+00 0.00000000D+00 0.00000000D+00 0.00000000D+00
  <mgrwgt>
 0.1790692541D-01    7    2    0
 0.962894500381534D+03 0.000000000000000D+00 0.000000000000000D+00 0.962894500381534D+03
 0.962894500381534D+03 0.000000000000000D+00 0.000000000000000D+00 -.962894500381534D+03
 0.548755180820665D+03 0.709628541716383D+01 -.529203489326316D+03 -.734884895453053D+02
 0.762646978669074D+03 -.297738446048341D+02 0.537292511297732D+03 -.540426396055828D+03
 0.614386841273328D+03 0.226775591876703D+02 -.808902197141526D+01 0.613914885601134D+03
 0.000000000000000D+00 0.000000000000000D+00 -.000000000000000D+00 0.000000000000000D+00
 0.172797320402201D+04 0.000000000000000D+00 0.000000000000000D+00 0.172797320402201D+04
 0.963719906859725D+03 0.000000000000000D+00 0.000000000000000D+00 -.963719906859725D+03
 0.537989653165352D+03 0.262530335867279D+01 -.518073755945619D+03 -.734884895453053D+02
 0.774084355526172D+03 -.360961182509000D+02 0.553030713580805D+03 -.540426396055828D+03
 0.614184214150211D+03 0.176230892011576D+02 0.449320327455495D+01 0.613914885601134D+03
 0.765434888039999D+03 0.158477256910696D+02 -.394501609097417D+02 0.764253297162284D+03
0.114392619191D-03 0.000000000000D+00 0.000000000000D+00 0.730495445892D-04 0.000000000000D+00  6 2 3 25 4 1 21 0 0.34558863D+00 0.63499639D-01 0.30581235D+06 0.30581235D+06 0.30581235D+06 0.10839358D+01  1  2  2  1  6  1        2 0.119124387984D-03 0.100000000000D+01
0.830581845960D-04 0.000000000000D+00 -.439297777962D-06 0.730495445892D-04 0.000000000000D+00  6 2 3 25 4 1 21 2 0.34558863D+00 0.63499639D-01 0.30581235D+06 0.30581235D+06 0.30581235D+06 0.10839358D+01  1  2  3  1  6  1        2 0.101623058683D-03 0.100000000000D+01
-.875062733710D-04 0.000000000000D+00 0.000000000000D+00 0.730495445892D-04 0.000000000000D+00  6 2 3 25 4 1 21 2 0.34558863D+00 0.63499639D-01 0.30581235D+06 0.30581235D+06 0.30581235D+06 0.10839358D+01  1  2 15  1  6  1        2 -.107065368659D-03 0.100000000000D+01
-.153145157282D-02 0.000000000000D+00 0.000000000000D+00 0.730495445892D-04 0.000000000000D+00  6 2 3 25 4 1 21 2 0.34558863D+00 0.63499639D-01 0.30581235D+06 0.30581235D+06 0.30581235D+06 0.10839358D+01  1  2  4  1  6  1        2 -.187375625668D-02 0.100000000000D+01
-.204165948487D-01 0.000000000000D+00 -.566179833791D-04 0.730495445892D-04 0.000000000000D+00  6 2 3 25 4 1 21 2 0.62025232D+00 0.63499639D-01 0.30581235D+06 0.30581235D+06 0.30581235D+06 0.10839358D+01  1  2  5  1  6  1        2 -.161638835679D-02 0.100000000000D+01
0.173968206495D-01 0.000000000000D+00 0.481456717608D-04 0.730495445892D-04 0.000000000000D+00  6 2 3 25 4 1 21 2 0.34558863D+00 0.63499639D-01 0.30581235D+06 0.30581235D+06 0.30581235D+06 0.10839358D+01  1  2  6  1  6  1        2 0.212852969802D-01 0.100000000000D+01
-.130751570610D-02 0.000000000000D+00 -.363422813339D-05 0.730495445892D-04 0.000000000000D+00  6 21 3 25 4 1 -2 2 0.62025232D+00 0.63499639D-01 0.30581235D+06 0.30581235D+06 0.30581235D+06 0.10839358D+01  1  2  5  5  6  1        2 -.190903433351D-05 0.100000000000D+01
  </mgrwgt>
  </event>
  <event>
  5     66 -.17338086E-05 0.18990429E+02 0.75467711E-02 0.95222851E-01
        2 -1    0    0  502    0 0.00000000E+00 0.00000000E+00 0.14675360E+04 0.14675361E+04 0.32000000E+00 0.0000E+00 0.9000E+01
        3 -1    0    0  501    0 0.00000000E+00 0.00000000E+00 -.38770827E+03 0.38770859E+03 0.50000000E+00 0.0000E+00 0.9000E+01
       25  1    1    2    0    0 0.45273362E+03 -.89557993E+02 0.12729349E+03 0.49478985E+03 0.12500000E+03 0.0000E+00 0.9000E+01
        4  1    1    2  501    0 -.44609198E+03 0.71765079E+02 0.46494856E+02 0.45421631E+03 0.15500000E+01 0.0000E+00 0.9000E+01
        1  1    1    2  502    0 -.66416358E+01 0.17792914E+02 0.90603943E+03 0.90623852E+03 0.32000000E+00 0.0000E+00 0.9000E+01
#aMCatNLO 1  0  0  5  1 0.11543591D+03 0.00000000D+00  -5  6  0 0.00000000D+00 0.00000000D+00 0.00000000D+00 0.00000000D+00 0.00000000D+00
  <mgrwgt>
 -.3845254186D-02    1    2    0
 0.754305105542447D+03 0.000000000000000D+00 0.000000000000000D+00 0.754305105542447D+03
 0.754305105542447D+03 -.000000000000000D+00 -.000000000000000D+00 -.754305105542447D+03
 0.517385725137330D+03 0.452767374792330D+03 -.895631904044292D+02 -.197593339523684D+03
 0.525321278909215D+03 -.446126316619432D+03 0.717718236414434D+02 -.267922677326077D+03
 0.465903207038348D+03 -.664105817289812D+01 0.177913667629861D+02 0.465516016849761D+03
 0.000000000000000D+00 0.000000000000000D+00 0.000000000000000D+00 0.000000000000000D+00
 0.754305105542447D+03 0.000000000000000D+00 0.000000000000000D+00 0.754305105542447D+03
 0.754305105542447D+03 -.000000000000000D+00 -.000000000000000D+00 -.754305105542447D+03
 0.511078836648358D+03 0.452535255104655D+03 -.889413427426832D+02 -.181322523996144D+03
 0.517393524048422D+03 -.446361652520532D+03 0.724022875253534D+02 -.251426415969923D+03
 0.865472055073284D+02 -.229516627365561D+02 -.677893804869569D+02 0.486645646435856D+02
 0.393590644880784D+03 0.167780601524324D+02 0.843284357042871D+02 0.384084375322482D+03
-.998288812623D-03 0.000000000000D+00 0.000000000000D+00 0.269355122521D-04 0.000000000000D+00  6 2 3 25 4 1 21 2 0.22577480D+00 0.59647453D-01 0.22516038D+06 0.22516038D+06 0.22516038D+06 0.10938947D+01  1  2 14  4  6  5        1 -.384525418637D-02 0.100000000000D+01
  </mgrwgt>
  </event>
  <event>
  5     66 0.17338086E-05 0.23900080E+03 0.75467711E-02 0.93825894E-01
        2 -1    0    0  502    0 0.00000000E+00 0.00000000E+00 0.35126359E+03 0.35126374E+03 0.32000000E+00 0.0000E+00 0.9000E+01
        3 -1    0    0  501    0 -.00000000E+00 -.00000000E+00 -.16640182E+04 0.16640183E+04 0.50000000E+00 0.0000E+00 0.9000E+01
       25  1    1    2    0    0 0.45115598E+03 0.21512608E+03 -.23749601E+03 0.56731853E+03 0.12500000E+03 0.0000E+00 0.9000E+01
        4  1    1    2  501    0 -.32822648E+03 -.10102290E+02 -.11512132E+04 0.11971337E+04 0.15500000E+01 0.0000E+00 0.9000E+01
        1  1    1    2  502    0 -.12292950E+03 -.20502379E+03 0.75954605E+02 0.25082987E+03 0.32000000E+00 0.0000E+00 0.9000E+01
#aMCatNLO 1  0  0  4  1 0.64487568D+02 0.00000000D+00  -5  6  0 0.00000000D+00 0.00000000D+00 0.00000000D+00 0.00000000D+00 0.00000000D+00
  <mgrwgt>
 0.5428588135D-04    6    2    0
 0.764532045633244D+03 0.000000000000000D+00 0.000000000000000D+00 0.764532045633244D+03
 0.764532045633244D+03 -.000000000000000D+00 -.000000000000000D+00 -.764532045633244D+03
 0.543853085432075D+03 0.451174825291655D+03 0.215091293803980D+03 0.174149909235586D+03
 0.589498420178068D+03 -.328272257786077D+03 -.101124167807427D+02 -.489533912193345D+03
 0.395712585656345D+03 -.122902567505577D+03 -.204978877023237D+03 0.315384002957759D+03
 0.000000000000000D+00 0.000000000000000D+00 -.000000000000000D+00 0.000000000000000D+00
 0.764532045633244D+03 0.000000000000000D+00 0.000000000000000D+00 0.764532045633244D+03
 0.764532045633244D+03 -.000000000000000D+00 -.000000000000000D+00 -.764532045633244D+03
 0.530970444083983D+03 0.441306831320849D+03 0.214787310553931D+03 0.159434326119888D+03
 0.540100082059662D+03 -.255304840409368D+03 0.281417656956698D+02 -.475116383771314D+03
 0.389662809673076D+03 -.130113127614379D+03 -.205200998105093D+03 0.304631301151726D+03
 0.683307554497674D+02 -.558888632971022D+02 -.377280781445076D+02 0.110507564997004D+02
0.518243136837D-03 0.000000000000D+00 0.000000000000D+00 0.477940828013D-06 0.000000000000D+00  6 2 3 25 4 1 21 0 0.54040570D-01 0.25600282D+00 0.29303017D+06 0.29303017D+06 0.29303017D+06 0.10853080D+01  1  2  2  3  6  4        4 0.153333231703D-03 0.100000000000D+01
0.281885621071D-04 0.000000000000D+00 -.199019010201D-05 0.477940828013D-06 0.000000000000D+00  6 2 3 25 4 1 21 2 0.54040570D-01 0.25600282D+00 0.29303017D+06 0.29303017D+06 0.29303017D+06 0.10853080D+01  1  2  3  3  6  4        4 0.982384816878D-05 0.100000000000D+01
-.359591413702D-03 0.000000000000D+00 0.000000000000D+00 0.477940828013D-06 0.000000000000D+00  6 2 3 25 4 1 21 2 0.54040570D-01 0.25600282D+00 0.29303017D+06 0.29303017D+06 0.29303017D+06 0.10853080D+01  1  2 15  3  6  4        4 -.125319320566D-03 0.100000000000D+01
-.137096263495D-03 0.000000000000D+00 0.000000000000D+00 0.477940828013D-06 0.000000000000D+00  6 2 3 25 4 1 21 2 0.54040570D-01 0.25600282D+00 0.29303017D+06 0.29303017D+06 0.29303017D+06 0.10853080D+01  1  2  4  3  6  4        4 -.477787008774D-04 0.100000000000D+01
-.150343865917D-02 0.000000000000D+00 0.000000000000D+00 0.477940828013D-06 0.000000000000D+00  6 2 3 25 4 1 21 2 0.54040570D-01 0.25600282D+00 0.29303017D+06 0.29303017D+06 0.29303017D+06 0.10853080D+01  1  2  5  3  6  4        4 -.523955534255D-03 0.100000000000D+01
0.168773118442D-02 0.000000000000D+00 -.000000000000D+00 0.477940828013D-06 0.000000000000D+00  6 2 3 25 4 1 21 2 0.54040570D-01 0.25600282D+00 0.29303017D+06 0.29303017D+06 0.29303017D+06 0.10853080D+01  1  2  6  3  6  4        4 0.588182357172D-03 0.100000000000D+01
  </mgrwgt>
  </event>
  <event>
  5     66 -.17338086E-05 0.28025050E+02 0.75467711E-02 0.92306665E-01
        2 -1    0    0  502    0 0.00000000E+00 0.00000000E+00 0.11916384E+04 0.11916384E+04 0.32000000E+00 0.0000E+00 0.9000E+01
        3 -1    0    0  501    0 0.00000000E+00 0.00000000E+00 -.13223573E+04 0.13223574E+04 0.50000000E+00 0.0000E+00 0.9000E+01
       25  1    1    2    0    0 -.45473578E+03 0.33967913E+03 0.30175548E+02 0.58198119E+03 0.12500000E+03 0.0000E+00 0.9000E+01
        4  1    1    2  501    0 0.47889369E+03 -.32547024E+03 -.96609478E+03 0.11263266E+04 0.15500000E+01 0.0000E+00 0.9000E+01
        1  1    1    2  502    0 -.24157903E+02 -.14208890E+02 0.80520036E+03 0.80568804E+03 0.32000000E+00 0.0000E+00 0.9000E+01
#aMCatNLO 1  0  0  2  2 0.56482529D+02 0.00000000D+00  -5  6  0 0.00000000D+00 0.00000000D+00 0.00000000D+00 0.00000000D+00 0.00000000D+00
  <mgrwgt>
 -.4614791370D-02    7    2    0
 0.125529752817000D+04 0.000000000000000D+00 0.000000000000000D+00 0.125529752817000D+04
 0.125529752817000D+04 0.000000000000000D+00 0.000000000000000D+00 -.125529752817000D+04
 0.584381259448201D+03 -.454767351499157D+03 0.339699566809553D+03 0.605583744341722D+02
 0.107756063170689D+04 0.478923818753145D+03 -.325491521835552D+03 -.908748678155092D+03
 0.848653165184908D+03 -.241564672539886D+02 -.142080449740008D+02 0.848190303720920D+03
 0.000000000000000D+00 -.000000000000000D+00 -.000000000000000D+00 -.000000000000000D+00
 0.125986750685587D+04 0.000000000000000D+00 0.000000000000000D+00 0.125986750685587D+04
 0.144317530347984D+04 0.000000000000000D+00 0.000000000000000D+00 -.144317530347984D+04
 0.588439945849144D+03 -.450488816784348D+03 0.352177624373088D+03 0.605583744341722D+02
 0.107440112219734D+04 0.486774327447422D+03 -.302596043378599D+03 -.908748678155092D+03
 0.848389270446969D+03 -.179655364108569D+02 0.384738675244704D+01 0.848190303720920D+03
 0.191812471842266D+03 -.183199742522173D+02 -.534289677469359D+02 -.183307796623971D+03
0.182408631135D-02 0.000000000000D+00 0.000000000000D+00 0.248554310632D-03 0.000000000000D+00  6 2 3 25 4 1 21 0 0.18332900D+00 0.20343959D+00 0.35302731D+06 0.35302731D+06 0.35302731D+06 0.10793606D+01  1  2  2  2  6  2        3 0.320924243798D-03 0.100000000000D+01
0.131183727844D-02 0.000000000000D+00 -.700497172853D-05 0.248554310632D-03 0.000000000000D+00  6 2 3 25 4 1 21 2 0.18332900D+00 0.20343959D+00 0.35302731D+06 0.35302731D+06 0.35302731D+06 0.10793606D+01  1  2  3  2  6  2        3 0.268887239439D-03 0.100000000000D+01
-.143393827650D-02 0.000000000000D+00 0.000000000000D+00 0.248554310632D-03 0.000000000000D+00  6 2 3 25 4 1 21 2 0.18332900D+00 0.20343959D+00 0.35302731D+06 0.35302731D+06 0.35302731D+06 0.10793606D+01  1  2 15  2  6  2        3 -.293914276587D-03 0.100000000000D+01
-.381824687970D-01 0.000000000000D+00 0.000000000000D+00 0.248554310632D-03 0.000000000000D+00  6 2 3 25 4 1 21 2 0.18332900D+00 0.20343959D+00 0.35302731D+06 0.35302731D+06 0.35302731D+06 0.10793606D+01  1  2  4  2  6  2        3 -.782625924609D-02 0.100000000000D+01
-.516684028920D-01 0.000000000000D+00 -.240624674896D-02 0.248554310632D-03 0.000000000000D+00  6 2 3 25 4 1 21 2 0.18332900D+00 0.23420173D+00 0.35302731D+06 0.35302731D+06 0.35302731D+06 0.10793606D+01  1  2  5  2  6  2        3 -.590117983454D-02 0.100000000000D+01
0.515192764473D-01 0.000000000000D+00 0.238258613362D-02 0.248554310632D-03 0.000000000000D+00  6 2 3 25 4 1 21 2 0.18332900D+00 0.20343959D+00 0.35302731D+06 0.35302731D+06 0.35302731D+06 0.10793606D+01  1  2  6  2  6  2        3 0.105599042270D-01 0.100000000000D+01
-.110459947188D-02 0.000000000000D+00 -.521362482394D-04 0.248554310632D-03 0.000000000000D+00  6 2 21 25 4 1 -3 2 0.18332900D+00 0.23420173D+00 0.35302731D+06 0.35302731D+06 0.35302731D+06 0.10793606D+01  1  2  5  6  6  2        3 -.174315372282D-02 0.100000000000D+01
  </mgrwgt>
  </event>
  <event>
  6     66 0.17338086E-05 0.90031271E+02 0.75467711E-02 0.93013978E-01
        2 -1    0    0  502    0 0.00000000E+00 0.00000000E+00 0.18264770E+04 0.18264770E+04 0.32000000E+00 0.0000E+00 0.9000E+01
       21 -1    0    0  501  503 0.00000000E+00 0.00000000E+00 -.20494492E+04 0.20494493E+04 0.75000000E+00 0.0000E+00 0.9000E+01
       25  1    1    2    0    0 0.24292301E+03 -.50196127E+03 -.49520161E+03 0.75619200E+03 0.12500000E+03 0.0000E+00 0.9000E+01
        4  1    1    2  501    0 -.97794071E+02 0.55943217E+02 -.19534356E+03 0.22551016E+03 0.15500000E+01 0.0000E+00 0.9000E+01
        1  1    1    2  502    0 -.14543708E+03 0.40093656E+03 0.16534090E+04 0.17075314E+04 0.32000000E+00 0.0000E+00 0.9000E+01
       -3  1    1    2    0  503 0.30813942E+00 0.45081501E+02 -.11858361E+04 0.11866928E+04 0.50000000E+00 0.0000E+00 0.9000E+01
#aMCatNLO 2  0  0  2  4 0.45082554D+02 0.00000000D+00  -5  6  0 0.00000000D+00 0.00000000D+00 0.00000000D+00 0.00000000D+00 0.00000000D+00
  <mgrwgt>
 0.1954124914D-03    2    2    0
 0.125527268107627D+04 0.000000000000000D+00 0.000000000000000D+00 0.125527268107627D+04
 0.125527268107627D+04 0.000000000000000D+00 0.000000000000000D+00 -.125527268107627D+04
 0.991229703316120D+03 0.242980771716812D+03 -.484044957922319D+03 -.820714413192584D+03
 0.317135381841171D+03 -.976833071984894D+02 0.615683593267134D+02 -.295367836840993D+03
 0.120218027699525D+04 -.145297464518323D+03 0.422476598595606D+03 0.111608225003358D+04
 0.000000000000000D+00 0.000000000000000D+00 0.000000000000000D+00 -.000000000000000D+00
 0.125576954520208D+04 0.000000000000000D+00 0.000000000000000D+00 0.125576954520208D+04
 0.298085902585268D+04 0.000000000000000D+00 0.000000000000000D+00 -.298085902585268D+04
 0.100005161068841D+04 0.242858578584688D+03 -.501922092387112D+03 -.820714413192584D+03
 0.316092925366789D+03 -.977221646666248D+02 0.558834229416559D+02 -.295367836840993D+03
 0.119480557337992D+04 -.145444553333275D+03 0.400957168841511D+03 0.111608225003358D+04
 0.172567846161965D+04 0.308139415212307D+00 0.450815006039449D+02 -.172508948065060D+04
-.127174585066D-02 0.000000000000D+00 0.000000000000D+00 0.573754304011D-05 0.000000000000D+00  6 2 21 25 4 1 -3 2 0.28088529D+00 0.31945850D+00 0.33385618D+06 0.33385618D+06 0.33385618D+06 0.10811328D+01  1  2 13  6  6  2        3 -.240192349645D-03 0.100000000000D+01
0.216707710308D-02 0.000000000000D+00 0.000000000000D+00 0.573754304011D-05 0.394070669825D-08  6 2 21 25 4 1 -3 2 0.28099647D+00 0.31529988D+00 0.33385618D+06 0.33385618D+06 0.33385618D+06 0.10811328D+01  1  2  1  6  6  2        3 0.435604841025D-03 0.100000000000D+01
  </mgrwgt>
  </event>
  <event>
  6     66 0.17338086E-05 0.10197540E+03 0.75467711E-02 0.94055762E-01
        2 -1    0    0  502    0 0.00000000E+00 0.00000000E+00 0.25969086E+04 0.25969086E+04 0.32000000E+00 0.0000E+00 0.9000E+01
        3 -1    0    0  501    0 0.00000000E+00 0.00000000E+00 -.27437196E+03 0.27437242E+03 0.50000000E+00 0.0000E+00 0.9000E+01
       25  1    1    2    0    0 -.49730677E+03 -.14140678E+03 0.66353107E+03 0.85041660E+03 0.12500000E+03 0.0000E+00 0.9000E+01
        4  1    1    2  501    0 0.16700137E+02 0.99140284E+01 -.14308943E+03 0.14440973E+03 0.15500000E+01 0.0000E+00 0.9000E+01
        1  1    1    2  503    0 0.32552871E+03 0.65349391E+02 0.14285158E+04 0.14665937E+04 0.32000000E+00 0.0000E+00 0.9000E+01
       21  1    1    2  502  503 0.15507792E+03 0.66143364E+02 0.37357915E+03 0.40986101E+03 0.75000000E+00 0.0000E+00 0.9000E+01
#aMCatNLO 2  0  0  5  2 0.30389266D+03 0.00000000D+00  -5  6  0 0.00000000D+00 0.00000000D+00 0.00000000D+00 0.00000000D+00 0.00000000D+00
  <mgrwgt>
 0.1742081139D-02    1    2    0
 0.844108752136738D+03 0.000000000000000D+00 0.000000000000000D+00 0.844108752136738D+03
 0.844108752136738D+03 -.000000000000000D+00 -.000000000000000D+00 -.844108752136738D+03
 0.537774226590655D+03 -.501228167293892D+03 -.142481230591627D+03 -.452276688043769D+02
 0.445771390149221D+03 0.134189399980419D+02 0.901786498919179D+01 -.445478105450689D+03
 0.704671887533600D+03 0.487809227295850D+03 0.133463365602436D+03 0.490705774255066D+03
 0.000000000000000D+00 0.000000000000000D+00 0.000000000000000D+00 0.000000000000000D+00
 0.844108752136738D+03 0.000000000000000D+00 0.000000000000000D+00 0.844108752136738D+03
 0.844108752136738D+03 -.000000000000000D+00 -.000000000000000D+00 -.844108752136738D+03
 0.533466192118748D+03 -.497260490344560D+03 -.141395684255785D+03 -.412364323117656D+02
 0.442594968282257D+03 0.167092851543204D+02 0.991809506680830D+01 -.442168222658130D+03
 0.528882000824033D+03 0.325360355610839D+03 0.652915314426522D+02 0.411817709325734D+03
 0.183274343048437D+03 0.155190849579401D+03 0.661860577463246D+02 0.715869456441615D+02
0.967275536300D-03 0.000000000000D+00 0.000000000000D+00 0.573290048574D-04 0.193425637293D-07  6 2 3 25 4 1 21 2 0.39952443D+00 0.42211108D-01 0.27660403D+06 0.27660403D+06 0.27660403D+06 0.10871704D+01  1  2  1  4  6  5        1 0.174208113866D-02 0.100000000000D+01
  </mgrwgt>
  </event>
  <event>
  5     66 -.17338086E-05 0.11140357E+03 0.75467711E-02 0.91101391E-01
        2 -1    0    0  502    0 0.00000000E+00 0.00000000E+00 0.17129757E+04 0.17129757E+04 0.32000000E+00 0.0000E+00 0.9000E+01
        3 -1    0    0  501    0 0.00000000E+00 0.00000000E+00 -.53290394E+03 0.53290418E+03 0.50000000E+00 0.0000E+00 0.9000E+01
       25  1    1    2    0    0 -.63128661E+03 0.13627440E+03 0.73445961E+03 0.98597637E+03 0.12500000E+03 0.0000E+00 0.9000E+01
        4  1    1    2  501    0 0.61197663E+03 -.26505201E+02 -.16886355E+03 0.63540162E+03 0.15500000E+01 0.0000E+00 0.9000E+01
        1  1    1    2  502    0 0.19309979E+02 -.10976920E+03 0.61447570E+03 0.62450191E+03 0.32000000E+00 0.0000E+00 0.9000E+01
#aMCatNLO 1  0  0  5  1 0.18781650D+02 0.00000000D+00  -5  6  0 0.00000000D+00 0.00000000D+00 0.00000000D+00 0.00000000D+00 0.00000000D+00
  <mgrwgt>
 -.1990568583D-02    7    2    0
 0.955432782363368D+03 0.000000000000000D+00 0.000000000000000D+00 0.955432782363368D+03
 0.955432782363368D+03 -.000000000000000D+00 -.000000000000000D+00 -.955432782363368D+03
 0.705379660078351D+03 -.631364891551620D+03 0.136241731481522D+03 0.254464200175936D+03
 0.851133525651373D+03 0.612063773594031D+03 -.265229001599664D+02 -.590849178139968D+03
 0.354352378997013D+03 0.193011179575887D+02 -.109718831321555D+03 0.336384977964032D+03
 0.000000000000000D+00 0.000000000000000D+00 0.000000000000000D+00 0.000000000000000D+00
 0.955432782363368D+03 0.000000000000000D+00 0.000000000000000D+00 0.955432782363368D+03
 0.955432782363368D+03 -.000000000000000D+00 -.000000000000000D+00 -.955432782363368D+03
 0.705586258375514D+03 -.631316901402422D+03 0.135968927434807D+03 0.255300585162335D+03
 0.850485599711617D+03 0.612121649517635D+03 -.268519007242569D+02 -.589840501268040D+03
 0.248628417048376D+03 0.167422638993932D+02 -.942961561854544D+02 0.229442849729846D+03
 0.106165289591230D+03 0.245298798539358D+01 -.148208705250959D+02 0.105097066375858D+03
0.584306327822D-04 0.000000000000D+00 0.000000000000D+00 0.105425586417D-05 0.000000000000D+00  6 2 3 25 4 1 21 0 0.26353474D+00 0.81985242D-01 0.47742815D+06 0.47742815D+06 0.47742815D+06 0.10699312D+01  1  2  2  4  6  5        1 0.666273782728D-04 0.100000000000D+01
0.932592220147D-05 0.000000000000D+00 -.224389015022D-06 0.105425586417D-05 0.000000000000D+00  6 2 3 25 4 1 21 2 0.26353474D+00 0.81985242D-01 0.47742815D+06 0.47742815D+06 0.47742815D+06 0.10699312D+01  1  2  3  4  6  5        1 0.121735038379D-04 0.100000000000D+01
-.392597573557D-04 0.000000000000D+00 0.000000000000D+00 0.105425586417D-05 0.000000000000D+00  6 2 3 25 4 1 21 2 0.26353474D+00 0.81985242D-01 0.47742815D+06 0.47742815D+06 0.47742815D+06 0.10699312D+01  1  2 15  4  6  5        1 -.512473508272D-04 0.100000000000D+01
0.128282778709D-02 0.000000000000D+00 0.000000000000D+00 0.105425586417D-05 0.000000000000D+00  6 2 3 25 4 1 21 2 0.26353474D+00 0.81985242D-01 0.47698569D+06 0.47698569D+06 0.47698569D+06 0.10699597D+01  1  2 12  4  6  5        1 0.167469315463D-02 0.100000000000D+01
-.347097616737D-02 0.000000000000D+00 0.000000000000D+00 0.105425586417D-05 0.000000000000D+00  6 2 3 25 4 1 21 2 0.26353474D+00 0.81985242D-01 0.47742815D+06 0.47742815D+06 0.47742815D+06 0.10699312D+01  1  2  4  4  6  5        1 -.453080572431D-02 0.100000000000D+01
-.138993643018D-02 0.000000000000D+00 0.000000000000D+00 0.105425586417D-05 0.000000000000D+00  6 2 3 25 4 1 21 2 0.26353474D+00 0.81985242D-01 0.47742815D+06 0.47742815D+06 0.47742815D+06 0.10699312D+01  1  2  5  4  6  5        1 -.181434029813D-02 0.100000000000D+01
0.203190721305D-02 0.000000000000D+00 -.000000000000D+00 0.105425586417D-05 0.000000000000D+00  6 2 3 25 4 1 21 2 0.26353474D+00 0.81985242D-01 0.47742815D+06 0.47742815D+06 0.47742815D+06 0.10699312D+01  1  2  6  4  6  5        1 0.265233075315D-02 0.100000000000D+01
  </mgrwgt>
  </event>
  <event>
  5     66 0.17338086E-05 0.14770516E+03 0.75467711E-02 0.91910764E-01
        2 -1    0    0  502    0 0.00000000E+00 0.00000000E+00 0.34276940E+04 0.34276940E+04 0.32000000E+00 0.0000E+00 0.9000E+01
        3 -1    0    0  501    0 0.00000000E+00 0.00000000E+00 -.51393651E+03 0.51393676E+03 0.50000000E+00 0.0000E+00 0.9000E+01
       25  1    1    2    0    0 0.40327827E+03 -.47386986E+03 0.11309825E+04 0.12968934E+04 0.12500000E+03 0.0000E+00 0.9000E+01
        4  1    1    2  501    0 -.36955440E+03 0.33005115E+03 -.28505895E+03 0.57163382E+03 0.15500000E+01 0.0000E+00 0.9000E+01
        1  1    1    2  502    0 -.33723871E+02 0.14381871E+03 0.20678339E+04 0.20731035E+04 0.32000000E+00 0.0000E+00 0.9000E+01
#aMCatNLO 1  0  0  4  2 0.18768370D+01 0.00000000D+00  -5  6  0 0.00000000D+00 0.00000000D+00 0.00000000D+00 0.00000000D+00 0.00000000D+00
  <mgrwgt>
 0.1420106730D-03    5    2    0
 0.132725942966176D+04 0.000000000000000D+00 0.000000000000000D+00 0.132725942966176D+04
 0.132725942966176D+04 -.000000000000000D+00 -.000000000000000D+00 -.132725942966176D+04
 0.684349424981958D+03 0.403304678118207D+03 -.473884435970916D+03 0.255906259059119D+03
 0.116172527990800D+04 -.369584134538785D+03 0.330079914922525D+03 -.105074280546634D+04
 0.808444154433564D+03 -.337205435794218D+02 0.143804521048391D+03 0.794836546407216D+03
 0.000000000000000D+00 0.000000000000000D+00 0.000000000000000D+00 0.000000000000000D+00
 0.132725942966176D+04 0.000000000000000D+00 0.000000000000000D+00 0.132725942966176D+04
 0.132725942966176D+04 -.000000000000000D+00 -.000000000000000D+00 -.132725942966176D+04
 0.683254004352149D+03 0.402821950282186D+03 -.473453306092347D+03 0.254533844084297D+03
 0.116105889431688D+04 -.370535782666329D+03 0.328418907137445D+03 -.105019141649074D+04
 0.806965349278413D+03 -.342907404049700D+02 0.144313770504948D+03 0.793215453518875D+03
 0.324061137607683D+01 0.200457278911367D+01 0.720628449954281D+00 0.244211888756876D+01
0.332885338999D-02 0.000000000000D+00 0.000000000000D+00 0.184606334446D-04 0.000000000000D+00  6 2 3 25 4 1 21 0 0.52733755D+00 0.79067176D-01 0.40827750D+06 0.40827750D+06 0.40827750D+06 0.10747869D+01  1  2  2  3  6  4        4 0.389368560681D-03 0.100000000000D+01
0.569280079663D-03 0.000000000000D+00 -.127836735248D-04 0.184606334446D-04 0.000000000000D+00  6 2 3 25 4 1 21 2 0.52733755D+00 0.79067176D-01 0.40827750D+06 0.40827750D+06 0.40827750D+06 0.10747869D+01  1  2  3  3  6  4        4 0.769195908769D-04 0.100000000000D+01
-.231057112462D-02 0.000000000000D+00 0.000000000000D+00 0.184606334446D-04 0.000000000000D+00  6 2 3 25 4 1 21 2 0.52733755D+00 0.79067176D-01 0.40827750D+06 0.40827750D+06 0.40827750D+06 0.10747869D+01  1  2 15  3  6  4        4 -.312198146302D-03 0.100000000000D+01
-.205933763923D-02 0.000000000000D+00 0.000000000000D+00 0.184606334446D-04 0.000000000000D+00  6 2 3 25 4 1 21 2 0.52733755D+00 0.79067176D-01 0.40827750D+06 0.40827750D+06 0.40827750D+06 0.10747869D+01  1  2  4  3  6  4        4 -.278252154512D-03 0.100000000000D+01
0.197070371372D-02 0.000000000000D+00 0.000000000000D+00 0.184606334446D-04 0.159618942831D-05  6 2 3 25 4 1 21 2 0.52733755D+00 0.79067176D-01 0.40938690D+06 0.40938690D+06 0.40938690D+06 0.10747022D+01  1  2 11  3  6  4        4 0.266172822251D-03 0.100000000000D+01
  </mgrwgt>
  </event>
  <event>
  5     66 0.17338086E-05 0.84177920E+02 0.75467711E-02 0.93011283E-01
        2 -1    0    0  502    0 0.00000000E+00 0.00000000E+00 0.49186998E+04 0.49186998E+04 0.32000000E+00 0.0000E+00 0.9000E+01
        3 -1    0    0  501    0 0.00000000E+00 0.00000000E+00 -.94849646E+03 0.94849659E+03 0.50000000E+00 0.0000E+00 0.9000E+01
       25  1    1    2    0    0 0.19556803E+03 0.45239991E+03 0.21767421E+03 0.55309999E+03 0.12500000E+03 0.0000E+00 0.9000E+01
        4  1    1    2  501    0 0.36015359E+02 -.76090510E+02 -.76770955E+03 0.77231291E+03 0.15500000E+01 0.0000E+00 0.9000E+01
        1  1    1    2  502    0 -.23158339E+03 -.37630940E+03 0.45202387E+04 0.45417835E+04 0.32000000E+00 0.0000E+00 0.9000E+01
#aMCatNLO 1  0  0  2  1 0.76385847D+02 0.00000000D+00  -5  6  0 0.00000000D+00 0.00000000D+00 0.00000000D+00 0.00000000D+00 0.00000000D+00
  <mgrwgt>
 0.2505703638D-02    4    2    0
 0.215994670282100D+04 0.000000000000000D+00 0.000000000000000D+00 0.215994670282100D+04
 0.215994670282100D+04 0.000000000000000D+00 0.000000000000000D+00 -.215994670282100D+04
 0.551183031446044D+03 0.195573318029514D+03 0.452398926078104D+03 -.212753432668794D+03
 0.175445722559755D+04 0.360124612175920D+02 -.760856418598937D+02 -.175243665625645D+04
 0.201425314859840D+04 -.231585779247106D+03 -.376313284218210D+03 0.196519008892524D+04
 0.000000000000000D+00 0.000000000000000D+00 0.000000000000000D+00 0.000000000000000D+00
 0.226261914405050D+04 0.000000000000000D+00 0.000000000000000D+00 0.226261914405050D+04
 0.217453853442135D+04 0.000000000000000D+00 0.000000000000000D+00 -.217453853442135D+04
 0.542766076025993D+03 0.189883616499739D+03 0.444578679602699D+03 -.212753432668794D+03
 0.175544474997622D+04 0.177572293211721D+02 -.101176661511554D+03 -.175243665625645D+04
 0.202235786732663D+04 -.252580459635383D+03 -.405169556282653D+03 0.196519008892524D+04
 0.116588985143010D+03 0.449396138144726D+02 0.617675381915073D+02 0.880806096291556D+02
0.444368186538D+01 0.000000000000D+00 0.000000000000D+00 0.296094746533D-02 0.000000000000D+00  6 2 3 25 4 1 21 0 0.75672306D+00 0.14592254D+00 0.26755211D+06 0.26755211D+06 0.26755211D+06 0.10882491D+01  1  2  2  2  6  2        3 0.523661572376D-02 0.100000000000D+01
0.146296725393D+01 0.000000000000D+00 -.170649084114D-01 0.296094746533D-02 0.000000000000D+00  6 2 3 25 4 1 21 2 0.75672306D+00 0.14592254D+00 0.26755211D+06 0.26755211D+06 0.26755211D+06 0.10882491D+01  1  2  3  2  6  2        3 0.204173322804D-02 0.100000000000D+01
-.339443136950D+01 0.000000000000D+00 0.000000000000D+00 0.296094746533D-02 0.000000000000D+00  6 2 3 25 4 1 21 2 0.75672306D+00 0.14592254D+00 0.26755211D+06 0.26755211D+06 0.26755211D+06 0.10882491D+01  1  2 15  2  6  2        3 -.473730584110D-02 0.100000000000D+01
-.253218638011D-01 0.000000000000D+00 0.000000000000D+00 0.296094746533D-02 0.000000000000D+00  6 2 3 25 4 1 21 2 0.75672306D+00 0.14592254D+00 0.26755211D+06 0.26755211D+06 0.26755211D+06 0.10882491D+01  1  2  4  2  6  2        3 -.353394722812D-04 0.100000000000D+01
  </mgrwgt>
  </event>
  <event>
  5     66 0.17338086E-05 0.12410552E+02 0.75467711E-02 0.94811717E-01
        2 -1    0    0  502    0 0.00000000E+00 0.00000000E+00 0.36727780E+04 0.36727781E+04 0.32000000E+00 0.0000E+00 0.9000E+01
        3 -1    0    0  501    0 0.00000000E+00 0.00000000E+00 -.41655988E+03 0.41656018E+03 0.50000000E+00 0.0000E+00 0.9000E+01
       25  1    1    2    0    0 -.27070469E+03 -.39597457E+03 0.23037914E+04 0.23565137E+04 0.12500000E+03 0.0000E+00 0.9000E+01
        4  1    1    2  501    0 0.27793959E+03 0.38588384E+03 -.24525482E+03 0.53507858E+03 0.15500000E+01 0.0000E+00 0.9000E+01
        1  1    1    2  502    0 -.72349014E+01 0.10090729E+02 0.11976816E+04 0.11977460E+04 0.32000000E+00 0.0000E+00 0.9000E+01
#aMCatNLO 1  0  0  4  2 0.11796978D+02 0.00000000D+00  -5  6  0 0.00000000D+00 0.00000000D+00 0.00000000D+00 0.00000000D+00 0.00000000D+00
  <mgrwgt>
 0.1859356279D-02    4    2    0
 0.123690445429600D+04 0.000000000000000D+00 0.000000000000000D+00 0.123690445429600D+04
 0.123690445429600D+04 -.000000000000000D+00 -.000000000000000D+00 -.123690445429600D+04
 0.863192151182912D+03 -.270739854253709D+03 -.396014641134437D+03 0.706645614993560D+03
 0.120734923917637D+04 0.277971357014062D+03 0.385928652500219D+03 -.110972212071261D+04
 0.403267518232723D+03 -.723150276035332D+01 0.100859886342179D+02 0.403076505719048D+03
 0.000000000000000D+00 0.000000000000000D+00 0.000000000000000D+00 -.000000000000000D+00
 0.123690445429600D+04 0.000000000000000D+00 0.000000000000000D+00 0.123690445429600D+04
 0.123690445429600D+04 -.000000000000000D+00 -.000000000000000D+00 -.123690445429600D+04
 0.788923314862025D+03 -.253085653653058D+03 -.371503979597344D+03 0.636166206105940D+03
 0.356337510837545D+03 0.295271318174879D+03 0.189293332542963D+03 -.629230049182828D+02
 0.370688909976883D+03 0.103885262375662D+01 0.215683483398116D+02 0.370059448082288D+03
 0.957859172915553D+03 -.432245171455783D+02 0.160642298714569D+03 -.943302649269946D+03
0.178225273505D-01 0.000000000000D+00 0.000000000000D+00 0.483758017112D-03 0.000000000000D+00  6 2 3 25 4 1 21 0 0.56504280D+00 0.64086160D-01 0.24194562D+06 0.24194562D+06 0.24194562D+06 0.10915307D+01  1  2  2  3  6  4        4 0.230056007381D-02 0.100000000000D+01
0.124267647275D-01 0.000000000000D+00 -.684431978053D-04 0.483758017112D-03 0.000000000000D+00  6 2 3 25 4 1 21 2 0.56504280D+00 0.64086160D-01 0.24194562D+06 0.24194562D+06 0.24194562D+06 0.10915307D+01  1  2  3  3  6  4        4 0.191114764841D-02 0.100000000000D+01
-.108173372680D-01 0.000000000000D+00 0.000000000000D+00 0.483758017112D-03 0.000000000000D+00  6 2 3 25 4 1 21 2 0.56504280D+00 0.64086160D-01 0.24194562D+06 0.24194562D+06 0.24194562D+06 0.10915307D+01  1  2 15  3  6  4        4 -.166362920159D-02 0.100000000000D+01
-.447824596932D-02 0.000000000000D+00 0.000000000000D+00 0.483758017112D-03 0.000000000000D+00  6 2 3 25 4 1 21 2 0.56504280D+00 0.64086160D-01 0.24194562D+06 0.24194562D+06 0.24194562D+06 0.10915307D+01  1  2  5  3  6  4        4 -.688722241143D-03 0.100000000000D+01
  </mgrwgt>
  </event>
  <event>
  5     66 0.17338086E-05 0.17987168E+02 0.75467711E-02 0.92576246E-01
        2 -1    0    0  502    0 0.00000000E+00 0.00000000E+00 0.28392605E+04 0.28392606E+04 0.32000000E+00 0.0000E+00 0.9000E+01
        3 -1    0    0  501    0 0.00000000E+00 0.00000000E+00 -.44016382E+03 0.44016411E+03 0.50000000E+00 0.0000E+00 0.9000E+01
       25  1    1    2    0    0 0.52920741E+03 -.14173183E+03 0.42256358E+03 0.70308845E+03 0.12500000E+03 0.0000E+00 0.9000E+01
        4  1    1    2  501    0 -.54021092E+03 0.15596158E+03 -.36277626E+02 0.56344504E+03 0.15500000E+01 0.0000E+00 0.9000E+01
        1  1    1    2  502    0 0.11003508E+02 -.14229750E+02 0.20128108E+04 0.20128912E+04 0.32000000E+00 0.0000E+00 0.9000E+01
#aMCatNLO 1  0  0  5  1 0.11981834D+03 0.00000000D+00  -5  6  0 0.00000000D+00 0.00000000D+00 0.00000000D+00 0.00000000D+00 0.00000000D+00
  <mgrwgt>
 0.8127810701D-02    6    2    0
 0.111791782596161D+04 0.000000000000000D+00 0.000000000000000D+00 0.111791782596161D+04
 0.111791782596161D+04 -.000000000000000D+00 -.000000000000000D+00 -.111791782596161D+04
 0.577861542734144D+03 0.529234214819876D+03 -.141739678159239D+03 -.134610445621389D+03
 0.865371468887153D+03 -.540237301411894D+03 0.155968883356354D+03 -.657788069785152D+03
 0.792602640301926D+03 0.110030865920175D+02 -.142292051971156D+02 0.792398515406541D+03
 0.000000000000000D+00 0.000000000000000D+00 -.000000000000000D+00 0.000000000000000D+00
 0.111791782596161D+04 0.000000000000000D+00 0.000000000000000D+00 0.111791782596161D+04
 0.111791782596161D+04 -.000000000000000D+00 -.000000000000000D+00 -.111791782596161D+04
 0.577643498612263D+03 0.529248298107926D+03 -.141757890684772D+03 -.133596223253071D+03
 0.864199994919770D+03 -.540216221405962D+03 0.155941622666596D+03 -.656269971634620D+03
 0.272624291571993D+03 0.234582385721314D+02 0.269457797917500D+02 0.270273269765322D+03
 0.521367866819196D+03 -.124903152740952D+02 -.411295117735743D+02 0.519592925122369D+03
0.168104035587D-02 0.000000000000D+00 0.000000000000D+00 0.143701207072D-03 0.000000000000D+00  6 2 3 25 4 1 21 0 0.43680934D+00 0.67717534D-01 0.32618535D+06 0.32618535D+06 0.32618535D+06 0.10818732D+01  1  2  2  4  6  5        1 0.683490230344D-03 0.100000000000D+01
0.156044289721D-02 0.000000000000D+00 -.645563759462D-05 0.143701207072D-03 0.000000000000D+00  6 2 3 25 4 1 21 2 0.43680934D+00 0.67717534D-01 0.32618535D+06 0.32618535D+06 0.32618535D+06 0.10818732D+01  1  2  3  4  6  5        1 0.742599763247D-03 0.100000000000D+01
-.139748992842D-02 0.000000000000D+00 0.000000000000D+00 0.143701207072D-03 0.000000000000D+00  6 2 3 25 4 1 21 2 0.43680934D+00 0.67717534D-01 0.32618535D+06 0.32618535D+06 0.32618535D+06 0.10818732D+01  1  2 15  4  6  5        1 -.665052013013D-03 0.100000000000D+01
-.289383536197D-03 0.000000000000D+00 0.000000000000D+00 0.143701207072D-03 0.000000000000D+00  6 2 3 25 4 1 21 2 0.43680934D+00 0.67717534D-01 0.32618535D+06 0.32618535D+06 0.32618535D+06 0.10818732D+01  1  2  4  4  6  5        1 -.137714840992D-03 0.100000000000D+01
-.199526262695D-01 0.000000000000D+00 0.000000000000D+00 0.143701207072D-03 0.000000000000D+00  6 2 3 25 4 1 21 2 0.43680934D+00 0.67717534D-01 0.32618535D+06 0.32618535D+06 0.32618535D+06 0.10818732D+01  1  2  5  4  6  5        1 -.949526289641D-02 0.100000000000D+01
0.357219880334D-01 0.000000000000D+00 -.000000000000D+00 0.143701207072D-03 0.000000000000D+00  6 2 3 25 4 1 21 2 0.43680934D+00 0.67717534D-01 0.32618535D+06 0.32618535D+06 0.32618535D+06 0.10818732D+01  1  2  6  4  6  5        1 0.169997504578D-01 0.100000000000D+01
  </mgrwgt>
  </event>
  <event>
  5     66 0.17338086E-05 0.61864624E+02 0.75467711E-02 0.93482665E-01
        2 -1    0    0  502    0 0.00000000E+00 0.00000000E+00 0.16348678E+04 0.16348678E+04 0.32000000E+00 0.0000E+00 0.9000E+01
        3 -1    0    0  501    0 0.00000000E+00 0.00000000E+00 -.84351250E+03 0.84351264E+03 0.50000000E+00 0.0000E+00 0.9000E+01
       25  1    1    2    0    0 -.51463469E+03 0.17679112E+02 0.94460933E+03 0.10830850E+04 0.12500000E+03 0.0000E+00 0.9000E+01
        4  1    1    2  501    0 0.49011012E+03 0.39148590E+02 -.69427733E+03 0.85074318E+03 0.15500000E+01 0.0000E+00 0.9000E+01
        1  1    1    2  502    0 0.24524563E+02 -.56827702E+02 0.54102328E+03 0.54455223E+03 0.32000000E+00 0.0000E+00 0.9000E+01
#aMCatNLO 1  0  0  2  4 0.20389418D+02 0.00000000D+00  -5  6  0 0.00000000D+00 0.00000000D+00 0.00000000D+00 0.00000000D+00 0.00000000D+00
  <mgrwgt>
 0.3857801742D-02    9    2    0
 0.117432176978610D+04 0.000000000000000D+00 0.000000000000000D+00 0.117432176978610D+04
 0.117432176978610D+04 0.000000000000000D+00 0.000000000000000D+00 -.117432176978610D+04
 0.824800799462099D+03 -.514682977939000D+03 0.176500697255625D+02 0.632029481948306D+03
 0.113168813893893D+04 0.490169973452842D+03 0.391508487530021D+02 -.101927359034864D+04
 0.392154601171171D+03 0.245130044861579D+02 -.568009184785646D+02 0.387244108400339D+03
 0.000000000000000D+00 -.000000000000000D+00 -.000000000000000D+00 -.000000000000000D+00
 0.117493107286212D+04 0.000000000000000D+00 0.000000000000000D+00 0.117493107286212D+04
 0.135829971540869D+04 0.000000000000000D+00 0.000000000000000D+00 -.135829971540869D+04
 0.820613248953885D+03 -.507866614392899D+03 0.197823227125087D+02 0.632029481948306D+03
 0.113589353002715D+04 0.499563755547403D+03 0.420893539830092D+02 -.101927359034864D+04
 0.392225262853731D+03 0.277624105044076D+02 -.557844592417070D+02 0.387244108400339D+03
 0.184498746436041D+03 -.194595516589120D+02 -.608721745381083D+01 -.183368642546578D+03
0.121095190038D-03 0.000000000000D+00 0.000000000000D+00 0.484443605426D-04 0.000000000000D+00  6 2 3 25 4 1 21 0 0.25151813D+00 0.12977117D+00 0.29351170D+06 0.29351170D+06 0.29351170D+06 0.10852551D+01  1  2  2  2  6  2        3 0.504332741849D-04 0.100000000000D+01
0.249644556120D-04 0.000000000000D+00 -.465037414842D-06 0.484443605426D-04 0.000000000000D+00  6 2 3 25 4 1 21 2 0.25151813D+00 0.12977117D+00 0.29351170D+06 0.29351170D+06 0.29351170D+06 0.10852551D+01  1  2  3  2  6  2        3 0.122454866472D-04 0.100000000000D+01
-.885857984098D-04 0.000000000000D+00 0.000000000000D+00 0.484443605426D-04 0.000000000000D+00  6 2 3 25 4 1 21 2 0.25151813D+00 0.12977117D+00 0.29351170D+06 0.29351170D+06 0.29351170D+06 0.10852551D+01  1  2 15  2  6  2        3 -.434528286304D-04 0.100000000000D+01
0.230282613968D-01 0.000000000000D+00 0.000000000000D+00 0.484443605426D-04 0.000000000000D+00  6 2 3 25 4 1 21 2 0.25151813D+00 0.15084716D+00 0.30660112D+06 0.30660112D+06 0.30660112D+06 0.10838532D+01  1  2 12  2  6  2        3 0.734896033487D-02 0.100000000000D+01
-.148816980206D-01 0.000000000000D+00 0.000000000000D+00 0.484443605426D-04 0.000000000000D+00  6 2 3 25 4 1 21 2 0.25151813D+00 0.12977117D+00 0.29351170D+06 0.29351170D+06 0.29351170D+06 0.10852551D+01  1  2  4  2  6  2        3 -.729972394477D-02 0.100000000000D+01
-.241665215555D-01 0.000000000000D+00 -.169132491626D-03 0.484443605426D-04 0.000000000000D+00  6 2 3 25 4 1 21 2 0.25151813D+00 0.15013300D+00 0.29351170D+06 0.29351170D+06 0.29351170D+06 0.10852551D+01  1  2  5  2  6  2        3 -.786419656055D-02 0.100000000000D+01
0.239382455161D-01 0.000000000000D+00 0.167351835612D-03 0.484443605426D-04 0.000000000000D+00  6 2 3 25 4 1 21 2 0.25151813D+00 0.12977117D+00 0.29351170D+06 0.29351170D+06 0.29351170D+06 0.10852551D+01  1  2  6  2  6  2        3 0.117421132822D-01 0.100000000000D+01
0.526697779938D-03 0.000000000000D+00 0.000000000000D+00 0.484443605426D-04 0.000000000000D+00  6 2 21 25 4 1 -3 2 0.25151813D+00 0.15084716D+00 0.30660112D+06 0.30660112D+06 0.30660112D+06 0.10838532D+01  1  2 12  6  6  2        3 0.208814691888D-02 0.100000000000D+01
-.537433108637D-03 0.000000000000D+00 -.376909559711D-05 0.484443605426D-04 0.000000000000D+00  6 2 21 25 4 1 -3 2 0.25151813D+00 0.15013300D+00 0.29351170D+06 0.29351170D+06 0.29351170D+06 0.10852551D+01  1  2  5  6  6  2        3 -.217672422118D-02 0.100000000000D+01
  </mgrwgt>
  </event>
  <event>
  5     66 0.17338086E-05 0.38291305E+02 0.75467711E-02 0.93422554E-01
        2 -1    0    0  502    0 0.00000000E+00 0.00000000E+00 0.16971524E+04 0.16971525E+04 0.32000000E+00 0.0000E+00 0.9000E+01
        3 -1    0    0  501    0 0.00000000E+00 0.00000000E+00 -.39597397E+03 0.39597429E+03 0.50000000E+00 0.0000E+00 0.9000E+01
       25  1    1    2    0    0 -.50733096E+03 -.21426395E+03 0.68653238E+03 0.88895751E+03 0.12500000E+03 0.0000E+00 0.9000E+01
        4  1    1    2  501    0 0.28560190E+02 0.25502782E+02 -.22016477E+03 0.22347484E+03 0.15500000E+01 0.0000E+00 0.9000E+01
        1  1    1    2  502    0 0.47877077E+03 0.18876117E+03 0.83481087E+03 0.98069441E+03 0.32000000E+00 0.0000E+00 0.9000E+01
#aMCatNLO 1  0  0  5  1 0.29159875D+02 0.00000000D+00  -5  6  0 0.00000000D+00 0.00000000D+00 0.00000000D+00 0.00000000D+00 0.00000000D+00
  <mgrwgt>
 0.9592066296D-02    7    2    0
 0.819773477538382D+03 0.000000000000000D+00 0.000000000000000D+00 0.819773477538382D+03
 0.819773477538382D+03 -.000000000000000D+00 -.000000000000000D+00 -.819773477538382D+03
 0.590042092170705D+03 -.507330771945532D+03 -.214264002943624D+03 0.170971036766195D+03
 0.460027655174694D+03 0.285620165458973D+02 0.255036317129410D+02 -.458431259302646D+03
 0.589477207731365D+03 0.478768755399635D+03 0.188760371230683D+03 0.287460222536451D+03
 0.000000000000000D+00 0.000000000000000D+00 0.000000000000000D+00 0.000000000000000D+00
 0.819773477538382D+03 0.000000000000000D+00 0.000000000000000D+00 0.819773477538382D+03
 0.819773477538382D+03 -.000000000000000D+00 -.000000000000000D+00 -.819773477538382D+03
 0.587664711234981D+03 -.504456022981269D+03 -.213130598402143D+03 0.172697080848403D+03
 0.458880730499439D+03 0.308050458994942D+02 0.263879731589756D+02 -.457084509520274D+03
 0.541450435200327D+03 0.422422139008558D+03 0.181259351327157D+03 0.286134859481532D+03
 0.515510781420175D+02 0.512288380732167D+02 0.548327391600990D+01 -.174743080966053D+01
0.417103605634D-03 0.000000000000D+00 0.000000000000D+00 0.124988398053D-04 0.000000000000D+00  6 2 3 25 4 1 21 0 0.26110040D+00 0.60919099D-01 0.31228866D+06 0.31228866D+06 0.31228866D+06 0.10832643D+01  1  2  2  4  6  5        1 0.949662446523D-03 0.100000000000D+01
0.202646557745D-03 0.000000000000D+00 -.160178767153D-05 0.124988398053D-04 0.000000000000D+00  6 2 3 25 4 1 21 2 0.26110040D+00 0.60919099D-01 0.31228866D+06 0.31228866D+06 0.31228866D+06 0.10832643D+01  1  2  3  4  6  5        1 0.541418905510D-03 0.100000000000D+01
-.254359630542D-03 0.000000000000D+00 0.000000000000D+00 0.124988398053D-04 0.000000000000D+00  6 2 3 25 4 1 21 2 0.26110040D+00 0.60919099D-01 0.31228866D+06 0.31228866D+06 0.31228866D+06 0.10832643D+01  1  2 15  4  6  5        1 -.679582788409D-03 0.100000000000D+01
0.461205570262D-02 0.000000000000D+00 0.000000000000D+00 0.124988398053D-04 0.000000000000D+00  6 2 3 25 4 1 21 2 0.26110040D+00 0.60919099D-01 0.30995323D+06 0.30995323D+06 0.30995323D+06 0.10835047D+01  1  2 12  4  6  5        1 0.123315852926D-01 0.100000000000D+01
-.191776604953D-02 0.000000000000D+00 0.000000000000D+00 0.124988398053D-04 0.000000000000D+00  6 2 3 25 4 1 21 2 0.26110040D+00 0.60919099D-01 0.31228866D+06 0.31228866D+06 0.31228866D+06 0.10832643D+01  1  2  4  4  6  5        1 -.512377218302D-02 0.100000000000D+01
-.645038202566D-02 0.000000000000D+00 0.000000000000D+00 0.124988398053D-04 0.000000000000D+00  6 2 3 25 4 1 21 2 0.26110040D+00 0.60919099D-01 0.31228866D+06 0.31228866D+06 0.31228866D+06 0.10832643D+01  1  2  5  4  6  5        1 -.172337433970D-01 0.100000000000D+01
0.703904508700D-02 0.000000000000D+00 -.000000000000D+00 0.124988398053D-04 0.000000000000D+00  6 2 3 25 4 1 21 2 0.26110040D+00 0.60919099D-01 0.31228866D+06 0.31228866D+06 0.31228866D+06 0.10832643D+01  1  2  6  4  6  5        1 0.188064980192D-01 0.100000000000D+01
  </mgrwgt>
  </event>
  <event>
  5     66 -.17338086E-05 0.22600755E+03 0.75467711E-02 0.91488274E-01
        2 -1    0    0  502    0 0.00000000E+00 0.00000000E+00 0.27874118E+04 0.27874118E+04 0.32000000E+00 0.0000E+00 0.9000E+01
        3 -1    0    0  501    0 0.00000000E+00 0.00000000E+00 -.73015690E+03 0.73015707E+03 0.50000000E+00 0.0000E+00 0.9000E+01
       25  1    1    2    0    0 0.58052285E+03 -.19872892E+03 0.20485494E+03 0.65885546E+03 0.12500000E+03 0.0000E+00 0.9000E+01
        4  1    1    2  501    0 -.20413135E+03 -.97030007E+02 -.45187065E+03 0.50524640E+03 0.15500000E+01 0.0000E+00 0.9000E+01
        1  1    1    2  502    0 -.37639150E+03 0.29575893E+03 0.23042706E+04 0.23534670E+04 0.32000000E+00 0.0000E+00 0.9000E+01
#aMCatNLO 1  0  0  4  2 0.14909458D+02 0.00000000D+00  -5  6  0 0.00000000D+00 0.00000000D+00 0.00000000D+00 0.00000000D+00 0.00000000D+00
  <mgrwgt>
 -.1249255800D-02    7    2    0
 0.142662128434532D+04 0.000000000000000D+00 0.000000000000000D+00 0.142662128434532D+04
 0.142662128434532D+04 -.000000000000000D+00 -.000000000000000D+00 -.142662128434532D+04
 0.664566551491827D+03 0.580518093358721D+03 -.198737492257844D+03 -.222544049158718D+03
 0.948661491300457D+03 -.204121067704440D+03 -.970257822957831D+02 -.921346412792441D+03
 0.124001452589835D+04 -.376397025654281D+03 0.295763274553627D+03 0.114389046195116D+04
 0.000000000000000D+00 0.000000000000000D+00 0.000000000000000D+00 -.000000000000000D+00
 0.142662128434532D+04 0.000000000000000D+00 0.000000000000000D+00 0.142662128434532D+04
 0.142662128434532D+04 -.000000000000000D+00 -.000000000000000D+00 -.142662128434532D+04
 0.664587398258184D+03 0.580491385786847D+03 -.198750187287727D+03 -.222664599799657D+03
 0.309876952412863D+03 -.809760522377572D+02 -.289850691914254D+02 -.297701982466761D+03
 0.123981652862517D+04 -.376446854544409D+03 0.295739589163873D+03 0.114366554803272D+04
 0.638961689394412D+03 -.123068479004680D+03 -.680043326847201D+02 -.623298965766302D+03
0.785889995150D-04 0.000000000000D+00 0.000000000000D+00 0.794959391648D-05 0.000000000000D+00  6 2 3 25 4 1 21 0 0.42883260D+00 0.11233185D+00 0.44282469D+06 0.44282469D+06 0.44282469D+06 0.10722577D+01  1  2  2  3  6  4        4 0.103221297324D-04 0.100000000000D+01
0.910709298678D-05 0.000000000000D+00 -.301802451096D-06 0.794959391648D-05 0.000000000000D+00  6 2 3 25 4 1 21 2 0.42883260D+00 0.11233185D+00 0.44282469D+06 0.44282469D+06 0.44282469D+06 0.10722577D+01  1  2  3  3  6  4        4 0.137526278560D-05 0.100000000000D+01
-.514927458406D-04 0.000000000000D+00 0.000000000000D+00 0.794959391648D-05 0.000000000000D+00  6 2 3 25 4 1 21 2 0.42883260D+00 0.11233185D+00 0.44282469D+06 0.44282469D+06 0.44282469D+06 0.10722577D+01  1  2 15  3  6  4        4 -.777592335839D-05 0.100000000000D+01
0.743278601530D-02 0.000000000000D+00 0.000000000000D+00 0.794959391648D-05 0.000000000000D+00  6 2 3 25 4 1 21 2 0.42883260D+00 0.11233185D+00 0.44323135D+06 0.44323135D+06 0.44323135D+06 0.10722292D+01  1  2 12  3  6  4        4 0.112228436804D-02 0.100000000000D+01
-.217762797530D-01 0.000000000000D+00 0.000000000000D+00 0.794959391648D-05 0.000000000000D+00  6 2 3 25 4 1 21 2 0.42883260D+00 0.11233185D+00 0.44282469D+06 0.44282469D+06 0.44282469D+06 0.10722577D+01  1  2  4  3  6  4        4 -.328843761632D-02 0.100000000000D+01
-.748819318778D-02 0.000000000000D+00 0.000000000000D+00 0.794959391648D-05 0.000000000000D+00  6 2 3 25 4 1 21 2 0.42883260D+00 0.11233185D+00 0.44282469D+06 0.44282469D+06 0.44282469D+06 0.10722577D+01  1  2  5  3  6  4        4 -.113079260720D-02 0.100000000000D+01
0.135339883780D-01 0.000000000000D+00 -.000000000000D+00 0.794959391648D-05 0.000000000000D+00  6 2 3 25 4 1 21 2 0.42883260D+00 0.11233185D+00 0.44282469D+06 0.44282469D+06 0.44282469D+06 0.10722577D+01  1  2  6  3  6  4        4 0.204376858609D-02 0.100000000000D+01
  </mgrwgt>
  </event>
  <event>
  5     66 0.17338086E-05 0.40238132E+02 0.75467711E-02 0.95392293E-01
        2 -1    0    0  502    0 0.00000000E+00 0.00000000E+00 0.92530110E+03 0.92530115E+03 0.32000000E+00 0.0000E+00 0.9000E+01
        3 -1    0    0  501    0 0.00000000E+00 0.00000000E+00 -.12240429E+04 0.12240430E+04 0.50000000E+00 0.0000E+00 0.9000E+01
       25  1    1    2    0    0 -.39242486E+03 -.23112870E+03 0.15211726E+03 0.49616772E+03 0.12500000E+03 0.0000E+00 0.9000E+01
        4  1    1    2  501    0 0.17337184E+02 0.36308765E+02 -.97725965E+03 0.97808881E+03 0.15500000E+01 0.0000E+00 0.9000E+01
        1  1    1    2  502    0 0.37508768E+03 0.19481994E+03 0.52640060E+03 0.67508760E+03 0.32000000E+00 0.0000E+00 0.9000E+01
#aMCatNLO 1  0  0  1  5 0.10152381D+01 0.00000000D+00  -5  6  0 0.00000000D+00 0.00000000D+00 0.00000000D+00 0.00000000D+00 0.00000000D+00
  <mgrwgt>
 0.2841924231D-02    7    2    0
 0.106424075779016D+04 0.000000000000000D+00 0.000000000000000D+00 0.106424075779016D+04
 0.106424075779016D+04 0.000000000000000D+00 0.000000000000000D+00 -.106424075779016D+04
 0.522388692489954D+03 -.392413129246887D+03 -.231123870697808D+03 0.223290479935201D+03
 0.850532398338422D+03 0.173387186196384D+02 0.363108262880341D+02 -.849580045289564D+03
 0.755560424751944D+03 0.375074410627249D+03 0.194813044409774D+03 0.626289565354362D+03
 0.000000000000000D+00 -.000000000000000D+00 0.000000000000000D+00 0.000000000000000D+00
 0.118505743343641D+04 0.000000000000000D+00 0.000000000000000D+00 0.118505743343641D+04
 0.108969857026963D+04 0.000000000000000D+00 0.000000000000000D+00 -.108969857026963D+04
 0.508403779670062D+03 -.367987066144931D+03 -.239950586378025D+03 0.223290479935201D+03
 0.851812991359616D+03 0.576781633023819D+02 0.217335770839284D+02 -.849580045289564D+03
 0.770968971525302D+03 0.411247650505809D+03 0.181741314335729D+03 0.626289565354362D+03
 0.143570261151059D+03 -.100938747663259D+03 0.364756949583670D+02 0.953588631667778D+02
0.442026939370D-02 0.000000000000D+00 0.000000000000D+00 0.230877231951D-03 0.000000000000D+00  6 2 3 25 4 1 21 0 0.14235403D+00 0.18831430D+00 0.21862635D+06 0.21862635D+06 0.21862635D+06 0.10948675D+01  1  2  2  1  6  1        2 0.154448153642D-02 0.100000000000D+01
0.231025072924D-02 0.000000000000D+00 -.169749983555D-04 0.230877231951D-03 0.000000000000D+00  6 2 3 25 4 1 21 2 0.14235403D+00 0.18831430D+00 0.21862635D+06 0.21862635D+06 0.21862635D+06 0.10948675D+01  1  2  3  1  6  1        2 0.967645430792D-03 0.100000000000D+01
-.331616369122D-02 0.000000000000D+00 0.000000000000D+00 0.230877231951D-03 0.000000000000D+00  6 2 3 25 4 1 21 2 0.14235403D+00 0.18831430D+00 0.21862635D+06 0.21862635D+06 0.21862635D+06 0.10948675D+01  1  2 15  1  6  1        2 -.138897073073D-02 0.100000000000D+01
-.332327872511D-02 0.000000000000D+00 0.000000000000D+00 0.230877231951D-03 0.000000000000D+00  6 2 3 25 4 1 21 2 0.14235403D+00 0.18831430D+00 0.21862635D+06 0.21862635D+06 0.21862635D+06 0.10948675D+01  1  2  4  1  6  1        2 -.139195085317D-02 0.100000000000D+01
-.447105260550D-01 0.000000000000D+00 -.958389315101D-02 0.230877231951D-03 0.000000000000D+00  6 2 3 25 4 1 21 2 0.16057524D+00 0.18831430D+00 0.21862635D+06 0.21862635D+06 0.21862635D+06 0.10948675D+01  1  2  5  1  6  1        2 -.158019800643D-01 0.100000000000D+01
0.456027799525D-01 0.000000000000D+00 0.951479354535D-02 0.230877231951D-03 0.000000000000D+00  6 2 3 25 4 1 21 2 0.14235403D+00 0.18831430D+00 0.21862635D+06 0.21862635D+06 0.21862635D+06 0.10948675D+01  1  2  6  1  6  1        2 0.191006634449D-01 0.100000000000D+01
-.806344811249D-03 0.000000000000D+00 -.182409834340D-03 0.230877231951D-03 0.000000000000D+00  6 21 3 25 4 1 -2 2 0.16057524D+00 0.18831430D+00 0.21862635D+06 0.21862635D+06 0.21862635D+06 0.10948675D+01  1  2  5  5  6  1        2 -.187964532387D-03 0.100000000000D+01
  </mgrwgt>
  </event>
  <event>
  5     66 0.17338086E-05 0.49067247E+02 0.75467711E-02 0.89825950E-01
        2 -1    0    0  502    0 0.00000000E+00 0.00000000E+00 0.24852094E+04 0.24852095E+04 0.32000000E+00 0.0000E+00 0.9000E+01
        3 -1    0    0  501    0 0.00000000E+00 0.00000000E+00 -.41609247E+03 0.41609277E+03 0.50000000E+00 0.0000E+00 0.9000E+01
       25  1    1    2    0    0 -.51525723E+03 0.20538607E+03 0.17298782E+03 0.59432586E+03 0.12500000E+03 0.0000E+00 0.9000E+01
        4  1    1    2  501    0 -.48996932E+02 -.33097374E+01 -.15890430E+03 0.16632689E+03 0.15500000E+01 0.0000E+00 0.9000E+01
        1  1    1    2  502    0 0.56425416E+03 -.20207633E+03 0.20550334E+04 0.21406495E+04 0.32000000E+00 0.0000E+00 0.9000E+01
#aMCatNLO 1  0  0  4  2 0.18930038D+02 0.00000000D+00  -5  6  0 0.00000000D+00 0.00000000D+00 0.00000000D+00 0.00000000D+00 0.00000000D+00
  <mgrwgt>
 0.3121123002D-02    4    2    0
 0.101689595970158D+04 0.000000000000000D+00 0.000000000000000D+00 0.101689595970158D+04
 0.101689595970158D+04 -.000000000000000D+00 -.000000000000000D+00 -.101689595970158D+04
 0.672138740848591D+03 -.515342709371496D+03 0.205400140799650D+03 -.358298982703914D+03
 0.398565620934206D+03 -.489556115360335D+02 -.330799171077495D+01 -.395533765285144D+03
 0.963087557620361D+03 0.564298320907529D+03 -.202092149088875D+03 0.753832747989058D+03
 0.000000000000000D+00 0.000000000000000D+00 0.000000000000000D+00 0.000000000000000D+00
 0.101689595970158D+04 0.000000000000000D+00 0.000000000000000D+00 0.101689595970158D+04
 0.101689595970158D+04 -.000000000000000D+00 -.000000000000000D+00 -.101689595970158D+04
 0.735517836756132D+03 -.527122820964303D+03 0.204604143971537D+03 -.453475648822215D+03
 0.240735630961791D+03 -.209732969765758D+03 -.995430661295271D+01 -.117756686381974D+03
 0.860397236534755D+03 0.549038310259558D+03 -.203123287034985D+03 0.630540457677440D+03
 0.197141215150481D+03 0.187817480470503D+03 0.847344967640072D+01 -.593081224732506D+02
0.183149967030D-01 0.000000000000D+00 0.000000000000D+00 0.247265828497D-04 0.000000000000D+00  6 2 3 25 4 1 21 0 0.38233994D+00 0.64014250D-01 0.37035607D+06 0.37035607D+06 0.37035607D+06 0.10778466D+01  1  2  2  3  6  4        4 0.135527265449D-01 0.100000000000D+01
0.623160133656D-02 0.000000000000D+00 -.703344097888D-04 0.247265828497D-04 0.000000000000D+00  6 2 3 25 4 1 21 2 0.38233994D+00 0.64014250D-01 0.37035607D+06 0.37035607D+06 0.37035607D+06 0.10778466D+01  1  2  3  3  6  4        4 0.535714550160D-02 0.100000000000D+01
-.156386357300D-01 0.000000000000D+00 0.000000000000D+00 0.247265828497D-04 0.000000000000D+00  6 2 3 25 4 1 21 2 0.38233994D+00 0.64014250D-01 0.37035607D+06 0.37035607D+06 0.37035607D+06 0.10778466D+01  1  2 15  3  6  4        4 -.134441281667D-01 0.100000000000D+01
-.272733727110D-02 0.000000000000D+00 0.000000000000D+00 0.247265828497D-04 0.000000000000D+00  6 2 3 25 4 1 21 2 0.38233994D+00 0.64014250D-01 0.37035607D+06 0.37035607D+06 0.37035607D+06 0.10778466D+01  1  2  4  3  6  4        4 -.234462087739D-02 0.100000000000D+01
  </mgrwgt>
  </event>
  <event>
  5     66 -.17338086E-05 0.28693541E+02 0.75467711E-02 0.94720730E-01
        2 -1    0    0  502    0 0.00000000E+00 0.00000000E+00 0.15106779E+04 0.15106780E+04 0.32000000E+00 0.0000E+00 0.9000E+01
        3 -1    0    0  501    0 0.00000000E+00 0.00000000E+00 -.22476936E+03 0.22476991E+03 0.50000000E+00 0.0000E+00 0.9000E+01
       25  1    1    2    0    0 -.43739072E+03 -.20863149E+03 0.45725651E+03 0.67789841E+03 0.12500000E+03 0.0000E+00 0.9000E+01
        4  1    1    2  501    0 0.28032913E+02 -.62265567E+01 -.53982737E+02 0.61164962E+02 0.15500000E+01 0.0000E+00 0.9000E+01
        1  1    1    2  502    0 0.40935780E+03 0.21485804E+03 0.88263481E+03 0.99638452E+03 0.32000000E+00 0.0000E+00 0.9000E+01
#aMCatNLO 1  0  0  4  2 0.24950372D+00 0.00000000D+00  -5  6  0 0.00000000D+00 0.00000000D+00 0.00000000D+00 0.00000000D+00 0.00000000D+00
  <mgrwgt>
 -.5905312849D-01    7    2    0
 0.582713154349110D+03 0.000000000000000D+00 0.000000000000000D+00 0.582713154349110D+03
 0.582713154349110D+03 -.000000000000000D+00 -.000000000000000D+00 -.582713154349110D+03
 0.505054461779938D+03 -.437458799819523D+03 -.208686088572506D+03 -.673418462814464D+02
 0.150416390528943D+03 0.280115023217840D+02 -.621892733772261D+01 -.147654228588959D+03
 0.509955456389338D+03 0.409447297497739D+03 0.214905015910228D+03 0.214996074870405D+03
 0.000000000000000D+00 0.000000000000000D+00 0.000000000000000D+00 -.000000000000000D+00
 0.582713154349110D+03 0.000000000000000D+00 0.000000000000000D+00 0.582713154349110D+03
 0.582713154349110D+03 -.000000000000000D+00 -.000000000000000D+00 -.582713154349110D+03
 0.505054447822514D+03 -.437458604833061D+03 -.208686131862103D+03 -.673428740940687D+02
 0.142300508225442D+02 0.282692907799815D+01 -.758953881545888D+00 -.139257605683080D+02
 0.509955158517305D+03 0.409447494376274D+03 0.214904972200566D+03 0.214995037084287D+03
 0.136186651535857D+03 0.251841813787884D+02 -.545988645691774D+01 -.133726402421911D+03
0.104415642886D-04 0.000000000000D+00 0.000000000000D+00 0.291455600484D-05 0.000000000000D+00  6 2 3 25 4 1 21 0 0.23241204D+00 0.34579946D-01 0.24584602D+06 0.24584602D+06 0.24584602D+06 0.10910070D+01  1  2  2  3  6  4        4 0.944833112924D-04 0.100000000000D+01
0.373295059164D-05 0.000000000000D+00 -.400983561952D-07 0.291455600484D-05 0.000000000000D+00  6 2 3 25 4 1 21 2 0.23241204D+00 0.34579946D-01 0.24584602D+06 0.24584602D+06 0.24584602D+06 0.10910070D+01  1  2  3  3  6  4        4 0.402065514103D-04 0.100000000000D+01
-.609294095358D-05 0.000000000000D+00 0.000000000000D+00 0.291455600484D-05 0.000000000000D+00  6 2 3 25 4 1 21 2 0.23241204D+00 0.34579946D-01 0.24584602D+06 0.24584602D+06 0.24584602D+06 0.10910070D+01  1  2 15  3  6  4        4 -.656253378330D-04 0.100000000000D+01
-.347558528812D-01 0.000000000000D+00 0.000000000000D+00 0.291455600484D-05 0.000000000000D+00  6 2 3 25 4 1 21 2 0.23241204D+00 0.34579946D-01 0.24584602D+06 0.24584602D+06 0.24584602D+06 0.10910070D+01  1  2  4  3  6  4        4 -.374345427665D+00 0.100000000000D+01
-.918648319201D-02 0.000000000000D+00 0.000000000000D+00 0.291455600484D-05 0.000000000000D+00  6 2 3 25 4 1 21 2 0.23241204D+00 0.34579946D-01 0.24584602D+06 0.24584602D+06 0.24584602D+06 0.10910070D+01  1  2  5  3  6  4        4 -.989450033351D-01 0.100000000000D+01
0.291104068830D-01 0.000000000000D+00 -.000000000000D+00 0.291455600484D-05 0.000000000000D+00  6 2 3 25 4 1 21 2 0.23241204D+00 0.34579946D-01 0.24584602D+06 0.24584602D+06 0.24584602D+06 0.10910070D+01  1  2  6  3  6  4        4 0.313539930996D+00 0.100000000000D+01
0.934277285831D-02 0.000000000000D+00 0.000000000000D+00 0.291455600484D-05 0.144249037566D-04  6 2 3 25 4 1 21 2 0.23241204D+00 0.34579946D-01 0.24584738D+06 0.24584738D+06 0.24584738D+06 0.10910068D+01  1  2 11  3  6  4        4 0.100628306993D+00 0.100000000000D+01
  </mgrwgt>
  </event>
  <event>
  5     66 -.17338086E-05 0.36867731E+02 0.75467711E-02 0.93437405E-01
        2 -1    0    0  502    0 0.00000000E+00 0.00000000E+00 0.29653213E+04 0.29653214E+04 0.32000000E+00 0.0000E+00 0.9000E+01
        3 -1    0    0  501    0 0.00000000E+00 0.00000000E+00 -.16582274E+03 0.16582349E+03 0.50000000E+00 0.0000E+00 0.9000E+01
       25  1    1    2    0    0 0.49037125E+03 -.24256305E+03 0.73358068E+03 0.92361594E+03 0.12500000E+03 0.0000E+00 0.9000E+01
        4  1    1    2  501    0 -.36863026E+02 0.15827688E+01 -.31261670E+02 0.48384732E+02 0.15500000E+01 0.0000E+00 0.9000E+01
        1  1    1    2  502    0 -.45350823E+03 0.24098028E+03 0.20971796E+04 0.21591442E+04 0.32000000E+00 0.0000E+00 0.9000E+01
#aMCatNLO 1  0  0  4  2 0.38364586D+01 0.00000000D+00  -5  6  0 0.00000000D+00 0.00000000D+00 0.00000000D+00 0.00000000D+00 0.00000000D+00
  <mgrwgt>
 -.1463703017D-01    8    2    0
 0.701226714778471D+03 0.000000000000000D+00 0.000000000000000D+00 0.701226714778471D+03
 0.701226714778471D+03 -.000000000000000D+00 -.000000000000000D+00 -.701226714778471D+03
 0.597903422783026D+03 0.490412487128574D+03 -.242600328847866D+03 -.206165409045582D+03
 0.170176000573649D+03 -.368337487756919D+02 0.158258259209936D+01 -.166134408099921D+03
 0.634374006200266D+03 -.453578738352882D+03 0.241017746255766D+03 0.372299817145503D+03
 0.000000000000000D+00 0.000000000000000D+00 0.000000000000000D+00 -.000000000000000D+00
 0.701226714778471D+03 0.000000000000000D+00 0.000000000000000D+00 0.701226714778471D+03
 0.701226714778471D+03 -.000000000000000D+00 -.000000000000000D+00 -.701226714778471D+03
 0.597915024477570D+03 0.490396325888328D+03 -.242599634471151D+03 -.206238302469997D+03
 0.943651786948520D+02 -.236107179632557D+02 -.111899356060499D+01 -.913568213150078D+02
 0.634341162587482D+03 -.453595884777318D+03 0.241018482961471D+03 0.372222480160552D+03
 0.758320637970370D+02 -.131897231477547D+02 0.270014507028508D+01 -.746273563755470D+02
0.314784540952D-04 0.000000000000D+00 0.000000000000D+00 0.366271664068D-05 0.000000000000D+00  6 2 3 25 4 1 21 0 0.45620334D+00 0.25511249D-01 0.30899125D+06 0.30899125D+06 0.30899125D+06 0.10836043D+01  1  2  2  3  6  4        4 0.742868498078D-04 0.100000000000D+01
0.978941674106D-05 0.000000000000D+00 -.120885552193D-06 0.366271664068D-05 0.000000000000D+00  6 2 3 25 4 1 21 2 0.45620334D+00 0.25511249D-01 0.30899125D+06 0.30899125D+06 0.30899125D+06 0.10836043D+01  1  2  3  3  6  4        4 0.271266896689D-04 0.100000000000D+01
-.206999565398D-04 0.000000000000D+00 0.000000000000D+00 0.366271664068D-05 0.000000000000D+00  6 2 3 25 4 1 21 2 0.45620334D+00 0.25511249D-01 0.30899125D+06 0.30899125D+06 0.30899125D+06 0.10836043D+01  1  2 15  3  6  4        4 -.573600360540D-04 0.100000000000D+01
0.256889536650D-03 0.000000000000D+00 0.000000000000D+00 0.366271664068D-05 0.000000000000D+00  6 2 3 25 4 1 21 2 0.45620334D+00 0.25511249D-01 0.30912124D+06 0.30912124D+06 0.30912124D+06 0.10835908D+01  1  2 12  3  6  4        4 0.711813459902D-03 0.100000000000D+01
-.134932302430D-01 0.000000000000D+00 0.000000000000D+00 0.366271664068D-05 0.000000000000D+00  6 2 3 25 4 1 21 2 0.45620334D+00 0.25511249D-01 0.30899125D+06 0.30899125D+06 0.30899125D+06 0.10836043D+01  1  2  4  3  6  4        4 -.373900385606D-01 0.100000000000D+01
-.328433401923D-02 0.000000000000D+00 0.000000000000D+00 0.366271664068D-05 0.000000000000D+00  6 2 3 25 4 1 21 2 0.45620334D+00 0.25511249D-01 0.30899125D+06 0.30899125D+06 0.30899125D+06 0.10836043D+01  1  2  5  3  6  4        4 -.910096199448D-02 0.100000000000D+01
0.664283157222D-02 0.000000000000D+00 -.000000000000D+00 0.366271664068D-05 0.000000000000D+00  6 2 3 25 4 1 21 2 0.45620334D+00 0.25511249D-01 0.30899125D+06 0.30899125D+06 0.30899125D+06 0.10836043D+01  1  2  6  3  6  4        4 0.184074327765D-01 0.100000000000D+01
0.457999277404D-02 0.000000000000D+00 0.000000000000D+00 0.366271664068D-05 0.860589076664D-06  6 2 3 25 4 1 21 2 0.45620334D+00 0.25511249D-01 0.30912124D+06 0.30912124D+06 0.30912124D+06 0.10835908D+01  1  2 11  3  6  4        4 0.126906706491D-01 0.100000000000D+01
  </mgrwgt>
  </event>
  <event>
  5     66 0.17338086E-05 0.21061118E+02 0.75467711E-02 0.93927124E-01
        2 -1    0    0  502    0 0.00000000E+00 0.00000000E+00 0.95475277E+03 0.95475282E+03 0.32000000E+00 0.0000E+00 0.9000E+01
        3 -1    0    0  501    0 0.00000000E+00 0.00000000E+00 -.10639024E+04 0.10639025E+04 0.50000000E+00 0.0000E+00 0.9000E+01
       25  1    1    2    0    0 -.51636540E+03 0.70357987E+02 0.41581054E+03 0.67831179E+03 0.12500000E+03 0.0000E+00 0.9000E+01
        4  1    1    2  501    0 0.50411951E+03 -.53210573E+02 -.86341828E+03 0.10012299E+04 0.15500000E+01 0.0000E+00 0.9000E+01
        1  1    1    2  502    0 0.12245894E+02 -.17147414E+02 0.33845815E+03 0.33911358E+03 0.32000000E+00 0.0000E+00 0.9000E+01
#aMCatNLO 1  0  0  2  5 0.43866790D+03 0.00000000D+00  -5  6  0 0.00000000D+00 0.00000000D+00 0.00000000D+00 0.00000000D+00 0.00000000D+00
  <mgrwgt>
 0.9739128956D-02    3    2    0
 0.100785112861428D+04 0.000000000000000D+00 0.000000000000000D+00 0.100785112861428D+04
 0.100785112861428D+04 0.000000000000000D+00 0.000000000000000D+00 -.100785112861428D+04
 0.701969299285135D+03 -.516428161872665D+03 0.703581185964286D+02 0.453307385679139D+03
 0.955966689704234D+03 0.504188130741575D+03 -.532189141047895D+02 -.810453199034278D+03
 0.357766268239195D+03 0.122400311310893D+02 -.171392044916391D+02 0.357145813355139D+03
 0.000000000000000D+00 -.000000000000000D+00 -.000000000000000D+00 0.000000000000000D+00
 0.410127415206687D+04 0.000000000000000D+00 0.000000000000000D+00 0.410127415206687D+04
 0.104077880299758D+04 0.000000000000000D+00 0.000000000000000D+00 -.104077880299758D+04
 0.627395967841855D+03 -.396551118642070D+03 0.123532687401698D+03 0.453307385679139D+03
 0.106228173030078D+04 0.686186005274511D+03 0.275109591132917D+02 -.810453199034278D+03
 0.365642675404904D+03 0.774742653593095D+02 0.117971304641286D+02 0.357145813355139D+03
 0.308673258151691D+04 -.367109151991751D+03 -.162840776979118D+03 0.306049534906929D+04
0.250784241390D-01 0.000000000000D+00 0.000000000000D+00 0.119015027995D-03 0.000000000000D+00  6 2 3 25 4 1 21 0 0.14688505D+00 0.16367730D+00 0.28303944D+06 0.28303944D+06 0.28303944D+06 0.10864267D+01  1  2  2  2  6  2        3 0.131384029278D-01 0.100000000000D+01
0.139861182389D-01 0.000000000000D+00 -.963077519945D-04 0.119015027995D-03 0.000000000000D+00  6 2 3 25 4 1 21 2 0.14688505D+00 0.16367730D+00 0.28303944D+06 0.28303944D+06 0.28303944D+06 0.10864267D+01  1  2  3  2  6  2        3 0.864849259631D-02 0.100000000000D+01
-.194833360682D-01 0.000000000000D+00 0.000000000000D+00 0.119015027995D-03 0.000000000000D+00  6 2 3 25 4 1 21 2 0.14688505D+00 0.16367730D+00 0.28303944D+06 0.28303944D+06 0.28303944D+06 0.10864267D+01  1  2 15  2  6  2        3 -.120477665682D-01 0.100000000000D+01
  </mgrwgt>
  </event>
  <event>
  5     66 -.17338086E-05 0.13091928E+02 0.75467711E-02 0.93799511E-01
        2 -1    0    0  502    0 0.00000000E+00 0.00000000E+00 0.63595525E+03 0.63595533E+03 0.32000000E+00 0.0000E+00 0.9000E+01
        3 -1    0    0  501    0 -.00000000E+00 -.00000000E+00 -.24155259E+04 0.24155259E+04 0.50000000E+00 0.0000E+00 0.9000E+01
       25  1    1    2    0    0 -.77947909E+02 0.51563220E+03 0.88598515E+02 0.54353210E+03 0.12500000E+03 0.0000E+00 0.9000E+01
        4  1    1    2  501    0 0.66830036E+02 -.52255147E+03 -.21561987E+04 0.22196219E+04 0.15500000E+01 0.0000E+00 0.9000E+01
        1  1    1    2  502    0 0.11117873E+02 0.69192648E+01 0.28802954E+03 0.28832725E+03 0.32000000E+00 0.0000E+00 0.9000E+01
#aMCatNLO 1  0  0  5  2 0.13229587D+03 0.00000000D+00  -5  6  0 0.00000000D+00 0.00000000D+00 0.00000000D+00 0.00000000D+00 0.00000000D+00
  <mgrwgt>
 -.1179134196D-02    1    2    0
 0.123942186812756D+04 0.000000000000000D+00 0.000000000000000D+00 0.123942186812756D+04
 0.123942186812756D+04 -.000000000000000D+00 -.000000000000000D+00 -.123942186812756D+04
 0.732824887650782D+03 -.779524843548319D+02 0.515688114571208D+03 0.499396129974276D+03
 0.118444665104003D+04 0.668373593162288D+02 -.522605669207338D+03 -.106081570080383D+04
 0.561572197564308D+03 0.111151250386018D+02 0.691755463612969D+01 0.561419570829552D+03
 0.000000000000000D+00 0.000000000000000D+00 0.000000000000000D+00 -.000000000000000D+00
 0.123942186812756D+04 0.000000000000000D+00 0.000000000000000D+00 0.123942186812756D+04
 0.123942186812756D+04 -.000000000000000D+00 -.000000000000000D+00 -.123942186812756D+04
 0.804275376656921D+03 -.759893849552292D+02 0.516909859473379D+03 0.598551327832433D+03
 0.105625373680480D+04 0.696990578587432D+02 -.520824676555324D+03 -.916272696383965D+03
 0.442691820117106D+03 -.721001170110827D+02 -.113972123204576D+03 0.421649114617623D+03
 0.175622802676296D+03 0.783904441075674D+02 0.117886940286520D+03 -.103927746066091D+03
-.641511077536D-01 0.000000000000D+00 0.000000000000D+00 0.424853426854D-03 0.000000000000D+00  6 2 3 25 4 1 21 2 0.97839279D-01 0.37161938D+00 0.28958990D+06 0.28958990D+06 0.28958990D+06 0.10856885D+01  1  2 14  4  6  5        1 -.117913419587D-02 0.100000000000D+01
  </mgrwgt>
  </event>
  <event>
  6     66 0.17338086E-05 0.18650805E+03 0.75467711E-02 0.91418943E-01
        2 -1    0    0  502    0 0.00000000E+00 0.00000000E+00 0.20777666E+04 0.20777666E+04 0.32000000E+00 0.0000E+00 0.9000E+01
       21 -1    0    0  501  503 0.00000000E+00 0.00000000E+00 -.61126196E+03 0.61126242E+03 0.75000000E+00 0.0000E+00 0.9000E+01
       25  1    1    2    0    0 -.17075148E+03 -.53598673E+03 0.69487780E+03 0.90272808E+03 0.12500000E+03 0.0000E+00 0.9000E+01
        4  1    1    2  501    0 0.35439093E+03 0.34888149E+03 0.76388288E+02 0.50313894E+03 0.15500000E+01 0.0000E+00 0.9000E+01
        1  1    1    2  502    0 -.21199555E+02 0.49015772E+02 0.94969338E+03 0.95119376E+03 0.32000000E+00 0.0000E+00 0.9000E+01
       -3  1    1    2    0  503 -.16243990E+03 0.13808947E+03 -.25445482E+03 0.33196826E+03 0.50000000E+00 0.0000E+00 0.9000E+01
#aMCatNLO 2  0  0  2  1 0.21320277D+03 0.00000000D+00  -5  6  0 0.00000000D+00 0.00000000D+00 0.00000000D+00 0.00000000D+00 0.00000000D+00
  <mgrwgt>
 0.1318721687D-02    1    2    0
 0.798213424049699D+03 0.000000000000000D+00 0.000000000000000D+00 0.798213424049699D+03
 0.798213424049699D+03 0.000000000000000D+00 0.000000000000000D+00 -.798213424049699D+03
 0.554834062506070D+03 -.228206720781661D+03 -.487225051642670D+03 0.524335632860135D+02
 0.654676657926531D+03 0.288102598230441D+03 0.405322049915552D+03 -.425808002718332D+03
 0.386916127666798D+03 -.598958774487798D+02 0.819030017271176D+02 0.373374439432319D+03
 0.000000000000000D+00 -.000000000000000D+00 0.000000000000000D+00 -.000000000000000D+00
 0.820607027593785D+03 0.000000000000000D+00 0.000000000000000D+00 0.820607027593785D+03
 0.154770803400146D+04 0.000000000000000D+00 0.000000000000000D+00 -.154770803400146D+04
 0.578684086268425D+03 -.170792626461593D+03 -.536032528759034D+03 0.524335632860135D+02
 0.654744207054584D+03 0.354426382395672D+03 0.348940483398641D+03 -.425808002718332D+03
 0.377172247648472D+03 -.211938574620259D+02 0.490025793268240D+02 0.373374439432319D+03
 0.757714520623760D+03 -.162439898472053D+03 0.138089466033569D+03 -.727101006407670D+03
0.168035402800D-03 0.000000000000D+00 0.000000000000D+00 0.232692139401D-05 0.120314866550D-09  6 2 21 25 4 1 -3 2 0.31965641D+00 0.94040330D-01 0.44907861D+06 0.44907861D+06 0.44907861D+06 0.10718229D+01  1  2  1  6  6  2        3 0.131872168713D-02 0.100000000000D+01
  </mgrwgt>
  </event>
  <event>
  6     66 -.17338086E-05 0.49382692E+02 0.75467711E-02 0.93916657E-01
        2 -1    0    0  503    0 0.00000000E+00 0.00000000E+00 0.19465475E+04 0.19465475E+04 0.32000000E+00 0.0000E+00 0.9000E+01
        3 -1    0    0  501    0 0.00000000E+00 0.00000000E+00 -.46134323E+03 0.46134350E+03 0.50000000E+00 0.0000E+00 0.9000E+01
       25  1    1    2    0    0 -.48593270E+03 0.20020736E+02 0.53265749E+03 0.73203854E+03 0.12500000E+03 0.0000E+00 0.9000E+01
        4  1    1    2  501    0 0.12073101E+02 0.55871700E+02 -.30630018E+03 0.31159206E+03 0.15500000E+01 0.0000E+00 0.9000E+01
        1  1    1    2  502    0 0.48571144E+03 -.65815750E+02 0.10952646E+04 0.11999383E+04 0.32000000E+00 0.0000E+00 0.9000E+01
       21  1    1    2  503  502 -.11851843E+02 -.10076687E+02 0.16358239E+03 0.16432214E+03 0.75000000E+00 0.0000E+00 0.9000E+01
#aMCatNLO 2  0  0  1  5 0.15556536D+02 0.00000000D+00  -5  6  0 0.00000000D+00 0.00000000D+00 0.00000000D+00 0.00000000D+00 0.00000000D+00
  <mgrwgt>
 -.3134388595D-02    5    2    0
 0.906459451420138D+03 0.000000000000000D+00 0.000000000000000D+00 0.906459451420138D+03
 0.906459451420138D+03 0.000000000000000D+00 0.000000000000000D+00 -.906459451420138D+03
 0.520689982925778D+03 -.489330768600426D+03 0.171361900522442D+02 0.125518158888097D+03
 0.608506957412356D+03 0.809524034966921D+01 0.524879285956058D+02 -.606184956638374D+03
 0.683721962502142D+03 0.481235528250756D+03 -.696241186478500D+02 0.480666797750277D+03
 0.000000000000000D+00 -.000000000000000D+00 -.000000000000000D+00 0.000000000000000D+00
 0.989864686799591D+03 0.000000000000000D+00 0.000000000000000D+00 0.989864686799591D+03
 0.907218505076257D+03 0.000000000000000D+00 0.000000000000000D+00 -.907218505076257D+03
 0.517605430805583D+03 -.485936935606267D+03 0.200216982887762D+02 0.125518158888097D+03
 0.608874023941248D+03 0.120744428833022D+02 0.558711303339909D+02 -.606184956638374D+03
 0.686506191659701D+03 0.485714335975051D+03 -.658161420619253D+02 0.480666797750277D+03
 0.840975454693170D+02 -.118518432520865D+02 -.100766865608417D+02 0.826461817233340D+02
-.673619610714D-02 0.000000000000D+00 0.000000000000D+00 0.364993109483D-04 0.000000000000D+00  6 2 3 25 4 1 21 2 0.30052374D+00 0.70916389D-01 0.28357044D+06 0.28357044D+06 0.28357044D+06 0.10863662D+01  1  2 13  1  6  1        2 -.950695940419D-02 0.100000000000D+01
-.156828401586D-03 0.000000000000D+00 0.000000000000D+00 0.364993109483D-04 0.000000000000D+00  6 2 3 25 4 1 21 2 0.27423535D+00 0.70916389D-01 0.27284393D+06 0.27284393D+06 0.27284393D+06 0.10876138D+01  1  2  8  1  6  1        2 -.275407299258D-03 0.100000000000D+01
-.205398412452D-03 0.000000000000D+00 0.000000000000D+00 0.364993109483D-04 0.000000000000D+00  6 2 3 25 4 1 21 2 0.29955300D+00 0.70916389D-01 0.27284393D+06 0.27284393D+06 0.27284393D+06 0.10876138D+01  1  2  9  1  6  1        2 -.293450762320D-03 0.100000000000D+01
0.204600186568D-03 0.000000000000D+00 0.000000000000D+00 0.364993109483D-04 0.000000000000D+00  6 2 3 25 4 1 21 2 0.27423535D+00 0.70916389D-01 0.27284393D+06 0.27284393D+06 0.27284393D+06 0.10876138D+01  1  2 10  1  6  1        2 0.359299618185D-03 0.100000000000D+01
0.463216800266D-02 0.000000000000D+00 0.000000000000D+00 0.364993109483D-04 0.618869865442D-06  6 2 3 25 4 1 21 2 0.29946832D+00 0.70975774D-01 0.28357044D+06 0.28357044D+06 0.28357044D+06 0.10863662D+01  1  2  1  1  6  1        2 0.658212925224D-02 0.100000000000D+01
  </mgrwgt>
  </event>
  <event>
  5     66 0.17338086E-05 0.41231699E+03 0.75467711E-02 0.81794091E-01
        2 -1    0    0  502    0 0.00000000E+00 0.00000000E+00 0.23856094E+04 0.23856094E+04 0.32000000E+00 0.0000E+00 0.9000E+01
        3 -1    0    0  501    0 0.00000000E+00 0.00000000E+00 -.60114677E+03 0.60114697E+03 0.50000000E+00 0.0000E+00 0.9000E+01
       25  1    1    2    0    0 -.40395357E+03 -.71528889E+03 0.46046928E+03 0.94998613E+03 0.12500000E+03 0.0000E+00 0.9000E+01
        4  1    1    2  501    0 0.11037514E+02 0.41214390E+03 -.18232417E+03 0.45080920E+03 0.15500000E+01 0.0000E+00 0.9000E+01
        1  1    1    2  502    0 0.39291606E+03 0.30314499E+03 0.15063175E+04 0.15859610E+04 0.32000000E+00 0.0000E+00 0.9000E+01
#aMCatNLO 1  0  0  2  5 0.14570190D+01 0.00000000D+00  -5  6  0 0.00000000D+00 0.00000000D+00 0.00000000D+00 0.00000000D+00 0.00000000D+00
  <mgrwgt>
 0.4642696532D-04    3    2    0
 0.119753985568927D+04 0.000000000000000D+00 0.000000000000000D+00 0.119753985568927D+04
 0.119753985568927D+04 0.000000000000000D+00 0.000000000000000D+00 -.119753985568927D+04
 0.841594410964820D+03 -.403945168784422D+03 -.715302550994734D+03 -.133516717018407D+03
 0.698050661796159D+03 0.110440126538087D+02 0.412169059455469D+03 -.563266742002537D+03
 0.855434638617557D+03 0.392901156130614D+03 0.303133491539265D+03 0.696783459020944D+03
 0.000000000000000D+00 -.000000000000000D+00 -.000000000000000D+00 0.000000000000000D+00
 0.233280916548426D+04 0.000000000000000D+00 0.000000000000000D+00 0.233280916548426D+04
 0.187145085676716D+04 0.000000000000000D+00 0.000000000000000D+00 -.187145085676716D+04
 0.555984242068308D+03 -.897403133632851D+02 -.517313676469467D+03 -.133516717018407D+03
 0.935120994638250D+03 0.378215093203870D+03 0.643533367619633D+03 -.563266742002537D+03
 0.126792459812188D+04 0.870276637316528D+03 0.603940537055082D+03 0.696783459020944D+03
 0.144523018742298D+04 -.115875141715711D+04 -.730160228205248D+03 0.461358308717104D+03
0.445426787341D-03 0.000000000000D+00 0.000000000000D+00 0.765720516404D-07 0.000000000000D+00  6 2 3 25 4 1 21 0 0.36701685D+00 0.92484136D-01 0.75646508D+06 0.75646508D+06 0.75646508D+06 0.10560292D+01  1  2  2  2  6  2        3 0.157089703785D-03 0.100000000000D+01
0.248061686848D-04 0.000000000000D+00 -.171055614696D-05 0.765720516404D-07 0.000000000000D+00  6 2 3 25 4 1 21 2 0.36701685D+00 0.92484136D-01 0.75646508D+06 0.75646508D+06 0.75646508D+06 0.10560292D+01  1  2  3  2  6  2        3 0.975624949157D-05 0.100000000000D+01
-.306176439086D-03 0.000000000000D+00 0.000000000000D+00 0.765720516404D-07 0.000000000000D+00  6 2 3 25 4 1 21 2 0.36701685D+00 0.92484136D-01 0.75646508D+06 0.75646508D+06 0.75646508D+06 0.10560292D+01  1  2 15  2  6  2        3 -.120418987959D-03 0.100000000000D+01
  </mgrwgt>
  </event>
  <event>
  5     66 0.17338086E-05 0.48893442E+02 0.75467711E-02 0.75298336E-01
        2 -1    0    0  502    0 0.00000000E+00 0.00000000E+00 0.17620303E+04 0.17620303E+04 0.32000000E+00 0.0000E+00 0.9000E+01
        3 -1    0    0  501    0 0.00000000E+00 0.00000000E+00 -.10074864E+04 0.10074866E+04 0.50000000E+00 0.0000E+00 0.9000E+01
       25  1    1    2    0    0 -.56107384E+03 0.38205061E+03 -.32417885E+03 0.76255062E+03 0.12500000E+03 0.0000E+00 0.9000E+01
        4  1    1    2  501    0 0.52287335E+03 -.35153179E+03 -.24963405E+03 0.67770989E+03 0.15500000E+01 0.0000E+00 0.9000E+01
        1  1    1    2  502    0 0.38200498E+02 -.30518820E+02 0.13283567E+04 0.13292563E+04 0.32000000E+00 0.0000E+00 0.9000E+01
#aMCatNLO 1  0  0  2  5 0.11192542D+04 0.00000000D+00  -5  6  0 0.00000000D+00 0.00000000D+00 0.00000000D+00 0.00000000D+00 0.00000000D+00
  <mgrwgt>
 0.3763526089D-02    5    2    0
 0.133237449328010D+04 0.000000000000000D+00 0.000000000000000D+00 0.133237449328010D+04
 0.133237449328010D+04 0.000000000000000D+00 0.000000000000000D+00 -.133237449328010D+04
 0.884334358019580D+03 -.561093316179336D+03 0.382063737996073D+03 -.552832567258159D+03
 0.775053919478111D+03 0.522893679102970D+03 -.351545605098978D+03 -.451338527037229D+03
 0.100536070906252D+04 0.381996370763663D+02 -.305181328970944D+02 0.100417109429539D+04
 0.000000000000000D+00 -.000000000000000D+00 -.000000000000000D+00 -.000000000000000D+00
 0.349196572612859D+04 0.000000000000000D+00 0.000000000000000D+00 0.349196572612859D+04
 0.661802260927501D+04 0.000000000000000D+00 0.000000000000000D+00 -.661802260927501D+04
 0.130041640516423D+04 0.386732778028334D+03 0.110465910479093D+04 -.552832567258159D+03
 0.174670416202583D+04 0.161692607547816D+04 0.482513243433819D+03 -.451338527037229D+03
 0.187575947798903D+04 0.128813667330670D+04 0.922397931225790D+03 0.100417109429539D+04
 0.518710829022452D+04 -.329179552681320D+04 -.250957027945054D+04 -.312605688314642D+04
0.206828265462D-01 0.000000000000D+00 0.000000000000D+00 0.305530822929D-04 0.000000000000D+00  6 2 3 25 4 1 21 0 0.27108159D+00 0.15499792D+00 0.46868318D+06 0.46868318D+06 0.46868318D+06 0.10705014D+01  1  2  2  2  6  2        3 0.428823283925D-02 0.100000000000D+01
0.116758628813D-01 0.000000000000D+00 -.794274998507D-04 0.305530822929D-04 0.000000000000D+00  6 2 3 25 4 1 21 2 0.27108159D+00 0.15499792D+00 0.46868318D+06 0.46868318D+06 0.46868318D+06 0.10705014D+01  1  2  3  2  6  2        3 0.277416258399D-02 0.100000000000D+01
-.138887454057D-01 0.000000000000D+00 0.000000000000D+00 0.305530822929D-04 0.000000000000D+00  6 2 3 25 4 1 21 2 0.27108159D+00 0.15499792D+00 0.46868318D+06 0.46868318D+06 0.46868318D+06 0.10705014D+01  1  2 15  2  6  2        3 -.329993921944D-02 0.100000000000D+01
0.317274344486D-01 0.000000000000D+00 -.131110320745D-01 0.305530822929D-04 0.000000000000D+00  6 2 3 25 4 1 21 2 0.27108159D+00 0.85620696D+00 0.46868318D+06 0.46868318D+06 0.46868318D+06 0.10705014D+01  1  2  5  2  6  2        3 0.105578885162D-05 0.100000000000D+01
0.601203656183D-02 0.000000000000D+00 -.274276055121D-02 0.305530822929D-04 0.000000000000D+00  6 2 21 25 4 1 -3 2 0.27108159D+00 0.85620696D+00 0.46868318D+06 0.46868318D+06 0.46868318D+06 0.10705014D+01  1  2  5  6  6  2        3 0.140964953389D-07 0.100000000000D+01
  </mgrwgt>
  </event>
  <event>
  5     66 0.17338086E-05 0.47741042E+02 0.75467711E-02 0.94385541E-01
        2 -1    0    0  502    0 0.00000000E+00 0.00000000E+00 0.14734468E+04 0.14734469E+04 0.32000000E+00 0.0000E+00 0.9000E+01
        3 -1    0    0  501    0 0.00000000E+00 0.00000000E+00 -.20482498E+03 0.20482559E+03 0.50000000E+00 0.0000E+00 0.9000E+01
       25  1    1    2    0    0 -.45004838E+03 -.16840980E+03 0.46838616E+03 0.68258040E+03 0.12500000E+03 0.0000E+00 0.9000E+01
        4  1    1    2  501    0 0.25786242E+02 -.40279816E+02 -.17628321E+02 0.50995628E+02 0.15500000E+01 0.0000E+00 0.9000E+01
        1  1    1    2  502    0 0.42426213E+03 0.20868961E+03 0.81786401E+03 0.94469644E+03 0.32000000E+00 0.0000E+00 0.9000E+01
#aMCatNLO 1  0  0  1  5 0.39518316D+01 0.00000000D+00  -5  6  0 0.00000000D+00 0.00000000D+00 0.00000000D+00 0.00000000D+00 0.00000000D+00
  <mgrwgt>
 0.2127300550D-01   11    2    0
 0.549362595632901D+03 0.000000000000000D+00 0.000000000000000D+00 0.549362595632901D+03
 0.549362595632901D+03 0.000000000000000D+00 0.000000000000000D+00 -.549362595632901D+03
 0.501951427719109D+03 -.450111006679403D+03 -.168534242868102D+03 -.729830558155919D+02
 0.979693566207102D+02 0.257317718932106D+02 -.402129701238878D+02 -.855499140018679D+02
 0.498804406925982D+03 0.424379234786192D+03 0.208747212991990D+03 0.158532969817460D+03
 0.000000000000000D+00 -.000000000000000D+00 0.000000000000000D+00 0.000000000000000D+00
 0.555281506999261D+03 0.000000000000000D+00 0.000000000000000D+00 0.555281506999261D+03
 0.550026167124850D+03 0.000000000000000D+00 0.000000000000000D+00 -.550026167124850D+03
 0.501316270082760D+03 -.448899068385680D+03 -.169870840982132D+03 -.729830558155919D+02
 0.981393053900772D+02 0.259686693810319D+02 -.404742348574806D+02 -.855499140018679D+02
 0.499276722630161D+03 0.425584907752442D+03 0.207417524656229D+03 0.158532969817460D+03
 0.657537602111279D+01 -.265450874779326D+01 0.292755118338369D+01 0.525533987441182D+01
0.397270010068D-03 0.000000000000D+00 0.000000000000D+00 0.310479920193D-06 0.000000000000D+00  6 2 3 25 4 1 21 0 0.22668418D+00 0.31511585D-01 0.25872444D+06 0.25872444D+06 0.25872444D+06 0.10893401D+01  1  2  2  1  6  1        2 0.449005474598D-02 0.100000000000D+01
0.775596997758D-04 0.000000000000D+00 -.152562144226D-05 0.310479920193D-06 0.000000000000D+00  6 2 3 25 4 1 21 2 0.22668418D+00 0.31511585D-01 0.25872444D+06 0.25872444D+06 0.25872444D+06 0.10893401D+01  1  2  3  1  6  1        2 0.104022908354D-02 0.100000000000D+01
-.216733871266D-03 0.000000000000D+00 0.000000000000D+00 0.310479920193D-06 0.000000000000D+00  6 2 3 25 4 1 21 2 0.22668418D+00 0.31511585D-01 0.25872444D+06 0.25872444D+06 0.25872444D+06 0.10893401D+01  1  2 15  1  6  1        2 -.290683018283D-02 0.100000000000D+01
0.619316533833D-04 0.000000000000D+00 0.000000000000D+00 0.310479920193D-06 0.000000000000D+00  6 2 3 25 4 1 21 2 0.22956860D+00 0.31511585D-01 0.26084258D+06 0.26084258D+06 0.26084258D+06 0.10890747D+01  1  2 12  1  6  1        2 0.810575721528D-03 0.100000000000D+01
-.167571025067D-01 0.000000000000D+00 0.000000000000D+00 0.310479920193D-06 0.000000000000D+00  6 2 3 25 4 1 21 2 0.22668418D+00 0.31511585D-01 0.25872444D+06 0.25872444D+06 0.25872444D+06 0.10893401D+01  1  2  4  1  6  1        2 -.224745911004D+00 0.100000000000D+01
-.102371064029D+00 0.000000000000D+00 -.783296802754D-02 0.310479920193D-06 0.000000000000D+00  6 2 3 25 4 1 21 2 0.22924503D+00 0.31511585D-01 0.25872444D+06 0.25872444D+06 0.25872444D+06 0.10893401D+01  1  2  5  1  6  1        2 -.134435112268D+01 0.100000000000D+01
0.102453086676D+00 0.000000000000D+00 0.783247381056D-02 0.310479920193D-06 0.000000000000D+00  6 2 3 25 4 1 21 2 0.22668418D+00 0.31511585D-01 0.25872444D+06 0.25872444D+06 0.25872444D+06 0.10893401D+01  1  2  6  1  6  1        2 0.137409867195D+01 0.100000000000D+01
0.162842963541D-01 0.000000000000D+00 0.000000000000D+00 0.310479920193D-06 0.838107833802D-07  6 2 3 25 4 1 21 2 0.22912651D+00 0.31549648D-01 0.26084258D+06 0.26084258D+06 0.26084258D+06 0.10890747D+01  1  2 11  1  6  1        2 0.213422213995D+00 0.100000000000D+01
0.811251623000D-05 0.000000000000D+00 0.000000000000D+00 0.310479920193D-06 0.000000000000D+00  6 21 3 25 4 1 -2 2 0.22956860D+00 0.31511585D-01 0.26084258D+06 0.26084258D+06 0.26084258D+06 0.10890747D+01  1  2 12  5  6  1        2 0.377631114275D-04 0.100000000000D+01
-.211672050421D-03 0.000000000000D+00 -.162241484633D-04 0.310479920193D-06 0.000000000000D+00  6 21 3 25 4 1 -2 2 0.22924503D+00 0.31511585D-01 0.25872444D+06 0.25872444D+06 0.25872444D+06 0.10893401D+01  1  2  5  5  6  1        2 -.991565557886D-03 0.100000000000D+01
0.788693080278D-04 0.000000000000D+00 0.000000000000D+00 0.310479920193D-06 0.255120297191D-09  6 21 3 25 4 1 -2 2 0.22912651D+00 0.31549648D-01 0.26084258D+06 0.26084258D+06 0.26084258D+06 0.10890747D+01  1  2 11  5  6  1        2 0.368926324226D-03 0.100000000000D+01
  </mgrwgt>
  </event>
  <event>
  6     66 0.17338086E-05 0.67217778E+02 0.75467711E-02 0.93820905E-01
        2 -1    0    0  502    0 0.00000000E+00 0.00000000E+00 0.28463648E+04 0.28463649E+04 0.32000000E+00 0.0000E+00 0.9000E+01
        3 -1    0    0  501    0 0.00000000E+00 0.00000000E+00 -.50216955E+03 0.50216980E+03 0.50000000E+00 0.0000E+00 0.9000E+01
       25  1    1    2    0    0 -.41995884E+03 -.28981655E+03 0.15200717E+04 0.16082916E+04 0.12500000E+03 0.0000E+00 0.9000E+01
        4  1    1    2  501    0 0.41791231E+03 0.21119072E+03 -.33641115E+03 0.57656490E+03 0.15500000E+01 0.0000E+00 0.9000E+01
        1  1    1    2  503    0 0.68081131E+01 0.71341247E+02 0.84850898E+03 0.85153011E+03 0.32000000E+00 0.0000E+00 0.9000E+01
       21  1    1    2  502  503 -.47615820E+01 0.72845791E+01 0.31202578E+03 0.31214802E+03 0.75000000E+00 0.0000E+00 0.9000E+01
#aMCatNLO 2  0  0  5  1 0.14775834D+02 0.00000000D+00  -5  6  0 0.00000000D+00 0.00000000D+00 0.00000000D+00 0.00000000D+00 0.00000000D+00
  <mgrwgt>
 0.4355584015D-02    2    2    0
 0.119555769752406D+04 0.000000000000000D+00 0.000000000000000D+00 0.119555769752406D+04
 0.119555769752406D+04 -.000000000000000D+00 -.000000000000000D+00 -.119555769752406D+04
 0.762301612985906D+03 -.420136830740070D+03 -.289878893019330D+03 0.552208312141796D+03
 0.113778251730205D+04 0.418089007829740D+03 0.211203437264613D+03 -.103689138596950D+04
 0.491031264760154D+03 0.204782291032999D+01 0.786754557547173D+02 0.484683073827704D+03
 0.000000000000000D+00 0.000000000000000D+00 0.000000000000000D+00 0.000000000000000D+00
 0.119555769752406D+04 0.000000000000000D+00 0.000000000000000D+00 0.119555769752406D+04
 0.119555769752406D+04 -.000000000000000D+00 -.000000000000000D+00 -.119555769752406D+04
 0.762538183981567D+03 -.420135317399845D+03 -.289820751892318D+03 0.552566492719029D+03
 0.113731245637196D+04 0.418091265767097D+03 0.211290185122383D+03 -.103635697256256D+04
 0.360026006955526D+03 0.680588902729284D+01 0.712452085062471D+02 0.352840652170055D+03
 0.131238747739058D+03 -.476183739454425D+01 0.728535826368693D+01 0.130949827673478D+03
-.106640516917D-01 0.000000000000D+00 0.000000000000D+00 0.521458544140D-04 0.000000000000D+00  6 2 3 25 4 1 21 2 0.43790230D+00 0.77256875D-01 0.28848000D+06 0.28848000D+06 0.28848000D+06 0.10858123D+01  1  2 13  4  6  5        1 -.381979879980D-02 0.100000000000D+01
0.228238997670D-01 0.000000000000D+00 0.000000000000D+00 0.521458544140D-04 0.472130870194D-05  6 2 3 25 4 1 21 2 0.43790230D+00 0.77256875D-01 0.28848000D+06 0.28848000D+06 0.28848000D+06 0.10858123D+01  1  2  1  4  6  5        1 0.817538281484D-02 0.100000000000D+01
  </mgrwgt>
  </event>
  <event>
  5     66 0.17338086E-05 0.48163081E+02 0.75467711E-02 0.94088877E-01
        2 -1    0    0  502    0 0.00000000E+00 0.00000000E+00 0.12833300E+04 0.12833301E+04 0.32000000E+00 0.0000E+00 0.9000E+01
        3 -1    0    0  501    0 0.00000000E+00 0.00000000E+00 -.69936012E+03 0.69936030E+03 0.50000000E+00 0.0000E+00 0.9000E+01
       25  1    1    2    0    0 -.39663897E+03 -.26802109E+03 -.19964494E+03 0.53351746E+03 0.12500000E+03 0.0000E+00 0.9000E+01
        4  1    1    2  501    0 0.38020060E+03 0.31329286E+03 -.14948325E+03 0.51483255E+03 0.15500000E+01 0.0000E+00 0.9000E+01
        1  1    1    2  502    0 0.16438374E+02 -.45271770E+02 0.93309808E+03 0.93434035E+03 0.32000000E+00 0.0000E+00 0.9000E+01
#aMCatNLO 1  0  0  2  4 0.19700275D+02 0.00000000D+00  -5  6  0 0.00000000D+00 0.00000000D+00 0.00000000D+00 0.00000000D+00 0.00000000D+00
  <mgrwgt>
 0.1085961969D-01    9    2    0
 0.947370069465067D+03 0.000000000000000D+00 0.000000000000000D+00 0.947370069465067D+03
 0.947370069465067D+03 0.000000000000000D+00 0.000000000000000D+00 -.947370069465067D+03
 0.619820700955370D+03 -.396648131202256D+03 -.268028288317932D+03 -.373341396054500D+03
 0.584805653920041D+03 0.380210008671961D+03 0.313299366314220D+03 -.315089684422741D+03
 0.690113784054723D+03 0.164381225302951D+02 -.452710779962872D+02 0.688431080477241D+03
 0.000000000000000D+00 0.000000000000000D+00 -.000000000000000D+00 -.000000000000000D+00
 0.950132179240808D+03 0.000000000000000D+00 0.000000000000000D+00 0.950132179240808D+03
 0.983212004041323D+03 0.000000000000000D+00 0.000000000000000D+00 -.983212004041323D+03
 0.617888468413280D+03 -.397852287911138D+03 -.261707696474633D+03 -.373341396054500D+03
 0.587297366414094D+03 0.379069679626685D+03 0.319284928167664D+03 -.315089684422741D+03
 0.689656716656853D+03 0.150957555621354D+02 -.382250235690815D+02 0.688431080477241D+03
 0.385016317979053D+02 0.368685272231771D+01 -.193522081239494D+02 -.330798248005149D+02
0.128997745211D-02 0.000000000000D+00 0.000000000000D+00 0.226956540911D-04 0.000000000000D+00  6 2 3 25 4 1 21 0 0.19743540D+00 0.10759388D+00 0.26811264D+06 0.26811264D+06 0.26811264D+06 0.10881812D+01  1  2  2  2  6  2        3 0.137132074370D-02 0.100000000000D+01
0.578667364228D-03 0.000000000000D+00 -.495385307498D-05 0.226956540911D-04 0.000000000000D+00  6 2 3 25 4 1 21 2 0.19743540D+00 0.10759388D+00 0.26811264D+06 0.26811264D+06 0.26811264D+06 0.10881812D+01  1  2  3  2  6  2        3 0.728430846167D-03 0.100000000000D+01
-.974960806994D-03 0.000000000000D+00 0.000000000000D+00 0.226956540911D-04 0.000000000000D+00  6 2 3 25 4 1 21 2 0.19743540D+00 0.10759388D+00 0.26811264D+06 0.26811264D+06 0.26811264D+06 0.10881812D+01  1  2 15  2  6  2        3 -.122728802335D-02 0.100000000000D+01
0.111307301516D-01 0.000000000000D+00 0.000000000000D+00 0.226956540911D-04 0.000000000000D+00  6 2 3 25 4 1 21 2 0.19743540D+00 0.11276973D+00 0.27497405D+06 0.27497405D+06 0.27497405D+06 0.10873618D+01  1  2 12  2  6  2        3 0.124234939397D-01 0.100000000000D+01
-.660949627365D-02 0.000000000000D+00 0.000000000000D+00 0.226956540911D-04 0.000000000000D+00  6 2 3 25 4 1 21 2 0.19743540D+00 0.10759388D+00 0.26811264D+06 0.26811264D+06 0.26811264D+06 0.10881812D+01  1  2  4  2  6  2        3 -.832008380113D-02 0.100000000000D+01
-.751922264988D-01 0.000000000000D+00 -.654746540744D-02 0.226956540911D-04 0.000000000000D+00  6 2 3 25 4 1 21 2 0.19743540D+00 0.11183199D+00 0.26811264D+06 0.26811264D+06 0.26811264D+06 0.10881812D+01  1  2  5  2  6  2        3 -.859443762866D-01 0.100000000000D+01
0.753937913473D-01 0.000000000000D+00 0.654258214070D-02 0.226956540911D-04 0.000000000000D+00  6 2 3 25 4 1 21 2 0.19743540D+00 0.10759388D+00 0.26811264D+06 0.26811264D+06 0.26811264D+06 0.10881812D+01  1  2  6  2  6  2        3 0.949062736589D-01 0.100000000000D+01
0.310613424248D-03 0.000000000000D+00 0.000000000000D+00 0.226956540911D-04 0.000000000000D+00  6 2 21 25 4 1 -3 2 0.19743540D+00 0.11276973D+00 0.27497405D+06 0.27497405D+06 0.27497405D+06 0.10873618D+01  1  2 12  6  6  2        3 0.447059146366D-02 0.100000000000D+01
-.510969496189D-03 0.000000000000D+00 -.447972815937D-04 0.226956540911D-04 0.000000000000D+00  6 2 21 25 4 1 -3 2 0.19743540D+00 0.11183199D+00 0.26811264D+06 0.26811264D+06 0.26811264D+06 0.10881812D+01  1  2  5  6  6  2        3 -.754874285346D-02 0.100000000000D+01
  </mgrwgt>
  </event>
  <event>
  5     66 0.17338086E-05 0.15432787E+03 0.75467711E-02 0.88269634E-01
        2 -1    0    0  502    0 0.00000000E+00 0.00000000E+00 0.41403101E+04 0.41403101E+04 0.32000000E+00 0.0000E+00 0.9000E+01
        3 -1    0    0  501    0 0.00000000E+00 0.00000000E+00 -.35945145E+03 0.35945180E+03 0.50000000E+00 0.0000E+00 0.9000E+01
       25  1    1    2    0    0 -.36993853E+03 0.26174989E+03 0.11431467E+04 0.12360327E+04 0.12500000E+03 0.0000E+00 0.9000E+01
        4  1    1    2  501    0 0.24473462E+03 -.17151001E+03 -.23913126E+03 0.38274910E+03 0.15500000E+01 0.0000E+00 0.9000E+01
        1  1    1    2  502    0 0.12520391E+03 -.90239882E+02 0.28768432E+04 0.28809801E+04 0.32000000E+00 0.0000E+00 0.9000E+01
#aMCatNLO 1  0  0  2  4 0.60873380D+02 0.00000000D+00  -5  6  0 0.00000000D+00 0.00000000D+00 0.00000000D+00 0.00000000D+00 0.00000000D+00
  <mgrwgt>
 0.4481386411D-02    6    2    0
 0.121993494180500D+04 0.000000000000000D+00 0.000000000000000D+00 0.121993494180500D+04
 0.121993494180500D+04 0.000000000000000D+00 0.000000000000000D+00 -.121993494180500D+04
 0.508159564281061D+03 -.369947341679516D+03 0.261755971820230D+03 0.192935010744614D+03
 0.107646310912427D+04 0.244749115801982D+03 -.171520190364133D+03 -.103414289144058D+04
 0.855247210204675D+03 0.125198225877535D+03 -.902357814560966D+02 0.841207880695969D+03
 0.000000000000000D+00 0.000000000000000D+00 0.000000000000000D+00 -.000000000000000D+00
 0.150191015616796D+04 0.000000000000000D+00 0.000000000000000D+00 0.150191015616796D+04
 0.168198089010844D+04 0.000000000000000D+00 0.000000000000000D+00 -.168198089010844D+04
 0.515425569306206D+03 -.436751937300025D+03 0.148533983950735D+03 0.192935010744614D+03
 0.111866897287075D+04 0.101483151634107D+03 -.414330690247571D+03 -.103414289144058D+04
 0.887615770910534D+03 0.114497423807984D+02 -.283019366163361D+03 0.841207880695969D+03
 0.662180733188903D+03 0.323819043285120D+03 0.548816072460197D+03 -.180070733940488D+03
0.101005028653D+00 0.000000000000D+00 0.000000000000D+00 0.130689274120D-03 0.000000000000D+00  6 2 3 25 4 1 21 0 0.63697081D+00 0.55300251D-01 0.21312225D+06 0.21312225D+06 0.21312225D+06 0.10957120D+01  1  2  2  2  6  2        3 0.761595833760D-02 0.100000000000D+01
0.142222441497D-01 0.000000000000D+00 -.387885905262D-03 0.130689274120D-03 0.000000000000D+00  6 2 3 25 4 1 21 2 0.63697081D+00 0.55300251D-01 0.21312225D+06 0.21312225D+06 0.21312225D+06 0.10957120D+01  1  2  3  2  6  2        3 0.128748602739D-02 0.100000000000D+01
-.744003429027D-01 0.000000000000D+00 0.000000000000D+00 0.130689274120D-03 0.000000000000D+00  6 2 3 25 4 1 21 2 0.63697081D+00 0.55300251D-01 0.21312225D+06 0.21312225D+06 0.21312225D+06 0.10957120D+01  1  2 15  2  6  2        3 -.673518193836D-02 0.100000000000D+01
-.742942257782D-03 0.000000000000D+00 0.000000000000D+00 0.130689274120D-03 0.000000000000D+00  6 2 3 25 4 1 21 2 0.63697081D+00 0.55300251D-01 0.21312225D+06 0.21312225D+06 0.21312225D+06 0.10957120D+01  1  2  4  2  6  2        3 -.672557555602D-04 0.100000000000D+01
0.685831879161D-01 0.000000000000D+00 -.496479402649D-01 0.130689274120D-03 0.000000000000D+00  6 2 3 25 4 1 21 2 0.63697081D+00 0.12993539D+00 0.21312225D+06 0.21312225D+06 0.21312225D+06 0.10957120D+01  1  2  5  2  6  2        3 0.858730752977D-03 0.100000000000D+01
0.952640702143D-02 0.000000000000D+00 -.462733390219D-02 0.130689274120D-03 0.000000000000D+00  6 2 21 25 4 1 -3 2 0.63697081D+00 0.12993539D+00 0.21312225D+06 0.21312225D+06 0.21312225D+06 0.10957120D+01  1  2  5  6  6  2        3 0.152164898652D-02 0.100000000000D+01
  </mgrwgt>
  </event>
  <event>
  6     66 0.17338086E-05 0.11923072E+02 0.75467711E-02 0.92821064E-01
        2 -1    0    0  502    0 0.00000000E+00 0.00000000E+00 0.24360818E+04 0.24360818E+04 0.32000000E+00 0.0000E+00 0.9000E+01
       21 -1    0    0  501  503 0.00000000E+00 0.00000000E+00 -.21932905E+03 0.21933033E+03 0.75000000E+00 0.0000E+00 0.9000E+01
       25  1    1    2    0    0 0.23581352E+03 -.52385717E+03 0.10892070E+04 0.12377525E+04 0.12500000E+03 0.0000E+00 0.9000E+01
        4  1    1    2  501    0 0.96558224E+01 0.16404065E+02 -.31457351E+02 0.36800757E+02 0.15500000E+01 0.0000E+00 0.9000E+01
        1  1    1    2  502    0 -.23165472E+03 0.50416752E+03 0.12082757E+04 0.13295785E+04 0.32000000E+00 0.0000E+00 0.9000E+01
       -3  1    1    2    0  503 -.13814617E+02 0.32855854E+01 -.49272587E+02 0.51280372E+02 0.50000000E+00 0.0000E+00 0.9000E+01
#aMCatNLO 2  0  0  2  2 0.14199955D+02 0.00000000D+00  -5  6  0 0.00000000D+00 0.00000000D+00 0.00000000D+00 0.00000000D+00 0.00000000D+00
  <mgrwgt>
 0.7758022912D-03    1    2    0
 0.641566404535965D+03 0.000000000000000D+00 0.000000000000000D+00 0.641566404535965D+03
 0.641566404535965D+03 0.000000000000000D+00 0.000000000000000D+00 -.641566404535965D+03
 0.584688038923998D+03 0.229551293232213D+03 -.522438837818818D+03 0.244738099758078D+02
 0.129990687814767D+03 0.824449608706945D+01 0.167300034064748D+02 -.128645692461294D+03
 0.568454082333166D+03 -.237795789319283D+03 0.505708834412343D+03 0.104171882485486D+03
 0.000000000000000D+00 -.000000000000000D+00 0.000000000000000D+00 -.000000000000000D+00
 0.641869872999315D+03 0.000000000000000D+00 0.000000000000000D+00 0.641869872999315D+03
 0.832418998423099D+03 0.000000000000000D+00 0.000000000000000D+00 -.832418998423099D+03
 0.588533018860784D+03 0.235866736065464D+03 -.523940864728531D+03 0.244738099758078D+02
 0.130044571656633D+03 0.964426453217561D+01 0.163970909049402D+02 -.128645692461294D+03
 0.564633788968380D+03 -.231696383219493D+03 0.504258188378954D+03 0.104171882485486D+03
 0.191077491936617D+03 -.138146173781474D+02 0.328558544463652D+01 -.190549125423785D+03
0.150714277006D-04 0.000000000000D+00 0.000000000000D+00 0.137237846284D-05 0.192077712454D-08  6 2 21 25 4 1 -3 2 0.37478172D+00 0.33743013D-01 0.34585453D+06 0.34585453D+06 0.34585453D+06 0.10800111D+01  1  2  1  6  6  2        3 0.775802291193D-03 0.100000000000D+01
  </mgrwgt>
  </event>
  <event>
  5     66 -.17338086E-05 0.66014475E+02 0.75467711E-02 0.92542412E-01
        2 -1    0    0  502    0 0.00000000E+00 0.00000000E+00 0.82600721E+03 0.82600727E+03 0.32000000E+00 0.0000E+00 0.9000E+01
        3 -1    0    0  501    0 0.00000000E+00 0.00000000E+00 -.69982574E+03 0.69982592E+03 0.50000000E+00 0.0000E+00 0.9000E+01
       25  1    1    2    0    0 -.49610109E+03 0.26654603E+03 -.10783570E+02 0.57697865E+03 0.12500000E+03 0.0000E+00 0.9000E+01
        4  1    1    2  501    0 0.46192064E+03 -.32305361E+03 -.20558105E+03 0.60000023E+03 0.15500000E+01 0.0000E+00 0.9000E+01
        1  1    1    2  502    0 0.34180455E+02 0.56507577E+02 0.34254608E+03 0.34885431E+03 0.32000000E+00 0.0000E+00 0.9000E+01
#aMCatNLO 1  0  0  5  1 0.82479360D+01 0.00000000D+00  -5  6  0 0.00000000D+00 0.00000000D+00 0.00000000D+00 0.00000000D+00 0.00000000D+00
  <mgrwgt>
 -.1098297595D-01    8    2    0
 0.760303422450823D+03 0.000000000000000D+00 0.000000000000000D+00 0.760303422450823D+03
 0.760303422450823D+03 -.000000000000000D+00 -.000000000000000D+00 -.760303422450823D+03
 0.579931310761104D+03 -.496165610793526D+03 0.266605158957568D+03 -.586233834249572D+02
 0.619176215948073D+03 0.461998869036098D+03 -.323090065344178D+03 -.256025469594405D+03
 0.321499318192470D+03 0.341667417574272D+02 0.564849063866100D+02 0.314648853019362D+03
 0.000000000000000D+00 0.000000000000000D+00 0.000000000000000D+00 0.000000000000000D+00
 0.760303422450823D+03 0.000000000000000D+00 0.000000000000000D+00 0.760303422450823D+03
 0.760303422450823D+03 -.000000000000000D+00 -.000000000000000D+00 -.760303422450823D+03
 0.579909103911916D+03 -.496143942230615D+03 0.266640981710472D+03 -.584238329815850D+02
 0.619085460483311D+03 0.462022002693708D+03 -.323051820477467D+03 -.255812426779706D+03
 0.234008730219024D+03 0.299740775211260D+02 0.473325111252433D+02 0.227203155537189D+03
 0.876035502873968D+02 0.414786201578113D+01 0.907832764175128D+01 0.870331042241026D+02
0.160053393270D-04 0.000000000000D+00 0.000000000000D+00 0.184160421311D-05 0.000000000000D+00  6 2 3 25 4 1 21 0 0.12707805D+00 0.10766552D+00 0.36405501D+06 0.36405501D+06 0.36405501D+06 0.10783880D+01  1  2  2  4  6  5        1 0.320242896173D-04 0.100000000000D+01
0.420990439282D-05 0.000000000000D+00 -.614647173185D-07 0.184160421311D-05 0.000000000000D+00  6 2 3 25 4 1 21 2 0.12707805D+00 0.10766552D+00 0.36405501D+06 0.36405501D+06 0.36405501D+06 0.10783880D+01  1  2  3  4  6  5        1 0.979573356977D-05 0.100000000000D+01
-.106489878981D-04 0.000000000000D+00 0.000000000000D+00 0.184160421311D-05 0.000000000000D+00  6 2 3 25 4 1 21 2 0.12707805D+00 0.10766552D+00 0.36405501D+06 0.36405501D+06 0.36405501D+06 0.10783880D+01  1  2 15  4  6  5        1 -.247783888905D-04 0.100000000000D+01
0.153041700185D-02 0.000000000000D+00 0.000000000000D+00 0.184160421311D-05 0.000000000000D+00  6 2 3 25 4 1 21 2 0.12707805D+00 0.10766552D+00 0.36404693D+06 0.36404693D+06 0.36404693D+06 0.10783887D+01  1  2 12  4  6  5        1 0.356102829483D-02 0.100000000000D+01
-.687109231608D-02 0.000000000000D+00 0.000000000000D+00 0.184160421311D-05 0.000000000000D+00  6 2 3 25 4 1 21 2 0.12707805D+00 0.10766552D+00 0.36405501D+06 0.36405501D+06 0.36405501D+06 0.10783880D+01  1  2  4  4  6  5        1 -.159878665597D-01 0.100000000000D+01
-.163766358495D-02 0.000000000000D+00 0.000000000000D+00 0.184160421311D-05 0.000000000000D+00  6 2 3 25 4 1 21 2 0.12707805D+00 0.10766552D+00 0.36405501D+06 0.36405501D+06 0.36405501D+06 0.10783880D+01  1  2  5  4  6  5        1 -.381056543290D-02 0.100000000000D+01
0.223954156577D-02 0.000000000000D+00 -.000000000000D+00 0.184160421311D-05 0.000000000000D+00  6 2 3 25 4 1 21 2 0.12707805D+00 0.10766552D+00 0.36405501D+06 0.36405501D+06 0.36405501D+06 0.10783880D+01  1  2  6  4  6  5        1 0.521103342255D-02 0.100000000000D+01
0.113255499271D-04 0.000000000000D+00 0.000000000000D+00 0.184160421311D-05 0.308946318909D-06  6 2 3 25 4 1 21 2 0.12707805D+00 0.10766552D+00 0.36404693D+06 0.36404693D+06 0.36404693D+06 0.10783887D+01  1  2 11  4  6  5        1 0.263526892972D-04 0.100000000000D+01
  </mgrwgt>
  </event>
  <event>
  6     66 -.17338086E-05 0.10080013E+03 0.75467711E-02 0.88318969E-01
        2 -1    0    0  502    0 0.00000000E+00 0.00000000E+00 0.17840306E+04 0.17840306E+04 0.32000000E+00 0.0000E+00 0.9000E+01
        3 -1    0    0  501    0 0.00000000E+00 0.00000000E+00 -.14700517E+04 0.14700518E+04 0.50000000E+00 0.0000E+00 0.9000E+01
       25  1    1    2    0    0 0.34373796E+03 0.80838074E+03 -.10334338E+02 0.88733703E+03 0.12500000E+03 0.0000E+00 0.9000E+01
        4  1    1    2  503    0 -.23420948E+03 -.77216788E+03 -.82428184E+03 0.11534905E+04 0.15500000E+01 0.0000E+00 0.9000E+01
        1  1    1    2  502    0 -.98235265E+02 -.44259419E+02 0.11768498E+04 0.11817719E+04 0.32000000E+00 0.0000E+00 0.9000E+01
       21  1    1    2  501  503 -.11293209E+02 0.80465595E+01 -.28254817E+02 0.31483025E+02 0.75000000E+00 0.0000E+00 0.9000E+01
#aMCatNLO 2  0  0  4  2 0.26787557D+02 0.00000000D+00  -5  6  0 0.00000000D+00 0.00000000D+00 0.00000000D+00 0.00000000D+00 0.00000000D+00
  <mgrwgt>
 -.1903826418D-03    3    2    0
 0.161944970532242D+04 0.000000000000000D+00 0.000000000000000D+00 0.161944970532242D+04
 0.161944970532242D+04 -.000000000000000D+00 -.000000000000000D+00 -.161944970532242D+04
 0.894493097021325D+03 0.344452836337907D+03 0.810610791114263D+03 -.935697038933076D+02
 0.126806721901398D+04 -.247070528402278D+03 -.768994680411521D+03 -.977546831324029D+03
 0.107633909460954D+04 -.973823079356288D+02 -.416161107027416D+02 0.107111653521734D+04
 0.000000000000000D+00 0.000000000000000D+00 0.000000000000000D+00 -.000000000000000D+00
 0.161944970532242D+04 0.000000000000000D+00 0.000000000000000D+00 0.161944970532242D+04
 0.161944970532242D+04 -.000000000000000D+00 -.000000000000000D+00 -.161944970532242D+04
 0.892526394498703D+03 0.343746516946792D+03 0.808412407284548D+03 -.963642916863235D+02
 0.123880688648741D+04 -.234211945939604D+03 -.772217193922078D+03 -.939929716414443D+03
 0.107317723276721D+04 -.982319041883550D+02 -.442604366086636D+02 0.106775506539684D+04
 0.343888968915197D+02 -.113026668188329D+02 0.806522324619436D+01 -.314610572960776D+02
-.316625469909D-02 0.000000000000D+00 0.000000000000D+00 0.126514292185D-04 0.000000000000D+00  6 2 3 25 4 1 21 2 0.27446625D+00 0.22616181D+00 0.82436488D+06 0.82436488D+06 0.82436488D+06 0.10534937D+01  1  2 13  3  6  4        4 -.174803217910D-03 0.100000000000D+01
-.231247321696D-01 0.000000000000D+00 0.000000000000D+00 0.126514292185D-04 0.000000000000D+00  6 2 3 25 4 1 21 2 0.27446625D+00 0.22616181D+00 0.81288103D+06 0.81288103D+06 0.81288103D+06 0.10539062D+01  1  2  8  3  6  4        4 -.127922828001D-02 0.100000000000D+01
0.228887899000D-01 0.000000000000D+00 0.000000000000D+00 0.126514292185D-04 0.202866868660D-06  6 2 3 25 4 1 21 2 0.27446625D+00 0.22616181D+00 0.82436488D+06 0.82436488D+06 0.82436488D+06 0.10534937D+01  1  2  1  3  6  4        4 0.126364885609D-02 0.100000000000D+01
  </mgrwgt>
  </event>
  <event>
  5     66 0.17338086E-05 0.58373688E+02 0.75467711E-02 0.94970105E-01
        2 -1    0    0  502    0 0.00000000E+00 0.00000000E+00 0.14010559E+04 0.14010559E+04 0.32000000E+00 0.0000E+00 0.9000E+01
        3 -1    0    0  501    0 0.00000000E+00 0.00000000E+00 -.11798055E+04 0.11798056E+04 0.50000000E+00 0.0000E+00 0.9000E+01
       25  1    1    2    0    0 -.44630054E+03 -.13322737E+03 -.45924663E+03 0.66593255E+03 0.12500000E+03 0.0000E+00 0.9000E+01
        4  1    1    2  501    0 0.49520371E+02 -.30968278E+02 -.58018546E+03 0.58311994E+03 0.15500000E+01 0.0000E+00 0.9000E+01
        1  1    1    2  502    0 0.39678016E+03 0.16419565E+03 0.12606825E+04 0.13318090E+04 0.32000000E+00 0.0000E+00 0.9000E+01
#aMCatNLO 1  0  0  4  5 0.22269846D+02 0.00000000D+00  -5  6  0 0.00000000D+00 0.00000000D+00 0.00000000D+00 0.00000000D+00 0.00000000D+00
  <mgrwgt>
 0.6047260554D-02    6    2    0
 0.128568019266787D+04 0.000000000000000D+00 0.000000000000000D+00 0.128568019266787D+04
 0.128568019266787D+04 -.000000000000000D+00 -.000000000000000D+00 -.128568019266787D+04
 0.708210038716800D+03 -.446292060929751D+03 -.133252795128930D+03 -.518655519473817D+03
 0.634835640692161D+03 0.494928137212554D+02 -.309507489427957D+02 -.632146188173954D+03
 0.122831470592677D+04 0.396799247208494D+03 0.164203544071726D+03 0.115080170764777D+04
 0.000000000000000D+00 0.000000000000000D+00 0.000000000000000D+00 0.000000000000000D+00
 0.128568019266787D+04 0.000000000000000D+00 0.000000000000000D+00 0.128568019266787D+04
 0.128568019266787D+04 -.000000000000000D+00 -.000000000000000D+00 -.128568019266787D+04
 0.709236572640647D+03 -.446176048060977D+03 -.133325344755948D+03 -.520137292023412D+03
 0.583769911955883D+03 0.249881772450482D+02 -.199543532399455D+02 -.582893407828331D+03
 0.122595950131008D+04 0.397000120658865D+03 0.164077926163504D+03 0.114823605464869D+04
 0.523943994291208D+02 0.241877501570634D+02 -.107982281676103D+02 -.452053547969481D+02
0.903243376021D-02 0.000000000000D+00 0.000000000000D+00 0.326907156700D-03 0.000000000000D+00  6 2 3 25 4 1 21 0 0.21554707D+00 0.18150854D+00 0.23524875D+06 0.23524875D+06 0.23524875D+06 0.10924517D+01  1  2  2  3  6  4        4 0.187306592172D-02 0.100000000000D+01
0.247970506808D-02 0.000000000000D+00 -.346869239336D-04 0.326907156700D-03 0.000000000000D+00  6 2 3 25 4 1 21 2 0.21554707D+00 0.18150854D+00 0.23524875D+06 0.23524875D+06 0.23524875D+06 0.10924517D+01  1  2  3  3  6  4        4 0.613695302991D-03 0.100000000000D+01
-.662616958280D-02 0.000000000000D+00 0.000000000000D+00 0.326907156700D-03 0.000000000000D+00  6 2 3 25 4 1 21 2 0.21554707D+00 0.18150854D+00 0.23524875D+06 0.23524875D+06 0.23524875D+06 0.10924517D+01  1  2 15  3  6  4        4 -.163989226063D-02 0.100000000000D+01
-.224311402340D-02 0.000000000000D+00 0.000000000000D+00 0.326907156700D-03 0.000000000000D+00  6 2 3 25 4 1 21 2 0.21554707D+00 0.18150854D+00 0.23524875D+06 0.23524875D+06 0.23524875D+06 0.10924517D+01  1  2  4  3  6  4        4 -.555142044089D-03 0.100000000000D+01
-.267160394759D+00 0.000000000000D+00 0.000000000000D+00 0.326907156700D-03 0.000000000000D+00  6 2 3 25 4 1 21 2 0.21554707D+00 0.18150854D+00 0.23524875D+06 0.23524875D+06 0.23524875D+06 0.10924517D+01  1  2  5  3  6  4        4 -.661187822372D-01 0.100000000000D+01
0.290416277363D+00 0.000000000000D+00 -.000000000000D+00 0.326907156700D-03 0.000000000000D+00  6 2 3 25 4 1 21 2 0.21554707D+00 0.18150854D+00 0.23524875D+06 0.23524875D+06 0.23524875D+06 0.10924517D+01  1  2  6  3  6  4        4 0.718743158707D-01 0.100000000000D+01
  </mgrwgt>
  </event>
  <event>
  5     66 -.17338086E-05 0.10028817E+03 0.75467711E-02 0.93810735E-01
        2 -1    0    0  502    0 0.00000000E+00 0.00000000E+00 0.36830320E+04 0.36830320E+04 0.32000000E+00 0.0000E+00 0.9000E+01
        3 -1    0    0  501    0 0.00000000E+00 0.00000000E+00 -.13398165E+04 0.13398166E+04 0.50000000E+00 0.0000E+00 0.9000E+01
       25  1    1    2    0    0 0.26587640E+03 -.45395252E+03 -.42280954E+03 0.68640809E+03 0.12500000E+03 0.0000E+00 0.9000E+01
        4  1    1    2  501    0 -.18074036E+02 0.98677907E+02 -.76872720E+03 0.77524699E+03 0.15500000E+01 0.0000E+00 0.9000E+01
        1  1    1    2  502    0 -.24780236E+03 0.35527462E+03 0.35347522E+04 0.35611935E+04 0.32000000E+00 0.0000E+00 0.9000E+01
#aMCatNLO 1  0  0  4  2 0.62832706D+01 0.00000000D+00  -5  6  0 0.00000000D+00 0.00000000D+00 0.00000000D+00 0.00000000D+00 0.00000000D+00
  <mgrwgt>
 -.1598148971D-01    8    2    0
 0.222139310211431D+04 0.000000000000000D+00 0.000000000000000D+00 0.222139310211431D+04
 0.222139310211431D+04 -.000000000000000D+00 -.000000000000000D+00 -.222139310211431D+04
 0.999297665661793D+03 0.265874229645399D+03 -.453927460756278D+03 -.840375855780574D+03
 0.128160133100470D+04 -.180679191910730D+02 0.986471865870833D+02 -.127767141883490D+04
 0.216188720756212D+04 -.247806310454327D+03 0.355280274169196D+03 0.211804727461547D+04
 0.000000000000000D+00 0.000000000000000D+00 0.000000000000000D+00 -.000000000000000D+00
 0.222139310211431D+04 0.000000000000000D+00 0.000000000000000D+00 0.222139310211431D+04
 0.222139310211431D+04 -.000000000000000D+00 -.000000000000000D+00 -.222139310211431D+04
 0.999324663157897D+03 0.265873753693438D+03 -.453924862154776D+03 -.840409512684365D+03
 0.113278462931013D+04 -.132679593994977D+02 0.928498901003247D+02 -.112889497986439D+04
 0.216181691463711D+04 -.247807340101313D+03 0.355285895833612D+03 0.211797446321356D+04
 0.148859997123483D+03 -.479845419262739D+01 0.578907622084035D+01 -.148669970664805D+03
0.172217475597D-02 0.000000000000D+00 0.000000000000D+00 0.116298009825D-02 0.000000000000D+00  6 2 3 25 4 1 21 0 0.56662031D+00 0.20612563D+00 0.28845519D+06 0.28845519D+06 0.28845519D+06 0.10858150D+01  1  2  2  3  6  4        4 0.931347009750D-05 0.100000000000D+01
0.336301909699D-03 0.000000000000D+00 -.661360452194D-05 0.116298009825D-02 0.000000000000D+00  6 2 3 25 4 1 21 2 0.56662031D+00 0.20612563D+00 0.28845519D+06 0.28845519D+06 0.28845519D+06 0.10858150D+01  1  2  3  3  6  4        4 0.214424959813D-05 0.100000000000D+01
-.119405770549D-02 0.000000000000D+00 0.000000000000D+00 0.116298009825D-02 0.000000000000D+00  6 2 3 25 4 1 21 2 0.56662031D+00 0.20612563D+00 0.28845519D+06 0.28845519D+06 0.28845519D+06 0.10858150D+01  1  2 15  3  6  4        4 -.761327153160D-05 0.100000000000D+01
0.212948990932D+01 0.000000000000D+00 0.000000000000D+00 0.116298009825D-02 0.000000000000D+00  6 2 3 25 4 1 21 2 0.56662031D+00 0.20612563D+00 0.28900698D+06 0.28900698D+06 0.28900698D+06 0.10857534D+01  1  2 12  3  6  4        4 0.135727476941D-01 0.100000000000D+01
-.590185728753D+01 0.000000000000D+00 0.000000000000D+00 0.116298009825D-02 0.000000000000D+00  6 2 3 25 4 1 21 2 0.56662031D+00 0.20612563D+00 0.28845519D+06 0.28845519D+06 0.28845519D+06 0.10858150D+01  1  2  4  3  6  4        4 -.376300423875D-01 0.100000000000D+01
-.285653663156D+01 0.000000000000D+00 0.000000000000D+00 0.116298009825D-02 0.000000000000D+00  6 2 3 25 4 1 21 2 0.56662031D+00 0.20612563D+00 0.28845519D+06 0.28845519D+06 0.28845519D+06 0.10858150D+01  1  2  5  3  6  4        4 -.182131809175D-01 0.100000000000D+01
0.320745090876D+01 0.000000000000D+00 -.000000000000D+00 0.116298009825D-02 0.000000000000D+00  6 2 3 25 4 1 21 2 0.56662031D+00 0.20612563D+00 0.28845519D+06 0.28845519D+06 0.28845519D+06 0.10858150D+01  1  2  6  3  6  4        4 0.204505984764D-01 0.100000000000D+01
0.915407894506D+00 0.000000000000D+00 0.000000000000D+00 0.116298009825D-02 0.349210493931D-03  6 2 3 25 4 1 21 2 0.56662031D+00 0.20612563D+00 0.28900698D+06 0.28900698D+06 0.28900698D+06 0.10857534D+01  1  2 11  3  6  4        4 0.583454297432D-02 0.100000000000D+01
  </mgrwgt>
  </event>
  <event>
  5     66 -.17338086E-05 0.23587300E+02 0.75467711E-02 0.87643521E-01
        2 -1    0    0  502    0 0.00000000E+00 0.00000000E+00 0.41277793E+04 0.41277793E+04 0.32000000E+00 0.0000E+00 0.9000E+01
        3 -1    0    0  501    0 0.00000000E+00 0.00000000E+00 -.41652405E+03 0.41652435E+03 0.50000000E+00 0.0000E+00 0.9000E+01
       25  1    1    2    0    0 -.46097170E+03 -.82150580E+03 0.28119694E+04 0.29681920E+04 0.12500000E+03 0.0000E+00 0.9000E+01
        4  1    1    2  501    0 0.47870166E+03 0.80589894E+03 0.31136140E+03 0.98771287E+03 0.15500000E+01 0.0000E+00 0.9000E+01
        1  1    1    2  502    0 -.17729963E+02 0.15606862E+02 0.58792437E+03 0.58839875E+03 0.32000000E+00 0.0000E+00 0.9000E+01
#aMCatNLO 1  0  0  2  4 0.36019393D+02 0.00000000D+00  -5  6  0 0.00000000D+00 0.00000000D+00 0.00000000D+00 0.00000000D+00 0.00000000D+00
  <mgrwgt>
 -.5436584654D-03    7    2    0
 0.131122845231721D+04 0.000000000000000D+00 0.000000000000000D+00 0.131122845231721D+04
 0.131122845231721D+04 0.000000000000000D+00 0.000000000000000D+00 -.131122845231721D+04
 0.116416896457527D+04 -.461048254013858D+03 -.821583586936451D+03 0.672383294875531D+03
 0.127096967287439D+04 0.478753332954725D+03 0.805998629112918D+03 -.858210560072103D+03
 0.187318267184758D+03 -.177050789408670D+02 0.155849578235323D+02 0.185827265196571D+03
 0.000000000000000D+00 -.000000000000000D+00 0.000000000000000D+00 -.000000000000000D+00
 0.131259560403807D+04 0.000000000000000D+00 0.000000000000000D+00 0.131259560403807D+04
 0.157219281329619D+04 0.000000000000000D+00 0.000000000000000D+00 -.157219281329619D+04
 0.116367992775462D+04 -.446760464732821D+03 -.828753139470993D+03 0.672383294875531D+03
 0.127200174728842D+04 0.494361493741579D+03 0.798166519713219D+03 -.858210560072103D+03
 0.187022580747577D+03 -.154074628145948D+02 0.144320237203269D+02 0.185827265196571D+03
 0.262084161543648D+03 -.321935661941634D+02 0.161545960374471D+02 -.259597209258123D+03
0.110264954412D-03 0.000000000000D+00 0.000000000000D+00 0.532305770336D-05 0.000000000000D+00  6 2 3 25 4 1 21 0 0.63504299D+00 0.64080648D-01 0.91337618D+06 0.91337618D+06 0.91337618D+06 0.10504935D+01  1  2  2  2  6  2        3 0.545324486223D-05 0.100000000000D+01
0.562374128334D-04 0.000000000000D+00 -.423446458373D-06 0.532305770336D-05 0.000000000000D+00  6 2 3 25 4 1 21 2 0.63504299D+00 0.64080648D-01 0.91337618D+06 0.91337618D+06 0.91337618D+06 0.10504935D+01  1  2  3  2  6  2        3 0.306923072759D-05 0.100000000000D+01
-.745468815562D-04 0.000000000000D+00 0.000000000000D+00 0.532305770336D-05 0.000000000000D+00  6 2 3 25 4 1 21 2 0.63504299D+00 0.64080648D-01 0.91337618D+06 0.91337618D+06 0.91337618D+06 0.10504935D+01  1  2 15  2  6  2        3 -.406849405032D-05 0.100000000000D+01
-.110642455230D-01 0.000000000000D+00 0.000000000000D+00 0.532305770336D-05 0.000000000000D+00  6 2 3 25 4 1 21 2 0.63504299D+00 0.64080648D-01 0.91337618D+06 0.91337618D+06 0.91337618D+06 0.10504935D+01  1  2  4  2  6  2        3 -.603845742997D-03 0.100000000000D+01
-.122418165312D-01 0.000000000000D+00 -.135825941237D-03 0.532305770336D-05 0.000000000000D+00  6 2 3 25 4 1 21 2 0.63504299D+00 0.76868673D-01 0.91337618D+06 0.91337618D+06 0.91337618D+06 0.10504935D+01  1  2  5  2  6  2        3 -.446916737924D-03 0.100000000000D+01
0.120684164313D-01 0.000000000000D+00 0.133608084784D-03 0.532305770336D-05 0.000000000000D+00  6 2 3 25 4 1 21 2 0.63504299D+00 0.64080648D-01 0.91337618D+06 0.91337618D+06 0.91337618D+06 0.10504935D+01  1  2  6  2  6  2        3 0.658649690267D-03 0.100000000000D+01
-.324275713161D-03 0.000000000000D+00 -.361264906010D-05 0.532305770336D-05 0.000000000000D+00  6 2 21 25 4 1 -3 2 0.63504299D+00 0.76868673D-01 0.91337618D+06 0.91337618D+06 0.91337618D+06 0.10504935D+01  1  2  5  6  6  2        3 -.155999656321D-03 0.100000000000D+01
  </mgrwgt>
  </event>
  <event>
  6     66 0.17338086E-05 0.49477811E+02 0.75467711E-02 0.91893715E-01
        2 -1    0    0  502    0 0.00000000E+00 0.00000000E+00 0.19311137E+04 0.19311138E+04 0.32000000E+00 0.0000E+00 0.9000E+01
        3 -1    0    0  501    0 -.00000000E+00 -.00000000E+00 -.23094061E+04 0.23094061E+04 0.50000000E+00 0.0000E+00 0.9000E+01
       25  1    1    2    0    0 0.24169220E+02 0.54132927E+03 -.11720269E+04 0.12972639E+04 0.12500000E+03 0.0000E+00 0.9000E+01
        4  1    1    2  503    0 -.40458562E+02 0.54946816E+02 -.58667254E+03 0.59062942E+03 0.15500000E+01 0.0000E+00 0.9000E+01
        1  1    1    2  502    0 -.12253237E+02 -.62010431E+03 0.18141755E+04 0.19172669E+04 0.32000000E+00 0.0000E+00 0.9000E+01
       21  1    1    2  501  503 0.28542579E+02 0.23828226E+02 -.43376842E+03 0.43535970E+03 0.75000000E+00 0.0000E+00 0.9000E+01
#aMCatNLO 2  0  0  4  4 0.34897251D+02 0.00000000D+00  -5  6  0 0.00000000D+00 0.00000000D+00 0.00000000D+00 0.00000000D+00 0.00000000D+00
  <mgrwgt>
 0.5774328533D-02    1    2    0
 0.211180633676911D+04 0.000000000000000D+00 0.000000000000000D+00 0.211180633676911D+04
 0.211180633676911D+04 -.000000000000000D+00 -.000000000000000D+00 -.211180633676911D+04
 0.119827004479079D+04 0.241598835618798D+02 0.541409006720432D+03 -.106137584658366D+04
 0.936559501379449D+03 -.119230612228342D+02 0.788255756101433D+02 -.933160258939979D+03
 0.208878312736798D+04 -.122368223390455D+02 -.620234582330575D+03 0.199453610552364D+04
 0.000000000000000D+00 0.000000000000000D+00 0.000000000000000D+00 -.000000000000000D+00
 0.211180633676911D+04 0.000000000000000D+00 0.000000000000000D+00 0.211180633676911D+04
 0.211180633676911D+04 -.000000000000000D+00 -.000000000000000D+00 -.211180633676911D+04
 0.119896568825059D+04 0.241502612218538D+02 0.541472621800241D+03 -.106212894053684D+04
 0.538628092354640D+03 -.403864887243804D+02 0.547834589002439D+02 -.534310701776634D+03
 0.208749755168931D+04 -.122535856436234D+02 -.620123757005788D+03 0.199322412285843D+04
 0.398521341243669D+03 0.284898131461500D+02 0.238676763053027D+02 -.396784480544962D+03
0.157088121252D+01 0.000000000000D+00 0.000000000000D+00 0.244164508400D-03 0.264090853754D-06  6 2 3 25 4 1 21 2 0.29709443D+00 0.35529325D+00 0.41069527D+06 0.41069527D+06 0.41069527D+06 0.10746025D+01  1  2  1  3  6  4        4 0.577432853300D-02 0.100000000000D+01
  </mgrwgt>
  </event>
  <event>
  5     66 0.17338086E-05 0.44546426E+02 0.75467711E-02 0.86401732E-01
        2 -1    0    0  502    0 0.00000000E+00 0.00000000E+00 0.37002757E+04 0.37002757E+04 0.32000000E+00 0.0000E+00 0.9000E+01
        3 -1    0    0  501    0 0.00000000E+00 0.00000000E+00 -.13117406E+04 0.13117407E+04 0.50000000E+00 0.0000E+00 0.9000E+01
       25  1    1    2    0    0 0.30653810E+03 0.96652861E+03 0.83462134E+03 0.13192274E+04 0.12500000E+03 0.0000E+00 0.9000E+01
        4  1    1    2  501    0 -.40532079E+02 0.18476958E+02 -.96970166E+03 0.97072548E+03 0.15500000E+01 0.0000E+00 0.9000E+01
        1  1    1    2  502    0 -.26600602E+03 -.98500557E+03 0.25236154E+04 0.27220635E+04 0.32000000E+00 0.0000E+00 0.9000E+01
#aMCatNLO 1  0  0  1  4 0.85120440D+02 0.00000000D+00  -5  6  0 0.00000000D+00 0.00000000D+00 0.00000000D+00 0.00000000D+00 0.00000000D+00
  <mgrwgt>
 0.1800051448D-02    7    2    0
 0.220313463058289D+04 0.000000000000000D+00 0.000000000000000D+00 0.220313463058289D+04
 0.220313463058289D+04 0.000000000000000D+00 0.000000000000000D+00 -.220313463058289D+04
 0.104815398786187D+04 0.306534510605401D+03 0.966509136702318D+03 0.234304214109767D+03
 0.162986563586334D+04 -.405337267748792D+02 0.184770421786919D+02 -.162925676517677D+04
 0.172824963744056D+04 -.266000783830522D+03 -.984986178881010D+03 0.139495255106701D+04
 0.000000000000000D+00 0.000000000000000D+00 0.000000000000000D+00 0.000000000000000D+00
 0.227273507683312D+04 0.000000000000000D+00 0.000000000000000D+00 0.227273507683312D+04
 0.223444641483263D+04 0.000000000000000D+00 0.000000000000000D+00 -.223444641483263D+04
 0.103710016664672D+04 0.285386193795869D+03 0.961045270161482D+03 0.234304214109767D+03
 0.163094876559011D+04 -.736043891063364D+02 0.993292554645515D+01 -.162925676517677D+04
 0.173918736971073D+04 -.301166979848298D+03 -.994071696348925D+03 0.139495255106701D+04
 0.999451897181970D+02 0.893851751587651D+02 0.230935006409879D+02 0.382886620004924D+02
0.602350154139D-01 0.000000000000D+00 0.000000000000D+00 0.136439206226D-03 0.000000000000D+00  6 2 3 25 4 1 21 0 0.56927319D+00 0.20180626D+00 0.10883166D+07 0.10883166D+07 0.10883166D+07 0.10454260D+01  1  2  2  1  6  1        2 0.292267952570D-03 0.100000000000D+01
0.480943822605D-01 0.000000000000D+00 -.231318319433D-03 0.136439206226D-03 0.000000000000D+00  6 2 3 25 4 1 21 2 0.56927319D+00 0.20180626D+00 0.10883166D+07 0.10883166D+07 0.10883166D+07 0.10454260D+01  1  2  3  1  6  1        2 0.255042834351D-03 0.100000000000D+01
-.404034305760D-01 0.000000000000D+00 0.000000000000D+00 0.136439206226D-03 0.000000000000D+00  6 2 3 25 4 1 21 2 0.56927319D+00 0.20180626D+00 0.10883166D+07 0.10883166D+07 0.10883166D+07 0.10454260D+01  1  2 15  1  6  1        2 -.214257985388D-03 0.100000000000D+01
-.106967574381D-01 0.000000000000D+00 0.000000000000D+00 0.136439206226D-03 0.000000000000D+00  6 2 3 25 4 1 21 2 0.56927319D+00 0.20180626D+00 0.10883166D+07 0.10883166D+07 0.10883166D+07 0.10454260D+01  1  2  4  1  6  1        2 -.567245322043D-04 0.100000000000D+01
-.134729987459D+01 0.000000000000D+00 -.218898464622D+00 0.136439206226D-03 0.000000000000D+00  6 2 3 25 4 1 21 2 0.58917298D+00 0.20180626D+00 0.10883166D+07 0.10883166D+07 0.10883166D+07 0.10454260D+01  1  2  5  1  6  1        2 -.566941288355D-02 0.100000000000D+01
0.135657942132D+01 0.000000000000D+00 0.221327708147D+00 0.136439206226D-03 0.000000000000D+00  6 2 3 25 4 1 21 2 0.56927319D+00 0.20180626D+00 0.10883166D+07 0.10883166D+07 0.10883166D+07 0.10454260D+01  1  2  6  1  6  1        2 0.719389343149D-02 0.100000000000D+01
-.815661850443D-02 0.000000000000D+00 -.134029914308D-02 0.136439206226D-03 0.000000000000D+00  6 21 3 25 4 1 -2 2 0.58917298D+00 0.20180626D+00 0.10883166D+07 0.10883166D+07 0.10883166D+07 0.10454260D+01  1  2  5  5  6  1        2 -.757369008199D-06 0.100000000000D+01
  </mgrwgt>
  </event>
  <event>
  5     66 -.17338086E-05 0.17275604E+02 0.75467711E-02 0.94910816E-01
        2 -1    0    0  502    0 0.00000000E+00 0.00000000E+00 0.95679044E+03 0.95679049E+03 0.32000000E+00 0.0000E+00 0.9000E+01
        3 -1    0    0  501    0 0.00000000E+00 0.00000000E+00 -.54968366E+03 0.54968388E+03 0.50000000E+00 0.0000E+00 0.9000E+01
       25  1    1    2    0    0 -.44512700E+03 -.14775346E+03 -.13754508E+03 0.50449260E+03 0.12500000E+03 0.0000E+00 0.9000E+01
        4  1    1    2  501    0 0.15093898E+02 -.84400786E+01 -.16048455E+03 0.16142105E+03 0.15500000E+01 0.0000E+00 0.9000E+01
        1  1    1    2  502    0 0.43003310E+03 0.15619354E+03 0.70513641E+03 0.84056074E+03 0.32000000E+00 0.0000E+00 0.9000E+01
#aMCatNLO 1  0  0  1  5 0.15492962D+02 0.00000000D+00  -5  6  0 0.00000000D+00 0.00000000D+00 0.00000000D+00 0.00000000D+00 0.00000000D+00
  <mgrwgt>
 -.2595773502D-02    9    2    0
 0.725211886556335D+03 0.000000000000000D+00 0.000000000000000D+00 0.725211886556335D+03
 0.725211886556335D+03 0.000000000000000D+00 0.000000000000000D+00 -.725211886556335D+03
 0.562885460006261D+03 -.445181808412483D+03 -.147791384616051D+03 -.284931404338521D+03
 0.212307055760942D+03 0.150809958992378D+02 -.842674554930213D+01 -.211603023248758D+03
 0.675231257345467D+03 0.430100812513246D+03 0.156218130165353D+03 0.496534427587279D+03
 0.000000000000000D+00 0.000000000000000D+00 0.000000000000000D+00 0.000000000000000D+00
 0.869550170854148D+03 0.000000000000000D+00 0.000000000000000D+00 0.869550170854148D+03
 0.725669122594225D+03 0.000000000000000D+00 0.000000000000000D+00 -.725669122594225D+03
 0.566167948104547D+03 -.447448429466959D+03 -.153379083483192D+03 -.284931404338521D+03
 0.212342024694831D+03 0.142284954421202D+02 -.105283389449287D+02 -.211603023248758D+03
 0.671996543376267D+03 0.427396197411468D+03 0.149550683610747D+03 0.496534427587279D+03
 0.144712777272729D+03 0.582373661337087D+01 0.143567388173738D+02 0.143881048259923D+03
0.157205392574D-04 0.000000000000D+00 0.000000000000D+00 0.324737459324D-04 0.000000000000D+00  6 2 3 25 4 1 21 0 0.14719855D+00 0.84566738D-01 0.23054893D+06 0.23054893D+06 0.23054893D+06 0.10931154D+01  1  2  2  1  6  1        2 0.466268919086D-04 0.100000000000D+01
0.855476070618D-05 0.000000000000D+00 -.603710100613D-07 0.324737459324D-04 0.000000000000D+00  6 2 3 25 4 1 21 2 0.14719855D+00 0.84566738D-01 0.23054893D+06 0.23054893D+06 0.23054893D+06 0.10931154D+01  1  2  3  1  6  1        2 0.303185821931D-04 0.100000000000D+01
-.968443002152D-05 0.000000000000D+00 0.000000000000D+00 0.324737459324D-04 0.000000000000D+00  6 2 3 25 4 1 21 2 0.14719855D+00 0.84566738D-01 0.23054893D+06 0.23054893D+06 0.23054893D+06 0.10931154D+01  1  2 15  1  6  1        2 -.343221976260D-04 0.100000000000D+01
0.335133919161D-02 0.000000000000D+00 0.000000000000D+00 0.324737459324D-04 0.000000000000D+00  6 2 3 25 4 1 21 2 0.17689507D+00 0.84566738D-01 0.23777487D+06 0.23777487D+06 0.23777487D+06 0.10921010D+01  1  2 12  1  6  1        2 0.904528819771D-02 0.100000000000D+01
-.404762699089D-02 0.000000000000D+00 0.000000000000D+00 0.324737459324D-04 0.000000000000D+00  6 2 3 25 4 1 21 2 0.14719855D+00 0.84566738D-01 0.23054893D+06 0.23054893D+06 0.23054893D+06 0.10931154D+01  1  2  4  1  6  1        2 -.143450314772D-01 0.100000000000D+01
-.343689287893D-02 0.000000000000D+00 -.233552976038D-04 0.324737459324D-04 0.000000000000D+00  6 2 3 25 4 1 21 2 0.17653730D+00 0.84566738D-01 0.23054893D+06 0.23054893D+06 0.23054893D+06 0.10931154D+01  1  2  5  1  6  1        2 -.933344406722D-02 0.100000000000D+01
0.338544836375D-02 0.000000000000D+00 0.229747888167D-04 0.324737459324D-04 0.000000000000D+00  6 2 3 25 4 1 21 2 0.14719855D+00 0.84566738D-01 0.23054893D+06 0.23054893D+06 0.23054893D+06 0.10931154D+01  1  2  6  1  6  1        2 0.119982309269D-01 0.100000000000D+01
0.898318641168D-04 0.000000000000D+00 0.000000000000D+00 0.324737459324D-04 0.000000000000D+00  6 21 3 25 4 1 -2 2 0.17689507D+00 0.84566738D-01 0.23777487D+06 0.23777487D+06 0.23777487D+06 0.10921010D+01  1  2 12  5  6  1        2 0.136081493626D-03 0.100000000000D+01
-.911044811119D-04 0.000000000000D+00 -.620645935094D-06 0.324737459324D-04 0.000000000000D+00  6 21 3 25 4 1 -2 2 0.17653730D+00 0.84566738D-01 0.23054893D+06 0.23054893D+06 0.23054893D+06 0.10931154D+01  1  2  5  5  6  1        2 -.139521852398D-03 0.100000000000D+01
  </mgrwgt>
  </event>
  <event>
  5     66 0.17338086E-05 0.17239931E+03 0.75467711E-02 0.93731010E-01
        2 -1    0    0  502    0 0.00000000E+00 0.00000000E+00 0.95835477E+03 0.95835482E+03 0.32000000E+00 0.0000E+00 0.9000E+01
        3 -1    0    0  501    0 0.00000000E+00 0.00000000E+00 -.88683072E+03 0.88683086E+03 0.50000000E+00 0.0000E+00 0.9000E+01
       25  1    1    2    0    0 -.29296467E+03 -.43519111E+03 -.31443136E+02 0.54021594E+03 0.12500000E+03 0.0000E+00 0.9000E+01
        4  1    1    2  501    0 0.33040348E+02 0.16920821E+03 -.53743570E+03 0.56441352E+03 0.15500000E+01 0.0000E+00 0.9000E+01
        1  1    1    2  502    0 0.25992432E+03 0.26598290E+03 0.64040289E+03 0.74055622E+03 0.32000000E+00 0.0000E+00 0.9000E+01
#aMCatNLO 1  0  0  5  1 0.11485632D+02 0.00000000D+00  -5  6  0 0.00000000D+00 0.00000000D+00 0.00000000D+00 0.00000000D+00 0.00000000D+00
  <mgrwgt>
 0.1288295247D-02    7    2    0
 0.921899464116571D+03 0.000000000000000D+00 0.000000000000000D+00 0.921899464116571D+03
 0.921899464116571D+03 -.000000000000000D+00 -.000000000000000D+00 -.921899464116571D+03
 0.541846494035307D+03 -.292968453391882D+03 -.435191214062759D+03 -.524472651155916D+02
 0.585669250321615D+03 0.330396520200367D+02 0.169203730154527D+03 -.559720421164416D+03
 0.716283183876219D+03 0.259928801371845D+03 0.265987483908232D+03 0.612167686280008D+03
 0.000000000000000D+00 0.000000000000000D+00 0.000000000000000D+00 0.000000000000000D+00
 0.921899464116571D+03 0.000000000000000D+00 0.000000000000000D+00 0.921899464116571D+03
 0.921899464116571D+03 -.000000000000000D+00 -.000000000000000D+00 -.921899464116571D+03
 0.541456518238944D+03 -.292723090573116D+03 -.434940132080064D+03 -.518694022998134D+02
 0.585165967583333D+03 0.333048404540387D+02 0.169475099867885D+03 -.559095866327805D+03
 0.686147644578890D+03 0.243344417650899D+03 0.246663508909976D+03 0.592232385074914D+03
 0.310287978319750D+02 0.160738324681792D+02 0.188015233022036D+02 0.187328835527044D+02
0.945595579767D-04 0.000000000000D+00 0.000000000000D+00 0.521036216459D-05 0.000000000000D+00  6 2 3 25 4 1 21 0 0.14743921D+00 0.13643551D+00 0.29355006D+06 0.29355006D+06 0.29355006D+06 0.10852509D+01  1  2  2  4  6  5        1 0.840038097209D-04 0.100000000000D+01
0.110361973607D-04 0.000000000000D+00 -.363133600734D-06 0.521036216459D-05 0.000000000000D+00  6 2 3 25 4 1 21 2 0.14743921D+00 0.13643551D+00 0.29355006D+06 0.29355006D+06 0.29355006D+06 0.10852509D+01  1  2  3  4  6  5        1 0.115471104187D-04 0.100000000000D+01
-.634882989304D-04 0.000000000000D+00 0.000000000000D+00 0.521036216459D-05 0.000000000000D+00  6 2 3 25 4 1 21 2 0.14743921D+00 0.13643551D+00 0.29355006D+06 0.29355006D+06 0.29355006D+06 0.10852509D+01  1  2 15  4  6  5        1 -.664274454400D-04 0.100000000000D+01
0.144215261761D-02 0.000000000000D+00 0.000000000000D+00 0.521036216459D-05 0.000000000000D+00  6 2 3 25 4 1 21 2 0.14743921D+00 0.13643551D+00 0.29317608D+06 0.29317608D+06 0.29317608D+06 0.10852919D+01  1  2 12  4  6  5        1 0.150912170956D-02 0.100000000000D+01
-.581329522430D-03 0.000000000000D+00 0.000000000000D+00 0.521036216459D-05 0.000000000000D+00  6 2 3 25 4 1 21 2 0.14743921D+00 0.13643551D+00 0.29355006D+06 0.29355006D+06 0.29355006D+06 0.10852509D+01  1  2  4  4  6  5        1 -.608241767135D-03 0.100000000000D+01
-.773758897848D-02 0.000000000000D+00 0.000000000000D+00 0.521036216459D-05 0.000000000000D+00  6 2 3 25 4 1 21 2 0.14743921D+00 0.13643551D+00 0.29355006D+06 0.29355006D+06 0.29355006D+06 0.10852509D+01  1  2  5  4  6  5        1 -.809579526249D-02 0.100000000000D+01
0.808002784002D-02 0.000000000000D+00 -.000000000000D+00 0.521036216459D-05 0.000000000000D+00  6 2 3 25 4 1 21 2 0.14743921D+00 0.13643551D+00 0.29355006D+06 0.29355006D+06 0.29355006D+06 0.10852509D+01  1  2  6  4  6  5        1 0.845408709224D-02 0.100000000000D+01
  </mgrwgt>
  </event>
  <event>
  6     66 0.17338086E-05 0.27233549E+02 0.75467711E-02 0.93141956E-01
        2 -1    0    0  502    0 0.00000000E+00 0.00000000E+00 0.96317398E+03 0.96317403E+03 0.32000000E+00 0.0000E+00 0.9000E+01
       21 -1    0    0  501  503 0.00000000E+00 0.00000000E+00 -.45630823E+03 0.45630884E+03 0.75000000E+00 0.0000E+00 0.9000E+01
       25  1    1    2    0    0 -.11444848E+03 -.53928317E+03 0.66407994E+02 0.56917468E+03 0.12500000E+03 0.0000E+00 0.9000E+01
        4  1    1    2  501    0 -.19917095E+02 0.74680879E+01 -.39209097E+02 0.44634279E+02 0.15500000E+01 0.0000E+00 0.9000E+01
        1  1    1    2  502    0 0.14316860E+03 0.52543721E+03 0.52656463E+03 0.75753015E+03 0.32000000E+00 0.0000E+00 0.9000E+01
       -3  1    1    2    0  503 -.88030252E+01 0.63778767E+01 -.46897781E+02 0.48143768E+02 0.50000000E+00 0.0000E+00 0.9000E+01
#aMCatNLO 2  0  0  2  1 0.10870628D+02 0.00000000D+00  -5  6  0 0.00000000D+00 0.00000000D+00 0.00000000D+00 0.00000000D+00 0.00000000D+00
  <mgrwgt>
 0.1627076602D-02    1    2    0
 0.627255673379360D+03 0.000000000000000D+00 0.000000000000000D+00 0.627255673379360D+03
 0.627255673379360D+03 0.000000000000000D+00 0.000000000000000D+00 -.627255673379360D+03
 0.591166781450521D+03 -.118706297366280D+03 -.536378217063866D+03 -.179054144647768D+03
 0.658995648526225D+02 -.203089093630284D+02 0.778711640198856D+01 -.622066046846406D+02
 0.597445000455576D+03 0.139015206729308D+03 0.528591100661878D+03 0.241260749332409D+03
 0.000000000000000D+00 -.000000000000000D+00 0.000000000000000D+00 -.000000000000000D+00
 0.627684365188554D+03 0.000000000000000D+00 0.000000000000000D+00 0.627684365188554D+03
 0.700198244514306D+03 0.000000000000000D+00 0.000000000000000D+00 -.700198244514306D+03
 0.593082923537412D+03 -.114551379061716D+03 -.539388495456845D+03 -.179054144647768D+03
 0.657199400017572D+02 -.198471247515114D+02 0.745254899623885D+01 -.622066046846406D+02
 0.595755580579751D+03 0.143201529017824D+03 0.525558069779580D+03 0.241260749332409D+03
 0.733241655839388D+02 -.880302520459639D+01 0.637787668102561D+01 -.725138793257522D+02
0.227098153978D-04 0.000000000000D+00 0.000000000000D+00 0.828897870378D-06 0.940134042575D-09  6 2 21 25 4 1 -3 2 0.14818046D+00 0.70201222D-01 0.32615393D+06 0.32615393D+06 0.32615393D+06 0.10818763D+01  1  2  1  6  6  2        3 0.162707660196D-02 0.100000000000D+01
  </mgrwgt>
  </event>
  <event>
  5     66 0.17338086E-05 0.27576358E+02 0.75467711E-02 0.94286646E-01
        2 -1    0    0  502    0 0.00000000E+00 0.00000000E+00 0.14110437E+04 0.14110438E+04 0.32000000E+00 0.0000E+00 0.9000E+01
        3 -1    0    0  501    0 0.00000000E+00 0.00000000E+00 -.30314059E+03 0.30314100E+03 0.50000000E+00 0.0000E+00 0.9000E+01
       25  1    1    2    0    0 0.50695736E+03 0.21959722E+02 0.75124486E+03 0.91514033E+03 0.12500000E+03 0.0000E+00 0.9000E+01
        4  1    1    2  501    0 -.47946265E+03 -.24545378E+02 0.40627290E+02 0.48180897E+03 0.15500000E+01 0.0000E+00 0.9000E+01
        1  1    1    2  502    0 -.27494710E+02 0.25856561E+01 0.31603098E+03 0.31723545E+03 0.32000000E+00 0.0000E+00 0.9000E+01
#aMCatNLO 1  0  0  2  4 0.18602359D+02 0.00000000D+00  -5  6  0 0.00000000D+00 0.00000000D+00 0.00000000D+00 0.00000000D+00 0.00000000D+00
  <mgrwgt>
 0.3810839187D-02    7    2    0
 0.654022172883314D+03 0.000000000000000D+00 0.000000000000000D+00 0.654022172883314D+03
 0.654022172883314D+03 0.000000000000000D+00 0.000000000000000D+00 -.654022172883314D+03
 0.563124824717424D+03 0.507032929115078D+03 0.219677492092820D+02 0.209570024098609D+03
 0.597072976607663D+03 -.479577709207426D+03 -.245496915322155D+02 -.354822029857456D+03
 0.147846544441541D+03 -.274552199076517D+02 0.258194232293356D+01 0.145252005758847D+03
 0.000000000000000D+00 0.000000000000000D+00 -.000000000000000D+00 -.000000000000000D+00
 0.820754681266252D+03 0.000000000000000D+00 0.000000000000000D+00 0.820754681266252D+03
 0.955138373192899D+03 0.000000000000000D+00 0.000000000000000D+00 -.955138373192899D+03
 0.436929644249729D+03 0.361599845423757D+03 0.246672011590057D+02 0.209570024098609D+03
 0.765246688544391D+03 -.677693267933957D+03 -.208723753555878D+02 -.354822029857456D+03
 0.162409547685190D+03 -.725742625320103D+02 0.341941811929710D+01 0.145252005758847D+03
 0.411307173979841D+03 0.388667685042211D+03 -.721424392271509D+01 -.134383691926647D+03
0.479083799523D-03 0.000000000000D+00 0.000000000000D+00 0.535631018703D-05 0.000000000000D+00  6 2 3 25 4 1 21 0 0.21708368D+00 0.46637048D-01 0.26546081D+06 0.26546081D+06 0.26546081D+06 0.10885040D+01  1  2  2  2  6  2        3 0.273144531667D-02 0.100000000000D+01
0.172058492178D-03 0.000000000000D+00 -.183980793583D-05 0.535631018703D-05 0.000000000000D+00  6 2 3 25 4 1 21 2 0.21708368D+00 0.46637048D-01 0.26546081D+06 0.26546081D+06 0.26546081D+06 0.10885040D+01  1  2  3  2  6  2        3 0.116229719669D-02 0.100000000000D+01
-.301016484450D-03 0.000000000000D+00 0.000000000000D+00 0.535631018703D-05 0.000000000000D+00  6 2 3 25 4 1 21 2 0.21708368D+00 0.46637048D-01 0.26546081D+06 0.26546081D+06 0.26546081D+06 0.10885040D+01  1  2 15  2  6  2        3 -.203343997501D-02 0.100000000000D+01
-.144746612043D-04 0.000000000000D+00 0.000000000000D+00 0.535631018703D-05 0.000000000000D+00  6 2 3 25 4 1 21 2 0.21708368D+00 0.46637048D-01 0.26546081D+06 0.26546081D+06 0.26546081D+06 0.10885040D+01  1  2  4  2  6  2        3 -.977798766452D-04 0.100000000000D+01
-.272860418758D-03 0.000000000000D+00 -.260178329982D-03 0.535631018703D-05 0.000000000000D+00  6 2 3 25 4 1 21 2 0.21708368D+00 0.84177659D-01 0.26546081D+06 0.26546081D+06 0.26546081D+06 0.10885040D+01  1  2  5  2  6  2        3 -.522967919670D-03 0.100000000000D+01
0.395168371366D-03 0.000000000000D+00 0.220585097420D-03 0.535631018703D-05 0.000000000000D+00  6 2 3 25 4 1 21 2 0.21708368D+00 0.46637048D-01 0.26546081D+06 0.26546081D+06 0.26546081D+06 0.10885040D+01  1  2  6  2  6  2        3 0.266945899878D-02 0.100000000000D+01
-.377242323576D-05 0.000000000000D+00 -.168406874458D-04 0.535631018703D-05 0.000000000000D+00  6 2 21 25 4 1 -3 2 0.21708368D+00 0.84177659D-01 0.26546081D+06 0.26546081D+06 0.26546081D+06 0.10885040D+01  1  2  5  6  6  2        3 -.981745539821D-04 0.100000000000D+01
  </mgrwgt>
  </event>
  <event>
  5     66 -.17338086E-05 0.56495363E+02 0.75467711E-02 0.92669554E-01
        2 -1    0    0  502    0 0.00000000E+00 0.00000000E+00 0.29729305E+04 0.29729305E+04 0.32000000E+00 0.0000E+00 0.9000E+01
        3 -1    0    0  501    0 0.00000000E+00 0.00000000E+00 -.11620019E+04 0.11620020E+04 0.50000000E+00 0.0000E+00 0.9000E+01
       25  1    1    2    0    0 0.49361787E+03 0.28987252E+03 0.95315855E+03 0.11188480E+04 0.12500000E+03 0.0000E+00 0.9000E+01
        4  1    1    2  501    0 -.46573207E+02 0.31973285E+02 -.10392096E+04 0.10407451E+04 0.15500000E+01 0.0000E+00 0.9000E+01
        1  1    1    2  502    0 -.44704466E+03 -.32184580E+03 0.18969797E+04 0.19753394E+04 0.32000000E+00 0.0000E+00 0.9000E+01
#aMCatNLO 1  0  0  5  1 0.70755121D+02 0.00000000D+00  -5  6  0 0.00000000D+00 0.00000000D+00 0.00000000D+00 0.00000000D+00 0.00000000D+00
  <mgrwgt>
 -.1627856924D-01    6    2    0
 0.185864230109380D+04 0.000000000000000D+00 0.000000000000000D+00 0.185864230109380D+04
 0.185864230109380D+04 -.000000000000000D+00 -.000000000000000D+00 -.185864230109380D+04
 0.780246595721808D+03 0.493598089433020D+03 0.289854604103654D+03 0.515271758127162D+03
 0.166396890692410D+04 -.465761034330905D+02 0.319748756939751D+02 -.166300956014196D+04
 0.127306909954169D+04 -.447021985999930D+03 -.321829479797629D+03 0.114773780201479D+04
 0.000000000000000D+00 0.000000000000000D+00 0.000000000000000D+00 0.000000000000000D+00
 0.185864230109380D+04 0.000000000000000D+00 0.000000000000000D+00 0.185864230109380D+04
 0.185864230109380D+04 -.000000000000000D+00 -.000000000000000D+00 -.185864230109380D+04
 0.780723581074607D+03 0.493000641434819D+03 0.289424476762071D+03 0.516805717694587D+03
 0.166072242222576D+04 -.478486006330783D+02 0.310587527185022D+02 -.165974239838006D+04
 0.760502754176238D+03 -.327300047033644D+03 -.209835811213227D+03 0.653611544155935D+03
 0.515335844711000D+03 -.117851993768097D+03 -.110647418267347D+03 0.489325136529543D+03
0.916136943147D-02 0.000000000000D+00 0.000000000000D+00 0.620640836387D-03 0.000000000000D+00  6 2 3 25 4 1 21 0 0.45737393D+00 0.17876954D+00 0.35594132D+06 0.35594132D+06 0.35594132D+06 0.10791004D+01  1  2  2  4  6  5        1 0.246838314804D-03 0.100000000000D+01
0.476804509139D-02 0.000000000000D+00 -.351820708608D-04 0.620640836387D-03 0.000000000000D+00  6 2 3 25 4 1 21 2 0.45737393D+00 0.17876954D+00 0.35594132D+06 0.35594132D+06 0.35594132D+06 0.10791004D+01  1  2  3  4  6  5        1 0.149594704792D-03 0.100000000000D+01
-.714962466293D-02 0.000000000000D+00 0.000000000000D+00 0.620640836387D-03 0.000000000000D+00  6 2 3 25 4 1 21 2 0.45737393D+00 0.17876954D+00 0.35594132D+06 0.35594132D+06 0.35594132D+06 0.10791004D+01  1  2 15  4  6  5        1 -.224315410262D-03 0.100000000000D+01
-.609321011163D+00 0.000000000000D+00 0.000000000000D+00 0.620640836387D-03 0.000000000000D+00  6 2 3 25 4 1 21 2 0.45737393D+00 0.17876954D+00 0.35594132D+06 0.35594132D+06 0.35594132D+06 0.10791004D+01  1  2  4  4  6  5        1 -.191171004135D-01 0.100000000000D+01
-.178238439543D+00 0.000000000000D+00 0.000000000000D+00 0.620640836387D-03 0.000000000000D+00  6 2 3 25 4 1 21 2 0.45737393D+00 0.17876954D+00 0.35594132D+06 0.35594132D+06 0.35594132D+06 0.10791004D+01  1  2  5  4  6  5        1 -.559212973765D-02 0.100000000000D+01
0.263225272073D+00 0.000000000000D+00 -.000000000000D+00 0.620640836387D-03 0.000000000000D+00  6 2 3 25 4 1 21 2 0.45737393D+00 0.17876954D+00 0.35594132D+06 0.35594132D+06 0.35594132D+06 0.10791004D+01  1  2  6  4  6  5        1 0.825854330543D-02 0.100000000000D+01
  </mgrwgt>
  </event>
  <event>
  6     66 0.17338086E-05 0.12285710E+02 0.75467711E-02 0.92775474E-01
        2 -1    0    0  503    0 0.00000000E+00 0.00000000E+00 0.20606721E+04 0.20606722E+04 0.32000000E+00 0.0000E+00 0.9000E+01
        3 -1    0    0  501    0 0.00000000E+00 0.00000000E+00 -.33384010E+03 0.33384048E+03 0.50000000E+00 0.0000E+00 0.9000E+01
       25  1    1    2    0    0 0.55888706E+03 -.11294402E+03 0.29231206E+03 0.65282650E+03 0.12500000E+03 0.0000E+00 0.9000E+01
        4  1    1    2  501    0 0.88454285E+01 0.88886846E+01 -.88134816E+02 0.89035940E+02 0.15500000E+01 0.0000E+00 0.9000E+01
        1  1    1    2  502    0 -.55402546E+03 0.11654912E+03 0.11727758E+04 0.13022792E+04 0.32000000E+00 0.0000E+00 0.9000E+01
       21  1    1    2  503  502 -.13707029E+02 -.12493782E+02 0.34987897E+03 0.35037100E+03 0.75000000E+00 0.0000E+00 0.9000E+01
#aMCatNLO 2  0  0  1  2 0.54994065D+01 0.00000000D+00  -5  6  0 0.00000000D+00 0.00000000D+00 0.00000000D+00 0.00000000D+00 0.00000000D+00
  <mgrwgt>
 0.5144065306D-02    1    2    0
 0.755342862215395D+03 0.000000000000000D+00 0.000000000000000D+00 0.755342862215395D+03
 0.755342862215395D+03 0.000000000000000D+00 0.000000000000000D+00 -.755342862215395D+03
 0.612980322856621D+03 0.553402033779943D+03 -.118038581477239D+03 -.199832325964724D+03
 0.200359204726995D+03 0.700925091772217D+01 0.722317568257057D+01 -.200106239416629D+03
 0.697346196847175D+03 -.560411284697665D+03 0.110815405794669D+03 0.399938565381352D+03
 0.000000000000000D+00 -.000000000000000D+00 -.000000000000000D+00 0.000000000000000D+00
 0.910018404835154D+03 0.000000000000000D+00 0.000000000000000D+00 0.910018404835154D+03
 0.755955954505687D+03 0.000000000000000D+00 0.000000000000000D+00 -.755955954505687D+03
 0.617071533320715D+03 0.558982188692126D+03 -.112952341539551D+03 -.199832325964724D+03
 0.200497638831028D+03 0.882774602703740D+01 0.888071075051201D+01 -.200106239416629D+03
 0.693230396027177D+03 -.554102906098400D+03 0.116565412322907D+03 0.399938565381352D+03
 0.155174791161921D+03 -.137070286207633D+02 -.124937815338681D+02 0.154062450329467D+03
0.215760453366D-02 0.000000000000D+00 0.000000000000D+00 0.131066715908D-04 0.259847044836D-06  6 2 3 25 4 1 21 2 0.31702614D+00 0.51359985D-01 0.34876003D+06 0.34876003D+06 0.34876003D+06 0.10797458D+01  1  2  1  1  6  1        2 0.514406530555D-02 0.100000000000D+01
  </mgrwgt>
  </event>
  <event>
  5     66 0.17338086E-05 0.51108693E+02 0.75467711E-02 0.79710139E-01
        2 -1    0    0  502    0 0.00000000E+00 0.00000000E+00 0.22116938E+04 0.22116939E+04 0.32000000E+00 0.0000E+00 0.9000E+01
        3 -1    0    0  501    0 0.00000000E+00 0.00000000E+00 -.49267687E+03 0.49267712E+03 0.50000000E+00 0.0000E+00 0.9000E+01
       25  1    1    2    0    0 -.60166404E+02 0.45118136E+03 0.49049956E+03 0.68073448E+03 0.12500000E+03 0.0000E+00 0.9000E+01
        4  1    1    2  501    0 0.48170143E+02 -.17081972E+02 -.36676020E+03 0.37030745E+03 0.15500000E+01 0.0000E+00 0.9000E+01
        1  1    1    2  502    0 0.11996261E+02 -.43409938E+03 0.15952776E+04 0.16533291E+04 0.32000000E+00 0.0000E+00 0.9000E+01
#aMCatNLO 1  0  0  2  4 0.44515560D+02 0.00000000D+00  -5  6  0 0.00000000D+00 0.00000000D+00 0.00000000D+00 0.00000000D+00 0.00000000D+00
  <mgrwgt>
 0.4740051414D-02    5    2    0
 0.104386338421421D+04 0.000000000000000D+00 0.000000000000000D+00 0.104386338421421D+04
 0.104386338421421D+04 0.000000000000000D+00 0.000000000000000D+00 -.104386338421421D+04
 0.477929666674946D+03 -.601656482429002D+02 0.451186973678238D+03 0.748476842835449D+02
 0.781659594787366D+03 0.481692541556961D+02 -.170827815099424D+02 -.779986938129811D+03
 0.828137506966115D+03 0.119963940872042D+02 -.434104192168296D+03 0.705139253846266D+03
 0.000000000000000D+00 0.000000000000000D+00 0.000000000000000D+00 -.000000000000000D+00
 0.220396869271240D+04 0.000000000000000D+00 0.000000000000000D+00 0.220396869271240D+04
 0.339935354408807D+04 0.000000000000000D+00 0.000000000000000D+00 -.339935354408807D+04
 0.553026375261875D+03 -.465935994388043D+03 0.259835803973019D+03 0.748476842835449D+02
 0.110788750836168D+04 -.695530914342200D+03 -.367793222782894D+03 -.779986938129811D+03
 0.140216876230131D+04 -.865821970690161D+03 -.848061428039813D+03 0.705139253846266D+03
 0.254023959087561D+04 0.202728887942040D+04 0.956018846849689D+03 -.119538485137567D+04
0.876572917098D-02 0.000000000000D+00 0.000000000000D+00 0.189417972039D-03 0.000000000000D+00  6 2 3 25 4 1 21 0 0.34026061D+00 0.75796462D-01 0.22915896D+06 0.22915896D+06 0.22915896D+06 0.10933145D+01  1  2  2  2  6  2        3 0.660159681749D-02 0.100000000000D+01
0.374506608808D-02 0.000000000000D+00 -.336627080861D-04 0.189417972039D-03 0.000000000000D+00  6 2 3 25 4 1 21 2 0.34026061D+00 0.75796462D-01 0.22915896D+06 0.22915896D+06 0.22915896D+06 0.10933145D+01  1  2  3  2  6  2        3 0.337140268620D-02 0.100000000000D+01
-.586645438113D-02 0.000000000000D+00 0.000000000000D+00 0.189417972039D-03 0.000000000000D+00  6 2 3 25 4 1 21 2 0.34026061D+00 0.75796462D-01 0.22915896D+06 0.22915896D+06 0.22915896D+06 0.10933145D+01  1  2 15  2  6  2        3 -.528112978352D-02 0.100000000000D+01
0.216999733915D-01 0.000000000000D+00 -.695771227853D-02 0.189417972039D-03 0.000000000000D+00  6 2 3 25 4 1 21 2 0.34026061D+00 0.50170081D+00 0.22915896D+06 0.22915896D+06 0.22915896D+06 0.10933145D+01  1  2  5  2  6  2        3 0.192959560027D-04 0.100000000000D+01
0.444254766318D-02 0.000000000000D+00 -.161005184382D-02 0.189417972039D-03 0.000000000000D+00  6 2 21 25 4 1 -3 2 0.34026061D+00 0.50170081D+00 0.22915896D+06 0.22915896D+06 0.22915896D+06 0.10933145D+01  1  2  5  6  6  2        3 0.288857380912D-04 0.100000000000D+01
  </mgrwgt>
  </event>
  <event>
  6     66 -.17338086E-05 0.11127506E+02 0.75467711E-02 0.93607766E-01
        2 -1    0    0  502    0 0.00000000E+00 0.00000000E+00 0.13824104E+04 0.13824105E+04 0.32000000E+00 0.0000E+00 0.9000E+01
        3 -1    0    0  501    0 0.00000000E+00 0.00000000E+00 -.41326846E+03 0.41326876E+03 0.50000000E+00 0.0000E+00 0.9000E+01
       25  1    1    2    0    0 0.15779499E+03 -.49997457E+03 0.42810992E+03 0.68831456E+03 0.12500000E+03 0.0000E+00 0.9000E+01
        4  1    1    2  501    0 -.14703387E+02 -.15368401E+02 -.19527563E+03 0.19643663E+03 0.15500000E+01 0.0000E+00 0.9000E+01
        1  1    1    2  503    0 -.11364840E+03 0.39575507E+03 0.59355334E+03 0.72238750E+03 0.32000000E+00 0.0000E+00 0.9000E+01
       21  1    1    2  502  503 -.29443208E+02 0.11958791E+03 0.14275435E+03 0.18854055E+03 0.75000000E+00 0.0000E+00 0.9000E+01
#aMCatNLO 2  0  0  5  1 0.16407592D+02 0.00000000D+00  -5  6  0 0.00000000D+00 0.00000000D+00 0.00000000D+00 0.00000000D+00 0.00000000D+00
  <mgrwgt>
 -.1126941810D-02    2    2    0
 0.755848488926610D+03 0.000000000000000D+00 0.000000000000000D+00 0.755848488926610D+03
 0.755848488926610D+03 -.000000000000000D+00 -.000000000000000D+00 -.755848488926610D+03
 0.543471934214862D+03 0.157888571738263D+03 -.500286985762710D+03 0.672374454463992D+02
 0.358838265117546D+03 -.146369282570314D+02 -.156323645044984D+02 -.358198673955903D+03
 0.609386778520811D+03 -.143251643481231D+03 0.515919350267208D+03 0.290961228509504D+03
 0.000000000000000D+00 0.000000000000000D+00 0.000000000000000D+00 0.000000000000000D+00
 0.755848488926610D+03 0.000000000000000D+00 0.000000000000000D+00 0.755848488926610D+03
 0.755848488926610D+03 -.000000000000000D+00 -.000000000000000D+00 -.755848488926610D+03
 0.543102854408906D+03 0.157778525113581D+03 -.499890653952999D+03 0.674609633086215D+02
 0.358682590048090D+03 -.147095976665157D+02 -.153706463586236D+02 -.358051073690072D+03
 0.477437179437115D+03 -.113618566662457D+03 0.395637145710788D+03 0.241884953133214D+03
 0.132474353959109D+03 -.294503607846081D+02 0.119624154600834D+03 0.487051572482363D+02
-.181759872838D-02 0.000000000000D+00 0.000000000000D+00 0.143493759885D-04 0.000000000000D+00  6 2 3 25 4 1 21 2 0.21267856D+00 0.63579789D-01 0.29975421D+06 0.29975421D+06 0.29975421D+06 0.10845782D+01  1  2 13  4  6  5        1 -.663208921055D-02 0.100000000000D+01
0.150874763551D-02 0.000000000000D+00 0.000000000000D+00 0.143493759885D-04 0.174736235796D-06  6 2 3 25 4 1 21 2 0.21267856D+00 0.63579789D-01 0.29975421D+06 0.29975421D+06 0.29975421D+06 0.10845782D+01  1  2  1  4  6  5        1 0.550514740062D-02 0.100000000000D+01
  </mgrwgt>
  </event>
  <event>
  5     66 0.17338086E-05 0.25545142E+02 0.75467711E-02 0.92089926E-01
        2 -1    0    0  502    0 0.00000000E+00 0.00000000E+00 0.37175210E+04 0.37175210E+04 0.32000000E+00 0.0000E+00 0.9000E+01
        3 -1    0    0  501    0 0.00000000E+00 0.00000000E+00 -.13915707E+03 0.13915796E+03 0.50000000E+00 0.0000E+00 0.9000E+01
       25  1    1    2    0    0 0.51413247E+03 0.34485869E+03 0.10458576E+04 0.12217622E+04 0.12500000E+03 0.0000E+00 0.9000E+01
        4  1    1    2  501    0 -.44449570E+01 -.25199731E+02 -.58007854E+01 0.26283754E+02 0.15500000E+01 0.0000E+00 0.9000E+01
        1  1    1    2  502    0 -.50968752E+03 -.31965896E+03 0.25383071E+04 0.26086330E+04 0.32000000E+00 0.0000E+00 0.9000E+01
#aMCatNLO 1  0  0  5  1 0.71036580D+01 0.00000000D+00  -5  6  0 0.00000000D+00 0.00000000D+00 0.00000000D+00 0.00000000D+00 0.00000000D+00
  <mgrwgt>
 0.1709121185D-02    8    2    0
 0.719250358183199D+03 0.000000000000000D+00 0.000000000000000D+00 0.719250358183199D+03
 0.719250358183199D+03 -.000000000000000D+00 -.000000000000000D+00 -.719250358183199D+03
 0.674141505158306D+03 0.514214691111525D+03 0.344868504934323D+03 -.235564714519282D+03
 0.845978480105702D+02 -.444180812108100D+01 -.251560056080305D+02 -.806488785444891D+02
 0.679761363197522D+03 -.509772882990444D+03 -.319712499326293D+03 0.316213593063771D+03
 0.000000000000000D+00 -.000000000000000D+00 0.000000000000000D+00 0.000000000000000D+00
 0.719250358183199D+03 0.000000000000000D+00 0.000000000000000D+00 0.719250358183199D+03
 0.719250358183199D+03 -.000000000000000D+00 -.000000000000000D+00 -.719250358183199D+03
 0.673872944029805D+03 0.514008160582456D+03 0.344738975895336D+03 -.235436603035025D+03
 0.845887212749668D+02 -.446772935040228D+01 -.251722625359457D+02 -.806327995310033D+02
 0.633709487295373D+03 -.472122035155145D+03 -.296753171803260D+03 0.301041613790906D+03
 0.463295637662541D+02 -.374183960769094D+02 -.228135415561298D+02 0.150277887751218D+02
0.253042049959D-04 0.000000000000D+00 0.000000000000D+00 0.913619733193D-06 0.000000000000D+00  6 2 3 25 4 1 21 0 0.57192638D+00 0.21408850D-01 0.39622316D+06 0.39622316D+06 0.39622316D+06 0.10757248D+01  1  2  2  4  6  5        1 0.246224484038D-04 0.100000000000D+01
0.893706050747D-05 0.000000000000D+00 -.971748099343D-07 0.913619733193D-06 0.000000000000D+00  6 2 3 25 4 1 21 2 0.57192638D+00 0.21408850D-01 0.39622316D+06 0.39622316D+06 0.39622316D+06 0.10757248D+01  1  2  3  4  6  5        1 0.100631876403D-04 0.100000000000D+01
-.150751280558D-04 0.000000000000D+00 0.000000000000D+00 0.913619733193D-06 0.000000000000D+00  6 2 3 25 4 1 21 2 0.57192638D+00 0.21408850D-01 0.39622316D+06 0.39622316D+06 0.39622316D+06 0.10757248D+01  1  2 15  4  6  5        1 -.169746911973D-04 0.100000000000D+01
0.572711413330D-02 0.000000000000D+00 0.000000000000D+00 0.913619733193D-06 0.000000000000D+00  6 2 3 25 4 1 21 2 0.57192638D+00 0.21408850D-01 0.39591546D+06 0.39591546D+06 0.39591546D+06 0.10757491D+01  1  2 12  4  6  5        1 0.644938739245D-02 0.100000000000D+01
-.486747708921D-02 0.000000000000D+00 0.000000000000D+00 0.913619733193D-06 0.000000000000D+00  6 2 3 25 4 1 21 2 0.57192638D+00 0.21408850D-01 0.39622316D+06 0.39622316D+06 0.39622316D+06 0.10757248D+01  1  2  4  4  6  5        1 -.548081052406D-02 0.100000000000D+01
-.607448344848D-02 0.000000000000D+00 0.000000000000D+00 0.913619733193D-06 0.000000000000D+00  6 2 3 25 4 1 21 2 0.57192638D+00 0.21408850D-01 0.39622316D+06 0.39622316D+06 0.39622316D+06 0.10757248D+01  1  2  5  4  6  5        1 -.683990745152D-02 0.100000000000D+01
0.650256717983D-02 0.000000000000D+00 -.000000000000D+00 0.913619733193D-06 0.000000000000D+00  6 2 3 25 4 1 21 2 0.57192638D+00 0.21408850D-01 0.39622316D+06 0.39622316D+06 0.39622316D+06 0.10757248D+01  1  2  6  4  6  5        1 0.732193248769D-02 0.100000000000D+01
0.213839972034D-03 0.000000000000D+00 0.000000000000D+00 0.913619733193D-06 0.766858735560D-07  6 2 3 25 4 1 21 2 0.57192638D+00 0.21408850D-01 0.39591546D+06 0.39591546D+06 0.39591546D+06 0.10757491D+01  1  2 11  4  6  5        1 0.240808335148D-03 0.100000000000D+01
  </mgrwgt>
  </event>
  <event>
  5     66 0.17338086E-05 0.33139057E+02 0.75467711E-02 0.89825494E-01
        2 -1    0    0  502    0 0.00000000E+00 0.00000000E+00 0.10704055E+04 0.10704056E+04 0.32000000E+00 0.0000E+00 0.9000E+01
        3 -1    0    0  501    0 0.00000000E+00 0.00000000E+00 -.75130426E+03 0.75130443E+03 0.50000000E+00 0.0000E+00 0.9000E+01
       25  1    1    2    0    0 0.24169900E+03 -.70841298E+03 0.15491848E+03 0.77452701E+03 0.12500000E+03 0.0000E+00 0.9000E+01
        4  1    1    2  501    0 -.98122281E+01 -.31670355E+02 -.19121157E+03 0.19407101E+03 0.15500000E+01 0.0000E+00 0.9000E+01
        1  1    1    2  502    0 -.23188677E+03 0.74008333E+03 0.35539434E+03 0.85311198E+03 0.32000000E+00 0.0000E+00 0.9000E+01
#aMCatNLO 1  0  0  5  5 0.53736803D+02 0.00000000D+00  -5  6  0 0.00000000D+00 0.00000000D+00 0.00000000D+00 0.00000000D+00 0.00000000D+00
  <mgrwgt>
 0.7016596018D-03    4    2    0
 0.896772226165688D+03 0.000000000000000D+00 0.000000000000000D+00 0.896772226165688D+03
 0.896772226165688D+03 -.000000000000000D+00 -.000000000000000D+00 -.896772226165688D+03
 0.759201133587906D+03 0.241715753714329D+03 -.708490303926453D+03 0.193996105547709D+02
 0.230998855475025D+03 -.980994490021664D+01 -.316537844218703D+02 -.228609435814885D+03
 0.803344463268445D+03 -.231905808814113D+03 0.740144088348324D+03 0.209209825260114D+03
 0.000000000000000D+00 0.000000000000000D+00 0.000000000000000D+00 0.000000000000000D+00
 0.896772226165688D+03 0.000000000000000D+00 0.000000000000000D+00 0.896772226165688D+03
 0.896772226165688D+03 -.000000000000000D+00 -.000000000000000D+00 -.896772226165688D+03
 0.743760584193822D+03 0.236993365582034D+03 -.693418462143453D+03 0.236598315514771D+02
 0.229184155779473D+03 -.112558651557503D+02 -.270390258057367D+02 -.227305023797148D+03
 0.576751849395279D+02 0.422103566728640D+02 0.383688637966038D+02 -.851722010493962D+01
 0.762924527418554D+03 -.267947857099147D+03 0.682088624152586D+03 0.212162412350610D+03
0.103656732252D-02 0.000000000000D+00 0.000000000000D+00 0.154777193196D-05 0.000000000000D+00  6 2 3 25 4 1 21 0 0.16467779D+00 0.11558529D+00 0.61443409D+06 0.61443409D+06 0.61443409D+06 0.10622416D+01  1  2  2  4  6  5        1 0.118079058205D-02 0.100000000000D+01
0.466580281827D-03 0.000000000000D+00 -.398069145291D-05 0.154777193196D-05 0.000000000000D+00  6 2 3 25 4 1 21 2 0.16467779D+00 0.11558529D+00 0.61443409D+06 0.61443409D+06 0.61443409D+06 0.10622416D+01  1  2  3  4  6  5        1 0.599719712130D-03 0.100000000000D+01
-.601678267117D-03 0.000000000000D+00 0.000000000000D+00 0.154777193196D-05 0.000000000000D+00  6 2 3 25 4 1 21 2 0.16467779D+00 0.11558529D+00 0.61443409D+06 0.61443409D+06 0.61443409D+06 0.10622416D+01  1  2 15  4  6  5        1 -.773368123783D-03 0.100000000000D+01
-.237664595733D-03 0.000000000000D+00 0.000000000000D+00 0.154777193196D-05 0.000000000000D+00  6 2 3 25 4 1 21 2 0.16467779D+00 0.11558529D+00 0.61443409D+06 0.61443409D+06 0.61443409D+06 0.10622416D+01  1  2  5  4  6  5        1 -.305482568570D-03 0.100000000000D+01
  </mgrwgt>
  </event>
  <event>
  5     66 -.17338086E-05 0.24126432E+02 0.75467711E-02 0.93962713E-01
        2 -1    0    0  502    0 0.00000000E+00 0.00000000E+00 0.16076902E+04 0.16076903E+04 0.32000000E+00 0.0000E+00 0.9000E+01
        3 -1    0    0  501    0 0.00000000E+00 0.00000000E+00 -.10056124E+04 0.10056126E+04 0.50000000E+00 0.0000E+00 0.9000E+01
       25  1    1    2    0    0 0.12854812E+03 0.49052071E+03 0.61508971E+03 0.80690491E+03 0.12500000E+03 0.0000E+00 0.9000E+01
        4  1    1    2  501    0 -.10774121E+03 -.50274217E+03 -.83686411E+03 0.98219234E+03 0.15500000E+01 0.0000E+00 0.9000E+01
        1  1    1    2  502    0 -.20806917E+02 0.12221468E+02 0.82385218E+03 0.82420556E+03 0.32000000E+00 0.0000E+00 0.9000E+01
#aMCatNLO 1  0  0  2  4 0.44080555D+03 0.00000000D+00  -5  6  0 0.00000000D+00 0.00000000D+00 0.00000000D+00 0.00000000D+00 0.00000000D+00
  <mgrwgt>
 -.2430741959D-02    1    2    0
 0.127150048816103D+04 0.000000000000000D+00 0.000000000000000D+00 0.127150048816103D+04
 0.127150048816103D+04 0.000000000000000D+00 0.000000000000000D+00 -.127150048816103D+04
 0.683689561727369D+03 0.128555240305753D+03 0.490570547184068D+03 0.441158140852479D+03
 0.120749090206646D+04 -.107752028671116D+03 -.502789838979636D+03 -.109253199344887D+04
 0.651820512528230D+03 -.208032116346375D+02 0.122192917955681D+02 0.651373852596390D+03
 0.000000000000000D+00 0.000000000000000D+00 0.000000000000000D+00 -.000000000000000D+00
 0.175375198063828D+04 0.000000000000000D+00 0.000000000000000D+00 0.175375198063828D+04
 0.304146682196877D+04 0.000000000000000D+00 0.000000000000000D+00 -.304146682196877D+04
 0.634760946706219D+03 -.194407369537548D+03 0.393550160579882D+03 0.441158140852479D+03
 0.151219508260149D+04 -.773955938445596D+03 -.702922482553768D+03 -.109253199344887D+04
 0.752053271660226D+03 -.364690781423484D+03 -.910871094794155D+02 0.651373852596390D+03
 0.189620950163911D+04 0.133305408940663D+04 0.400459431453301D+03 -.128771484133049D+04
-.784887258111D-02 0.000000000000D+00 0.000000000000D+00 0.472792850489D-03 0.000000000000D+00  6 2 3 25 4 1 21 2 0.24733697D+00 0.15470962D+00 0.28124236D+06 0.28124236D+06 0.28124236D+06 0.10866325D+01  1  2 14  2  6  2        3 -.243074195857D-02 0.100000000000D+01
  </mgrwgt>
  </event>
  <event>
  5     66 -.17338086E-05 0.75919726E+02 0.75467711E-02 0.94716634E-01
        2 -1    0    0  502    0 0.00000000E+00 0.00000000E+00 0.32096795E+04 0.32096795E+04 0.32000000E+00 0.0000E+00 0.9000E+01
        3 -1    0    0  501    0 0.00000000E+00 0.00000000E+00 -.46927096E+03 0.46927123E+03 0.50000000E+00 0.0000E+00 0.9000E+01
       25  1    1    2    0    0 0.43958070E+03 0.17855555E+03 0.15843619E+04 0.16585961E+04 0.12500000E+03 0.0000E+00 0.9000E+01
        4  1    1    2  501    0 -.69745766E+02 0.29970356E+02 -.40014503E+03 0.40728508E+03 0.15500000E+01 0.0000E+00 0.9000E+01
        1  1    1    2  502    0 -.36983494E+03 -.20852591E+03 0.15561916E+04 0.16130696E+04 0.32000000E+00 0.0000E+00 0.9000E+01
#aMCatNLO 1  0  0  5  1 0.24872031D+02 0.00000000D+00  -5  6  0 0.00000000D+00 0.00000000D+00 0.00000000D+00 0.00000000D+00 0.00000000D+00
  <mgrwgt>
 -.1462434780D-02    7    2    0
 0.122727743771061D+04 0.000000000000000D+00 0.000000000000000D+00 0.122727743771061D+04
 0.122727743771061D+04 -.000000000000000D+00 -.000000000000000D+00 -.122727743771061D+04
 0.717125581743820D+03 0.439534341288062D+03 0.178523066035940D+03 0.523051792572216D+03
 0.105723999953644D+04 -.697526756351290D+02 0.299728055154279D+02 -.105451060297709D+04
 0.680189294140962D+03 -.369781665652933D+03 -.208495871551368D+03 0.531458810404869D+03
 0.000000000000000D+00 0.000000000000000D+00 0.000000000000000D+00 0.000000000000000D+00
 0.122727743771061D+04 0.000000000000000D+00 0.000000000000000D+00 0.122727743771061D+04
 0.122727743771061D+04 -.000000000000000D+00 -.000000000000000D+00 -.122727743771061D+04
 0.717214680003252D+03 0.439233018115955D+03 0.178353169463928D+03 0.523484861243463D+03
 0.105662574736563D+04 -.701967520856433D+02 0.297224196386108D+02 -.105387236597390D+04
 0.408385327279777D+03 -.241783462256621D+03 -.114243536024970D+03 0.308654738167298D+03
 0.272329120772569D+03 -.127252803773690D+03 -.938320530775690D+02 0.221732766563140D+03
0.306541791925D-03 0.000000000000D+00 0.000000000000D+00 0.796887168233D-04 0.000000000000D+00  6 2 3 25 4 1 21 0 0.49379687D+00 0.72195555D-01 0.24553391D+06 0.24553391D+06 0.24553391D+06 0.10910485D+01  1  2  2  4  6  5        1 0.643510798485D-04 0.100000000000D+01
0.100500574492D-03 0.000000000000D+00 -.117720119530D-05 0.796887168233D-04 0.000000000000D+00  6 2 3 25 4 1 21 2 0.49379687D+00 0.72195555D-01 0.24553391D+06 0.24553391D+06 0.24553391D+06 0.10910485D+01  1  2  3  4  6  5        1 0.251144014477D-04 0.100000000000D+01
-.216363197798D-03 0.000000000000D+00 0.000000000000D+00 0.796887168233D-04 0.000000000000D+00  6 2 3 25 4 1 21 2 0.49379687D+00 0.72195555D-01 0.24553391D+06 0.24553391D+06 0.24553391D+06 0.10910485D+01  1  2 15  4  6  5        1 -.540676731003D-04 0.100000000000D+01
0.136617085087D-01 0.000000000000D+00 0.000000000000D+00 0.796887168233D-04 0.000000000000D+00  6 2 3 25 4 1 21 2 0.49379687D+00 0.72195555D-01 0.24602467D+06 0.24602467D+06 0.24602467D+06 0.10909832D+01  1  2 12  4  6  5        1 0.341302542269D-02 0.100000000000D+01
-.261146964823D-01 0.000000000000D+00 0.000000000000D+00 0.796887168233D-04 0.000000000000D+00  6 2 3 25 4 1 21 2 0.49379687D+00 0.72195555D-01 0.24553391D+06 0.24553391D+06 0.24553391D+06 0.10910485D+01  1  2  4  4  6  5        1 -.652588280673D-02 0.100000000000D+01
-.137194889677D-01 0.000000000000D+00 0.000000000000D+00 0.796887168233D-04 0.000000000000D+00  6 2 3 25 4 1 21 2 0.49379687D+00 0.72195555D-01 0.24553391D+06 0.24553391D+06 0.24553391D+06 0.10910485D+01  1  2  5  4  6  5        1 -.342840581097D-02 0.100000000000D+01
0.201823513281D-01 0.000000000000D+00 -.000000000000D+00 0.796887168233D-04 0.000000000000D+00  6 2 3 25 4 1 21 2 0.49379687D+00 0.72195555D-01 0.24553391D+06 0.24553391D+06 0.24553391D+06 0.10910485D+01  1  2  6  4  6  5        1 0.504343060701D-02 0.100000000000D+01
  </mgrwgt>
  </event>
  <event>
  6     66 -.17338086E-05 0.94692185E+02 0.75467711E-02 0.92946554E-01
        2 -1    0    0  503    0 0.00000000E+00 0.00000000E+00 0.13629634E+04 0.13629634E+04 0.32000000E+00 0.0000E+00 0.9000E+01
        3 -1    0    0  501    0 0.00000000E+00 0.00000000E+00 -.84574917E+03 0.84574931E+03 0.50000000E+00 0.0000E+00 0.9000E+01
       25  1    1    2    0    0 -.13059408E+03 -.49905442E+03 0.21893300E+03 0.57416616E+03 0.12500000E+03 0.0000E+00 0.9000E+01
        4  1    1    2  501    0 0.43246295E+02 0.52089622E+03 -.56162502E+03 0.76722108E+03 0.15500000E+01 0.0000E+00 0.9000E+01
        1  1    1    2  502    0 0.96096050E+02 -.25931641E+02 0.68984328E+03 0.69698692E+03 0.32000000E+00 0.0000E+00 0.9000E+01
       21  1    1    2  503  502 -.87482611E+01 0.40898321E+01 0.17006297E+03 0.17033858E+03 0.75000000E+00 0.0000E+00 0.9000E+01
#aMCatNLO 2  0  0  1  5 0.96570596D+01 0.00000000D+00  -5  6  0 0.00000000D+00 0.00000000D+00 0.00000000D+00 0.00000000D+00 0.00000000D+00
  <mgrwgt>
 -.3980382597D-02    2    2    0
 0.100428606012827D+04 0.000000000000000D+00 0.000000000000000D+00 0.100428606012827D+04
 0.100428606012827D+04 0.000000000000000D+00 0.000000000000000D+00 -.100428606012827D+04
 0.544457664214405D+03 -.132962225686118D+03 -.497996206181408D+03 0.123003956405164D+03
 0.876561421919400D+03 0.394384996966867D+02 0.522727703623005D+03 -.702538453754707D+03
 0.587553034122740D+03 0.935237259894312D+02 -.247314974415963D+02 0.579534497349543D+03
 0.000000000000000D+00 -.000000000000000D+00 0.000000000000000D+00 0.000000000000000D+00
 0.114760438239654D+04 0.000000000000000D+00 0.000000000000000D+00 0.114760438239654D+04
 0.100446035857015D+04 0.000000000000000D+00 0.000000000000000D+00 -.100446035857015D+04
 0.544898859322610D+03 -.130589913490562D+03 -.499105267548126D+03 0.123003956405164D+03
 0.875678953833633D+03 0.432543865281593D+02 0.520943767818738D+03 -.702538453754707D+03
 0.588017522164225D+03 0.960837881060656D+02 -.259283323249959D+02 0.579534497349543D+03
 0.143469405646223D+03 -.874826114366253D+01 0.408983205438380D+01 0.143144023826389D+03
-.131558669505D-01 0.000000000000D+00 0.000000000000D+00 0.146183151435D-04 0.000000000000D+00  6 2 3 25 4 1 21 2 0.21385548D+00 0.13009257D+00 0.33799587D+06 0.33799587D+06 0.33799587D+06 0.10807409D+01  1  2 13  1  6  1        2 -.860098959802D-02 0.100000000000D+01
0.682795844353D-02 0.000000000000D+00 0.000000000000D+00 0.146183151435D-04 0.461299111138D-06  6 2 3 25 4 1 21 2 0.20968649D+00 0.13011514D+00 0.33799587D+06 0.33799587D+06 0.33799587D+06 0.10807409D+01  1  2  1  1  6  1        2 0.462060700061D-02 0.100000000000D+01
  </mgrwgt>
  </event>
  <event>
  5     66 0.17338086E-05 0.23370067E+03 0.75467711E-02 0.93113228E-01
        2 -1    0    0  502    0 0.00000000E+00 0.00000000E+00 0.77379955E+03 0.77379962E+03 0.32000000E+00 0.0000E+00 0.9000E+01
        3 -1    0    0  501    0 -.00000000E+00 -.00000000E+00 -.78982293E+03 0.78982309E+03 0.50000000E+00 0.0000E+00 0.9000E+01
       25  1    1    2    0    0 -.14380896E+03 -.52943786E+03 -.59056173E+02 0.56577213E+03 0.12500000E+03 0.0000E+00 0.9000E+01
        4  1    1    2  501    0 0.17262685E+03 0.25168419E+03 -.38221273E+03 0.48911546E+03 0.15500000E+01 0.0000E+00 0.9000E+01
        1  1    1    2  502    0 -.28817887E+02 0.27775367E+03 0.42524552E+03 0.50873512E+03 0.32000000E+00 0.0000E+00 0.9000E+01
#aMCatNLO 1  0  0  5  1 0.22037320D+02 0.00000000D+00  -5  6  0 0.00000000D+00 0.00000000D+00 0.00000000D+00 0.00000000D+00 0.00000000D+00
  <mgrwgt>
 0.5859799415D-03    7    2    0
 0.781770305457333D+03 0.000000000000000D+00 0.000000000000000D+00 0.781770305457333D+03
 0.781770305457333D+03 -.000000000000000D+00 -.000000000000000D+00 -.781770305457333D+03
 0.565200362190686D+03 -.143819126499143D+03 -.529442856315756D+03 -.532237744783240D+02
 0.485246722313361D+03 0.172635542582746D+03 0.251703361411811D+03 -.377235693972636D+03
 0.513093526410619D+03 -.288164160836037D+02 0.277739494903945D+03 0.430459468450960D+03
 0.000000000000000D+00 -.000000000000000D+00 0.000000000000000D+00 0.000000000000000D+00
 0.781770305457333D+03 0.000000000000000D+00 0.000000000000000D+00 0.781770305457333D+03
 0.781770305457333D+03 -.000000000000000D+00 -.000000000000000D+00 -.781770305457333D+03
 0.563868662973591D+03 -.143950252358214D+03 -.528179033994422D+03 -.512650171008543D+02
 0.484465368915254D+03 0.172522923842722D+03 0.252788807703267D+03 -.375553395839942D+03
 0.471342293199971D+03 -.176706805459628D+02 0.238145741212475D+03 0.406371640681791D+03
 0.438642858258498D+02 -.109019909385455D+02 0.372444850786806D+02 0.204467722590060D+02
0.367902860087D-04 0.000000000000D+00 0.000000000000D+00 0.375984488881D-06 0.000000000000D+00  6 2 3 25 4 1 21 0 0.11904610D+00 0.12151124D+00 0.32898054D+06 0.32898054D+06 0.32898054D+06 0.10816012D+01  1  2  2  4  6  5        1 0.590523468067D-04 0.100000000000D+01
0.219034846059D-05 0.000000000000D+00 -.141284385378D-06 0.375984488881D-06 0.000000000000D+00  6 2 3 25 4 1 21 2 0.11904610D+00 0.12151124D+00 0.32898054D+06 0.32898054D+06 0.32898054D+06 0.10816012D+01  1  2  3  4  6  5        1 0.411293236708D-05 0.100000000000D+01
-.267845752631D-04 0.000000000000D+00 0.000000000000D+00 0.375984488881D-06 0.000000000000D+00  6 2 3 25 4 1 21 2 0.11904610D+00 0.12151124D+00 0.32898054D+06 0.32898054D+06 0.32898054D+06 0.10816012D+01  1  2 15  4  6  5        1 -.502948040098D-04 0.100000000000D+01
0.371128982322D-03 0.000000000000D+00 0.000000000000D+00 0.375984488881D-06 0.000000000000D+00  6 2 3 25 4 1 21 2 0.11904610D+00 0.12151124D+00 0.32786543D+06 0.32786543D+06 0.32786543D+06 0.10817095D+01  1  2 12  4  6  5        1 0.697118247516D-03 0.100000000000D+01
-.133374435049D-03 0.000000000000D+00 0.000000000000D+00 0.375984488881D-06 0.000000000000D+00  6 2 3 25 4 1 21 2 0.11904610D+00 0.12151124D+00 0.32898054D+06 0.32898054D+06 0.32898054D+06 0.10816012D+01  1  2  4  4  6  5        1 -.250444183071D-03 0.100000000000D+01
-.755454976940D-03 0.000000000000D+00 0.000000000000D+00 0.375984488881D-06 0.000000000000D+00  6 2 3 25 4 1 21 2 0.11904610D+00 0.12151124D+00 0.32898054D+06 0.32898054D+06 0.32898054D+06 0.10816012D+01  1  2  5  4  6  5        1 -.141855749550D-02 0.100000000000D+01
0.822788344781D-03 0.000000000000D+00 -.000000000000D+00 0.375984488881D-06 0.000000000000D+00  6 2 3 25 4 1 21 2 0.11904610D+00 0.12151124D+00 0.32898054D+06 0.32898054D+06 0.32898054D+06 0.10816012D+01  1  2  6  4  6  5        1 0.154499289743D-02 0.100000000000D+01
  </mgrwgt>
  </event>
  <event>
  5     66 0.17338086E-05 0.57816204E+02 0.75467711E-02 0.89682661E-01
        2 -1    0    0  502    0 0.00000000E+00 0.00000000E+00 0.19890371E+04 0.19890372E+04 0.32000000E+00 0.0000E+00 0.9000E+01
        3 -1    0    0  501    0 0.00000000E+00 0.00000000E+00 -.12218883E+04 0.12218884E+04 0.50000000E+00 0.0000E+00 0.9000E+01
       25  1    1    2    0    0 -.31839112E+03 -.33269803E+03 0.12915364E+04 0.13768632E+04 0.12500000E+03 0.0000E+00 0.9000E+01
        4  1    1    2  501    0 0.31131107E+02 -.48713220E+02 -.10913156E+04 0.10928469E+04 0.15500000E+01 0.0000E+00 0.9000E+01
        1  1    1    2  502    0 0.28726001E+03 0.38141124E+03 0.56692806E+03 0.74121548E+03 0.32000000E+00 0.0000E+00 0.9000E+01
#aMCatNLO 1  0  0  4  2 0.20414395D+03 0.00000000D+00  -5  6  0 0.00000000D+00 0.00000000D+00 0.00000000D+00 0.00000000D+00 0.00000000D+00
  <mgrwgt>
 0.3330993821D-02    6    2    0
 0.155896804070958D+04 0.000000000000000D+00 0.000000000000000D+00 0.155896804070958D+04
 0.155896804070958D+04 -.000000000000000D+00 -.000000000000000D+00 -.155896804070958D+04
 0.110025436920212D+04 -.318317358876162D+03 -.332591986130686D+03 0.991459180575834D+03
 0.139401606796114D+04 0.311340865577338D+02 -.487173698064241D+02 -.139281660108832D+04
 0.623665644255900D+03 0.287183272318430D+03 0.381309355937108D+03 0.401357420512483D+03
 0.000000000000000D+00 0.000000000000000D+00 0.000000000000000D+00 -.000000000000000D+00
 0.155896804070958D+04 0.000000000000000D+00 0.000000000000000D+00 0.155896804070958D+04
 0.155896804070958D+04 -.000000000000000D+00 -.000000000000000D+00 -.155896804070958D+04
 0.104842911563289D+04 -.317017969746816D+03 -.334625218119664D+03 0.933329620639319D+03
 0.100310674217882D+04 0.328237322096553D+03 -.425206546354489D+02 -.946929453822649D+03
 0.602473993061710D+03 0.287924764737874D+03 0.380149098341635D+03 0.368185965507110D+03
 0.463926230545748D+03 -.299144117087609D+03 -.300322558652433D+01 -.354586132323780D+03
0.281796040575D-01 0.000000000000D+00 0.000000000000D+00 0.688615858569D-04 0.000000000000D+00  6 2 3 25 4 1 21 0 0.30600572D+00 0.18798282D+00 0.25614525D+06 0.25614525D+06 0.25614525D+06 0.10896666D+01  1  2  2  3  6  4        4 0.245868375269D-02 0.100000000000D+01
0.121185038024D-01 0.000000000000D+00 -.108217099441D-03 0.688615858569D-04 0.000000000000D+00  6 2 3 25 4 1 21 2 0.30600572D+00 0.18798282D+00 0.25614525D+06 0.25614525D+06 0.25614525D+06 0.10896666D+01  1  2  3  3  6  4        4 0.125546342874D-02 0.100000000000D+01
-.165568321462D-01 0.000000000000D+00 0.000000000000D+00 0.688615858569D-04 0.000000000000D+00  6 2 3 25 4 1 21 2 0.30600572D+00 0.18798282D+00 0.25614525D+06 0.25614525D+06 0.25614525D+06 0.10896666D+01  1  2 15  3  6  4        4 -.171526927700D-02 0.100000000000D+01
-.135974835185D-02 0.000000000000D+00 0.000000000000D+00 0.688615858569D-04 0.000000000000D+00  6 2 3 25 4 1 21 2 0.30600572D+00 0.18798282D+00 0.25614525D+06 0.25614525D+06 0.25614525D+06 0.10896666D+01  1  2  4  3  6  4        4 -.140868407179D-03 0.100000000000D+01
-.370330198050D-01 0.000000000000D+00 0.000000000000D+00 0.688615858569D-04 0.000000000000D+00  6 2 3 25 4 1 21 2 0.30600572D+00 0.18798282D+00 0.25614525D+06 0.25614525D+06 0.25614525D+06 0.10896666D+01  1  2  5  3  6  4        4 -.383657939785D-02 0.100000000000D+01
0.512511688328D-01 0.000000000000D+00 -.000000000000D+00 0.688615858569D-04 0.000000000000D+00  6 2 3 25 4 1 21 2 0.30600572D+00 0.18798282D+00 0.25614525D+06 0.25614525D+06 0.25614525D+06 0.10896666D+01  1  2  6  3  6  4        4 0.530956372166D-02 0.100000000000D+01
  </mgrwgt>
  </event>
  <event>
  6     66 0.17338086E-05 0.49054648E+02 0.75467711E-02 0.89820133E-01
        2 -1    0    0  502    0 0.00000000E+00 0.00000000E+00 0.19638077E+04 0.19638077E+04 0.32000000E+00 0.0000E+00 0.9000E+01
        3 -1    0    0  501    0 0.00000000E+00 0.00000000E+00 -.77773385E+03 0.77773401E+03 0.50000000E+00 0.0000E+00 0.9000E+01
       25  1    1    2    0    0 -.57691032E+03 -.51845920E+03 0.10743382E+03 0.79296437E+03 0.12500000E+03 0.0000E+00 0.9000E+01
        4  1    1    2  503    0 0.47343375E+02 0.51039672E+02 -.32686784E+03 0.33420268E+03 0.15500000E+01 0.0000E+00 0.9000E+01
        1  1    1    2  502    0 0.50775159E+03 0.43298348E+03 0.14216926E+04 0.15705083E+04 0.32000000E+00 0.0000E+00 0.9000E+01
       21  1    1    2  501  503 0.21815356E+02 0.34436053E+02 -.16184730E+02 0.43866382E+02 0.75000000E+00 0.0000E+00 0.9000E+01
#aMCatNLO 2  0  0  4  1 0.32674344D+02 0.00000000D+00  -5  6  0 0.00000000D+00 0.00000000D+00 0.00000000D+00 0.00000000D+00 0.00000000D+00
  <mgrwgt>
 0.4098045879D-04    2    2    0
 0.123584787594063D+04 0.000000000000000D+00 0.000000000000000D+00 0.123584787594063D+04
 0.123584787594063D+04 -.000000000000000D+00 -.000000000000000D+00 -.123584787594063D+04
 0.827556007151127D+03 -.577388361696619D+03 -.519039136182035D+03 -.257769276409385D+03
 0.581174351604851D+03 0.702008508701790D+02 0.867632852937637D+02 -.570357431638665D+03
 0.106296539312529D+04 0.507187510826440D+03 0.432275850888271D+03 0.828126708048050D+03
 0.000000000000000D+00 0.000000000000000D+00 0.000000000000000D+00 0.000000000000000D+00
 0.123584787594063D+04 0.000000000000000D+00 0.000000000000000D+00 0.123584787594063D+04
 0.123584787594063D+04 -.000000000000000D+00 -.000000000000000D+00 -.123584787594063D+04
 0.828053869036139D+03 -.576925939909953D+03 -.518467615567894D+03 -.261526292162144D+03
 0.527273802669820D+03 0.472728436687130D+02 0.509330282984719D+02 -.522674629058761D+03
 0.105980003329480D+04 0.507780411965334D+03 0.433008634750963D+03 0.823309593061493D+03
 0.565680468805064D+02 0.218726842759054D+02 0.345259525184588D+02 -.391086718405888D+02
-.153814603535D-03 0.000000000000D+00 0.000000000000D+00 0.411029285614D-05 0.000000000000D+00  6 2 3 25 4 1 21 2 0.30212428D+00 0.11965138D+00 0.61183894D+06 0.61183894D+06 0.61183894D+06 0.10623692D+01  1  2  8  3  6  4        4 -.565466096700D-04 0.100000000000D+01
0.265244166911D-03 0.000000000000D+00 0.000000000000D+00 0.411029285614D-05 0.156140502436D-08  6 2 3 25 4 1 21 2 0.30212428D+00 0.11965138D+00 0.61102944D+06 0.61102944D+06 0.61102944D+06 0.10624091D+01  1  2  1  3  6  4        4 0.975270684584D-04 0.100000000000D+01
  </mgrwgt>
  </event>
  <event>
  5     66 -.17338086E-05 0.18279478E+03 0.75467711E-02 0.90380335E-01
        2 -1    0    0  502    0 0.00000000E+00 0.00000000E+00 0.80629442E+03 0.80629448E+03 0.32000000E+00 0.0000E+00 0.9000E+01
        3 -1    0    0  501    0 0.00000000E+00 0.00000000E+00 -.15786965E+04 0.15786966E+04 0.50000000E+00 0.0000E+00 0.9000E+01
       25  1    1    2    0    0 0.18772389E+03 -.55115660E+03 -.21349793E+03 0.63262961E+03 0.12500000E+03 0.0000E+00 0.9000E+01
        4  1    1    2  501    0 0.17944370E+03 0.34895999E+02 -.97658617E+03 0.99354956E+03 0.15500000E+01 0.0000E+00 0.9000E+01
        1  1    1    2  502    0 -.36716759E+03 0.51626060E+03 0.41768204E+03 0.75881186E+03 0.32000000E+00 0.0000E+00 0.9000E+01
#aMCatNLO 1  0  0  1  5 0.72932059D+02 0.00000000D+00  -5  6  0 0.00000000D+00 0.00000000D+00 0.00000000D+00 0.00000000D+00 0.00000000D+00
  <mgrwgt>
 -.5306272462D-03    9    2    0
 0.112822618403685D+04 0.000000000000000D+00 0.000000000000000D+00 0.112822618403685D+04
 0.112822618403685D+04 0.000000000000000D+00 0.000000000000000D+00 -.112822618403685D+04
 0.595600776029482D+03 0.187742530365774D+03 -.551166225668133D+03 -.915523792819067D+01
 0.715816647726380D+03 0.179433414508094D+03 0.348938796941266D+02 -.692083477681768D+03
 0.945034944317842D+03 -.367175944873867D+03 0.516272345974007D+03 0.701238715609959D+03
 0.000000000000000D+00 -.000000000000000D+00 0.000000000000000D+00 0.000000000000000D+00
 0.162344022321255D+04 0.000000000000000D+00 0.000000000000000D+00 0.162344022321255D+04
 0.113150379375004D+04 0.000000000000000D+00 0.000000000000000D+00 -.113150379375004D+04
 0.614702097328182D+03 0.195071711025812D+03 -.569295070798620D+03 -.915523792819067D+01
 0.717318585707466D+03 0.188111991802522D+03 0.134272804900043D+02 -.692083477681768D+03
 0.925610016310791D+03 -.355847958161581D+03 0.488252390364647D+03 0.701238715609959D+03
 0.497313317616158D+03 -.273357446667538D+02 0.676153999439690D+02 0.491936429462508D+03
0.101271640599D-03 0.000000000000D+00 0.000000000000D+00 0.138661884215D-05 0.000000000000D+00  6 2 3 25 4 1 21 0 0.12404531D+00 0.24287639D+00 0.49833101D+06 0.49833101D+06 0.49833101D+06 0.10686130D+01  1  2  2  1  6  1        2 0.142912368075D-04 0.100000000000D+01
0.138293875005D-04 0.000000000000D+00 -.388909765335D-06 0.138661884215D-05 0.000000000000D+00  6 2 3 25 4 1 21 2 0.12404531D+00 0.24287639D+00 0.49833101D+06 0.49833101D+06 0.49833101D+06 0.10686130D+01  1  2  3  1  6  1        2 0.222856780491D-05 0.100000000000D+01
-.597168276888D-04 0.000000000000D+00 0.000000000000D+00 0.138661884215D-05 0.000000000000D+00  6 2 3 25 4 1 21 2 0.12404531D+00 0.24287639D+00 0.49833101D+06 0.49833101D+06 0.49833101D+06 0.10686130D+01  1  2 15  1  6  1        2 -.962320273356D-05 0.100000000000D+01
0.550366590526D-02 0.000000000000D+00 0.000000000000D+00 0.138661884215D-05 0.000000000000D+00  6 2 3 25 4 1 21 2 0.18034660D+00 0.24287639D+00 0.54783972D+06 0.54783972D+06 0.54783972D+06 0.10657170D+01  1  2 12  1  6  1        2 0.512748697034D-03 0.100000000000D+01
-.851013908747D-02 0.000000000000D+00 0.000000000000D+00 0.138661884215D-05 0.000000000000D+00  6 2 3 25 4 1 21 2 0.12404531D+00 0.24287639D+00 0.49833101D+06 0.49833101D+06 0.49833101D+06 0.10686130D+01  1  2  4  1  6  1        2 -.137138553569D-02 0.100000000000D+01
-.572645708981D-02 0.000000000000D+00 -.881985034654D-04 0.138661884215D-05 0.000000000000D+00  6 2 3 25 4 1 21 2 0.17867108D+00 0.24287639D+00 0.49833101D+06 0.49833101D+06 0.49833101D+06 0.10686130D+01  1  2  5  1  6  1        2 -.548455117335D-03 0.100000000000D+01
0.540064354002D-02 0.000000000000D+00 0.826356448691D-04 0.138661884215D-05 0.000000000000D+00  6 2 3 25 4 1 21 2 0.12404531D+00 0.24287639D+00 0.49833101D+06 0.49833101D+06 0.49833101D+06 0.10686130D+01  1  2  6  1  6  1        2 0.870298870330D-03 0.100000000000D+01
0.249550097199D-03 0.000000000000D+00 0.000000000000D+00 0.138661884215D-05 0.000000000000D+00  6 21 3 25 4 1 -2 2 0.18034660D+00 0.24287639D+00 0.54783972D+06 0.54783972D+06 0.54783972D+06 0.10657170D+01  1  2 12  5  6  1        2 0.121743259301D-04 0.100000000000D+01
-.252292299369D-03 0.000000000000D+00 -.392658737489D-05 0.138661884215D-05 0.000000000000D+00  6 21 3 25 4 1 -2 2 0.17867108D+00 0.24287639D+00 0.49833101D+06 0.49833101D+06 0.49833101D+06 0.10686130D+01  1  2  5  5  6  1        2 -.129050883562D-04 0.100000000000D+01
  </mgrwgt>
  </event>
  <event>
  5     66 -.17338086E-05 0.29243091E+02 0.75467711E-02 0.92816316E-01
        2 -1    0    0  502    0 0.00000000E+00 0.00000000E+00 0.18240787E+04 0.18240788E+04 0.32000000E+00 0.0000E+00 0.9000E+01
        3 -1    0    0  501    0 0.00000000E+00 0.00000000E+00 -.23443928E+03 0.23443982E+03 0.50000000E+00 0.0000E+00 0.9000E+01
       25  1    1    2    0    0 0.14019875E+03 0.53388817E+03 0.85635973E+03 0.10264839E+04 0.12500000E+03 0.0000E+00 0.9000E+01
        4  1    1    2  501    0 -.14560346E+03 -.56268899E+03 0.41928163E+03 0.71667200E+03 0.15500000E+01 0.0000E+00 0.9000E+01
        1  1    1    2  502    0 0.54047096E+01 0.28800821E+02 0.31399808E+03 0.31536264E+03 0.32000000E+00 0.0000E+00 0.9000E+01
#aMCatNLO 1  0  0  5  1 0.71358856D+01 0.00000000D+00  -5  6  0 0.00000000D+00 0.00000000D+00 0.00000000D+00 0.00000000D+00 0.00000000D+00
  <mgrwgt>
 -.1140895954D-02    1    2    0
 0.653939053470603D+03 0.000000000000000D+00 0.000000000000000D+00 0.653939053470603D+03
 0.653939053470603D+03 -.000000000000000D+00 -.000000000000000D+00 -.653939053470603D+03
 0.574952434761954D+03 0.140238230413672D+03 0.534050255687682D+03 0.100343736072873D+03
 0.618445605012186D+03 -.145631788756296D+03 -.562791653042780D+03 -.211025836635958D+03
 0.114480067167065D+03 0.539355834262359D+01 0.287413973550978D+02 0.110682100563085D+03
 0.000000000000000D+00 -.000000000000000D+00 0.000000000000000D+00 0.000000000000000D+00
 0.653939053470603D+03 0.000000000000000D+00 0.000000000000000D+00 0.653939053470603D+03
 0.653939053470603D+03 -.000000000000000D+00 -.000000000000000D+00 -.653939053470603D+03
 0.584557108372219D+03 0.141292301552421D+03 0.539667229773216D+03 0.121974503808840D+03
 0.605310395984679D+03 -.144519313322902D+03 -.556863451946620D+03 -.188196544734221D+03
 0.775502141261755D+02 0.164738170817912D+02 0.533564045688866D+02 0.538121097268324D+02
 0.404603884581327D+02 -.132468053113101D+02 -.361601823954818D+02 0.124099311985494D+02
-.175602816044D-03 0.000000000000D+00 0.000000000000D+00 0.125542587087D-05 0.000000000000D+00  6 2 3 25 4 1 21 2 0.28062754D+00 0.36067625D-01 0.34615587D+06 0.34615587D+06 0.34615587D+06 0.10799834D+01  1  2 14  4  6  5        1 -.114089595421D-02 0.100000000000D+01
  </mgrwgt>
  </event>
  <event>
  5     66 0.17338086E-05 0.64210342E+02 0.75467711E-02 0.79845972E-01
        2 -1    0    0  502    0 0.00000000E+00 0.00000000E+00 0.34573134E+04 0.34573134E+04 0.32000000E+00 0.0000E+00 0.9000E+01
        3 -1    0    0  501    0 0.00000000E+00 0.00000000E+00 -.50071185E+03 0.50071210E+03 0.50000000E+00 0.0000E+00 0.9000E+01
       25  1    1    2    0    0 -.48547956E+03 -.64146011E+02 0.40624659E+03 0.64843381E+03 0.12500000E+03 0.0000E+00 0.9000E+01
        4  1    1    2  501    0 -.63192822E+02 0.11441544E+02 -.35075213E+03 0.35658618E+03 0.15500000E+01 0.0000E+00 0.9000E+01
        1  1    1    2  502    0 0.54867238E+03 0.52704467E+02 0.29011071E+04 0.29530055E+04 0.32000000E+00 0.0000E+00 0.9000E+01
#aMCatNLO 1  0  0  2  5 0.25657191D+03 0.00000000D+00  -5  6  0 0.00000000D+00 0.00000000D+00 0.00000000D+00 0.00000000D+00 0.00000000D+00
  <mgrwgt>
 0.2844852963D-01    5    2    0
 0.131571969446743D+04 0.000000000000000D+00 0.000000000000000D+00 0.131571969446743D+04
 0.131571969446743D+04 0.000000000000000D+00 0.000000000000000D+00 -.131571969446743D+04
 0.518932913501156D+03 -.485505590805246D+03 -.641461854564137D+02 -.117626344426064D+03
 0.930360601732839D+03 -.631829942832185D+02 0.114401619476318D+02 -.928142166472739D+03
 0.118214587370087D+04 0.548688585088464D+03 0.527060235087819D+02 0.104576851089880D+04
 0.000000000000000D+00 0.000000000000000D+00 -.000000000000000D+00 -.000000000000000D+00
 0.238833022087459D+04 0.000000000000000D+00 0.000000000000000D+00 0.238833022087459D+04
 0.357954747140798D+04 0.000000000000000D+00 0.000000000000000D+00 -.357954747140798D+04
 0.910209414408276D+03 -.831520873334223D+03 0.328014113086479D+03 -.117626344426064D+03
 0.126064444536769D+04 -.593655862932973D+03 0.612657533094153D+03 -.928142166472739D+03
 0.127434399698387D+04 -.460618607106707D+02 0.726773107131237D+03 0.104576851089880D+04
 0.252267983552274D+04 0.147123859697787D+04 -.166744475331187D+04 -.119121725053339D+04
0.355573995116D+00 0.000000000000D+00 0.000000000000D+00 0.181140159659D-03 0.000000000000D+00  6 2 3 25 4 1 21 0 0.53189439D+00 0.77032612D-01 0.31407647D+06 0.31407647D+06 0.31407647D+06 0.10830816D+01  1  2  2  2  6  2        3 0.429776765468D-01 0.100000000000D+01
0.137558253142D+00 0.000000000000D+00 -.136549776603D-02 0.181140159659D-03 0.000000000000D+00  6 2 3 25 4 1 21 2 0.53189439D+00 0.77032612D-01 0.31407647D+06 0.31407647D+06 0.31407647D+06 0.10830816D+01  1  2  3  2  6  2        3 0.195039218696D-01 0.100000000000D+01
-.240142441328D+00 0.000000000000D+00 0.000000000000D+00 0.181140159659D-03 0.000000000000D+00  6 2 3 25 4 1 21 2 0.53189439D+00 0.77032612D-01 0.31407647D+06 0.31407647D+06 0.31407647D+06 0.10830816D+01  1  2 15  2  6  2        3 -.340489887466D-01 0.100000000000D+01
0.161821399191D+01 0.000000000000D+00 -.412225735329D+00 0.181140159659D-03 0.000000000000D+00  6 2 3 25 4 1 21 2 0.53189439D+00 0.80515628D+00 0.31407647D+06 0.31407647D+06 0.31407647D+06 0.10830816D+01  1  2  5  2  6  2        3 0.153886521252D-04 0.100000000000D+01
0.380831886312D+00 0.000000000000D+00 -.114556037709D+00 0.181140159659D-03 0.000000000000D+00  6 2 21 25 4 1 -3 2 0.53189439D+00 0.80515628D+00 0.31407647D+06 0.31407647D+06 0.31407647D+06 0.10830816D+01  1  2  5  6  6  2        3 0.531311066140D-06 0.100000000000D+01
  </mgrwgt>
  </event>
  <event>
  5     66 0.17338086E-05 0.10193749E+03 0.75467711E-02 0.95235753E-01
        2 -1    0    0  502    0 0.00000000E+00 0.00000000E+00 0.20631690E+04 0.20631690E+04 0.32000000E+00 0.0000E+00 0.9000E+01
        3 -1    0    0  501    0 0.00000000E+00 0.00000000E+00 -.33182359E+03 0.33182397E+03 0.50000000E+00 0.0000E+00 0.9000E+01
       25  1    1    2    0    0 -.46015499E+03 -.71784946E+02 0.35836206E+03 0.60078620E+03 0.12500000E+03 0.0000E+00 0.9000E+01
        4  1    1    2  501    0 0.10097829E+03 0.14066356E+02 -.17582344E+03 0.20325049E+03 0.15500000E+01 0.0000E+00 0.9000E+01
        1  1    1    2  502    0 0.35917671E+03 0.57718590E+02 0.15488068E+04 0.15909563E+04 0.32000000E+00 0.0000E+00 0.9000E+01
#aMCatNLO 1  0  0  4  1 0.21288007D+03 0.00000000D+00  -5  6  0 0.00000000D+00 0.00000000D+00 0.00000000D+00 0.00000000D+00 0.00000000D+00
  <mgrwgt>
 0.2798437373D-02    1    2    0
 0.827410792041848D+03 0.000000000000000D+00 0.000000000000000D+00 0.827410792041848D+03
 0.827410792041848D+03 -.000000000000000D+00 -.000000000000000D+00 -.827410792041848D+03
 0.494603257856907D+03 -.460162016530771D+03 -.717864044386814D+02 -.110022785652639D+03
 0.478041585002734D+03 0.100962626653285D+03 0.140641693572323D+02 -.467046575998034D+03
 0.682176741224055D+03 0.359199389877486D+03 0.577222350814491D+02 0.577069361650672D+03
 0.000000000000000D+00 0.000000000000000D+00 -.000000000000000D+00 0.000000000000000D+00
 0.827410792041848D+03 0.000000000000000D+00 0.000000000000000D+00 0.827410792041848D+03
 0.827410792041848D+03 -.000000000000000D+00 -.000000000000000D+00 -.827410792041848D+03
 0.502314035275604D+03 -.443294737942996D+03 -.694367799239714D+02 -.188049724649363D+03
 0.333601331524131D+03 0.159265472856284D+03 0.181424535934578D+03 -.230237910239518D+03
 0.612580765420944D+03 0.381105956970500D+03 0.607738362515509D+02 0.475731000201352D+03
 0.206325451863016D+03 -.970766918837876D+02 -.172761592262158D+03 -.574433653124705D+02
0.110999583959D-02 0.000000000000D+00 0.000000000000D+00 0.194135538496D-04 0.000000000000D+00  6 2 3 25 4 1 21 2 0.31741064D+00 0.51049814D-01 0.22465521D+06 0.22465521D+06 0.22465521D+06 0.10939688D+01  1  2 14  3  6  4        4 0.279843737286D-02 0.100000000000D+01
  </mgrwgt>
  </event>
  <event>
  5     66 0.17338086E-05 0.17172555E+03 0.75467711E-02 0.94203012E-01
        2 -1    0    0  502    0 0.00000000E+00 0.00000000E+00 0.11610488E+04 0.11610489E+04 0.32000000E+00 0.0000E+00 0.9000E+01
        3 -1    0    0  501    0 0.00000000E+00 0.00000000E+00 -.14854878E+04 0.14854879E+04 0.50000000E+00 0.0000E+00 0.9000E+01
       25  1    1    2    0    0 -.45096571E+03 -.19439361E+03 -.61025833E+02 0.51039994E+03 0.12500000E+03 0.0000E+00 0.9000E+01
        4  1    1    2  501    0 0.35599239E+03 0.51319463E+02 -.11645265E+04 0.12188062E+04 0.15500000E+01 0.0000E+00 0.9000E+01
        1  1    1    2  502    0 0.94973319E+02 0.14307415E+03 0.90111334E+03 0.91733064E+03 0.32000000E+00 0.0000E+00 0.9000E+01
#aMCatNLO 1  0  0  2  5 0.25657191D+03 0.00000000D+00  -5  6  0 0.00000000D+00 0.00000000D+00 0.00000000D+00 0.00000000D+00 0.00000000D+00
  <mgrwgt>
 0.1369425214D-02    1    2    0
 0.131328750924445D+04 0.000000000000000D+00 0.000000000000000D+00 0.131328750924445D+04
 0.131328750924445D+04 0.000000000000000D+00 0.000000000000000D+00 -.131328750924445D+04
 0.506746196696407D+03 -.450971455822784D+03 -.194393931444194D+03 0.156630680952827D+01
 0.108422794783251D+04 0.355998906119710D+03 0.513209423682974D+02 -.102282998713232D+04
 0.103560087395998D+04 0.949725497030740D+02 0.143072989075897D+03 0.102126368032279D+04
 0.000000000000000D+00 -.000000000000000D+00 0.000000000000000D+00 0.000000000000000D+00
 0.241741942772526D+04 0.000000000000000D+00 0.000000000000000D+00 0.241741942772526D+04
 0.180500932598584D+04 0.000000000000000D+00 0.000000000000000D+00 -.180500932598584D+04
 0.411879757740432D+03 -.272913597362547D+03 -.282020655083860D+03 0.156630680952827D+01
 0.132487535539094D+04 0.822956945906888D+03 -.178480783079774D+03 -.102282998713232D+04
 0.114698268277579D+04 0.518024121614239D+03 -.651212658576148D+02 0.102126368032279D+04
 0.133869095780395D+04 -.106806747015858D+04 0.525622704021248D+03 0.612410101739420D+03
0.994411946095D-02 0.000000000000D+00 0.000000000000D+00 0.672784543212D-04 0.000000000000D+00  6 2 3 25 4 1 21 2 0.17862291D+00 0.22853660D+00 0.26943804D+06 0.26943804D+06 0.26943804D+06 0.10880211D+01  1  2 14  2  6  2        3 0.136942521359D-02 0.100000000000D+01
  </mgrwgt>
  </event>
  <event>
  5     66 0.17338086E-05 0.73480247E+02 0.75467711E-02 0.91649690E-01
        2 -1    0    0  502    0 0.00000000E+00 0.00000000E+00 0.15334664E+04 0.15334665E+04 0.32000000E+00 0.0000E+00 0.9000E+01
        3 -1    0    0  501    0 0.00000000E+00 0.00000000E+00 -.63321185E+03 0.63321205E+03 0.50000000E+00 0.0000E+00 0.9000E+01
       25  1    1    2    0    0 -.31470461E+02 0.48329869E+03 0.70411428E+03 0.86369551E+03 0.12500000E+03 0.0000E+00 0.9000E+01
        4  1    1    2  501    0 -.67824203E+02 -.28253133E+02 -.47799009E+03 0.48360654E+03 0.15500000E+01 0.0000E+00 0.9000E+01
        1  1    1    2  502    0 0.99294663E+02 -.45504556E+03 0.67413038E+03 0.81937645E+03 0.32000000E+00 0.0000E+00 0.9000E+01
#aMCatNLO 1  0  0  2  1 0.26096145D+03 0.00000000D+00  -5  6  0 0.00000000D+00 0.00000000D+00 0.00000000D+00 0.00000000D+00 0.00000000D+00
  <mgrwgt>
 0.3704864316D-02    7    2    0
 0.985398069350305D+03 0.000000000000000D+00 0.000000000000000D+00 0.985398069350305D+03
 0.985398069350305D+03 0.000000000000000D+00 0.000000000000000D+00 -.985398069350305D+03
 0.627920608144681D+03 -.314534729705161D+02 0.483250891608839D+03 0.379655824306886D+03
 0.750067198074625D+03 -.678299874412608D+02 -.282566726009617D+02 -.746459278785359D+03
 0.592808332481306D+03 0.992834604117769D+02 -.454994219007877D+03 0.366803454478473D+03
 0.000000000000000D+00 -.000000000000000D+00 0.000000000000000D+00 -.000000000000000D+00
 0.108540247660959D+04 0.000000000000000D+00 0.000000000000000D+00 0.108540247660959D+04
 0.118026432507953D+04 0.000000000000000D+00 0.000000000000000D+00 -.118026432507953D+04
 0.611602291380499D+03 0.470307148607860D+02 0.460523538759333D+03 0.379655824306886D+03
 0.749027797805000D+03 0.270898024865021D+02 -.557434265280866D+02 -.746459278785359D+03
 0.627368476972237D+03 0.176542691312017D+03 -.477366850362940D+03 0.366803454478473D+03
 0.277668235531384D+03 -.250663208659305D+03 0.725867381316935D+02 -.948618484699452D+02
0.264067985460D-02 0.000000000000D+00 0.000000000000D+00 0.184630460844D-04 0.000000000000D+00  6 2 3 25 4 1 21 0 0.23591793D+00 0.97417225D-01 0.27004987D+06 0.27004987D+06 0.27004987D+06 0.10879475D+01  1  2  2  2  6  2        3 0.259621114158D-02 0.100000000000D+01
0.845933057659D-03 0.000000000000D+00 -.101409059486D-04 0.184630460844D-04 0.000000000000D+00  6 2 3 25 4 1 21 2 0.23591793D+00 0.97417225D-01 0.27004987D+06 0.27004987D+06 0.27004987D+06 0.10879475D+01  1  2  3  2  6  2        3 0.984410319828D-03 0.100000000000D+01
-.177835698176D-02 0.000000000000D+00 0.000000000000D+00 0.184630460844D-04 0.000000000000D+00  6 2 3 25 4 1 21 2 0.23591793D+00 0.97417225D-01 0.27004987D+06 0.27004987D+06 0.27004987D+06 0.10879475D+01  1  2 15  2  6  2        3 -.206946985856D-02 0.100000000000D+01
-.119772044886D-03 0.000000000000D+00 0.000000000000D+00 0.184630460844D-04 0.000000000000D+00  6 2 3 25 4 1 21 2 0.23591793D+00 0.97417225D-01 0.27004987D+06 0.27004987D+06 0.27004987D+06 0.10879475D+01  1  2  4  2  6  2        3 -.139378448384D-03 0.100000000000D+01
-.507228871979D-02 0.000000000000D+00 -.235202689514D-02 0.184630460844D-04 0.000000000000D+00  6 2 3 25 4 1 21 2 0.23591793D+00 0.12576741D+00 0.27004987D+06 0.27004987D+06 0.27004987D+06 0.10879475D+01  1  2  5  2  6  2        3 -.310502591187D-02 0.100000000000D+01
0.556522578005D-02 0.000000000000D+00 0.227732977701D-02 0.184630460844D-04 0.000000000000D+00  6 2 3 25 4 1 21 2 0.23591793D+00 0.97417225D-01 0.27004987D+06 0.27004987D+06 0.27004987D+06 0.10879475D+01  1  2  6  2  6  2        3 0.647624021836D-02 0.100000000000D+01
-.133575662677D-03 0.000000000000D+00 -.808702683843D-04 0.184630460844D-04 0.000000000000D+00  6 2 21 25 4 1 -3 2 0.23591793D+00 0.12576741D+00 0.27004987D+06 0.27004987D+06 0.27004987D+06 0.10879475D+01  1  2  5  6  6  2        3 -.103812314475D-02 0.100000000000D+01
  </mgrwgt>
  </event>
  <event>
  5     66 0.17338086E-05 0.47397484E+02 0.75467711E-02 0.93467766E-01
        2 -1    0    0  502    0 0.00000000E+00 0.00000000E+00 0.17112353E+04 0.17112353E+04 0.32000000E+00 0.0000E+00 0.9000E+01
        3 -1    0    0  501    0 0.00000000E+00 0.00000000E+00 -.81283818E+03 0.81283833E+03 0.50000000E+00 0.0000E+00 0.9000E+01
       25  1    1    2    0    0 -.36506263E+03 0.40327975E+03 0.13269185E+04 0.14395287E+04 0.12500000E+03 0.0000E+00 0.9000E+01
        4  1    1    2  501    0 0.31994657E+03 -.38851778E+03 -.67025958E+03 0.83818982E+03 0.15500000E+01 0.0000E+00 0.9000E+01
        1  1    1    2  502    0 0.45116063E+02 -.14761963E+02 0.24173821E+03 0.24635511E+03 0.32000000E+00 0.0000E+00 0.9000E+01
#aMCatNLO 1  0  0  5  1 0.91204225D+01 0.00000000D+00  -5  6  0 0.00000000D+00 0.00000000D+00 0.00000000D+00 0.00000000D+00 0.00000000D+00
  <mgrwgt>
 0.6194421317D-03    1    2    0
 0.117938864944797D+04 0.000000000000000D+00 0.000000000000000D+00 0.117938864944797D+04
 0.117938864944797D+04 -.000000000000000D+00 -.000000000000000D+00 -.117938864944797D+04
 0.103524108308721D+04 -.365040175599155D+03 0.403309582636037D+03 0.871886547014034D+03
 0.115225042341650D+04 0.319992771088116D+03 -.388570084292461D+03 -.103648393827778D+04
 0.171285792392221D+03 0.450474045110394D+02 -.147394983435766D+02 0.164597391263743D+03
 0.000000000000000D+00 0.000000000000000D+00 0.000000000000000D+00 0.000000000000000D+00
 0.117938864944797D+04 0.000000000000000D+00 0.000000000000000D+00 0.117938864944797D+04
 0.117938864944797D+04 -.000000000000000D+00 -.000000000000000D+00 -.117938864944797D+04
 0.104108181836430D+04 -.362798508272179D+03 0.402576109704323D+03 0.880077309569757D+03
 0.114507708974129D+04 0.322473042351324D+03 -.389381628366365D+03 -.102742134779156D+04
 0.101630990341216D+03 0.618137056875776D+02 -.181243759691997D+01 0.806513425608221D+02
 0.709874004491176D+02 -.214882397667229D+02 -.113820437410388D+02 0.666926956609814D+02
0.126574570921D-02 0.000000000000D+00 0.000000000000D+00 0.125754100709D-04 0.000000000000D+00  6 2 3 25 4 1 21 2 0.26326698D+00 0.12505204D+00 0.30742814D+06 0.30742814D+06 0.30742814D+06 0.10837669D+01  1  2 14  4  6  5        1 0.619442131698D-03 0.100000000000D+01
  </mgrwgt>
  </event>
  <event>
  6     66 0.17338086E-05 0.43129510E+02 0.75467711E-02 0.93020634E-01
        2 -1    0    0  502    0 0.00000000E+00 0.00000000E+00 0.17163022E+04 0.17163022E+04 0.32000000E+00 0.0000E+00 0.9000E+01
        3 -1    0    0  501    0 0.00000000E+00 0.00000000E+00 -.14457709E+04 0.14457710E+04 0.50000000E+00 0.0000E+00 0.9000E+01
       25  1    1    2    0    0 -.52438779E+03 -.86319888E+02 -.13276762E+03 0.56185934E+03 0.12500000E+03 0.0000E+00 0.9000E+01
        4  1    1    2  501    0 -.16731607E+02 0.48172587E+02 -.10454002E+04 0.10466445E+04 0.15500000E+01 0.0000E+00 0.9000E+01
        1  1    1    2  503    0 0.44896301E+03 0.81225396E+02 0.11159233E+04 0.12055913E+04 0.32000000E+00 0.0000E+00 0.9000E+01
       21  1    1    2  502  503 0.92156386E+02 -.43078095E+02 0.33277581E+03 0.34797819E+03 0.75000000E+00 0.0000E+00 0.9000E+01
#aMCatNLO 2  0  0  5  1 0.59646683D+02 0.00000000D+00  -5  6  0 0.00000000D+00 0.00000000D+00 0.00000000D+00 0.00000000D+00 0.00000000D+00
  <mgrwgt>
 0.1898789723D-01    1    2    0
 0.157523966572415D+04 0.000000000000000D+00 0.000000000000000D+00 0.157523966572415D+04
 0.157523966572415D+04 -.000000000000000D+00 -.000000000000000D+00 -.157523966572415D+04
 0.576116605035633D+03 -.524870556323325D+03 -.863611214358203D+02 -.182586961218415D+03
 0.114278210622498D+04 -.177209712137388D+02 0.481100397656581D+02 -.114163143507920D+04
 0.143158062018769D+04 0.542591527537063D+03 0.382510816701622D+02 0.132421839629761D+04
 0.000000000000000D+00 0.000000000000000D+00 0.000000000000000D+00 0.000000000000000D+00
 0.157523966572415D+04 0.000000000000000D+00 0.000000000000000D+00 0.157523966572415D+04
 0.157523966572415D+04 -.000000000000000D+00 -.000000000000000D+00 -.157523966572415D+04
 0.575272198030716D+03 -.524371886697790D+03 -.863259667170222D+02 -.181369936148367D+03
 0.114035925237666D+04 -.167321364749391D+02 0.481797496605468D+02 -.113921814057392D+04
 0.111405728403551D+04 0.448914674761041D+03 0.812357307633532D+02 0.101636607723010D+04
 0.320790597005413D+03 0.921893484116880D+02 -.430895137068778D+02 0.304221999492184D+03
0.258021788402D+00 0.000000000000D+00 0.000000000000D+00 0.649996846063D-03 0.101804612732D-05  6 2 3 25 4 1 21 2 0.26404650D+00 0.22242631D+00 0.33345066D+06 0.33345066D+06 0.33345066D+06 0.10811715D+01  1  2  1  4  6  5        1 0.189878972297D-01 0.100000000000D+01
  </mgrwgt>
  </event>
  <event>
  5     66 0.17338086E-05 0.21687526E+02 0.75467711E-02 0.95039108E-01
        2 -1    0    0  502    0 0.00000000E+00 0.00000000E+00 0.98995228E+03 0.98995233E+03 0.32000000E+00 0.0000E+00 0.9000E+01
        3 -1    0    0  501    0 0.00000000E+00 0.00000000E+00 -.51777016E+03 0.51777040E+03 0.50000000E+00 0.0000E+00 0.9000E+01
       25  1    1    2    0    0 -.30667952E+03 -.33263333E+03 0.75247980E+03 0.88687548E+03 0.12500000E+03 0.0000E+00 0.9000E+01
        4  1    1    2  501    0 0.32621440E+03 0.34245395E+03 -.32309612E+03 0.57278621E+03 0.15500000E+01 0.0000E+00 0.9000E+01
        1  1    1    2  502    0 -.19534878E+02 -.98206213E+01 0.42798430E+02 0.48061045E+02 0.32000000E+00 0.0000E+00 0.9000E+01
#aMCatNLO 1  0  0  4  2 0.39469514D+02 0.00000000D+00  -5  6  0 0.00000000D+00 0.00000000D+00 0.00000000D+00 0.00000000D+00 0.00000000D+00
  <mgrwgt>
 0.1576479859D-02    4    2    0
 0.715938526395922D+03 0.000000000000000D+00 0.000000000000000D+00 0.715938526395922D+03
 0.715938526395922D+03 -.000000000000000D+00 -.000000000000000D+00 -.715938526395922D+03
 0.686002022618948D+03 -.306888936390551D+03 -.332778426498355D+03 0.500051471966280D+03
 0.709678382044403D+03 0.326265702426781D+03 0.342519561536100D+03 -.529031612785322D+03
 0.361966481284925D+02 -.193767660362301D+02 -.974113503774452D+01 0.289801408190424D+02
 0.000000000000000D+00 0.000000000000000D+00 0.000000000000000D+00 0.000000000000000D+00
 0.715938526395922D+03 0.000000000000000D+00 0.000000000000000D+00 0.715938526395922D+03
 0.715938526395922D+03 -.000000000000000D+00 -.000000000000000D+00 -.715938526395922D+03
 0.649829487380414D+03 -.289958342466680D+03 -.315004386615474D+03 0.472598940663303D+03
 0.699593244389007D+03 0.290411624165944D+03 0.329774524548803D+03 -.544371710417291D+03
 0.343087043077502D+02 -.184831671933955D+02 -.880301901279837D+01 0.275311928190178D+02
 0.481456167146726D+02 0.180298854941318D+02 -.596711892053053D+01 0.442415769349704D+02
0.139277245898D-02 0.000000000000D+00 0.000000000000D+00 0.131560269143D-05 0.000000000000D+00  6 2 3 25 4 1 21 0 0.15230037D+00 0.79656971D-01 0.23249485D+06 0.23249485D+06 0.23249485D+06 0.10928388D+01  1  2  2  3  6  4        4 0.450895576378D-02 0.100000000000D+01
0.420825510218D-03 0.000000000000D+00 -.534861296790D-05 0.131560269143D-05 0.000000000000D+00  6 2 3 25 4 1 21 2 0.15230037D+00 0.79656971D-01 0.23249485D+06 0.23249485D+06 0.23249485D+06 0.10928388D+01  1  2  3  3  6  4        4 0.162708438153D-02 0.100000000000D+01
-.113514522997D-02 0.000000000000D+00 0.000000000000D+00 0.131560269143D-05 0.000000000000D+00  6 2 3 25 4 1 21 2 0.15230037D+00 0.79656971D-01 0.23249485D+06 0.23249485D+06 0.23249485D+06 0.10928388D+01  1  2 15  3  6  4        4 -.438893800308D-02 0.100000000000D+01
-.441293704829D-04 0.000000000000D+00 0.000000000000D+00 0.131560269143D-05 0.000000000000D+00  6 2 3 25 4 1 21 2 0.15230037D+00 0.79656971D-01 0.23249485D+06 0.23249485D+06 0.23249485D+06 0.10928388D+01  1  2  4  3  6  4        4 -.170622283431D-03 0.100000000000D+01
  </mgrwgt>
  </event>
  <event>
  6     66 0.17338086E-05 0.30043967E+02 0.75467711E-02 0.93286483E-01
        2 -1    0    0  502    0 0.00000000E+00 0.00000000E+00 0.17180745E+04 0.17180745E+04 0.32000000E+00 0.0000E+00 0.9000E+01
        3 -1    0    0  501    0 0.00000000E+00 0.00000000E+00 -.11407458E+04 0.11407459E+04 0.50000000E+00 0.0000E+00 0.9000E+01
       25  1    1    2    0    0 0.25901137E+03 0.44775592E+03 0.33603540E+03 0.62937830E+03 0.12500000E+03 0.0000E+00 0.9000E+01
        4  1    1    2  501    0 -.26550254E+03 -.48103330E+03 -.91760353E+03 0.10695248E+04 0.15500000E+01 0.0000E+00 0.9000E+01
        1  1    1    2  503    0 0.16436079E+02 0.31079787E+02 0.67699435E+03 0.67790674E+03 0.32000000E+00 0.0000E+00 0.9000E+01
       21  1    1    2  502  503 -.99449156E+01 0.21975940E+01 0.48190242E+03 0.48201062E+03 0.75000000E+00 0.0000E+00 0.9000E+01
#aMCatNLO 2  0  0  5  4 0.17176670D+02 0.00000000D+00  -5  6  0 0.00000000D+00 0.00000000D+00 0.00000000D+00 0.00000000D+00 0.00000000D+00
  <mgrwgt>
 0.7000952593D-02    1    2    0
 0.139995946519079D+04 0.000000000000000D+00 0.000000000000000D+00 0.139995946519079D+04
 0.139995946519079D+04 -.000000000000000D+00 -.000000000000000D+00 -.139995946519079D+04
 0.573542333803047D+03 0.259100612014461D+03 0.447919499465051D+03 0.213449768135165D+03
 0.128153325160202D+04 -.265592649993279D+03 -.481201365737635D+03 -.115768444096111D+04
 0.944843344976518D+03 0.649203797881831D+01 0.332818662725833D+02 0.944234672825940D+03
 0.000000000000000D+00 0.000000000000000D+00 0.000000000000000D+00 0.000000000000000D+00
 0.139995946519079D+04 0.000000000000000D+00 0.000000000000000D+00 0.139995946519079D+04
 0.139995946519079D+04 -.000000000000000D+00 -.000000000000000D+00 -.139995946519079D+04
 0.573595358546213D+03 0.259101516899208D+03 0.447924138417144D+03 0.213581379126429D+03
 0.128126333243714D+04 -.265590628408986D+03 -.481191001950745D+03 -.115739041156857D+04
 0.552024703130323D+03 0.164291797932975D+02 0.310575325054660D+02 0.550905422547385D+03
 0.393035536267912D+03 -.994006828351967D+01 0.220933102813569D+01 0.392903609894759D+03
0.392266865739D-01 0.000000000000D+00 0.000000000000D+00 0.548651003832D-03 0.869678592835D-05  6 2 3 25 4 1 21 2 0.26431916D+00 0.17549937D+00 0.31769404D+06 0.31769404D+06 0.31769404D+06 0.10827153D+01  1  2  1  4  6  5        1 0.700095259291D-02 0.100000000000D+01
  </mgrwgt>
  </event>
  <event>
  5     66 -.17338086E-05 0.27927956E+02 0.75467711E-02 0.94696420E-01
        2 -1    0    0  502    0 0.00000000E+00 0.00000000E+00 0.28804381E+04 0.28804381E+04 0.32000000E+00 0.0000E+00 0.9000E+01
        3 -1    0    0  501    0 0.00000000E+00 0.00000000E+00 -.20292663E+03 0.20292725E+03 0.50000000E+00 0.0000E+00 0.9000E+01
       25  1    1    2    0    0 -.41179140E+03 0.20697812E+03 0.56582379E+03 0.74040101E+03 0.12500000E+03 0.0000E+00 0.9000E+01
        4  1    1    2  501    0 -.27131303E+02 0.67202834E+01 -.86657499E+02 0.91066978E+02 0.15500000E+01 0.0000E+00 0.9000E+01
        1  1    1    2  502    0 0.43892270E+03 -.21369840E+03 0.21983452E+04 0.22518974E+04 0.32000000E+00 0.0000E+00 0.9000E+01
#aMCatNLO 1  0  0  4  4 0.80432923D+01 0.00000000D+00  -5  6  0 0.00000000D+00 0.00000000D+00 0.00000000D+00 0.00000000D+00 0.00000000D+00
  <mgrwgt>
 -.1624808199D-02    1    2    0
 0.764538143893229D+03 0.000000000000000D+00 0.000000000000000D+00 0.764538143893229D+03
 0.764538143893229D+03 -.000000000000000D+00 -.000000000000000D+00 -.764538143893229D+03
 0.502394047209867D+03 -.411869318751452D+03 0.207011666662761D+03 -.155835210426368D+03
 0.335113285216355D+03 -.271089605974760D+02 0.671379169483590D+01 -.333947515614207D+03
 0.691568955360236D+03 0.438978279348929D+03 -.213725458357597D+03 0.489782726040575D+03
 0.000000000000000D+00 0.000000000000000D+00 0.000000000000000D+00 0.000000000000000D+00
 0.764538143893229D+03 0.000000000000000D+00 0.000000000000000D+00 0.764538143893229D+03
 0.764538143893229D+03 -.000000000000000D+00 -.000000000000000D+00 -.764538143893229D+03
 0.503911672919392D+03 -.412186550557841D+03 0.207090232134108D+03 -.159743098124111D+03
 0.315423953940032D+03 -.699569586633109D+01 0.726130414134246D+00 -.315345530637634D+03
 0.687475710412959D+03 0.438543543838970D+03 -.213617791977482D+03 0.484427343897540D+03
 0.222649505140751D+02 -.193612974147971D+02 0.580142942923943D+01 -.933871513579555D+01
-.736754619617D-03 0.000000000000D+00 0.000000000000D+00 0.355296561375D-04 0.000000000000D+00  6 2 3 25 4 1 21 2 0.44314437D+00 0.31219530D-01 0.24690178D+06 0.24690178D+06 0.24690178D+06 0.10908668D+01  1  2 14  3  6  4        4 -.162480819900D-02 0.100000000000D+01
  </mgrwgt>
  </event>
  <event>
  5     66 -.17338086E-05 0.31579956E+02 0.75467711E-02 0.94504413E-01
        2 -1    0    0  502    0 0.00000000E+00 0.00000000E+00 0.18820926E+04 0.18820926E+04 0.32000000E+00 0.0000E+00 0.9000E+01
        3 -1    0    0  501    0 -.00000000E+00 -.00000000E+00 -.31447318E+04 0.31447318E+04 0.50000000E+00 0.0000E+00 0.9000E+01
       25  1    1    2    0    0 -.44828030E+03 -.99836794E+02 0.16148541E+03 0.50261830E+03 0.12500000E+03 0.0000E+00 0.9000E+01
        4  1    1    2  501    0 0.12728985E+02 0.28899949E+02 -.29426703E+04 0.29428402E+04 0.15500000E+01 0.0000E+00 0.9000E+01
        1  1    1    2  502    0 0.43555132E+03 0.70936845E+02 0.15185457E+04 0.15813659E+04 0.32000000E+00 0.0000E+00 0.9000E+01
#aMCatNLO 1  0  0  4  4 0.39228057D+02 0.00000000D+00  -5  6  0 0.00000000D+00 0.00000000D+00 0.00000000D+00 0.00000000D+00 0.00000000D+00
  <mgrwgt>
 -.1301803980D-01    4    2    0
 0.243283302281205D+04 0.000000000000000D+00 0.000000000000000D+00 0.243283302281205D+04
 0.243283302281205D+04 -.000000000000000D+00 -.000000000000000D+00 -.243283302281205D+04
 0.561182973305456D+03 -.448276666594606D+03 -.998368757027679D+02 0.297291032432347D+03
 0.227669727754614D+04 0.127295753015490D+02 0.289007187702574D+02 -.227647824499889D+04
 0.202778579477250D+04 0.435547091293059D+03 0.709361569325151D+02 0.197918721256654D+04
 0.000000000000000D+00 0.000000000000000D+00 0.000000000000000D+00 0.000000000000000D+00
 0.243283302281205D+04 0.000000000000000D+00 0.000000000000000D+00 0.243283302281205D+04
 0.243283302281205D+04 -.000000000000000D+00 -.000000000000000D+00 -.243283302281205D+04
 0.561074743731906D+03 -.448275538244045D+03 -.998343139407709D+02 0.297089245220710D+03
 0.596220705931405D+03 -.106998594650859D+02 -.290786043277284D+02 -.595415046802752D+03
 0.202707539123943D+04 0.435551168168473D+03 0.709454129074410D+02 0.197845812946925D+04
 0.168129520472136D+04 0.234242295406594D+02 0.579675053610629D+02 -.168013232788721D+04
0.169760776157D+00 0.000000000000D+00 0.000000000000D+00 0.161812836241D-01 0.000000000000D+00  6 2 3 25 4 1 21 0 0.28955271D+00 0.48380489D+00 0.22507082D+06 0.22507082D+06 0.22507082D+06 0.10939078D+01  1  2  2  3  6  4        4 0.205225686558D-03 0.100000000000D+01
0.119244191276D+00 0.000000000000D+00 -.651926079482D-03 0.161812836241D-01 0.000000000000D+00  6 2 3 25 4 1 21 2 0.28955271D+00 0.48380489D+00 0.22507082D+06 0.22507082D+06 0.22507082D+06 0.10939078D+01  1  2  3  3  6  4        4 0.172501573523D-03 0.100000000000D+01
-.109120505528D+00 0.000000000000D+00 0.000000000000D+00 0.161812836241D-01 0.000000000000D+00  6 2 3 25 4 1 21 2 0.28955271D+00 0.48380489D+00 0.22507082D+06 0.22507082D+06 0.22507082D+06 0.10939078D+01  1  2 15  3  6  4        4 -.157856401270D-03 0.100000000000D+01
-.915089595406D+01 0.000000000000D+00 0.000000000000D+00 0.161812836241D-01 0.000000000000D+00  6 2 3 25 4 1 21 2 0.28955271D+00 0.48380489D+00 0.22507082D+06 0.22507082D+06 0.22507082D+06 0.10939078D+01  1  2  5  3  6  4        4 -.132379106632D-01 0.100000000000D+01
  </mgrwgt>
  </event>
  <event>
  6     66 0.17338086E-05 0.14209862E+02 0.75467711E-02 0.92425802E-01
        2 -1    0    0  502    0 0.00000000E+00 0.00000000E+00 0.21278531E+04 0.21278532E+04 0.32000000E+00 0.0000E+00 0.9000E+01
       21 -1    0    0  501  503 0.00000000E+00 0.00000000E+00 -.75403625E+03 0.75403662E+03 0.75000000E+00 0.0000E+00 0.9000E+01
       25  1    1    2    0    0 0.33212405E+03 0.47657129E+03 0.74552609E+03 0.95334188E+03 0.12500000E+03 0.0000E+00 0.9000E+01
        4  1    1    2  501    0 -.34618453E+03 -.49393794E+03 0.11774258E+04 0.13229332E+04 0.15500000E+01 0.0000E+00 0.9000E+01
        1  1    1    2  502    0 0.32555368E+01 0.44208657E+01 0.27847658E+02 0.28385507E+02 0.32000000E+00 0.0000E+00 0.9000E+01
       -3  1    1    2    0  503 0.10804939E+02 0.12945779E+02 -.57698263E+03 0.57722920E+03 0.50000000E+00 0.0000E+00 0.9000E+01
#aMCatNLO 2  0  0  2  4 0.16450133D+03 0.00000000D+00  -5  6  0 0.00000000D+00 0.00000000D+00 0.00000000D+00 0.00000000D+00 0.00000000D+00
  <mgrwgt>
 0.8866505582D-03    1    2    0
 0.613505769681075D+03 0.000000000000000D+00 0.000000000000000D+00 0.613505769681075D+03
 0.613505769681075D+03 0.000000000000000D+00 0.000000000000000D+00 -.613505769681075D+03
 0.613517734651788D+03 0.337625579126850D+03 0.483191073098985D+03 -.115387893337962D+03
 0.604690264445325D+03 -.340848505019459D+03 -.487555309907776D+03 0.108454747806122D+03
 0.880354026503699D+01 0.322292589260874D+01 0.436423680879147D+01 0.693314553183974D+01
 0.000000000000000D+00 0.000000000000000D+00 0.000000000000000D+00 -.000000000000000D+00
 0.613599219751926D+03 0.000000000000000D+00 0.000000000000000D+00 0.613599219751926D+03
 0.261486448436238D+04 0.000000000000000D+00 0.000000000000000D+00 -.261486448436238D+04
 0.605504586228665D+03 0.332258538958353D+03 0.476760633131799D+03 -.115387893337962D+03
 0.612892869285650D+03 -.346209208818957D+03 -.493978158047964D+03 0.108454747806122D+03
 0.872994521771612D+01 0.314573048833451D+01 0.427174627446645D+01 0.693314553183974D+01
 0.200133630338227D+04 0.108049393722695D+02 0.129457786416981D+02 -.200126526461045D+04
0.203314657500D-03 0.000000000000D+00 0.000000000000D+00 0.494238316031D-07 0.421908385550D-09  6 2 21 25 4 1 -3 2 0.32736203D+00 0.11600560D+00 0.37197595D+06 0.37197595D+06 0.37197595D+06 0.10777091D+01  1  2  1  6  6  2        3 0.886650558175D-03 0.100000000000D+01
  </mgrwgt>
  </event>
  <event>
  5     66 -.17338086E-05 0.12264729E+03 0.75467711E-02 0.91958460E-01
        2 -1    0    0  502    0 0.00000000E+00 0.00000000E+00 0.32652292E+04 0.32652292E+04 0.32000000E+00 0.0000E+00 0.9000E+01
        3 -1    0    0  501    0 0.00000000E+00 0.00000000E+00 -.41767760E+03 0.41767790E+03 0.50000000E+00 0.0000E+00 0.9000E+01
       25  1    1    2    0    0 -.94146375E+02 0.60230268E+03 0.10159129E+04 0.11913589E+04 0.12500000E+03 0.0000E+00 0.9000E+01
        4  1    1    2  501    0 0.23903506E+02 -.50174703E+03 -.13575093E+03 0.52033852E+03 0.15500000E+01 0.0000E+00 0.9000E+01
        1  1    1    2  502    0 0.70242869E+02 -.10055565E+03 0.19673896E+04 0.19712097E+04 0.32000000E+00 0.0000E+00 0.9000E+01
#aMCatNLO 1  0  0  2  4 0.45303390D+02 0.00000000D+00  -5  6  0 0.00000000D+00 0.00000000D+00 0.00000000D+00 0.00000000D+00 0.00000000D+00
  <mgrwgt>
 -.2288250073D-02    9    2    0
 0.116782433260824D+04 0.000000000000000D+00 0.000000000000000D+00 0.116782433260824D+04
 0.116782433260824D+04 0.000000000000000D+00 0.000000000000000D+00 -.116782433260824D+04
 0.640042955731425D+03 -.941430426264206D+02 0.602336822513654D+03 0.149523994564796D+03
 0.986010358168356D+03 0.239075061752766D+02 -.501791672513738D+03 -.848439729715455D+03
 0.709595351316700D+03 0.702355364511441D+02 -.100545149999916D+03 0.698915735150658D+03
 0.000000000000000D+00 0.000000000000000D+00 -.000000000000000D+00 -.000000000000000D+00
 0.116921276521981D+04 0.000000000000000D+00 0.000000000000000D+00 0.116921276521981D+04
 0.160705132596746D+04 0.000000000000000D+00 0.000000000000000D+00 -.160705132596746D+04
 0.651983011720788D+03 -.957030636695165D+02 0.614768530608200D+03 0.149523994564796D+03
 0.976480824367910D+03 0.215379504397337D+02 -.482908834138965D+03 -.848439729715455D+03
 0.707624151224983D+03 0.685243539344253D+02 -.869088457728130D+02 0.698915735150658D+03
 0.440176103873590D+03 0.564075929535756D+01 -.449508506964217D+02 -.437838560747649D+03
0.129956226510D-03 0.000000000000D+00 0.000000000000D+00 0.160385124063D-04 0.000000000000D+00  6 2 3 25 4 1 21 0 0.50234298D+00 0.64258117D-01 0.38896460D+06 0.38896460D+06 0.38896460D+06 0.10763046D+01  1  2  2  2  6  2        3 0.311274601414D-04 0.100000000000D+01
0.263598332129D-04 0.000000000000D+00 -.499066128057D-06 0.160385124063D-04 0.000000000000D+00  6 2 3 25 4 1 21 2 0.50234298D+00 0.64258117D-01 0.38896460D+06 0.38896460D+06 0.38896460D+06 0.10763046D+01  1  2  3  2  6  2        3 0.731407888181D-05 0.100000000000D+01
-.866145322943D-04 0.000000000000D+00 0.000000000000D+00 0.160385124063D-04 0.000000000000D+00  6 2 3 25 4 1 21 2 0.50234298D+00 0.64258117D-01 0.38896460D+06 0.38896460D+06 0.38896460D+06 0.10763046D+01  1  2 15  2  6  2        3 -.240329867186D-04 0.100000000000D+01
0.133594871971D-01 0.000000000000D+00 0.000000000000D+00 0.160385124063D-04 0.000000000000D+00  6 2 3 25 4 1 21 2 0.50234298D+00 0.89154392D-01 0.40575117D+06 0.40575117D+06 0.40575117D+06 0.10749810D+01  1  2 12  2  6  2        3 0.177248208213D-02 0.100000000000D+01
-.209579965450D-01 0.000000000000D+00 0.000000000000D+00 0.160385124063D-04 0.000000000000D+00  6 2 3 25 4 1 21 2 0.50234298D+00 0.64258117D-01 0.38896460D+06 0.38896460D+06 0.38896460D+06 0.10763046D+01  1  2  4  2  6  2        3 -.581522799088D-02 0.100000000000D+01
-.138302896566D-01 0.000000000000D+00 -.100646313923D-03 0.160385124063D-04 0.000000000000D+00  6 2 3 25 4 1 21 2 0.50234298D+00 0.88467153D-01 0.38896460D+06 0.38896460D+06 0.38896460D+06 0.10763046D+01  1  2  5  2  6  2        3 -.187969449772D-02 0.100000000000D+01
0.131876029645D-01 0.000000000000D+00 0.957124906872D-04 0.160385124063D-04 0.000000000000D+00  6 2 3 25 4 1 21 2 0.50234298D+00 0.64258117D-01 0.38896460D+06 0.38896460D+06 0.38896460D+06 0.10763046D+01  1  2  6  2  6  2        3 0.365917217933D-02 0.100000000000D+01
0.550081981330D-03 0.000000000000D+00 0.000000000000D+00 0.160385124063D-04 0.000000000000D+00  6 2 21 25 4 1 -3 2 0.50234298D+00 0.89154392D-01 0.40575117D+06 0.40575117D+06 0.40575117D+06 0.10749810D+01  1  2 12  6  6  2        3 0.965449823486D-03 0.100000000000D+01
-.557253092358D-03 0.000000000000D+00 -.407336990807D-05 0.160385124063D-04 0.000000000000D+00  6 2 21 25 4 1 -3 2 0.50234298D+00 0.88467153D-01 0.38896460D+06 0.38896460D+06 0.38896460D+06 0.10763046D+01  1  2  5  6  6  2        3 -.100484022118D-02 0.100000000000D+01
  </mgrwgt>
  </event>
  <event>
  5     66 0.17338086E-05 0.34237945E+03 0.75467711E-02 0.91131279E-01
        2 -1    0    0  502    0 0.00000000E+00 0.00000000E+00 0.19749935E+04 0.19749935E+04 0.32000000E+00 0.0000E+00 0.9000E+01
        3 -1    0    0  501    0 0.00000000E+00 0.00000000E+00 -.11313963E+04 0.11313964E+04 0.50000000E+00 0.0000E+00 0.9000E+01
       25  1    1    2    0    0 -.51734102E+03 -.37733251E+03 -.53389630E+03 0.84302539E+03 0.12500000E+03 0.0000E+00 0.9000E+01
        4  1    1    2  501    0 0.14031042E+03 0.31235600E+03 -.35257831E+03 0.49149481E+03 0.15500000E+01 0.0000E+00 0.9000E+01
        1  1    1    2  502    0 0.37703059E+03 0.64976508E+02 0.17300717E+04 0.17718697E+04 0.32000000E+00 0.0000E+00 0.9000E+01
#aMCatNLO 1  0  0  1  5 0.14769156D+03 0.00000000D+00  -5  6  0 0.00000000D+00 0.00000000D+00 0.00000000D+00 0.00000000D+00 0.00000000D+00
  <mgrwgt>
 0.3389573881D-03    7    2    0
 0.149482460022802D+04 0.000000000000000D+00 0.000000000000000D+00 0.149482460022802D+04
 0.149482460022802D+04 0.000000000000000D+00 0.000000000000000D+00 -.149482460022802D+04
 0.102662751305343D+04 -.517321106588077D+03 -.377299136263858D+03 -.792693689271777D+03
 0.610113075715920D+03 0.140282355761720D+03 0.312321222916542D+03 -.504989385569041D+03
 0.135290861168668D+04 0.377038750826357D+03 0.649779133473161D+02 0.129768307484082D+04
 0.000000000000000D+00 -.000000000000000D+00 -.000000000000000D+00 0.000000000000000D+00
 0.199246707505456D+04 0.000000000000000D+00 0.000000000000000D+00 0.199246707505456D+04
 0.196090516406724D+04 0.000000000000000D+00 0.000000000000000D+00 -.196090516406724D+04
 0.898098915094536D+03 -.259218564621684D+03 -.308867466784957D+03 -.792693689271777D+03
 0.695064874359893D+03 0.315304500055338D+03 0.358725483171170D+03 -.504989385569041D+03
 0.151382396210603D+04 0.761462715506744D+03 0.166901642925316D+03 0.129768307484082D+04
 0.846384487561348D+03 -.817548650940397D+03 -.216759659311529D+03 0.315619109873180D+02
0.405037494969D-02 0.000000000000D+00 0.000000000000D+00 0.104369660415D-05 0.000000000000D+00  6 2 3 25 4 1 21 0 0.30384516D+00 0.17406099D+00 0.47427817D+06 0.47427817D+06 0.47427817D+06 0.10701352D+01  1  2  2  1  6  1        2 0.444341927323D-03 0.100000000000D+01
0.207372667522D-03 0.000000000000D+00 -.155545062950D-04 0.104369660415D-05 0.000000000000D+00  6 2 3 25 4 1 21 2 0.30384516D+00 0.17406099D+00 0.47427817D+06 0.47427817D+06 0.47427817D+06 0.10701352D+01  1  2  3  1  6  1        2 0.260525901532D-04 0.100000000000D+01
-.303878664303D-02 0.000000000000D+00 0.000000000000D+00 0.104369660415D-05 0.000000000000D+00  6 2 3 25 4 1 21 2 0.30384516D+00 0.17406099D+00 0.47427817D+06 0.47427817D+06 0.47427817D+06 0.10701352D+01  1  2 15  1  6  1        2 -.381768069630D-03 0.100000000000D+01
-.758422450359D-04 0.000000000000D+00 0.000000000000D+00 0.104369660415D-05 0.000000000000D+00  6 2 3 25 4 1 21 2 0.30384516D+00 0.17406099D+00 0.47427817D+06 0.47427817D+06 0.47427817D+06 0.10701352D+01  1  2  4  1  6  1        2 -.952819361311D-05 0.100000000000D+01
-.139169775691D-02 0.000000000000D+00 -.263135271641D-02 0.104369660415D-05 0.000000000000D+00  6 2 3 25 4 1 21 2 0.45348945D+00 0.17406099D+00 0.47427817D+06 0.47427817D+06 0.47427817D+06 0.10701352D+01  1  2  5  1  6  1        2 -.473089581113D-04 0.100000000000D+01
0.244454369163D-02 0.000000000000D+00 0.243360104261D-02 0.104369660415D-05 0.000000000000D+00  6 2 3 25 4 1 21 2 0.30384516D+00 0.17406099D+00 0.47427817D+06 0.47427817D+06 0.47427817D+06 0.10701352D+01  1  2  6  1  6  1        2 0.307112290499D-03 0.100000000000D+01
0.236521496752D-04 0.000000000000D+00 -.125356087199D-03 0.104369660415D-05 0.000000000000D+00  6 21 3 25 4 1 -2 2 0.45348945D+00 0.17406099D+00 0.47427817D+06 0.47427817D+06 0.47427817D+06 0.10701352D+01  1  2  5  5  6  1        2 0.558014844724D-07 0.100000000000D+01
  </mgrwgt>
  </event>
  <event>
  5     66 0.17338086E-05 0.22845933E+02 0.75467711E-02 0.95215940E-01
        2 -1    0    0  502    0 0.00000000E+00 0.00000000E+00 0.68393963E+03 0.68393971E+03 0.32000000E+00 0.0000E+00 0.9000E+01
        3 -1    0    0  501    0 0.00000000E+00 0.00000000E+00 -.12365230E+04 0.12365231E+04 0.50000000E+00 0.0000E+00 0.9000E+01
       25  1    1    2    0    0 -.60212954E+02 -.45740911E+03 0.29856972E+03 0.56357570E+03 0.12500000E+03 0.0000E+00 0.9000E+01
        4  1    1    2  501    0 -.17063143E+02 0.15187234E+02 -.90451413E+03 0.90480385E+03 0.15500000E+01 0.0000E+00 0.9000E+01
        1  1    1    2  502    0 0.77276097E+02 0.44222188E+03 0.53361022E+02 0.45208327E+03 0.32000000E+00 0.0000E+00 0.9000E+01
#aMCatNLO 1  0  0  2  1 0.24826377D+02 0.00000000D+00  -5  6  0 0.00000000D+00 0.00000000D+00 0.00000000D+00 0.00000000D+00 0.00000000D+00
  <mgrwgt>
 0.4101067165D-02    7    2    0
 0.919623439741663D+03 0.000000000000000D+00 0.000000000000000D+00 0.919623439741663D+03
 0.919623439741663D+03 0.000000000000000D+00 0.000000000000000D+00 -.919623439741663D+03
 0.678185226392350D+03 -.601964857922202D+02 -.457327430863382D+03 0.481184169913151D+03
 0.673076788452982D+03 -.170649165931456D+02 0.151896444664276D+02 -.672688952248239D+03
 0.487984864637994D+03 0.772614023853659D+02 0.442137786396954D+03 0.191504782335088D+03
 0.000000000000000D+00 0.000000000000000D+00 -.000000000000000D+00 -.000000000000000D+00
 0.952203650926309D+03 0.000000000000000D+00 0.000000000000000D+00 0.952203650926309D+03
 0.103654882090218D+04 0.000000000000000D+00 0.000000000000000D+00 -.103654882090218D+04
 0.664292240263737D+03 -.941232733333316D+02 -.430420474090889D+03 0.481184169913151D+03
 0.675951690126411D+03 -.511572598290240D+02 0.422279016137983D+02 -.672688952248239D+03
 0.502833947334555D+03 0.522216529963055D+02 0.461996532338906D+03 0.191504782335088D+03
 0.145674594103783D+03 0.930588801660501D+02 -.738039598618156D+02 -.843451699758679D+02
0.287349439738D-02 0.000000000000D+00 0.000000000000D+00 0.244535148002D-04 0.000000000000D+00  6 2 3 25 4 1 21 0 0.10522150D+00 0.19023432D+00 0.22543146D+06 0.22543146D+06 0.22543146D+06 0.10938550D+01  1  2  2  2  6  2        3 0.142389232304D-02 0.100000000000D+01
0.206813131048D-02 0.000000000000D+00 -.110349750944D-04 0.244535148002D-04 0.000000000000D+00  6 2 3 25 4 1 21 2 0.10522150D+00 0.19023432D+00 0.22543146D+06 0.22543146D+06 0.22543146D+06 0.10938550D+01  1  2  3  2  6  2        3 0.122620880032D-02 0.100000000000D+01
-.175027838019D-02 0.000000000000D+00 0.000000000000D+00 0.244535148002D-04 0.000000000000D+00  6 2 3 25 4 1 21 2 0.10522150D+00 0.19023432D+00 0.22543146D+06 0.22543146D+06 0.22543146D+06 0.10938550D+01  1  2 15  2  6  2        3 -.103775168526D-02 0.100000000000D+01
-.325572254958D-03 0.000000000000D+00 0.000000000000D+00 0.244535148002D-04 0.000000000000D+00  6 2 3 25 4 1 21 2 0.10522150D+00 0.19023432D+00 0.22543146D+06 0.22543146D+06 0.22543146D+06 0.10938550D+01  1  2  4  2  6  2        3 -.193033953959D-03 0.100000000000D+01
-.164383008676D-01 0.000000000000D+00 -.394395145615D-02 0.244535148002D-04 0.000000000000D+00  6 2 3 25 4 1 21 2 0.10522150D+00 0.21822644D+00 0.22543146D+06 0.22543146D+06 0.22543146D+06 0.10938550D+01  1  2  5  2  6  2        3 -.577881668213D-02 0.100000000000D+01
0.168574970453D-01 0.000000000000D+00 0.390707938633D-02 0.244535148002D-04 0.000000000000D+00  6 2 3 25 4 1 21 2 0.10522150D+00 0.19023432D+00 0.22543146D+06 0.22543146D+06 0.22543146D+06 0.10938550D+01  1  2  6  2  6  2        3 0.999492204558D-02 0.100000000000D+01
-.325487769403D-03 0.000000000000D+00 -.836886006944D-04 0.244535148002D-04 0.000000000000D+00  6 2 21 25 4 1 -3 2 0.10522150D+00 0.21822644D+00 0.22543146D+06 0.22543146D+06 0.22543146D+06 0.10938550D+01  1  2  5  6  6  2        3 -.153435368255D-02 0.100000000000D+01
  </mgrwgt>
  </event>
  <event>
  6     66 -.17338086E-05 0.61902469E+02 0.75467711E-02 0.94363011E-01
        2 -1    0    0  502    0 0.00000000E+00 0.00000000E+00 0.14051459E+04 0.14051460E+04 0.32000000E+00 0.0000E+00 0.9000E+01
        3 -1    0    0  503    0 0.00000000E+00 0.00000000E+00 -.50838811E+03 0.50838835E+03 0.50000000E+00 0.0000E+00 0.9000E+01
       25  1    1    2    0    0 -.13105819E+02 0.45797458E+03 -.10216408E+03 0.48577256E+03 0.12500000E+03 0.0000E+00 0.9000E+01
        4  1    1    2  501    0 0.76364440E+02 -.46748680E+03 0.15125028E+03 0.49724691E+03 0.15500000E+01 0.0000E+00 0.9000E+01
        1  1    1    2  502    0 -.66206129E+02 0.14042067E+01 0.88739300E+03 0.88986047E+03 0.32000000E+00 0.0000E+00 0.9000E+01
       21  1    1    2  503  501 0.29475074E+01 0.81080163E+01 -.39721376E+02 0.40654372E+02 0.75000000E+00 0.0000E+00 0.9000E+01
#aMCatNLO 2  0  0  2  4 0.86271507D+01 0.00000000D+00  -5  6  0 0.00000000D+00 0.00000000D+00 0.00000000D+00 0.00000000D+00 0.00000000D+00
  <mgrwgt>
 -.2535849458D-02    5    2    0
 0.810958008274827D+03 0.000000000000000D+00 0.000000000000000D+00 0.810958008274827D+03
 0.810958008274827D+03 0.000000000000000D+00 0.000000000000000D+00 -.810958008274827D+03
 0.622208167330501D+03 -.119816184757287D+02 0.461111858879758D+03 -.398434810115703D+03
 0.484681132602482D+03 0.772467268523365D+02 -.465090844318384D+03 -.112424419156330D+03
 0.515026716616670D+03 -.652651083766078D+02 0.397898543862555D+01 0.510859229272034D+03
 0.000000000000000D+00 0.000000000000000D+00 0.000000000000000D+00 -.000000000000000D+00
 0.811236793712834D+03 0.000000000000000D+00 0.000000000000000D+00 0.811236793712834D+03
 0.880576680163537D+03 0.000000000000000D+00 0.000000000000000D+00 -.880576680163537D+03
 0.619933628793444D+03 -.131102824260706D+02 0.458007125153943D+03 -.398434810115703D+03
 0.486872614435105D+03 0.763639309480985D+02 -.467519243148761D+03 -.112424419156330D+03
 0.515132717543072D+03 -.662011559519080D+02 0.140410167883012D+01 0.510859229272034D+03
 0.698745131047500D+02 0.294750742988012D+01 0.810801631598796D+01 -.693398864507028D+02
-.734070020399D-02 0.000000000000D+00 0.000000000000D+00 0.318460900332D-05 0.000000000000D+00  6 2 3 25 4 1 21 2 0.21610149D+00 0.78268400D-01 0.26188670D+06 0.26188670D+06 0.26188670D+06 0.10889447D+01  1  2 13  2  6  2        3 -.167489678680D-01 0.100000000000D+01
-.432734974794D-03 0.000000000000D+00 0.000000000000D+00 0.318460900332D-05 0.000000000000D+00  6 2 3 25 4 1 21 2 0.21610149D+00 0.72029808D-01 0.25743087D+06 0.25743087D+06 0.25743087D+06 0.10895034D+01  1  2  8  2  6  2        3 -.118901711820D-02 0.100000000000D+01
-.498278290203D-03 0.000000000000D+00 0.000000000000D+00 0.318460900332D-05 0.000000000000D+00  6 2 3 25 4 1 21 2 0.21610149D+00 0.78225449D-01 0.25743087D+06 0.25743087D+06 0.25743087D+06 0.10895034D+01  1  2  9  2  6  2        3 -.114028527129D-02 0.100000000000D+01
0.496586769133D-03 0.000000000000D+00 0.000000000000D+00 0.318460900332D-05 0.000000000000D+00  6 2 3 25 4 1 21 2 0.21610149D+00 0.72029808D-01 0.25743087D+06 0.25743087D+06 0.25743087D+06 0.10895034D+01  1  2 10  2  6  2        3 0.136446139915D-02 0.100000000000D+01
0.664579217987D-02 0.000000000000D+00 0.000000000000D+00 0.318460900332D-05 0.228687185571D-06  6 2 3 25 4 1 21 2 0.21617578D+00 0.78213383D-01 0.26188670D+06 0.26188670D+06 0.26188670D+06 0.10889447D+01  1  2  1  2  6  2        3 0.151779593999D-01 0.100000000000D+01
  </mgrwgt>
  </event>
  <event>
  5     66 0.17338086E-05 0.33769981E+02 0.75467711E-02 0.93686419E-01
        2 -1    0    0  502    0 0.00000000E+00 0.00000000E+00 0.27476250E+04 0.27476250E+04 0.32000000E+00 0.0000E+00 0.9000E+01
        3 -1    0    0  501    0 0.00000000E+00 0.00000000E+00 -.16003775E+03 0.16003853E+03 0.50000000E+00 0.0000E+00 0.9000E+01
       25  1    1    2    0    0 0.13248369E+03 0.47973138E+03 0.87927757E+03 0.10180610E+04 0.12500000E+03 0.0000E+00 0.9000E+01
        4  1    1    2  501    0 -.13322830E+03 -.51351284E+03 0.68826011E+03 0.86899344E+03 0.15500000E+01 0.0000E+00 0.9000E+01
        1  1    1    2  502    0 0.74460832E+00 0.33781458E+02 0.10200496E+04 0.10206091E+04 0.32000000E+00 0.0000E+00 0.9000E+01
#aMCatNLO 1  0  0  5  1 0.86240944D+01 0.00000000D+00  -5  6  0 0.00000000D+00 0.00000000D+00 0.00000000D+00 0.00000000D+00 0.00000000D+00
  <mgrwgt>
 0.1799808770D-01    7    2    0
 0.663117544195409D+03 0.000000000000000D+00 0.000000000000000D+00 0.663117544195409D+03
 0.663117544195409D+03 -.000000000000000D+00 -.000000000000000D+00 -.663117544195409D+03
 0.516570815171372D+03 0.132507952526734D+03 0.479832309027272D+03 -.585064510763182D+02
 0.562400979976634D+03 -.133252127120131D+03 -.513594089971634D+03 -.186439919660055D+03
 0.247263293242813D+03 0.744174593397261D+00 0.337617809443622D+02 0.244946370736373D+03
 0.000000000000000D+00 0.000000000000000D+00 0.000000000000000D+00 0.000000000000000D+00
 0.663117544195409D+03 0.000000000000000D+00 0.000000000000000D+00 0.663117544195409D+03
 0.663117544195409D+03 -.000000000000000D+00 -.000000000000000D+00 -.663117544195409D+03
 0.516598174934409D+03 0.132512806106436D+03 0.480052506674678D+03 -.569088868167250D+02
 0.561606968495385D+03 -.133246846800825D+03 -.513354531962934D+03 -.184701893312794D+03
 0.236690111507897D+03 0.921486061668367D+01 0.337196832609876D+02 0.234094592398488D+03
 0.113398334531277D+02 -.848081992229513D+01 -.417657972731527D+00 0.751618773103030D+01
0.302095208187D-02 0.000000000000D+00 0.000000000000D+00 0.384682656714D-05 0.000000000000D+00  6 2 3 25 4 1 21 0 0.42271160D+00 0.24621254D-01 0.29031387D+06 0.29031387D+06 0.29031387D+06 0.10856080D+01  1  2  2  4  6  5        1 0.103880971799D-01 0.100000000000D+01
0.121571339222D-02 0.000000000000D+00 -.116012514293D-04 0.384682656714D-05 0.000000000000D+00  6 2 3 25 4 1 21 2 0.42271160D+00 0.24621254D-01 0.29031387D+06 0.29031387D+06 0.29031387D+06 0.10856080D+01  1  2  3  4  6  5        1 0.492685091065D-02 0.100000000000D+01
-.203816316424D-02 0.000000000000D+00 0.000000000000D+00 0.384682656714D-05 0.000000000000D+00  6 2 3 25 4 1 21 2 0.42271160D+00 0.24621254D-01 0.29031387D+06 0.29031387D+06 0.29031387D+06 0.10856080D+01  1  2 15  4  6  5        1 -.825994523554D-02 0.100000000000D+01
-.399621229123D-03 0.000000000000D+00 0.000000000000D+00 0.384682656714D-05 0.000000000000D+00  6 2 3 25 4 1 21 2 0.42271160D+00 0.24621254D-01 0.29031387D+06 0.29031387D+06 0.29031387D+06 0.10856080D+01  1  2  4  4  6  5        1 -.161952169749D-02 0.100000000000D+01
-.507453623057D-01 0.000000000000D+00 0.000000000000D+00 0.384682656714D-05 0.000000000000D+00  6 2 3 25 4 1 21 2 0.42271160D+00 0.24621254D-01 0.29031387D+06 0.29031387D+06 0.29031387D+06 0.10856080D+01  1  2  5  4  6  5        1 -.205652776459D+00 0.100000000000D+01
0.538406501930D-01 0.000000000000D+00 -.000000000000D+00 0.384682656714D-05 0.000000000000D+00  6 2 3 25 4 1 21 2 0.42271160D+00 0.24621254D-01 0.29031387D+06 0.29031387D+06 0.29031387D+06 0.10856080D+01  1  2  6  4  6  5        1 0.218196869535D+00 0.100000000000D+01
0.457697427945D-05 0.000000000000D+00 0.000000000000D+00 0.384682656714D-05 0.362617168044D-07  6 2 3 25 4 1 21 2 0.42271160D+00 0.24621254D-01 0.29553727D+06 0.29553727D+06 0.29553727D+06 0.10850338D+01  1  2 11  4  6  5        1 0.185134628488D-04 0.100000000000D+01
  </mgrwgt>
  </event>
  <event>
  6     66 0.17338086E-05 0.19602580E+03 0.75467711E-02 0.93888607E-01
        2 -1    0    0  502    0 0.00000000E+00 0.00000000E+00 0.28617396E+04 0.28617396E+04 0.32000000E+00 0.0000E+00 0.9000E+01
       21 -1    0    0  501  503 0.00000000E+00 0.00000000E+00 -.10336158E+04 0.10336160E+04 0.75000000E+00 0.0000E+00 0.9000E+01
       25  1    1    2    0    0 -.50170893E+03 0.29872683E+02 0.11074588E+03 0.52961673E+03 0.12500000E+03 0.0000E+00 0.9000E+01
        4  1    1    2  501    0 0.24682113E+03 -.15877735E+02 -.56952056E+03 0.62090969E+03 0.15500000E+01 0.0000E+00 0.9000E+01
        1  1    1    2  502    0 0.21895569E+03 -.75207400E+02 0.25048935E+04 0.25155693E+04 0.32000000E+00 0.0000E+00 0.9000E+01
       -3  1    1    2    0  503 0.35932105E+02 0.61212452E+02 -.21799493E+03 0.22925994E+03 0.50000000E+00 0.0000E+00 0.9000E+01
#aMCatNLO 2  0  0  2  4 0.70979437D+02 0.00000000D+00  -5  6  0 0.00000000D+00 0.00000000D+00 0.00000000D+00 0.00000000D+00 0.00000000D+00
  <mgrwgt>
 0.5370176871D-03    2    2    0
 0.152057702212419D+04 0.000000000000000D+00 0.000000000000000D+00 0.152057702212419D+04
 0.152057702212419D+04 0.000000000000000D+00 0.000000000000000D+00 -.152057702212419D+04
 0.558618592787459D+03 -.495066004517722D+03 0.411679658602281D+02 -.222810641499975D+03
 0.113425231261055D+04 0.260187194193167D+03 0.692051147032441D+01 -.110398507198298D+04
 0.134828313885036D+04 0.234878810324555D+03 -.480884773305525D+02 0.132679571348295D+04
 0.000000000000000D+00 0.000000000000000D+00 0.000000000000000D+00 -.000000000000000D+00
 0.152399051058963D+04 0.000000000000000D+00 0.000000000000000D+00 0.152399051058963D+04
 0.194091707587891D+04 0.000000000000000D+00 0.000000000000000D+00 -.194091707587891D+04
 0.563791438972103D+03 -.501695899620762D+03 0.298735501124101D+02 -.222810641499975D+03
 0.113134772368750D+04 0.246804660038024D+03 -.158774215525188D+02 -.110398507198298D+04
 0.134684308602957D+04 0.218959134221525D+03 -.752085806932441D+02 0.132679571348295D+04
 0.422925337779359D+03 0.359321053612131D+02 0.612124521333528D+02 -.416926565289282D+03
-.203113329589D-02 0.000000000000D+00 0.000000000000D+00 0.136177584254D-03 0.000000000000D+00  6 2 21 25 4 1 -3 2 0.43928149D+00 0.17342006D+00 0.28499888D+06 0.28499888D+06 0.28499888D+06 0.10862040D+01  1  2 13  6  6  2        3 -.107937613287D-02 0.100000000000D+01
0.234236807828D-02 0.000000000000D+00 0.000000000000D+00 0.136177584254D-03 0.614037135826D-08  6 2 21 25 4 1 -3 2 0.44026761D+00 0.15901782D+00 0.28499888D+06 0.28499888D+06 0.28499888D+06 0.10862040D+01  1  2  1  6  6  2        3 0.161639381995D-02 0.100000000000D+01
  </mgrwgt>
  </event>
  <event>
  5     66 -.17338086E-05 0.58748330E+02 0.75467711E-02 0.92024946E-01
        2 -1    0    0  502    0 0.00000000E+00 0.00000000E+00 0.18143546E+04 0.18143546E+04 0.32000000E+00 0.0000E+00 0.9000E+01
        3 -1    0    0  501    0 0.00000000E+00 0.00000000E+00 -.60713545E+03 0.60713566E+03 0.50000000E+00 0.0000E+00 0.9000E+01
       25  1    1    2    0    0 -.44582179E+03 -.23589544E+03 0.48051352E+03 0.70775841E+03 0.12500000E+03 0.0000E+00 0.9000E+01
        4  1    1    2  501    0 -.58139345E+02 -.84470307E+01 -.42712765E+03 0.43115190E+03 0.15500000E+01 0.0000E+00 0.9000E+01
        1  1    1    2  502    0 0.50396113E+03 0.24434247E+03 0.11538333E+04 0.12825800E+04 0.32000000E+00 0.0000E+00 0.9000E+01
#aMCatNLO 1  0  0  1  5 0.11465428D+02 0.00000000D+00  -5  6  0 0.00000000D+00 0.00000000D+00 0.00000000D+00 0.00000000D+00 0.00000000D+00
  <mgrwgt>
 -.1000056968D-01    7    2    0
 0.104955195012006D+04 0.000000000000000D+00 0.000000000000000D+00 0.104955195012006D+04
 0.104955195012006D+04 0.000000000000000D+00 0.000000000000000D+00 -.104955195012006D+04
 0.540110816524291D+03 -.445824502685111D+03 -.235896708807656D+03 0.147268291583169D+03
 0.743011659748108D+03 -.581379770729307D+02 -.844641010045504D+01 -.740685466510529D+03
 0.815981423967720D+03 0.503962479758042D+03 0.244343118908111D+03 0.593417174927360D+03
 0.000000000000000D+00 0.000000000000000D+00 -.000000000000000D+00 0.000000000000000D+00
 0.150489408086460D+04 0.000000000000000D+00 0.000000000000000D+00 0.150489408086460D+04
 0.105667409531461D+04 0.000000000000000D+00 0.000000000000000D+00 -.105667409531461D+04
 0.552668535621827D+03 -.468222427985076D+03 -.221127380693367D+03 0.147268291583169D+03
 0.746064133379659D+03 -.886585101658744D+02 0.116790149751174D+02 -.740685466510529D+03
 0.802903283907398D+03 0.470781345172152D+03 0.266222960783652D+03 0.593417174927360D+03
 0.459932223270328D+03 0.860995929787982D+02 -.567745950654020D+02 0.448219985549989D+03
0.114201519796D-02 0.000000000000D+00 0.000000000000D+00 0.412514466955D-04 0.000000000000D+00  6 2 3 25 4 1 21 0 0.27913150D+00 0.93405472D-01 0.32402683D+06 0.32402683D+06 0.32402683D+06 0.10820850D+01  1  2  2  1  6  1        2 0.863719422617D-03 0.100000000000D+01
0.471834854326D-03 0.000000000000D+00 -.438563905967D-05 0.412514466955D-04 0.000000000000D+00  6 2 3 25 4 1 21 2 0.27913150D+00 0.93405472D-01 0.32402683D+06 0.32402683D+06 0.32402683D+06 0.10820850D+01  1  2  3  1  6  1        2 0.417843439783D-03 0.100000000000D+01
-.771010249374D-03 0.000000000000D+00 0.000000000000D+00 0.412514466955D-04 0.000000000000D+00  6 2 3 25 4 1 21 2 0.27913150D+00 0.93405472D-01 0.32402683D+06 0.32402683D+06 0.32402683D+06 0.10820850D+01  1  2 15  1  6  1        2 -.682784605148D-03 0.100000000000D+01
-.254832663897D-01 0.000000000000D+00 0.000000000000D+00 0.412514466955D-04 0.000000000000D+00  6 2 3 25 4 1 21 2 0.27913150D+00 0.93405472D-01 0.32402683D+06 0.32402683D+06 0.32402683D+06 0.10820850D+01  1  2  4  1  6  1        2 -.225672512056D-01 0.100000000000D+01
-.228501063861D-01 0.000000000000D+00 -.823004287271D-03 0.412514466955D-04 0.000000000000D+00  6 2 3 25 4 1 21 2 0.40091320D+00 0.93405472D-01 0.32402683D+06 0.32402683D+06 0.32402683D+06 0.10820850D+01  1  2  5  1  6  1        2 -.726732948431D-02 0.100000000000D+01
0.217575012017D-01 0.000000000000D+00 0.771858203676D-03 0.412514466955D-04 0.000000000000D+00  6 2 3 25 4 1 21 2 0.27913150D+00 0.93405472D-01 0.32402683D+06 0.32402683D+06 0.32402683D+06 0.10820850D+01  1  2  6  1  6  1        2 0.192678202126D-01 0.100000000000D+01
-.987109957872D-03 0.000000000000D+00 -.364336430955D-04 0.412514466955D-04 0.000000000000D+00  6 21 3 25 4 1 -2 2 0.40091320D+00 0.93405472D-01 0.32402683D+06 0.32402683D+06 0.32402683D+06 0.10820850D+01  1  2  5  5  6  1        2 -.325874597488D-04 0.100000000000D+01
  </mgrwgt>
  </event>
  <event>
  5     66 0.17338086E-05 0.34765249E+02 0.75467711E-02 0.95111577E-01
        2 -1    0    0  502    0 0.00000000E+00 0.00000000E+00 0.77771896E+03 0.77771903E+03 0.32000000E+00 0.0000E+00 0.9000E+01
        3 -1    0    0  501    0 0.00000000E+00 0.00000000E+00 -.48330704E+03 0.48330730E+03 0.50000000E+00 0.0000E+00 0.9000E+01
       25  1    1    2    0    0 0.14054716E+03 0.42777137E+03 0.17906258E+03 0.50043007E+03 0.12500000E+03 0.0000E+00 0.9000E+01
        4  1    1    2  501    0 -.10817272E+03 -.44050392E+03 -.16156224E+03 0.48150784E+03 0.15500000E+01 0.0000E+00 0.9000E+01
        1  1    1    2  502    0 -.32374439E+02 0.12732551E+02 0.27691158E+03 0.27908842E+03 0.32000000E+00 0.0000E+00 0.9000E+01
#aMCatNLO 1  0  0  2  1 0.21534684D+01 0.00000000D+00  -5  6  0 0.00000000D+00 0.00000000D+00 0.00000000D+00 0.00000000D+00 0.00000000D+00
  <mgrwgt>
 0.2706014211D-02    8    2    0
 0.613088293363115D+03 0.000000000000000D+00 0.000000000000000D+00 0.613088293363115D+03
 0.613088293363115D+03 0.000000000000000D+00 0.000000000000000D+00 -.613088293363115D+03
 0.471757286749331D+03 0.140555672663991D+03 0.427862056740986D+03 0.640944684386815D+02
 0.534032832986682D+03 -.108202636224271D+03 -.440586190517859D+03 -.281721608945532D+03
 0.220386466990218D+03 -.323530364397195D+02 0.127241337768730D+02 0.217627140506851D+03
 0.000000000000000D+00 0.000000000000000D+00 -.000000000000000D+00 0.000000000000000D+00
 0.673007308665601D+03 0.000000000000000D+00 0.000000000000000D+00 0.673007308665601D+03
 0.613108587897805D+03 0.000000000000000D+00 0.000000000000000D+00 -.613108587897805D+03
 0.471901523009870D+03 0.139828406789733D+03 0.428259224289732D+03 0.640944684386815D+02
 0.533829568980751D+03 -.109025624231507D+03 -.440136748104774D+03 -.281721608945532D+03
 0.220447385744869D+03 -.326927814979929D+02 0.129096721291719D+02 0.217627140506851D+03
 0.599374188279163D+02 0.188999893976681D+01 -.103214831413020D+01 0.598987207677958D+02
0.769205922519D-03 0.000000000000D+00 0.000000000000D+00 0.706550900263D-05 0.000000000000D+00  6 2 3 25 4 1 21 0 0.11964910D+00 0.74354954D-01 0.22840108D+06 0.22840108D+06 0.22840108D+06 0.10934236D+01  1  2  2  2  6  2        3 0.400859884232D-02 0.100000000000D+01
0.272329520931D-03 0.000000000000D+00 -.295395327904D-05 0.706550900263D-05 0.000000000000D+00  6 2 3 25 4 1 21 2 0.11964910D+00 0.74354954D-01 0.22840108D+06 0.22840108D+06 0.22840108D+06 0.10934236D+01  1  2  3  2  6  2        3 0.169676454897D-02 0.100000000000D+01
-.566691149250D-03 0.000000000000D+00 0.000000000000D+00 0.706550900263D-05 0.000000000000D+00  6 2 3 25 4 1 21 2 0.11964910D+00 0.74354954D-01 0.22840108D+06 0.22840108D+06 0.22840108D+06 0.10934236D+01  1  2 15  2  6  2        3 -.353080139450D-02 0.100000000000D+01
-.978219522385D-05 0.000000000000D+00 0.000000000000D+00 0.706550900263D-05 0.000000000000D+00  6 2 3 25 4 1 21 2 0.11964910D+00 0.74354954D-01 0.22840108D+06 0.22840108D+06 0.22840108D+06 0.10934236D+01  1  2  4  2  6  2        3 -.609485229888D-04 0.100000000000D+01
0.240734202504D-07 0.000000000000D+00 0.000000000000D+00 0.706550900263D-05 0.000000000000D+00  6 2 3 25 4 1 21 2 0.11964910D+00 0.82035583D-01 0.22840108D+06 0.22840108D+06 0.22840108D+06 0.10934236D+01  1  2  5  2  6  2        3 0.120388042991D-06 0.100000000000D+01
-.239575707521D-07 0.000000000000D+00 0.000000000000D+00 0.706550900263D-05 0.000000000000D+00  6 2 3 25 4 1 21 2 0.11964910D+00 0.74354954D-01 0.22840108D+06 0.22840108D+06 0.22840108D+06 0.10934236D+01  1  2  6  2  6  2        3 -.149269005405D-06 0.100000000000D+01
0.926959627529D-05 0.000000000000D+00 0.000000000000D+00 0.706550900263D-05 0.603958084256D-05  6 2 3 25 4 1 21 2 0.13134277D+00 0.74357416D-01 0.22957054D+06 0.22957054D+06 0.22957054D+06 0.10932554D+01  1  2 11  2  6  2        3 0.511849729450D-04 0.100000000000D+01
0.702917247767D-05 0.000000000000D+00 0.000000000000D+00 0.706550900264D-05 0.435133054925D-10  6 2 21 25 4 1 -3 2 0.13134277D+00 0.74357416D-01 0.22957054D+06 0.22957054D+06 0.22957054D+06 0.10932554D+01  1  2 11  6  6  2        3 0.541244645519D-03 0.100000000000D+01
  </mgrwgt>
  </event>
</LesHouchesEvents>
