<event>
 5    0  0.1911311E+001  0.4527892E+03  0.7546771E-02  0.1026894E+00
         21   -1    0    0  504  501  0.00000000000E+00  0.00000000000E+00  0.20862831439E+03  0.20862831439E+03  0.00000000000E+00 0.  1.
         21   -1    0    0  501  502 -0.00000000000E+00 -0.00000000000E+00 -0.14999348838E+04  0.14999348838E+04  0.00000000000E+00 0.  1.
         25    1    1    2    0    0 -0.40427165897E+03 -0.22801070202E+03 -0.92035098974E+03  0.10383137285E+04  0.12500000000E+03 0.  0.
         21    1    1    2  503  502  0.41359540637E+03  0.11180556417E+03 -0.22652163347E+03  0.48463769434E+03  0.00000000000E+00 0.  1.
         21    1    1    2  504  503 -0.93237474012E+01  0.11620513785E+03 -0.14443394621E+03  0.18561177535E+03  0.00000000000E+00 0.  1.
<mgrwt>
<rscale>  4 0.45278924E+03</rscale>
<asrwt>0</asrwt>
<pdfrwt beam="1">  1       21 0.32096665E-01 0.45278924E+03</pdfrwt>
<pdfrwt beam="2">  1       21 0.23075920E+00 0.45278924E+03</pdfrwt>
<totfact> 0.66178080E+02</totfact>
</mgrwt>
</event>
<event>
 5    0  0.1985162E+001  0.2867393E+03  0.7546771E-02  0.1092064E+00
         21   -1    0    0  503  501  0.00000000000E+00  0.00000000000E+00  0.27448322150E+03  0.27448322150E+03  0.00000000000E+00 0.  1.
         21   -1    0    0  501  502 -0.00000000000E+00 -0.00000000000E+00 -0.28633520882E+03  0.28633520882E+03  0.00000000000E+00 0.  1.
         25    1    1    2    0    0 -0.22532643028E+03 -0.12578714852E+03  0.46767947165E+02  0.29052822204E+03  0.12500000000E+03 0.  0.
         21    1    1    2  503  504  0.20219408250E+03  0.11515247566E+03 -0.69143291885E+02  0.24274129122E+03  0.00000000000E+00 0.  1.
         21    1    1    2  504  502  0.23132347781E+02  0.10634672858E+02  0.10523357402E+02  0.27548917069E+02  0.00000000000E+00 0. -1.
<mgrwt>
<rscale>  4 0.28673927E+03</rscale>
<asrwt>0</asrwt>
<pdfrwt beam="1">  1       21 0.42228188E-01 0.28673927E+03</pdfrwt>
<pdfrwt beam="2">  1       21 0.44051571E-01 0.28673927E+03</pdfrwt>
<totfact> 0.25532864E+04</totfact>
</mgrwt>
</event>
<event>
 5    0  0.1911311E+001  0.2607881E+03  0.7546771E-02  0.1106671E+00
         21   -1    0    0  503  501  0.00000000000E+00  0.00000000000E+00  0.54086765742E+03  0.54086765742E+03  0.00000000000E+00 0. -1.
         21   -1    0    0  504  502 -0.00000000000E+00 -0.00000000000E+00 -0.14536917622E+03  0.14536917622E+03  0.00000000000E+00 0. -1.
         25    1    1    2    0    0  0.16248547437E+03 -0.17959821431E+03  0.92815646962E+02  0.28791803050E+03  0.12500000000E+03 0.  0.
         21    1    1    2  503  502 -0.20853696505E+02  0.61538482165E+01 -0.82600754033E-01  0.21742891452E+02  0.00000000000E+00 0. -1.
         21    1    1    2  504  501 -0.14163177787E+03  0.17344436610E+03  0.30276543500E+03  0.37657591169E+03  0.00000000000E+00 0. -1.
<mgrwt>
<rscale>  4 0.26078806E+03</rscale>
<asrwt>0</asrwt>
<pdfrwt beam="1">  1       21 0.83210408E-01 0.26078806E+03</pdfrwt>
<pdfrwt beam="2">  1       21 0.22364489E-01 0.26078806E+03</pdfrwt>
<totfact> 0.22708056E+04</totfact>
</mgrwt>
</event>
<event>
 5    0  0.1911311E+001  0.2482378E+03  0.7546771E-02  0.1114424E+00
         21   -1    0    0  503  501  0.00000000000E+00  0.00000000000E+00  0.33116961907E+03  0.33116961907E+03  0.00000000000E+00 0. -1.
         21   -1    0    0  504  502 -0.00000000000E+00 -0.00000000000E+00 -0.53055012774E+03  0.53055012774E+03  0.00000000000E+00 0. -1.
         25    1    1    2    0    0 -0.19194329977E+03 -0.10255115224E+03  0.22631249170E+03  0.33793684773E+03  0.12500000000E+03 0.  0.
         21    1    1    2  503  502  0.13746770095E+03  0.14413874493E+03 -0.40639580354E+03  0.45258247396E+03  0.00000000000E+00 0. -1.
         21    1    1    2  504  501  0.54475598821E+02 -0.41587592693E+02 -0.19297196821E+02  0.71200425125E+02  0.00000000000E+00 0.  1.
<mgrwt>
<rscale>  4 0.24823782E+03</rscale>
<asrwt>0</asrwt>
<pdfrwt beam="1">  1       21 0.50949172E-01 0.24823782E+03</pdfrwt>
<pdfrwt beam="2">  1       21 0.81623097E-01 0.24823782E+03</pdfrwt>
<totfact> 0.46268473E+03</totfact>
</mgrwt>
</event>
