<event>
 5    0  0.2193454E+000  0.2354857E+03  0.7546771E-02  0.1122837E+00
         21   -1    0    0  503  501  0.00000000000E+00  0.00000000000E+00  0.84895105661E+03  0.84895105661E+03  0.00000000000E+00 0. -1.
         21   -1    0    0  504  502 -0.00000000000E+00 -0.00000000000E+00 -0.85122107988E+02  0.85122107988E+02  0.00000000000E+00 0. -1.
         25    1    1    2    0    0 -0.20460085986E+03  0.42039359349E+02  0.16872887173E+03  0.29618111308E+03  0.12500000000E+03 0.  0.
         21    1    1    2  503  502  0.17347416642E+03 -0.59836457220E+02  0.40771758161E+03  0.44710995782E+03  0.00000000000E+00 0. -1.
         21    1    1    2  504  501  0.31126693446E+02  0.17797097871E+02  0.18738249528E+03  0.19078209369E+03  0.00000000000E+00 0. -1.
<mgrwt>
<rscale>  4 0.23548574E+03</rscale>
<asrwt>0</asrwt>
<pdfrwt beam="1">  1       21 0.13060785E+00 0.23548574E+03</pdfrwt>
<pdfrwt beam="2">  1       21 0.13095709E-01 0.23548574E+03</pdfrwt>
<totfact> 0.20881598E+04</totfact>
</mgrwt>
</event>
<event>
 5    0  0.2193454E+000  0.2097886E+03  0.7546771E-02  0.1141733E+00
         21   -1    0    0  503  501  0.00000000000E+00  0.00000000000E+00  0.34119155317E+03  0.34119155317E+03  0.00000000000E+00 0.  1.
         21   -1    0    0  504  502 -0.00000000000E+00 -0.00000000000E+00 -0.76134595737E+03  0.76134595737E+03  0.00000000000E+00 0.  1.
         25    1    1    2    0    0 -0.17504486970E+02 -0.20224900866E+03 -0.60153928551E+03  0.64705917857E+03  0.12500000000E+03 0.  0.
         21    1    1    2  503  502  0.61666534511E+02  0.11194623985E+03 -0.96385764882E+02  0.16007791155E+03  0.00000000000E+00 0.  1.
         21    1    1    2  504  501 -0.44162047541E+02  0.90302768814E+02  0.27777064619E+03  0.29540042042E+03  0.00000000000E+00 0.  1.
<mgrwt>
<rscale>  4 0.20978861E+03</rscale>
<asrwt>0</asrwt>
<pdfrwt beam="1">  1       21 0.52491008E-01 0.20978861E+03</pdfrwt>
<pdfrwt beam="2">  1       21 0.11713015E+00 0.20978861E+03</pdfrwt>
<totfact> 0.18994673E+03</totfact>
</mgrwt>
</event>
<event>
 5    0  0.2193454E+000  0.2953344E+03  0.7546771E-02  0.1087596E+00
         21   -1    0    0  503  501  0.00000000000E+00  0.00000000000E+00  0.14253182407E+04  0.14253182407E+04  0.00000000000E+00 0.  1.
         21   -1    0    0  501  502 -0.00000000000E+00 -0.00000000000E+00 -0.13954535392E+03  0.13954535392E+03  0.00000000000E+00 0.  1.
         25    1    1    2    0    0 -0.50802371600E+02  0.28629108773E+03  0.77811331486E+03  0.84001714187E+03  0.12500000000E+03 0.  0.
         21    1    1    2  503  504  0.38620687879E+02 -0.23222121807E+02  0.45381552959E+03  0.45604754069E+03  0.00000000000E+00 0.  1.
         21    1    1    2  504  502  0.12181683721E+02 -0.26306896592E+03  0.53844042370E+02  0.26879891210E+03  0.00000000000E+00 0.  1.
<mgrwt>
<rscale>  4 0.29533440E+03</rscale>
<asrwt>0</asrwt>
<pdfrwt beam="1">  1       21 0.21927972E+00 0.29533440E+03</pdfrwt>
<pdfrwt beam="2">  1       21 0.21468517E-01 0.29533440E+03</pdfrwt>
<totfact> 0.18771515E+03</totfact>
</mgrwt>
</event>
<event>
 5    0  0.2193454E+000  0.3056365E+03  0.7546771E-02  0.1082456E+00
         21   -1    0    0  503  501  0.00000000000E+00  0.00000000000E+00  0.62406295960E+03  0.62406295960E+03  0.00000000000E+00 0. -1.
         21   -1    0    0  501  502 -0.00000000000E+00 -0.00000000000E+00 -0.86847624747E+03  0.86847624747E+03  0.00000000000E+00 0. -1.
         25    1    1    2    0    0  0.11894927272E+02  0.23880738392E+03 -0.34159577343E+03  0.43529659812E+03  0.12500000000E+03 0.  0.
         21    1    1    2  503  504  0.76906502564E+02  0.81268358084E+02  0.51298920401E+03  0.52504959727E+03  0.00000000000E+00 0. -1.
         21    1    1    2  504  502 -0.88801429836E+02 -0.32007574201E+03 -0.41580671845E+03  0.53219301167E+03  0.00000000000E+00 0. -1.
<mgrwt>
<rscale>  4 0.30563651E+03</rscale>
<asrwt>0</asrwt>
<pdfrwt beam="1">  1       21 0.96009687E-01 0.30563651E+03</pdfrwt>
<pdfrwt beam="2">  1       21 0.13361173E+00 0.30563651E+03</pdfrwt>
<totfact> 0.32788007E+02</totfact>
</mgrwt>
</event>
<event>
 5    0  0.2193454E+000  0.2738683E+03  0.7546771E-02  0.1099086E+00
         21   -1    0    0  503  501  0.00000000000E+00  0.00000000000E+00  0.59312466813E+03  0.59312466813E+03  0.00000000000E+00 0. -1.
         21   -1    0    0  501  502 -0.00000000000E+00 -0.00000000000E+00 -0.32107037126E+03  0.32107037126E+03  0.00000000000E+00 0.  1.
         25    1    1    2    0    0 -0.22547476335E+03 -0.82579827051E+02 -0.20961039733E+03  0.34237379487E+03  0.12500000000E+03 0.  0.
         21    1    1    2  503  504 -0.25866361477E+02 -0.23811436471E+01  0.12288140791E+03  0.12559689054E+03  0.00000000000E+00 0.  1.
         21    1    1    2  504  502  0.25134112483E+03  0.84960970698E+02  0.35878328629E+03  0.44622435398E+03  0.00000000000E+00 0. -1.
<mgrwt>
<rscale>  4 0.27386834E+03</rscale>
<asrwt>0</asrwt>
<pdfrwt beam="1">  1       21 0.91249949E-01 0.27386834E+03</pdfrwt>
<pdfrwt beam="2">  1       21 0.49395442E-01 0.27386834E+03</pdfrwt>
<totfact> 0.37557111E+03</totfact>
</mgrwt>
</event>
<event>
 5    0  0.2193454E+000  0.2648334E+03  0.7546771E-02  0.1104274E+00
         21   -1    0    0  503  501  0.00000000000E+00  0.00000000000E+00  0.48296329439E+03  0.48296329439E+03  0.00000000000E+00 0. -1.
         21   -1    0    0  501  502 -0.00000000000E+00 -0.00000000000E+00 -0.18875901803E+03  0.18875901803E+03  0.00000000000E+00 0. -1.
         25    1    1    2    0    0 -0.26052635515E+03 -0.24249164321E+02  0.12860059338E+03  0.31721462185E+03  0.12500000000E+03 0.  0.
         21    1    1    2  503  504  0.48804635438E+02  0.78232324994E+02  0.71166741784E+02  0.11647701168E+03  0.00000000000E+00 0. -1.
         21    1    1    2  504  502  0.21172171971E+03 -0.53983160673E+02  0.94436941192E+02  0.23803067890E+03  0.00000000000E+00 0. -1.
<mgrwt>
<rscale>  4 0.26483341E+03</rscale>
<asrwt>0</asrwt>
<pdfrwt beam="1">  1       21 0.74302045E-01 0.26483341E+03</pdfrwt>
<pdfrwt beam="2">  1       21 0.29039849E-01 0.26483341E+03</pdfrwt>
<totfact> 0.17717468E+04</totfact>
</mgrwt>
</event>
<event>
 5    0  0.2193454E+000  0.2541267E+03  0.7546771E-02  0.1110724E+00
         21   -1    0    0  503  501  0.00000000000E+00  0.00000000000E+00  0.31886637860E+03  0.31886637860E+03  0.00000000000E+00 0. -1.
         21   -1    0    0  504  502 -0.00000000000E+00 -0.00000000000E+00 -0.52150957920E+03  0.52150957920E+03  0.00000000000E+00 0. -1.
         25    1    1    2    0    0  0.15912175587E+03  0.18523876866E+03 -0.39164850314E+03  0.47817014191E+03  0.12500000000E+03 0.  0.
         21    1    1    2  503  502  0.44444709459E+01 -0.13032809112E+03  0.11717225933E+03  0.17531258658E+03  0.00000000000E+00 0. -1.
         21    1    1    2  504  501 -0.16356622682E+03 -0.54910677537E+02  0.71833043214E+02  0.18689322931E+03  0.00000000000E+00 0. -1.
<mgrwt>
<rscale>  4 0.25412667E+03</rscale>
<asrwt>0</asrwt>
<pdfrwt beam="1">  1       21 0.49056366E-01 0.25412667E+03</pdfrwt>
<pdfrwt beam="2">  1       21 0.80232242E-01 0.25412667E+03</pdfrwt>
<totfact> 0.51909530E+03</totfact>
</mgrwt>
</event>
<event>
 5    0  0.2193454E+000  0.2662515E+03  0.7546771E-02  0.1103444E+00
         21   -1    0    0  502  501  0.00000000000E+00  0.00000000000E+00  0.13874690878E+04  0.13874690878E+04  0.00000000000E+00 0. -1.
         21   -1    0    0  503  502 -0.00000000000E+00 -0.00000000000E+00 -0.29076364120E+03  0.29076364120E+03  0.00000000000E+00 0.  1.
         25    1    1    2    0    0 -0.14142052454E+03  0.33367865696E+03  0.17767665389E+03  0.42253426395E+03  0.12500000000E+03 0.  0.
         21    1    1    2  503  504 -0.73978360167E+01 -0.18523180273E+03  0.10098458105E+04  0.10267200737E+04  0.00000000000E+00 0. -1.
         21    1    1    2  504  501  0.14881836056E+03 -0.14844685422E+03 -0.90817017829E+02  0.22897839133E+03  0.00000000000E+00 0.  1.
<mgrwt>
<rscale>  4 0.26625154E+03</rscale>
<asrwt>0</asrwt>
<pdfrwt beam="1">  1       21 0.21345678E+00 0.26625154E+03</pdfrwt>
<pdfrwt beam="2">  1       21 0.44732869E-01 0.26625154E+03</pdfrwt>
<totfact> 0.48980091E+02</totfact>
</mgrwt>
</event>
<event>
 5    0  0.2193454E+000  0.2341029E+03  0.7546771E-02  0.1123785E+00
         21   -1    0    0  503  501  0.00000000000E+00  0.00000000000E+00  0.28869804153E+03  0.28869804153E+03  0.00000000000E+00 0. -1.
         21   -1    0    0  504  502 -0.00000000000E+00 -0.00000000000E+00 -0.68110736413E+03  0.68110736413E+03  0.00000000000E+00 0. -1.
         25    1    1    2    0    0  0.62787237376E+02 -0.22056329376E+03 -0.40579380615E+03  0.48258058067E+03  0.12500000000E+03 0.  0.
         21    1    1    2  503  502 -0.29075447603E+02  0.16989597712E+03 -0.20075879604E+03  0.26460181194E+03  0.00000000000E+00 0. -1.
         21    1    1    2  504  501 -0.33711789773E+02  0.50667316641E+02  0.21414327959E+03  0.22262301305E+03  0.00000000000E+00 0. -1.
<mgrwt>
<rscale>  4 0.23410291E+03</rscale>
<asrwt>0</asrwt>
<pdfrwt beam="1">  1       21 0.44415084E-01 0.23410291E+03</pdfrwt>
<pdfrwt beam="2">  1       21 0.10478575E+00 0.23410291E+03</pdfrwt>
<totfact> 0.34591061E+03</totfact>
</mgrwt>
</event>
<event>
 5    0  0.2193454E+000  0.3104839E+03  0.7546771E-02  0.1080114E+00
         21   -1    0    0  503  501  0.00000000000E+00  0.00000000000E+00  0.56660757207E+03  0.56660757207E+03  0.00000000000E+00 0. -1.
         21   -1    0    0  504  502 -0.00000000000E+00 -0.00000000000E+00 -0.68629490646E+03  0.68629490646E+03  0.00000000000E+00 0. -1.
         25    1    1    2    0    0 -0.11622288995E+03  0.21814398106E+03 -0.28620237718E+03  0.39828552236E+03  0.12500000000E+03 0.  0.
         21    1    1    2  503  502  0.22643027805E+03 -0.26477365088E+03 -0.24509388775E+03  0.42596569208E+03  0.00000000000E+00 0. -1.
         21    1    1    2  504  501 -0.11020738810E+03  0.46629669828E+02  0.41160893055E+03  0.42865126409E+03  0.00000000000E+00 0. -1.
<mgrwt>
<rscale>  4 0.31048388E+03</rscale>
<asrwt>0</asrwt>
<pdfrwt beam="1">  1       21 0.87170396E-01 0.31048388E+03</pdfrwt>
<pdfrwt beam="2">  1       21 0.10558383E+00 0.31048388E+03</pdfrwt>
<totfact> 0.73972386E+02</totfact>
</mgrwt>
</event>
<event>
 5    0  0.2193454E+000  0.2220555E+03  0.7546771E-02  0.1132360E+00
         21   -1    0    0  503  501  0.00000000000E+00  0.00000000000E+00  0.16776408172E+04  0.16776408172E+04  0.00000000000E+00 0. -1.
         21   -1    0    0  501  502 -0.00000000000E+00 -0.00000000000E+00 -0.14340281165E+03  0.14340281165E+03  0.00000000000E+00 0. -1.
         25    1    1    2    0    0  0.20358915785E+03  0.52300845472E+02  0.85016600007E+03  0.88464182092E+03  0.12500000000E+03 0.  0.
         21    1    1    2  503  504 -0.32677413715E+02  0.90199830300E+01  0.74431745589E+03  0.74508902059E+03  0.00000000000E+00 0. -1.
         21    1    1    2  504  502 -0.17091174414E+03 -0.61320828502E+02 -0.60245450441E+02  0.19131278732E+03  0.00000000000E+00 0. -1.
<mgrwt>
<rscale>  4 0.22205553E+03</rscale>
<asrwt>0</asrwt>
<pdfrwt beam="1">  1       21 0.25809857E+00 0.22205553E+03</pdfrwt>
<pdfrwt beam="2">  1       21 0.22061972E-01 0.22205553E+03</pdfrwt>
<totfact> 0.11058738E+03</totfact>
</mgrwt>
</event>
<event>
 5    0  0.2193454E+000  0.3557655E+03  0.7546771E-02  0.1060273E+00
         21   -1    0    0  503  501  0.00000000000E+00  0.00000000000E+00  0.46477369582E+03  0.46477369582E+03  0.00000000000E+00 0.  1.
         21   -1    0    0  504  502 -0.00000000000E+00 -0.00000000000E+00 -0.10282365510E+04  0.10282365510E+04  0.00000000000E+00 0.  1.
         25    1    1    2    0    0  0.37478202976E+02  0.35062547734E+03 -0.71821621667E+03  0.80981626000E+03  0.12500000000E+03 0.  0.
         21    1    1    2  503  502  0.38594774577E+02 -0.29879595652E+03 -0.16980408130E+03  0.34583522996E+03  0.00000000000E+00 0.  1.
         21    1    1    2  504  501 -0.76072977553E+02 -0.51829520824E+02  0.32455744281E+03  0.33735875685E+03  0.00000000000E+00 0.  1.
<mgrwt>
<rscale>  4 0.35576554E+03</rscale>
<asrwt>0</asrwt>
<pdfrwt beam="1">  1       21 0.71503646E-01 0.35576554E+03</pdfrwt>
<pdfrwt beam="2">  1       21 0.15819024E+00 0.35576554E+03</pdfrwt>
<totfact> 0.39940880E+02</totfact>
</mgrwt>
</event>
<event>
 5    0  0.2193454E+000  0.2847162E+03  0.7546771E-02  0.1093141E+00
         21   -1    0    0  503  501  0.00000000000E+00  0.00000000000E+00  0.36310187405E+03  0.36310187405E+03  0.00000000000E+00 0.  1.
         21   -1    0    0  504  502 -0.00000000000E+00 -0.00000000000E+00 -0.25830457677E+03  0.25830457677E+03  0.00000000000E+00 0.  1.
         25    1    1    2    0    0  0.50977362240E+01 -0.25300115254E+03 -0.66475394999E+02  0.28996473621E+03  0.12500000000E+03 0.  0.
         21    1    1    2  503  502  0.13644305134E+02  0.26177509736E+03  0.16532117158E+03  0.30990879051E+03  0.00000000000E+00 0.  1.
         21    1    1    2  504  501 -0.18742041358E+02 -0.87739448201E+01  0.59515206953E+01  0.21532924106E+02  0.00000000000E+00 0.  1.
<mgrwt>
<rscale>  4 0.28471619E+03</rscale>
<asrwt>0</asrwt>
<pdfrwt beam="1">  1       21 0.55861827E-01 0.28471619E+03</pdfrwt>
<pdfrwt beam="2">  1       21 0.39739165E-01 0.28471619E+03</pdfrwt>
<totfact> 0.17558310E+04</totfact>
</mgrwt>
</event>
<event>
 5    0  0.2193454E+000  0.2842862E+03  0.7546771E-02  0.1093371E+00
         21   -1    0    0  502  501  0.00000000000E+00  0.00000000000E+00  0.51742393276E+03  0.51742393276E+03  0.00000000000E+00 0. -1.
         21   -1    0    0  504  502 -0.00000000000E+00 -0.00000000000E+00 -0.16190815241E+03  0.16190815241E+03  0.00000000000E+00 0. -1.
         25    1    1    2    0    0 -0.24214523265E+03  0.80989689869E+02  0.74397326199E+02  0.29385984024E+03  0.12500000000E+03 0.  0.
         21    1    1    2  503  501  0.17131910701E+03 -0.87950439077E+02  0.20580853609E+03  0.28185576043E+03  0.00000000000E+00 0. -1.
         21    1    1    2  504  503  0.70826125641E+02  0.69607492076E+01  0.75309918058E+02  0.10361648450E+03  0.00000000000E+00 0. -1.
<mgrwt>
<rscale>  4 0.28428620E+03</rscale>
<asrwt>0</asrwt>
<pdfrwt beam="1">  1       21 0.79603681E-01 0.28428620E+03</pdfrwt>
<pdfrwt beam="2">  1       21 0.24908947E-01 0.28428620E+03</pdfrwt>
<totfact> 0.20238330E+04</totfact>
</mgrwt>
</event>
<event>
 5    0  0.2193454E+000  0.2856363E+03  0.7546771E-02  0.1092650E+00
         21   -1    0    0  503  501  0.00000000000E+00  0.00000000000E+00  0.18671110316E+03  0.18671110316E+03  0.00000000000E+00 0.  1.
         21   -1    0    0  501  502 -0.00000000000E+00 -0.00000000000E+00 -0.10814187525E+04  0.10814187525E+04  0.00000000000E+00 0. -1.
         25    1    1    2    0    0  0.13504149076E+03  0.25191952300E+03 -0.89162076736E+03  0.94462280466E+03  0.12500000000E+03 0.  0.
         21    1    1    2  503  504 -0.22275486519E+02 -0.10246662365E+03  0.66048439823E+02  0.12392740885E+03  0.00000000000E+00 0.  1.
         21    1    1    2  504  502 -0.11276600424E+03 -0.14945289935E+03 -0.69135321780E+02  0.19957964213E+03  0.00000000000E+00 0.  1.
<mgrwt>
<rscale>  4 0.28563633E+03</rscale>
<asrwt>0</asrwt>
<pdfrwt beam="1">  1       21 0.28724784E-01 0.28563633E+03</pdfrwt>
<pdfrwt beam="2">  1       21 0.16637212E+00 0.28563633E+03</pdfrwt>
<totfact> 0.24382769E+03</totfact>
</mgrwt>
</event>
<event>
 5    0  0.2193454E+000  0.2472158E+03  0.7546771E-02  0.1115077E+00
         21   -1    0    0  503  501  0.00000000000E+00  0.00000000000E+00  0.66469063021E+03  0.66469063021E+03  0.00000000000E+00 0. -1.
         21   -1    0    0  501  502 -0.00000000000E+00 -0.00000000000E+00 -0.30372948814E+03  0.30372948814E+03  0.00000000000E+00 0. -1.
         25    1    1    2    0    0 -0.18922650072E+03  0.93850364996E+02 -0.21805118109E+03  0.32830759534E+03  0.12500000000E+03 0.  0.
         21    1    1    2  503  504 -0.13099241999E+02  0.15387092750E+02  0.16754530674E+03  0.16875954069E+03  0.00000000000E+00 0. -1.
         21    1    1    2  504  502  0.20232574272E+03 -0.10923745775E+03  0.41146701642E+03  0.47135298232E+03  0.00000000000E+00 0. -1.
<mgrwt>
<rscale>  4 0.24721580E+03</rscale>
<asrwt>0</asrwt>
<pdfrwt beam="1">  1       21 0.10226010E+00 0.24721580E+03</pdfrwt>
<pdfrwt beam="2">  1       21 0.46727614E-01 0.24721580E+03</pdfrwt>
<totfact> 0.32733520E+03</totfact>
</mgrwt>
</event>
<event>
 5    0  0.2193454E+000  0.2452254E+03  0.7546771E-02  0.1116360E+00
         21   -1    0    0  503  501  0.00000000000E+00  0.00000000000E+00  0.13195679276E+04  0.13195679276E+04  0.00000000000E+00 0.  1.
         21   -1    0    0  501  502 -0.00000000000E+00 -0.00000000000E+00 -0.12280377260E+03  0.12280377260E+03  0.00000000000E+00 0.  1.
         25    1    1    2    0    0 -0.81248275817E+02 -0.19444386406E+03  0.32416397539E+02  0.24715485313E+03  0.12500000000E+03 0.  0.
         21    1    1    2  503  504 -0.23630546747E+02  0.84645986450E+01  0.42275435101E+03  0.42349887068E+03  0.00000000000E+00 0.  1.
         21    1    1    2  504  502  0.10487882256E+03  0.18597926542E+03  0.74159340641E+03  0.77171797635E+03  0.00000000000E+00 0.  1.
<mgrwt>
<rscale>  4 0.24522538E+03</rscale>
<asrwt>0</asrwt>
<pdfrwt beam="1">  1       21 0.20301044E+00 0.24522538E+03</pdfrwt>
<pdfrwt beam="2">  1       21 0.18892889E-01 0.24522538E+03</pdfrwt>
<totfact> 0.31457369E+03</totfact>
</mgrwt>
</event>
<event>
 5    0  0.2193454E+000  0.2526528E+03  0.7546771E-02  0.1111640E+00
         21   -1    0    0  502  501  0.00000000000E+00  0.00000000000E+00  0.22958552248E+03  0.22958552248E+03  0.00000000000E+00 0.  1.
         21   -1    0    0  503  502 -0.00000000000E+00 -0.00000000000E+00 -0.56603027844E+03  0.56603027844E+03  0.00000000000E+00 0. -1.
         25    1    1    2    0    0 -0.14702487130E+03  0.16307094340E+03 -0.46854579455E+03  0.53232378018E+03  0.12500000000E+03 0.  0.
         21    1    1    2  503  504  0.35688529593E+02 -0.20858407990E+02  0.33189390033E+01  0.41469985345E+02  0.00000000000E+00 0.  1.
         21    1    1    2  504  501  0.11133634171E+03 -0.14221253541E+03  0.12878209959E+03  0.22182203539E+03  0.00000000000E+00 0.  1.
<mgrwt>
<rscale>  4 0.25265282E+03</rscale>
<asrwt>0</asrwt>
<pdfrwt beam="1">  1       21 0.35320850E-01 0.25265282E+03</pdfrwt>
<pdfrwt beam="2">  1       21 0.87081580E-01 0.25265282E+03</pdfrwt>
<totfact> 0.84275570E+03</totfact>
</mgrwt>
</event>
<event>
 5    0  0.2193454E+000  0.3216635E+03  0.7546771E-02  0.1074886E+00
         21   -1    0    0  503  501  0.00000000000E+00  0.00000000000E+00  0.28757409343E+04  0.28757409343E+04  0.00000000000E+00 0. -1.
         21   -1    0    0  501  502 -0.00000000000E+00 -0.00000000000E+00 -0.13095660917E+03  0.13095660917E+03  0.00000000000E+00 0. -1.
         25    1    1    2    0    0  0.10400114822E+03 -0.26340707336E+03  0.14694088509E+03  0.34266039870E+03  0.12500000000E+03 0.  0.
         21    1    1    2  503  504  0.11944359495E+01 -0.67243098098E+02  0.17022378635E+04  0.17035659086E+04  0.00000000000E+00 0. -1.
         21    1    1    2  504  502 -0.10519558417E+03  0.33065017146E+03  0.89560557655E+03  0.96047123620E+03  0.00000000000E+00 0. -1.
<mgrwt>
<rscale>  4 0.32166354E+03</rscale>
<asrwt>0</asrwt>
<pdfrwt beam="1">  1       21 0.44242164E+00 0.32166354E+03</pdfrwt>
<pdfrwt beam="2">  1       21 0.20147173E-01 0.32166354E+03</pdfrwt>
<totfact> 0.88705995E+01</totfact>
</mgrwt>
</event>
<event>
 5    0  0.2193454E+000  0.6895631E+03  0.7546771E-02  0.9735249E-01
         21   -1    0    0  503  501  0.00000000000E+00  0.00000000000E+00  0.19274245214E+04  0.19274245214E+04  0.00000000000E+00 0. -1.
         21   -1    0    0  504  502 -0.00000000000E+00 -0.00000000000E+00 -0.50806708710E+03  0.50806708710E+03  0.00000000000E+00 0.  1.
         25    1    1    2    0    0 -0.47024700972E+03 -0.48711248094E+03  0.10562892897E+04  0.12608659258E+04  0.12500000000E+03 0.  0.
         21    1    1    2  503  502  0.39038787183E+03  0.55684735582E+03 -0.11081318561E+03  0.68902919406E+03  0.00000000000E+00 0.  1.
         21    1    1    2  504  501  0.79859137886E+02 -0.69734874878E+02  0.47388133022E+03  0.48559648867E+03  0.00000000000E+00 0. -1.
<mgrwt>
<rscale>  4 0.68956308E+03</rscale>
<asrwt>0</asrwt>
<pdfrwt beam="1">  1       21 0.29652685E+00 0.68956308E+03</pdfrwt>
<pdfrwt beam="2">  1       21 0.78164168E-01 0.68956308E+03</pdfrwt>
<totfact> 0.34531138E+01</totfact>
</mgrwt>
</event>
<event>
 5    0  0.2193454E+000  0.2437494E+03  0.7546771E-02  0.1117320E+00
         21   -1    0    0  502  501  0.00000000000E+00  0.00000000000E+00  0.49376091072E+03  0.49376091072E+03  0.00000000000E+00 0.  1.
         21   -1    0    0  504  502 -0.00000000000E+00 -0.00000000000E+00 -0.86169256488E+03  0.86169256488E+03  0.00000000000E+00 0.  1.
         25    1    1    2    0    0 -0.16285307381E+03 -0.13220085076E+03 -0.70767803466E+03  0.74861965599E+03  0.12500000000E+03 0.  0.
         21    1    1    2  503  501  0.21485512764E+02  0.28328962105E+03  0.13077659441E+03  0.31275734092E+03  0.00000000000E+00 0.  1.
         21    1    1    2  504  503  0.14136756104E+03 -0.15108877029E+03  0.20896978608E+03  0.29407647869E+03  0.00000000000E+00 0.  1.
<mgrwt>
<rscale>  4 0.24374939E+03</rscale>
<asrwt>0</asrwt>
<pdfrwt beam="1">  1       21 0.75963218E-01 0.24374939E+03</pdfrwt>
<pdfrwt beam="2">  1       21 0.13256808E+00 0.24374939E+03</pdfrwt>
<totfact> 0.60432263E+02</totfact>
</mgrwt>
</event>
<event>
 5    0  0.2193454E+000  0.2351526E+03  0.7546771E-02  0.1123065E+00
         21   -1    0    0  503  501  0.00000000000E+00  0.00000000000E+00  0.84385093364E+02  0.84385093364E+02  0.00000000000E+00 0. -1.
         21   -1    0    0  501  502 -0.00000000000E+00 -0.00000000000E+00 -0.14045976456E+04  0.14045976456E+04  0.00000000000E+00 0.  1.
         25    1    1    2    0    0 -0.58701050844E+02  0.22964732026E+03 -0.34293976568E+03  0.43521993056E+03  0.12500000000E+03 0.  0.
         21    1    1    2  503  504  0.28232273458E+02 -0.40331407520E+02  0.81115631000E+01  0.49894700651E+02  0.00000000000E+00 0. -1.
         21    1    1    2  504  502  0.30468777387E+02 -0.18931591274E+03 -0.98538434970E+03  0.10038681078E+04  0.00000000000E+00 0.  1.
<mgrwt>
<rscale>  4 0.23515263E+03</rscale>
<asrwt>0</asrwt>
<pdfrwt beam="1">  1       21 0.12982323E-01 0.23515263E+03</pdfrwt>
<pdfrwt beam="2">  1       21 0.21609192E+00 0.23515263E+03</pdfrwt>
<totfact> 0.52183811E+03</totfact>
</mgrwt>
</event>
<event>
 5    0  0.2193454E+000  0.2546796E+03  0.7546771E-02  0.1110383E+00
         21   -1    0    0  503  501  0.00000000000E+00  0.00000000000E+00  0.30706680322E+03  0.30706680322E+03  0.00000000000E+00 0. -1.
         21   -1    0    0  501  502 -0.00000000000E+00 -0.00000000000E+00 -0.31322755991E+03  0.31322755991E+03  0.00000000000E+00 0. -1.
         25    1    1    2    0    0 -0.21038759488E+02 -0.21398069734E+03 -0.14762227765E+03  0.28921912989E+03  0.12500000000E+03 0.  0.
         21    1    1    2  503  504  0.15680738543E+02 -0.23064737274E+02  0.82019498337E+02  0.86631782703E+02  0.00000000000E+00 0. -1.
         21    1    1    2  504  502  0.53580209449E+01  0.23704543462E+03  0.59442022620E+02  0.24444345054E+03  0.00000000000E+00 0. -1.
<mgrwt>
<rscale>  4 0.25467957E+03</rscale>
<asrwt>0</asrwt>
<pdfrwt beam="1">  1       21 0.47241047E-01 0.25467957E+03</pdfrwt>
<pdfrwt beam="2">  1       21 0.48188855E-01 0.25467957E+03</pdfrwt>
<totfact> 0.17039202E+04</totfact>
</mgrwt>
</event>
<event>
 5    0  0.2193454E+000  0.3965040E+03  0.7546771E-02  0.1044997E+00
         21   -1    0    0  503  501  0.00000000000E+00  0.00000000000E+00  0.32606249869E+04  0.32606249869E+04  0.00000000000E+00 0. -1.
         21   -1    0    0  501  502 -0.00000000000E+00 -0.00000000000E+00 -0.19532505739E+03  0.19532505739E+03  0.00000000000E+00 0. -1.
         25    1    1    2    0    0 -0.30548683736E+03  0.21156612436E+03  0.70900966749E+02  0.39841483389E+03  0.12500000000E+03 0.  0.
         21    1    1    2  503  504 -0.12366427307E+02  0.35571406799E+02  0.17335995746E+04  0.17340085751E+04  0.00000000000E+00 0.  1.
         21    1    1    2  504  502  0.31785326467E+03 -0.24713753116E+03  0.12607993882E+04  0.13235266354E+04  0.00000000000E+00 0. -1.
<mgrwt>
<rscale>  4 0.39650399E+03</rscale>
<asrwt>0</asrwt>
<pdfrwt beam="1">  1       21 0.50163457E+00 0.39650399E+03</pdfrwt>
<pdfrwt beam="2">  1       21 0.30050011E-01 0.39650399E+03</pdfrwt>
<totfact> 0.14830447E+01</totfact>
</mgrwt>
</event>
<event>
 5    0  0.2193454E+000  0.2738987E+03  0.7546771E-02  0.1099069E+00
         21   -1    0    0  502  501  0.00000000000E+00  0.00000000000E+00  0.33073685095E+03  0.33073685095E+03  0.00000000000E+00 0. -1.
         21   -1    0    0  503  502 -0.00000000000E+00 -0.00000000000E+00 -0.10946493734E+04  0.10946493734E+04  0.00000000000E+00 0. -1.
         25    1    1    2    0    0  0.15622234244E+03  0.18566053472E+03 -0.10127278283E+04  0.10488650574E+04  0.12500000000E+03 0.  0.
         21    1    1    2  503  504  0.25271443984E+01  0.21188977421E+02  0.25203976181E+02  0.33024228050E+02  0.00000000000E+00 0. -1.
         21    1    1    2  504  501 -0.15874948684E+03 -0.20684951215E+03  0.22361132969E+03  0.34349693887E+03  0.00000000000E+00 0. -1.
<mgrwt>
<rscale>  4 0.27389873E+03</rscale>
<asrwt>0</asrwt>
<pdfrwt beam="1">  1       21 0.50882594E-01 0.27389873E+03</pdfrwt>
<pdfrwt beam="2">  1       21 0.16840759E+00 0.27389873E+03</pdfrwt>
<totfact> 0.74538382E+02</totfact>
</mgrwt>
</event>
<event>
 5    0  0.2193454E+000  0.2591655E+03  0.7546771E-02  0.1107646E+00
         21   -1    0    0  503  501  0.00000000000E+00  0.00000000000E+00  0.92999448242E+02  0.92999448242E+02  0.00000000000E+00 0. -1.
         21   -1    0    0  504  502 -0.00000000000E+00 -0.00000000000E+00 -0.10663515521E+04  0.10663515521E+04  0.00000000000E+00 0. -1.
         25    1    1    2    0    0 -0.15716960114E+03  0.16414209157E+03 -0.64319997328E+03  0.69352441585E+03  0.12500000000E+03 0.  0.
         21    1    1    2  503  502  0.14183326391E+03 -0.17755464777E+03 -0.36235553853E+03  0.42771937529E+03  0.00000000000E+00 0. -1.
         21    1    1    2  504  501  0.15336337225E+02  0.13412556202E+02  0.32203407996E+02  0.38107209159E+02  0.00000000000E+00 0. -1.
<mgrwt>
<rscale>  4 0.25916552E+03</rscale>
<asrwt>0</asrwt>
<pdfrwt beam="1">  1       21 0.14307607E-01 0.25916552E+03</pdfrwt>
<pdfrwt beam="2">  1       21 0.16405409E+00 0.25916552E+03</pdfrwt>
<totfact> 0.96019707E+03</totfact>
</mgrwt>
</event>
<event>
 5    0  0.2193454E+000  0.2426295E+03  0.7546771E-02  0.1118053E+00
         21   -1    0    0  502  501  0.00000000000E+00  0.00000000000E+00  0.28878551363E+03  0.28878551363E+03  0.00000000000E+00 0.  1.
         21   -1    0    0  504  502 -0.00000000000E+00 -0.00000000000E+00 -0.25021041030E+03  0.25021041030E+03  0.00000000000E+00 0.  1.
         25    1    1    2    0    0  0.48642814375E+02  0.20075362308E+03 -0.72887254730E+02  0.25220169006E+03  0.12500000000E+03 0.  0.
         21    1    1    2  503  501 -0.97637875942E+02 -0.19064469657E+03  0.88707021314E+02  0.23183505080E+03  0.00000000000E+00 0.  1.
         21    1    1    2  504  503  0.48995061567E+02 -0.10108926505E+02  0.22755336741E+02  0.54959183065E+02  0.00000000000E+00 0.  1.
<mgrwt>
<rscale>  4 0.24262953E+03</rscale>
<asrwt>0</asrwt>
<pdfrwt beam="1">  1       21 0.44428540E-01 0.24262953E+03</pdfrwt>
<pdfrwt beam="2">  1       21 0.38493910E-01 0.24262953E+03</pdfrwt>
<totfact> 0.30868622E+04</totfact>
</mgrwt>
</event>
<event>
 5    0  0.2193454E+000  0.3388213E+03  0.7546771E-02  0.1067299E+00
         21   -1    0    0  503  501  0.00000000000E+00  0.00000000000E+00  0.18471201054E+03  0.18471201054E+03  0.00000000000E+00 0. -1.
         21   -1    0    0  501  502 -0.00000000000E+00 -0.00000000000E+00 -0.13994620535E+04  0.13994620535E+04  0.00000000000E+00 0. -1.
         25    1    1    2    0    0 -0.26361776206E+03 -0.18828598066E+03 -0.11654395801E+04  0.12160675762E+04  0.12500000000E+03 0.  0.
         21    1    1    2  503  504  0.52882734344E+02  0.32415758449E+01  0.47763959683E+02  0.71333633373E+02  0.00000000000E+00 0. -1.
         21    1    1    2  504  502  0.21073502772E+03  0.18504440482E+03 -0.97074422601E+02  0.29677285453E+03  0.00000000000E+00 0. -1.
<mgrwt>
<rscale>  4 0.33882129E+03</rscale>
<asrwt>0</asrwt>
<pdfrwt beam="1">  1       21 0.28417233E-01 0.33882129E+03</pdfrwt>
<pdfrwt beam="2">  1       21 0.21530185E+00 0.33882129E+03</pdfrwt>
<totfact> 0.11245790E+03</totfact>
</mgrwt>
</event>
<event>
 5    0  0.2193454E+000  0.2997320E+03  0.7546771E-02  0.1085375E+00
         21   -1    0    0  503  501  0.00000000000E+00  0.00000000000E+00  0.81248641085E+03  0.81248641085E+03  0.00000000000E+00 0. -1.
         21   -1    0    0  501  502 -0.00000000000E+00 -0.00000000000E+00 -0.18766327065E+03  0.18766327065E+03  0.00000000000E+00 0. -1.
         25    1    1    2    0    0 -0.16179710529E+03  0.22245376693E+03 -0.34722764175E+01  0.30216061690E+03  0.12500000000E+03 0.  0.
         21    1    1    2  503  504 -0.21795952454E+02 -0.32068606409E+02  0.98125369509E+02  0.10550851720E+03  0.00000000000E+00 0. -1.
         21    1    1    2  504  502  0.18359305775E+03 -0.19038516052E+03  0.53017004711E+03  0.59248054740E+03  0.00000000000E+00 0. -1.
<mgrwt>
<rscale>  4 0.29973201E+03</rscale>
<asrwt>0</asrwt>
<pdfrwt beam="1">  1       21 0.12499791E+00 0.29973201E+03</pdfrwt>
<pdfrwt beam="2">  1       21 0.28871273E-01 0.29973201E+03</pdfrwt>
<totfact> 0.51045707E+03</totfact>
</mgrwt>
</event>
<event>
 5    0  0.2193454E+000  0.3617707E+03  0.7546771E-02  0.1057885E+00
         21   -1    0    0  503  501  0.00000000000E+00  0.00000000000E+00  0.16284146611E+04  0.16284146611E+04  0.00000000000E+00 0. -1.
         21   -1    0    0  501  502 -0.00000000000E+00 -0.00000000000E+00 -0.82330588611E+02  0.82330588611E+02  0.00000000000E+00 0. -1.
         25    1    1    2    0    0 -0.27656300108E+03 -0.17974206234E+03  0.79782844275E+03  0.87232420957E+03  0.12500000000E+03 0.  0.
         21    1    1    2  503  504 -0.26001199914E+02  0.80297015222E+01  0.88095879921E+02  0.92203159179E+02  0.00000000000E+00 0.  1.
         21    1    1    2  504  502  0.30256420100E+03  0.17171236082E+03  0.66015974978E+03  0.74621788093E+03  0.00000000000E+00 0. -1.
<mgrwt>
<rscale>  4 0.36177069E+03</rscale>
<asrwt>0</asrwt>
<pdfrwt beam="1">  1       21 0.25052531E+00 0.36177069E+03</pdfrwt>
<pdfrwt beam="2">  1       21 0.12666246E-01 0.36177069E+03</pdfrwt>
<totfact> 0.30805844E+03</totfact>
</mgrwt>
</event>
<event>
 5    0  0.2193454E+000  0.4940153E+03  0.7546771E-02  0.1015353E+00
         21   -1    0    0  503  501  0.00000000000E+00  0.00000000000E+00  0.89325727602E+03  0.89325727602E+03  0.00000000000E+00 0.  1.
         21   -1    0    0  504  502 -0.00000000000E+00 -0.00000000000E+00 -0.40599536623E+03  0.40599536623E+03  0.00000000000E+00 0.  1.
         25    1    1    2    0    0 -0.36859985467E+03 -0.30563274947E+03 -0.12413877046E+03  0.51020845224E+03  0.12500000000E+03 0.  0.
         21    1    1    2  503  502  0.35167949717E+03  0.31973316505E+03  0.57013109658E+03  0.74226493441E+03  0.00000000000E+00 0.  1.
         21    1    1    2  504  501  0.16920357500E+02 -0.14100415578E+02  0.41269583672E+02  0.46779255593E+02  0.00000000000E+00 0. -1.
<mgrwt>
<rscale>  4 0.49401531E+03</rscale>
<asrwt>0</asrwt>
<pdfrwt beam="1">  1       21 0.13742420E+00 0.49401531E+03</pdfrwt>
<pdfrwt beam="2">  1       21 0.62460826E-01 0.49401531E+03</pdfrwt>
<totfact> 0.73704750E+02</totfact>
</mgrwt>
</event>
<event>
 5    0  0.2193454E+000  0.4688263E+03  0.7546771E-02  0.1022252E+00
         21   -1    0    0  503  501  0.00000000000E+00  0.00000000000E+00  0.35414609239E+03  0.35414609239E+03  0.00000000000E+00 0. -1.
         21   -1    0    0  501  502 -0.00000000000E+00 -0.00000000000E+00 -0.25127921600E+04  0.25127921600E+04  0.00000000000E+00 0. -1.
         25    1    1    2    0    0  0.33293600354E+03 -0.37136591333E+03 -0.19492008650E+04  0.20158789736E+04  0.12500000000E+03 0.  0.
         21    1    1    2  503  504 -0.16102534898E+02  0.18354654335E+03  0.21890864673E+03  0.28612867878E+03  0.00000000000E+00 0. -1.
         21    1    1    2  504  502 -0.31683346864E+03  0.18781936998E+03 -0.42835384930E+03  0.56493059999E+03  0.00000000000E+00 0. -1.
<mgrwt>
<rscale>  4 0.46882633E+03</rscale>
<asrwt>0</asrwt>
<pdfrwt beam="1">  1       21 0.54484011E-01 0.46882633E+03</pdfrwt>
<pdfrwt beam="2">  1       21 0.38658343E+00 0.46882633E+03</pdfrwt>
<totfact> 0.24299736E+01</totfact>
</mgrwt>
</event>
<event>
 5    0  0.2193454E+000  0.2331920E+03  0.7546771E-02  0.1124413E+00
         21   -1    0    0  503  501  0.00000000000E+00  0.00000000000E+00  0.20461822678E+03  0.20461822678E+03  0.00000000000E+00 0. -1.
         21   -1    0    0  501  502 -0.00000000000E+00 -0.00000000000E+00 -0.44777960946E+03  0.44777960946E+03  0.00000000000E+00 0.  1.
         25    1    1    2    0    0  0.20846769319E+03  0.28005460393E+02 -0.32141508563E+03  0.40395017290E+03  0.12500000000E+03 0.  0.
         21    1    1    2  503  504 -0.42906614203E+02 -0.50222230344E+02  0.39506561560E+02  0.76967644951E+02  0.00000000000E+00 0.  1.
         21    1    1    2  504  502 -0.16556107898E+03  0.22216769951E+02  0.38747141386E+02  0.17148001839E+03  0.00000000000E+00 0. -1.
<mgrwt>
<rscale>  4 0.23319201E+03</rscale>
<asrwt>0</asrwt>
<pdfrwt beam="1">  1       21 0.31479728E-01 0.23319201E+03</pdfrwt>
<pdfrwt beam="2">  1       21 0.68889170E-01 0.23319201E+03</pdfrwt>
<totfact> 0.18182666E+04</totfact>
</mgrwt>
</event>
<event>
 5    0  0.2193454E+000  0.3568067E+03  0.7546771E-02  0.1059855E+00
         21   -1    0    0  502  501  0.00000000000E+00  0.00000000000E+00  0.10232515948E+04  0.10232515948E+04  0.00000000000E+00 0. -1.
         21   -1    0    0  503  502 -0.00000000000E+00 -0.00000000000E+00 -0.75501172384E+03  0.75501172384E+03  0.00000000000E+00 0.  1.
         25    1    1    2    0    0  0.24100962813E+03  0.22697977158E+03 -0.62611217769E+03  0.71919880187E+03  0.12500000000E+03 0.  0.
         21    1    1    2  503  504  0.95551761502E+02 -0.75747371924E+01  0.21564976907E+02  0.98247463065E+02  0.00000000000E+00 0.  1.
         21    1    1    2  504  501 -0.33656138964E+03 -0.21940503438E+03  0.87278707179E+03  0.96081705376E+03  0.00000000000E+00 0. -1.
<mgrwt>
<rscale>  4 0.35680669E+03</rscale>
<asrwt>0</asrwt>
<pdfrwt beam="1">  1       21 0.15742332E+00 0.35680669E+03</pdfrwt>
<pdfrwt beam="2">  1       21 0.11615565E+00 0.35680669E+03</pdfrwt>
<totfact> 0.12836906E+02</totfact>
</mgrwt>
</event>
<event>
 5    0  0.2193454E+000  0.3643311E+03  0.7546771E-02  0.1056882E+00
         21   -1    0    0  503  501  0.00000000000E+00  0.00000000000E+00  0.81612788406E+02  0.81612788406E+02  0.00000000000E+00 0.  1.
         21   -1    0    0  501  502 -0.00000000000E+00 -0.00000000000E+00 -0.19803558176E+04  0.19803558176E+04  0.00000000000E+00 0.  1.
         25    1    1    2    0    0  0.23844975143E+02  0.35140043791E+03 -0.79511437265E+03  0.87856856090E+03  0.12500000000E+03 0.  0.
         21    1    1    2  503  504  0.19008044682E+02 -0.17676867800E+02  0.35746013260E+01  0.26202198237E+02  0.00000000000E+00 0.  1.
         21    1    1    2  504  502 -0.42853019825E+02 -0.33372357011E+03 -0.11072032578E+04  0.11571978468E+04  0.00000000000E+00 0.  1.
<mgrwt>
<rscale>  4 0.36433108E+03</rscale>
<asrwt>0</asrwt>
<pdfrwt beam="1">  1       21 0.12555814E-01 0.36433108E+03</pdfrwt>
<pdfrwt beam="2">  1       21 0.30467011E+00 0.36433108E+03</pdfrwt>
<totfact> 0.14817573E+03</totfact>
</mgrwt>
</event>
<event>
 5    0  0.2193454E+000  0.3161837E+03  0.7546771E-02  0.1077419E+00
         21   -1    0    0  502  501  0.00000000000E+00  0.00000000000E+00  0.26980285240E+04  0.26980285240E+04  0.00000000000E+00 0. -1.
         21   -1    0    0  503  502 -0.00000000000E+00 -0.00000000000E+00 -0.18590723961E+03  0.18590723961E+03  0.00000000000E+00 0.  1.
         25    1    1    2    0    0  0.23786585421E+03  0.34886041008E+03  0.28224957673E+03  0.52304261192E+03  0.12500000000E+03 0.  0.
         21    1    1    2  503  504 -0.23447158065E+03 -0.64134185466E+02  0.21054381786E+03  0.32158795860E+03  0.00000000000E+00 0. -1.
         21    1    1    2  504  501 -0.33942735555E+01 -0.28472622461E+03  0.20193278898E+04  0.20393051931E+04  0.00000000000E+00 0. -1.
<mgrwt>
<rscale>  4 0.31618371E+03</rscale>
<asrwt>0</asrwt>
<pdfrwt beam="1">  1       21 0.41508128E+00 0.31618371E+03</pdfrwt>
<pdfrwt beam="2">  1       21 0.28601116E-01 0.31618371E+03</pdfrwt>
<totfact> 0.68684686E+01</totfact>
</mgrwt>
</event>
<event>
 5    0  0.2193454E+000  0.3193290E+03  0.7546771E-02  0.1075959E+00
         21   -1    0    0  503  501  0.00000000000E+00  0.00000000000E+00  0.21176691001E+03  0.21176691001E+03  0.00000000000E+00 0.  1.
         21   -1    0    0  504  502 -0.00000000000E+00 -0.00000000000E+00 -0.63096461495E+03  0.63096461495E+03  0.00000000000E+00 0.  1.
         25    1    1    2    0    0  0.30260074338E+03 -0.92958162791E+02 -0.33987297895E+03  0.48098552134E+03  0.12500000000E+03 0.  0.
         21    1    1    2  503  502 -0.77159025742E+02 -0.39686162562E+02 -0.45575863288E+02  0.98008499972E+02  0.00000000000E+00 0.  1.
         21    1    1    2  504  501 -0.22544171764E+03  0.13264432535E+03 -0.33748862710E+02  0.26373750365E+03  0.00000000000E+00 0.  1.
<mgrwt>
<rscale>  4 0.31932901E+03</rscale>
<asrwt>0</asrwt>
<pdfrwt beam="1">  1       21 0.32579524E-01 0.31932901E+03</pdfrwt>
<pdfrwt beam="2">  1       21 0.97071480E-01 0.31932901E+03</pdfrwt>
<totfact> 0.74169592E+03</totfact>
</mgrwt>
</event>
<event>
 5    0  0.2193454E+000  0.2614367E+03  0.7546771E-02  0.1106283E+00
         21   -1    0    0  502  501  0.00000000000E+00  0.00000000000E+00  0.92201175729E+03  0.92201175729E+03  0.00000000000E+00 0. -1.
         21   -1    0    0  504  502 -0.00000000000E+00 -0.00000000000E+00 -0.17879803694E+03  0.17879803694E+03  0.00000000000E+00 0.  1.
         25    1    1    2    0    0 -0.17629515419E+03 -0.14181322496E+03 -0.40764042737E+02  0.26168240167E+03  0.12500000000E+03 0.  0.
         21    1    1    2  503  501  0.21550469679E+03  0.13417015425E+03  0.72259969316E+03  0.76589439297E+03  0.00000000000E+00 0. -1.
         21    1    1    2  504  503 -0.39209542599E+02  0.76430707048E+01  0.61378069923E+02  0.73232999584E+02  0.00000000000E+00 0.  1.
<mgrwt>
<rscale>  4 0.26143671E+03</rscale>
<asrwt>0</asrwt>
<pdfrwt beam="1">  1       21 0.14184796E+00 0.26143671E+03</pdfrwt>
<pdfrwt beam="2">  1       21 0.27507391E-01 0.26143671E+03</pdfrwt>
<totfact> 0.41421411E+03</totfact>
</mgrwt>
</event>
<event>
 5    0  0.2193454E+000  0.2713536E+03  0.7546771E-02  0.1100507E+00
         21   -1    0    0  503  501  0.00000000000E+00  0.00000000000E+00  0.36940585941E+03  0.36940585941E+03  0.00000000000E+00 0. -1.
         21   -1    0    0  501  502 -0.00000000000E+00 -0.00000000000E+00 -0.10958255491E+04  0.10958255491E+04  0.00000000000E+00 0. -1.
         25    1    1    2    0    0 -0.21056292199E+03  0.79312811140E+02 -0.59284683892E+03  0.64631233978E+03  0.12500000000E+03 0.  0.
         21    1    1    2  503  504 -0.36942910706E+02  0.76750449067E+01  0.30529391905E+03  0.30761674527E+03  0.00000000000E+00 0. -1.
         21    1    1    2  504  502  0.24750583269E+03 -0.86987856047E+02 -0.43886676977E+03  0.51130232341E+03  0.00000000000E+00 0. -1.
<mgrwt>
<rscale>  4 0.27135357E+03</rscale>
<asrwt>0</asrwt>
<pdfrwt beam="1">  1       21 0.56831671E-01 0.27135357E+03</pdfrwt>
<pdfrwt beam="2">  1       21 0.16858855E+00 0.27135357E+03</pdfrwt>
<totfact> 0.58864658E+02</totfact>
</mgrwt>
</event>
<event>
 5    0  0.2193454E+000  0.3901362E+03  0.7546771E-02  0.1048806E+00
         21   -1    0    0  502  501  0.00000000000E+00  0.00000000000E+00  0.26015046318E+03  0.26015046318E+03  0.00000000000E+00 0.  1.
         21   -1    0    0  503  502 -0.00000000000E+00 -0.00000000000E+00 -0.15658479276E+04  0.15658479276E+04  0.00000000000E+00 0.  1.
         25    1    1    2    0    0 -0.28515433466E+03  0.20563985980E+03 -0.61859848821E+03  0.72241943228E+03  0.12500000000E+03 0.  0.
         21    1    1    2  503  504  0.25062858493E+03  0.28045711264E+03 -0.28951346195E+03  0.47464610424E+03  0.00000000000E+00 0.  1.
         21    1    1    2  504  501  0.34525749728E+02 -0.48609697245E+03 -0.39758551422E+03  0.62893285424E+03  0.00000000000E+00 0.  1.
<mgrwt>
<rscale>  4 0.38581321E+03</rscale>
<asrwt>0</asrwt>
<pdfrwt beam="1">  1       21 0.40023148E-01 0.39013615E+03</pdfrwt>
<pdfrwt beam="2">  1       21 0.24089968E+00 0.39013615E+03</pdfrwt>
<totfact> 0.37886679E+02</totfact>
</mgrwt>
</event>
<event>
 5    0  0.2193454E+000  0.2434404E+03  0.7546771E-02  0.1117522E+00
         21   -1    0    0  503  501  0.00000000000E+00  0.00000000000E+00  0.20163329350E+04  0.20163329350E+04  0.00000000000E+00 0. -1.
         21   -1    0    0  504  502 -0.00000000000E+00 -0.00000000000E+00 -0.11846520534E+03  0.11846520534E+03  0.00000000000E+00 0. -1.
         25    1    1    2    0    0 -0.13189633241E+02  0.21413007578E+03  0.11417719940E+03  0.27328938626E+03  0.12500000000E+03 0.  0.
         21    1    1    2  503  502  0.54520681028E+02 -0.19628992954E+03  0.23033210968E+03  0.30749816560E+03  0.00000000000E+00 0. -1.
         21    1    1    2  504  501 -0.41331047787E+02 -0.17840146239E+02  0.15533584206E+04  0.15540105885E+04  0.00000000000E+00 0. -1.
<mgrwt>
<rscale>  4 0.24344040E+03</rscale>
<asrwt>0</asrwt>
<pdfrwt beam="1">  1       21 0.31020504E+00 0.24344040E+03</pdfrwt>
<pdfrwt beam="2">  1       21 0.18225418E-01 0.24344040E+03</pdfrwt>
<totfact> 0.76743699E+02</totfact>
</mgrwt>
</event>
<event>
 5    0  0.2193454E+000  0.4796481E+03  0.7546771E-02  0.1019232E+00
         21   -1    0    0  503  501  0.00000000000E+00  0.00000000000E+00  0.32006820528E+03  0.32006820528E+03  0.00000000000E+00 0. -1.
         21   -1    0    0  504  502 -0.00000000000E+00 -0.00000000000E+00 -0.14185287284E+04  0.14185287284E+04  0.00000000000E+00 0.  1.
         25    1    1    2    0    0  0.11973295522E+03  0.44918560224E+03 -0.10378886382E+04  0.11440898177E+04  0.12500000000E+03 0.  0.
         21    1    1    2  503  502 -0.86186466429E+02 -0.45031210815E+03 -0.16309418984E+03  0.48663006124E+03  0.00000000000E+00 0. -1.
         21    1    1    2  504  501 -0.33546488786E+02  0.11265059094E+01  0.10252230490E+03  0.10787705469E+03  0.00000000000E+00 0. -1.
<mgrwt>
<rscale>  4 0.47964814E+03</rscale>
<asrwt>0</asrwt>
<pdfrwt beam="1">  1       21 0.49241261E-01 0.47964814E+03</pdfrwt>
<pdfrwt beam="2">  1       21 0.21823519E+00 0.47964814E+03</pdfrwt>
<totfact> 0.32462263E+02</totfact>
</mgrwt>
</event>
<event>
 5    0  0.2193454E+000  0.2966539E+03  0.7546771E-02  0.1086925E+00
         21   -1    0    0  503  501  0.00000000000E+00  0.00000000000E+00  0.39608242090E+03  0.39608242090E+03  0.00000000000E+00 0.  1.
         21   -1    0    0  504  502 -0.00000000000E+00 -0.00000000000E+00 -0.70804927067E+03  0.70804927067E+03  0.00000000000E+00 0.  1.
         25    1    1    2    0    0  0.20879266039E+03 -0.17213872643E+03 -0.61763779501E+03  0.68580431757E+03  0.12500000000E+03 0.  0.
         21    1    1    2  503  502 -0.21014735531E+03  0.14558451985E+03  0.25488903478E+03  0.36100579416E+03  0.00000000000E+00 0.  1.
         21    1    1    2  504  501  0.13546949289E+01  0.26554206574E+02  0.50781910471E+02  0.57321579848E+02  0.00000000000E+00 0.  1.
<mgrwt>
<rscale>  4 0.29665385E+03</rscale>
<asrwt>0</asrwt>
<pdfrwt beam="1">  1       21 0.60935758E-01 0.29665385E+03</pdfrwt>
<pdfrwt beam="2">  1       21 0.10893066E+00 0.29665385E+03</pdfrwt>
<totfact> 0.15470018E+03</totfact>
</mgrwt>
</event>
<event>
 5    0  0.2193454E+000  0.3121613E+03  0.7546771E-02  0.1079315E+00
         21   -1    0    0  502  501  0.00000000000E+00  0.00000000000E+00  0.66489666073E+02  0.66489666073E+02  0.00000000000E+00 0. -1.
         21   -1    0    0  504  502 -0.00000000000E+00 -0.00000000000E+00 -0.34629443223E+04  0.34629443223E+04  0.00000000000E+00 0. -1.
         25    1    1    2    0    0  0.32200223270E+03  0.80261536012E+02 -0.27332055179E+04  0.27561140678E+04  0.12500000000E+03 0.  0.
         21    1    1    2  503  501 -0.25459121038E+03 -0.11717291209E+03 -0.33782766947E+03  0.43894613564E+03  0.00000000000E+00 0. -1.
         21    1    1    2  504  503 -0.67411022318E+02  0.36911376073E+02 -0.32542146888E+03  0.33437378489E+03  0.00000000000E+00 0. -1.
<mgrwt>
<rscale>  4 0.31216129E+03</rscale>
<asrwt>0</asrwt>
<pdfrwt beam="1">  1       21 0.10229178E-01 0.31216129E+03</pdfrwt>
<pdfrwt beam="2">  1       21 0.53276073E+00 0.31216129E+03</pdfrwt>
<totfact> 0.72435180E+01</totfact>
</mgrwt>
</event>
<event>
 5    0  0.2193454E+000  0.4825875E+03  0.7546771E-02  0.1038736E+00
         21   -1    0    0  503  501  0.00000000000E+00  0.00000000000E+00  0.28051721486E+03  0.28051721486E+03  0.00000000000E+00 0. -1.
         21   -1    0    0  501  502 -0.00000000000E+00 -0.00000000000E+00 -0.20416542235E+04  0.20416542235E+04  0.00000000000E+00 0. -1.
         25    1    1    2    0    0 -0.53099990598E+02  0.22601794391E+03 -0.84441343894E+03  0.88462578294E+03  0.12500000000E+03 0.  0.
         21    1    1    2  503  504 -0.46704172733E+03 -0.30346397667E+02 -0.15173691004E+03  0.49200911454E+03  0.00000000000E+00 0. -1.
         21    1    1    2  504  502  0.52014171793E+03 -0.19567154624E+03 -0.76498665970E+03  0.94553654094E+03  0.00000000000E+00 0. -1.
<mgrwt>
<rscale>  4 0.41490874E+03</rscale>
<asrwt>0</asrwt>
<pdfrwt beam="1">  1       21 0.43156493E-01 0.48258750E+03</pdfrwt>
<pdfrwt beam="2">  1       21 0.31410066E+00 0.48258750E+03</pdfrwt>
<totfact> 0.11042313E+02</totfact>
</mgrwt>
</event>
<event>
 5    0  0.2193454E+000  0.2831633E+03  0.7546771E-02  0.1093974E+00
         21   -1    0    0  503  501  0.00000000000E+00  0.00000000000E+00  0.36318171798E+03  0.36318171798E+03  0.00000000000E+00 0. -1.
         21   -1    0    0  504  502 -0.00000000000E+00 -0.00000000000E+00 -0.42422760413E+03  0.42422760413E+03  0.00000000000E+00 0. -1.
         25    1    1    2    0    0  0.35430224779E+02  0.27454066878E+03 -0.23120718026E+03  0.38171932077E+03  0.12500000000E+03 0.  0.
         21    1    1    2  503  502  0.53153819868E+02 -0.39778212556E+02 -0.40754004215E+02  0.77900729267E+02  0.00000000000E+00 0. -1.
         21    1    1    2  504  501 -0.88584044647E+02 -0.23476245623E+03  0.21091529833E+03  0.32778927208E+03  0.00000000000E+00 0. -1.
<mgrwt>
<rscale>  4 0.28316334E+03</rscale>
<asrwt>0</asrwt>
<pdfrwt beam="1">  1       21 0.55874111E-01 0.28316334E+03</pdfrwt>
<pdfrwt beam="2">  1       21 0.65265785E-01 0.28316334E+03</pdfrwt>
<totfact> 0.61540056E+03</totfact>
</mgrwt>
</event>
<event>
 5    0  0.2193454E+000  0.3017180E+03  0.7546771E-02  0.1084385E+00
         21   -1    0    0  503  501  0.00000000000E+00  0.00000000000E+00  0.65401252863E+02  0.65401252863E+02  0.00000000000E+00 0.  1.
         21   -1    0    0  504  502 -0.00000000000E+00 -0.00000000000E+00 -0.23748402255E+04  0.23748402255E+04  0.00000000000E+00 0. -1.
         25    1    1    2    0    0  0.11982924167E+03 -0.24184401424E+03 -0.18492040296E+04  0.18729730691E+04  0.12500000000E+03 0.  0.
         21    1    1    2  503  502 -0.13304758284E+03  0.25915461707E+03 -0.46116468031E+03  0.54546827333E+03  0.00000000000E+00 0.  1.
         21    1    1    2  504  501  0.13218341171E+02 -0.17310602832E+02  0.92973732975E+00  0.21800135899E+02  0.00000000000E+00 0. -1.
<mgrwt>
<rscale>  4 0.30171801E+03</rscale>
<asrwt>0</asrwt>
<pdfrwt beam="1">  1       21 0.10061732E-01 0.30171801E+03</pdfrwt>
<pdfrwt beam="2">  1       21 0.36536001E+00 0.30171801E+03</pdfrwt>
<totfact> 0.10017199E+03</totfact>
</mgrwt>
</event>
<event>
 5    0  0.2256189E+000  0.3357753E+03  0.7546771E-02  0.1068610E+00
         21   -1    0    0  503  501  0.00000000000E+00  0.00000000000E+00  0.61977249118E+03  0.61977249118E+03  0.00000000000E+00 0. -1.
         21   -1    0    0  504  502 -0.00000000000E+00 -0.00000000000E+00 -0.50293515063E+03  0.50293515063E+03  0.00000000000E+00 0.  1.
         25    1    1    2    0    0  0.12850077278E+03  0.28551093490E+03  0.38576637342E+03  0.51231790659E+03  0.12500000000E+03 0.  0.
         21    1    1    2  503  502 -0.10591546400E+03 -0.29300519088E+03 -0.38308175828E+03  0.49378311121E+03  0.00000000000E+00 0.  1.
         21    1    1    2  504  501 -0.22585308777E+02  0.74942559738E+01  0.11415272541E+03  0.11660662401E+03  0.00000000000E+00 0. -1.
<mgrwt>
<rscale>  4 0.33577526E+03</rscale>
<asrwt>0</asrwt>
<pdfrwt beam="1">  1       21 0.95349614E-01 0.33577526E+03</pdfrwt>
<pdfrwt beam="2">  1       21 0.77374638E-01 0.33577526E+03</pdfrwt>
<totfact> 0.12258915E+03</totfact>
</mgrwt>
</event>
<event>
 5    0  0.2193454E+000  0.4787527E+03  0.7546771E-02  0.1019479E+00
         21   -1    0    0  503  501  0.00000000000E+00  0.00000000000E+00  0.61542968202E+03  0.61542968202E+03  0.00000000000E+00 0. -1.
         21   -1    0    0  501  502 -0.00000000000E+00 -0.00000000000E+00 -0.47779418039E+03  0.47779418039E+03  0.00000000000E+00 0.  1.
         25    1    1    2    0    0  0.40412038121E+03 -0.21175780584E+03 -0.17447190858E+03  0.50420243725E+03  0.12500000000E+03 0.  0.
         21    1    1    2  503  504  0.16568787299E+02 -0.14082130462E+02  0.18053452945E+02  0.28262311904E+02  0.00000000000E+00 0. -1.
         21    1    1    2  504  502 -0.42068916851E+03  0.22583993630E+03  0.29405395727E+03  0.56075911327E+03  0.00000000000E+00 0. -1.
<mgrwt>
<rscale>  4 0.47875267E+03</rscale>
<asrwt>0</asrwt>
<pdfrwt beam="1">  1       21 0.94681490E-01 0.47875267E+03</pdfrwt>
<pdfrwt beam="2">  1       21 0.73506797E-01 0.47875267E+03</pdfrwt>
<totfact> 0.13135599E+03</totfact>
</mgrwt>
</event>
<event>
 5    0  0.2193454E+000  0.2697699E+03  0.7546771E-02  0.1101411E+00
         21   -1    0    0  503  501  0.00000000000E+00  0.00000000000E+00  0.15919120701E+04  0.15919120701E+04  0.00000000000E+00 0.  1.
         21   -1    0    0  504  502 -0.00000000000E+00 -0.00000000000E+00 -0.12000326785E+04  0.12000326785E+04  0.00000000000E+00 0.  1.
         25    1    1    2    0    0  0.13465190721E+03  0.20265510219E+03 -0.10137666641E+04  0.10500228930E+04  0.12500000000E+03 0.  0.
         21    1    1    2  503  502 -0.12716415063E+03 -0.18189687155E+03 -0.94782130207E+02  0.24133140138E+03  0.00000000000E+00 0. -1.
         21    1    1    2  504  501 -0.74877565729E+01 -0.20758230635E+02  0.15004281858E+04  0.15005904543E+04  0.00000000000E+00 0.  1.
<mgrwt>
<rscale>  4 0.26976986E+03</rscale>
<asrwt>0</asrwt>
<pdfrwt beam="1">  1       21 0.24490955E+00 0.26976986E+03</pdfrwt>
<pdfrwt beam="2">  1       21 0.18462041E+00 0.26976986E+03</pdfrwt>
<totfact> 0.10657042E+01</totfact>
</mgrwt>
</event>
<event>
 5    0  0.2193454E+000  0.3144753E+03  0.7546771E-02  0.1078220E+00
         21   -1    0    0  502  501  0.00000000000E+00  0.00000000000E+00  0.22627516180E+03  0.22627516180E+03  0.00000000000E+00 0. -1.
         21   -1    0    0  504  502 -0.00000000000E+00 -0.00000000000E+00 -0.44264560810E+03  0.44264560810E+03  0.00000000000E+00 0. -1.
         25    1    1    2    0    0 -0.67148265476E+02 -0.28620710796E+03 -0.16700287762E+03  0.36046963720E+03  0.12500000000E+03 0.  0.
         21    1    1    2  503  501  0.46542954717E+02  0.27837923423E+03 -0.48590574460E+02  0.28639533622E+03  0.00000000000E+00 0. -1.
         21    1    1    2  504  503  0.20605310760E+02  0.78278737336E+01 -0.77699421602E+00  0.22055796488E+02  0.00000000000E+00 0. -1.
<mgrwt>
<rscale>  4 0.31447534E+03</rscale>
<asrwt>0</asrwt>
<pdfrwt beam="1">  1       21 0.34811563E-01 0.31447534E+03</pdfrwt>
<pdfrwt beam="2">  1       21 0.68099325E-01 0.31447534E+03</pdfrwt>
<totfact> 0.14712110E+04</totfact>
</mgrwt>
</event>
<event>
 5    0  0.2193454E+000  0.2498213E+03  0.7546771E-02  0.1113418E+00
         21   -1    0    0  502  501  0.00000000000E+00  0.00000000000E+00  0.81864919376E+03  0.81864919376E+03  0.00000000000E+00 0.  1.
         21   -1    0    0  503  502 -0.00000000000E+00 -0.00000000000E+00 -0.89315842374E+02  0.89315842374E+02  0.00000000000E+00 0.  1.
         25    1    1    2    0    0  0.17203224179E+03 -0.13111282410E+03  0.15971208929E+03  0.29651073559E+03  0.12500000000E+03 0.  0.
         21    1    1    2  503  504 -0.26155572652E+02  0.23440849554E+02  0.15489970842E+03  0.15883169418E+03  0.00000000000E+00 0.  1.
         21    1    1    2  504  501 -0.14587666914E+03  0.10767197455E+03  0.41472155368E+03  0.45262260636E+03  0.00000000000E+00 0.  1.
<mgrwt>
<rscale>  4 0.24982127E+03</rscale>
<asrwt>0</asrwt>
<pdfrwt beam="1">  1       21 0.12594602E+00 0.24982127E+03</pdfrwt>
<pdfrwt beam="2">  1       21 0.13740899E-01 0.24982127E+03</pdfrwt>
<totfact> 0.20826420E+04</totfact>
</mgrwt>
</event>
<event>
 5    0  0.2193454E+000  0.2880227E+03  0.7546771E-02  0.1091386E+00
         21   -1    0    0  503  501  0.00000000000E+00  0.00000000000E+00  0.76322884147E+03  0.76322884147E+03  0.00000000000E+00 0.  1.
         21   -1    0    0  501  502 -0.00000000000E+00 -0.00000000000E+00 -0.68977249743E+03  0.68977249743E+03  0.00000000000E+00 0.  1.
         25    1    1    2    0    0 -0.20598789124E+03  0.14745088094E+03 -0.51253556552E+03  0.58522686161E+03  0.12500000000E+03 0.  0.
         21    1    1    2  503  504 -0.66071754822E+02 -0.39812931355E+02  0.56953272141E+03  0.57473303980E+03  0.00000000000E+00 0.  1.
         21    1    1    2  504  502  0.27205964607E+03 -0.10763794958E+03  0.16459188150E+02  0.29304143748E+03  0.00000000000E+00 0.  1.
<mgrwt>
<rscale>  4 0.28802271E+03</rscale>
<asrwt>0</asrwt>
<pdfrwt beam="1">  1       21 0.11741982E+00 0.28802271E+03</pdfrwt>
<pdfrwt beam="2">  1       21 0.10611885E+00 0.28802271E+03</pdfrwt>
<totfact> 0.36236096E+02</totfact>
</mgrwt>
</event>
<event>
 5    0  0.2193454E+000  0.3277685E+03  0.7546771E-02  0.1072129E+00
         21   -1    0    0  503  501  0.00000000000E+00  0.00000000000E+00  0.85341661065E+03  0.85341661065E+03  0.00000000000E+00 0. -1.
         21   -1    0    0  501  502 -0.00000000000E+00 -0.00000000000E+00 -0.20193640578E+03  0.20193640578E+03  0.00000000000E+00 0. -1.
         25    1    1    2    0    0 -0.25418481394E+03 -0.16491597626E+03 -0.35264198879E+01  0.32778748375E+03  0.12500000000E+03 0.  0.
         21    1    1    2  503  504  0.71120373434E+02  0.24823532081E+01  0.17046989464E+03  0.18472751439E+03  0.00000000000E+00 0. -1.
         21    1    1    2  504  502  0.18306444051E+03  0.16243362305E+03  0.48453673011E+03  0.54283801829E+03  0.00000000000E+00 0. -1.
<mgrwt>
<rscale>  4 0.32776851E+03</rscale>
<asrwt>0</asrwt>
<pdfrwt beam="1">  1       21 0.13129486E+00 0.32776851E+03</pdfrwt>
<pdfrwt beam="2">  1       21 0.31067140E-01 0.32776851E+03</pdfrwt>
<totfact> 0.38401873E+03</totfact>
</mgrwt>
</event>
<event>
 5    0  0.2193454E+000  0.2668280E+03  0.7546771E-02  0.1103109E+00
         21   -1    0    0  503  501  0.00000000000E+00  0.00000000000E+00  0.45876909652E+03  0.45876909652E+03  0.00000000000E+00 0. -1.
         21   -1    0    0  501  502 -0.00000000000E+00 -0.00000000000E+00 -0.32641084657E+03  0.32641084657E+03  0.00000000000E+00 0. -1.
         25    1    1    2    0    0 -0.23445929973E+03 -0.40288742368E+02 -0.98076551588E+02  0.28607403930E+03  0.12500000000E+03 0.  0.
         21    1    1    2  503  504  0.12079006323E+02 -0.35369049390E+02  0.25971457350E+03  0.26239003742E+03  0.00000000000E+00 0. -1.
         21    1    1    2  504  502  0.22238029341E+03  0.75657791758E+02 -0.29279771962E+02  0.23671586638E+03  0.00000000000E+00 0. -1.
<mgrwt>
<rscale>  4 0.26682800E+03</rscale>
<asrwt>0</asrwt>
<pdfrwt beam="1">  1       21 0.70579861E-01 0.26682800E+03</pdfrwt>
<pdfrwt beam="2">  1       21 0.50217053E-01 0.26682800E+03</pdfrwt>
<totfact> 0.65482117E+03</totfact>
</mgrwt>
</event>
<event>
 5    0  0.2193454E+000  0.3391529E+03  0.7546771E-02  0.1067157E+00
         21   -1    0    0  502  501  0.00000000000E+00  0.00000000000E+00  0.19770724617E+03  0.19770724617E+03  0.00000000000E+00 0.  1.
         21   -1    0    0  503  502 -0.00000000000E+00 -0.00000000000E+00 -0.10228007447E+04  0.10228007447E+04  0.00000000000E+00 0. -1.
         25    1    1    2    0    0 -0.16831603919E+03 -0.26658839990E+03 -0.81844952475E+03  0.88593695519E+03  0.12500000000E+03 0.  0.
         21    1    1    2  503  504 -0.13322736066E+02  0.44287834314E+02  0.88251569272E+01  0.47082809595E+02  0.00000000000E+00 0. -1.
         21    1    1    2  504  501  0.18163877526E+03  0.22230056559E+03 -0.15469130709E+02  0.28748822609E+03  0.00000000000E+00 0.  1.
<mgrwt>
<rscale>  4 0.33915286E+03</rscale>
<asrwt>0</asrwt>
<pdfrwt beam="1">  1       21 0.30416500E-01 0.33915286E+03</pdfrwt>
<pdfrwt beam="2">  1       21 0.15735396E+00 0.33915286E+03</pdfrwt>
<totfact> 0.24622128E+03</totfact>
</mgrwt>
</event>
<event>
 5    0  0.2193454E+000  0.2603849E+03  0.7546771E-02  0.1106912E+00
         21   -1    0    0  503  501  0.00000000000E+00  0.00000000000E+00  0.18407580591E+03  0.18407580591E+03  0.00000000000E+00 0.  1.
         21   -1    0    0  504  502 -0.00000000000E+00 -0.00000000000E+00 -0.60645212486E+03  0.60645212486E+03  0.00000000000E+00 0.  1.
         25    1    1    2    0    0 -0.81447146806E+02  0.18848744082E+03 -0.38386188430E+03  0.45291952849E+03  0.12500000000E+03 0.  0.
         21    1    1    2  503  502  0.58215513418E+02  0.46600115715E+02 -0.66256471284E+02  0.99752377285E+02  0.00000000000E+00 0. -1.
         21    1    1    2  504  501  0.23231633388E+02 -0.23508755654E+03  0.27742036625E+02  0.23785602499E+03  0.00000000000E+00 0.  1.
<mgrwt>
<rscale>  4 0.26038492E+03</rscale>
<asrwt>0</asrwt>
<pdfrwt beam="1">  1       21 0.28319354E-01 0.26038492E+03</pdfrwt>
<pdfrwt beam="2">  1       21 0.93300328E-01 0.26038492E+03</pdfrwt>
<totfact> 0.11051255E+04</totfact>
</mgrwt>
</event>
<event>
 5    0  0.2193454E+000  0.2274866E+03  0.7546771E-02  0.1128421E+00
         21   -1    0    0  503  501  0.00000000000E+00  0.00000000000E+00  0.32219399215E+03  0.32219399215E+03  0.00000000000E+00 0.  1.
         21   -1    0    0  504  502 -0.00000000000E+00 -0.00000000000E+00 -0.58029319735E+03  0.58029319735E+03  0.00000000000E+00 0.  1.
         25    1    1    2    0    0  0.90421082430E+01  0.20461249621E+03 -0.44409130327E+03  0.50476739095E+03  0.12500000000E+03 0.  0.
         21    1    1    2  503  502  0.13809712985E+03 -0.99563860569E+02  0.10095746499E+03  0.19792975861E+03  0.00000000000E+00 0.  1.
         21    1    1    2  504  501 -0.14713923810E+03 -0.10504863564E+03  0.85034633085E+02  0.19979003995E+03  0.00000000000E+00 0.  1.
<mgrwt>
<rscale>  4 0.22748659E+03</rscale>
<asrwt>0</asrwt>
<pdfrwt beam="1">  1       21 0.49568306E-01 0.22748659E+03</pdfrwt>
<pdfrwt beam="2">  1       21 0.89275877E-01 0.22748659E+03</pdfrwt>
<totfact> 0.40429143E+03</totfact>
</mgrwt>
</event>
<event>
 5    0  0.2193454E+000  0.2494507E+03  0.7546771E-02  0.1113652E+00
         21   -1    0    0  503  501  0.00000000000E+00  0.00000000000E+00  0.59400874982E+03  0.59400874982E+03  0.00000000000E+00 0. -1.
         21   -1    0    0  504  502 -0.00000000000E+00 -0.00000000000E+00 -0.15321753531E+03  0.15321753531E+03  0.00000000000E+00 0.  1.
         25    1    1    2    0    0 -0.96750287002E+02 -0.19609711914E+03  0.67985849898E+01  0.25196412230E+03  0.12500000000E+03 0.  0.
         21    1    1    2  503  502  0.11501073676E+03  0.17338405388E+03  0.39650881190E+03  0.44778202021E+03  0.00000000000E+00 0. -1.
         21    1    1    2  504  501 -0.18260449763E+02  0.22713065256E+02  0.37483817629E+02  0.47480142616E+02  0.00000000000E+00 0. -1.
<mgrwt>
<rscale>  4 0.24945068E+03</rscale>
<asrwt>0</asrwt>
<pdfrwt beam="1">  1       21 0.91385961E-01 0.24945068E+03</pdfrwt>
<pdfrwt beam="2">  1       21 0.23571929E-01 0.24945068E+03</pdfrwt>
<totfact> 0.16622920E+04</totfact>
</mgrwt>
</event>
<event>
 5    0  0.2193454E+000  0.2365804E+03  0.7546771E-02  0.1122092E+00
         21   -1    0    0  503  501  0.00000000000E+00  0.00000000000E+00  0.68378834619E+02  0.68378834619E+02  0.00000000000E+00 0.  1.
         21   -1    0    0  504  502 -0.00000000000E+00 -0.00000000000E+00 -0.14074670412E+04  0.14074670412E+04  0.00000000000E+00 0.  1.
         25    1    1    2    0    0 -0.33863443995E+01  0.21438318285E+03 -0.10565652474E+04  0.10853233336E+04  0.12500000000E+03 0.  0.
         21    1    1    2  503  502 -0.46759622418E+02 -0.17386246416E+03 -0.27050235735E+03  0.32494021614E+03  0.00000000000E+00 0.  1.
         21    1    1    2  504  501  0.50145966818E+02 -0.40520718690E+02 -0.12020601870E+02  0.65582326130E+02  0.00000000000E+00 0.  1.
<mgrwt>
<rscale>  4 0.23658038E+03</rscale>
<asrwt>0</asrwt>
<pdfrwt beam="1">  1       21 0.10519823E-01 0.23658038E+03</pdfrwt>
<pdfrwt beam="2">  1       21 0.21653335E+00 0.23658038E+03</pdfrwt>
<totfact> 0.75541749E+03</totfact>
</mgrwt>
</event>
<event>
 5    0  0.2193454E+000  0.3796563E+03  0.7546771E-02  0.1051061E+00
         21   -1    0    0  502  501  0.00000000000E+00  0.00000000000E+00  0.53519978896E+03  0.53519978896E+03  0.00000000000E+00 0. -1.
         21   -1    0    0  503  502 -0.00000000000E+00 -0.00000000000E+00 -0.51184150774E+03  0.51184150774E+03  0.00000000000E+00 0. -1.
         25    1    1    2    0    0  0.24140274087E+03 -0.33926625233E+03 -0.26533264575E+03  0.50931648920E+03  0.12500000000E+03 0.  0.
         21    1    1    2  503  504 -0.70529460641E+01  0.83408497783E+02 -0.39923809670E+01  0.83801316555E+02  0.00000000000E+00 0.  1.
         21    1    1    2  504  501 -0.23434979481E+03  0.25585775455E+03  0.29268330793E+03  0.45392349094E+03  0.00000000000E+00 0. -1.
<mgrwt>
<rscale>  4 0.37965631E+03</rscale>
<asrwt>0</asrwt>
<pdfrwt beam="1">  1       21 0.82338430E-01 0.37965631E+03</pdfrwt>
<pdfrwt beam="2">  1       21 0.78744847E-01 0.37965631E+03</pdfrwt>
<totfact> 0.16253371E+03</totfact>
</mgrwt>
</event>
<event>
 5    0  0.2193454E+000  0.2296352E+03  0.7546771E-02  0.1126897E+00
         21   -1    0    0  503  501  0.00000000000E+00  0.00000000000E+00  0.78976437331E+02  0.78976437331E+02  0.00000000000E+00 0.  1.
         21   -1    0    0  501  502 -0.00000000000E+00 -0.00000000000E+00 -0.18604501733E+04  0.18604501733E+04  0.00000000000E+00 0.  1.
         25    1    1    2    0    0  0.12768733545E+03 -0.15464520521E+03 -0.49353278859E+03  0.54719174751E+03  0.12500000000E+03 0.  0.
         21    1    1    2  503  504 -0.23625293159E+02 -0.53766939233E+01  0.42095705614E+02  0.48570688131E+02  0.00000000000E+00 0.  1.
         21    1    1    2  504  502 -0.10406204230E+03  0.16002189913E+03 -0.13300366530E+04  0.13436641750E+04  0.00000000000E+00 0.  1.
<mgrwt>
<rscale>  4 0.22963520E+03</rscale>
<asrwt>0</asrwt>
<pdfrwt beam="1">  1       21 0.12150221E-01 0.22963520E+03</pdfrwt>
<pdfrwt beam="2">  1       21 0.28622311E+00 0.22963520E+03</pdfrwt>
<totfact> 0.22549618E+03</totfact>
</mgrwt>
</event>
<event>
 5    0  0.2193454E+000  0.3278149E+03  0.7546771E-02  0.1072108E+00
         21   -1    0    0  503  501  0.00000000000E+00  0.00000000000E+00  0.37525397653E+03  0.37525397653E+03  0.00000000000E+00 0.  1.
         21   -1    0    0  501  502 -0.00000000000E+00 -0.00000000000E+00 -0.45867222055E+03  0.45867222055E+03  0.00000000000E+00 0. -1.
         25    1    1    2    0    0 -0.35930197757E+02 -0.30223137355E+03 -0.17866032034E+03  0.37440525147E+03  0.12500000000E+03 0.  0.
         21    1    1    2  503  504 -0.34391330602E+02  0.30264377214E+03  0.17651925654E+03  0.35204412276E+03  0.00000000000E+00 0.  1.
         21    1    1    2  504  502  0.70321528359E+02 -0.41239859472E+00 -0.81277180223E+02  0.10747682284E+03  0.00000000000E+00 0.  1.
<mgrwt>
<rscale>  4 0.32781494E+03</rscale>
<asrwt>0</asrwt>
<pdfrwt beam="1">  1       21 0.57731381E-01 0.32781494E+03</pdfrwt>
<pdfrwt beam="2">  1       21 0.70564957E-01 0.32781494E+03</pdfrwt>
<totfact> 0.47190865E+03</totfact>
</mgrwt>
</event>
<event>
 5    0  0.2193454E+000  0.2782794E+03  0.7546771E-02  0.1096632E+00
         21   -1    0    0  502  501  0.00000000000E+00  0.00000000000E+00  0.21952077605E+03  0.21952077605E+03  0.00000000000E+00 0. -1.
         21   -1    0    0  503  502 -0.00000000000E+00 -0.00000000000E+00 -0.74382422267E+03  0.74382422267E+03  0.00000000000E+00 0. -1.
         25    1    1    2    0    0  0.24742804654E+03  0.35511723790E+02 -0.60017728984E+03  0.66205702170E+03  0.12500000000E+03 0.  0.
         21    1    1    2  503  504 -0.15217260089E+02  0.41304404268E+02 -0.34668888668E+01  0.44154706827E+02  0.00000000000E+00 0. -1.
         21    1    1    2  504  501 -0.23221078645E+03 -0.76816128058E+02  0.79340732088E+02  0.25713327020E+03  0.00000000000E+00 0. -1.
<mgrwt>
<rscale>  4 0.27827939E+03</rscale>
<asrwt>0</asrwt>
<pdfrwt beam="1">  1       21 0.33772428E-01 0.27827939E+03</pdfrwt>
<pdfrwt beam="2">  1       21 0.11443449E+00 0.27827939E+03</pdfrwt>
<totfact> 0.47250146E+03</totfact>
</mgrwt>
</event>
<event>
 5    0  0.2193454E+000  0.3198662E+03  0.7546771E-02  0.1075711E+00
         21   -1    0    0  502  501  0.00000000000E+00  0.00000000000E+00  0.46419737070E+03  0.46419737070E+03  0.00000000000E+00 0.  1.
         21   -1    0    0  504  502 -0.00000000000E+00 -0.00000000000E+00 -0.31922622637E+03  0.31922622637E+03  0.00000000000E+00 0.  1.
         25    1    1    2    0    0  0.11716100176E+03  0.26279749395E+03  0.53655309044E+02  0.31826579356E+03  0.12500000000E+03 0.  0.
         21    1    1    2  503  501  0.92385175569E+01 -0.31534859176E+03  0.36060905646E+02  0.31753814487E+03  0.00000000000E+00 0.  1.
         21    1    1    2  504  503 -0.12639951932E+03  0.52551097811E+02  0.55254929641E+02  0.14761965863E+03  0.00000000000E+00 0.  1.
<mgrwt>
<rscale>  4 0.31986624E+03</rscale>
<asrwt>0</asrwt>
<pdfrwt beam="1">  1       21 0.71414980E-01 0.31986624E+03</pdfrwt>
<pdfrwt beam="2">  1       21 0.49111727E-01 0.31986624E+03</pdfrwt>
<totfact> 0.65094385E+03</totfact>
</mgrwt>
</event>
<event>
 5    0  0.2193454E+000  0.3473392E+03  0.7546771E-02  0.1063712E+00
         21   -1    0    0  503  501  0.00000000000E+00  0.00000000000E+00  0.47136317280E+03  0.47136317280E+03  0.00000000000E+00 0.  1.
         21   -1    0    0  501  502 -0.00000000000E+00 -0.00000000000E+00 -0.51526329080E+03  0.51526329080E+03  0.00000000000E+00 0. -1.
         25    1    1    2    0    0  0.18264813346E+03  0.25664423551E+03  0.29596734425E+03  0.44994252204E+03  0.12500000000E+03 0.  0.
         21    1    1    2  503  504 -0.30484872800E+02  0.31651749573E+02  0.22411253198E+02  0.49329757658E+02  0.00000000000E+00 0.  1.
         21    1    1    2  504  502 -0.15216326066E+03 -0.28829598508E+03 -0.36227871544E+03  0.48735418391E+03  0.00000000000E+00 0. -1.
<mgrwt>
<rscale>  4 0.34733923E+03</rscale>
<asrwt>0</asrwt>
<pdfrwt beam="1">  1       21 0.72517411E-01 0.34733923E+03</pdfrwt>
<pdfrwt beam="2">  1       21 0.79271275E-01 0.34733923E+03</pdfrwt>
<totfact> 0.21722145E+03</totfact>
</mgrwt>
</event>
<event>
 5    0  0.2193454E+000  0.2619665E+03  0.7546771E-02  0.1105967E+00
         21   -1    0    0  503  501  0.00000000000E+00  0.00000000000E+00  0.60222320177E+03  0.60222320177E+03  0.00000000000E+00 0.  1.
         21   -1    0    0  504  502 -0.00000000000E+00 -0.00000000000E+00 -0.12596638098E+04  0.12596638098E+04  0.00000000000E+00 0. -1.
         25    1    1    2    0    0 -0.10641054543E+03  0.20179663625E+03 -0.11754420791E+04  0.12038829544E+04  0.12500000000E+03 0.  0.
         21    1    1    2  503  502  0.12714063367E+03 -0.23681407966E+03  0.19406612091E+03  0.33152271165E+03  0.00000000000E+00 0.  1.
         21    1    1    2  504  501 -0.20730088241E+02  0.35017443407E+02  0.32393535015E+03  0.32648134552E+03  0.00000000000E+00 0.  1.
<mgrwt>
<rscale>  4 0.26196647E+03</rscale>
<asrwt>0</asrwt>
<pdfrwt beam="1">  1       21 0.92649723E-01 0.26196647E+03</pdfrwt>
<pdfrwt beam="2">  1       21 0.19379443E+00 0.26196647E+03</pdfrwt>
<totfact> 0.13317714E+02</totfact>
</mgrwt>
</event>
<event>
 5    0  0.2193454E+000  0.2481049E+03  0.7546771E-02  0.1114508E+00
         21   -1    0    0  502  501  0.00000000000E+00  0.00000000000E+00  0.23687884460E+03  0.23687884460E+03  0.00000000000E+00 0. -1.
         21   -1    0    0  503  502 -0.00000000000E+00 -0.00000000000E+00 -0.16110288613E+04  0.16110288613E+04  0.00000000000E+00 0. -1.
         25    1    1    2    0    0  0.21242557081E+03  0.23539072118E+02 -0.14830603466E+04  0.15035862804E+04  0.12500000000E+03 0.  0.
         21    1    1    2  503  504  0.19322892711E+02 -0.72576863347E+02 -0.15605602576E+02  0.76709256989E+02  0.00000000000E+00 0.  1.
         21    1    1    2  504  501 -0.23174846352E+03  0.49037791228E+02  0.12451593243E+03  0.26761216852E+03  0.00000000000E+00 0. -1.
<mgrwt>
<rscale>  4 0.24810493E+03</rscale>
<asrwt>0</asrwt>
<pdfrwt beam="1">  1       21 0.36442899E-01 0.24810493E+03</pdfrwt>
<pdfrwt beam="2">  1       21 0.24785059E+00 0.24810493E+03</pdfrwt>
<totfact> 0.46578302E+02</totfact>
</mgrwt>
</event>
<event>
 5    0  0.2193454E+000  0.2992447E+03  0.7546771E-02  0.1085619E+00
         21   -1    0    0  503  501  0.00000000000E+00  0.00000000000E+00  0.11613562572E+04  0.11613562572E+04  0.00000000000E+00 0. -1.
         21   -1    0    0  504  502 -0.00000000000E+00 -0.00000000000E+00 -0.99706294507E+02  0.99706294507E+02  0.00000000000E+00 0. -1.
         25    1    1    2    0    0  0.20353273142E+03 -0.20184836200E+03  0.44499179131E+03  0.54388512421E+03  0.12500000000E+03 0.  0.
         21    1    1    2  503  502 -0.16189852641E+03  0.20632953095E+03  0.30301253415E+03  0.40074880418E+03  0.00000000000E+00 0. -1.
         21    1    1    2  504  501 -0.41634205009E+02 -0.44811689490E+01  0.31364563722E+03  0.31642862331E+03  0.00000000000E+00 0.  1.
<mgrwt>
<rscale>  4 0.29924471E+03</rscale>
<asrwt>0</asrwt>
<pdfrwt beam="1">  1       21 0.17867018E+00 0.29924471E+03</pdfrwt>
<pdfrwt beam="2">  1       21 0.15339431E-01 0.29924471E+03</pdfrwt>
<totfact> 0.64988465E+03</totfact>
</mgrwt>
</event>
<event>
 5    0  0.2193454E+000  0.3895163E+03  0.7546771E-02  0.1047471E+00
         21   -1    0    0  503  501  0.00000000000E+00  0.00000000000E+00  0.14051645909E+03  0.14051645909E+03  0.00000000000E+00 0.  1.
         21   -1    0    0  504  502 -0.00000000000E+00 -0.00000000000E+00 -0.15651867023E+04  0.15651867023E+04  0.00000000000E+00 0. -1.
         25    1    1    2    0    0  0.36004282783E+03 -0.82892088910E+01 -0.52155885036E+03  0.64602490915E+03  0.12500000000E+03 0.  0.
         21    1    1    2  503  502 -0.37397223369E+03 -0.11989981956E+02 -0.94204041866E+03  0.10136267270E+04  0.00000000000E+00 0. -1.
         21    1    1    2  504  501  0.13929405862E+02  0.20279190847E+02  0.38929025813E+02  0.46051525271E+02  0.00000000000E+00 0.  1.
<mgrwt>
<rscale>  4 0.38951631E+03</rscale>
<asrwt>0</asrwt>
<pdfrwt beam="1">  1       21 0.21617917E-01 0.38951631E+03</pdfrwt>
<pdfrwt beam="2">  1       21 0.24079795E+00 0.38951631E+03</pdfrwt>
<totfact> 0.12834780E+03</totfact>
</mgrwt>
</event>
<event>
 5    0  0.2193454E+000  0.2943599E+03  0.7546771E-02  0.1088095E+00
         21   -1    0    0  503  501  0.00000000000E+00  0.00000000000E+00  0.10160416349E+04  0.10160416349E+04  0.00000000000E+00 0.  1.
         21   -1    0    0  501  502 -0.00000000000E+00 -0.00000000000E+00 -0.12334262344E+03  0.12334262344E+03  0.00000000000E+00 0.  1.
         25    1    1    2    0    0  0.20405417484E+03  0.17856891529E+03  0.12869505120E+03  0.32513440295E+03  0.12500000000E+03 0.  0.
         21    1    1    2  503  504 -0.19540459815E+02 -0.52894774765E+01  0.13029743069E+03  0.13186064078E+03  0.00000000000E+00 0.  1.
         21    1    1    2  504  502 -0.18451371503E+03 -0.17327943781E+03  0.63370652953E+03  0.68238921457E+03  0.00000000000E+00 0.  1.
<mgrwt>
<rscale>  4 0.29435988E+03</rscale>
<asrwt>0</asrwt>
<pdfrwt beam="1">  1       21 0.15631409E+00 0.29435988E+03</pdfrwt>
<pdfrwt beam="2">  1       21 0.18975789E-01 0.29435988E+03</pdfrwt>
<totfact> 0.63698946E+03</totfact>
</mgrwt>
</event>
<event>
 5    0  0.2193454E+000  0.2407484E+03  0.7546771E-02  0.1119295E+00
         21   -1    0    0  502  501  0.00000000000E+00  0.00000000000E+00  0.18546584936E+04  0.18546584936E+04  0.00000000000E+00 0.  1.
         21   -1    0    0  503  502 -0.00000000000E+00 -0.00000000000E+00 -0.32438739173E+02  0.32438739173E+02  0.00000000000E+00 0.  1.
         25    1    1    2    0    0 -0.19721256205E+03  0.62670091660E+02  0.85178345280E+03  0.88542666861E+03  0.12500000000E+03 0.  0.
         21    1    1    2  503  504 -0.82115179817E+01 -0.40311146038E+02  0.18368834056E+03  0.18823874197E+03  0.00000000000E+00 0.  1.
         21    1    1    2  504  501  0.20542408003E+03 -0.22358945622E+02  0.78674796107E+03  0.81343182219E+03  0.00000000000E+00 0.  1.
<mgrwt>
<rscale>  4 0.24074836E+03</rscale>
<asrwt>0</asrwt>
<pdfrwt beam="1">  1       21 0.28533199E+00 0.24074836E+03</pdfrwt>
<pdfrwt beam="2">  1       21 0.49905767E-02 0.24074836E+03</pdfrwt>
<totfact> 0.10694841E+04</totfact>
</mgrwt>
</event>
<event>
 5    0  0.2193454E+000  0.2498332E+03  0.7546771E-02  0.1113410E+00
         21   -1    0    0  503  501  0.00000000000E+00  0.00000000000E+00  0.97938721845E+02  0.97938721845E+02  0.00000000000E+00 0.  1.
         21   -1    0    0  501  502 -0.00000000000E+00 -0.00000000000E+00 -0.76341648910E+03  0.76341648910E+03  0.00000000000E+00 0.  1.
         25    1    1    2    0    0 -0.28731002556E+02  0.21439724585E+03 -0.55410809456E+03  0.60782598661E+03  0.12500000000E+03 0.  0.
         21    1    1    2  503  504  0.36776526351E+02 -0.45657228422E+02 -0.33385394486E+02  0.67466139378E+02  0.00000000000E+00 0. -1.
         21    1    1    2  504  502 -0.80455237953E+01 -0.16874001743E+03 -0.77984278204E+02  0.18606308495E+03  0.00000000000E+00 0.  1.
<mgrwt>
<rscale>  4 0.24983324E+03</rscale>
<asrwt>0</asrwt>
<pdfrwt beam="1">  1       21 0.15067496E-01 0.24983324E+03</pdfrwt>
<pdfrwt beam="2">  1       21 0.11744869E+00 0.24983324E+03</pdfrwt>
<totfact> 0.20969049E+04</totfact>
</mgrwt>
</event>
<event>
 5    0  0.2193454E+000  0.2442385E+03  0.7546771E-02  0.1117001E+00
         21   -1    0    0  503  501  0.00000000000E+00  0.00000000000E+00  0.14053333181E+03  0.14053333181E+03  0.00000000000E+00 0. -1.
         21   -1    0    0  501  502 -0.00000000000E+00 -0.00000000000E+00 -0.43223667127E+03  0.43223667127E+03  0.00000000000E+00 0. -1.
         25    1    1    2    0    0 -0.17123064722E+02  0.21811074980E+03 -0.20119856770E+03  0.32244590580E+03  0.12500000000E+03 0.  0.
         21    1    1    2  503  504  0.22307353826E+02 -0.17206593882E+02  0.36187085728E+01  0.28403872262E+02  0.00000000000E+00 0.  1.
         21    1    1    2  504  502 -0.51842891041E+01 -0.20090415592E+03 -0.94123480337E+02  0.22192022501E+03  0.00000000000E+00 0. -1.
<mgrwt>
<rscale>  4 0.24423851E+03</rscale>
<asrwt>0</asrwt>
<pdfrwt beam="1">  1       21 0.21620513E-01 0.24423851E+03</pdfrwt>
<pdfrwt beam="2">  1       21 0.66497949E-01 0.24423851E+03</pdfrwt>
<totfact> 0.40357367E+04</totfact>
</mgrwt>
</event>
<event>
 5    0  0.2193454E+000  0.3203630E+03  0.7546771E-02  0.1075482E+00
         21   -1    0    0  503  501  0.00000000000E+00  0.00000000000E+00  0.57467214295E+03  0.57467214295E+03  0.00000000000E+00 0.  1.
         21   -1    0    0  504  502 -0.00000000000E+00 -0.00000000000E+00 -0.23530276723E+03  0.23530276723E+03  0.00000000000E+00 0.  1.
         25    1    1    2    0    0 -0.14620613763E+03 -0.24336117092E+03  0.11845259151E+02  0.31042906493E+03  0.12500000000E+03 0.  0.
         21    1    1    2  503  502  0.20137849219E+03  0.25051177923E+03  0.28395053658E+03  0.42887918564E+03  0.00000000000E+00 0.  1.
         21    1    1    2  504  501 -0.55172354560E+02 -0.71506083175E+01  0.43573579996E+02  0.70666659612E+02  0.00000000000E+00 0.  1.
<mgrwt>
<rscale>  4 0.32036302E+03</rscale>
<asrwt>0</asrwt>
<pdfrwt beam="1">  1       21 0.88411099E-01 0.32036302E+03</pdfrwt>
<pdfrwt beam="2">  1       21 0.36200426E-01 0.32036302E+03</pdfrwt>
<totfact> 0.74846075E+03</totfact>
</mgrwt>
</event>
<event>
 5    0  0.2193454E+000  0.3045638E+03  0.7546771E-02  0.1082981E+00
         21   -1    0    0  503  501  0.00000000000E+00  0.00000000000E+00  0.10209853038E+04  0.10209853038E+04  0.00000000000E+00 0. -1.
         21   -1    0    0  501  502 -0.00000000000E+00 -0.00000000000E+00 -0.11013404222E+03  0.11013404222E+03  0.00000000000E+00 0. -1.
         25    1    1    2    0    0  0.46302874400E+01 -0.26876423655E+03  0.55232462831E+03  0.62685177630E+03  0.12500000000E+03 0.  0.
         21    1    1    2  503  504 -0.44134139955E+02 -0.11697950875E+02  0.13785519609E+03  0.14521955603E+03  0.00000000000E+00 0. -1.
         21    1    1    2  504  502  0.39503852515E+02  0.28046218742E+03  0.22067143712E+03  0.35904801364E+03  0.00000000000E+00 0. -1.
<mgrwt>
<rscale>  4 0.30456380E+03</rscale>
<asrwt>0</asrwt>
<pdfrwt beam="1">  1       21 0.15707466E+00 0.30456380E+03</pdfrwt>
<pdfrwt beam="2">  1       21 0.16943700E-01 0.30456380E+03</pdfrwt>
<totfact> 0.77251532E+03</totfact>
</mgrwt>
</event>
