<event>
 5    0  0.1911311E+001  0.3005499E+03  0.7546771E-02  0.1084966E+00
         21   -1    0    0  503  501  0.00000000000E+00  0.00000000000E+00  0.62464035816E+03  0.62464035816E+03  0.00000000000E+00 0.  1.
         21   -1    0    0  501  502 -0.00000000000E+00 -0.00000000000E+00 -0.20189438983E+03  0.20189438983E+03  0.00000000000E+00 0.  1.
         25    1    1    2    0    0  0.56619127455E+02  0.28999564729E+03  0.19672878254E+03  0.37633816565E+03  0.12500000000E+03 0.  0.
         21    1    1    2  503  504  0.32287624690E+02 -0.43969981167E+02 -0.47054587679E+02  0.72041544775E+02  0.00000000000E+00 0.  1.
         21    1    1    2  504  502 -0.88906752145E+02 -0.24602566613E+03  0.27307177347E+03  0.37815503756E+03  0.00000000000E+00 0.  1.
<mgrwt>
<rscale>  4 0.30054991E+03</rscale>
<asrwt>0</asrwt>
<pdfrwt beam="1">  1       21 0.96098516E-01 0.30054991E+03</pdfrwt>
<pdfrwt beam="2">  1       21 0.31060676E-01 0.30054991E+03</pdfrwt>
<totfact> 0.84249352E+03</totfact>
</mgrwt>
</event>
<event>
 5    0  0.1911311E+001  0.4062136E+03  0.7546771E-02  0.1041649E+00
         21   -1    0    0  504  501  0.00000000000E+00  0.00000000000E+00  0.91636280301E+03  0.91636280301E+03  0.00000000000E+00 0. -1.
         21   -1    0    0  503  502 -0.00000000000E+00 -0.00000000000E+00 -0.31051100980E+03  0.31051100980E+03  0.00000000000E+00 0. -1.
         25    1    1    2    0    0  0.29819317541E+03  0.17739246774E+03 -0.65231822967E+02  0.37452296085E+03  0.12500000000E+03 0.  0.
         21    1    1    2  503  501  0.81977576599E+02 -0.56649224165E+02  0.43491669148E+02  0.10872434386E+03  0.00000000000E+00 0. -1.
         21    1    1    2  504  502 -0.38017075201E+03 -0.12074324358E+03  0.62759194704E+03  0.74362650810E+03  0.00000000000E+00 0. -1.
<mgrwt>
<rscale>  4 0.40621356E+03</rscale>
<asrwt>0</asrwt>
<pdfrwt beam="1">  1       21 0.14097889E+00 0.40621356E+03</pdfrwt>
<pdfrwt beam="2">  1       21 0.47770925E-01 0.40621356E+03</pdfrwt>
<totfact> 0.12752530E+03</totfact>
</mgrwt>
</event>
<event>
 5    0  0.1911311E+001  0.2739305E+03  0.7546771E-02  0.1099051E+00
         21   -1    0    0  504  501  0.00000000000E+00  0.00000000000E+00  0.14272785892E+04  0.14272785892E+04  0.00000000000E+00 0.  1.
         21   -1    0    0  503  502 -0.00000000000E+00 -0.00000000000E+00 -0.29785748711E+03  0.29785748711E+03  0.00000000000E+00 0.  1.
         25    1    1    2    0    0 -0.12036211511E+03 -0.18330773599E+03 -0.86627143980E+02  0.26686705848E+03  0.12500000000E+03 0.  0.
         21    1    1    2  503  501 -0.33819360686E+02 -0.75737039299E+01 -0.10709667923E+03  0.11256468740E+03  0.00000000000E+00 0.  1.
         21    1    1    2  504  502  0.15418147579E+03  0.19088143992E+03  0.13231449253E+04  0.13457043304E+04  0.00000000000E+00 0.  1.
<mgrwt>
<rscale>  4 0.27393048E+03</rscale>
<asrwt>0</asrwt>
<pdfrwt beam="1">  1       21 0.21958132E+00 0.27393048E+03</pdfrwt>
<pdfrwt beam="2">  1       21 0.45824230E-01 0.27393048E+03</pdfrwt>
<totfact> 0.42343279E+02</totfact>
</mgrwt>
</event>
<event>
 5    0  0.1911311E+001  0.2722679E+03  0.7546771E-02  0.1099989E+00
         21   -1    0    0  504  501  0.00000000000E+00  0.00000000000E+00  0.47742001912E+03  0.47742001912E+03  0.00000000000E+00 0.  1.
         21   -1    0    0  503  502 -0.00000000000E+00 -0.00000000000E+00 -0.23641519415E+03  0.23641519415E+03  0.00000000000E+00 0.  1.
         25    1    1    2    0    0  0.18096315729E+03 -0.11550827761E+03 -0.88555321406E+02  0.26373636731E+03  0.12500000000E+03 0.  0.
         21    1    1    2  503  501  0.37447186579E+02 -0.28219804248E+01  0.18457064795E+00  0.37553820345E+02  0.00000000000E+00 0.  1.
         21    1    1    2  504  502 -0.21841034387E+03  0.11833025804E+03  0.32937557573E+03  0.41254502562E+03  0.00000000000E+00 0.  1.
<mgrwt>
<rscale>  4 0.27226794E+03</rscale>
<asrwt>0</asrwt>
<pdfrwt beam="1">  1       21 0.73449234E-01 0.27226794E+03</pdfrwt>
<pdfrwt beam="2">  1       21 0.36371568E-01 0.27226794E+03</pdfrwt>
<totfact> 0.11593584E+04</totfact>
</mgrwt>
</event>
<event>
 5    0  0.1911311E+001  0.2019562E+03  0.7546771E-02  0.1148099E+00
         21   -1    0    0  502  501  0.00000000000E+00  0.00000000000E+00  0.32541200780E+03  0.32541200780E+03  0.00000000000E+00 0. -1.
         21   -1    0    0  504  502 -0.00000000000E+00 -0.00000000000E+00 -0.34739211167E+03  0.34739211167E+03  0.00000000000E+00 0. -1.
         25    1    1    2    0    0 -0.48220736521E+02  0.19764870763E+03  0.87824371815E+02  0.25441771036E+03  0.12500000000E+03 0.  0.
         21    1    1    2  503  501 -0.28677120039E+02 -0.64791437840E+02  0.12157549141E+03  0.14071569828E+03  0.00000000000E+00 0. -1.
         21    1    1    2  504  503  0.76897856560E+02 -0.13285726979E+03 -0.23137996709E+03  0.27767071083E+03  0.00000000000E+00 0. -1.
<mgrwt>
<rscale>  4 0.20195616E+03</rscale>
<asrwt>0</asrwt>
<pdfrwt beam="1">  1       21 0.50063386E-01 0.20195616E+03</pdfrwt>
<pdfrwt beam="2">  1       21 0.53444940E-01 0.20195616E+03</pdfrwt>
<totfact> 0.12516706E+04</totfact>
</mgrwt>
</event>
<event>
 5    0  0.1911311E+001  0.2313494E+03  0.7546771E-02  0.1125694E+00
         21   -1    0    0  503  501  0.00000000000E+00  0.00000000000E+00  0.81202016915E+03  0.81202016915E+03  0.00000000000E+00 0.  1.
         21   -1    0    0  504  502 -0.00000000000E+00 -0.00000000000E+00 -0.94925505111E+02  0.94925505111E+02  0.00000000000E+00 0.  1.
         25    1    1    2    0    0 -0.97552810593E+02 -0.17951283779E+03  0.12246354709E+03  0.26900507458E+03  0.12500000000E+03 0.  0.
         21    1    1    2  503  502 -0.11747816504E+02  0.48484175718E+02  0.67866396307E+02  0.84229295588E+02  0.00000000000E+00 0.  1.
         21    1    1    2  504  501  0.10930062710E+03  0.13102866207E+03  0.52676472064E+03  0.55371130409E+03  0.00000000000E+00 0.  1.
<mgrwt>
<rscale>  4 0.23134942E+03</rscale>
<asrwt>0</asrwt>
<pdfrwt beam="1">  1       21 0.12492618E+00 0.23134942E+03</pdfrwt>
<pdfrwt beam="2">  1       21 0.14603924E-01 0.23134942E+03</pdfrwt>
<totfact> 0.19213437E+04</totfact>
</mgrwt>
</event>
<event>
 5    0  0.1911311E+001  0.2313822E+03  0.7546771E-02  0.1125671E+00
         21   -1    0    0  504  501  0.00000000000E+00  0.00000000000E+00  0.40487308611E+03  0.40487308611E+03  0.00000000000E+00 0. -1.
         21   -1    0    0  503  502 -0.00000000000E+00 -0.00000000000E+00 -0.18230071833E+03  0.18230071833E+03  0.00000000000E+00 0. -1.
         25    1    1    2    0    0  0.10811325037E+03 -0.19236530404E+03  0.20730539843E+03  0.32755673298E+03  0.12500000000E+03 0.  0.
         21    1    1    2  503  501  0.91152255698E+01  0.68033678669E+02 -0.40702509681E+02  0.79802024189E+02  0.00000000000E+00 0. -1.
         21    1    1    2  504  502 -0.11722847594E+03  0.12433162537E+03  0.55969479032E+02  0.17981504726E+03  0.00000000000E+00 0. -1.
<mgrwt>
<rscale>  4 0.23138220E+03</rscale>
<asrwt>0</asrwt>
<pdfrwt beam="1">  1       21 0.62288167E-01 0.23138220E+03</pdfrwt>
<pdfrwt beam="2">  1       21 0.28046264E-01 0.23138220E+03</pdfrwt>
<totfact> 0.28441863E+04</totfact>
</mgrwt>
</event>
<event>
 5    0  0.1911311E+001  0.2500538E+03  0.7546771E-02  0.1113271E+00
         21   -1    0    0  504  501  0.00000000000E+00  0.00000000000E+00  0.52963433002E+03  0.52963433002E+03  0.00000000000E+00 0.  1.
         21   -1    0    0  503  502 -0.00000000000E+00 -0.00000000000E+00 -0.39871803471E+03  0.39871803471E+03  0.00000000000E+00 0.  1.
         25    1    1    2    0    0 -0.86106937407E+02  0.18240114745E+03 -0.22178907712E+03  0.32480760150E+03  0.12500000000E+03 0.  0.
         21    1    1    2  503  501  0.34155353811E+02  0.29608712587E+02 -0.95141714828E+02  0.10533380253E+03  0.00000000000E+00 0. -1.
         21    1    1    2  504  502  0.51951583596E+02 -0.21200986004E+03  0.44784708727E+03  0.49821096070E+03  0.00000000000E+00 0.  1.
<mgrwt>
<rscale>  4 0.25005378E+03</rscale>
<asrwt>0</asrwt>
<pdfrwt beam="1">  1       21 0.81482205E-01 0.25005378E+03</pdfrwt>
<pdfrwt beam="2">  1       21 0.61341236E-01 0.25005378E+03</pdfrwt>
<totfact> 0.31211101E+03</totfact>
</mgrwt>
</event>
<event>
 5    0  0.1911311E+001  0.3151952E+03  0.7546771E-02  0.1077882E+00
         21   -1    0    0  502  501  0.00000000000E+00  0.00000000000E+00  0.23170759677E+03  0.23170759677E+03  0.00000000000E+00 0.  1.
         21   -1    0    0  504  502 -0.00000000000E+00 -0.00000000000E+00 -0.53621796574E+03  0.53621796574E+03  0.00000000000E+00 0.  1.
         25    1    1    2    0    0 -0.87738465204E+02  0.27192700204E+03  0.53237632872E+01  0.31192254675E+03  0.12500000000E+03 0.  0.
         21    1    1    2  503  501  0.63121088056E+02 -0.29112046362E+03 -0.25155876024E+03  0.38989383933E+03  0.00000000000E+00 0.  1.
         21    1    1    2  504  503  0.24617377148E+02  0.19193461579E+02 -0.58275372014E+02  0.66109176431E+02  0.00000000000E+00 0.  1.
<mgrwt>
<rscale>  4 0.31519519E+03</rscale>
<asrwt>0</asrwt>
<pdfrwt beam="1">  1       21 0.35647323E-01 0.31519519E+03</pdfrwt>
<pdfrwt beam="2">  1       21 0.82495071E-01 0.31519519E+03</pdfrwt>
<totfact> 0.90880077E+03</totfact>
</mgrwt>
</event>
