<event>
 5    0  0.2159162E+000  0.3485239E+03  0.7546771E-02  0.1063223E+00
         21   -1    0    0  502  501  0.00000000000E+00  0.00000000000E+00  0.16749387215E+04  0.16749387215E+04  0.00000000000E+00 0.  1.
         21   -1    0    0  503  502 -0.00000000000E+00 -0.00000000000E+00 -0.32013776260E+03  0.32013776260E+03  0.00000000000E+00 0.  1.
         25    1    1    2    0    0  0.11751009663E+03 -0.30337312280E+03  0.15625109516E+04  0.16009089131E+04  0.12500000000E+03 0.  0.
         21    1    1    2  503  504 -0.12528840418E+03  0.23804695803E+03 -0.16130773381E+03  0.31366179786E+03  0.00000000000E+00 0.  1.
         21    1    1    2  504  501  0.77783075547E+01  0.65326164769E+02 -0.46402258866E+02  0.80505773083E+02  0.00000000000E+00 0.  1.
<mgrwt>
<rscale>  4 0.34852385E+03</rscale>
<asrwt>0</asrwt>
<pdfrwt beam="1">  1       21 0.25768288E+00 0.34852385E+03</pdfrwt>
<pdfrwt beam="2">  1       21 0.49251964E-01 0.34852385E+03</pdfrwt>
<totfact> 0.20008496E+02</totfact>
</mgrwt>
</event>
<event>
 5    0  0.2159162E+000  0.2405598E+03  0.7546771E-02  0.1119420E+00
         21   -1    0    0  502  501  0.00000000000E+00  0.00000000000E+00  0.11387958549E+04  0.11387958549E+04  0.00000000000E+00 0.  1.
         21   -1    0    0  503  502 -0.00000000000E+00 -0.00000000000E+00 -0.69197926429E+02  0.69197926429E+02  0.00000000000E+00 0.  1.
         25    1    1    2    0    0  0.19922652477E+03  0.50525550451E+02  0.89033905455E+03  0.92226496815E+03  0.12500000000E+03 0.  0.
         21    1    1    2  503  504 -0.14326157826E+03 -0.25496791865E+02  0.72392085432E+02  0.16252562947E+03  0.00000000000E+00 0.  1.
         21    1    1    2  504  501 -0.55964946509E+02 -0.25028758586E+02  0.10686678851E+03  0.12320318372E+03  0.00000000000E+00 0.  1.
<mgrwt>
<rscale>  4 0.24055985E+03</rscale>
<asrwt>0</asrwt>
<pdfrwt beam="1">  1       21 0.17519935E+00 0.24055985E+03</pdfrwt>
<pdfrwt beam="2">  1       21 0.10645836E-01 0.24055985E+03</pdfrwt>
<totfact> 0.13788389E+04</totfact>
</mgrwt>
</event>
<event>
 5    0  0.2159162E+000  0.2403936E+03  0.7546771E-02  0.1119531E+00
         21   -1    0    0  502  501  0.00000000000E+00  0.00000000000E+00  0.57100873975E+03  0.57100873975E+03  0.00000000000E+00 0.  1.
         21   -1    0    0  503  502 -0.00000000000E+00 -0.00000000000E+00 -0.13802498688E+03  0.13802498688E+03  0.00000000000E+00 0. -1.
         25    1    1    2    0    0 -0.21113991530E+03  0.13362453264E+02  0.36750209923E+03  0.44208756138E+03  0.12500000000E+03 0.  0.
         21    1    1    2  503  504  0.25794091687E+02  0.52427979262E+02  0.34471802561E+02  0.67840499315E+02  0.00000000000E+00 0. -1.
         21    1    1    2  504  501  0.18534582361E+03 -0.65790432526E+02  0.31009851080E+02  0.19910566593E+03  0.00000000000E+00 0. -1.
<mgrwt>
<rscale>  4 0.24039360E+03</rscale>
<asrwt>0</asrwt>
<pdfrwt beam="1">  1       21 0.87847498E-01 0.24039360E+03</pdfrwt>
<pdfrwt beam="2">  1       21 0.21234614E-01 0.24039360E+03</pdfrwt>
<totfact> 0.22321728E+04</totfact>
</mgrwt>
</event>
<event>
 5    0  0.2159162E+000  0.3375027E+03  0.7546771E-02  0.1067865E+00
         21   -1    0    0  502  501  0.00000000000E+00  0.00000000000E+00  0.10541929471E+04  0.10541929471E+04  0.00000000000E+00 0. -1.
         21   -1    0    0  503  502 -0.00000000000E+00 -0.00000000000E+00 -0.26995048966E+03  0.26995048966E+03  0.00000000000E+00 0. -1.
         25    1    1    2    0    0  0.32584728035E+03 -0.10123652453E+03  0.77629698891E+03  0.85713901964E+03  0.12500000000E+03 0.  0.
         21    1    1    2  503  504 -0.25610708326E+03  0.17728033452E+03 -0.90534589796E+02  0.32436964570E+03  0.00000000000E+00 0. -1.
         21    1    1    2  504  501 -0.69740197087E+02 -0.76043809995E+02  0.98480058335E+02  0.14263477142E+03  0.00000000000E+00 0. -1.
<mgrwt>
<rscale>  4 0.33750272E+03</rscale>
<asrwt>0</asrwt>
<pdfrwt beam="1">  1       21 0.16218353E+00 0.33750272E+03</pdfrwt>
<pdfrwt beam="2">  1       21 0.41530845E-01 0.33750272E+03</pdfrwt>
<totfact> 0.12101407E+03</totfact>
</mgrwt>
</event>
<event>
 5    0  0.2159162E+000  0.2514023E+03  0.7546771E-02  0.1112422E+00
         21   -1    0    0  502  501  0.00000000000E+00  0.00000000000E+00  0.49892370303E+03  0.49892370303E+03  0.00000000000E+00 0. -1.
         21   -1    0    0  503  502 -0.00000000000E+00 -0.00000000000E+00 -0.77028397986E+03  0.77028397986E+03  0.00000000000E+00 0. -1.
         25    1    1    2    0    0 -0.32975200573E+02 -0.21561712352E+03  0.44941419622E+03  0.51495264596E+03  0.12500000000E+03 0.  0.
         21    1    1    2  503  504  0.39885319700E+02  0.17281413878E+03 -0.61125942191E+03  0.63646967419E+03  0.00000000000E+00 0. -1.
         21    1    1    2  504  501 -0.69101191269E+01  0.42802984749E+02 -0.10951505114E+03  0.11778536274E+03  0.00000000000E+00 0.  1.
<mgrwt>
<rscale>  4 0.25140228E+03</rscale>
<asrwt>0</asrwt>
<pdfrwt beam="1">  1       21 0.76757493E-01 0.25140228E+03</pdfrwt>
<pdfrwt beam="2">  1       21 0.11850523E+00 0.25140228E+03</pdfrwt>
<totfact> 0.77850797E+02</totfact>
</mgrwt>
</event>
<event>
 5    0  0.2159162E+000  0.2648361E+03  0.7546771E-02  0.1104272E+00
         21   -1    0    0  502  501  0.00000000000E+00  0.00000000000E+00  0.13171765628E+04  0.13171765628E+04  0.00000000000E+00 0. -1.
         21   -1    0    0  503  502 -0.00000000000E+00 -0.00000000000E+00 -0.31946235170E+03  0.31946235170E+03  0.00000000000E+00 0. -1.
         25    1    1    2    0    0  0.13970974746E+03 -0.18706782040E+03 -0.25145137620E+03  0.36519306888E+03  0.12500000000E+03 0.  0.
         21    1    1    2  503  504 -0.10375894163E+03  0.16335348624E+03  0.10487066818E+04  0.10664126706E+04  0.00000000000E+00 0. -1.
         21    1    1    2  504  501 -0.35950805825E+02  0.23714334162E+02  0.20045890547E+03  0.20503317504E+03  0.00000000000E+00 0.  1.
<mgrwt>
<rscale>  4 0.26483614E+03</rscale>
<asrwt>0</asrwt>
<pdfrwt beam="1">  1       21 0.20264255E+00 0.26483614E+03</pdfrwt>
<pdfrwt beam="2">  1       21 0.49148055E-01 0.26483614E+03</pdfrwt>
<totfact> 0.47271001E+02</totfact>
</mgrwt>
</event>
<event>
 5    0  0.2159162E+000  0.2377796E+03  0.7546771E-02  0.1121281E+00
         21   -1    0    0  502  501  0.00000000000E+00  0.00000000000E+00  0.20453868472E+04  0.20453868472E+04  0.00000000000E+00 0.  1.
         21   -1    0    0  503  502 -0.00000000000E+00 -0.00000000000E+00 -0.55945598999E+02  0.55945598999E+02  0.00000000000E+00 0.  1.
         25    1    1    2    0    0  0.19516824539E+03  0.13456821883E+03  0.16041528263E+04  0.16263857291E+04  0.12500000000E+03 0.  0.
         21    1    1    2  503  504 -0.46299107313E+02 -0.11213395940E+03  0.12457092804E+03  0.17388372063E+03  0.00000000000E+00 0.  1.
         21    1    1    2  504  501 -0.14886913807E+03 -0.22434259431E+02  0.26071749383E+03  0.30106299649E+03  0.00000000000E+00 0.  1.
<mgrwt>
<rscale>  4 0.23777957E+03</rscale>
<asrwt>0</asrwt>
<pdfrwt beam="1">  1       21 0.31467484E+00 0.23777957E+03</pdfrwt>
<pdfrwt beam="2">  1       21 0.86070168E-02 0.23777957E+03</pdfrwt>
<totfact> 0.28180780E+03</totfact>
</mgrwt>
</event>
<event>
 5    0  0.2788901E+000  0.2595277E+03  0.7546771E-02  0.1107427E+00
         21   -1    0    0  502  501  0.00000000000E+00  0.00000000000E+00  0.87534827568E+02  0.87534827568E+02  0.00000000000E+00 0. -1.
         21   -1    0    0  503  502 -0.00000000000E+00 -0.00000000000E+00 -0.98723142697E+03  0.98723142697E+03  0.00000000000E+00 0. -1.
         25    1    1    2    0    0 -0.21070933319E+03 -0.10241165816E+03 -0.20456368219E+03  0.33519825610E+03  0.12500000000E+03 0.  0.
         21    1    1    2  503  504  0.17633539789E+03  0.11971335385E+03 -0.60935653091E+03  0.64555467731E+03  0.00000000000E+00 0. -1.
         21    1    1    2  504  501  0.34373935296E+02 -0.17301695692E+02 -0.85776386314E+02  0.94013321134E+02  0.00000000000E+00 0. -1.
<mgrwt>
<rscale>  4 0.25952770E+03</rscale>
<asrwt>0</asrwt>
<pdfrwt beam="1">  1       21 0.13466897E-01 0.25952770E+03</pdfrwt>
<pdfrwt beam="2">  1       21 0.15188175E+00 0.25952770E+03</pdfrwt>
<totfact> 0.13215077E+04</totfact>
</mgrwt>
</event>
