<event>
 5    0  0.1547541E+000  0.2168135E+03  0.7546771E-02  0.1136281E+00
          2   -1    0    0  503    0 -0.00000000000E+00  0.00000000000E+00  0.24758724835E+04  0.24758724835E+04  0.00000000000E+00 0. -1.
         21   -1    0    0  501  502  0.00000000000E+00 -0.00000000000E+00 -0.32956888385E+02  0.32956888385E+02  0.00000000000E+00 0. -1.
         25    1    1    2    0    0 -0.15442739090E+03  0.14152931957E+03  0.90050316249E+03  0.93295729432E+03  0.12500000000E+03 0.  0.
         21    1    1    2  503  502 -0.14061927899E+02 -0.11583596422E+03  0.10130627780E+04  0.10197607075E+04  0.00000000000E+00 0. -1.
          2    1    1    2  501    0  0.16848931880E+03 -0.25693355352E+02  0.52934965471E+03  0.55611137014E+03  0.00000000000E+00 0. -1.
<mgrwt>
<rscale>  4 0.21681348E+03</rscale>
<asrwt>0</asrwt>
<pdfrwt beam="1">  1       21 0.50702925E-02 0.21681348E+03</pdfrwt>
<pdfrwt beam="2">  1        2 0.38090331E+00 0.21681348E+03</pdfrwt>
<totfact> 0.14052307E+04</totfact>
</mgrwt>
</event>
<event>
 5    0  0.9662576E-001  0.4936244E+03  0.7546771E-02  0.1015457E+00
          2   -1    0    0  503    0 -0.00000000000E+00  0.00000000000E+00  0.22880977883E+04  0.22880977883E+04  0.00000000000E+00 0. -1.
         21   -1    0    0  501  502  0.00000000000E+00 -0.00000000000E+00 -0.21331475347E+03  0.21331475347E+03  0.00000000000E+00 0.  1.
         25    1    1    2    0    0 -0.23432109372E+03  0.41442386410E+03  0.16648062289E+03  0.51960976886E+03  0.12500000000E+03 0.  0.
         21    1    1    2  503  502  0.35418312767E+02  0.29679321900E+02  0.21840629867E+03  0.22324119316E+03  0.00000000000E+00 0. -1.
          2    1    1    2  501    0  0.19890278095E+03 -0.44410318600E+03  0.16898961132E+04  0.17585615797E+04  0.00000000000E+00 0. -1.
<mgrwt>
<rscale>  4 0.49362438E+03</rscale>
<asrwt>0</asrwt>
<pdfrwt beam="1">  1       21 0.32817656E-01 0.49362438E+03</pdfrwt>
<pdfrwt beam="2">  1        2 0.35201503E+00 0.49362438E+03</pdfrwt>
<totfact> 0.52651226E+02</totfact>
</mgrwt>
</event>
<event>
 5    0  0.9662576E-001  0.3746538E+03  0.7546771E-02  0.1052928E+00
         21   -1    0    0  503  502  0.00000000000E+00  0.00000000000E+00  0.12410597977E+04  0.12410597977E+04  0.00000000000E+00 0. -1.
         -2   -1    0    0    0  501 -0.00000000000E+00 -0.00000000000E+00 -0.36820501723E+03  0.36820501723E+03  0.00000000000E+00 0.  1.
         25    1    1    2    0    0 -0.23962060614E+03 -0.18666206813E+03  0.87956985683E+03  0.93889770243E+03  0.12500000000E+03 0.  0.
         21    1    1    2  503  501 -0.91976023072E+02  0.47498802637E+02  0.22146897522E+03  0.24446724128E+03  0.00000000000E+00 0. -1.
         -2    1    1    2    0  502  0.33159662921E+03  0.13916326550E+03 -0.22818405154E+03  0.42589987127E+03  0.00000000000E+00 0.  1.
<mgrwt>
<rscale>  4 0.37465384E+03</rscale>
<asrwt>0</asrwt>
<pdfrwt beam="1">  1       21 0.19093227E+00 0.37465384E+03</pdfrwt>
<pdfrwt beam="2">  1       -2 0.56646926E-01 0.37465384E+03</pdfrwt>
<totfact> 0.33165891E+01</totfact>
</mgrwt>
</event>
<event>
 5    0  0.9662576E-001  0.2655965E+03  0.7546771E-02  0.1103827E+00
          1   -1    0    0  503    0 -0.00000000000E+00  0.00000000000E+00  0.18826274130E+04  0.18826274130E+04  0.00000000000E+00 0.  1.
         21   -1    0    0  501  502  0.00000000000E+00 -0.00000000000E+00 -0.16164263963E+03  0.16164263963E+03  0.00000000000E+00 0.  1.
         25    1    1    2    0    0  0.15080182042E+03 -0.18212471747E+03 -0.34172490475E+02  0.26963560756E+03  0.12500000000E+03 0.  0.
         21    1    1    2  503  502 -0.39459465072E+02 -0.50517763041E-01  0.49017466061E+03  0.49176035814E+03  0.00000000000E+00 0.  1.
          1    1    1    2  501    0 -0.11134235535E+03  0.18217523523E+03  0.12649826032E+04  0.12828740869E+04  0.00000000000E+00 0.  1.
<mgrwt>
<rscale>  4 0.26559648E+03</rscale>
<asrwt>0</asrwt>
<pdfrwt beam="1">  1       21 0.24868100E-01 0.26559648E+03</pdfrwt>
<pdfrwt beam="2">  1        1 0.28963497E+00 0.26559648E+03</pdfrwt>
<totfact> 0.67283839E+02</totfact>
</mgrwt>
</event>
<event>
 5    0  0.9662576E-001  0.4251279E+03  0.7546771E-02  0.1035410E+00
         21   -1    0    0  501  502  0.00000000000E+00  0.00000000000E+00  0.25168993580E+03  0.25168993580E+03  0.00000000000E+00 0.  1.
          1   -1    0    0  503    0 -0.00000000000E+00 -0.00000000000E+00 -0.18394332365E+04  0.18394332365E+04  0.00000000000E+00 0. -1.
         25    1    1    2    0    0  0.11611569059E+03  0.39795480923E+03 -0.40042148536E+02  0.43483244756E+03  0.12500000000E+03 0.  0.
         21    1    1    2  503  502  0.36151912135E+01 -0.34149498279E+02 -0.92224528911E+03  0.92288440832E+03  0.00000000000E+00 0. -1.
          1    1    1    2  501    0 -0.11973088181E+03 -0.36380531095E+03 -0.62545586309E+03  0.73340631645E+03  0.00000000000E+00 0. -1.
<mgrwt>
<rscale>  4 0.42512789E+03</rscale>
<asrwt>0</asrwt>
<pdfrwt beam="1">  1       21 0.38721529E-01 0.42512789E+03</pdfrwt>
<pdfrwt beam="2">  1        1 0.28298973E+00 0.42512789E+03</pdfrwt>
<totfact> 0.27899027E+02</totfact>
</mgrwt>
</event>
<event>
 5    0  0.9662576E-001  0.2809665E+03  0.7546771E-02  0.1095162E+00
         21   -1    0    0  501  502  0.00000000000E+00  0.00000000000E+00  0.42256993706E+03  0.42256993706E+03  0.00000000000E+00 0. -1.
          2   -1    0    0  503    0 -0.00000000000E+00 -0.00000000000E+00 -0.83663483926E+03  0.83663483926E+03  0.00000000000E+00 0.  1.
         25    1    1    2    0    0  0.16894383883E+03  0.21002364607E+03  0.33711624721E+03  0.44935989665E+03  0.12500000000E+03 0.  0.
         21    1    1    2  503  502 -0.30474467735E+01 -0.22051627625E+02 -0.51986870165E+01  0.22860174090E+02  0.00000000000E+00 0.  1.
          2    1    1    2  501    0 -0.16589639206E+03 -0.18797201844E+03 -0.74598246239E+03  0.78698470558E+03  0.00000000000E+00 0.  1.
<mgrwt>
<rscale>  4 0.28096654E+03</rscale>
<asrwt>0</asrwt>
<pdfrwt beam="1">  1       21 0.65010760E-01 0.28096654E+03</pdfrwt>
<pdfrwt beam="2">  1        2 0.12871305E+00 0.28096654E+03</pdfrwt>
<totfact> 0.88362324E+02</totfact>
</mgrwt>
</event>
<event>
 5    0  0.9662576E-001  0.5474890E+03  0.7546771E-02  0.1002077E+00
          2   -1    0    0  503    0 -0.00000000000E+00  0.00000000000E+00  0.12011930386E+04  0.12011930386E+04  0.00000000000E+00 0. -1.
         21   -1    0    0  501  502  0.00000000000E+00 -0.00000000000E+00 -0.13342905411E+04  0.13342905411E+04  0.00000000000E+00 0. -1.
         25    1    1    2    0    0  0.49253965370E+03 -0.20996507512E+03 -0.11798681349E+04  0.13016890792E+04  0.12500000000E+03 0.  0.
         21    1    1    2  503  502 -0.23473483659E+02  0.20161187626E+02  0.45131822286E+03  0.45237773620E+03  0.00000000000E+00 0. -1.
          2    1    1    2  501    0 -0.46906617004E+03  0.18980388750E+03  0.59545240944E+03  0.78141676428E+03  0.00000000000E+00 0. -1.
<mgrwt>
<rscale>  4 0.54748901E+03</rscale>
<asrwt>0</asrwt>
<pdfrwt beam="1">  1       21 0.20527547E+00 0.54748901E+03</pdfrwt>
<pdfrwt beam="2">  1        2 0.18479893E+00 0.54748901E+03</pdfrwt>
<totfact> 0.24938172E+01</totfact>
</mgrwt>
</event>
<event>
 5    0  0.9662576E-001  0.2522414E+03  0.7546771E-02  0.1111896E+00
         21   -1    0    0  501  502  0.00000000000E+00  0.00000000000E+00  0.81966729492E+03  0.81966729492E+03  0.00000000000E+00 0. -1.
          2   -1    0    0  503    0 -0.00000000000E+00 -0.00000000000E+00 -0.13282848836E+03  0.13282848836E+03  0.00000000000E+00 0.  1.
         25    1    1    2    0    0 -0.15160902773E+03  0.23286019876E+03  0.33897101045E+03  0.45578011737E+03  0.12500000000E+03 0.  0.
         21    1    1    2  503  502 -0.24789139241E+02 -0.13648850155E+03  0.21463808452E+03  0.25556431638E+03  0.00000000000E+00 0.  1.
          2    1    1    2  501    0  0.17639816698E+03 -0.96371697214E+02  0.13322971158E+03  0.24115134954E+03  0.00000000000E+00 0.  1.
<mgrwt>
<rscale>  4 0.25224142E+03</rscale>
<asrwt>0</asrwt>
<pdfrwt beam="1">  1       21 0.12610266E+00 0.25224142E+03</pdfrwt>
<pdfrwt beam="2">  1        2 0.20435153E-01 0.25224142E+03</pdfrwt>
<totfact> 0.15071503E+03</totfact>
</mgrwt>
</event>
<event>
 5    0  0.9662576E-001  0.2480803E+03  0.7546771E-02  0.1114524E+00
          2   -1    0    0  503    0 -0.00000000000E+00  0.00000000000E+00  0.12321557754E+04  0.12321557754E+04  0.00000000000E+00 0. -1.
         21   -1    0    0  501  502  0.00000000000E+00 -0.00000000000E+00 -0.12816513832E+03  0.12816513832E+03  0.00000000000E+00 0.  1.
         25    1    1    2    0    0  0.12040421238E+03  0.17834819136E+03  0.40846048181E+02  0.25218773042E+03  0.12500000000E+03 0.  0.
         21    1    1    2  503  502 -0.63113259956E+02  0.34206362620E+02  0.47007653435E+03  0.47552634730E+03  0.00000000000E+00 0. -1.
          2    1    1    2  501    0 -0.57290952424E+02 -0.21255455398E+03  0.59306805456E+03  0.63260683603E+03  0.00000000000E+00 0. -1.
<mgrwt>
<rscale>  4 0.24808034E+03</rscale>
<asrwt>0</asrwt>
<pdfrwt beam="1">  1       21 0.19717714E-01 0.24808034E+03</pdfrwt>
<pdfrwt beam="2">  1        2 0.18956242E+00 0.24808034E+03</pdfrwt>
<totfact> 0.56894967E+03</totfact>
</mgrwt>
</event>
<event>
 5    0  0.9662576E-001  0.2412074E+03  0.7546771E-02  0.1118991E+00
         21   -1    0    0  501  502  0.00000000000E+00  0.00000000000E+00  0.33615532244E+03  0.33615532244E+03  0.00000000000E+00 0. -1.
          2   -1    0    0  503    0 -0.00000000000E+00 -0.00000000000E+00 -0.19398084185E+04  0.19398084185E+04  0.00000000000E+00 0.  1.
         25    1    1    2    0    0 -0.21707006991E+03 -0.96143511405E+02  0.23200911749E+03  0.35470582267E+03  0.12500000000E+03 0.  0.
         21    1    1    2  503  502  0.18259836571E+02  0.15298409531E+03 -0.12570781382E+03  0.19884669850E+03  0.00000000000E+00 0.  1.
          2    1    1    2  501    0  0.19881023334E+03 -0.56840583909E+02 -0.17099543998E+04  0.17224112198E+04  0.00000000000E+00 0.  1.
<mgrwt>
<rscale>  4 0.24120738E+03</rscale>
<asrwt>0</asrwt>
<pdfrwt beam="1">  1       21 0.51716204E-01 0.24120738E+03</pdfrwt>
<pdfrwt beam="2">  1        2 0.29843206E+00 0.24120738E+03</pdfrwt>
<totfact> 0.35445309E+02</totfact>
</mgrwt>
</event>
<event>
 5    0  0.4911126E+000  0.2674842E+03  0.7546771E-02  0.1102728E+00
          2   -1    0    0  503    0 -0.00000000000E+00  0.00000000000E+00  0.44238367845E+03  0.44238367845E+03  0.00000000000E+00 0. -1.
         21   -1    0    0  501  502  0.00000000000E+00 -0.00000000000E+00 -0.29166028344E+03  0.29166028344E+03  0.00000000000E+00 0.  1.
         25    1    1    2    0    0 -0.11091596778E+03  0.20752850285E+03 -0.16228939066E+03  0.31198281639E+03  0.12500000000E+03 0.  0.
         21    1    1    2  503  502 -0.34092697436E+02 -0.11481589991E+02  0.21122960240E+02  0.41717123300E+02  0.00000000000E+00 0. -1.
          2    1    1    2  501    0  0.14500866522E+03 -0.19604691286E+03  0.29188982543E+03  0.38034402219E+03  0.00000000000E+00 0. -1.
<mgrwt>
<rscale>  4 0.26748425E+03</rscale>
<asrwt>0</asrwt>
<pdfrwt beam="1">  1       21 0.44870813E-01 0.26748425E+03</pdfrwt>
<pdfrwt beam="2">  1        2 0.68059027E-01 0.26748425E+03</pdfrwt>
<totfact> 0.41561614E+03</totfact>
</mgrwt>
</event>
<event>
 5    0  0.1394258E+000  0.2596247E+03  0.7546771E-02  0.1107369E+00
         21   -1    0    0  501  502  0.00000000000E+00  0.00000000000E+00  0.16499864183E+03  0.16499864183E+03  0.00000000000E+00 0.  1.
          2   -1    0    0  503    0 -0.00000000000E+00 -0.00000000000E+00 -0.72053619515E+03  0.72053619515E+03  0.00000000000E+00 0. -1.
         25    1    1    2    0    0 -0.21180825430E+03 -0.68958575858E+02  0.34659200832E+01  0.25545064959E+03  0.12500000000E+03 0.  0.
         21    1    1    2  503  502 -0.33153870220E+02  0.25710646639E+02 -0.83289858574E+02  0.93259943183E+02  0.00000000000E+00 0.  1.
          2    1    1    2  501    0  0.24496212452E+03  0.43247929219E+02 -0.47571361483E+03  0.53682424421E+03  0.00000000000E+00 0. -1.
<mgrwt>
<rscale>  4 0.25962473E+03</rscale>
<asrwt>0</asrwt>
<pdfrwt beam="1">  1       21 0.25384407E-01 0.25962473E+03</pdfrwt>
<pdfrwt beam="2">  1        2 0.11085172E+00 0.25962473E+03</pdfrwt>
<totfact> 0.73747167E+03</totfact>
</mgrwt>
</event>
<event>
 5    0  0.9662576E-001  0.4528832E+03  0.7546771E-02  0.1026866E+00
         21   -1    0    0  501  502  0.00000000000E+00  0.00000000000E+00  0.14098926371E+03  0.14098926371E+03  0.00000000000E+00 0. -1.
          2   -1    0    0  503    0 -0.00000000000E+00 -0.00000000000E+00 -0.17096920104E+04  0.17096920104E+04  0.00000000000E+00 0. -1.
         25    1    1    2    0    0  0.36090363516E+03 -0.25409638091E+03 -0.52311087595E+03  0.69576317321E+03  0.12500000000E+03 0.  0.
         21    1    1    2  503  502 -0.33416170986E+02 -0.20839328770E+02 -0.23678539699E+03  0.24003800185E+03  0.00000000000E+00 0. -1.
          2    1    1    2  501    0 -0.32748746417E+03  0.27493570968E+03 -0.80880647378E+03  0.91488009907E+03  0.00000000000E+00 0. -1.
<mgrwt>
<rscale>  4 0.45288325E+03</rscale>
<asrwt>0</asrwt>
<pdfrwt beam="1">  1       21 0.21690658E-01 0.45288325E+03</pdfrwt>
<pdfrwt beam="2">  1        2 0.26302952E+00 0.45288325E+03</pdfrwt>
<totfact> 0.24609611E+03</totfact>
</mgrwt>
</event>
<event>
 5    0  0.9662576E-001  0.6316231E+03  0.7546771E-02  0.9841887E-01
         21   -1    0    0  501  502  0.00000000000E+00  0.00000000000E+00  0.50197349661E+03  0.50197349661E+03  0.00000000000E+00 0.  1.
          2   -1    0    0  503    0 -0.00000000000E+00 -0.00000000000E+00 -0.93708861471E+03  0.93708861471E+03  0.00000000000E+00 0. -1.
         25    1    1    2    0    0 -0.45871231292E+03  0.41632901187E+03  0.10042692002E+02  0.63203851766E+03  0.12500000000E+03 0.  0.
         21    1    1    2  503  502  0.15748733406E+02  0.15750216384E+02 -0.91757403051E+02  0.94421993914E+02  0.00000000000E+00 0.  1.
          2    1    1    2  501    0  0.44296357951E+03 -0.43207922826E+03 -0.35340040705E+03  0.71260159975E+03  0.00000000000E+00 0. -1.
<mgrwt>
<rscale>  4 0.63162310E+03</rscale>
<asrwt>0</asrwt>
<pdfrwt beam="1">  1       21 0.77226693E-01 0.63162310E+03</pdfrwt>
<pdfrwt beam="2">  1        2 0.14416748E+00 0.63162310E+03</pdfrwt>
<totfact> 0.46593769E+02</totfact>
</mgrwt>
</event>
<event>
 5    0  0.9662576E-001  0.2555572E+03  0.7546771E-02  0.1109842E+00
         21   -1    0    0  501  502  0.00000000000E+00  0.00000000000E+00  0.66638416557E+03  0.66638416557E+03  0.00000000000E+00 0. -1.
          2   -1    0    0  503    0 -0.00000000000E+00 -0.00000000000E+00 -0.22031985488E+04  0.22031985488E+04  0.00000000000E+00 0. -1.
         25    1    1    2    0    0 -0.13653846514E+03 -0.17582272174E+03  0.63240351071E+03  0.68199382864E+03  0.12500000000E+03 0.  0.
         21    1    1    2  503  502 -0.19331697122E+02 -0.92954775106E+01 -0.54692309472E+03  0.54734357761E+03  0.00000000000E+00 0. -1.
          2    1    1    2  501    0  0.15587016226E+03  0.18511819925E+03 -0.16222947992E+04  0.16402453081E+04  0.00000000000E+00 0. -1.
<mgrwt>
<rscale>  4 0.25555717E+03</rscale>
<asrwt>0</asrwt>
<pdfrwt beam="1">  1       21 0.10252064E+00 0.25555717E+03</pdfrwt>
<pdfrwt beam="2">  1        2 0.33895362E+00 0.25555717E+03</pdfrwt>
<totfact> 0.54935752E+01</totfact>
</mgrwt>
</event>
<event>
 5    0  0.9662576E-001  0.2685686E+03  0.7546771E-02  0.1102102E+00
         -2   -1    0    0    0  501 -0.00000000000E+00  0.00000000000E+00  0.49257582548E+03  0.49257582548E+03  0.00000000000E+00 0. -1.
         21   -1    0    0  503  502  0.00000000000E+00 -0.00000000000E+00 -0.13842157643E+03  0.13842157643E+03  0.00000000000E+00 0.  1.
         25    1    1    2    0    0 -0.12713827122E+03 -0.20084808436E+03  0.13069033723E+03  0.29867885302E+03  0.12500000000E+03 0.  0.
         21    1    1    2  503  501  0.25359257629E+01  0.20610156829E+02  0.21373466310E+01  0.20875290048E+02  0.00000000000E+00 0.  1.
         -2    1    1    2    0  502  0.12460234545E+03  0.18023792753E+03  0.22132656519E+03  0.31144325883E+03  0.00000000000E+00 0. -1.
<mgrwt>
<rscale>  4 0.26856860E+03</rscale>
<asrwt>0</asrwt>
<pdfrwt beam="1">  1       21 0.21295627E-01 0.26856860E+03</pdfrwt>
<pdfrwt beam="2">  1       -2 0.75780895E-01 0.26856860E+03</pdfrwt>
<totfact> 0.26537326E+03</totfact>
</mgrwt>
</event>
<event>
 5    0  0.1294738E+000  0.2327333E+03  0.7546771E-02  0.1124731E+00
          1   -1    0    0  503    0 -0.00000000000E+00  0.00000000000E+00  0.96653082801E+02  0.96653082801E+02  0.00000000000E+00 0.  1.
         21   -1    0    0  501  502  0.00000000000E+00 -0.00000000000E+00 -0.12933133563E+04  0.12933133563E+04  0.00000000000E+00 0.  1.
         25    1    1    2    0    0  0.20448127925E+03 -0.14502318594E+02 -0.68440438781E+03  0.72529806070E+03  0.12500000000E+03 0.  0.
         21    1    1    2  503  502 -0.20663375496E+02 -0.39588087557E+02  0.52130581558E+02  0.68642474437E+02  0.00000000000E+00 0.  1.
          1    1    1    2  501    0 -0.18381790375E+03  0.54090406151E+02 -0.56438646720E+03  0.59602590392E+03  0.00000000000E+00 0.  1.
<mgrwt>
<rscale>  4 0.23273332E+03</rscale>
<asrwt>0</asrwt>
<pdfrwt beam="1">  1       21 0.19897127E+00 0.23273332E+03</pdfrwt>
<pdfrwt beam="2">  1        1 0.14869706E-01 0.23273332E+03</pdfrwt>
<totfact> 0.53576916E+02</totfact>
</mgrwt>
</event>
<event>
 5    0  0.9662576E-001  0.3062105E+03  0.7546771E-02  0.1082177E+00
         -1   -1    0    0    0  501 -0.00000000000E+00  0.00000000000E+00  0.85776400371E+03  0.85776400371E+03  0.00000000000E+00 0.  1.
         21   -1    0    0  503  502  0.00000000000E+00 -0.00000000000E+00 -0.26431678282E+03  0.26431678282E+03  0.00000000000E+00 0.  1.
         25    1    1    2    0    0  0.31920310434E+02  0.27059639873E+03 -0.10252866816E+03  0.31682557507E+03  0.12500000000E+03 0.  0.
         21    1    1    2  503  501 -0.83593312908E+01  0.37754036259E+02  0.30169935041E+03  0.30416729560E+03  0.00000000000E+00 0.  1.
         -1    1    1    2    0  502 -0.23560979143E+02 -0.30835043499E+03  0.39427653864E+03  0.50108791586E+03  0.00000000000E+00 0.  1.
<mgrwt>
<rscale>  4 0.30621051E+03</rscale>
<asrwt>0</asrwt>
<pdfrwt beam="1">  1       21 0.40664121E-01 0.30621051E+03</pdfrwt>
<pdfrwt beam="2">  1       -1 0.13196369E+00 0.30621051E+03</pdfrwt>
<totfact> 0.27423733E+02</totfact>
</mgrwt>
</event>
<event>
 5    0  0.9662576E-001  0.3304119E+03  0.7546771E-02  0.1070955E+00
         -1   -1    0    0    0  501 -0.00000000000E+00  0.00000000000E+00  0.21984688557E+03  0.21984688557E+03  0.00000000000E+00 0.  1.
         21   -1    0    0  503  502  0.00000000000E+00 -0.00000000000E+00 -0.84759218895E+03  0.84759218895E+03  0.00000000000E+00 0.  1.
         25    1    1    2    0    0 -0.90992762196E+01  0.25702987912E+03 -0.56170858359E+03  0.63030840742E+03  0.12500000000E+03 0.  0.
         21    1    1    2  503  501  0.47896320476E+02  0.59187797933E+02 -0.89707807301E+02  0.11766368866E+03  0.00000000000E+00 0.  1.
         -1    1    1    2    0  502 -0.38797044257E+02 -0.31621767706E+03  0.23671087510E+02  0.31946697844E+03  0.00000000000E+00 0.  1.
<mgrwt>
<rscale>  4 0.33041194E+03</rscale>
<asrwt>0</asrwt>
<pdfrwt beam="1">  1       21 0.13039880E+00 0.33041194E+03</pdfrwt>
<pdfrwt beam="2">  1       -1 0.33822597E-01 0.33041194E+03</pdfrwt>
<totfact> 0.30608744E+02</totfact>
</mgrwt>
</event>
<event>
 5    0  0.9662576E-001  0.2821209E+03  0.7546771E-02  0.1094536E+00
         21   -1    0    0  501  502  0.00000000000E+00  0.00000000000E+00  0.21493737332E+03  0.21493737332E+03  0.00000000000E+00 0.  1.
          1   -1    0    0  503    0 -0.00000000000E+00 -0.00000000000E+00 -0.42435711970E+03  0.42435711970E+03  0.00000000000E+00 0.  1.
         25    1    1    2    0    0  0.22559739391E+02  0.25190927417E+03  0.36106450926E+02  0.28442204565E+03  0.12500000000E+03 0.  0.
         21    1    1    2  503  502  0.33232062943E+01 -0.24572528754E+02 -0.10695650132E+02  0.27004625551E+02  0.00000000000E+00 0. -1.
          1    1    1    2  501    0 -0.25882945685E+02 -0.22733674542E+03 -0.23483054718E+03  0.32786782182E+03  0.00000000000E+00 0.  1.
<mgrwt>
<rscale>  4 0.28212094E+03</rscale>
<asrwt>0</asrwt>
<pdfrwt beam="1">  1       21 0.33067289E-01 0.28212094E+03</pdfrwt>
<pdfrwt beam="2">  1        1 0.65285710E-01 0.28212094E+03</pdfrwt>
<totfact> 0.53142616E+03</totfact>
</mgrwt>
</event>
<event>
 5    0  0.1066328E+000  0.2184400E+03  0.7546771E-02  0.1135051E+00
          1   -1    0    0  503    0 -0.00000000000E+00  0.00000000000E+00  0.48488186689E+03  0.48488186689E+03  0.00000000000E+00 0. -1.
         21   -1    0    0  501  502  0.00000000000E+00 -0.00000000000E+00 -0.28765327364E+03  0.28765327364E+03  0.00000000000E+00 0. -1.
         25    1    1    2    0    0 -0.18518261573E+03  0.10825069160E+03 -0.19067675650E+03  0.31303903730E+03  0.12500000000E+03 0.  0.
         21    1    1    2  503  502  0.10605212742E+03 -0.36402749551E+02  0.92522451493E+02  0.14537062267E+03  0.00000000000E+00 0. -1.
          1    1    1    2  501    0  0.79130488314E+02 -0.71847942053E+02  0.29538289826E+03  0.31412548057E+03  0.00000000000E+00 0. -1.
<mgrwt>
<rscale>  4 0.21843997E+03</rscale>
<asrwt>0</asrwt>
<pdfrwt beam="1">  1       21 0.44254350E-01 0.21843997E+03</pdfrwt>
<pdfrwt beam="2">  1        1 0.74597210E-01 0.21843997E+03</pdfrwt>
<totfact> 0.25225915E+03</totfact>
</mgrwt>
</event>
<event>
 5    0  0.9662576E-001  0.3284112E+03  0.7546771E-02  0.1071842E+00
          2   -1    0    0  503    0 -0.00000000000E+00  0.00000000000E+00  0.11166408074E+03  0.11166408074E+03  0.00000000000E+00 0. -1.
         21   -1    0    0  501  502  0.00000000000E+00 -0.00000000000E+00 -0.18264331009E+04  0.18264331009E+04  0.00000000000E+00 0.  1.
         25    1    1    2    0    0  0.14813711853E+03 -0.26221514064E+03 -0.14998427789E+04  0.15348793918E+04  0.12500000000E+03 0.  0.
         21    1    1    2  503  502 -0.91500941473E+01 -0.22176815770E+02 -0.91658135576E+01  0.25681657243E+02  0.00000000000E+00 0. -1.
          2    1    1    2  501    0 -0.13898702438E+03  0.28439195641E+03 -0.20576042764E+03  0.37753613257E+03  0.00000000000E+00 0. -1.
<mgrwt>
<rscale>  4 0.32841123E+03</rscale>
<asrwt>0</asrwt>
<pdfrwt beam="1">  1       21 0.28098970E+00 0.32841123E+03</pdfrwt>
<pdfrwt beam="2">  1        2 0.17179090E-01 0.32841123E+03</pdfrwt>
<totfact> 0.15982899E+02</totfact>
</mgrwt>
</event>
<event>
 5    0  0.9662576E-001  0.3313471E+03  0.7546771E-02  0.1070542E+00
         21   -1    0    0  501  502  0.00000000000E+00  0.00000000000E+00  0.15256914064E+03  0.15256914064E+03  0.00000000000E+00 0. -1.
          1   -1    0    0  503    0 -0.00000000000E+00 -0.00000000000E+00 -0.17692938758E+04  0.17692938758E+04  0.00000000000E+00 0.  1.
         25    1    1    2    0    0  0.29013541225E+03  0.10701023923E+03 -0.75559514468E+02  0.34199998387E+03  0.12500000000E+03 0.  0.
         21    1    1    2  503  502 -0.63189051541E+01 -0.28019604322E+02 -0.40861079794E+03  0.40961910475E+03  0.00000000000E+00 0. -1.
          1    1    1    2  501    0 -0.28381650710E+03 -0.78990634910E+02 -0.11325544228E+04  0.11702439279E+04  0.00000000000E+00 0.  1.
<mgrwt>
<rscale>  4 0.33134710E+03</rscale>
<asrwt>0</asrwt>
<pdfrwt beam="1">  1       21 0.23472175E-01 0.33134710E+03</pdfrwt>
<pdfrwt beam="2">  1        1 0.27219906E+00 0.33134710E+03</pdfrwt>
<totfact> 0.86575665E+02</totfact>
</mgrwt>
</event>
<event>
 5    0  0.9662576E-001  0.3553974E+03  0.7546771E-02  0.1060421E+00
         21   -1    0    0  501  502  0.00000000000E+00  0.00000000000E+00  0.13393732295E+03  0.13393732295E+03  0.00000000000E+00 0.  1.
          1   -1    0    0  503    0 -0.00000000000E+00 -0.00000000000E+00 -0.16865528057E+04  0.16865528057E+04  0.00000000000E+00 0.  1.
         25    1    1    2    0    0 -0.29473743761E+03  0.15431187016E+03 -0.16711593299E+03  0.39272769887E+03  0.12500000000E+03 0.  0.
         21    1    1    2  503  502  0.27721562383E+02 -0.10170048101E+02 -0.48663398242E+02  0.56921360031E+02  0.00000000000E+00 0. -1.
          1    1    1    2  501    0  0.26701587523E+03 -0.14414182206E+03 -0.13368361515E+04  0.13708410697E+04  0.00000000000E+00 0.  1.
<mgrwt>
<rscale>  4 0.35539740E+03</rscale>
<asrwt>0</asrwt>
<pdfrwt beam="1">  1       21 0.20605742E-01 0.35539740E+03</pdfrwt>
<pdfrwt beam="2">  1        1 0.25946967E+00 0.35539740E+03</pdfrwt>
<totfact> 0.12476961E+03</totfact>
</mgrwt>
</event>
<event>
 5    0  0.9662576E-001  0.2623708E+03  0.7546771E-02  0.1105727E+00
          2   -1    0    0  503    0 -0.00000000000E+00  0.00000000000E+00  0.10890182660E+04  0.10890182660E+04  0.00000000000E+00 0.  1.
         21   -1    0    0  501  502  0.00000000000E+00 -0.00000000000E+00 -0.14583529406E+03  0.14583529406E+03  0.00000000000E+00 0. -1.
         25    1    1    2    0    0  0.13914974599E+03  0.18056999721E+03  0.75805119741E+01  0.26009736612E+03  0.12500000000E+03 0.  0.
         21    1    1    2  503  502  0.24075738589E+01  0.22663156354E+02  0.12855781665E+03  0.13056235020E+03  0.00000000000E+00 0.  1.
          2    1    1    2  501    0 -0.14155731985E+03 -0.20323315357E+03  0.80704464333E+03  0.84419384375E+03  0.00000000000E+00 0.  1.
<mgrwt>
<rscale>  4 0.26237082E+03</rscale>
<asrwt>0</asrwt>
<pdfrwt beam="1">  1       21 0.22436200E-01 0.26237082E+03</pdfrwt>
<pdfrwt beam="2">  1        2 0.16754127E+00 0.26237082E+03</pdfrwt>
<totfact> 0.53652455E+03</totfact>
</mgrwt>
</event>
<event>
 5    0  0.1931673E+000  0.2769472E+03  0.7546771E-02  0.1097368E+00
          2   -1    0    0  503    0 -0.00000000000E+00  0.00000000000E+00  0.17471981141E+04  0.17471981141E+04  0.00000000000E+00 0. -1.
         21   -1    0    0  501  502  0.00000000000E+00 -0.00000000000E+00 -0.52801514930E+02  0.52801514930E+02  0.00000000000E+00 0.  1.
         25    1    1    2    0    0  0.21018553096E+03 -0.12262042461E+03  0.51388929266E+03  0.58216916018E+03  0.12500000000E+03 0.  0.
         21    1    1    2  503  502 -0.29698664872E+01 -0.24027211896E+02  0.31321359125E+03  0.31414786449E+03  0.00000000000E+00 0. -1.
          2    1    1    2  501    0 -0.20721566447E+03  0.14664763651E+03  0.86729371524E+03  0.90368260435E+03  0.00000000000E+00 0. -1.
<mgrwt>
<rscale>  4 0.27694725E+03</rscale>
<asrwt>0</asrwt>
<pdfrwt beam="1">  1       21 0.81233113E-02 0.27694725E+03</pdfrwt>
<pdfrwt beam="2">  1        2 0.26879967E+00 0.27694725E+03</pdfrwt>
<totfact> 0.14838747E+04</totfact>
</mgrwt>
</event>
<event>
 5    0  0.9662576E-001  0.3282581E+03  0.7546771E-02  0.1071910E+00
          2   -1    0    0  503    0 -0.00000000000E+00  0.00000000000E+00  0.19753825492E+04  0.19753825492E+04  0.00000000000E+00 0.  1.
         21   -1    0    0  501  502  0.00000000000E+00 -0.00000000000E+00 -0.17054261704E+03  0.17054261704E+03  0.00000000000E+00 0.  1.
         25    1    1    2    0    0 -0.16309940837E+03 -0.25587703955E+03  0.30590012933E+02  0.32959858202E+03  0.12500000000E+03 0.  0.
         21    1    1    2  503  502  0.62428791166E+02 -0.39444805106E+02  0.43403555216E+03  0.44027276450E+03  0.00000000000E+00 0.  1.
          2    1    1    2  501    0  0.10067061720E+03  0.29532184466E+03  0.13402143670E+04  0.13760538197E+04  0.00000000000E+00 0.  1.
<mgrwt>
<rscale>  4 0.32825808E+03</rscale>
<asrwt>0</asrwt>
<pdfrwt beam="1">  1       21 0.26237327E-01 0.32825808E+03</pdfrwt>
<pdfrwt beam="2">  1        2 0.30390499E+00 0.32825808E+03</pdfrwt>
<totfact> 0.12780783E+03</totfact>
</mgrwt>
</event>
<event>
 5    0  0.9662576E-001  0.2733301E+03  0.7546771E-02  0.1099389E+00
         -2   -1    0    0    0  501 -0.00000000000E+00  0.00000000000E+00  0.17943287993E+04  0.17943287993E+04  0.00000000000E+00 0.  1.
         21   -1    0    0  503  502  0.00000000000E+00 -0.00000000000E+00 -0.43958007337E+03  0.43958007337E+03  0.00000000000E+00 0.  1.
         25    1    1    2    0    0  0.62539569541E+02 -0.23439804703E+03 -0.38480211307E+03  0.47175344030E+03  0.12500000000E+03 0.  0.
         21    1    1    2  503  501 -0.44974384280E+01 -0.19884660933E+02  0.14097120692E+03  0.14243773332E+03  0.00000000000E+00 0. -1.
         -2    1    1    2    0  502 -0.58042131113E+02  0.25428270797E+03  0.15985796321E+04  0.16197176991E+04  0.00000000000E+00 0.  1.
<mgrwt>
<rscale>  4 0.27333013E+03</rscale>
<asrwt>0</asrwt>
<pdfrwt beam="1">  1       21 0.67627704E-01 0.27333013E+03</pdfrwt>
<pdfrwt beam="2">  1       -2 0.27605058E+00 0.27333013E+03</pdfrwt>
<totfact> 0.79621008E+00</totfact>
</mgrwt>
</event>
<event>
 5    0  0.9662576E-001  0.2587889E+03  0.7546771E-02  0.1107873E+00
         21   -1    0    0  501  502  0.00000000000E+00  0.00000000000E+00  0.35518006862E+03  0.35518006862E+03  0.00000000000E+00 0. -1.
          3   -1    0    0  503    0 -0.00000000000E+00 -0.00000000000E+00 -0.27663627922E+03  0.27663627922E+03  0.00000000000E+00 0. -1.
         25    1    1    2    0    0  0.27873498262E+02 -0.20173086366E+03  0.53196670385E+02  0.24480024305E+03  0.12500000000E+03 0.  0.
         21    1    1    2  503  502 -0.37686226588E+02 -0.44593241067E+02 -0.95914182169E+02  0.11228686105E+03  0.00000000000E+00 0. -1.
          3    1    1    2  501    0  0.98127283264E+01  0.24632410472E+03  0.12126130118E+03  0.27472924374E+03  0.00000000000E+00 0. -1.
<mgrwt>
<rscale>  4 0.25878894E+03</rscale>
<asrwt>0</asrwt>
<pdfrwt beam="1">  1       21 0.54643088E-01 0.25878894E+03</pdfrwt>
<pdfrwt beam="2">  1        3 0.42559427E-01 0.25878894E+03</pdfrwt>
<totfact> 0.85138555E+02</totfact>
</mgrwt>
</event>
<event>
 5    0  0.9662576E-001  0.3183980E+03  0.7546771E-02  0.1076389E+00
          2   -1    0    0  503    0 -0.00000000000E+00  0.00000000000E+00  0.19093232789E+04  0.19093232789E+04  0.00000000000E+00 0. -1.
         21   -1    0    0  501  502  0.00000000000E+00 -0.00000000000E+00 -0.93456139827E+02  0.93456139827E+02  0.00000000000E+00 0. -1.
         25    1    1    2    0    0 -0.25070197420E+03  0.15691872046E+03  0.28371528925E+03  0.42847908940E+03  0.12500000000E+03 0.  0.
         21    1    1    2  503  502  0.20006291023E+02  0.10982527422E+02  0.57677808069E+03  0.57722943614E+03  0.00000000000E+00 0. -1.
          2    1    1    2  501    0  0.23069568318E+03 -0.16790124789E+03  0.95537376913E+03  0.99707089318E+03  0.00000000000E+00 0. -1.
<mgrwt>
<rscale>  4 0.31839801E+03</rscale>
<asrwt>0</asrwt>
<pdfrwt beam="1">  1       21 0.14377869E-01 0.31839801E+03</pdfrwt>
<pdfrwt beam="2">  1        2 0.29374201E+00 0.31839801E+03</pdfrwt>
<totfact> 0.43225929E+03</totfact>
</mgrwt>
</event>
<event>
 5    0  0.9662576E-001  0.3051194E+03  0.7546771E-02  0.1082709E+00
         -4   -1    0    0    0  501 -0.00000000000E+00  0.00000000000E+00  0.51808612126E+03  0.51808612126E+03  0.00000000000E+00 0.  1.
         21   -1    0    0  503  502  0.00000000000E+00 -0.00000000000E+00 -0.14391863159E+04  0.14391863159E+04  0.00000000000E+00 0.  1.
         25    1    1    2    0    0 -0.23455894815E+03 -0.14823240198E+03 -0.13683324943E+04  0.14017665854E+04  0.12500000000E+03 0.  0.
         21    1    1    2  503  501 -0.26437781315E+02 -0.47907761316E+01  0.33154619591E+02  0.42674777293E+02  0.00000000000E+00 0. -1.
         -4    1    1    2    0  502  0.26099672946E+03  0.15302317812E+03  0.41407768002E+03  0.51283107445E+03  0.00000000000E+00 0.  1.
<mgrwt>
<rscale>  4 0.30511941E+03</rscale>
<asrwt>0</asrwt>
<pdfrwt beam="1">  1       21 0.22141328E+00 0.30511941E+03</pdfrwt>
<pdfrwt beam="2">  1       -4 0.79705557E-01 0.30511941E+03</pdfrwt>
<totfact> 0.55255504E+00</totfact>
</mgrwt>
</event>
<event>
 5    0  0.9662576E-001  0.2912289E+03  0.7546771E-02  0.1089709E+00
          2   -1    0    0  503    0 -0.00000000000E+00  0.00000000000E+00  0.14946700131E+04  0.14946700131E+04  0.00000000000E+00 0.  1.
         21   -1    0    0  501  502  0.00000000000E+00 -0.00000000000E+00 -0.45466341163E+03  0.45466341163E+03  0.00000000000E+00 0. -1.
         25    1    1    2    0    0  0.69817230598E+02 -0.25458148123E+03 -0.39243998424E+03  0.48920375868E+03  0.12500000000E+03 0.  0.
         21    1    1    2  503  502 -0.16260022941E+02  0.24596412247E+02  0.53288718336E+02  0.60902047120E+02  0.00000000000E+00 0.  1.
          2    1    1    2  501    0 -0.53557207657E+02  0.22998506898E+03  0.13791578674E+04  0.13992276189E+04  0.00000000000E+00 0.  1.
<mgrwt>
<rscale>  4 0.29122889E+03</rscale>
<asrwt>0</asrwt>
<pdfrwt beam="1">  1       21 0.69948218E-01 0.29122889E+03</pdfrwt>
<pdfrwt beam="2">  1        2 0.22994923E+00 0.29122889E+03</pdfrwt>
<totfact> 0.30727574E+02</totfact>
</mgrwt>
</event>
