<event>
 5    0  0.1911311E+001  0.4169113E+03  0.7546771E-02  0.1038076E+00
         21   -1    0    0  504  501  0.00000000000E+00  0.00000000000E+00  0.50807649087E+03  0.50807649087E+03  0.00000000000E+00 0. -1.
         21   -1    0    0  503  502 -0.00000000000E+00 -0.00000000000E+00 -0.12794273512E+04  0.12794273512E+04  0.00000000000E+00 0. -1.
         25    1    1    2    0    0 -0.37249197495E+03 -0.82840909955E+02 -0.10270047487E+04  0.11027133089E+04  0.12500000000E+03 0.  0.
         21    1    1    2  503  501 -0.26717954330E+02  0.67310901937E+02 -0.11755911228E+03  0.13807516607E+03  0.00000000000E+00 0. -1.
         21    1    1    2  504  502  0.39920992928E+03  0.15530008017E+02  0.37321300065E+03  0.54671536711E+03  0.00000000000E+00 0. -1.
<mgrwt>
<rscale>  4 0.41691131E+03</rscale>
<asrwt>0</asrwt>
<pdfrwt beam="1">  1       21 0.78165614E-01 0.41691131E+03</pdfrwt>
<pdfrwt beam="2">  1       21 0.19683498E+00 0.41691131E+03</pdfrwt>
<totfact> 0.16738567E+02</totfact>
</mgrwt>
</event>
<event>
 5    0  0.1911311E+001  0.1896814E+03  0.7546771E-02  0.1158749E+00
         21   -1    0    0  504  501  0.00000000000E+00  0.00000000000E+00  0.34031495006E+03  0.34031495006E+03  0.00000000000E+00 0.  1.
         21   -1    0    0  503  502 -0.00000000000E+00 -0.00000000000E+00 -0.70613741830E+03  0.70613741830E+03  0.00000000000E+00 0.  1.
         25    1    1    2    0    0  0.14127590110E+03  0.18317455086E+03 -0.10160145372E+03  0.28188588420E+03  0.12500000000E+03 0.  0.
         21    1    1    2  503  501 -0.88433511548E+02 -0.10062225733E+03 -0.49554560176E+03  0.51333299920E+03  0.00000000000E+00 0.  1.
         21    1    1    2  504  502 -0.52842389551E+02 -0.82552293532E+02  0.23132458725E+03  0.25123348497E+03  0.00000000000E+00 0.  1.
<mgrwt>
<rscale>  4 0.18968136E+03</rscale>
<asrwt>0</asrwt>
<pdfrwt beam="1">  1       21 0.52356147E-01 0.18968136E+03</pdfrwt>
<pdfrwt beam="2">  1       21 0.10863652E+00 0.18968136E+03</pdfrwt>
<totfact> 0.23355340E+03</totfact>
</mgrwt>
</event>
<event>
 5    0  0.1911311E+001  0.2568395E+03  0.7546771E-02  0.1109057E+00
         21   -1    0    0  502  501  0.00000000000E+00  0.00000000000E+00  0.82835744767E+02  0.82835744767E+02  0.00000000000E+00 0.  1.
         21   -1    0    0  504  502 -0.00000000000E+00 -0.00000000000E+00 -0.12727119973E+04  0.12727119973E+04  0.00000000000E+00 0.  1.
         25    1    1    2    0    0  0.18241980191E+02  0.23307197087E+03 -0.82859069024E+03  0.86996715190E+03  0.12500000000E+03 0.  0.
         21    1    1    2  503  501 -0.39618838700E+02 -0.21880569352E+03 -0.13990805554E+03  0.26271628785E+03  0.00000000000E+00 0.  1.
         21    1    1    2  504  503  0.21376858510E+02 -0.14266277349E+02 -0.22137750677E+03  0.22286430233E+03  0.00000000000E+00 0. -1.
<mgrwt>
<rscale>  4 0.25683954E+03</rscale>
<asrwt>0</asrwt>
<pdfrwt beam="1">  1       21 0.12743962E-01 0.25683954E+03</pdfrwt>
<pdfrwt beam="2">  1       21 0.19580183E+00 0.25683954E+03</pdfrwt>
<totfact> 0.71650961E+03</totfact>
</mgrwt>
</event>
<event>
 5    0  0.1911311E+001  0.3440622E+03  0.7546771E-02  0.1065079E+00
         21   -1    0    0  504  501  0.00000000000E+00  0.00000000000E+00  0.17375923876E+04  0.17375923876E+04  0.00000000000E+00 0. -1.
         21   -1    0    0  503  502 -0.00000000000E+00 -0.00000000000E+00 -0.76186537292E+02  0.76186537292E+02  0.00000000000E+00 0. -1.
         25    1    1    2    0    0 -0.18036090808E+03 -0.27550049075E+03  0.93356878779E+03  0.99780071112E+03  0.12500000000E+03 0.  0.
         21    1    1    2  503  501  0.82838731795E+00  0.20363341688E+02 -0.36844701702E+01  0.20710558435E+02  0.00000000000E+00 0. -1.
         21    1    1    2  504  502  0.17953252076E+03  0.25513714907E+03  0.73152153270E+03  0.79526765535E+03  0.00000000000E+00 0. -1.
<mgrwt>
<rscale>  4 0.34406224E+03</rscale>
<asrwt>0</asrwt>
<pdfrwt beam="1">  1       21 0.26732188E+00 0.34406224E+03</pdfrwt>
<pdfrwt beam="2">  1       21 0.11721007E-01 0.34406224E+03</pdfrwt>
<totfact> 0.28383853E+03</totfact>
</mgrwt>
</event>
