<event>
 5    0  0.1911311E+001  0.2767188E+03  0.7546771E-02  0.1097495E+00
         21   -1    0    0  502  501  0.00000000000E+00  0.00000000000E+00  0.35658846491E+03  0.35658846491E+03  0.00000000000E+00 0.  1.
         21   -1    0    0  504  502 -0.00000000000E+00 -0.00000000000E+00 -0.54957878201E+03  0.54957878201E+03  0.00000000000E+00 0.  1.
         25    1    1    2    0    0  0.71115502071E+02  0.35450385414E+03 -0.13863665858E+03  0.40690972013E+03  0.12500000000E+03 0.  0.
         21    1    1    2  503  501 -0.70726282463E+02 -0.14517615163E+03  0.13991780529E+03  0.21367104219E+03  0.00000000000E+00 0.  1.
         21    1    1    2  504  503 -0.38921960814E+00 -0.20932770251E+03 -0.19427146381E+03  0.28558648459E+03  0.00000000000E+00 0.  1.
<mgrwt>
<rscale>  4 0.27671883E+03</rscale>
<asrwt>0</asrwt>
<pdfrwt beam="1">  1       21 0.54859764E-01 0.27671883E+03</pdfrwt>
<pdfrwt beam="2">  1       21 0.84550581E-01 0.27671883E+03</pdfrwt>
<totfact> 0.35855178E+03</totfact>
</mgrwt>
</event>
<event>
 5    0  0.1911311E+001  0.2527438E+03  0.7546771E-02  0.1111583E+00
         21   -1    0    0  504  501  0.00000000000E+00  0.00000000000E+00  0.49618084039E+03  0.49618084039E+03  0.00000000000E+00 0. -1.
         21   -1    0    0  503  502 -0.00000000000E+00 -0.00000000000E+00 -0.63387120676E+03  0.63387120676E+03  0.00000000000E+00 0. -1.
         25    1    1    2    0    0 -0.23642794231E+02 -0.23889328063E+03 -0.47413565294E+03  0.54594743212E+03  0.12500000000E+03 0.  0.
         21    1    1    2  503  501 -0.46296137431E+01  0.22095401869E+02 -0.96490013281E+02  0.99095725287E+02  0.00000000000E+00 0. -1.
         21    1    1    2  504  502  0.28272407974E+02  0.21679787876E+03  0.43293529984E+03  0.48500888975E+03  0.00000000000E+00 0. -1.
<mgrwt>
<rscale>  4 0.25274384E+03</rscale>
<asrwt>0</asrwt>
<pdfrwt beam="1">  1       21 0.76335514E-01 0.25274384E+03</pdfrwt>
<pdfrwt beam="2">  1       21 0.97518647E-01 0.25274384E+03</pdfrwt>
<totfact> 0.12641217E+03</totfact>
</mgrwt>
</event>
<event>
 5    0  0.1911311E+001  0.2497940E+03  0.7546771E-02  0.1113435E+00
         21   -1    0    0  503  501  0.00000000000E+00  0.00000000000E+00  0.21567417472E+03  0.21567417472E+03  0.00000000000E+00 0.  1.
         21   -1    0    0  504  502 -0.00000000000E+00 -0.00000000000E+00 -0.35853312267E+03  0.35853312267E+03  0.00000000000E+00 0.  1.
         25    1    1    2    0    0  0.48159249594E+02 -0.22558964542E+03 -0.15485777005E+03  0.30465707014E+03  0.12500000000E+03 0.  0.
         21    1    1    2  503  502 -0.11499045693E+02  0.17539492331E+02 -0.45933865150E+02  0.50495364250E+02  0.00000000000E+00 0.  1.
         21    1    1    2  504  501 -0.36660203901E+02  0.20805015309E+03  0.57932687256E+02  0.21905486300E+03  0.00000000000E+00 0.  1.
<mgrwt>
<rscale>  4 0.24979397E+03</rscale>
<asrwt>0</asrwt>
<pdfrwt beam="1">  1       21 0.33180642E-01 0.24979397E+03</pdfrwt>
<pdfrwt beam="2">  1       21 0.55158942E-01 0.24979397E+03</pdfrwt>
<totfact> 0.26326990E+04</totfact>
</mgrwt>
</event>
<event>
 5    0  0.1911311E+001  0.3022122E+03  0.7546771E-02  0.1084140E+00
         21   -1    0    0  503  501  0.00000000000E+00  0.00000000000E+00  0.18056683429E+03  0.18056683429E+03  0.00000000000E+00 0.  1.
         21   -1    0    0  504  502 -0.00000000000E+00 -0.00000000000E+00 -0.75857136523E+03  0.75857136523E+03  0.00000000000E+00 0.  1.
         25    1    1    2    0    0 -0.23777845241E+03  0.55516546107E+02 -0.49096386842E+03  0.56239772352E+03  0.12500000000E+03 0.  0.
         21    1    1    2  503  502 -0.28958022020E+02  0.42692725501E+02 -0.76543847887E+02  0.92304910483E+02  0.00000000000E+00 0. -1.
         21    1    1    2  504  501  0.26673647443E+03 -0.98209271608E+02 -0.10496814631E+02  0.28443556553E+03  0.00000000000E+00 0.  1.
<mgrwt>
<rscale>  4 0.30221216E+03</rscale>
<asrwt>0</asrwt>
<pdfrwt beam="1">  1       21 0.27779514E-01 0.30221216E+03</pdfrwt>
<pdfrwt beam="2">  1       21 0.11670328E+00 0.30221216E+03</pdfrwt>
<totfact> 0.65340820E+03</totfact>
</mgrwt>
</event>
