<event>
 5    0  0.1911311E+001  0.2145226E+03  0.7546771E-02  0.1138034E+00
         21   -1    0    0  502  501  0.00000000000E+00  0.00000000000E+00  0.13869930853E+04  0.13869930853E+04  0.00000000000E+00 0.  1.
         21   -1    0    0  504  502 -0.00000000000E+00 -0.00000000000E+00 -0.87718764737E+02  0.87718764737E+02  0.00000000000E+00 0. -1.
         25    1    1    2    0    0  0.84749016638E+02 -0.21244621940E+03  0.95260904519E+03  0.98762583246E+03  0.12500000000E+03 0.  0.
         21    1    1    2  503  501  0.21220568906E+02  0.80635092433E+02  0.30038380550E+03  0.31174149753E+03  0.00000000000E+00 0. -1.
         21    1    1    2  504  503 -0.10596958554E+03  0.13181112697E+03  0.46281469853E+02  0.17534452003E+03  0.00000000000E+00 0. -1.
<mgrwt>
<rscale>  4 0.21452258E+03</rscale>
<asrwt>0</asrwt>
<pdfrwt beam="1">  1       21 0.21338354E+00 0.21452258E+03</pdfrwt>
<pdfrwt beam="2">  1       21 0.13495196E-01 0.21452258E+03</pdfrwt>
<totfact> 0.51475589E+03</totfact>
</mgrwt>
</event>
<event>
 5    0  0.1911311E+001  0.3866459E+03  0.7546771E-02  0.1059600E+00
         21   -1    0    0  502  501  0.00000000000E+00  0.00000000000E+00  0.51532945819E+03  0.51532945819E+03  0.00000000000E+00 0.  1.
         21   -1    0    0  504  502 -0.00000000000E+00 -0.00000000000E+00 -0.82496214015E+03  0.82496214015E+03  0.00000000000E+00 0.  1.
         25    1    1    2    0    0  0.24425206929E+03 -0.66912636558E+02  0.70445589178E+01  0.28250840712E+03  0.12500000000E+03 0.  0.
         21    1    1    2  503  501 -0.36804287452E+03  0.40054183423E+03  0.50701593390E+02  0.54631490006E+03  0.00000000000E+00 0.  1.
         21    1    1    2  504  503  0.12379080523E+03 -0.33362919767E+03 -0.36737883427E+03  0.51146829117E+03  0.00000000000E+00 0.  1.
<mgrwt>
<rscale>  4 0.35744491E+03</rscale>
<asrwt>0</asrwt>
<pdfrwt beam="1">  1       21 0.79281455E-01 0.38664588E+03</pdfrwt>
<pdfrwt beam="2">  1       21 0.12691725E+00 0.38664588E+03</pdfrwt>
<totfact> 0.55649965E+02</totfact>
</mgrwt>
</event>
<event>
 5    0  0.3044017E+001  0.2996182E+03  0.7546771E-02  0.1085432E+00
         21   -1    0    0  504  501  0.00000000000E+00  0.00000000000E+00  0.16495327409E+03  0.16495327409E+03  0.00000000000E+00 0. -1.
         21   -1    0    0  503  502 -0.00000000000E+00 -0.00000000000E+00 -0.70898309238E+03  0.70898309238E+03  0.00000000000E+00 0. -1.
         25    1    1    2    0    0 -0.21611041967E+03 -0.18803796026E+03 -0.35778935363E+03  0.47507916136E+03  0.12500000000E+03 0.  0.
         21    1    1    2  503  501  0.11574137933E+02  0.17067685192E+02 -0.12321172081E+03  0.12492555660E+03  0.00000000000E+00 0.  1.
         21    1    1    2  504  502  0.20453628174E+03  0.17097027507E+03 -0.63028743858E+02  0.27393164851E+03  0.00000000000E+00 0. -1.
<mgrwt>
<rscale>  4 0.29961817E+03</rscale>
<asrwt>0</asrwt>
<pdfrwt beam="1">  1       21 0.25377427E-01 0.29961817E+03</pdfrwt>
<pdfrwt beam="2">  1       21 0.10907432E+00 0.29961817E+03</pdfrwt>
<totfact> 0.92116520E+03</totfact>
</mgrwt>
</event>
<event>
 5    0  0.1911311E+001  0.2994035E+03  0.7546771E-02  0.1085539E+00
         21   -1    0    0  502  501  0.00000000000E+00  0.00000000000E+00  0.46501198814E+03  0.46501198814E+03  0.00000000000E+00 0.  1.
         21   -1    0    0  504  502 -0.00000000000E+00 -0.00000000000E+00 -0.58244263043E+03  0.58244263043E+03  0.00000000000E+00 0.  1.
         25    1    1    2    0    0 -0.25850181805E+03  0.12300037252E+03 -0.40726819391E+03  0.51326860741E+03  0.12500000000E+03 0.  0.
         21    1    1    2  503  501  0.23771680274E+03 -0.12953999172E+03  0.36584437180E+03  0.45511755859E+03  0.00000000000E+00 0.  1.
         21    1    1    2  504  503  0.20785015307E+02  0.65396191930E+01 -0.76006820176E+02  0.79068452582E+02  0.00000000000E+00 0.  1.
<mgrwt>
<rscale>  4 0.29940346E+03</rscale>
<asrwt>0</asrwt>
<pdfrwt beam="1">  1       21 0.71540306E-01 0.29940346E+03</pdfrwt>
<pdfrwt beam="2">  1       21 0.89606558E-01 0.29940346E+03</pdfrwt>
<totfact> 0.17304283E+03</totfact>
</mgrwt>
</event>
<event>
 5    0  0.1911311E+001  0.3853603E+03  0.7546771E-02  0.1048970E+00
         21   -1    0    0  502  501  0.00000000000E+00  0.00000000000E+00  0.50883331932E+03  0.50883331932E+03  0.00000000000E+00 0. -1.
         21   -1    0    0  504  502 -0.00000000000E+00 -0.00000000000E+00 -0.40215230349E+03  0.40215230349E+03  0.00000000000E+00 0. -1.
         25    1    1    2    0    0  0.20970635139E+03  0.27929607145E+03  0.19181592816E+03  0.41761393612E+03  0.12500000000E+03 0.  0.
         21    1    1    2  503  501 -0.19565594139E+03 -0.34146157429E+03 -0.84176064546E+01  0.39363448809E+03  0.00000000000E+00 0. -1.
         21    1    1    2  504  503 -0.14050410000E+02  0.62165502834E+02 -0.76717305872E+02  0.99737198598E+02  0.00000000000E+00 0. -1.
<mgrwt>
<rscale>  4 0.38536029E+03</rscale>
<asrwt>0</asrwt>
<pdfrwt beam="1">  1       21 0.78282049E-01 0.38536029E+03</pdfrwt>
<pdfrwt beam="2">  1       21 0.61869585E-01 0.38536029E+03</pdfrwt>
<totfact> 0.31282900E+03</totfact>
</mgrwt>
</event>
<event>
 5    0  0.1911311E+001  0.2870741E+03  0.7546771E-02  0.1091887E+00
         21   -1    0    0  503  501  0.00000000000E+00  0.00000000000E+00  0.12685174437E+03  0.12685174437E+03  0.00000000000E+00 0. -1.
         21   -1    0    0  501  502 -0.00000000000E+00 -0.00000000000E+00 -0.65044313268E+03  0.65044313268E+03  0.00000000000E+00 0. -1.
         25    1    1    2    0    0 -0.17307746582E+03 -0.19191336777E+03 -0.16459957701E+03  0.33091474832E+03  0.12500000000E+03 0.  0.
         21    1    1    2  503  504  0.14976946248E+03  0.18257632491E+03 -0.34361620099E+03  0.41693776501E+03  0.00000000000E+00 0. -1.
         21    1    1    2  504  502  0.23308003333E+02  0.93370428582E+01 -0.15375610314E+02  0.29442363717E+02  0.00000000000E+00 0. -1.
<mgrwt>
<rscale>  4 0.28707412E+03</rscale>
<asrwt>0</asrwt>
<pdfrwt beam="1">  1       21 0.19515653E-01 0.28707412E+03</pdfrwt>
<pdfrwt beam="2">  1       21 0.10006817E+00 0.28707412E+03</pdfrwt>
<totfact> 0.18840717E+04</totfact>
</mgrwt>
</event>
<event>
 5    0  0.1911311E+001  0.2806306E+03  0.7546771E-02  0.1095345E+00
         21   -1    0    0  503  501  0.00000000000E+00  0.00000000000E+00  0.30688453870E+03  0.30688453870E+03  0.00000000000E+00 0. -1.
         21   -1    0    0  504  502 -0.00000000000E+00 -0.00000000000E+00 -0.50882784880E+03  0.50882784880E+03  0.00000000000E+00 0. -1.
         25    1    1    2    0    0 -0.24038221145E+03  0.14031383660E+03  0.14088078457E+03  0.33607138495E+03  0.12500000000E+03 0.  0.
         21    1    1    2  503  502  0.21450870686E+03 -0.12237423014E+03 -0.36530784642E+03  0.44095267340E+03  0.00000000000E+00 0. -1.
         21    1    1    2  504  501  0.25873504586E+02 -0.17939606463E+02  0.22483751747E+02  0.38688329147E+02  0.00000000000E+00 0. -1.
<mgrwt>
<rscale>  4 0.28063064E+03</rscale>
<asrwt>0</asrwt>
<pdfrwt beam="1">  1       21 0.47213006E-01 0.28063064E+03</pdfrwt>
<pdfrwt beam="2">  1       21 0.78281207E-01 0.28063064E+03</pdfrwt>
<totfact> 0.58584523E+03</totfact>
</mgrwt>
</event>
<event>
 5    0  0.1911311E+001  0.3294681E+03  0.7546771E-02  0.1071372E+00
         21   -1    0    0  502  501  0.00000000000E+00  0.00000000000E+00  0.73392529784E+03  0.73392529784E+03  0.00000000000E+00 0.  1.
         21   -1    0    0  504  502 -0.00000000000E+00 -0.00000000000E+00 -0.20332756511E+03  0.20332756511E+03  0.00000000000E+00 0.  1.
         25    1    1    2    0    0  0.16998003159E+03  0.27250717610E+03  0.36168480171E+03  0.49959410320E+03  0.12500000000E+03 0.  0.
         21    1    1    2  503  501 -0.16230578032E+03 -0.23845110173E+03  0.22891185288E+03  0.36824276046E+03  0.00000000000E+00 0.  1.
         21    1    1    2  504  503 -0.76742512764E+01 -0.34056074377E+02 -0.59998921853E+02  0.69415999296E+02  0.00000000000E+00 0. -1.
<mgrwt>
<rscale>  4 0.32946808E+03</rscale>
<asrwt>0</asrwt>
<pdfrwt beam="1">  1       21 0.11291158E+00 0.32946808E+03</pdfrwt>
<pdfrwt beam="2">  1       21 0.31281164E-01 0.32946808E+03</pdfrwt>
<totfact> 0.55399614E+03</totfact>
</mgrwt>
</event>
