<event>
 5    0  0.1856407E+000  0.2807224E+03  0.7546771E-02  0.1095295E+00
         21   -1    0    0  502  501  0.00000000000E+00  0.00000000000E+00  0.77615349984E+03  0.77615349984E+03  0.00000000000E+00 0. -1.
         21   -1    0    0  503  502 -0.00000000000E+00 -0.00000000000E+00 -0.98915162994E+02  0.98915162994E+02  0.00000000000E+00 0. -1.
         25    1    1    2    0    0 -0.23975140623E+03  0.75493832920E+02  0.28969109790E+03  0.40339309340E+03  0.12500000000E+03 0.  0.
         21    1    1    2  503  504  0.61459094427E+02 -0.12082512205E+02  0.18108548948E+03  0.19161200873E+03  0.00000000000E+00 0. -1.
         21    1    1    2  504  501  0.17829231180E+03 -0.63411320715E+02  0.20646174947E+03  0.28006356071E+03  0.00000000000E+00 0. -1.
<mgrwt>
<rscale>  4 0.28072238E+03</rscale>
<asrwt>0</asrwt>
<pdfrwt beam="1">  1       21 0.11940823E+00 0.28072238E+03</pdfrwt>
<pdfrwt beam="2">  1       21 0.15217718E-01 0.28072238E+03</pdfrwt>
<totfact> 0.19468596E+04</totfact>
</mgrwt>
</event>
<event>
 5    0  0.1856407E+000  0.3288026E+03  0.7546771E-02  0.1071668E+00
         21   -1    0    0  502  501  0.00000000000E+00  0.00000000000E+00  0.22638305039E+04  0.22638305039E+04  0.00000000000E+00 0.  1.
         21   -1    0    0  503  502 -0.00000000000E+00 -0.00000000000E+00 -0.17438346249E+03  0.17438346249E+03  0.00000000000E+00 0. -1.
         25    1    1    2    0    0 -0.23596391492E+03 -0.19749232058E+03  0.20708331889E+04  0.20972976141E+04  0.12500000000E+03 0.  0.
         21    1    1    2  503  504  0.19812556384E+03  0.17223426195E+03 -0.41232325953E+02  0.26574138695E+03  0.00000000000E+00 0. -1.
         21    1    1    2  504  501  0.37838351074E+02  0.25258058626E+02  0.59846178455E+02  0.75174965335E+02  0.00000000000E+00 0.  1.
<mgrwt>
<rscale>  4 0.32880256E+03</rscale>
<asrwt>0</asrwt>
<pdfrwt beam="1">  1       21 0.34828159E+00 0.32880256E+03</pdfrwt>
<pdfrwt beam="2">  1       21 0.26828227E-01 0.32880256E+03</pdfrwt>
<totfact> 0.20038073E+02</totfact>
</mgrwt>
</event>
<event>
 5    0  0.2206909E+000  0.2572236E+03  0.7546771E-02  0.1108823E+00
         21   -1    0    0  502  501  0.00000000000E+00  0.00000000000E+00  0.51158834917E+03  0.51158834917E+03  0.00000000000E+00 0.  1.
         21   -1    0    0  503  502 -0.00000000000E+00 -0.00000000000E+00 -0.15370685046E+03  0.15370685046E+03  0.00000000000E+00 0.  1.
         25    1    1    2    0    0 -0.22453601163E+03 -0.11071297870E+02  0.35492211062E+03  0.43833058160E+03  0.12500000000E+03 0.  0.
         21    1    1    2  503  504  0.23779173580E+02 -0.50876101116E+01  0.76859168279E+01  0.25503062370E+02  0.00000000000E+00 0.  1.
         21    1    1    2  504  501  0.20075683805E+03  0.16158907982E+02 -0.47265287434E+01  0.20146155565E+03  0.00000000000E+00 0.  1.
<mgrwt>
<rscale>  4 0.25722363E+03</rscale>
<asrwt>0</asrwt>
<pdfrwt beam="1">  1       21 0.78705899E-01 0.25722363E+03</pdfrwt>
<pdfrwt beam="2">  1       21 0.23647208E-01 0.25722363E+03</pdfrwt>
<totfact> 0.23222512E+04</totfact>
</mgrwt>
</event>
<event>
 5    0  0.1856407E+000  0.2706631E+03  0.7546771E-02  0.1100901E+00
         21   -1    0    0  502  501  0.00000000000E+00  0.00000000000E+00  0.10974116467E+04  0.10974116467E+04  0.00000000000E+00 0.  1.
         21   -1    0    0  503  502 -0.00000000000E+00 -0.00000000000E+00 -0.20059675637E+03  0.20059675637E+03  0.00000000000E+00 0.  1.
         25    1    1    2    0    0 -0.14044137818E+02  0.25589614096E+03  0.89581260462E+03  0.94009855620E+03  0.12500000000E+03 0.  0.
         21    1    1    2  503  504 -0.21461378345E+02 -0.13109856119E+03 -0.12108830535E+03  0.17974927316E+03  0.00000000000E+00 0.  1.
         21    1    1    2  504  501  0.35505516163E+02 -0.12479757977E+03  0.12209059102E+03  0.17816057367E+03  0.00000000000E+00 0.  1.
<mgrwt>
<rscale>  4 0.27066308E+03</rscale>
<asrwt>0</asrwt>
<pdfrwt beam="1">  1       21 0.16883256E+00 0.27066308E+03</pdfrwt>
<pdfrwt beam="2">  1       21 0.30861040E-01 0.27066308E+03</pdfrwt>
<totfact> 0.20539108E+03</totfact>
</mgrwt>
</event>
<event>
 5    0  0.1856407E+000  0.3499483E+03  0.7546771E-02  0.1062636E+00
         21   -1    0    0  502  501  0.00000000000E+00  0.00000000000E+00  0.28556647300E+03  0.28556647300E+03  0.00000000000E+00 0.  1.
         21   -1    0    0  503  502 -0.00000000000E+00 -0.00000000000E+00 -0.61856633002E+03  0.61856633002E+03  0.00000000000E+00 0.  1.
         25    1    1    2    0    0 -0.54055580941E+02 -0.32236125577E+03  0.92977836448E+02  0.36208930269E+03  0.12500000000E+03 0.  0.
         21    1    1    2  503  504 -0.83216041365E+01  0.67344630515E+02 -0.53849589332E+02  0.86627516562E+02  0.00000000000E+00 0.  1.
         21    1    1    2  504  501  0.62377185078E+02  0.25501662526E+03 -0.37212810414E+03  0.45541598376E+03  0.00000000000E+00 0.  1.
<mgrwt>
<rscale>  4 0.34994826E+03</rscale>
<asrwt>0</asrwt>
<pdfrwt beam="1">  1       21 0.43933303E-01 0.34994826E+03</pdfrwt>
<pdfrwt beam="2">  1       21 0.95164051E-01 0.34994826E+03</pdfrwt>
<totfact> 0.41776002E+03</totfact>
</mgrwt>
</event>
<event>
 5    0  0.1856407E+000  0.2535006E+03  0.7546771E-02  0.1111112E+00
         21   -1    0    0  502  501  0.00000000000E+00  0.00000000000E+00  0.91021509260E+02  0.91021509260E+02  0.00000000000E+00 0.  1.
         21   -1    0    0  503  502 -0.00000000000E+00 -0.00000000000E+00 -0.78244792943E+03  0.78244792943E+03  0.00000000000E+00 0.  1.
         25    1    1    2    0    0  0.41519162108E+02  0.21659578698E+03 -0.17400003423E+03  0.30747127942E+03  0.12500000000E+03 0.  0.
         21    1    1    2  503  504 -0.10492836122E+02 -0.10275297315E+03 -0.16825346690E+03  0.19742720741E+03  0.00000000000E+00 0.  1.
         21    1    1    2  504  501 -0.31026325986E+02 -0.11384281383E+03 -0.34917291904E+03  0.36857095186E+03  0.00000000000E+00 0.  1.
<mgrwt>
<rscale>  4 0.25350064E+03</rscale>
<asrwt>0</asrwt>
<pdfrwt beam="1">  1       21 0.14003309E-01 0.25350064E+03</pdfrwt>
<pdfrwt beam="2">  1       21 0.12037661E+00 0.25350064E+03</pdfrwt>
<totfact> 0.22505588E+04</totfact>
</mgrwt>
</event>
<event>
 5    0  0.2549625E+000  0.2834274E+03  0.7546771E-02  0.1093832E+00
         21   -1    0    0  502  501  0.00000000000E+00  0.00000000000E+00  0.13076170450E+04  0.13076170450E+04  0.00000000000E+00 0.  1.
         21   -1    0    0  503  502 -0.00000000000E+00 -0.00000000000E+00 -0.66553530630E+02  0.66553530630E+02  0.00000000000E+00 0.  1.
         25    1    1    2    0    0  0.24427464139E+03  0.11776949683E+03  0.59032777854E+03  0.66155244760E+03  0.12500000000E+03 0.  0.
         21    1    1    2  503  504 -0.33192880028E+02 -0.86258537011E+00  0.18635642113E+03  0.18929138130E+03  0.00000000000E+00 0.  1.
         21    1    1    2  504  501 -0.21108176136E+03 -0.11690691146E+03  0.46437931474E+03  0.52332674677E+03  0.00000000000E+00 0.  1.
<mgrwt>
<rscale>  4 0.28342738E+03</rscale>
<asrwt>0</asrwt>
<pdfrwt beam="1">  1       21 0.20117183E+00 0.28342738E+03</pdfrwt>
<pdfrwt beam="2">  1       21 0.10239006E-01 0.28342738E+03</pdfrwt>
<totfact> 0.96275380E+03</totfact>
</mgrwt>
</event>
<event>
 5    0  0.2926055E+000  0.2311219E+03  0.7546771E-02  0.1125853E+00
         21   -1    0    0  502  501  0.00000000000E+00  0.00000000000E+00  0.61815799099E+03  0.61815799099E+03  0.00000000000E+00 0.  1.
         21   -1    0    0  503  502 -0.00000000000E+00 -0.00000000000E+00 -0.13622712079E+03  0.13622712079E+03  0.00000000000E+00 0.  1.
         25    1    1    2    0    0  0.15767461759E+03 -0.13772293834E+03  0.24714143059E+02  0.24508096957E+03  0.12500000000E+03 0.  0.
         21    1    1    2  503  504 -0.13598426344E+03  0.13523272505E+03  0.44433152022E+03  0.48395259033E+03  0.00000000000E+00 0.  1.
         21    1    1    2  504  501 -0.21690354149E+02  0.24902132945E+01  0.12885206924E+02  0.25351551882E+02  0.00000000000E+00 0.  1.
<mgrwt>
<rscale>  4 0.23112187E+03</rscale>
<asrwt>0</asrwt>
<pdfrwt beam="1">  1       21 0.95101228E-01 0.23112187E+03</pdfrwt>
<pdfrwt beam="2">  1       21 0.20958019E-01 0.23112187E+03</pdfrwt>
<totfact> 0.19101992E+04</totfact>
</mgrwt>
</event>
<event>
 5    0  0.1978139E+000  0.2518934E+03  0.7546771E-02  0.1112114E+00
         21   -1    0    0  502  501  0.00000000000E+00  0.00000000000E+00  0.55921769552E+02  0.55921769552E+02  0.00000000000E+00 0.  1.
         21   -1    0    0  503  502 -0.00000000000E+00 -0.00000000000E+00 -0.10366806705E+04  0.10366806705E+04  0.00000000000E+00 0.  1.
         25    1    1    2    0    0  0.21622007768E+03 -0.32774172235E+02 -0.42344237995E+03  0.49270043383E+03  0.12500000000E+03 0.  0.
         21    1    1    2  503  504 -0.26437552055E+02  0.17246023291E+02 -0.77225664362E+02  0.83427649578E+02  0.00000000000E+00 0.  1.
         21    1    1    2  504  501 -0.18978252563E+03  0.15528148944E+02 -0.48009085662E+03  0.51647435663E+03  0.00000000000E+00 0.  1.
<mgrwt>
<rscale>  4 0.25189337E+03</rscale>
<asrwt>0</asrwt>
<pdfrwt beam="1">  1       21 0.86033495E-02 0.25189337E+03</pdfrwt>
<pdfrwt beam="2">  1       21 0.15948933E+00 0.25189337E+03</pdfrwt>
<totfact> 0.25907001E+04</totfact>
</mgrwt>
</event>
<event>
 5    0  0.1482528E+001  0.3336991E+03  0.7546771E-02  0.1069512E+00
         21   -1    0    0  502  501  0.00000000000E+00  0.00000000000E+00  0.16572475573E+04  0.16572475573E+04  0.00000000000E+00 0. -1.
         21   -1    0    0  503  502 -0.00000000000E+00 -0.00000000000E+00 -0.66471582987E+02  0.66471582987E+02  0.00000000000E+00 0. -1.
         25    1    1    2    0    0  0.30546483237E+03  0.49207192887E+02  0.98704513963E+03  0.10419276459E+04  0.12500000000E+03 0.  0.
         21    1    1    2  503  504 -0.27628092710E+03 -0.35729232591E+02  0.49054733989E+03  0.56413156392E+03  0.00000000000E+00 0. -1.
         21    1    1    2  504  501 -0.29183905273E+02 -0.13477960296E+02  0.11318349482E+03  0.11765993048E+03  0.00000000000E+00 0.  1.
<mgrwt>
<rscale>  4 0.33369913E+03</rscale>
<asrwt>0</asrwt>
<pdfrwt beam="1">  1       21 0.25496113E+00 0.33369913E+03</pdfrwt>
<pdfrwt beam="2">  1       21 0.10226399E-01 0.33369913E+03</pdfrwt>
<totfact> 0.43319229E+03</totfact>
</mgrwt>
</event>
<event>
 5    0  0.1856407E+000  0.3421445E+03  0.7546771E-02  0.1065886E+00
         21   -1    0    0  502  501  0.00000000000E+00  0.00000000000E+00  0.27825052551E+03  0.27825052551E+03  0.00000000000E+00 0.  1.
         21   -1    0    0  503  502 -0.00000000000E+00 -0.00000000000E+00 -0.73678535721E+03  0.73678535721E+03  0.00000000000E+00 0. -1.
         25    1    1    2    0    0  0.28713629081E+03  0.13780651149E+03  0.10928827765E+03  0.35917518253E+03  0.12500000000E+03 0.  0.
         21    1    1    2  503  504 -0.18323868631E+03 -0.68293082493E+02 -0.27470211771E+03  0.33719670039E+03  0.00000000000E+00 0. -1.
         21    1    1    2  504  501 -0.10389760450E+03 -0.69513428997E+02 -0.29312099164E+03  0.31866399980E+03  0.00000000000E+00 0. -1.
<mgrwt>
<rscale>  4 0.34214454E+03</rscale>
<asrwt>0</asrwt>
<pdfrwt beam="1">  1       21 0.42807774E-01 0.34214454E+03</pdfrwt>
<pdfrwt beam="2">  1       21 0.11335159E+00 0.34214454E+03</pdfrwt>
<totfact> 0.28908052E+03</totfact>
</mgrwt>
</event>
<event>
 5    0  0.1856407E+000  0.2529653E+03  0.7546771E-02  0.1111445E+00
         21   -1    0    0  502  501  0.00000000000E+00  0.00000000000E+00  0.14625061333E+03  0.14625061333E+03  0.00000000000E+00 0. -1.
         21   -1    0    0  503  502 -0.00000000000E+00 -0.00000000000E+00 -0.45909225492E+03  0.45909225492E+03  0.00000000000E+00 0. -1.
         25    1    1    2    0    0 -0.19671095688E+03  0.98342522034E+02 -0.45258638942E+02  0.25698209392E+03  0.12500000000E+03 0.  0.
         21    1    1    2  503  504  0.16477214231E+03 -0.88988536965E+02 -0.24396651361E+03  0.30755239937E+03  0.00000000000E+00 0. -1.
         21    1    1    2  504  501  0.31938814575E+02 -0.93539850690E+01 -0.23616489027E+02  0.40808374962E+02  0.00000000000E+00 0. -1.
<mgrwt>
<rscale>  4 0.25296532E+03</rscale>
<asrwt>0</asrwt>
<pdfrwt beam="1">  1       21 0.22500094E-01 0.25296532E+03</pdfrwt>
<pdfrwt beam="2">  1       21 0.70629579E-01 0.25296532E+03</pdfrwt>
<totfact> 0.32625582E+04</totfact>
</mgrwt>
</event>
<event>
 5    0  0.1856407E+000  0.2478679E+03  0.7546771E-02  0.1114660E+00
         21   -1    0    0  502  501  0.00000000000E+00  0.00000000000E+00  0.33894382577E+03  0.33894382577E+03  0.00000000000E+00 0.  1.
         21   -1    0    0  503  502 -0.00000000000E+00 -0.00000000000E+00 -0.29881472253E+03  0.29881472253E+03  0.00000000000E+00 0.  1.
         25    1    1    2    0    0 -0.25939972428E+03  0.19430273271E+02 -0.37005126217E+02  0.29096414185E+03  0.12500000000E+03 0.  0.
         21    1    1    2  503  504  0.18625484601E+03  0.35971877218E+02 -0.44095371673E+02  0.19475432066E+03  0.00000000000E+00 0.  1.
         21    1    1    2  504  501  0.73144878265E+02 -0.55402150489E+02  0.12122960113E+03  0.15204008579E+03  0.00000000000E+00 0.  1.
<mgrwt>
<rscale>  4 0.24786789E+03</rscale>
<asrwt>0</asrwt>
<pdfrwt beam="1">  1       21 0.52145204E-01 0.24786789E+03</pdfrwt>
<pdfrwt beam="2">  1       21 0.45971496E-01 0.24786789E+03</pdfrwt>
<totfact> 0.15330129E+04</totfact>
</mgrwt>
</event>
<event>
 5    0  0.1856407E+000  0.2676276E+03  0.7546771E-02  0.1102645E+00
         21   -1    0    0  502  501  0.00000000000E+00  0.00000000000E+00  0.18453946886E+04  0.18453946886E+04  0.00000000000E+00 0. -1.
         21   -1    0    0  503  502 -0.00000000000E+00 -0.00000000000E+00 -0.33285314242E+03  0.33285314242E+03  0.00000000000E+00 0. -1.
         25    1    1    2    0    0 -0.11975866967E+02 -0.23633894721E+03  0.17901640749E+04  0.18100585444E+04  0.12500000000E+03 0.  0.
         21    1    1    2  503  504  0.17641514943E+02  0.57610775492E+02 -0.47298417190E+02  0.76598725648E+02  0.00000000000E+00 0. -1.
         21    1    1    2  504  501 -0.56656479756E+01  0.17872817172E+03 -0.23032411145E+03  0.29159056098E+03  0.00000000000E+00 0. -1.
<mgrwt>
<rscale>  4 0.26762758E+03</rscale>
<asrwt>0</asrwt>
<pdfrwt beam="1">  1       21 0.28390687E+00 0.26762758E+03</pdfrwt>
<pdfrwt beam="2">  1       21 0.51208177E-01 0.26762758E+03</pdfrwt>
<totfact> 0.13874957E+02</totfact>
</mgrwt>
</event>
