<LesHouchesEvents version="3.0">
  <!--
  <scalesfunctionalform>
    muR  H_T/2 := sum_i mT(i)/2, i=final state
    muF1 H_T/2 := sum_i mT(i)/2, i=final state
    muF2 H_T/2 := sum_i mT(i)/2, i=final state
    QES  H_T/2 := sum_i mT(i)/2, i=final state
  </scalesfunctionalform>
HERWIG6   
  -->
  <header>
       10
  </header>
  <init>
   2212   2212 0.65000000D+04 0.65000000D+04 -1 -1   247000   247000 -3   1
 0.26475018D-02 0.51141520D-04 0.60571895D-03     66
  </init>
  <event>
  6     66 -.60571895E-03 0.12071196E+03 0.75467711E-02 0.11596838E+00
       21 -1    0    0  501  502 0.00000000E+00 0.00000000E+00 0.18331738E+03 0.18331892E+03 0.75000000E+00 0.0000E+00 0.9000E+01
       -2 -1    0    0    0  501 -.00000000E+00 -.00000000E+00 -.45502051E+03 0.45502062E+03 0.32000000E+00 0.0000E+00 0.9000E+01
       25  1    1    2    0    0 -.18640014E+02 -.62113712E+02 -.34006671E+02 0.14486896E+03 0.12500000E+03 0.0000E+00 0.9000E+01
       23  1    1    2    0    0 0.35574637E+02 -.56436865E+02 -.32123184E+03 0.34052286E+03 0.91188000E+02 0.0000E+00 0.9000E+01
       -2  1    1    2    0  503 0.62952373E+00 -.18081234E+01 0.11329621E+02 0.11494709E+02 0.32000000E+00 0.0000E+00 0.9000E+01
       21  1    1    2  503  502 -.17564146E+02 0.12035870E+03 0.72205764E+02 0.14145300E+03 0.75000000E+00 0.0000E+00 0.9000E+01
#aMCatNLO 2  0  0  5  1 0.11659223D+02 0.00000000D+00  -5  6  0 0.00000000D+00 0.00000000D+00 0.00000000D+00 0.00000000D+00 0.00000000D+00
  <mgrwgt>
 -.3112100295D-03    2    2    0
 0.288814289072389D+03 0.000000000000000D+00 0.000000000000000D+00 0.288814289072389D+03
 0.288814289072389D+03 -.000000000000000D+00 -.000000000000000D+00 -.288814289072389D+03
 0.144192221916310D+03 -.185348086380670D+02 -.628502027249721D+02 0.295416612150102D+02
 0.226915266324382D+03 0.357396311791241D+02 -.575919061600093D+02 -.196420818283353D+03
 0.206521089904086D+03 -.172048225410571D+02 0.120442108884981D+03 0.166879157068343D+03
 0.000000000000000D+00 -.000000000000000D+00 0.000000000000000D+00 0.000000000000000D+00
 0.288814289072389D+03 0.000000000000000D+00 0.000000000000000D+00 0.288814289072389D+03
 0.288814289072389D+03 -.000000000000000D+00 -.000000000000000D+00 -.288814289072389D+03
 0.144102849089896D+03 -.186357444911193D+02 -.621436027600661D+02 0.305206942759528D+02
 0.225281849242740D+03 0.355813110890572D+02 -.564835886821033D+02 -.194885183544063D+03
 0.174164980418822D+02 0.604795901894954D+00 -.172660216841764D+01 0.173201463882942D+02
 0.190827381770259D+03 -.175503624998328D+02 0.120353793610587D+03 0.147044342879816D+03
-.114918492246D-05 0.000000000000D+00 0.000000000000D+00 0.139174076786D-06 0.000000000000D+00  6 21 -2 25 23 -2 21 4 0.28202801D-01 0.70003282D-01 0.35589133D+05 0.35589133D+05 0.35589133D+05 0.12071875D+01  1  2 13  3  6  5       -2 -.456831953642D-03 0.100000000000D+01
0.366319646016D-06 0.000000000000D+00 0.000000000000D+00 0.139222427978D-06 0.196004983414D-07  6 21 -2 25 23 -2 21 4 0.28202801D-01 0.70003282D-01 0.35589133D+05 0.35589133D+05 0.35589133D+05 0.12071875D+01  1  2  1  3  6  5       -2 0.145621924093D-03 0.100000000000D+01
  </mgrwgt>
  </event>
  <event>
  5     66 -.60571895E-03 0.23114872E+02 0.75467711E-02 0.11865666E+00
       21 -1    0    0  501  502 0.00000000E+00 0.00000000E+00 0.27904928E+02 0.27915005E+02 0.75000000E+00 0.0000E+00 0.9000E+01
       -2 -1    0    0    0  501 0.00000000E+00 0.00000000E+00 -.12346649E+04 0.12346649E+04 0.32000000E+00 0.0000E+00 0.9000E+01
       25  1    1    2    0    0 0.90843481E+02 0.23907893E+02 -.63888745E+03 0.65774334E+03 0.12500000E+03 0.0000E+00 0.9000E+01
       23  1    1    2    0    0 -.10304977E+03 -.43536775E+02 -.56300926E+03 0.58121371E+03 0.91188000E+02 0.0000E+00 0.9000E+01
       -2  1    1    2    0  502 0.12206286E+02 0.19628883E+02 -.48632398E+01 0.23622869E+02 0.32000000E+00 0.0000E+00 0.9000E+01
#aMCatNLO 1  0  0  2  1 0.69157258D-02 0.00000000D+00  -5  6  0 0.00000000D+00 0.00000000D+00 0.00000000D+00 0.00000000D+00 0.00000000D+00
  <mgrwgt>
 -.5198120780D-03    1    2    0
 0.185633029881383D+03 0.000000000000000D+00 0.000000000000000D+00 0.185633029881383D+03
 0.185633029881383D+03 0.000000000000000D+00 0.000000000000000D+00 -.185633029881383D+03
 0.160180958333939D+03 0.908434165306206D+02 0.239077886562563D+02 -.347682430874949D+02
 0.146557397588993D+03 -.103049826573242D+03 -.435368707487031D+02 -.254773148642802D+02
 0.645277038398338D+02 0.122064100426210D+02 0.196290820924468D+02 0.602455579517750D+02
 0.000000000000000D+00 0.000000000000000D+00 -.000000000000000D+00 0.000000000000000D+00
 0.188747866299037D+03 0.000000000000000D+00 0.000000000000000D+00 0.188747866299037D+03
 0.185864410773302D+03 0.000000000000000D+00 0.000000000000000D+00 -.185864410773302D+03
 0.160025440961628D+03 0.904118175875775D+02 0.244951886721248D+02 -.347682430874949D+02
 0.146676982448428D+03 -.103445070543276D+03 -.429989493334344D+02 -.254773148642802D+02
 0.645674841370602D+02 0.120324055667412D+02 0.198658997064389D+02 0.602455579517750D+02
 0.334236952522309D+01 0.100084738895748D+01 -.136213904512926D+01 0.288345552573494D+01
-.482429945787D-06 0.000000000000D+00 0.000000000000D+00 0.107886358219D-05 0.000000000000D+00  6 21 -2 25 23 -2 21 4 0.42938441D-02 0.18994922D+00 0.26212083D+05 0.26212083D+05 0.26212083D+05 0.12210993D+01  1  2 14  2  6  2       -2 -.519812078012D-03 0.100000000000D+01
  </mgrwgt>
  </event>
  <event>
  5     66 0.60571895E-03 0.44298686E+02 0.75467711E-02 0.11488554E+00
       21 -1    0    0  501  502 0.00000000E+00 0.00000000E+00 0.43145458E+03 0.43145523E+03 0.75000000E+00 0.0000E+00 0.9000E+01
       -2 -1    0    0    0  501 0.00000000E+00 0.00000000E+00 -.21396917E+03 0.21396941E+03 0.32000000E+00 0.0000E+00 0.9000E+01
       25  1    1    2    0    0 -.26757341E+02 -.62101505E+02 -.79880801E+02 0.16302912E+03 0.12500000E+03 0.0000E+00 0.9000E+01
       23  1    1    2    0    0 0.71045789E+02 0.61150243E+02 -.44143571E+02 0.13802450E+03 0.91188000E+02 0.0000E+00 0.9000E+01
       -2  1    1    2    0  502 -.44288448E+02 0.95126242E+00 0.34150977E+03 0.34437102E+03 0.32000000E+00 0.0000E+00 0.9000E+01
#aMCatNLO 1  0  0  1  2 0.76592553D+02 0.00000000D+00  -5  6  0 0.00000000D+00 0.00000000D+00 0.00000000D+00 0.00000000D+00 0.00000000D+00
  <mgrwgt>
 0.8238952869D-02   14    4    0
 0.303839212145153D+03 0.000000000000000D+00 0.000000000000000D+00 0.303839212145153D+03
 0.303839212145153D+03 0.000000000000000D+00 0.000000000000000D+00 -.303839212145153D+03
 0.201744778728869D+03 -.267573282262328D+02 -.621015056715051D+02 -.143190097855565D+03
 0.162396777495471D+03 0.710457990988578D+02 0.611502427623208D+02 -.962839770544795D+02
 0.243536868065965D+03 -.442884708726249D+02 0.951262909184219D+00 0.239474074910044D+03
 0.000000000000000D+00 0.000000000000000D+00 0.000000000000000D+00 0.000000000000000D+00
 0.384715039581894D+03 0.000000000000000D+00 0.000000000000000D+00 0.384715039581894D+03
 0.319320555767053D+03 0.000000000000000D+00 0.000000000000000D+00 -.319320555767053D+03
 0.210111234639962D+03 -.393848048471459D+02 -.804186790813870D+02 -.143190097855565D+03
 0.153522844449539D+03 0.613597255423069D+02 0.470998117599480D+02 -.962839770544795D+02
 0.247601172393990D+03 -.593467289099919D+02 -.208919550195975D+02 0.239474074910044D+03
 0.928003438654570D+02 0.373718082148310D+02 0.542108223410366D+02 0.653944838148412D+02
 0.303839212145153D+03 0.000000000000000D+00 0.000000000000000D+00 0.303839212145153D+03
 0.303839212145153D+03 0.000000000000000D+00 0.000000000000000D+00 -.303839212145153D+03
 0.201744778728869D+03 -.267573282262328D+02 -.621015056715051D+02 -.143190097855565D+03
 0.162396777495471D+03 0.710457990988578D+02 0.611502427623208D+02 -.962839770544795D+02
 0.000000000000000D+00 0.000000000000000D+00 0.000000000000000D+00 0.000000000000000D+00
 0.243536868065965D+03 -.442884708726249D+02 0.951262909184219D+00 0.239474074910044D+03
 0.384715039581894D+03 0.000000000000000D+00 0.000000000000000D+00 0.384715039581894D+03
 0.319320555767053D+03 0.000000000000000D+00 0.000000000000000D+00 -.319320555767053D+03
 0.210111234639962D+03 -.393848048471459D+02 -.804186790813870D+02 -.143190097855565D+03
 0.153522844449539D+03 0.613597255423069D+02 0.470998117599480D+02 -.962839770544795D+02
 0.928003438654570D+02 0.373718082148310D+02 0.542108223410366D+02 0.653944838148412D+02
 0.247601172393990D+03 -.593467289099919D+02 -.208919550195975D+02 0.239474074910044D+03
0.154494625540D-04 0.000000000000D+00 0.000000000000D+00 0.306801873044D-05 0.000000000000D+00  6 21 -2 25 23 -2 21 2 0.66377696D-01 0.32918403D-01 0.25152661D+05 0.25152661D+05 0.25152661D+05 0.12230143D+01  1  2  2  1  6  1       21 0.337354832825D-02 0.100000000000D+01
0.275973433561D-05 0.815290537815D-06 -.311880137090D-07 0.306801873044D-05 0.000000000000D+00  6 21 -2 25 23 -2 21 4 0.66377696D-01 0.32918403D-01 0.25152661D+05 0.25152661D+05 0.25152661D+05 0.12230143D+01  1  2  3  1  6  1       21 0.901371650574D-03 0.100000000000D+01
0.161839499873D-05 0.000000000000D+00 0.000000000000D+00 0.306801873044D-05 0.000000000000D+00  6 21 -2 25 23 -2 21 4 0.66377696D-01 0.32918403D-01 0.25152661D+05 0.25152661D+05 0.25152661D+05 0.12230143D+01  1  2 15  1  6  1       21 0.528592680995D-03 0.100000000000D+01
-.158226216031D-04 0.000000000000D+00 0.000000000000D+00 0.306801873044D-05 0.000000000000D+00  6 21 -2 25 23 -2 21 4 0.66377696D-01 0.32918403D-01 0.25152661D+05 0.25152661D+05 0.25152661D+05 0.12230143D+01  1  2  4  1  6  1       21 -.516791140611D-02 0.100000000000D+01
-.821316605732D-04 0.000000000000D+00 -.230863233344D-04 0.306801873044D-05 0.000000000000D+00  6 21 -2 25 23 -2 21 4 0.86950724D-01 0.32918403D-01 0.25152661D+05 0.25152661D+05 0.25152661D+05 0.12230143D+01  1  2  5  1  6  1       21 -.147038443458D-01 0.100000000000D+01
0.758463364514D-04 0.000000000000D+00 0.200394402402D-04 0.306801873044D-05 0.000000000000D+00  6 21 -2 25 23 -2 21 4 0.66377696D-01 0.32918403D-01 0.25152661D+05 0.25152661D+05 0.25152661D+05 0.12230143D+01  1  2  6  1  6  1       21 0.247725792281D-01 0.100000000000D+01
-.609532350120D-05 0.000000000000D+00 -.190922348289D-05 0.306801873044D-05 0.000000000000D+00  6 -1 -2 25 23 -2 -1 4 0.86950724D-01 0.32918403D-01 0.25152661D+05 0.25152661D+05 0.25152661D+05 0.12230143D+01  1  2  5  4  6  1       21 -.121479712108D-03 0.100000000000D+01
-.609532350120D-05 0.000000000000D+00 -.190922348289D-05 0.306801873044D-05 0.000000000000D+00  6 -3 -2 25 23 -2 -3 4 0.86950724D-01 0.32918403D-01 0.25152661D+05 0.25152661D+05 0.25152661D+05 0.12230143D+01  1  2  5  4  6  1       21 -.576191220279D-04 0.100000000000D+01
-.609532350120D-05 0.000000000000D+00 -.190922348289D-05 0.306801873044D-05 0.000000000000D+00  6 1 -2 25 23 1 -2 4 0.86950724D-01 0.32918403D-01 0.25152661D+05 0.25152661D+05 0.25152661D+05 0.12230143D+01  3  4  5  5  5  1       21 -.401497604227D-03 0.100000000000D+01
-.609532350120D-05 0.000000000000D+00 -.190922348289D-05 0.306801873044D-05 0.000000000000D+00  6 3 -2 25 23 3 -2 4 0.86950724D-01 0.32918403D-01 0.25152661D+05 0.25152661D+05 0.25152661D+05 0.12230143D+01  3  4  5  5  5  1       21 -.577059838713D-04 0.100000000000D+01
-.609532350120D-05 0.000000000000D+00 -.190922348289D-05 0.306801873044D-05 0.000000000000D+00  6 -2 -2 25 23 -2 -2 4 0.86950724D-01 0.32918403D-01 0.25152661D+05 0.25152661D+05 0.25152661D+05 0.12230143D+01  1  2  5  6  6  1       21 -.916739394879D-04 0.100000000000D+01
-.609532350120D-05 0.000000000000D+00 -.190922348289D-05 0.306801873044D-05 0.000000000000D+00  6 2 -2 25 23 2 -2 4 0.86950724D-01 0.32918403D-01 0.25152661D+05 0.25152661D+05 0.25152661D+05 0.12230143D+01  3  4  5  7  5  1       21 -.642611422303D-03 0.100000000000D+01
-.609532350120D-05 0.000000000000D+00 -.190922348289D-05 0.306801873044D-05 0.000000000000D+00  6 -4 -2 25 23 -2 -4 4 0.86950724D-01 0.32918403D-01 0.25152661D+05 0.25152661D+05 0.25152661D+05 0.12230143D+01  1  2  5  8  6  1       21 -.463977413007D-04 0.100000000000D+01
-.609532350120D-05 0.000000000000D+00 -.190922348289D-05 0.306801873044D-05 0.000000000000D+00  6 4 -2 25 23 4 -2 4 0.86950724D-01 0.32918403D-01 0.25152661D+05 0.25152661D+05 0.25152661D+05 0.12230143D+01  3  4  5  9  5  1       21 -.463977413007D-04 0.100000000000D+01
  </mgrwgt>
  </event>
  <event>
  5     66 -.60571895E-03 0.47314914E+02 0.75467711E-02 0.11847267E+00
       21 -1    0    0  501  502 0.00000000E+00 0.00000000E+00 0.99351478E+02 0.99354309E+02 0.75000000E+00 0.0000E+00 0.9000E+01
       -4 -1    0    0    0  501 -.00000000E+00 -.00000000E+00 -.38482626E+03 0.38482938E+03 0.15500000E+01 0.0000E+00 0.9000E+01
       25  1    1    2    0    0 0.69253934E+02 -.86529560E+02 -.27381206E+03 0.32075149E+03 0.12500000E+03 0.0000E+00 0.9000E+01
       23  1    1    2    0    0 -.58202101E+02 0.40537999E+02 -.11598644E+02 0.11610596E+03 0.91188000E+02 0.0000E+00 0.9000E+01
       -4  1    1    2    0  502 -.11051834E+02 0.45991562E+02 -.64076885E-01 0.47326244E+02 0.15500000E+01 0.0000E+00 0.9000E+01
#aMCatNLO 1  0  0  5  1 0.10068566D+02 0.00000000D+00  -5  6  0 0.00000000D+00 0.00000000D+00 0.00000000D+00 0.00000000D+00 0.00000000D+00
  <mgrwgt>
 -.7352956582D-02    7    2    0
 0.195536439066681D+03 0.000000000000000D+00 0.000000000000000D+00 0.195536439066681D+03
 0.195536439066681D+03 -.000000000000000D+00 -.000000000000000D+00 -.195536439066681D+03
 0.197250018268465D+03 0.692558888481772D+02 -.865376940471344D+02 -.104868580021678D+03
 0.135278523740500D+03 -.582007600325891D+02 0.405324202522619D+02 0.703904970967812D+02
 0.585443361243980D+02 -.110551288155882D+02 0.460052737948725D+02 0.344780829248968D+02
 0.000000000000000D+00 0.000000000000000D+00 0.000000000000000D+00 0.000000000000000D+00
 0.195536439066681D+03 0.000000000000000D+00 0.000000000000000D+00 0.195536439066681D+03
 0.195536439066681D+03 -.000000000000000D+00 -.000000000000000D+00 -.195536439066681D+03
 0.195698780226003D+03 0.688499195358302D+02 -.848482764312574D+02 -.103602466903545D+03
 0.136209041406764D+03 -.584812434455831D+02 0.416996356167283D+02 0.712652522021790D+02
 0.407264901584133D+02 -.607045063547274D+01 0.372017959216723D+02 0.154215112718522D+02
 0.184385663421815D+02 -.429822545477429D+01 0.594684489285670D+01 0.169157034295138D+02
0.140274905792D-05 0.000000000000D+00 0.000000000000D+00 0.153371314805D-06 0.000000000000D+00  6 21 -4 25 23 -4 21 2 0.15285301D-01 0.59204498D-01 0.27208629D+05 0.27208629D+05 0.27208629D+05 0.12193753D+01  1  2  2  3  6  5       -4 0.900237877348D-03 0.100000000000D+01
0.208433326454D-08 0.740251015110D-07 -.283174619801D-08 0.153371314805D-06 0.000000000000D+00  6 21 -4 25 23 -4 21 4 0.15285301D-01 0.59204498D-01 0.27208629D+05 0.27208629D+05 0.27208629D+05 0.12193753D+01  1  2  3  3  6  5       -4 0.198892891284D-05 0.100000000000D+01
0.145498946276D-06 0.000000000000D+00 0.000000000000D+00 0.153371314805D-06 0.000000000000D+00  6 21 -4 25 23 -4 21 4 0.15285301D-01 0.59204498D-01 0.27208629D+05 0.27208629D+05 0.27208629D+05 0.12193753D+01  1  2 15  3  6  5       -4 0.138839151089D-03 0.100000000000D+01
0.195064313629D-05 0.000000000000D+00 0.000000000000D+00 0.153566816319D-06 0.000000000000D+00  6 21 -4 25 23 -4 21 4 0.15285301D-01 0.59204498D-01 0.26754389D+05 0.26754389D+05 0.26754389D+05 0.12201522D+01  1  2 12  3  6  5       -4 0.186532360499D-02 0.100000000000D+01
-.118285156479D-04 0.000000000000D+00 0.000000000000D+00 0.153371314805D-06 0.000000000000D+00  6 21 -4 25 23 -4 21 4 0.15285301D-01 0.59204498D-01 0.27208629D+05 0.27208629D+05 0.27208629D+05 0.12193753D+01  1  2  4  3  6  5       -4 -.112870994137D-01 0.100000000000D+01
-.185363670655D-05 0.000000000000D+00 0.000000000000D+00 0.153371314805D-06 0.000000000000D+00  6 21 -4 25 23 -4 21 4 0.15285301D-01 0.59204498D-01 0.27208629D+05 0.27208629D+05 0.27208629D+05 0.12193753D+01  1  2  5  3  6  5       -4 -.176879182533D-02 0.100000000000D+01
0.293068893969D-05 0.000000000000D+00 -.000000000000D+00 0.153371314805D-06 0.000000000000D+00  6 21 -4 25 23 -4 21 4 0.15285301D-01 0.59204498D-01 0.27208629D+05 0.27208629D+05 0.27208629D+05 0.12193753D+01  1  2  6  3  6  5       -4 0.279654509472D-02 0.100000000000D+01
  </mgrwgt>
  </event>
  <event>
  5     66 0.60571895E-03 0.11482104E+03 0.75467711E-02 0.10811159E+00
       21 -1    0    0  501  502 0.00000000E+00 0.00000000E+00 0.12389359E+03 0.12389586E+03 0.75000000E+00 0.0000E+00 0.9000E+01
       -2 -1    0    0    0  501 0.00000000E+00 0.00000000E+00 -.10705892E+04 0.10705893E+04 0.32000000E+00 0.0000E+00 0.9000E+01
       25  1    1    2    0    0 -.54688626E+02 0.26891772E+03 -.14879966E+03 0.33626466E+03 0.12500000E+03 0.0000E+00 0.9000E+01
       23  1    1    2    0    0 -.16990348E+02 -.14697364E+03 -.47056963E+03 0.50163827E+03 0.91188000E+02 0.0000E+00 0.9000E+01
       -2  1    1    2    0  502 0.71678974E+02 -.12194407E+03 -.32732633E+03 0.35658219E+03 0.32000000E+00 0.0000E+00 0.9000E+01
#aMCatNLO 1  0  0  1  2 0.63423716D+03 0.00000000D+00  -5  6  0 0.00000000D+00 0.00000000D+00 0.00000000D+00 0.00000000D+00 0.00000000D+00
  <mgrwgt>
 0.4191911778D-03    1    2    0
 0.364198474004653D+03 0.000000000000000D+00 0.000000000000000D+00 0.364198474004653D+03
 0.364198474004653D+03 0.000000000000000D+00 0.000000000000000D+00 -.364198474004653D+03
 0.358040012698269D+03 -.546886973034895D+02 0.268917837128304D+03 0.193028479646032D+03
 0.211029424717928D+03 -.169903895054730D+02 -.146973570036597D+03 -.119700723172125D+03
 0.159327510593108D+03 0.716790868089625D+02 -.121944267091708D+03 -.733277564739067D+02
 0.000000000000000D+00 0.000000000000000D+00 0.000000000000000D+00 0.000000000000000D+00
 0.376217971263691D+03 0.000000000000000D+00 0.000000000000000D+00 0.376217971263691D+03
 0.365730336093385D+03 0.000000000000000D+00 0.000000000000000D+00 -.365730336093385D+03
 0.355998384200448D+03 -.572743813316361D+02 0.265649206364238D+03 0.193028479646032D+03
 0.212512498057537D+03 -.185241243714516D+02 -.148912404369132D+03 -.119700723172125D+03
 0.159935697813269D+03 0.705229672188442D+02 -.123405748083996D+03 -.733277564739067D+02
 0.135017272858217D+02 0.527553848424345D+01 0.666894608889006D+01 0.104876351703064D+02
0.453529747193D-05 0.000000000000D+00 0.000000000000D+00 0.723900840437D-08 0.000000000000D+00  6 21 -2 25 23 -2 21 4 0.19060731D-01 0.16470621D+00 0.95109761D+05 0.95109761D+05 0.95109761D+05 0.11655773D+01  1  2 14  1  6  1       21 0.419191177754D-03 0.100000000000D+01
  </mgrwgt>
  </event>
  <event>
  5     66 0.60571895E-03 0.52001360E+02 0.75467711E-02 0.11902836E+00
       21 -1    0    0  501  502 0.00000000E+00 0.00000000E+00 0.29173935E+03 0.29174031E+03 0.75000000E+00 0.0000E+00 0.9000E+01
       -2 -1    0    0    0  501 0.00000000E+00 0.00000000E+00 -.16984927E+03 0.16984957E+03 0.32000000E+00 0.0000E+00 0.9000E+01
       25  1    1    2    0    0 -.95563173E+02 0.29511311E+02 -.97145171E+02 0.18725763E+03 0.12500000E+03 0.0000E+00 0.9000E+01
       23  1    1    2    0    0 0.43854953E+02 -.35022891E+02 0.10988286E+03 0.15342540E+03 0.91188000E+02 0.0000E+00 0.9000E+01
       -2  1    1    2    0  502 0.51708220E+02 0.55115801E+01 0.10915239E+03 0.12090684E+03 0.32000000E+00 0.0000E+00 0.9000E+01
#aMCatNLO 1  0  0  5  1 0.52457233D+01 0.00000000D+00  -5  6  0 0.00000000D+00 0.00000000D+00 0.00000000D+00 0.00000000D+00 0.00000000D+00
  <mgrwgt>
 0.7397872768D-03    7    2    0
 0.222602799440608D+03 0.000000000000000D+00 0.000000000000000D+00 0.222602799440608D+03
 0.222602799440608D+03 -.000000000000000D+00 -.000000000000000D+00 -.222602799440608D+03
 0.220746004401440D+03 -.955633170369565D+02 0.295112960525172D+02 -.151988599248086D+03
 0.128987457851488D+03 0.438548686920403D+02 -.350229004546369D+02 0.719212060155961D+02
 0.954721366282880D+02 0.517084483449163D+02 0.551160440211967D+01 0.800673932324897D+02
 0.000000000000000D+00 0.000000000000000D+00 0.000000000000000D+00 0.000000000000000D+00
 0.222602799440608D+03 0.000000000000000D+00 0.000000000000000D+00 0.222602799440608D+03
 0.222602799440608D+03 -.000000000000000D+00 -.000000000000000D+00 -.222602799440608D+03
 0.219256628233984D+03 -.945583642809556D+02 0.296184139841355D+02 -.150432490912402D+03
 0.129684043178462D+03 0.444456666068209D+02 -.349599272946970D+02 0.728360207214665D+02
 0.906357891130957D+02 0.446305095130379D+02 0.477369498467927D+01 0.787411945867818D+02
 0.562913835567429D+01 0.548218816109680D+01 0.567818325882251D+00 -.114472439584636D+01
0.614925058468D-06 0.000000000000D+00 0.000000000000D+00 0.176448484178D-06 0.000000000000D+00  6 21 -2 25 23 -2 21 2 0.44883074D-01 0.26130754D-01 0.25466557D+05 0.25466557D+05 0.25466557D+05 0.12224376D+01  1  2  2  3  6  5       -2 0.462860908994D-03 0.100000000000D+01
0.849841246164D-08 0.324504868622D-07 -.124135652528D-08 0.176448484178D-06 0.000000000000D+00  6 21 -2 25 23 -2 21 4 0.44883074D-01 0.26130754D-01 0.25466557D+05 0.25466557D+05 0.25466557D+05 0.12224376D+01  1  2  3  3  6  5       -2 0.955915591767D-05 0.100000000000D+01
0.527515278867D-07 0.000000000000D+00 0.000000000000D+00 0.176448484178D-06 0.000000000000D+00  6 21 -2 25 23 -2 21 4 0.44883074D-01 0.26130754D-01 0.25466557D+05 0.25466557D+05 0.25466557D+05 0.12224376D+01  1  2 15  3  6  5       -2 0.593357973904D-04 0.100000000000D+01
-.170452849014D-05 0.000000000000D+00 0.000000000000D+00 0.176448484178D-06 0.000000000000D+00  6 21 -2 25 23 -2 21 4 0.44883074D-01 0.26130754D-01 0.25466557D+05 0.25466557D+05 0.25466557D+05 0.12224376D+01  1  2  4  3  6  5       -2 -.191728204260D-02 0.100000000000D+01
-.260283388349D-05 0.000000000000D+00 0.000000000000D+00 0.176448484178D-06 0.000000000000D+00  6 21 -2 25 23 -2 21 4 0.44883074D-01 0.26130754D-01 0.25466557D+05 0.25466557D+05 0.25466557D+05 0.12224376D+01  1  2  5  3  6  5       -2 -.292771091452D-02 0.100000000000D+01
0.278578739057D-05 0.000000000000D+00 -.000000000000D+00 0.176448484178D-06 0.000000000000D+00  6 21 -2 25 23 -2 21 4 0.44883074D-01 0.26130754D-01 0.25466557D+05 0.25466557D+05 0.25466557D+05 0.12224376D+01  1  2  6  3  6  5       -2 0.313350006724D-02 0.100000000000D+01
0.170307907565D-05 0.000000000000D+00 0.000000000000D+00 0.176448484178D-06 0.566011485851D-07  6 21 -2 25 23 -2 21 4 0.44883074D-01 0.26130754D-01 0.25154739D+05 0.25154739D+05 0.25154739D+05 0.12230104D+01  1  2 11  3  6  5       -2 0.191952430434D-02 0.100000000000D+01
  </mgrwgt>
  </event>
  <event>
  5     66 0.60571895E-03 0.67211031E+02 0.75467711E-02 0.11580277E+00
       21 -1    0    0  501  502 0.00000000E+00 0.00000000E+00 0.24300177E+02 0.24311748E+02 0.75000000E+00 0.0000E+00 0.9000E+01
       -2 -1    0    0    0  501 0.00000000E+00 0.00000000E+00 -.11439493E+04 0.11439494E+04 0.32000000E+00 0.0000E+00 0.9000E+01
       25  1    1    2    0    0 -.19369179E+02 -.89247563E+01 -.42585975E+03 0.44433809E+03 0.12500000E+03 0.0000E+00 0.9000E+01
       23  1    1    2    0    0 0.27482576E+02 -.75175586E+02 -.44101763E+03 0.45740404E+03 0.91188000E+02 0.0000E+00 0.9000E+01
       -2  1    1    2    0  502 -.81133970E+01 0.84100343E+02 -.25277176E+03 0.26651897E+03 0.32000000E+00 0.0000E+00 0.9000E+01
#aMCatNLO 1  0  0  1  2 0.45271279D+02 0.00000000D+00  -5  6  0 0.00000000D+00 0.00000000D+00 0.00000000D+00 0.00000000D+00 0.00000000D+00
  <mgrwgt>
 0.2506230091D-02   23    4    0
 0.166748180908290D+03 0.000000000000000D+00 0.000000000000000D+00 0.166748180908290D+03
 0.166748180908290D+03 0.000000000000000D+00 0.000000000000000D+00 -.166748180908290D+03
 0.126806234067196D+03 -.193691570546557D+02 -.892498290969881D+01 -.378597166188914D-01
 0.121687672697340D+03 0.274825968675085D+02 -.751758039390780D+02 -.927058326246066D+01
 0.850024550520451D+02 -.811343981285283D+01 0.841007868487768D+02 0.930844297907955D+01
 0.000000000000000D+00 0.000000000000000D+00 0.000000000000000D+00 0.000000000000000D+00
 0.224375428857995D+03 0.000000000000000D+00 0.000000000000000D+00 0.224375428857995D+03
 0.177411069051002D+03 0.000000000000000D+00 0.000000000000000D+00 -.177411069051002D+03
 0.130651138965230D+03 -.367458392245628D+02 -.971915527379528D+01 -.378597166188914D-01
 0.119542857040229D+03 0.112011200717357D+02 -.759199217626907D+02 -.927058326246066D+01
 0.863610693865676D+02 -.196793525098252D+02 0.835721860411154D+02 0.930844297907955D+01
 0.652314325169705D+02 0.452240716626523D+02 0.206689099537055D+01 0.469643598069921D+02
 0.166748180908290D+03 0.000000000000000D+00 0.000000000000000D+00 0.166748180908290D+03
 0.166748180908290D+03 0.000000000000000D+00 0.000000000000000D+00 -.166748180908290D+03
 0.126806234067196D+03 -.193691570546557D+02 -.892498290969881D+01 -.378597166188914D-01
 0.121687672697340D+03 0.274825968675085D+02 -.751758039390780D+02 -.927058326246066D+01
 0.000000000000000D+00 0.000000000000000D+00 0.000000000000000D+00 0.000000000000000D+00
 0.850024550520451D+02 -.811343981285283D+01 0.841007868487768D+02 0.930844297907955D+01
 0.224375428857995D+03 0.000000000000000D+00 0.000000000000000D+00 0.224375428857995D+03
 0.177411069051002D+03 0.000000000000000D+00 0.000000000000000D+00 -.177411069051002D+03
 0.130651138965230D+03 -.367458392245628D+02 -.971915527379528D+01 -.378597166188914D-01
 0.119542857040229D+03 0.112011200717357D+02 -.759199217626907D+02 -.927058326246066D+01
 0.652314325169705D+02 0.452240716626523D+02 0.206689099537055D+01 0.469643598069921D+02
 0.863610693865676D+02 -.196793525098252D+02 0.835721860411154D+02 0.930844297907955D+01
0.112819634562D-05 0.000000000000D+00 0.000000000000D+00 0.155971108818D-06 0.000000000000D+00  6 21 -2 25 23 -2 21 2 0.37393823D-02 0.17599310D+00 0.27660928D+05 0.27660928D+05 0.27660928D+05 0.12186160D+01  1  2  2  1  6  1       21 0.126274671476D-02 0.100000000000D+01
-.777314842034D-07 0.595365568328D-07 -.227750337403D-08 0.155971108818D-06 0.000000000000D+00  6 21 -2 25 23 -2 21 4 0.37393823D-02 0.17599310D+00 0.27660928D+05 0.27660928D+05 0.27660928D+05 0.12186160D+01  1  2  3  1  6  1       21 -.129199925239D-03 0.100000000000D+01
0.973028704740D-07 0.000000000000D+00 0.000000000000D+00 0.155971108818D-06 0.000000000000D+00  6 21 -2 25 23 -2 21 4 0.37393823D-02 0.17599310D+00 0.27660928D+05 0.27660928D+05 0.27660928D+05 0.12186160D+01  1  2 15  1  6  1       21 0.161730137017D-03 0.100000000000D+01
0.217321565236D-05 0.000000000000D+00 0.000000000000D+00 0.152840768243D-06 0.000000000000D+00  6 21 -2 25 23 -2 21 4 0.51201551D-02 0.17599310D+00 0.36283241D+05 0.36283241D+05 0.36283241D+05 0.12063252D+01  1  2 12  1  6  1       21 0.204272321209D-02 0.100000000000D+01
-.224992138591D-05 0.000000000000D+00 0.000000000000D+00 0.155971108818D-06 0.000000000000D+00  6 21 -2 25 23 -2 21 4 0.37393823D-02 0.17599310D+00 0.27660928D+05 0.27660928D+05 0.27660928D+05 0.12186160D+01  1  2  4  1  6  1       21 -.373966453660D-02 0.100000000000D+01
-.690001232853D-05 0.000000000000D+00 -.156321331166D-05 0.155971108818D-06 0.000000000000D+00  6 21 -2 25 23 -2 21 4 0.53600473D-02 0.17599310D+00 0.27660928D+05 0.27660928D+05 0.27660928D+05 0.12186160D+01  1  2  5  1  6  1       21 -.626236553422D-02 0.100000000000D+01
0.564807735540D-05 0.000000000000D+00 0.122196578002D-05 0.155971108818D-06 0.000000000000D+00  6 21 -2 25 23 -2 21 4 0.37393823D-02 0.17599310D+00 0.27660928D+05 0.27660928D+05 0.27660928D+05 0.12186160D+01  1  2  6  1  6  1       21 0.938784560128D-02 0.100000000000D+01
0.216636790104D-06 0.000000000000D+00 0.000000000000D+00 0.152840768243D-06 0.000000000000D+00  6 -1 -2 25 23 -2 -1 4 0.51201551D-02 0.17599310D+00 0.36283241D+05 0.36283241D+05 0.36283241D+05 0.12063252D+01  1  2 12  4  6  1       21 0.118287571543D-04 0.100000000000D+01
0.216636790104D-06 0.000000000000D+00 0.000000000000D+00 0.152840768243D-06 0.000000000000D+00  6 -3 -2 25 23 -2 -3 4 0.51201551D-02 0.17599310D+00 0.36283241D+05 0.36283241D+05 0.36283241D+05 0.12063252D+01  1  2 12  4  6  1       21 0.850631595972D-05 0.100000000000D+01
-.808176815585D-06 0.000000000000D+00 -.184120116825D-06 0.155971108818D-06 0.000000000000D+00  6 -1 -2 25 23 -2 -1 4 0.53600473D-02 0.17599310D+00 0.27660928D+05 0.27660928D+05 0.27660928D+05 0.12186160D+01  1  2  5  4  6  1       21 -.427968645098D-04 0.100000000000D+01
-.808176815585D-06 0.000000000000D+00 -.184120116825D-06 0.155971108818D-06 0.000000000000D+00  6 -3 -2 25 23 -2 -3 4 0.53600473D-02 0.17599310D+00 0.27660928D+05 0.27660928D+05 0.27660928D+05 0.12186160D+01  1  2  5  4  6  1       21 -.304600312738D-04 0.100000000000D+01
0.216636790104D-06 0.000000000000D+00 0.000000000000D+00 0.152840768243D-06 0.000000000000D+00  6 1 -2 25 23 1 -2 4 0.51201551D-02 0.17599310D+00 0.36283241D+05 0.36283241D+05 0.36283241D+05 0.12063252D+01  3  4 12  5  5  1       21 0.133562387437D-04 0.100000000000D+01
0.216636790104D-06 0.000000000000D+00 0.000000000000D+00 0.152840768243D-06 0.000000000000D+00  6 3 -2 25 23 3 -2 4 0.51201551D-02 0.17599310D+00 0.36283241D+05 0.36283241D+05 0.36283241D+05 0.12063252D+01  3  4 12  5  5  1       21 0.850550667453D-05 0.100000000000D+01
-.808176815585D-06 0.000000000000D+00 -.184120116825D-06 0.155971108818D-06 0.000000000000D+00  6 1 -2 25 23 1 -2 4 0.53600473D-02 0.17599310D+00 0.27660928D+05 0.27660928D+05 0.27660928D+05 0.12186160D+01  3  4  5  5  5  1       21 -.486021803016D-04 0.100000000000D+01
-.808176815585D-06 0.000000000000D+00 -.184120116825D-06 0.155971108818D-06 0.000000000000D+00  6 3 -2 25 23 3 -2 4 0.53600473D-02 0.17599310D+00 0.27660928D+05 0.27660928D+05 0.27660928D+05 0.12186160D+01  3  4  5  5  5  1       21 -.304570026009D-04 0.100000000000D+01
0.216636790104D-06 0.000000000000D+00 0.000000000000D+00 0.152840768243D-06 0.000000000000D+00  6 -2 -2 25 23 -2 -2 4 0.51201551D-02 0.17599310D+00 0.36283241D+05 0.36283241D+05 0.36283241D+05 0.12063252D+01  1  2 12  6  6  1       21 0.115600027592D-04 0.100000000000D+01
-.808176815585D-06 0.000000000000D+00 -.184120116825D-06 0.155971108818D-06 0.000000000000D+00  6 -2 -2 25 23 -2 -2 4 0.53600473D-02 0.17599310D+00 0.27660928D+05 0.27660928D+05 0.27660928D+05 0.12186160D+01  1  2  5  6  6  1       21 -.417760710409D-04 0.100000000000D+01
0.216636790104D-06 0.000000000000D+00 0.000000000000D+00 0.152840768243D-06 0.000000000000D+00  6 2 -2 25 23 2 -2 4 0.51201551D-02 0.17599310D+00 0.36283241D+05 0.36283241D+05 0.36283241D+05 0.12063252D+01  3  4 12  7  5  1       21 0.143849419211D-04 0.100000000000D+01
-.808176815585D-06 0.000000000000D+00 -.184120116825D-06 0.155971108818D-06 0.000000000000D+00  6 2 -2 25 23 2 -2 4 0.53600473D-02 0.17599310D+00 0.27660928D+05 0.27660928D+05 0.27660928D+05 0.12186160D+01  3  4  5  7  5  1       21 -.525055925664D-04 0.100000000000D+01
0.216636790104D-06 0.000000000000D+00 0.000000000000D+00 0.152840768243D-06 0.000000000000D+00  6 -4 -2 25 23 -2 -4 4 0.51201551D-02 0.17599310D+00 0.36283241D+05 0.36283241D+05 0.36283241D+05 0.12063252D+01  1  2 12  8  6  1       21 0.761925460992D-05 0.100000000000D+01
-.808176815585D-06 0.000000000000D+00 -.184120116825D-06 0.155971108818D-06 0.000000000000D+00  6 -4 -2 25 23 -2 -4 4 0.53600473D-02 0.17599310D+00 0.27660928D+05 0.27660928D+05 0.27660928D+05 0.12186160D+01  1  2  5  8  6  1       21 -.271840542584D-04 0.100000000000D+01
0.216636790104D-06 0.000000000000D+00 0.000000000000D+00 0.152840768243D-06 0.000000000000D+00  6 4 -2 25 23 4 -2 4 0.51201551D-02 0.17599310D+00 0.36283241D+05 0.36283241D+05 0.36283241D+05 0.12063252D+01  3  4 12  9  5  1       21 0.761925460992D-05 0.100000000000D+01
-.808176815585D-06 0.000000000000D+00 -.184120116825D-06 0.155971108818D-06 0.000000000000D+00  6 4 -2 25 23 4 -2 4 0.53600473D-02 0.17599310D+00 0.27660928D+05 0.27660928D+05 0.27660928D+05 0.12186160D+01  3  4  5  9  5  1       21 -.271840542584D-04 0.100000000000D+01
  </mgrwgt>
  </event>
  <event>
  6     66 -.60571895E-03 0.17789359E+02 0.75467711E-02 0.11427687E+00
       21 -1    0    0  501  502 0.00000000E+00 0.00000000E+00 0.59627658E+03 0.59627706E+03 0.75000000E+00 0.0000E+00 0.9000E+01
       -4 -1    0    0    0  501 0.00000000E+00 0.00000000E+00 -.11192079E+03 0.11193152E+03 0.15500000E+01 0.0000E+00 0.9000E+01
       25  1    1    2    0    0 -.14665144E+03 -.82591753E+02 0.15123554E+03 0.25850577E+03 0.12500000E+03 0.0000E+00 0.9000E+01
       23  1    1    2    0    0 0.12971456E+03 0.66986856E+02 0.78193077E+02 0.18905691E+03 0.91188000E+02 0.0000E+00 0.9000E+01
       -4  1    1    2    0  503 0.22833004E+02 0.58151283E+01 0.24287443E+03 0.24401958E+03 0.15500000E+01 0.0000E+00 0.9000E+01
       21  1    1    2  503  502 -.58961201E+01 0.97897686E+01 0.12052740E+02 0.16626330E+02 0.75000000E+00 0.0000E+00 0.9000E+01
#aMCatNLO 2  0  0  5  1 0.11556765D+02 0.00000000D+00  -5  6  0 0.00000000D+00 0.00000000D+00 0.00000000D+00 0.00000000D+00 0.00000000D+00
  <mgrwgt>
 -.6254876800D-03    2    2    0
 0.258340307925415D+03 0.000000000000000D+00 0.000000000000000D+00 0.258340307925415D+03
 0.258340307925415D+03 -.000000000000000D+00 -.000000000000000D+00 -.258340307925415D+03
 0.214054731005206D+03 -.147354539498552D+03 -.832395575219391D+02 -.393985230488763D+02
 0.186679619803445D+03 0.129100610279216D+03 0.664211935405498D+02 -.738599118611821D+02
 0.115946265042178D+03 0.182539292193358D+02 0.168183639813893D+02 0.113258434910058D+03
 0.000000000000000D+00 0.000000000000000D+00 0.000000000000000D+00 0.000000000000000D+00
 0.258340307925415D+03 0.000000000000000D+00 0.000000000000000D+00 0.258340307925415D+03
 0.258340307925415D+03 -.000000000000000D+00 -.000000000000000D+00 -.258340307925415D+03
 0.212539141001661D+03 -.146642709527060D+03 -.825837088326204D+02 -.349818986868253D+02
 0.185827165755254D+03 0.129722188581074D+03 0.669938883285027D+02 -.700032635310313D+02
 0.106668687478914D+03 0.229067338039222D+02 0.564660232892090D+01 0.104026949955526D+03
 0.116456216150004D+02 -.598621285793607D+01 0.994321817519682D+01 0.958212262330268D+00
-.675491457448D-05 0.000000000000D+00 0.000000000000D+00 0.109749335257D-05 0.000000000000D+00  6 21 -4 25 23 -4 21 4 0.91735721D-01 0.17219445D-01 0.41344120D+05 0.41344120D+05 0.41344120D+05 0.12005454D+01  1  2  8  3  6  5       -4 -.175062496682D-02 0.100000000000D+01
0.437408029984D-05 0.000000000000D+00 0.000000000000D+00 0.109749335257D-05 0.633911501733D-07  6 21 -4 25 23 -4 21 4 0.91735721D-01 0.17219445D-01 0.43467345D+05 0.43467345D+05 0.43467345D+05 0.11983512D+01  1  2  1  3  6  5       -4 0.112513728682D-02 0.100000000000D+01
  </mgrwgt>
  </event>
  <event>
  5     66 0.60571895E-03 0.37614083E+02 0.75467711E-02 0.10893795E+00
       21 -1    0    0  501  502 0.00000000E+00 0.00000000E+00 0.16756292E+03 0.16756460E+03 0.75000000E+00 0.0000E+00 0.9000E+01
       -4 -1    0    0    0  501 0.00000000E+00 0.00000000E+00 -.47793019E+03 0.47793270E+03 0.15500000E+01 0.0000E+00 0.9000E+01
       25  1    1    2    0    0 -.21091365E+03 -.64453722E+02 -.28253038E+03 0.37958828E+03 0.12500000E+03 0.0000E+00 0.9000E+01
       23  1    1    2    0    0 0.18685957E+03 0.35546757E+02 -.56759196E+02 0.21844205E+03 0.91188000E+02 0.0000E+00 0.9000E+01
       -4  1    1    2    0  502 0.24054077E+02 0.28906964E+02 0.28922307E+02 0.47466973E+02 0.15500000E+01 0.0000E+00 0.9000E+01
#aMCatNLO 1  0  0  1  1 0.13058990D+03 0.00000000D+00  -5  6  0 0.00000000D+00 0.00000000D+00 0.00000000D+00 0.00000000D+00 0.00000000D+00
  <mgrwgt>
 0.3422967609D-02   14    4    0
 0.282992461428410D+03 0.000000000000000D+00 0.000000000000000D+00 0.282992461428410D+03
 0.282992461428410D+03 0.000000000000000D+00 0.000000000000000D+00 -.282992461428410D+03
 0.277990418626472D+03 -.210916547332777D+03 -.644572042574218D+02 -.114075202075905D+03
 0.218001226913844D+03 0.186857300005985D+03 0.355440264088347D+02 0.550477539329504D+02
 0.699932773165037D+02 0.240592473267914D+02 0.289131778485872D+02 0.590274481429550D+02
 0.000000000000000D+00 -.000000000000000D+00 0.000000000000000D+00 0.000000000000000D+00
 0.385036097882407D+03 0.000000000000000D+00 0.000000000000000D+00 0.385036097882407D+03
 0.300405524802931D+03 0.000000000000000D+00 0.000000000000000D+00 -.300405524802931D+03
 0.263906811998976D+03 -.182577001047711D+03 -.876030386415235D+02 -.114075202075905D+03
 0.236581581430392D+03 0.210630572518556D+03 0.161276171689285D+02 0.550477539329504D+02
 0.706811935906197D+02 0.314160863252084D+02 0.229046068102570D+02 0.590274481429550D+02
 0.114272035665352D+03 -.594696577960535D+02 0.485708146623380D+02 0.846305730794760D+02
 0.282992461428410D+03 0.000000000000000D+00 0.000000000000000D+00 0.282992461428410D+03
 0.282992461428410D+03 0.000000000000000D+00 0.000000000000000D+00 -.282992461428410D+03
 0.277990418626472D+03 -.210916547332777D+03 -.644572042574218D+02 -.114075202075905D+03
 0.218001226913844D+03 0.186857300005985D+03 0.355440264088347D+02 0.550477539329504D+02
 0.000000000000000D+00 -.000000000000000D+00 0.000000000000000D+00 0.000000000000000D+00
 0.699932773165037D+02 0.240592473267914D+02 0.289131778485872D+02 0.590274481429550D+02
 0.385036097882407D+03 0.000000000000000D+00 0.000000000000000D+00 0.385036097882407D+03
 0.300405524802931D+03 0.000000000000000D+00 0.000000000000000D+00 -.300405524802931D+03
 0.263906811998976D+03 -.182577001047711D+03 -.876030386415235D+02 -.114075202075905D+03
 0.236581581430392D+03 0.210630572518556D+03 0.161276171689285D+02 0.550477539329504D+02
 0.114272035665352D+03 -.594696577960535D+02 0.485708146623380D+02 0.846305730794760D+02
 0.706811935906197D+02 0.314160863252084D+02 0.229046068102570D+02 0.590274481429550D+02
0.790979704146D-05 0.000000000000D+00 0.000000000000D+00 0.186826221195D-06 0.000000000000D+00  6 21 -4 25 23 -4 21 2 0.25779234D-01 0.73528044D-01 0.63015360D+05 0.63015360D+05 0.63015360D+05 0.11824573D+01  1  2  2  1  6  1       21 0.113839764667D-02 0.100000000000D+01
0.859329926495D-06 0.417411457610D-06 -.159676013132D-07 0.186826221195D-06 0.000000000000D+00  6 21 -4 25 23 -4 21 4 0.25779234D-01 0.73528044D-01 0.63015360D+05 0.63015360D+05 0.63015360D+05 0.11824573D+01  1  2  3  1  6  1       21 0.172925702205D-03 0.100000000000D+01
0.715985998936D-06 0.000000000000D+00 0.000000000000D+00 0.186826221195D-06 0.000000000000D+00  6 21 -4 25 23 -4 21 4 0.25779234D-01 0.73528044D-01 0.63015360D+05 0.63015360D+05 0.63015360D+05 0.11824573D+01  1  2 15  1  6  1       21 0.144080146423D-03 0.100000000000D+01
-.304776129176D-05 0.000000000000D+00 0.000000000000D+00 0.186826221195D-06 0.000000000000D+00  6 21 -4 25 23 -4 21 4 0.25779234D-01 0.73528044D-01 0.63015360D+05 0.63015360D+05 0.63015360D+05 0.11824573D+01  1  2  4  1  6  1       21 -.613310726513D-03 0.100000000000D+01
-.476573257913D-04 0.000000000000D+00 -.107428419991D-04 0.186826221195D-06 0.000000000000D+00  6 21 -4 25 23 -4 21 4 0.36865648D-01 0.73528044D-01 0.63015360D+05 0.63015360D+05 0.63015360D+05 0.11824573D+01  1  2  5  1  6  1       21 -.474348939826D-02 0.100000000000D+01
0.386454347513D-04 0.000000000000D+00 0.842324637925D-05 0.186826221195D-06 0.000000000000D+00  6 21 -4 25 23 -4 21 4 0.25779234D-01 0.73528044D-01 0.63015360D+05 0.63015360D+05 0.63015360D+05 0.11824573D+01  1  2  6  1  6  1       21 0.777674410649D-02 0.100000000000D+01
-.573056804713D-05 0.000000000000D+00 -.125527798445D-05 0.186826221195D-06 0.000000000000D+00  6 -1 -4 25 23 -4 -1 4 0.36865648D-01 0.73528044D-01 0.63015360D+05 0.63015360D+05 0.63015360D+05 0.11824573D+01  1  2  5  4  6  1       21 -.534243255422D-04 0.100000000000D+01
-.573056804713D-05 0.000000000000D+00 -.125527798445D-05 0.186826221195D-06 0.000000000000D+00  6 -3 -4 25 23 -4 -3 4 0.36865648D-01 0.73528044D-01 0.63015360D+05 0.63015360D+05 0.63015360D+05 0.11824573D+01  1  2  5  4  6  1       21 -.295548642988D-04 0.100000000000D+01
-.573056804713D-05 0.000000000000D+00 -.125527798445D-05 0.186826221195D-06 0.000000000000D+00  6 1 -4 25 23 1 -4 4 0.36865648D-01 0.73528044D-01 0.63015360D+05 0.63015360D+05 0.63015360D+05 0.11824573D+01  3  4  5  5  5  1       21 -.103401441312D-03 0.100000000000D+01
-.573056804713D-05 0.000000000000D+00 -.125527798445D-05 0.186826221195D-06 0.000000000000D+00  6 3 -4 25 23 3 -4 4 0.36865648D-01 0.73528044D-01 0.63015360D+05 0.63015360D+05 0.63015360D+05 0.11824573D+01  3  4  5  5  5  1       21 -.295594388263D-04 0.100000000000D+01
-.573056804713D-05 0.000000000000D+00 -.125527798445D-05 0.186826221195D-06 0.000000000000D+00  6 -4 -4 25 23 -4 -4 4 0.36865648D-01 0.73528044D-01 0.63015360D+05 0.63015360D+05 0.63015360D+05 0.11824573D+01  1  2  5  6  6  1       21 -.248722547528D-04 0.100000000000D+01
-.573056804713D-05 0.000000000000D+00 -.125527798445D-05 0.186826221195D-06 0.000000000000D+00  6 4 -4 25 23 4 -4 4 0.36865648D-01 0.73528044D-01 0.63015360D+05 0.63015360D+05 0.63015360D+05 0.11824573D+01  3  4  5  7  5  1       21 -.248722547528D-04 0.100000000000D+01
-.573056804713D-05 0.000000000000D+00 -.125527798445D-05 0.186826221195D-06 0.000000000000D+00  6 -2 -4 25 23 -4 -2 4 0.36865648D-01 0.73528044D-01 0.63015360D+05 0.63015360D+05 0.63015360D+05 0.11824573D+01  1  2  5  8  6  1       21 -.457790408163D-04 0.100000000000D+01
-.573056804713D-05 0.000000000000D+00 -.125527798445D-05 0.186826221195D-06 0.000000000000D+00  6 2 -4 25 23 2 -4 4 0.36865648D-01 0.73528044D-01 0.63015360D+05 0.63015360D+05 0.63015360D+05 0.11824573D+01  3  4  5  9  5  1       21 -.140916248177D-03 0.100000000000D+01
  </mgrwgt>
  </event>
  <event>
  5     66 0.60571895E-03 0.71355806E+02 0.75467711E-02 0.11951429E+00
       21 -1    0    0  501  502 0.00000000E+00 0.00000000E+00 0.71359350E+03 0.71359390E+03 0.75000000E+00 0.0000E+00 0.9000E+01
       -4 -1    0    0    0  501 0.00000000E+00 0.00000000E+00 -.55475636E+02 0.55497286E+02 0.15500000E+01 0.0000E+00 0.9000E+01
       25  1    1    2    0    0 -.75790060E+02 0.39287437E+00 0.56012567E+03 0.57888691E+03 0.12500000E+03 0.0000E+00 0.9000E+01
       23  1    1    2    0    0 0.44560168E+01 0.95372714E+00 0.48761924E+02 0.10350721E+03 0.91188000E+02 0.0000E+00 0.9000E+01
       -4  1    1    2    0  502 0.71334043E+02 -.13466015E+01 0.49230275E+02 0.86697067E+02 0.15500000E+01 0.0000E+00 0.9000E+01
#aMCatNLO 1  0  0  2  1 0.25025787D+02 0.00000000D+00  -5  6  0 0.00000000D+00 0.00000000D+00 0.00000000D+00 0.00000000D+00 0.00000000D+00
  <mgrwgt>
 0.5537080468D-03    1    2    0
 0.198986256383536D+03 0.000000000000000D+00 0.000000000000000D+00 0.198986256383536D+03
 0.198986256383536D+03 0.000000000000000D+00 0.000000000000000D+00 -.198986256383536D+03
 0.192450376412263D+03 -.757956463226240D+02 0.392979835877042D+00 0.125167938972430D+03
 0.119392004324832D+03 0.445255080852837D+01 0.953792567815404D+00 -.769315567484221D+02
 0.861301320299774D+02 0.713430955140957D+02 -.134677240369245D+01 -.482363822240083D+02
 0.000000000000000D+00 0.000000000000000D+00 -.000000000000000D+00 -.000000000000000D+00
 0.289121551948032D+03 0.000000000000000D+00 0.000000000000000D+00 0.289121551948032D+03
 0.523666648745036D+03 0.000000000000000D+00 0.000000000000000D+00 -.523666648745036D+03
 0.228648348132193D+03 -.786689079694774D+02 0.121652197168257D+03 0.125167938972430D+03
 0.141528329149783D+03 0.267222628280627D+01 0.760881816768360D+02 -.769315567484221D+02
 0.998076169173202D+02 0.700743958681149D+02 0.521956977956292D+02 -.482363822240083D+02
 0.342803906493771D+03 0.592228581855620D+01 -.249936076640723D+03 -.234545096797005D+03
0.900542087261D-06 0.000000000000D+00 0.000000000000D+00 0.430017394549D-07 0.000000000000D+00  6 21 -4 25 23 -4 21 4 0.10978531D+00 0.85364089D-02 0.23845954D+05 0.23845954D+05 0.23845954D+05 0.12255043D+01  1  2 14  2  6  2       -4 0.553708046841D-03 0.100000000000D+01
  </mgrwgt>
  </event>
</LesHouchesEvents>
