<event>
 5    0  0.4930573E+000  0.2229197E+03  0.7546771E-02  0.1131725E+00
          2   -1    0    0  502    0 -0.00000000000E+00  0.00000000000E+00  0.27465463746E+04  0.27465463746E+04  0.00000000000E+00 0.  1.
         21   -1    0    0  503  502  0.00000000000E+00 -0.00000000000E+00 -0.24637767658E+03  0.24637767658E+03  0.00000000000E+00 0.  1.
         25    1    1    2    0    0 -0.15978306852E+03  0.14609820650E+03  0.12559331822E+03  0.27977490329E+03  0.12500000000E+03 0.  0.
         21    1    1    2  503  501  0.12223052381E+02 -0.37428375199E+02 -0.16364844673E+03  0.16831844936E+03  0.00000000000E+00 0.  1.
          2    1    1    2  501    0  0.14756001614E+03 -0.10866983130E+03  0.25382238265E+04  0.25448306985E+04  0.00000000000E+00 0.  1.
<mgrwt>
<rscale>  4 0.22291969E+03</rscale>
<asrwt>0</asrwt>
<pdfrwt beam="1">  1       21 0.37904260E-01 0.22291969E+03</pdfrwt>
<pdfrwt beam="2">  1        2 0.42254557E+00 0.22291969E+03</pdfrwt>
<totfact> 0.25069026E+02</totfact>
</mgrwt>
</event>
<event>
 5    0  0.4930573E+000  0.2600151E+03  0.7546771E-02  0.1107134E+00
          1   -1    0    0  502    0 -0.00000000000E+00  0.00000000000E+00  0.23686313552E+04  0.23686313552E+04  0.00000000000E+00 0.  1.
         21   -1    0    0  503  502  0.00000000000E+00 -0.00000000000E+00 -0.23521417963E+03  0.23521417963E+03  0.00000000000E+00 0.  1.
         25    1    1    2    0    0 -0.36306608073E+02 -0.24250807802E+03 -0.88267339221E+02  0.28904058689E+03  0.12500000000E+03 0.  0.
         21    1    1    2  503  501  0.78326978104E+02  0.18544425321E+02 -0.97185525564E+00  0.80498172104E+02  0.00000000000E+00 0.  1.
          1    1    1    2  501    0 -0.42020370031E+02  0.22396365270E+03  0.22226563701E+04  0.22343067758E+04  0.00000000000E+00 0.  1.
<mgrwt>
<rscale>  4 0.26001515E+03</rscale>
<asrwt>0</asrwt>
<pdfrwt beam="1">  1       21 0.36186798E-01 0.26001515E+03</pdfrwt>
<pdfrwt beam="2">  1        1 0.36440481E+00 0.26001515E+03</pdfrwt>
<totfact> 0.15579699E+02</totfact>
</mgrwt>
</event>
<event>
 5    0  0.4930573E+000  0.2326123E+03  0.7546771E-02  0.1124815E+00
          1   -1    0    0  502    0 -0.00000000000E+00  0.00000000000E+00  0.15642394425E+04  0.15642394425E+04  0.00000000000E+00 0.  1.
         21   -1    0    0  503  502  0.00000000000E+00 -0.00000000000E+00 -0.84326475800E+02  0.84326475800E+02  0.00000000000E+00 0.  1.
         25    1    1    2    0    0 -0.19685204030E+03 -0.20162834182E+03  0.55508049934E+03  0.63493627613E+03  0.12500000000E+03 0.  0.
         21    1    1    2  503  501  0.88648357067E+02  0.14639493100E+03  0.14476298379E+03  0.22415692831E+03  0.00000000000E+00 0.  1.
          1    1    1    2  501    0  0.10820368323E+03  0.55233410820E+02  0.78006948353E+03  0.78947271383E+03  0.00000000000E+00 0.  1.
<mgrwt>
<rscale>  4 0.23261226E+03</rscale>
<asrwt>0</asrwt>
<pdfrwt beam="1">  1       21 0.12973305E-01 0.23261226E+03</pdfrwt>
<pdfrwt beam="2">  1        1 0.24065220E+00 0.23261226E+03</pdfrwt>
<totfact> 0.36990890E+03</totfact>
</mgrwt>
</event>
<event>
 5    0  0.4930573E+000  0.3741859E+03  0.7546771E-02  0.1053104E+00
         -1   -1    0    0    0  501 -0.00000000000E+00  0.00000000000E+00  0.43875433232E+03  0.43875433232E+03  0.00000000000E+00 0.  1.
         21   -1    0    0  501  502  0.00000000000E+00 -0.00000000000E+00 -0.15304648622E+04  0.15304648622E+04  0.00000000000E+00 0.  1.
         25    1    1    2    0    0 -0.23008423822E+03 -0.55120143688E+03 -0.84817934508E+03  0.10448899378E+04  0.12500000000E+03 0.  0.
         21    1    1    2  503  502  0.10083323790E+03  0.24798455453E+03 -0.45841493199E+03  0.53085584768E+03  0.00000000000E+00 0.  1.
         -1    1    1    2    0  503  0.12925100032E+03  0.30321688235E+03  0.21488374718E+03  0.39347340905E+03  0.00000000000E+00 0.  1.
<mgrwt>
<rscale>  4 0.37418590E+03</rscale>
<asrwt>0</asrwt>
<pdfrwt beam="1">  1       21 0.23545613E+00 0.37418590E+03</pdfrwt>
<pdfrwt beam="2">  1       -1 0.67500666E-01 0.37418590E+03</pdfrwt>
<totfact> 0.15046070E+01</totfact>
</mgrwt>
</event>
<event>
 5    0  0.4930573E+000  0.1809338E+03  0.7546771E-02  0.1166902E+00
         21   -1    0    0  503  502  0.00000000000E+00  0.00000000000E+00  0.11174609686E+03  0.11174609686E+03  0.00000000000E+00 0.  1.
          1   -1    0    0  502    0 -0.00000000000E+00 -0.00000000000E+00 -0.94238996116E+03  0.94238996116E+03  0.00000000000E+00 0.  1.
         25    1    1    2    0    0 -0.27360022926E+02 -0.23494964899E+03 -0.59586178472E+03  0.65316626896E+03  0.12500000000E+03 0.  0.
         21    1    1    2  503  501  0.28006084671E+02  0.11871838348E+03  0.17474705798E+02  0.12322240339E+03  0.00000000000E+00 0.  1.
          1    1    1    2  501    0 -0.64606174533E+00  0.11623126551E+03 -0.25225678539E+03  0.27774738568E+03  0.00000000000E+00 0.  1.
<mgrwt>
<rscale>  4 0.18093376E+03</rscale>
<asrwt>0</asrwt>
<pdfrwt beam="1">  1       21 0.17191708E-01 0.18093376E+03</pdfrwt>
<pdfrwt beam="2">  1        1 0.14498306E+00 0.18093376E+03</pdfrwt>
<totfact> 0.60929819E+03</totfact>
</mgrwt>
</event>
<event>
 5    0  0.4930573E+000  0.2569543E+03  0.7546771E-02  0.1108987E+00
         21   -1    0    0  503  502  0.00000000000E+00  0.00000000000E+00  0.12819746875E+03  0.12819746875E+03  0.00000000000E+00 0.  1.
          2   -1    0    0  502    0 -0.00000000000E+00 -0.00000000000E+00 -0.10790568126E+04  0.10790568126E+04  0.00000000000E+00 0.  1.
         25    1    1    2    0    0  0.15084587511E+03 -0.18227180914E+03 -0.12801439769E+03  0.29663138145E+03  0.12500000000E+03 0.  0.
         21    1    1    2  503  501  0.26507069949E+02  0.46635882509E+02  0.43560129179E+01  0.53819189358E+02  0.00000000000E+00 0.  1.
          2    1    1    2  501    0 -0.17735294506E+03  0.13563592663E+03 -0.82720095906E+03  0.85680371053E+03  0.00000000000E+00 0.  1.
<mgrwt>
<rscale>  4 0.25695434E+03</rscale>
<asrwt>0</asrwt>
<pdfrwt beam="1">  1       21 0.19722688E-01 0.25695434E+03</pdfrwt>
<pdfrwt beam="2">  1        2 0.16600874E+00 0.25695434E+03</pdfrwt>
<totfact> 0.69501184E+03</totfact>
</mgrwt>
</event>
<event>
 5    0  0.4930573E+000  0.2107498E+03  0.7546771E-02  0.1140974E+00
         -2   -1    0    0    0  501 -0.00000000000E+00  0.00000000000E+00  0.43477319921E+03  0.43477319921E+03  0.00000000000E+00 0.  1.
         21   -1    0    0  501  502  0.00000000000E+00 -0.00000000000E+00 -0.35549860913E+03  0.35549860913E+03  0.00000000000E+00 0.  1.
         25    1    1    2    0    0 -0.15239853216E+03 -0.15166651951E+03 -0.17151783344E+02  0.24929346044E+03  0.12500000000E+03 0.  0.
         21    1    1    2  503  502  0.37225795772E+02  0.36960865188E+02 -0.19790780370E+03  0.20474218957E+03  0.00000000000E+00 0.  1.
         -2    1    1    2    0  503  0.11517273639E+03  0.11470565433E+03  0.29433417713E+03  0.33623615833E+03  0.00000000000E+00 0.  1.
<mgrwt>
<rscale>  4 0.21074979E+03</rscale>
<asrwt>0</asrwt>
<pdfrwt beam="1">  1       21 0.54692094E-01 0.21074979E+03</pdfrwt>
<pdfrwt beam="2">  1       -2 0.66888184E-01 0.21074979E+03</pdfrwt>
<totfact> 0.53718287E+02</totfact>
</mgrwt>
</event>
<event>
 5    0  0.4930573E+000  0.2482677E+03  0.7546771E-02  0.1114405E+00
         21   -1    0    0  503  502  0.00000000000E+00  0.00000000000E+00  0.60665033568E+03  0.60665033568E+03  0.00000000000E+00 0.  1.
          2   -1    0    0  502    0 -0.00000000000E+00 -0.00000000000E+00 -0.13383267981E+03  0.13383267981E+03  0.00000000000E+00 0.  1.
         25    1    1    2    0    0 -0.19647706868E+03 -0.83081989542E+02  0.13197435649E+03  0.28026431502E+03  0.12500000000E+03 0.  0.
         21    1    1    2  503  501 -0.11175371145E+02  0.22364454876E+02  0.20113560430E+03  0.20268347017E+03  0.00000000000E+00 0.  1.
          2    1    1    2  501    0  0.20765243983E+03  0.60717534666E+02  0.13970769507E+03  0.25753523030E+03  0.00000000000E+00 0.  1.
<mgrwt>
<rscale>  4 0.24826767E+03</rscale>
<asrwt>0</asrwt>
<pdfrwt beam="1">  1       21 0.93330819E-01 0.24826767E+03</pdfrwt>
<pdfrwt beam="2">  1        2 0.20589643E-01 0.24826767E+03</pdfrwt>
<totfact> 0.31140864E+03</totfact>
</mgrwt>
</event>
<event>
 5    0  0.4930573E+000  0.4310996E+03  0.7546771E-02  0.1033513E+00
          2   -1    0    0  502    0 -0.00000000000E+00  0.00000000000E+00  0.14692366255E+04  0.14692366255E+04  0.00000000000E+00 0.  1.
         21   -1    0    0  503  502  0.00000000000E+00 -0.00000000000E+00 -0.47553857055E+03  0.47553857055E+03  0.00000000000E+00 0. -1.
         25    1    1    2    0    0 -0.11294628250E+03  0.40432266084E+03 -0.20888707673E+03  0.48527568209E+03  0.12500000000E+03 0.  0.
         21    1    1    2  503  501 -0.17366620812E+02 -0.13517696958E+02 -0.95297678474E+02  0.97805803365E+02  0.00000000000E+00 0.  1.
          2    1    1    2  501    0  0.13031290331E+03 -0.39080496389E+03  0.12978828102E+04  0.13616937106E+04  0.00000000000E+00 0.  1.
<mgrwt>
<rscale>  4 0.43109957E+03</rscale>
<asrwt>0</asrwt>
<pdfrwt beam="1">  1       21 0.73159781E-01 0.43109957E+03</pdfrwt>
<pdfrwt beam="2">  1        2 0.22603640E+00 0.43109957E+03</pdfrwt>
<totfact> 0.27001298E+02</totfact>
</mgrwt>
</event>
<event>
 5    0  0.4930573E+000  0.3586068E+03  0.7546771E-02  0.1059137E+00
         21   -1    0    0  503  502  0.00000000000E+00  0.00000000000E+00  0.86258954069E+03  0.86258954069E+03  0.00000000000E+00 0.  1.
          2   -1    0    0  502    0 -0.00000000000E+00 -0.00000000000E+00 -0.53089297161E+03  0.53089297161E+03  0.00000000000E+00 0.  1.
         25    1    1    2    0    0 -0.22970711943E+03  0.18122696364E+03  0.50142378732E+03  0.59385131772E+03  0.12500000000E+03 0.  0.
         21    1    1    2  503  501 -0.42240540505E+02  0.24354803552E+02  0.25238202776E+03  0.25704884294E+03  0.00000000000E+00 0.  1.
          2    1    1    2  501    0  0.27194765993E+03 -0.20558176719E+03 -0.42210924600E+03  0.54258235164E+03  0.00000000000E+00 0.  1.
<mgrwt>
<rscale>  4 0.35860676E+03</rscale>
<asrwt>0</asrwt>
<pdfrwt beam="1">  1       21 0.13270608E+00 0.35860676E+03</pdfrwt>
<pdfrwt beam="2">  1        2 0.81675842E-01 0.35860676E+03</pdfrwt>
<totfact> 0.27347892E+02</totfact>
</mgrwt>
</event>
<event>
 5    0  0.4930573E+000  0.2095654E+03  0.7546771E-02  0.1141911E+00
          2   -1    0    0  502    0 -0.00000000000E+00  0.00000000000E+00  0.37563126399E+03  0.37563126399E+03  0.00000000000E+00 0.  1.
         21   -1    0    0  503  502  0.00000000000E+00 -0.00000000000E+00 -0.51433344452E+03  0.51433344452E+03  0.00000000000E+00 0.  1.
         25    1    1    2    0    0 -0.14749189883E+03 -0.14237684786E+03 -0.11020319201E+03  0.26418699921E+03  0.12500000000E+03 0.  0.
         21    1    1    2  503  501  0.20896572035E+02  0.38382303611E+02 -0.30298237718E+03  0.30611793289E+03  0.00000000000E+00 0.  1.
          2    1    1    2  501    0  0.12659532679E+03  0.10399454424E+03  0.27448338866E+03  0.31965977640E+03  0.00000000000E+00 0.  1.
<mgrwt>
<rscale>  4 0.20956536E+03</rscale>
<asrwt>0</asrwt>
<pdfrwt beam="1">  1       21 0.79128222E-01 0.20956536E+03</pdfrwt>
<pdfrwt beam="2">  1        2 0.57789425E-01 0.20956536E+03</pdfrwt>
<totfact> 0.14898966E+03</totfact>
</mgrwt>
</event>
<event>
 5    0  0.4930573E+000  0.3755573E+03  0.7546771E-02  0.1052588E+00
         21   -1    0    0  501  502  0.00000000000E+00  0.00000000000E+00  0.10296453441E+04  0.10296453441E+04  0.00000000000E+00 0. -1.
         -1   -1    0    0    0  501 -0.00000000000E+00 -0.00000000000E+00 -0.73276889589E+03  0.73276889589E+03  0.00000000000E+00 0.  1.
         25    1    1    2    0    0 -0.24621094638E+03  0.27546106853E+03 -0.10177318917E+03  0.40308983170E+03  0.12500000000E+03 0.  0.
         21    1    1    2  503  502  0.87654857099E+01 -0.21366536619E+02  0.81585457910E+03  0.81618138723E+03  0.00000000000E+00 0. -1.
         -1    1    1    2    0  503  0.23744546067E+03 -0.25409453191E+03 -0.41720494172E+03  0.54314302106E+03  0.00000000000E+00 0.  1.
<mgrwt>
<rscale>  4 0.37555731E+03</rscale>
<asrwt>0</asrwt>
<pdfrwt beam="1">  1       21 0.15840698E+00 0.37555731E+03</pdfrwt>
<pdfrwt beam="2">  1       -1 0.11273368E+00 0.37555731E+03</pdfrwt>
<totfact> 0.16424314E+01</totfact>
</mgrwt>
</event>
<event>
 5    0  0.4930573E+000  0.2931831E+03  0.7546771E-02  0.1088699E+00
          1   -1    0    0  502    0 -0.00000000000E+00  0.00000000000E+00  0.15865078756E+03  0.15865078756E+03  0.00000000000E+00 0. -1.
         21   -1    0    0  503  502  0.00000000000E+00 -0.00000000000E+00 -0.92771079042E+03  0.92771079042E+03  0.00000000000E+00 0. -1.
         25    1    1    2    0    0 -0.18098114811E+03 -0.18512077395E+03 -0.55406943548E+02  0.29277774218E+03  0.12500000000E+03 0.  0.
         21    1    1    2  503  501 -0.47737347358E+02  0.35441744971E+01 -0.53898033911E+02  0.72086153769E+02  0.00000000000E+00 0. -1.
          1    1    1    2  501    0  0.22871849547E+03  0.18157659946E+03 -0.65975502540E+03  0.72149768203E+03  0.00000000000E+00 0. -1.
<mgrwt>
<rscale>  4 0.29318313E+03</rscale>
<asrwt>0</asrwt>
<pdfrwt beam="1">  1       21 0.14272474E+00 0.29318313E+03</pdfrwt>
<pdfrwt beam="2">  1        1 0.24407814E-01 0.29318313E+03</pdfrwt>
<totfact> 0.69094635E+02</totfact>
</mgrwt>
</event>
<event>
 5    0  0.4930573E+000  0.2731429E+03  0.7546771E-02  0.1099494E+00
          2   -1    0    0  502    0 -0.00000000000E+00  0.00000000000E+00  0.13187526918E+03  0.13187526918E+03  0.00000000000E+00 0. -1.
         21   -1    0    0  503  502  0.00000000000E+00 -0.00000000000E+00 -0.85775786402E+03  0.85775786402E+03  0.00000000000E+00 0. -1.
         25    1    1    2    0    0 -0.22485817437E+03 -0.14578480905E+02 -0.65094674845E+03  0.70009313667E+03  0.12500000000E+03 0.  0.
         21    1    1    2  503  501 -0.21225020592E+02 -0.21624254049E+01 -0.33077936792E+02  0.39361497496E+02  0.00000000000E+00 0.  1.
          2    1    1    2  501    0  0.24608319496E+03  0.16740906310E+02 -0.41857909592E+02  0.25017849904E+03  0.00000000000E+00 0. -1.
<mgrwt>
<rscale>  4 0.27314285E+03</rscale>
<asrwt>0</asrwt>
<pdfrwt beam="1">  1       21 0.13196274E+00 0.27314285E+03</pdfrwt>
<pdfrwt beam="2">  1        2 0.20288504E-01 0.27314285E+03</pdfrwt>
<totfact> 0.13431814E+03</totfact>
</mgrwt>
</event>
<event>
 5    0  0.4930573E+000  0.2426633E+03  0.7546771E-02  0.1118031E+00
         21   -1    0    0  501  502  0.00000000000E+00  0.00000000000E+00  0.94651463206E+03  0.94651463206E+03  0.00000000000E+00 0. -1.
         -2   -1    0    0    0  501 -0.00000000000E+00 -0.00000000000E+00 -0.90441565506E+02  0.90441565506E+02  0.00000000000E+00 0. -1.
         25    1    1    2    0    0  0.18247792623E+03 -0.99811219575E+02  0.76716423784E+03  0.80462813829E+03  0.12500000000E+03 0.  0.
         21    1    1    2  503  502 -0.42519016528E+02  0.32443148994E+02  0.47607466137E+02  0.71602342944E+02  0.00000000000E+00 0. -1.
         -2    1    1    2    0  503 -0.13995890970E+03  0.67368070581E+02  0.41301362584E+02  0.16072571633E+03  0.00000000000E+00 0. -1.
<mgrwt>
<rscale>  4 0.24266329E+03</rscale>
<asrwt>0</asrwt>
<pdfrwt beam="1">  1       21 0.14561763E+00 0.24266329E+03</pdfrwt>
<pdfrwt beam="2">  1       -2 0.13914088E-01 0.24266329E+03</pdfrwt>
<totfact> 0.96794328E+02</totfact>
</mgrwt>
</event>
<event>
 5    0  0.4930573E+000  0.3554632E+03  0.7546771E-02  0.1060395E+00
         21   -1    0    0  501  502  0.00000000000E+00  0.00000000000E+00  0.20181930885E+03  0.20181930885E+03  0.00000000000E+00 0. -1.
         -1   -1    0    0    0  501 -0.00000000000E+00 -0.00000000000E+00 -0.20622713649E+04  0.20622713649E+04  0.00000000000E+00 0. -1.
         25    1    1    2    0    0  0.68565254236E+02  0.34524738951E+03 -0.31474279915E+02  0.37485008249E+03  0.12500000000E+03 0.  0.
         21    1    1    2  503  502 -0.45564664476E+01 -0.20391081799E+02  0.82145303717E+01  0.22450748599E+02  0.00000000000E+00 0. -1.
         -1    1    1    2    0  503 -0.64008787788E+02 -0.32485630771E+03 -0.18371923065E+04  0.18667898426E+04  0.00000000000E+00 0. -1.
<mgrwt>
<rscale>  4 0.35546324E+03</rscale>
<asrwt>0</asrwt>
<pdfrwt beam="1">  1       21 0.31049124E-01 0.35546324E+03</pdfrwt>
<pdfrwt beam="2">  1       -1 0.31727252E+00 0.35546324E+03</pdfrwt>
<totfact> 0.26220395E+01</totfact>
</mgrwt>
</event>
<event>
 5    0  0.4930573E+000  0.2550206E+03  0.7546771E-02  0.1110172E+00
          2   -1    0    0  502    0 -0.00000000000E+00  0.00000000000E+00  0.34515232657E+04  0.34515232657E+04  0.00000000000E+00 0. -1.
         21   -1    0    0  503  502  0.00000000000E+00 -0.00000000000E+00 -0.28812753727E+02  0.28812753727E+02  0.00000000000E+00 0.  1.
         25    1    1    2    0    0  0.13749298605E+03 -0.16477962527E+03  0.10499679507E+04  0.10789413068E+04  0.12500000000E+03 0.  0.
         21    1    1    2  503  501 -0.21771401011E+02 -0.29225513588E+02  0.28423350032E+02  0.46217003078E+02  0.00000000000E+00 0.  1.
          2    1    1    2  501    0 -0.11572158504E+03  0.19400513886E+03  0.23443192113E+04  0.23551777096E+04  0.00000000000E+00 0. -1.
<mgrwt>
<rscale>  4 0.25502056E+03</rscale>
<asrwt>0</asrwt>
<pdfrwt beam="1">  1       21 0.44327341E-02 0.25502056E+03</pdfrwt>
<pdfrwt beam="2">  1        2 0.53100325E+00 0.25502056E+03</pdfrwt>
<totfact> 0.46115790E+03</totfact>
</mgrwt>
</event>
<event>
 5    0  0.4930573E+000  0.2955291E+03  0.7546771E-02  0.1087497E+00
         21   -1    0    0  503  502  0.00000000000E+00  0.00000000000E+00  0.25838932744E+03  0.25838932744E+03  0.00000000000E+00 0. -1.
          1   -1    0    0  502    0 -0.00000000000E+00 -0.00000000000E+00 -0.54107033305E+03  0.54107033305E+03  0.00000000000E+00 0. -1.
         25    1    1    2    0    0  0.26636583310E+03  0.60133503407E+02 -0.37680669062E+02  0.30267412855E+03  0.12500000000E+03 0.  0.
         21    1    1    2  503  501 -0.41884248328E+02  0.91945121922E+02  0.35086171994E+02  0.10695436021E+03  0.00000000000E+00 0. -1.
          1    1    1    2  501    0 -0.22448158477E+03 -0.15207862533E+03 -0.28008650855E+03  0.38983117173E+03  0.00000000000E+00 0. -1.
<mgrwt>
<rscale>  4 0.29552910E+03</rscale>
<asrwt>0</asrwt>
<pdfrwt beam="1">  1       21 0.39752204E-01 0.29552910E+03</pdfrwt>
<pdfrwt beam="2">  1        1 0.83241590E-01 0.29552910E+03</pdfrwt>
<totfact> 0.26478365E+03</totfact>
</mgrwt>
</event>
<event>
 5    0  0.4930573E+000  0.2146067E+03  0.7546771E-02  0.1137969E+00
          2   -1    0    0  502    0 -0.00000000000E+00  0.00000000000E+00  0.16046092085E+04  0.16046092085E+04  0.00000000000E+00 0.  1.
         21   -1    0    0  503  502  0.00000000000E+00 -0.00000000000E+00 -0.12036623443E+03  0.12036623443E+03  0.00000000000E+00 0.  1.
         25    1    1    2    0    0  0.20780906441E+03 -0.65016714892E+02  0.38484303875E+03  0.45950075619E+03  0.12500000000E+03 0.  0.
         21    1    1    2  503  501 -0.43773450129E+02  0.30480634444E+02 -0.67817732172E+02  0.86281103430E+02  0.00000000000E+00 0.  1.
          2    1    1    2  501    0 -0.16403561429E+03  0.34536080448E+02  0.11672176675E+04  0.11791935833E+04  0.00000000000E+00 0.  1.
<mgrwt>
<rscale>  4 0.21460666E+03</rscale>
<asrwt>0</asrwt>
<pdfrwt beam="1">  1       21 0.18517883E-01 0.21460666E+03</pdfrwt>
<pdfrwt beam="2">  1        2 0.24686294E+00 0.21460666E+03</pdfrwt>
<totfact> 0.40759854E+03</totfact>
</mgrwt>
</event>
<event>
 5    0  0.4930573E+000  0.3438965E+03  0.7546771E-02  0.1065148E+00
          3   -1    0    0  502    0 -0.00000000000E+00  0.00000000000E+00  0.20661158292E+03  0.20661158292E+03  0.00000000000E+00 0.  1.
         21   -1    0    0  503  502  0.00000000000E+00 -0.00000000000E+00 -0.98267870659E+03  0.98267870659E+03  0.00000000000E+00 0.  1.
         25    1    1    2    0    0 -0.30274133871E+03  0.24223914443E+02 -0.66751250691E+03  0.74393350716E+03  0.12500000000E+03 0.  0.
         21    1    1    2  503  501 -0.18953450265E+02  0.15490434869E+02 -0.11856482589E+03  0.12106529143E+03  0.00000000000E+00 0. -1.
          3    1    1    2  501    0  0.32169478898E+03 -0.39714349311E+02  0.10010209125E+02  0.32429149092E+03  0.00000000000E+00 0.  1.
<mgrwt>
<rscale>  4 0.34389645E+03</rscale>
<asrwt>0</asrwt>
<pdfrwt beam="1">  1       21 0.15118134E+00 0.34389645E+03</pdfrwt>
<pdfrwt beam="2">  1        3 0.31786397E-01 0.34389645E+03</pdfrwt>
<totfact> 0.13199592E+02</totfact>
</mgrwt>
</event>
<event>
 5    0  0.4930573E+000  0.4324737E+03  0.7546771E-02  0.1033081E+00
          2   -1    0    0  502    0 -0.00000000000E+00  0.00000000000E+00  0.11434480382E+04  0.11434480382E+04  0.00000000000E+00 0.  1.
         21   -1    0    0  503  502  0.00000000000E+00 -0.00000000000E+00 -0.24616049783E+03  0.24616049783E+03  0.00000000000E+00 0.  1.
         25    1    1    2    0    0  0.34570851651E+03  0.24018109034E+03  0.52216639909E+03  0.68226393931E+03  0.12500000000E+03 0.  0.
         21    1    1    2  503  501 -0.20720965713E+02  0.56913948862E+01 -0.87924822969E+02  0.90512567580E+02  0.00000000000E+00 0.  1.
          2    1    1    2  501    0 -0.32498755080E+03 -0.24587248522E+03  0.46304596421E+03  0.61683202910E+03  0.00000000000E+00 0.  1.
<mgrwt>
<rscale>  4 0.43247365E+03</rscale>
<asrwt>0</asrwt>
<pdfrwt beam="1">  1       21 0.37870847E-01 0.43247365E+03</pdfrwt>
<pdfrwt beam="2">  1        2 0.17591508E+00 0.43247365E+03</pdfrwt>
<totfact> 0.16970301E+03</totfact>
</mgrwt>
</event>
<event>
 5    0  0.4930573E+000  0.2218805E+03  0.7546771E-02  0.1132489E+00
          2   -1    0    0  502    0 -0.00000000000E+00  0.00000000000E+00  0.12375539987E+04  0.12375539987E+04  0.00000000000E+00 0. -1.
         21   -1    0    0  503  502  0.00000000000E+00 -0.00000000000E+00 -0.37837071015E+03  0.37837071015E+03  0.00000000000E+00 0. -1.
         25    1    1    2    0    0 -0.23220048629E+03  0.23425886873E+03  0.32887014551E+03  0.48226015388E+03  0.12500000000E+03 0.  0.
         21    1    1    2  503  501  0.11683962622E+03 -0.12898574018E+03 -0.26836674357E+03  0.31985860702E+03  0.00000000000E+00 0. -1.
          2    1    1    2  501    0  0.11536086007E+03 -0.10527312855E+03  0.79867988662E+03  0.81380594795E+03  0.00000000000E+00 0. -1.
<mgrwt>
<rscale>  4 0.22188053E+03</rscale>
<asrwt>0</asrwt>
<pdfrwt beam="1">  1       21 0.58210879E-01 0.22188053E+03</pdfrwt>
<pdfrwt beam="2">  1        2 0.19039292E+00 0.22188053E+03</pdfrwt>
<totfact> 0.66013268E+02</totfact>
</mgrwt>
</event>
<event>
 5    0  0.4930573E+000  0.2381183E+03  0.7546771E-02  0.1121053E+00
         21   -1    0    0  503  502  0.00000000000E+00  0.00000000000E+00  0.11883469969E+03  0.11883469969E+03  0.00000000000E+00 0. -1.
          2   -1    0    0  502    0 -0.00000000000E+00 -0.00000000000E+00 -0.24007597512E+04  0.24007597512E+04  0.00000000000E+00 0. -1.
         25    1    1    2    0    0  0.18853934211E+03  0.17142817087E+03 -0.50142814671E+03  0.57618563641E+03  0.12500000000E+03 0.  0.
         21    1    1    2  503  501 -0.60455731103E+02 -0.23521010186E+02  0.62485399918E+02  0.90069742680E+02  0.00000000000E+00 0. -1.
          2    1    1    2  501    0 -0.12808361101E+03 -0.14790716069E+03 -0.18429823047E+04  0.18533390718E+04  0.00000000000E+00 0. -1.
<mgrwt>
<rscale>  4 0.23811830E+03</rscale>
<asrwt>0</asrwt>
<pdfrwt beam="1">  1       21 0.18282262E-01 0.23811830E+03</pdfrwt>
<pdfrwt beam="2">  1        2 0.36934765E+00 0.23811830E+03</pdfrwt>
<totfact> 0.15720630E+03</totfact>
</mgrwt>
</event>
<event>
 5    0  0.4930573E+000  0.2026554E+03  0.7546771E-02  0.1147518E+00
          2   -1    0    0  502    0 -0.00000000000E+00  0.00000000000E+00  0.13406657008E+03  0.13406657008E+03  0.00000000000E+00 0.  1.
         21   -1    0    0  503  502  0.00000000000E+00 -0.00000000000E+00 -0.60892097473E+03  0.60892097473E+03  0.00000000000E+00 0. -1.
         25    1    1    2    0    0  0.18198548334E+03  0.11612324945E+03 -0.43483503492E+03  0.50130812163E+03  0.12500000000E+03 0.  0.
         21    1    1    2  503  501 -0.53082938536E+02 -0.36398555256E+02 -0.60990444556E+02  0.88670668856E+02  0.00000000000E+00 0. -1.
          2    1    1    2  501    0 -0.12890254480E+03 -0.79724694192E+02  0.20971074832E+02  0.15300875433E+03  0.00000000000E+00 0.  1.
<mgrwt>
<rscale>  4 0.20265536E+03</rscale>
<asrwt>0</asrwt>
<pdfrwt beam="1">  1       21 0.93680150E-01 0.20265536E+03</pdfrwt>
<pdfrwt beam="2">  1        2 0.20625626E-01 0.20265536E+03</pdfrwt>
<totfact> 0.31273215E+03</totfact>
</mgrwt>
</event>
<event>
 5    0  0.4930573E+000  0.2280652E+03  0.7546771E-02  0.1128009E+00
          2   -1    0    0  502    0 -0.00000000000E+00  0.00000000000E+00  0.66755223200E+03  0.66755223200E+03  0.00000000000E+00 0.  1.
         21   -1    0    0  503  502  0.00000000000E+00 -0.00000000000E+00 -0.24845947146E+03  0.24845947146E+03  0.00000000000E+00 0. -1.
         25    1    1    2    0    0  0.23553528636E+03 -0.13247396887E+03  0.10814563917E+03  0.31677547698E+03  0.12500000000E+03 0.  0.
         21    1    1    2  503  501 -0.82256437365E+02  0.43728148340E+02 -0.10904858590E+03  0.14342198762E+03  0.00000000000E+00 0. -1.
          2    1    1    2  501    0 -0.15327884899E+03  0.88745820531E+02  0.41999570728E+03  0.45581423885E+03  0.00000000000E+00 0.  1.
<mgrwt>
<rscale>  4 0.22806515E+03</rscale>
<asrwt>0</asrwt>
<pdfrwt beam="1">  1       21 0.38224534E-01 0.22806515E+03</pdfrwt>
<pdfrwt beam="2">  1        2 0.10270034E+00 0.22806515E+03</pdfrwt>
<totfact> 0.36464473E+03</totfact>
</mgrwt>
</event>
<event>
 5    0  0.4930573E+000  0.2916225E+03  0.7546771E-02  0.1089505E+00
          2   -1    0    0  502    0 -0.00000000000E+00  0.00000000000E+00  0.96178816848E+03  0.96178816848E+03  0.00000000000E+00 0. -1.
         21   -1    0    0  503  502  0.00000000000E+00 -0.00000000000E+00 -0.91282103952E+02  0.91282103952E+02  0.00000000000E+00 0.  1.
         25    1    1    2    0    0  0.41501929878E+01 -0.27359295066E+03  0.45772117391E+03  0.54772620879E+03  0.12500000000E+03 0.  0.
         21    1    1    2  503  501 -0.29542634286E+02  0.19472613185E+02  0.39172025537E+02  0.52786338095E+02  0.00000000000E+00 0.  1.
          2    1    1    2  501    0  0.25392441298E+02  0.25412033748E+03  0.37361286508E+03  0.45255772554E+03  0.00000000000E+00 0. -1.
<mgrwt>
<rscale>  4 0.29162247E+03</rscale>
<asrwt>0</asrwt>
<pdfrwt beam="1">  1       21 0.14043401E-01 0.29162247E+03</pdfrwt>
<pdfrwt beam="2">  1        2 0.14796740E+00 0.29162247E+03</pdfrwt>
<totfact> 0.15246939E+04</totfact>
</mgrwt>
</event>
<event>
 5    0  0.5433412E+000  0.2399132E+03  0.7546771E-02  0.1119851E+00
         21   -1    0    0  503  502  0.00000000000E+00  0.00000000000E+00  0.58571399688E+03  0.58571399688E+03  0.00000000000E+00 0. -1.
          2   -1    0    0  502    0 -0.00000000000E+00 -0.00000000000E+00 -0.30321379263E+04  0.30321379263E+04  0.00000000000E+00 0. -1.
         25    1    1    2    0    0  0.43125316853E+02  0.23637971284E+03 -0.90013595257E+03  0.94000260356E+03  0.12500000000E+03 0.  0.
         21    1    1    2  503  501 -0.35192916706E+02 -0.20100862169E+03  0.54721797559E+03  0.58402955421E+03  0.00000000000E+00 0. -1.
          2    1    1    2  501    0 -0.79324001471E+01 -0.35371091158E+02 -0.20935059524E+04  0.20938197654E+04  0.00000000000E+00 0. -1.
<mgrwt>
<rscale>  4 0.23991321E+03</rscale>
<asrwt>0</asrwt>
<pdfrwt beam="1">  1       21 0.90109844E-01 0.23991321E+03</pdfrwt>
<pdfrwt beam="2">  1        2 0.46648276E+00 0.23991321E+03</pdfrwt>
<totfact> 0.26101590E+01</totfact>
</mgrwt>
</event>
<event>
 5    0  0.4930573E+000  0.2227568E+03  0.7546771E-02  0.1131844E+00
          3   -1    0    0  502    0 -0.00000000000E+00  0.00000000000E+00  0.12016614167E+04  0.12016614167E+04  0.00000000000E+00 0.  1.
         21   -1    0    0  503  502  0.00000000000E+00 -0.00000000000E+00 -0.17805087051E+03  0.17805087051E+03  0.00000000000E+00 0. -1.
         25    1    1    2    0    0 -0.17872216791E+03 -0.11727445713E+03  0.10055045471E+03  0.26726448611E+03  0.12500000000E+03 0.  0.
         21    1    1    2  503  501  0.19746861710E+02  0.29558846913E+02 -0.82917296368E+02  0.90216085125E+02  0.00000000000E+00 0. -1.
          3    1    1    2  501    0  0.15897530620E+03  0.87715610215E+02  0.10059773878E+04  0.10222317159E+04  0.00000000000E+00 0.  1.
<mgrwt>
<rscale>  4 0.22275677E+03</rscale>
<asrwt>0</asrwt>
<pdfrwt beam="1">  1       21 0.27392442E-01 0.22275677E+03</pdfrwt>
<pdfrwt beam="2">  1        3 0.18487098E+00 0.22275677E+03</pdfrwt>
<totfact> 0.12445470E+02</totfact>
</mgrwt>
</event>
<event>
 5    0  0.4930573E+000  0.2272144E+03  0.7546771E-02  0.1128616E+00
         21   -1    0    0  503  502  0.00000000000E+00  0.00000000000E+00  0.23964978786E+03  0.23964978786E+03  0.00000000000E+00 0.  1.
          2   -1    0    0  502    0 -0.00000000000E+00 -0.00000000000E+00 -0.21659539559E+04  0.21659539559E+04  0.00000000000E+00 0.  1.
         25    1    1    2    0    0  0.23835078913E+03 -0.31132811977E+02  0.79630789947E+02  0.28239407460E+03  0.12500000000E+03 0.  0.
         21    1    1    2  503  501 -0.54540949441E+02 -0.10892189394E+02  0.40061097138E+02  0.68543755804E+02  0.00000000000E+00 0.  1.
          2    1    1    2  501    0 -0.18380983969E+03  0.42025001371E+02 -0.20459960551E+04  0.20546659134E+04  0.00000000000E+00 0.  1.
<mgrwt>
<rscale>  4 0.22721439E+03</rscale>
<asrwt>0</asrwt>
<pdfrwt beam="1">  1       21 0.36869198E-01 0.22721439E+03</pdfrwt>
<pdfrwt beam="2">  1        2 0.33322369E+00 0.22721439E+03</pdfrwt>
<totfact> 0.54582542E+02</totfact>
</mgrwt>
</event>
<event>
 5    0  0.4930573E+000  0.1974283E+03  0.7546771E-02  0.1151927E+00
         21   -1    0    0  503  502  0.00000000000E+00  0.00000000000E+00  0.24799801575E+03  0.24799801575E+03  0.00000000000E+00 0. -1.
          2   -1    0    0  502    0 -0.00000000000E+00 -0.00000000000E+00 -0.11667597340E+04  0.11667597340E+04  0.00000000000E+00 0. -1.
         25    1    1    2    0    0  0.22630909629E+03  0.11754167832E+03  0.92306976088E+02  0.29862590484E+03  0.12500000000E+03 0.  0.
         21    1    1    2  503  501 -0.87425936865E+02 -0.61089650691E+02 -0.13667861835E+02  0.10752697478E+03  0.00000000000E+00 0.  1.
          2    1    1    2  501    0 -0.13888315942E+03 -0.56452027631E+02 -0.99740083252E+03  0.10086048702E+04  0.00000000000E+00 0. -1.
<mgrwt>
<rscale>  4 0.19742832E+03</rscale>
<asrwt>0</asrwt>
<pdfrwt beam="1">  1       21 0.38153540E-01 0.19742832E+03</pdfrwt>
<pdfrwt beam="2">  1        2 0.17950150E+00 0.19742832E+03</pdfrwt>
<totfact> 0.17619440E+03</totfact>
</mgrwt>
</event>
<event>
 5    0  0.4930573E+000  0.2813614E+03  0.7546771E-02  0.1094948E+00
          2   -1    0    0  502    0 -0.00000000000E+00  0.00000000000E+00  0.21984370679E+04  0.21984370679E+04  0.00000000000E+00 0.  1.
         21   -1    0    0  503  502  0.00000000000E+00 -0.00000000000E+00 -0.12582476111E+03  0.12582476111E+03  0.00000000000E+00 0.  1.
         25    1    1    2    0    0 -0.21193601510E+03 -0.16324641858E+03  0.88027112154E+03  0.92847644832E+03  0.12500000000E+03 0.  0.
         21    1    1    2  503  501  0.22386322091E+02  0.85218386706E+01 -0.88550515766E+02  0.91733107402E+02  0.00000000000E+00 0.  1.
          2    1    1    2  501    0  0.18954969301E+03  0.15472457991E+03  0.12808917010E+04  0.13040522733E+04  0.00000000000E+00 0.  1.
<mgrwt>
<rscale>  4 0.28136137E+03</rscale>
<asrwt>0</asrwt>
<pdfrwt beam="1">  1       21 0.19357657E-01 0.28136137E+03</pdfrwt>
<pdfrwt beam="2">  1        2 0.33822106E+00 0.28136137E+03</pdfrwt>
<totfact> 0.17739105E+03</totfact>
</mgrwt>
</event>
<event>
 5    0  0.4930573E+000  0.3372845E+03  0.7546771E-02  0.1067958E+00
         21   -1    0    0  503  502  0.00000000000E+00  0.00000000000E+00  0.53410133607E+03  0.53410133607E+03  0.00000000000E+00 0.  1.
          1   -1    0    0  502    0 -0.00000000000E+00 -0.00000000000E+00 -0.47433006108E+03  0.47433006108E+03  0.00000000000E+00 0.  1.
         25    1    1    2    0    0 -0.40346015734E+03  0.38969692754E+02  0.25697052094E+03  0.49594110956E+03  0.12500000000E+03 0.  0.
         21    1    1    2  503  501  0.11175276775E+03  0.14807567803E+02  0.52879044385E+02  0.12451561549E+03  0.00000000000E+00 0.  1.
          1    1    1    2  501    0  0.29170738959E+03 -0.53777260558E+02 -0.25007829034E+03  0.38797467210E+03  0.00000000000E+00 0.  1.
<mgrwt>
<rscale>  4 0.33728446E+03</rscale>
<asrwt>0</asrwt>
<pdfrwt beam="1">  1       21 0.82169436E-01 0.33728446E+03</pdfrwt>
<pdfrwt beam="2">  1        1 0.72973856E-01 0.33728446E+03</pdfrwt>
<totfact> 0.64964752E+02</totfact>
</mgrwt>
</event>
<event>
 5    0  0.4930573E+000  0.2957191E+03  0.7546771E-02  0.1087400E+00
         21   -1    0    0  501  502  0.00000000000E+00  0.00000000000E+00  0.51133929070E+03  0.51133929070E+03  0.00000000000E+00 0. -1.
         -3   -1    0    0    0  501 -0.00000000000E+00 -0.00000000000E+00 -0.23165636884E+03  0.23165636884E+03  0.00000000000E+00 0.  1.
         25    1    1    2    0    0 -0.20907961665E+03  0.20103910953E+03  0.22319854822E+03  0.38674746487E+03  0.12500000000E+03 0.  0.
         21    1    1    2  503  502  0.29204486943E+02 -0.13624221162E+02  0.88810483895E+02  0.94476576512E+02  0.00000000000E+00 0. -1.
         -3    1    1    2    0  503  0.17987512971E+03 -0.18741488836E+03 -0.32326110259E+02  0.26177161816E+03  0.00000000000E+00 0.  1.
<mgrwt>
<rscale>  4 0.29571912E+03</rscale>
<asrwt>0</asrwt>
<pdfrwt beam="1">  1       21 0.78667583E-01 0.29571912E+03</pdfrwt>
<pdfrwt beam="2">  1       -3 0.35639441E-01 0.29571912E+03</pdfrwt>
<totfact> 0.53626704E+02</totfact>
</mgrwt>
</event>
<event>
 5    0  0.4930573E+000  0.2705499E+03  0.7546771E-02  0.1100965E+00
         21   -1    0    0  503  502  0.00000000000E+00  0.00000000000E+00  0.19411338762E+03  0.19411338762E+03  0.00000000000E+00 0.  1.
          2   -1    0    0  502    0 -0.00000000000E+00 -0.00000000000E+00 -0.18438382804E+04  0.18438382804E+04  0.00000000000E+00 0.  1.
         25    1    1    2    0    0  0.23932909703E+03  0.56261565442E+01  0.76634797821E+02  0.28072755932E+03  0.12500000000E+03 0.  0.
         21    1    1    2  503  501  0.83294067833E+01  0.40915166133E+02 -0.67767485143E+02  0.79598127363E+02  0.00000000000E+00 0. -1.
          2    1    1    2  501    0 -0.24765850381E+03 -0.46541322677E+02 -0.16585922054E+04  0.16776259813E+04  0.00000000000E+00 0.  1.
<mgrwt>
<rscale>  4 0.27054989E+03</rscale>
<asrwt>0</asrwt>
<pdfrwt beam="1">  1       21 0.29863597E-01 0.27054989E+03</pdfrwt>
<pdfrwt beam="2">  1        2 0.28366744E+00 0.27054989E+03</pdfrwt>
<totfact> 0.11940507E+03</totfact>
</mgrwt>
</event>
<event>
 5    0  0.4930573E+000  0.4619351E+03  0.7546771E-02  0.1024221E+00
         21   -1    0    0  503  502  0.00000000000E+00  0.00000000000E+00  0.18992056620E+03  0.18992056620E+03  0.00000000000E+00 0. -1.
          2   -1    0    0  502    0 -0.00000000000E+00 -0.00000000000E+00 -0.26724595834E+04  0.26724595834E+04  0.00000000000E+00 0. -1.
         25    1    1    2    0    0  0.46346334239E+03 -0.11922256049E+03 -0.35696702779E+03  0.60996946448E+03  0.12500000000E+03 0.  0.
         21    1    1    2  503  501 -0.22643284234E+02  0.15957072377E+03 -0.12641627546E+03  0.20483312454E+03  0.00000000000E+00 0. -1.
          2    1    1    2  501    0 -0.44082005816E+03 -0.40348163280E+02 -0.19991557139E+04  0.20475775606E+04  0.00000000000E+00 0. -1.
<mgrwt>
<rscale>  4 0.46193509E+03</rscale>
<asrwt>0</asrwt>
<pdfrwt beam="1">  1       21 0.29218549E-01 0.46193509E+03</pdfrwt>
<pdfrwt beam="2">  1        2 0.41114762E+00 0.46193509E+03</pdfrwt>
<totfact> 0.40938059E+02</totfact>
</mgrwt>
</event>
<event>
 5    0  0.4930573E+000  0.2983989E+03  0.7546771E-02  0.1086044E+00
         21   -1    0    0  501  502  0.00000000000E+00  0.00000000000E+00  0.18376193479E+04  0.18376193479E+04  0.00000000000E+00 0.  1.
         -2   -1    0    0    0  501 -0.00000000000E+00 -0.00000000000E+00 -0.15373849732E+04  0.15373849732E+04  0.00000000000E+00 0. -1.
         25    1    1    2    0    0  0.28896167577E+03  0.48323156602E+02  0.16083357791E+04  0.16395740166E+04  0.12500000000E+03 0.  0.
         21    1    1    2  503  502 -0.20096494215E+03 -0.27027283522E+02  0.16384858456E+03  0.26069856288E+03  0.00000000000E+00 0.  1.
         -2    1    1    2    0  503 -0.87996733625E+02 -0.21295873079E+02 -0.14719499891E+04  0.14747317416E+04  0.00000000000E+00 0. -1.
<mgrwt>
<rscale>  4 0.29839894E+03</rscale>
<asrwt>0</asrwt>
<pdfrwt beam="1">  1       21 0.28271067E+00 0.29839894E+03</pdfrwt>
<pdfrwt beam="2">  1       -2 0.23652077E+00 0.29839894E+03</pdfrwt>
<totfact> 0.26934335E-01</totfact>
</mgrwt>
</event>
<event>
 5    0  0.4930573E+000  0.3276842E+03  0.7546771E-02  0.1072166E+00
          1   -1    0    0  502    0 -0.00000000000E+00  0.00000000000E+00  0.86245554392E+03  0.86245554392E+03  0.00000000000E+00 0. -1.
         21   -1    0    0  503  502  0.00000000000E+00 -0.00000000000E+00 -0.22306336713E+03  0.22306336713E+03  0.00000000000E+00 0. -1.
         25    1    1    2    0    0 -0.25754932057E+03  0.51970613629E+02  0.25280981563E+02  0.29205603099E+03  0.12500000000E+03 0.  0.
         21    1    1    2  503  501 -0.57846626517E+02 -0.57749839097E+02 -0.20941476829E+02  0.84379035115E+02  0.00000000000E+00 0. -1.
          1    1    1    2  501    0  0.31539594709E+03  0.57792254678E+01  0.63505267205E+03  0.70908384495E+03  0.00000000000E+00 0. -1.
<mgrwt>
<rscale>  4 0.32768423E+03</rscale>
<asrwt>0</asrwt>
<pdfrwt beam="1">  1       21 0.34317441E-01 0.32768423E+03</pdfrwt>
<pdfrwt beam="2">  1        1 0.13268547E+00 0.32768423E+03</pdfrwt>
<totfact> 0.17813126E+03</totfact>
</mgrwt>
</event>
<event>
 5    0  0.4930573E+000  0.2127705E+03  0.7546771E-02  0.1139391E+00
         21   -1    0    0  501  502  0.00000000000E+00  0.00000000000E+00  0.19585329357E+03  0.19585329357E+03  0.00000000000E+00 0. -1.
         -4   -1    0    0    0  501 -0.00000000000E+00 -0.00000000000E+00 -0.61043140955E+03  0.61043140955E+03  0.00000000000E+00 0. -1.
         25    1    1    2    0    0 -0.14174537733E+03  0.14429342657E+03  0.72919365244E+02  0.24870580768E+03  0.12500000000E+03 0.  0.
         21    1    1    2  503  502  0.25962039679E+02 -0.20437167711E+02  0.78992518815E+01  0.33972098973E+02  0.00000000000E+00 0.  1.
         -4    1    1    2    0  503  0.11578333766E+03 -0.12385625886E+03 -0.49539673310E+03  0.52360679647E+03  0.00000000000E+00 0. -1.
<mgrwt>
<rscale>  4 0.21277048E+03</rscale>
<asrwt>0</asrwt>
<pdfrwt beam="1">  1       21 0.30131277E-01 0.21277048E+03</pdfrwt>
<pdfrwt beam="2">  1       -4 0.93912522E-01 0.21277048E+03</pdfrwt>
<totfact> 0.43869299E+02</totfact>
</mgrwt>
</event>
<event>
 5    0  0.4930573E+000  0.1893560E+03  0.7546771E-02  0.1159043E+00
         21   -1    0    0  503  502  0.00000000000E+00  0.00000000000E+00  0.77408126726E+03  0.77408126726E+03  0.00000000000E+00 0.  1.
          2   -1    0    0  502    0 -0.00000000000E+00 -0.00000000000E+00 -0.90699615603E+03  0.90699615603E+03  0.00000000000E+00 0.  1.
         25    1    1    2    0    0 -0.19886227836E+03  0.16750369353E+03  0.24471134592E+03  0.37830191108E+03  0.12500000000E+03 0.  0.
         21    1    1    2  503  501  0.13220495323E+03 -0.44020806799E+02  0.44601068484E+03  0.46727027734E+03  0.00000000000E+00 0.  1.
          2    1    1    2  501    0  0.66657325134E+02 -0.12348288673E+03 -0.82363691953E+03  0.83550523489E+03  0.00000000000E+00 0.  1.
<mgrwt>
<rscale>  4 0.18935605E+03</rscale>
<asrwt>0</asrwt>
<pdfrwt beam="1">  1       21 0.11908943E+00 0.18935605E+03</pdfrwt>
<pdfrwt beam="2">  1        2 0.13953787E+00 0.18935605E+03</pdfrwt>
<totfact> 0.20583121E+02</totfact>
</mgrwt>
</event>
<event>
 5    0  0.4930573E+000  0.3281770E+03  0.7546771E-02  0.1071946E+00
         21   -1    0    0  503  502  0.00000000000E+00  0.00000000000E+00  0.12908808451E+03  0.12908808451E+03  0.00000000000E+00 0.  1.
          1   -1    0    0  502    0 -0.00000000000E+00 -0.00000000000E+00 -0.24786289133E+04  0.24786289133E+04  0.00000000000E+00 0.  1.
         25    1    1    2    0    0  0.24478440421E+03  0.19441320114E+03 -0.19631085997E+03  0.38971637259E+03  0.12500000000E+03 0.  0.
         21    1    1    2  503  501 -0.28087197920E+02  0.16793564611E+02  0.96009992487E+01  0.34104159364E+02  0.00000000000E+00 0.  1.
          1    1    1    2  501    0 -0.21669720629E+03 -0.21120676575E+03 -0.21628309680E+04  0.21838964658E+04  0.00000000000E+00 0.  1.
<mgrwt>
<rscale>  4 0.32817704E+03</rscale>
<asrwt>0</asrwt>
<pdfrwt beam="1">  1       21 0.19859707E-01 0.32817704E+03</pdfrwt>
<pdfrwt beam="2">  1        1 0.38132749E+00 0.32817704E+03</pdfrwt>
<totfact> 0.40734236E+02</totfact>
</mgrwt>
</event>
<event>
 5    0  0.4930573E+000  0.2288139E+03  0.7546771E-02  0.1127477E+00
         21   -1    0    0  503  502  0.00000000000E+00  0.00000000000E+00  0.97491509293E+02  0.97491509293E+02  0.00000000000E+00 0.  1.
          2   -1    0    0  502    0 -0.00000000000E+00 -0.00000000000E+00 -0.69263292634E+03  0.69263292634E+03  0.00000000000E+00 0.  1.
         25    1    1    2    0    0 -0.19477518753E+03  0.73768311291E+02 -0.20436325910E+03  0.31744051269E+03  0.12500000000E+03 0.  0.
         21    1    1    2  503  501  0.20984234078E+02 -0.83466631323E+01  0.14535043169E+02  0.26856514018E+02  0.00000000000E+00 0.  1.
          2    1    1    2  501    0  0.17379095345E+03 -0.65421648158E+02 -0.40531320111E+03  0.44582740892E+03  0.00000000000E+00 0.  1.
<mgrwt>
<rscale>  4 0.22881386E+03</rscale>
<asrwt>0</asrwt>
<pdfrwt beam="1">  1       21 0.14998693E-01 0.22881386E+03</pdfrwt>
<pdfrwt beam="2">  1        2 0.10655891E+00 0.22881386E+03</pdfrwt>
<totfact> 0.20884367E+04</totfact>
</mgrwt>
</event>
<event>
 5    0  0.4930573E+000  0.2454295E+03  0.7546771E-02  0.1116228E+00
          2   -1    0    0  502    0 -0.00000000000E+00  0.00000000000E+00  0.13848661444E+04  0.13848661444E+04  0.00000000000E+00 0.  1.
         21   -1    0    0  503  502  0.00000000000E+00 -0.00000000000E+00 -0.63404629647E+02  0.63404629647E+02  0.00000000000E+00 0. -1.
         25    1    1    2    0    0 -0.21500396213E+03 -0.42885715318E+02  0.57649932811E+03  0.62931896811E+03  0.12500000000E+03 0.  0.
         21    1    1    2  503  501  0.62876667261E+01  0.80562184588E+02  0.56601898828E+02  0.98658883480E+02  0.00000000000E+00 0. -1.
          2    1    1    2  501    0  0.20871629541E+03 -0.37676469270E+02  0.68836028786E+03  0.72029292250E+03  0.00000000000E+00 0.  1.
<mgrwt>
<rscale>  4 0.24542950E+03</rscale>
<asrwt>0</asrwt>
<pdfrwt beam="1">  1       21 0.97545594E-02 0.24542950E+03</pdfrwt>
<pdfrwt beam="2">  1        2 0.21305631E+00 0.24542950E+03</pdfrwt>
<totfact> 0.16892720E+04</totfact>
</mgrwt>
</event>
<event>
 5    0  0.4930573E+000  0.2456374E+03  0.7546771E-02  0.1116093E+00
          2   -1    0    0  502    0 -0.00000000000E+00  0.00000000000E+00  0.11875044331E+04  0.11875044331E+04  0.00000000000E+00 0. -1.
         21   -1    0    0  503  502  0.00000000000E+00 -0.00000000000E+00 -0.15171870200E+03  0.15171870200E+03  0.00000000000E+00 0. -1.
         25    1    1    2    0    0  0.19073132700E+03 -0.10592466844E+03  0.21892486681E+02  0.25239404798E+03  0.12500000000E+03 0.  0.
         21    1    1    2  503  501 -0.20114104617E+02 -0.18162638115E+02 -0.18685942013E+02  0.32918430351E+02  0.00000000000E+00 0. -1.
          2    1    1    2  501    0 -0.17061722238E+03  0.12408730655E+03  0.10325791864E+04  0.10539106568E+04  0.00000000000E+00 0. -1.
<mgrwt>
<rscale>  4 0.24563742E+03</rscale>
<asrwt>0</asrwt>
<pdfrwt beam="1">  1       21 0.23341340E-01 0.24563742E+03</pdfrwt>
<pdfrwt beam="2">  1        2 0.18269298E+00 0.24563742E+03</pdfrwt>
<totfact> 0.43866563E+03</totfact>
</mgrwt>
</event>
<event>
 5    0  0.4930573E+000  0.3575682E+03  0.7546771E-02  0.1059551E+00
          1   -1    0    0  502    0 -0.00000000000E+00  0.00000000000E+00  0.10914427477E+04  0.10914427477E+04  0.00000000000E+00 0.  1.
         21   -1    0    0  503  502  0.00000000000E+00 -0.00000000000E+00 -0.47329840868E+03  0.47329840868E+03  0.00000000000E+00 0. -1.
         25    1    1    2    0    0  0.19467343615E+02 -0.31500916618E+03 -0.35295517968E+03  0.48970614772E+03  0.12500000000E+03 0.  0.
         21    1    1    2  503  501 -0.32122280554E+02 -0.21150481984E+02 -0.84107880793E+01  0.39369088792E+02  0.00000000000E+00 0.  1.
          1    1    1    2  501    0  0.12654936939E+02  0.33615964816E+03  0.97951030683E+03  0.10356659199E+04  0.00000000000E+00 0.  1.
<mgrwt>
<rscale>  4 0.35756820E+03</rscale>
<asrwt>0</asrwt>
<pdfrwt beam="1">  1       21 0.72815140E-01 0.35756820E+03</pdfrwt>
<pdfrwt beam="2">  1        1 0.16791427E+00 0.35756820E+03</pdfrwt>
<totfact> 0.23882137E+02</totfact>
</mgrwt>
</event>
<event>
 5    0  0.4930573E+000  0.2455940E+03  0.7546771E-02  0.1116121E+00
          2   -1    0    0  502    0 -0.00000000000E+00  0.00000000000E+00  0.10744265582E+04  0.10744265582E+04  0.00000000000E+00 0.  1.
         21   -1    0    0  503  502  0.00000000000E+00 -0.00000000000E+00 -0.11912953639E+03  0.11912953639E+03  0.00000000000E+00 0.  1.
         25    1    1    2    0    0  0.20492468047E+03 -0.10888870213E+03  0.26947550315E+03  0.37695214672E+03  0.12500000000E+03 0.  0.
         21    1    1    2  503  501 -0.36220720072E+02 -0.98136875212E+01 -0.44209501773E+02  0.57989042692E+02  0.00000000000E+00 0.  1.
          2    1    1    2  501    0 -0.16870396040E+03  0.11870238965E+03  0.73003102044E+03  0.75861490518E+03  0.00000000000E+00 0.  1.
<mgrwt>
<rscale>  4 0.24559403E+03</rscale>
<asrwt>0</asrwt>
<pdfrwt beam="1">  1       21 0.18327622E-01 0.24559403E+03</pdfrwt>
<pdfrwt beam="2">  1        2 0.16529639E+00 0.24559403E+03</pdfrwt>
<totfact> 0.80489465E+03</totfact>
</mgrwt>
</event>
<event>
 5    0  0.4930573E+000  0.2346896E+03  0.7546771E-02  0.1123382E+00
         21   -1    0    0  503  502  0.00000000000E+00  0.00000000000E+00  0.46082841283E+02  0.46082841283E+02  0.00000000000E+00 0.  1.
          1   -1    0    0  502    0 -0.00000000000E+00 -0.00000000000E+00 -0.44159927135E+04  0.44159927135E+04  0.00000000000E+00 0. -1.
         25    1    1    2    0    0  0.20081922006E+03 -0.13168749011E+03 -0.10423388377E+04  0.10769239559E+04  0.12500000000E+03 0.  0.
         21    1    1    2  503  501 -0.36849056938E+02  0.31778008115E+02  0.32813395009E+01  0.48769478015E+02  0.00000000000E+00 0.  1.
          1    1    1    2  501    0 -0.16397016312E+03  0.99909482000E+02 -0.33308523740E+04  0.33363821208E+04  0.00000000000E+00 0. -1.
<mgrwt>
<rscale>  4 0.23468962E+03</rscale>
<asrwt>0</asrwt>
<pdfrwt beam="1">  1       21 0.70896654E-02 0.23468962E+03</pdfrwt>
<pdfrwt beam="2">  1        1 0.67938374E+00 0.23468962E+03</pdfrwt>
<totfact> 0.90002164E+01</totfact>
</mgrwt>
</event>
<event>
 5    0  0.4930573E+000  0.2013895E+03  0.7546771E-02  0.1148572E+00
         -1   -1    0    0    0  501 -0.00000000000E+00  0.00000000000E+00  0.19062784515E+03  0.19062784515E+03  0.00000000000E+00 0. -1.
         21   -1    0    0  501  502  0.00000000000E+00 -0.00000000000E+00 -0.66248437710E+03  0.66248437710E+03  0.00000000000E+00 0. -1.
         25    1    1    2    0    0  0.12421663365E+03 -0.17153920829E+03 -0.86467993625E+02  0.26068599114E+03  0.12500000000E+03 0.  0.
         21    1    1    2  503  502 -0.81323783361E+02  0.34099875620E+02 -0.43214253538E+03  0.44104821748E+03  0.00000000000E+00 0. -1.
         -1    1    1    2    0  503 -0.42892850287E+02  0.13743933267E+03  0.46753997060E+02  0.15137801363E+03  0.00000000000E+00 0. -1.
<mgrwt>
<rscale>  4 0.20138952E+03</rscale>
<asrwt>0</asrwt>
<pdfrwt beam="1">  1       21 0.10192067E+00 0.20138952E+03</pdfrwt>
<pdfrwt beam="2">  1       -1 0.29327362E-01 0.20138952E+03</pdfrwt>
<totfact> 0.75855311E+02</totfact>
</mgrwt>
</event>
<event>
 5    0  0.4930573E+000  0.2834288E+03  0.7546771E-02  0.1093831E+00
         21   -1    0    0  503  502  0.00000000000E+00  0.00000000000E+00  0.12682276881E+03  0.12682276881E+03  0.00000000000E+00 0.  1.
          2   -1    0    0  502    0 -0.00000000000E+00 -0.00000000000E+00 -0.18012324813E+04  0.18012324813E+04  0.00000000000E+00 0.  1.
         25    1    1    2    0    0  0.33226433769E+03  0.15622063163E+03 -0.43773788051E+03  0.58484521703E+03  0.12500000000E+03 0.  0.
         21    1    1    2  503  501 -0.11443948470E+03 -0.64473669541E+02 -0.62459704075E+02  0.14544574368E+03  0.00000000000E+00 0.  1.
          2    1    1    2  501    0 -0.21782485299E+03 -0.91746962085E+02 -0.11742121279E+04  0.11977642894E+04  0.00000000000E+00 0.  1.
<mgrwt>
<rscale>  4 0.28342877E+03</rscale>
<asrwt>0</asrwt>
<pdfrwt beam="1">  1       21 0.19511197E-01 0.28342877E+03</pdfrwt>
<pdfrwt beam="2">  1        2 0.27711267E+00 0.28342877E+03</pdfrwt>
<totfact> 0.28307228E+03</totfact>
</mgrwt>
</event>
<event>
 5    0  0.4930573E+000  0.4168179E+03  0.7546771E-02  0.1038107E+00
         21   -1    0    0  503  502  0.00000000000E+00  0.00000000000E+00  0.12318351934E+04  0.12318351934E+04  0.00000000000E+00 0. -1.
          1   -1    0    0  502    0 -0.00000000000E+00 -0.00000000000E+00 -0.15422304895E+04  0.15422304895E+04  0.00000000000E+00 0.  1.
         25    1    1    2    0    0  0.34008463796E+03 -0.12469842484E+03  0.61032555549E+03  0.72064522605E+03  0.12500000000E+03 0.  0.
         21    1    1    2  503  501 -0.13898294007E+02 -0.10605829569E+03  0.53411196509E+03  0.54471746430E+03  0.00000000000E+00 0. -1.
          1    1    1    2  501    0 -0.32618634395E+03  0.23075672053E+03 -0.14548328168E+04  0.15087029926E+04  0.00000000000E+00 0.  1.
<mgrwt>
<rscale>  4 0.41681790E+03</rscale>
<asrwt>0</asrwt>
<pdfrwt beam="1">  1       21 0.18951311E+00 0.41681790E+03</pdfrwt>
<pdfrwt beam="2">  1        1 0.23726623E+00 0.41681790E+03</pdfrwt>
<totfact> 0.98756493E+00</totfact>
</mgrwt>
</event>
<event>
 5    0  0.4930573E+000  0.3014175E+03  0.7546771E-02  0.1084534E+00
          1   -1    0    0  502    0 -0.00000000000E+00  0.00000000000E+00  0.18281774782E+04  0.18281774782E+04  0.00000000000E+00 0. -1.
         21   -1    0    0  503  502  0.00000000000E+00 -0.00000000000E+00 -0.27475412160E+03  0.27475412160E+03  0.00000000000E+00 0. -1.
         25    1    1    2    0    0  0.22100417759E+03 -0.31593190881E+03  0.41223234337E+03  0.57811445445E+03  0.12500000000E+03 0.  0.
         21    1    1    2  503  501 -0.53804593087E+02  0.12009262958E+03 -0.15498141023E+03  0.20331357907E+03  0.00000000000E+00 0. -1.
          1    1    1    2  501    0 -0.16719958451E+03  0.19583927923E+03  0.12961724234E+04  0.13215035662E+04  0.00000000000E+00 0. -1.
<mgrwt>
<rscale>  4 0.30141754E+03</rscale>
<asrwt>0</asrwt>
<pdfrwt beam="1">  1       21 0.42269866E-01 0.30141754E+03</pdfrwt>
<pdfrwt beam="2">  1        1 0.28125807E+00 0.30141754E+03</pdfrwt>
<totfact> 0.24984509E+02</totfact>
</mgrwt>
</event>
<event>
 5    0  0.4930573E+000  0.1905130E+03  0.7546771E-02  0.1157999E+00
         21   -1    0    0  503  502  0.00000000000E+00  0.00000000000E+00  0.25653117617E+04  0.25653117617E+04  0.00000000000E+00 0.  1.
          2   -1    0    0  502    0 -0.00000000000E+00 -0.00000000000E+00 -0.74569791154E+03  0.74569791154E+03  0.00000000000E+00 0. -1.
         25    1    1    2    0    0 -0.96795672994E+02 -0.23913370706E+03 -0.25224227334E+03  0.38184485936E+03  0.12500000000E+03 0.  0.
         21    1    1    2  503  501  0.10273749474E+03  0.99713976870E+02  0.24870397445E+04  0.24911572734E+04  0.00000000000E+00 0.  1.
          2    1    1    2  501    0 -0.59418217448E+01  0.13941973019E+03 -0.41518362099E+03  0.43800754052E+03  0.00000000000E+00 0. -1.
<mgrwt>
<rscale>  4 0.19051296E+03</rscale>
<asrwt>0</asrwt>
<pdfrwt beam="1">  1       21 0.39466334E+00 0.19051296E+03</pdfrwt>
<pdfrwt beam="2">  1        2 0.11472276E+00 0.19051296E+03</pdfrwt>
<totfact> 0.46231601E+00</totfact>
</mgrwt>
</event>
<event>
 5    0  0.4930573E+000  0.2670461E+03  0.7546771E-02  0.1102982E+00
         21   -1    0    0  503  502  0.00000000000E+00  0.00000000000E+00  0.17712545526E+03  0.17712545526E+03  0.00000000000E+00 0.  1.
          3   -1    0    0  502    0 -0.00000000000E+00 -0.00000000000E+00 -0.51923161065E+03  0.51923161065E+03  0.00000000000E+00 0.  1.
         25    1    1    2    0    0 -0.10545932209E+03 -0.19575237174E+03 -0.47892399679E+02  0.25953678276E+03  0.12500000000E+03 0.  0.
         21    1    1    2  503  501 -0.20959114579E+02 -0.97550111795E+01  0.26703074113E+02  0.35319950370E+02  0.00000000000E+00 0. -1.
          3    1    1    2  501    0  0.12641843666E+03  0.20550738292E+03 -0.32091682982E+03  0.40150033278E+03  0.00000000000E+00 0.  1.
<mgrwt>
<rscale>  4 0.26704610E+03</rscale>
<asrwt>0</asrwt>
<pdfrwt beam="1">  1       21 0.27250070E-01 0.26704610E+03</pdfrwt>
<pdfrwt beam="2">  1        3 0.79881785E-01 0.26704610E+03</pdfrwt>
<totfact> 0.94321573E+02</totfact>
</mgrwt>
</event>
<event>
 5    0  0.4930573E+000  0.2792856E+03  0.7546771E-02  0.1096080E+00
         21   -1    0    0  503  502  0.00000000000E+00  0.00000000000E+00  0.27773512525E+03  0.27773512525E+03  0.00000000000E+00 0. -1.
          2   -1    0    0  502    0 -0.00000000000E+00 -0.00000000000E+00 -0.50793035759E+03  0.50793035759E+03  0.00000000000E+00 0. -1.
         25    1    1    2    0    0  0.17726161420E+03  0.19977614780E+03  0.13327822171E+03  0.32360511968E+03  0.12500000000E+03 0.  0.
         21    1    1    2  503  501 -0.10187926029E+02 -0.18002341829E+02  0.22443786351E+01  0.20806618744E+02  0.00000000000E+00 0. -1.
          2    1    1    2  501    0 -0.16707368817E+03 -0.18177380597E+03 -0.36571783268E+03  0.44125374441E+03  0.00000000000E+00 0. -1.
<mgrwt>
<rscale>  4 0.27928558E+03</rscale>
<asrwt>0</asrwt>
<pdfrwt beam="1">  1       21 0.42728481E-01 0.27928558E+03</pdfrwt>
<pdfrwt beam="2">  1        2 0.78143132E-01 0.27928558E+03</pdfrwt>
<totfact> 0.39280537E+03</totfact>
</mgrwt>
</event>
<event>
 5    0  0.4930573E+000  0.2048623E+03  0.7546771E-02  0.1145700E+00
         21   -1    0    0  503  502  0.00000000000E+00  0.00000000000E+00  0.27386641404E+02  0.27386641404E+02  0.00000000000E+00 0. -1.
          2   -1    0    0  502    0 -0.00000000000E+00 -0.00000000000E+00 -0.30634761444E+04  0.30634761444E+04  0.00000000000E+00 0. -1.
         25    1    1    2    0    0  0.36687854492E+02  0.22408978750E+03 -0.12030365408E+04  0.12306437949E+04  0.12500000000E+03 0.  0.
         21    1    1    2  503  501  0.23592178020E+02 -0.88955727579E+02 -0.19642777066E+03  0.21691837502E+03  0.00000000000E+00 0. -1.
          2    1    1    2  501    0 -0.60280032512E+02 -0.13513405992E+03 -0.16366251915E+04  0.16433006158E+04  0.00000000000E+00 0. -1.
<mgrwt>
<rscale>  4 0.20486230E+03</rscale>
<asrwt>0</asrwt>
<pdfrwt beam="1">  1       21 0.42133294E-02 0.20486230E+03</pdfrwt>
<pdfrwt beam="2">  1        2 0.47130403E+00 0.20486230E+03</pdfrwt>
<totfact> 0.89912682E+03</totfact>
</mgrwt>
</event>
<event>
 5    0  0.4930573E+000  0.5479203E+03  0.7546771E-02  0.1001976E+00
          2   -1    0    0  502    0 -0.00000000000E+00  0.00000000000E+00  0.14074635172E+04  0.14074635172E+04  0.00000000000E+00 0. -1.
         21   -1    0    0  503  502  0.00000000000E+00 -0.00000000000E+00 -0.56047358358E+03  0.56047358358E+03  0.00000000000E+00 0. -1.
         25    1    1    2    0    0  0.41202245917E+03  0.40237349519E+03 -0.24677319348E+03  0.63889666263E+03  0.12500000000E+03 0.  0.
         21    1    1    2  503  501 -0.32085355879E+02 -0.35843969570E+02 -0.49961479196E+02  0.69357116577E+02  0.00000000000E+00 0. -1.
          2    1    1    2  501    0 -0.37993710330E+03 -0.36652952562E+03  0.11437246063E+04  0.12596833216E+04  0.00000000000E+00 0. -1.
<mgrwt>
<rscale>  4 0.54792028E+03</rscale>
<asrwt>0</asrwt>
<pdfrwt beam="1">  1       21 0.86226706E-01 0.54792028E+03</pdfrwt>
<pdfrwt beam="2">  1        2 0.21653285E+00 0.54792028E+03</pdfrwt>
<totfact> 0.19255532E+02</totfact>
</mgrwt>
</event>
<event>
 5    0  0.4930573E+000  0.6794686E+03  0.7546771E-02  0.9753923E-01
          2   -1    0    0  502    0 -0.00000000000E+00  0.00000000000E+00  0.70876941707E+03  0.70876941707E+03  0.00000000000E+00 0.  1.
         21   -1    0    0  503  502  0.00000000000E+00 -0.00000000000E+00 -0.66177684461E+03  0.66177684461E+03  0.00000000000E+00 0. -1.
         25    1    1    2    0    0 -0.40294673648E+03  0.52997771148E+03 -0.70272730428E+02  0.68103282135E+03  0.12500000000E+03 0.  0.
         21    1    1    2  503  501  0.31296153736E+02 -0.44360672762E+02 -0.27853047562E+02  0.61017299064E+02  0.00000000000E+00 0.  1.
          2    1    1    2  501    0  0.37165058275E+03 -0.48561703872E+03  0.14511835046E+03  0.62849614127E+03  0.00000000000E+00 0.  1.
<mgrwt>
<rscale>  4 0.67895028E+03</rscale>
<asrwt>0</asrwt>
<pdfrwt beam="1">  1       21 0.10181182E+00 0.67946864E+03</pdfrwt>
<pdfrwt beam="2">  1        2 0.10904145E+00 0.67946864E+03</pdfrwt>
<totfact> 0.34645926E+02</totfact>
</mgrwt>
</event>
<event>
 5    0  0.4930573E+000  0.2286067E+03  0.7546771E-02  0.1127624E+00
         -3   -1    0    0    0  501 -0.00000000000E+00  0.00000000000E+00  0.23007903946E+03  0.23007903946E+03  0.00000000000E+00 0. -1.
         21   -1    0    0  501  502  0.00000000000E+00 -0.00000000000E+00 -0.28750492201E+03  0.28750492201E+03  0.00000000000E+00 0. -1.
         25    1    1    2    0    0  0.13439863036E+03 -0.17937672452E+03 -0.63138682378E+02  0.26429244097E+03  0.12500000000E+03 0.  0.
         21    1    1    2  503  502 -0.16958338001E+02  0.45265621541E+02 -0.46976084813E+02  0.67404111637E+02  0.00000000000E+00 0. -1.
         -3    1    1    2    0  503 -0.11744029235E+03  0.13411110298E+03  0.52688884642E+02  0.18588740887E+03  0.00000000000E+00 0. -1.
<mgrwt>
<rscale>  4 0.22860671E+03</rscale>
<asrwt>0</asrwt>
<pdfrwt beam="1">  1       21 0.44231526E-01 0.22860671E+03</pdfrwt>
<pdfrwt beam="2">  1       -3 0.35396775E-01 0.22860671E+03</pdfrwt>
<totfact> 0.18996406E+03</totfact>
</mgrwt>
</event>
<event>
 5    0  0.4930573E+000  0.1799945E+03  0.7546771E-02  0.1167808E+00
         21   -1    0    0  501  502  0.00000000000E+00  0.00000000000E+00  0.59566658049E+02  0.59566658049E+02  0.00000000000E+00 0. -1.
         -1   -1    0    0    0  501 -0.00000000000E+00 -0.00000000000E+00 -0.95150456863E+03  0.95150456863E+03  0.00000000000E+00 0. -1.
         25    1    1    2    0    0  0.19643731348E+03  0.42242734587E+02 -0.34752893931E+03  0.42044432498E+03  0.12500000000E+03 0.  0.
         21    1    1    2  503  502 -0.85311905588E+02 -0.12196381472E+02 -0.10222491688E+03  0.13370417565E+03  0.00000000000E+00 0. -1.
         -1    1    1    2    0  503 -0.11112540789E+03 -0.30046353114E+02 -0.44218405439E+03  0.45692272604E+03  0.00000000000E+00 0. -1.
<mgrwt>
<rscale>  4 0.17999447E+03</rscale>
<asrwt>0</asrwt>
<pdfrwt beam="1">  1       21 0.91641024E-02 0.17999447E+03</pdfrwt>
<pdfrwt beam="2">  1       -1 0.14638530E+00 0.17999447E+03</pdfrwt>
<totfact> 0.36187552E+03</totfact>
</mgrwt>
</event>
<event>
 5    0  0.4930573E+000  0.3075853E+03  0.7546771E-02  0.1081509E+00
         21   -1    0    0  503  502  0.00000000000E+00  0.00000000000E+00  0.46322748459E+03  0.46322748459E+03  0.00000000000E+00 0. -1.
          1   -1    0    0  502    0 -0.00000000000E+00 -0.00000000000E+00 -0.33930391373E+03  0.33930391373E+03  0.00000000000E+00 0. -1.
         25    1    1    2    0    0  0.13336919354E+02 -0.27191974354E+03 -0.96094568198E+02  0.31460671700E+03  0.12500000000E+03 0.  0.
         21    1    1    2  503  501 -0.60498152829E+01 -0.22145207538E+02  0.19096305930E+03  0.19233798506E+03  0.00000000000E+00 0. -1.
          1    1    1    2  501    0 -0.72871040707E+01  0.29406495108E+03  0.29055079756E+02  0.29558669625E+03  0.00000000000E+00 0. -1.
<mgrwt>
<rscale>  4 0.30758527E+03</rscale>
<asrwt>0</asrwt>
<pdfrwt beam="1">  1       21 0.71265767E-01 0.30758527E+03</pdfrwt>
<pdfrwt beam="2">  1        1 0.52200602E-01 0.30758527E+03</pdfrwt>
<totfact> 0.14002166E+03</totfact>
</mgrwt>
</event>
<event>
 5    0  0.4930573E+000  0.2832031E+03  0.7546771E-02  0.1093952E+00
         -1   -1    0    0    0  501 -0.00000000000E+00  0.00000000000E+00  0.16927440796E+04  0.16927440796E+04  0.00000000000E+00 0. -1.
         21   -1    0    0  501  502  0.00000000000E+00 -0.00000000000E+00 -0.16453224585E+03  0.16453224585E+03  0.00000000000E+00 0. -1.
         25    1    1    2    0    0  0.26890861744E+03  0.96654989337E+02  0.52153246536E+02  0.31622617321E+03  0.12500000000E+03 0.  0.
         21    1    1    2  503  502 -0.28279797272E+02 -0.23133913916E+02 -0.66565110001E+01  0.37138040410E+02  0.00000000000E+00 0. -1.
         -1    1    1    2    0  503 -0.24062882017E+03 -0.73521075422E+02  0.14827150982E+04  0.15039121119E+04  0.00000000000E+00 0. -1.
<mgrwt>
<rscale>  4 0.28320309E+03</rscale>
<asrwt>0</asrwt>
<pdfrwt beam="1">  1       21 0.25312654E-01 0.28320309E+03</pdfrwt>
<pdfrwt beam="2">  1       -1 0.26042215E+00 0.28320309E+03</pdfrwt>
<totfact> 0.91983201E+01</totfact>
</mgrwt>
</event>
<event>
 5    0  0.4930573E+000  0.2184291E+03  0.7546771E-02  0.1135060E+00
         21   -1    0    0  503  502  0.00000000000E+00  0.00000000000E+00  0.94016086847E+03  0.94016086847E+03  0.00000000000E+00 0. -1.
          2   -1    0    0  502    0 -0.00000000000E+00 -0.00000000000E+00 -0.31216893535E+03  0.31216893535E+03  0.00000000000E+00 0. -1.
         25    1    1    2    0    0 -0.24590140163E+03  0.11191216733E+03  0.41433778986E+03  0.51018882448E+03  0.12500000000E+03 0.  0.
         21    1    1    2  503  501  0.14817163682E+03 -0.45379379312E+02  0.45105354792E+03  0.47693125827E+03  0.00000000000E+00 0. -1.
          2    1    1    2  501    0  0.97729764810E+02 -0.66532788016E+02 -0.23739940467E+03  0.26520972107E+03  0.00000000000E+00 0. -1.
<mgrwt>
<rscale>  4 0.21842913E+03</rscale>
<asrwt>0</asrwt>
<pdfrwt beam="1">  1       21 0.14464013E+00 0.21842913E+03</pdfrwt>
<pdfrwt beam="2">  1        2 0.48025990E-01 0.21842913E+03</pdfrwt>
<totfact> 0.42012972E+02</totfact>
</mgrwt>
</event>
<event>
 5    0  0.4930573E+000  0.2337235E+03  0.7546771E-02  0.1124046E+00
          2   -1    0    0  502    0 -0.00000000000E+00  0.00000000000E+00  0.84875755834E+03  0.84875755834E+03  0.00000000000E+00 0.  1.
         21   -1    0    0  503  502  0.00000000000E+00 -0.00000000000E+00 -0.68073626368E+02  0.68073626368E+02  0.00000000000E+00 0.  1.
         25    1    1    2    0    0  0.85032709657E+02  0.19471957573E+03  0.49443426371E+03  0.55248214091E+03  0.12500000000E+03 0.  0.
         21    1    1    2  503  501 -0.34398669298E+01 -0.30511126493E+02  0.90840627826E+01  0.32020020628E+02  0.00000000000E+00 0. -1.
          2    1    1    2  501    0 -0.81592842728E+02 -0.16420844924E+03  0.27716560547E+03  0.33232902317E+03  0.00000000000E+00 0.  1.
<mgrwt>
<rscale>  4 0.23372353E+03</rscale>
<asrwt>0</asrwt>
<pdfrwt beam="1">  1       21 0.10472866E-01 0.23372353E+03</pdfrwt>
<pdfrwt beam="2">  1        2 0.13057808E+00 0.23372353E+03</pdfrwt>
<totfact> 0.30918350E+04</totfact>
</mgrwt>
</event>
<event>
 5    0  0.4930573E+000  0.2562197E+03  0.7546771E-02  0.1109436E+00
         21   -1    0    0  501  502  0.00000000000E+00  0.00000000000E+00  0.10581599346E+04  0.10581599346E+04  0.00000000000E+00 0.  1.
         -1   -1    0    0    0  501 -0.00000000000E+00 -0.00000000000E+00 -0.43000857448E+03  0.43000857448E+03  0.00000000000E+00 0. -1.
         25    1    1    2    0    0  0.20707698445E+03  0.43160944015E+02  0.90669600620E+03  0.93939682362E+03  0.12500000000E+03 0.  0.
         21    1    1    2  503  502  0.41895949500E+01  0.31653967466E+02  0.10213860481E+03  0.10701318122E+03  0.00000000000E+00 0.  1.
         -1    1    1    2    0  503 -0.21126657940E+03 -0.74814911481E+02 -0.38068325089E+03  0.44175850423E+03  0.00000000000E+00 0. -1.
<mgrwt>
<rscale>  4 0.25621966E+03</rscale>
<asrwt>0</asrwt>
<pdfrwt beam="1">  1       21 0.16279384E+00 0.25621966E+03</pdfrwt>
<pdfrwt beam="2">  1       -1 0.66155165E-01 0.25621966E+03</pdfrwt>
<totfact> 0.51095825E+01</totfact>
</mgrwt>
</event>
<event>
 5    0  0.4930573E+000  0.3554687E+03  0.7546771E-02  0.1060393E+00
          2   -1    0    0  502    0 -0.00000000000E+00  0.00000000000E+00  0.22078925029E+04  0.22078925029E+04  0.00000000000E+00 0. -1.
         21   -1    0    0  503  502  0.00000000000E+00 -0.00000000000E+00 -0.99339236850E+03  0.99339236850E+03  0.00000000000E+00 0. -1.
         25    1    1    2    0    0 -0.20701607103E+03  0.31702601208E+03  0.16730959826E+04  0.17199524159E+04  0.12500000000E+03 0.  0.
         21    1    1    2  503  501  0.44982420375E+02 -0.10680881054E+03 -0.93169036198E+03  0.93887084881E+03  0.00000000000E+00 0. -1.
          2    1    1    2  501    0  0.16203365065E+03 -0.21021720155E+03  0.47309451384E+03  0.54246160675E+03  0.00000000000E+00 0. -1.
<mgrwt>
<rscale>  4 0.35546868E+03</rscale>
<asrwt>0</asrwt>
<pdfrwt beam="1">  1       21 0.15282960E+00 0.35546868E+03</pdfrwt>
<pdfrwt beam="2">  1        2 0.33967577E+00 0.35546868E+03</pdfrwt>
<totfact> 0.18354456E+01</totfact>
</mgrwt>
</event>
<event>
 5    0  0.4930573E+000  0.2617410E+03  0.7546771E-02  0.1106102E+00
         21   -1    0    0  503  502  0.00000000000E+00  0.00000000000E+00  0.24110375774E+03  0.24110375774E+03  0.00000000000E+00 0. -1.
          2   -1    0    0  502    0 -0.00000000000E+00 -0.00000000000E+00 -0.12909741106E+04  0.12909741106E+04  0.00000000000E+00 0.  1.
         25    1    1    2    0    0 -0.81283625123E+02  0.24282783195E+03  0.11936213063E+03  0.30894125964E+03  0.12500000000E+03 0.  0.
         21    1    1    2  503  501  0.93832832281E+01 -0.25809542350E+02  0.40753777807E+01  0.27763054308E+02  0.00000000000E+00 0. -1.
          2    1    1    2  501    0  0.71900341895E+02 -0.21701828960E+03 -0.11733078613E+04  0.11953735544E+04  0.00000000000E+00 0.  1.
<mgrwt>
<rscale>  4 0.26174104E+03</rscale>
<asrwt>0</asrwt>
<pdfrwt beam="1">  1       21 0.37092887E-01 0.26174104E+03</pdfrwt>
<pdfrwt beam="2">  1        2 0.19861140E+00 0.26174104E+03</pdfrwt>
<totfact> 0.15391085E+03</totfact>
</mgrwt>
</event>
<event>
 5    0  0.4930573E+000  0.2676577E+03  0.7546771E-02  0.1102628E+00
         21   -1    0    0  503  502  0.00000000000E+00  0.00000000000E+00  0.82449442913E+02  0.82449442913E+02  0.00000000000E+00 0.  1.
          2   -1    0    0  502    0 -0.00000000000E+00 -0.00000000000E+00 -0.36895444182E+04  0.36895444182E+04  0.00000000000E+00 0.  1.
         25    1    1    2    0    0  0.20412241346E+03 -0.12074683124E+03 -0.16376267268E+03  0.31414800635E+03  0.12500000000E+03 0.  0.
         21    1    1    2  503  501  0.15539396931E+02  0.40904698192E+02 -0.15057286618E+03  0.15680196179E+03  0.00000000000E+00 0. -1.
          2    1    1    2  501    0 -0.21966181039E+03  0.79842133045E+02 -0.32927594364E+04  0.33010438930E+04  0.00000000000E+00 0.  1.
<mgrwt>
<rscale>  4 0.26765771E+03</rscale>
<asrwt>0</asrwt>
<pdfrwt beam="1">  1       21 0.12684530E-01 0.26765771E+03</pdfrwt>
<pdfrwt beam="2">  1        2 0.56762220E+00 0.26765771E+03</pdfrwt>
<totfact> 0.50342455E+02</totfact>
</mgrwt>
</event>
<event>
 5    0  0.4930573E+000  0.4819788E+03  0.7546771E-02  0.1018593E+00
         21   -1    0    0  503  502  0.00000000000E+00  0.00000000000E+00  0.10466063007E+04  0.10466063007E+04  0.00000000000E+00 0. -1.
          2   -1    0    0  502    0 -0.00000000000E+00 -0.00000000000E+00 -0.49463824514E+03  0.49463824514E+03  0.00000000000E+00 0. -1.
         25    1    1    2    0    0  0.19362761871E+03 -0.33940856381E+03  0.78514970608E+03  0.88587521067E+03  0.12500000000E+03 0.  0.
         21    1    1    2  503  501  0.40445293827E+02 -0.76970942225E+02  0.49773541411E+02  0.10018858800E+03  0.00000000000E+00 0. -1.
          2    1    1    2  501    0 -0.23407291254E+03  0.41637950604E+03 -0.28295519191E+03  0.55518074720E+03  0.00000000000E+00 0. -1.
<mgrwt>
<rscale>  4 0.48197879E+03</rscale>
<asrwt>0</asrwt>
<pdfrwt beam="1">  1       21 0.16101635E+00 0.48197879E+03</pdfrwt>
<pdfrwt beam="2">  1        2 0.76098192E-01 0.48197879E+03</pdfrwt>
<totfact> 0.16876824E+02</totfact>
</mgrwt>
</event>
<event>
 5    0  0.4930573E+000  0.4516927E+03  0.7546771E-02  0.1027218E+00
          1   -1    0    0  502    0 -0.00000000000E+00  0.00000000000E+00  0.15968857213E+04  0.15968857213E+04  0.00000000000E+00 0.  1.
         21   -1    0    0  503  502  0.00000000000E+00 -0.00000000000E+00 -0.87354039103E+03  0.87354039103E+03  0.00000000000E+00 0.  1.
         25    1    1    2    0    0  0.34169917000E+03  0.21076321678E+03 -0.61040119891E+03  0.74121122493E+03  0.12500000000E+03 0.  0.
         21    1    1    2  503  501  0.49125112554E+02 -0.18332181238E+02 -0.16254791249E+03  0.17079569494E+03  0.00000000000E+00 0.  1.
          1    1    1    2  501    0 -0.39082428256E+03 -0.19243103554E+03  0.14962944417E+04  0.15584191925E+04  0.00000000000E+00 0.  1.
<mgrwt>
<rscale>  4 0.45169270E+03</rscale>
<asrwt>0</asrwt>
<pdfrwt beam="1">  1       21 0.13439083E+00 0.45169270E+03</pdfrwt>
<pdfrwt beam="2">  1        1 0.24567473E+00 0.45169270E+03</pdfrwt>
<totfact> 0.23227605E+01</totfact>
</mgrwt>
</event>
<event>
 5    0  0.4930573E+000  0.2248562E+03  0.7546771E-02  0.1130313E+00
          2   -1    0    0  502    0 -0.00000000000E+00  0.00000000000E+00  0.19487013180E+04  0.19487013180E+04  0.00000000000E+00 0.  1.
         21   -1    0    0  503  502  0.00000000000E+00 -0.00000000000E+00 -0.11785635368E+03  0.11785635368E+03  0.00000000000E+00 0.  1.
         25    1    1    2    0    0  0.20577057296E+03  0.73237663184E+02  0.87169515842E+02  0.26632462991E+03  0.12500000000E+03 0.  0.
         21    1    1    2  503  501 -0.37181620098E+02  0.35034123313E+01 -0.84936776997E+01  0.38299991279E+02  0.00000000000E+00 0.  1.
          2    1    1    2  501    0 -0.16858895287E+03 -0.76741075516E+02  0.17521691262E+04  0.17619330505E+04  0.00000000000E+00 0.  1.
<mgrwt>
<rscale>  4 0.22485619E+03</rscale>
<asrwt>0</asrwt>
<pdfrwt beam="1">  1       21 0.18131748E-01 0.22485619E+03</pdfrwt>
<pdfrwt beam="2">  1        2 0.29980018E+00 0.22485619E+03</pdfrwt>
<totfact> 0.27884417E+03</totfact>
</mgrwt>
</event>
<event>
 5    0  0.4930573E+000  0.2214670E+03  0.7546771E-02  0.1132794E+00
          2   -1    0    0  502    0 -0.00000000000E+00  0.00000000000E+00  0.62896435218E+03  0.62896435218E+03  0.00000000000E+00 0. -1.
         21   -1    0    0  503  502  0.00000000000E+00 -0.00000000000E+00 -0.10944997884E+04  0.10944997884E+04  0.00000000000E+00 0. -1.
         25    1    1    2    0    0  0.18961928714E+03 -0.74892319814E+02 -0.10086536525E+04  0.10366154177E+04  0.12500000000E+03 0.  0.
         21    1    1    2  503  501 -0.33685169670E+02 -0.20073281237E+02 -0.51558679678E+02  0.64775957928E+02  0.00000000000E+00 0. -1.
          2    1    1    2  501    0 -0.15593411747E+03  0.94965601051E+02  0.59467689591E+03  0.62207276495E+03  0.00000000000E+00 0. -1.
<mgrwt>
<rscale>  4 0.22146703E+03</rscale>
<asrwt>0</asrwt>
<pdfrwt beam="1">  1       21 0.16838458E+00 0.22146703E+03</pdfrwt>
<pdfrwt beam="2">  1        2 0.96763747E-01 0.22146703E+03</pdfrwt>
<totfact> 0.12832739E+02</totfact>
</mgrwt>
</event>
<event>
 5    0  0.4930573E+000  0.2752836E+03  0.7546771E-02  0.1098293E+00
          1   -1    0    0  502    0 -0.00000000000E+00  0.00000000000E+00  0.19166817185E+04  0.19166817185E+04  0.00000000000E+00 0.  1.
         21   -1    0    0  503  502  0.00000000000E+00 -0.00000000000E+00 -0.58262305581E+02  0.58262305581E+02  0.00000000000E+00 0.  1.
         25    1    1    2    0    0 -0.19786818016E+02 -0.25516859438E+03  0.68325440395E+03  0.74024597955E+03  0.12500000000E+03 0.  0.
         21    1    1    2  503  501 -0.24045762554E+01  0.23841829491E+03  0.45228434317E+03  0.51128288883E+03  0.00000000000E+00 0.  1.
          1    1    1    2  501    0  0.22191394271E+02  0.16750299472E+02  0.72288066576E+03  0.72341515566E+03  0.00000000000E+00 0.  1.
<mgrwt>
<rscale>  4 0.27528359E+03</rscale>
<asrwt>0</asrwt>
<pdfrwt beam="1">  1       21 0.89634331E-02 0.27528359E+03</pdfrwt>
<pdfrwt beam="2">  1        1 0.29487406E+00 0.27528359E+03</pdfrwt>
<totfact> 0.41544439E+03</totfact>
</mgrwt>
</event>
