<event>
 5    0  0.1911311E+001  0.2432863E+03  0.7546771E-02  0.1117623E+00
         21   -1    0    0  503  501  0.00000000000E+00  0.00000000000E+00  0.17337660815E+03  0.17337660815E+03  0.00000000000E+00 0.  1.
         21   -1    0    0  501  502 -0.00000000000E+00 -0.00000000000E+00 -0.50719967481E+03  0.50719967481E+03  0.00000000000E+00 0.  1.
         25    1    1    2    0    0 -0.21385464953E+03  0.11856346562E+02 -0.72374331570E+02  0.25833588204E+03  0.12500000000E+03 0.  0.
         21    1    1    2  503  504  0.19492417734E+03  0.97707856268E+02 -0.14890729584E+03  0.26403719973E+03  0.00000000000E+00 0.  1.
         21    1    1    2  504  502  0.18930472190E+02 -0.10956420283E+03 -0.11254143926E+03  0.15820320120E+03  0.00000000000E+00 0.  1.
<mgrwt>
<rscale>  4 0.24328631E+03</rscale>
<asrwt>0</asrwt>
<pdfrwt beam="1">  1       21 0.26673325E-01 0.24328631E+03</pdfrwt>
<pdfrwt beam="2">  1       21 0.78030716E-01 0.24328631E+03</pdfrwt>
<totfact> 0.18914367E+04</totfact>
</mgrwt>
</event>
<event>
 5    0  0.1911311E+001  0.3229876E+03  0.7546771E-02  0.1074282E+00
         21   -1    0    0  504  501  0.00000000000E+00  0.00000000000E+00  0.62194907464E+03  0.62194907464E+03  0.00000000000E+00 0.  1.
         21   -1    0    0  503  502 -0.00000000000E+00 -0.00000000000E+00 -0.35685319462E+03  0.35685319462E+03  0.00000000000E+00 0.  1.
         25    1    1    2    0    0 -0.31836937995E+03  0.40166082518E+01 -0.13430545068E+03  0.36747537239E+03  0.12500000000E+03 0.  0.
         21    1    1    2  503  501  0.25494365571E+02  0.26447512739E+02 -0.57220405002E+02  0.67997120193E+02  0.00000000000E+00 0. -1.
         21    1    1    2  504  502  0.29287501438E+03 -0.30464120991E+02  0.45662173570E+03  0.54332977668E+03  0.00000000000E+00 0.  1.
<mgrwt>
<rscale>  4 0.32298759E+03</rscale>
<asrwt>0</asrwt>
<pdfrwt beam="1">  1       21 0.95684473E-01 0.32298759E+03</pdfrwt>
<pdfrwt beam="2">  1       21 0.54900491E-01 0.32298759E+03</pdfrwt>
<totfact> 0.26116352E+03</totfact>
</mgrwt>
</event>
<event>
 5    0  0.1911311E+001  0.3156060E+03  0.7546771E-02  0.1077689E+00
         21   -1    0    0  504  501  0.00000000000E+00  0.00000000000E+00  0.36185800443E+03  0.36185800443E+03  0.00000000000E+00 0. -1.
         21   -1    0    0  503  502 -0.00000000000E+00 -0.00000000000E+00 -0.42599177423E+03  0.42599177423E+03  0.00000000000E+00 0. -1.
         25    1    1    2    0    0 -0.64177459206E+01 -0.24730268573E+03  0.37077631138E+02  0.27964183622E+03  0.12500000000E+03 0.  0.
         21    1    1    2  503  501 -0.53417197407E+01 -0.98259432671E+02 -0.12794875851E+03  0.16141355235E+03  0.00000000000E+00 0. -1.
         21    1    1    2  504  502  0.11759465661E+02  0.34556211840E+03  0.26737357572E+02  0.34679439009E+03  0.00000000000E+00 0. -1.
<mgrwt>
<rscale>  4 0.31560601E+03</rscale>
<asrwt>0</asrwt>
<pdfrwt beam="1">  1       21 0.55670462E-01 0.31560601E+03</pdfrwt>
<pdfrwt beam="2">  1       21 0.65537196E-01 0.31560601E+03</pdfrwt>
<totfact> 0.60488682E+03</totfact>
</mgrwt>
</event>
<event>
 5    0  0.1911311E+001  0.2839084E+03  0.7546771E-02  0.1093573E+00
         21   -1    0    0  504  501  0.00000000000E+00  0.00000000000E+00  0.13829275997E+03  0.13829275997E+03  0.00000000000E+00 0. -1.
         21   -1    0    0  503  502 -0.00000000000E+00 -0.00000000000E+00 -0.11867115424E+04  0.11867115424E+04  0.00000000000E+00 0. -1.
         25    1    1    2    0    0 -0.13753917873E+03 -0.28101157103E+03 -0.37958662588E+03  0.50753870324E+03  0.12500000000E+03 0.  0.
         21    1    1    2  503  501 -0.38784951175E+02  0.24361628315E+03 -0.54658773403E+03  0.59967600989E+03  0.00000000000E+00 0. -1.
         21    1    1    2  504  502  0.17632412990E+03  0.37395287885E+02 -0.12224442251E+03  0.21778958923E+03  0.00000000000E+00 0. -1.
<mgrwt>
<rscale>  4 0.28390838E+03</rscale>
<asrwt>0</asrwt>
<pdfrwt beam="1">  1       21 0.21275809E-01 0.28390838E+03</pdfrwt>
<pdfrwt beam="2">  1       21 0.18257101E+00 0.28390838E+03</pdfrwt>
<totfact> 0.33449101E+03</totfact>
</mgrwt>
</event>
