<event>
 5    0  0.1856407E+000  0.2388640E+03  0.7546771E-02  0.1120552E+00
         21   -1    0    0  502  501  0.00000000000E+00  0.00000000000E+00  0.27475645559E+03  0.27475645559E+03  0.00000000000E+00 0.  1.
         21   -1    0    0  503  502 -0.00000000000E+00 -0.00000000000E+00 -0.57122983773E+03  0.57122983773E+03  0.00000000000E+00 0.  1.
         25    1    1    2    0    0  0.12153020988E+03  0.16328331262E+03  0.19332109384E+03  0.30729314573E+03  0.12500000000E+03 0.  0.
         21    1    1    2  503  504 -0.27749856587E+02 -0.75967917560E+02 -0.10137753870E+03  0.12968648500E+03  0.00000000000E+00 0.  1.
         21    1    1    2  504  501 -0.93780353288E+02 -0.87315395057E+02 -0.38841693728E+03  0.40900666259E+03  0.00000000000E+00 0.  1.
<mgrwt>
<rscale>  4 0.23886405E+03</rscale>
<asrwt>0</asrwt>
<pdfrwt beam="1">  1       21 0.42270225E-01 0.23886405E+03</pdfrwt>
<pdfrwt beam="2">  1       21 0.87881512E-01 0.23886405E+03</pdfrwt>
<totfact> 0.57850009E+03</totfact>
</mgrwt>
</event>
<event>
 5    0  0.1856407E+000  0.2192209E+03  0.7546771E-02  0.1134465E+00
         21   -1    0    0  502  501  0.00000000000E+00  0.00000000000E+00  0.22303184931E+03  0.22303184931E+03  0.00000000000E+00 0. -1.
         21   -1    0    0  503  502 -0.00000000000E+00 -0.00000000000E+00 -0.27243754451E+03  0.27243754451E+03  0.00000000000E+00 0. -1.
         25    1    1    2    0    0 -0.15022092138E+03  0.15415617669E+03 -0.28632879693E+02  0.25054998270E+03  0.12500000000E+03 0.  0.
         21    1    1    2  503  504  0.92966795041E+02 -0.13374034282E+03 -0.58860289865E+02  0.17318729169E+03  0.00000000000E+00 0. -1.
         21    1    1    2  504  501  0.57254126337E+02 -0.20415833866E+02  0.38087474364E+02  0.71732119434E+02  0.00000000000E+00 0. -1.
<mgrwt>
<rscale>  4 0.21922088E+03</rscale>
<asrwt>0</asrwt>
<pdfrwt beam="1">  1       21 0.34312592E-01 0.21922088E+03</pdfrwt>
<pdfrwt beam="2">  1       21 0.41913468E-01 0.21922088E+03</pdfrwt>
<totfact> 0.44268922E+04</totfact>
</mgrwt>
</event>
<event>
 5    0  0.1856407E+000  0.2504546E+03  0.7546771E-02  0.1113018E+00
         21   -1    0    0  502  501  0.00000000000E+00  0.00000000000E+00  0.65880738612E+03  0.65880738612E+03  0.00000000000E+00 0. -1.
         21   -1    0    0  503  502 -0.00000000000E+00 -0.00000000000E+00 -0.46019774464E+03  0.46019774464E+03  0.00000000000E+00 0. -1.
         25    1    1    2    0    0  0.45493546671E+02  0.21352159531E+03  0.59753470278E+03  0.64833159377E+03  0.12500000000E+03 0.  0.
         21    1    1    2  503  504 -0.34290630221E+02 -0.19267339773E+03 -0.40170845040E+03  0.44684288585E+03  0.00000000000E+00 0. -1.
         21    1    1    2  504  501 -0.11202916450E+02 -0.20848197578E+02  0.27833891027E+01  0.23830651148E+02  0.00000000000E+00 0. -1.
<mgrwt>
<rscale>  4 0.25045456E+03</rscale>
<asrwt>0</asrwt>
<pdfrwt beam="1">  1       21 0.10135498E+00 0.25045456E+03</pdfrwt>
<pdfrwt beam="2">  1       21 0.70799653E-01 0.25045456E+03</pdfrwt>
<totfact> 0.13670415E+03</totfact>
</mgrwt>
</event>
<event>
 5    0  0.1856407E+000  0.4587275E+03  0.7546771E-02  0.1025151E+00
         21   -1    0    0  502  501  0.00000000000E+00  0.00000000000E+00  0.97506146098E+03  0.97506146098E+03  0.00000000000E+00 0. -1.
         21   -1    0    0  503  502 -0.00000000000E+00 -0.00000000000E+00 -0.26525185223E+03  0.26525185223E+03  0.00000000000E+00 0. -1.
         25    1    1    2    0    0  0.47419073224E+03  0.50351758780E+02  0.25297534195E+03  0.55408814622E+03  0.12500000000E+03 0.  0.
         21    1    1    2  503  504 -0.69989210950E+02  0.25579298808E+01  0.18085416043E+03  0.19394138289E+03  0.00000000000E+00 0. -1.
         21    1    1    2  504  501 -0.40420152129E+03 -0.52909688661E+02  0.27598010637E+03  0.49228378409E+03  0.00000000000E+00 0. -1.
<mgrwt>
<rscale>  4 0.45872746E+03</rscale>
<asrwt>0</asrwt>
<pdfrwt beam="1">  1       21 0.15000945E+00 0.45872746E+03</pdfrwt>
<pdfrwt beam="2">  1       21 0.40807978E-01 0.45872746E+03</pdfrwt>
<totfact> 0.14661026E+03</totfact>
</mgrwt>
</event>
<event>
 5    0  0.1856407E+000  0.3103917E+03  0.7546771E-02  0.1080158E+00
         21   -1    0    0  502  501  0.00000000000E+00  0.00000000000E+00  0.35415439521E+03  0.35415439521E+03  0.00000000000E+00 0. -1.
         21   -1    0    0  503  502 -0.00000000000E+00 -0.00000000000E+00 -0.79449238988E+03  0.79449238988E+03  0.00000000000E+00 0.  1.
         25    1    1    2    0    0  0.18877242122E+03  0.23206626218E+03  0.22612549828E+03  0.39528156804E+03  0.12500000000E+03 0.  0.
         21    1    1    2  503  504 -0.18804441220E+03 -0.98118678733E+02 -0.46928799292E+03  0.51499436538E+03  0.00000000000E+00 0.  1.
         21    1    1    2  504  501 -0.72800901906E+00 -0.13394758345E+03 -0.19717550004E+03  0.23837085167E+03  0.00000000000E+00 0. -1.
<mgrwt>
<rscale>  4 0.31039166E+03</rscale>
<asrwt>0</asrwt>
<pdfrwt beam="1">  1       21 0.54485292E-01 0.31039166E+03</pdfrwt>
<pdfrwt beam="2">  1       21 0.12222960E+00 0.31039166E+03</pdfrwt>
<totfact> 0.14673090E+03</totfact>
</mgrwt>
</event>
<event>
 5    0  0.1856407E+000  0.3197217E+03  0.7546771E-02  0.1075777E+00
         21   -1    0    0  502  501  0.00000000000E+00  0.00000000000E+00  0.66258226926E+03  0.66258226926E+03  0.00000000000E+00 0. -1.
         21   -1    0    0  503  502 -0.00000000000E+00 -0.00000000000E+00 -0.67292805130E+03  0.67292805130E+03  0.00000000000E+00 0.  1.
         25    1    1    2    0    0  0.77892194093E+02  0.28462089642E+03  0.57549932109E+03  0.65871140658E+03  0.12500000000E+03 0.  0.
         21    1    1    2  503  504 -0.10939055362E+03 -0.26284904863E+03 -0.56623100367E+03  0.63377714152E+03  0.00000000000E+00 0.  1.
         21    1    1    2  504  501  0.31498359522E+02 -0.21771847789E+02 -0.19614099461E+02  0.43021772469E+02  0.00000000000E+00 0.  1.
<mgrwt>
<rscale>  4 0.31972166E+03</rscale>
<asrwt>0</asrwt>
<pdfrwt beam="1">  1       21 0.10193573E+00 0.31972166E+03</pdfrwt>
<pdfrwt beam="2">  1       21 0.10352739E+00 0.31972166E+03</pdfrwt>
<totfact> 0.53217564E+02</totfact>
</mgrwt>
</event>
<event>
 5    0  0.2398172E+000  0.3063139E+03  0.7546771E-02  0.1082126E+00
         21   -1    0    0  502  501  0.00000000000E+00  0.00000000000E+00  0.18783752350E+03  0.18783752350E+03  0.00000000000E+00 0.  1.
         21   -1    0    0  503  502 -0.00000000000E+00 -0.00000000000E+00 -0.52278860538E+03  0.52278860538E+03  0.00000000000E+00 0. -1.
         25    1    1    2    0    0  0.24433499852E+03 -0.13602797108E+03 -0.58883404164E+02  0.31192219495E+03  0.12500000000E+03 0.  0.
         21    1    1    2  503  504 -0.51426364337E+02 -0.16449955323E+00 -0.45425075519E+02  0.68615854545E+02  0.00000000000E+00 0.  1.
         21    1    1    2  504  501 -0.19290863418E+03  0.13619247064E+03 -0.23064260220E+03  0.33008807938E+03  0.00000000000E+00 0. -1.
<mgrwt>
<rscale>  4 0.30631389E+03</rscale>
<asrwt>0</asrwt>
<pdfrwt beam="1">  1       21 0.28898081E-01 0.30631389E+03</pdfrwt>
<pdfrwt beam="2">  1       21 0.80429016E-01 0.30631389E+03</pdfrwt>
<totfact> 0.14673725E+04</totfact>
</mgrwt>
</event>
<event>
 5    0  0.1856407E+000  0.2865902E+03  0.7546771E-02  0.1092143E+00
         21   -1    0    0  502  501  0.00000000000E+00  0.00000000000E+00  0.10680732163E+04  0.10680732163E+04  0.00000000000E+00 0.  1.
         21   -1    0    0  503  502 -0.00000000000E+00 -0.00000000000E+00 -0.70722785128E+02  0.70722785128E+02  0.00000000000E+00 0.  1.
         25    1    1    2    0    0 -0.31086692054E+01 -0.25787457437E+03  0.53540114208E+03  0.60727946028E+03  0.12500000000E+03 0.  0.
         21    1    1    2  503  504  0.23502819634E+02  0.90663855179E+02  0.14581919683E+03  0.17330768976E+03  0.00000000000E+00 0.  1.
         21    1    1    2  504  501 -0.20394150429E+02  0.16721071919E+03  0.31613009231E+03  0.35820885143E+03  0.00000000000E+00 0.  1.
<mgrwt>
<rscale>  4 0.28659023E+03</rscale>
<asrwt>0</asrwt>
<pdfrwt beam="1">  1       21 0.16431894E+00 0.28659023E+03</pdfrwt>
<pdfrwt beam="2">  1       21 0.10880429E-01 0.28659023E+03</pdfrwt>
<totfact> 0.15452622E+04</totfact>
</mgrwt>
</event>
