<event>
 5    0  0.1856407E+000  0.2868124E+03  0.7546771E-02  0.1092025E+00
         21   -1    0    0  502  501  0.00000000000E+00  0.00000000000E+00  0.11154576940E+04  0.11154576940E+04  0.00000000000E+00 0.  1.
         21   -1    0    0  503  502 -0.00000000000E+00 -0.00000000000E+00 -0.88932734330E+02  0.88932734330E+02  0.00000000000E+00 0. -1.
         25    1    1    2    0    0  0.24379704966E+03 -0.84849041190E+02  0.80324568763E+03  0.85291558545E+03  0.12500000000E+03 0.  0.
         21    1    1    2  503  504 -0.94055300996E+02 -0.88472507176E+01  0.86169125087E+02  0.12786630365E+03  0.00000000000E+00 0. -1.
         21    1    1    2  504  501 -0.14974174866E+03  0.93696291908E+02  0.13711014691E+03  0.22360853918E+03  0.00000000000E+00 0. -1.
<mgrwt>
<rscale>  4 0.28681241E+03</rscale>
<asrwt>0</asrwt>
<pdfrwt beam="1">  1       21 0.17160887E+00 0.28681241E+03</pdfrwt>
<pdfrwt beam="2">  1       21 0.13681960E-01 0.28681241E+03</pdfrwt>
<totfact> 0.90479964E+03</totfact>
</mgrwt>
</event>
<event>
 5    0  0.1856407E+000  0.5938398E+03  0.7546771E-02  0.9927581E-01
         21   -1    0    0  502  501  0.00000000000E+00  0.00000000000E+00  0.40341666508E+03  0.40341666508E+03  0.00000000000E+00 0. -1.
         21   -1    0    0  503  502 -0.00000000000E+00 -0.00000000000E+00 -0.11509559270E+04  0.11509559270E+04  0.00000000000E+00 0.  1.
         25    1    1    2    0    0 -0.70626498016E+02 -0.55822958257E+03  0.28607348140E+02  0.57710635887E+03  0.12500000000E+03 0.  0.
         21    1    1    2  503  504  0.86514409615E+02  0.40993193698E+03 -0.43001167893E+03  0.60036570525E+03  0.00000000000E+00 0.  1.
         21    1    1    2  504  501 -0.15887911600E+02  0.14829764559E+03 -0.34613493112E+03  0.37690052794E+03  0.00000000000E+00 0.  1.
<mgrwt>
<rscale>  4 0.58943021E+03</rscale>
<asrwt>0</asrwt>
<pdfrwt beam="1">  1       21 0.62064103E-01 0.59383982E+03</pdfrwt>
<pdfrwt beam="2">  1       21 0.17707014E+00 0.59383982E+03</pdfrwt>
<totfact> 0.35573731E+02</totfact>
</mgrwt>
</event>
<event>
 5    0  0.1856407E+000  0.2434560E+03  0.7546771E-02  0.1117512E+00
         21   -1    0    0  502  501  0.00000000000E+00  0.00000000000E+00  0.97924469425E+03  0.97924469425E+03  0.00000000000E+00 0. -1.
         21   -1    0    0  503  502 -0.00000000000E+00 -0.00000000000E+00 -0.53777666297E+02  0.53777666297E+02  0.00000000000E+00 0. -1.
         25    1    1    2    0    0 -0.20325349209E+03 -0.48309836091E+02  0.53710169067E+03  0.58970250841E+03  0.12500000000E+03 0.  0.
         21    1    1    2  503  504  0.50542139096E+02  0.28972621132E+02  0.83735157505E+02  0.10200733896E+03  0.00000000000E+00 0. -1.
         21    1    1    2  504  501  0.15271135299E+03  0.19337214959E+02  0.30463017978E+03  0.34131251318E+03  0.00000000000E+00 0. -1.
<mgrwt>
<rscale>  4 0.24345600E+03</rscale>
<asrwt>0</asrwt>
<pdfrwt beam="1">  1       21 0.15065302E+00 0.24345600E+03</pdfrwt>
<pdfrwt beam="2">  1       21 0.82734878E-02 0.24345600E+03</pdfrwt>
<totfact> 0.32487745E+04</totfact>
</mgrwt>
</event>
<event>
 5    0  0.1856407E+000  0.2736466E+03  0.7546771E-02  0.1099211E+00
         21   -1    0    0  502  501  0.00000000000E+00  0.00000000000E+00  0.12186500304E+04  0.12186500304E+04  0.00000000000E+00 0.  1.
         21   -1    0    0  503  502 -0.00000000000E+00 -0.00000000000E+00 -0.51554934521E+03  0.51554934521E+03  0.00000000000E+00 0. -1.
         25    1    1    2    0    0  0.60783131546E+02 -0.23560071538E+03  0.11645809123E+04  0.11962758827E+04  0.12500000000E+03 0.  0.
         21    1    1    2  503  504  0.25858108744E+02  0.31448881684E+01 -0.26404175320E+02  0.37090599668E+02  0.00000000000E+00 0.  1.
         21    1    1    2  504  501 -0.86641240290E+02  0.23245582721E+03 -0.43507605180E+03  0.50083289326E+03  0.00000000000E+00 0. -1.
<mgrwt>
<rscale>  4 0.27364656E+03</rscale>
<asrwt>0</asrwt>
<pdfrwt beam="1">  1       21 0.18748462E+00 0.27364656E+03</pdfrwt>
<pdfrwt beam="2">  1       21 0.79315284E-01 0.27364656E+03</pdfrwt>
<totfact> 0.20783508E+02</totfact>
</mgrwt>
</event>
<event>
 5    0  0.1856407E+000  0.3235868E+03  0.7546771E-02  0.1074010E+00
         21   -1    0    0  502  501  0.00000000000E+00  0.00000000000E+00  0.20177653436E+04  0.20177653436E+04  0.00000000000E+00 0.  1.
         21   -1    0    0  503  502 -0.00000000000E+00 -0.00000000000E+00 -0.12759888605E+03  0.12759888605E+03  0.00000000000E+00 0.  1.
         25    1    1    2    0    0 -0.21320077531E+03  0.19126841064E+03  0.15255804434E+04  0.15572600504E+04  0.12500000000E+03 0.  0.
         21    1    1    2  503  504 -0.49403087133E+02  0.39713982945E+02 -0.21718849386E+02  0.67004282536E+02  0.00000000000E+00 0.  1.
         21    1    1    2  504  501  0.26260386244E+03 -0.23098239358E+03  0.38630486362E+03  0.52109989673E+03  0.00000000000E+00 0.  1.
<mgrwt>
<rscale>  4 0.32358675E+03</rscale>
<asrwt>0</asrwt>
<pdfrwt beam="1">  1       21 0.31042541E+00 0.32358675E+03</pdfrwt>
<pdfrwt beam="2">  1       21 0.19630599E-01 0.32358675E+03</pdfrwt>
<totfact> 0.61676229E+02</totfact>
</mgrwt>
</event>
<event>
 5    0  0.1856407E+000  0.2681423E+03  0.7546771E-02  0.1102348E+00
         21   -1    0    0  502  501  0.00000000000E+00  0.00000000000E+00  0.33060328180E+02  0.33060328180E+02  0.00000000000E+00 0.  1.
         21   -1    0    0  503  502 -0.00000000000E+00 -0.00000000000E+00 -0.35921147283E+04  0.35921147283E+04  0.00000000000E+00 0.  1.
         25    1    1    2    0    0 -0.16178144087E+03  0.18180456065E+03 -0.98548658909E+03  0.10227585004E+04  0.12500000000E+03 0.  0.
         21    1    1    2  503  504  0.44080877576E+02 -0.24613792521E+03 -0.18037666625E+04  0.18210165223E+04  0.00000000000E+00 0.  1.
         21    1    1    2  504  501  0.11770056329E+03  0.64333364560E+02 -0.76980114858E+03  0.78140003376E+03  0.00000000000E+00 0.  1.
<mgrwt>
<rscale>  4 0.26814235E+03</rscale>
<asrwt>0</asrwt>
<pdfrwt beam="1">  1       21 0.50862009E-02 0.26814235E+03</pdfrwt>
<pdfrwt beam="2">  1       21 0.55263341E+00 0.26814235E+03</pdfrwt>
<totfact> 0.18380106E+02</totfact>
</mgrwt>
</event>
<event>
 5    0  0.1856407E+000  0.2553252E+03  0.7546771E-02  0.1109985E+00
         21   -1    0    0  502  501  0.00000000000E+00  0.00000000000E+00  0.25530803295E+03  0.25530803295E+03  0.00000000000E+00 0.  1.
         21   -1    0    0  503  502 -0.00000000000E+00 -0.00000000000E+00 -0.25641291935E+03  0.25641291935E+03  0.00000000000E+00 0.  1.
         25    1    1    2    0    0 -0.53117137021E+02 -0.21620479454E+03  0.76238309231E+02  0.26646430009E+03  0.12500000000E+03 0.  0.
         21    1    1    2  503  504  0.78527144738E+01  0.16109127411E+03 -0.49678664809E+02  0.16876028400E+03  0.00000000000E+00 0.  1.
         21    1    1    2  504  501  0.45264422547E+02  0.55113520429E+02 -0.27664530829E+02  0.76496368205E+02  0.00000000000E+00 0.  1.
<mgrwt>
<rscale>  4 0.25532517E+03</rscale>
<asrwt>0</asrwt>
<pdfrwt beam="1">  1       21 0.39278159E-01 0.25532517E+03</pdfrwt>
<pdfrwt beam="2">  1       21 0.39448141E-01 0.25532517E+03</pdfrwt>
<totfact> 0.37589236E+04</totfact>
</mgrwt>
</event>
