<event>
 5    0  0.6041737E-002  0.6860216E+03  0.7546771E-02  0.9741440E-01
          2   -1    0    0  503    0  0.00000000000E+00  0.00000000000E+00  0.63232440688E+03  0.63232440688E+03  0.00000000000E+00 0. -1.
         -2   -1    0    0    0  501 -0.00000000000E+00 -0.00000000000E+00 -0.18606969806E+03  0.18606969806E+03  0.00000000000E+00 0.  1.
         25    1    1    2    0    0  0.11555760850E+03 -0.20603277537E+03  0.50118546397E+03  0.56799201993E+03  0.12500000000E+03 0.  0.
         21    1    1    2  502  501 -0.34138458747E+02  0.12339249120E+03 -0.34627589804E+02  0.13262809366E+03  0.00000000000E+00 0.  1.
         21    1    1    2  503  502 -0.81419149758E+02  0.82640284163E+02 -0.20303165348E+02  0.11777399134E+03  0.00000000000E+00 0.  1.
<mgrwt>
<rscale>  4 0.68602161E+03</rscale>
<asrwt>0</asrwt>
<pdfrwt beam="1">  1        2 0.97280677E-01 0.68602161E+03</pdfrwt>
<pdfrwt beam="2">  1       -2 0.28626108E-01 0.68602161E+03</pdfrwt>
<totfact> 0.52351097E+02</totfact>
</mgrwt>
</event>
<event>
 5    0  0.6041737E-002  0.6485884E+03  0.7546771E-02  0.9809432E-01
         -2   -1    0    0    0  501 -0.00000000000E+00  0.00000000000E+00  0.10270939246E+03  0.10270939246E+03  0.00000000000E+00 0.  1.
          2   -1    0    0  503    0  0.00000000000E+00 -0.00000000000E+00 -0.10239251795E+04  0.10239251795E+04  0.00000000000E+00 0. -1.
         25    1    1    2    0    0 -0.16610751750E+03  0.20037897431E+03 -0.18554664346E+03  0.34321421535E+03  0.12500000000E+03 0.  0.
         21    1    1    2  502  501  0.75491973711E+02 -0.13328627187E+03 -0.36102486675E+03  0.39217753986E+03  0.00000000000E+00 0. -1.
         21    1    1    2  503  502  0.90615543790E+02 -0.67092702444E+02 -0.37464427685E+03  0.39124281677E+03  0.00000000000E+00 0. -1.
<mgrwt>
<rscale>  4 0.64858842E+03</rscale>
<asrwt>0</asrwt>
<pdfrwt beam="1">  1        2 0.15752694E+00 0.64858842E+03</pdfrwt>
<pdfrwt beam="2">  1       -2 0.15801446E-01 0.64858842E+03</pdfrwt>
<totfact> 0.78608329E+02</totfact>
</mgrwt>
</event>
<event>
 5    0  0.6041737E-002  0.5379328E+03  0.7546771E-02  0.1004326E+00
         -2   -1    0    0    0  501 -0.00000000000E+00  0.00000000000E+00  0.35273198878E+02  0.35273198878E+02  0.00000000000E+00 0.  1.
          2   -1    0    0  503    0  0.00000000000E+00 -0.00000000000E+00 -0.20509316360E+04  0.20509316360E+04  0.00000000000E+00 0. -1.
         25    1    1    2    0    0 -0.22370441477E+03  0.11282997874E+03 -0.94634551434E+03  0.98689872926E+03  0.12500000000E+03 0.  0.
         21    1    1    2  502  501  0.19974799250E+02  0.27134599506E+01 -0.10864641045E+03  0.11050066957E+03  0.00000000000E+00 0.  1.
         21    1    1    2  503  502  0.20372961552E+03 -0.11554343870E+03 -0.96066651230E+03  0.98880543603E+03  0.00000000000E+00 0. -1.
<mgrwt>
<rscale>  4 0.53793278E+03</rscale>
<asrwt>0</asrwt>
<pdfrwt beam="1">  1        2 0.31552808E+00 0.53793278E+03</pdfrwt>
<pdfrwt beam="2">  1       -2 0.54266436E-02 0.53793278E+03</pdfrwt>
<totfact> 0.11801528E+03</totfact>
</mgrwt>
</event>
<event>
 5    0  0.6041737E-002  0.7143456E+03  0.7546771E-02  0.9693009E-01
         -2   -1    0    0    0  501 -0.00000000000E+00  0.00000000000E+00  0.11622357527E+03  0.11622357527E+03  0.00000000000E+00 0. -1.
          2   -1    0    0  503    0  0.00000000000E+00 -0.00000000000E+00 -0.10976466066E+04  0.10976466066E+04  0.00000000000E+00 0.  1.
         25    1    1    2    0    0  0.24358504646E+03  0.19871065496E+03 -0.73319350516E+03  0.80747589144E+03  0.12500000000E+03 0.  0.
         21    1    1    2  502  501 -0.20965631642E+03 -0.15844377059E+03 -0.17321378873E+03  0.31474309533E+03  0.00000000000E+00 0. -1.
         21    1    1    2  503  502 -0.33928730036E+02 -0.40266884371E+02 -0.75015737493E+02  0.91651195139E+02  0.00000000000E+00 0. -1.
<mgrwt>
<rscale>  4 0.71434561E+03</rscale>
<asrwt>0</asrwt>
<pdfrwt beam="1">  1        2 0.16886871E+00 0.71434561E+03</pdfrwt>
<pdfrwt beam="2">  1       -2 0.17880550E-01 0.71434561E+03</pdfrwt>
<totfact> 0.57139716E+02</totfact>
</mgrwt>
</event>
<event>
 5    0  0.6041737E-002  0.5343954E+03  0.7546771E-02  0.1005172E+00
          2   -1    0    0  503    0  0.00000000000E+00  0.00000000000E+00  0.23357632450E+03  0.23357632450E+03  0.00000000000E+00 0.  1.
         -2   -1    0    0    0  501 -0.00000000000E+00 -0.00000000000E+00 -0.30565860133E+03  0.30565860133E+03  0.00000000000E+00 0. -1.
         25    1    1    2    0    0 -0.19745992260E+03 -0.14979919173E+03 -0.22193362003E+02  0.27847399195E+03  0.12500000000E+03 0.  0.
         21    1    1    2  502  501  0.95058403923E+02  0.53603454285E+02  0.66054865433E+01  0.10933006412E+03  0.00000000000E+00 0.  1.
         21    1    1    2  503  502  0.10240151868E+03  0.96195737447E+02 -0.56494401366E+02  0.15143086976E+03  0.00000000000E+00 0.  1.
<mgrwt>
<rscale>  4 0.53439541E+03</rscale>
<asrwt>0</asrwt>
<pdfrwt beam="1">  1        2 0.35934819E-01 0.53439541E+03</pdfrwt>
<pdfrwt beam="2">  1       -2 0.47024400E-01 0.53439541E+03</pdfrwt>
<totfact> 0.62659663E+02</totfact>
</mgrwt>
</event>
<event>
 5    0  0.6041737E-002  0.4716117E+03  0.7546771E-02  0.1021466E+00
          3   -1    0    0  503    0  0.00000000000E+00  0.00000000000E+00  0.36722461672E+02  0.36722461672E+02  0.00000000000E+00 0. -1.
         -3   -1    0    0    0  501 -0.00000000000E+00 -0.00000000000E+00 -0.15141796221E+04  0.15141796221E+04  0.00000000000E+00 0.  1.
         25    1    1    2    0    0 -0.51926380006E+01 -0.20237540334E+03 -0.53579906529E+03  0.58624943986E+03  0.12500000000E+03 0.  0.
         21    1    1    2  502  501  0.20886381581E+02  0.14663172492E+03 -0.59293890526E+03  0.61115763029E+03  0.00000000000E+00 0. -1.
         21    1    1    2  503  502 -0.15693743580E+02  0.55743678416E+02 -0.34871918990E+03  0.35349501365E+03  0.00000000000E+00 0. -1.
<mgrwt>
<rscale>  4 0.47161172E+03</rscale>
<asrwt>0</asrwt>
<pdfrwt beam="1">  1        3 0.56496104E-02 0.47161172E+03</pdfrwt>
<pdfrwt beam="2">  1       -3 0.23295067E+00 0.47161172E+03</pdfrwt>
<totfact> 0.48899474E+01</totfact>
</mgrwt>
</event>
<event>
 5    0  0.6041737E-002  0.4153917E+03  0.7546771E-02  0.1038577E+00
          2   -1    0    0  503    0  0.00000000000E+00  0.00000000000E+00  0.31901387684E+03  0.31901387684E+03  0.00000000000E+00 0.  1.
         -2   -1    0    0    0  501 -0.00000000000E+00 -0.00000000000E+00 -0.20066857494E+03  0.20066857494E+03  0.00000000000E+00 0. -1.
         25    1    1    2    0    0 -0.24060348399E+02  0.20687840820E+03  0.78627223366E+02  0.25531317318E+03  0.12500000000E+03 0.  0.
         21    1    1    2  502  501  0.84641397080E+02 -0.15027718658E+03  0.52933674093E+02  0.18041444720E+03  0.00000000000E+00 0. -1.
         21    1    1    2  503  502 -0.60581048681E+02 -0.56601221619E+02 -0.13215595556E+02  0.83954831392E+02  0.00000000000E+00 0.  1.
<mgrwt>
<rscale>  4 0.41539173E+03</rscale>
<asrwt>0</asrwt>
<pdfrwt beam="1">  1        2 0.49079058E-01 0.41539173E+03</pdfrwt>
<pdfrwt beam="2">  1       -2 0.30872089E-01 0.41539173E+03</pdfrwt>
<totfact> 0.99680020E+02</totfact>
</mgrwt>
</event>
<event>
 5    0  0.6041737E-002  0.6305390E+03  0.7546771E-02  0.9843998E-01
         -2   -1    0    0    0  501 -0.00000000000E+00  0.00000000000E+00  0.10504960259E+03  0.10504960259E+03  0.00000000000E+00 0.  1.
          2   -1    0    0  503    0  0.00000000000E+00 -0.00000000000E+00 -0.94617068740E+03  0.94617068740E+03  0.00000000000E+00 0. -1.
         25    1    1    2    0    0 -0.66323805434E+02  0.19549378201E+03 -0.80375917220E+03  0.83920824166E+03  0.12500000000E+03 0.  0.
         21    1    1    2  502  501  0.15423372708E+02 -0.19932209883E+02 -0.10308866269E+02  0.27229508631E+02  0.00000000000E+00 0.  1.
         21    1    1    2  503  502  0.50900432726E+02 -0.17556157213E+03 -0.27053046344E+02  0.18478253970E+03  0.00000000000E+00 0.  1.
<mgrwt>
<rscale>  4 0.63053899E+03</rscale>
<asrwt>0</asrwt>
<pdfrwt beam="1">  1        2 0.14556472E+00 0.63053899E+03</pdfrwt>
<pdfrwt beam="2">  1       -2 0.16161477E-01 0.63053899E+03</pdfrwt>
<totfact> 0.84881574E+02</totfact>
</mgrwt>
</event>
<event>
 5    0  0.6041737E-002  0.5577679E+03  0.7546771E-02  0.9997118E-01
         -4   -1    0    0    0  501 -0.00000000000E+00  0.00000000000E+00  0.12849047208E+04  0.12849047208E+04  0.00000000000E+00 0.  1.
          4   -1    0    0  503    0  0.00000000000E+00 -0.00000000000E+00 -0.60530764501E+02  0.60530764501E+02  0.00000000000E+00 0. -1.
         25    1    1    2    0    0  0.16493418974E+02  0.25499284556E+03  0.52050565873E+03  0.59316483790E+03  0.12500000000E+03 0.  0.
         21    1    1    2  502  501  0.72172454364E+01 -0.35393692369E+02  0.18258420813E+03  0.18612306453E+03  0.00000000000E+00 0.  1.
         21    1    1    2  503  502 -0.23710664411E+02 -0.21959915319E+03  0.52128408947E+03  0.56614758290E+03  0.00000000000E+00 0. -1.
<mgrwt>
<rscale>  4 0.55776793E+03</rscale>
<asrwt>0</asrwt>
<pdfrwt beam="1">  1        4 0.93124263E-02 0.55776793E+03</pdfrwt>
<pdfrwt beam="2">  1       -4 0.19767763E+00 0.55776793E+03</pdfrwt>
<totfact> 0.24422435E+01</totfact>
</mgrwt>
</event>
<event>
 5    0  0.6041737E-002  0.4640631E+03  0.7546771E-02  0.1023609E+00
          2   -1    0    0  503    0  0.00000000000E+00  0.00000000000E+00  0.12517913237E+04  0.12517913237E+04  0.00000000000E+00 0.  1.
         -2   -1    0    0    0  501 -0.00000000000E+00 -0.00000000000E+00 -0.43009282555E+02  0.43009282555E+02  0.00000000000E+00 0. -1.
         25    1    1    2    0    0  0.20269375421E+03 -0.59023425859E+02  0.70133996778E+03  0.74301498854E+03  0.12500000000E+03 0.  0.
         21    1    1    2  502  501 -0.90819683958E+02  0.24939801911E+01  0.23241338911E+03  0.24954041430E+03  0.00000000000E+00 0.  1.
         21    1    1    2  503  502 -0.11187407025E+03  0.56529445668E+02  0.27502868428E+03  0.30224520343E+03  0.00000000000E+00 0. -1.
<mgrwt>
<rscale>  4 0.46406313E+03</rscale>
<asrwt>0</asrwt>
<pdfrwt beam="1">  1        2 0.19258325E+00 0.46406313E+03</pdfrwt>
<pdfrwt beam="2">  1       -2 0.66168137E-02 0.46406313E+03</pdfrwt>
<totfact> 0.23736970E+03</totfact>
</mgrwt>
</event>
<event>
 5    0  0.6041737E-002  0.5231873E+03  0.7546771E-02  0.1007898E+00
         -1   -1    0    0    0  501 -0.00000000000E+00  0.00000000000E+00  0.33665952204E+02  0.33665952204E+02  0.00000000000E+00 0.  1.
          1   -1    0    0  503    0  0.00000000000E+00 -0.00000000000E+00 -0.20326542103E+04  0.20326542103E+04  0.00000000000E+00 0. -1.
         25    1    1    2    0    0 -0.20455667481E+03 -0.98486760690E+01 -0.52673284538E+03  0.57880300624E+03  0.12500000000E+03 0.  0.
         21    1    1    2  502  501  0.23415156364E+02 -0.17634334875E+02 -0.19863193202E+03  0.20078317592E+03  0.00000000000E+00 0.  1.
         21    1    1    2  503  502  0.18114151845E+03  0.27483010944E+02 -0.12736234807E+04  0.12867339803E+04  0.00000000000E+00 0.  1.
<mgrwt>
<rscale>  4 0.52318731E+03</rscale>
<asrwt>0</asrwt>
<pdfrwt beam="1">  1        1 0.31271610E+00 0.52318731E+03</pdfrwt>
<pdfrwt beam="2">  1       -1 0.51793762E-02 0.52318731E+03</pdfrwt>
<totfact> 0.52166485E+02</totfact>
</mgrwt>
</event>
<event>
 5    0  0.6041737E-002  0.4730567E+03  0.7546771E-02  0.1021061E+00
          2   -1    0    0  503    0  0.00000000000E+00  0.00000000000E+00  0.55014453345E+03  0.55014453345E+03  0.00000000000E+00 0.  1.
         -2   -1    0    0    0  501 -0.00000000000E+00 -0.00000000000E+00 -0.10169264121E+03  0.10169264121E+03  0.00000000000E+00 0. -1.
         25    1    1    2    0    0  0.63141935760E+01 -0.21435769232E+03  0.25786603455E+03  0.35792314967E+03  0.12500000000E+03 0.  0.
         21    1    1    2  502  501  0.26608714506E+02  0.10292709606E+03  0.10656196278E+03  0.15052396056E+03  0.00000000000E+00 0.  1.
         21    1    1    2  503  502 -0.32922908082E+02  0.11143059626E+03  0.84023894914E+02  0.14339006443E+03  0.00000000000E+00 0. -1.
<mgrwt>
<rscale>  4 0.47305666E+03</rscale>
<asrwt>0</asrwt>
<pdfrwt beam="1">  1        2 0.84637619E-01 0.47305666E+03</pdfrwt>
<pdfrwt beam="2">  1       -2 0.15645022E-01 0.47305666E+03</pdfrwt>
<totfact> 0.17903599E+03</totfact>
</mgrwt>
</event>
<event>
 5    0  0.6041737E-002  0.7416601E+03  0.7546771E-02  0.9648526E-01
         -1   -1    0    0    0  501 -0.00000000000E+00  0.00000000000E+00  0.27908350699E+03  0.27908350699E+03  0.00000000000E+00 0. -1.
          1   -1    0    0  503    0  0.00000000000E+00 -0.00000000000E+00 -0.49273760216E+03  0.49273760216E+03  0.00000000000E+00 0.  1.
         25    1    1    2    0    0  0.29396756285E+03 -0.13796350144E+03  0.31470311357E+02  0.34937978795E+03  0.12500000000E+03 0.  0.
         21    1    1    2  502  501 -0.81657179303E+02  0.11788478277E+02 -0.11987806505E+03  0.14552530238E+03  0.00000000000E+00 0.  1.
         21    1    1    2  503  502 -0.21231038354E+03  0.12617502316E+03 -0.12524634147E+03  0.27691601882E+03  0.00000000000E+00 0.  1.
<mgrwt>
<rscale>  4 0.74166013E+03</rscale>
<asrwt>0</asrwt>
<pdfrwt beam="1">  1        1 0.75805785E-01 0.74166013E+03</pdfrwt>
<pdfrwt beam="2">  1       -1 0.42935924E-01 0.74166013E+03</pdfrwt>
<totfact> 0.24474120E+02</totfact>
</mgrwt>
</event>
<event>
 5    0  0.6041737E-002  0.4165098E+03  0.7546771E-02  0.1038208E+00
         -2   -1    0    0    0  501 -0.00000000000E+00  0.00000000000E+00  0.33939928932E+02  0.33939928932E+02  0.00000000000E+00 0.  1.
          2   -1    0    0  503    0  0.00000000000E+00 -0.00000000000E+00 -0.16670291811E+04  0.16670291811E+04  0.00000000000E+00 0. -1.
         25    1    1    2    0    0  0.11468225212E+02  0.19974987778E+03 -0.10316849338E+04  0.10583148570E+04  0.12500000000E+03 0.  0.
         21    1    1    2  502  501 -0.32755927909E+02 -0.25878879589E+02 -0.56248012333E+02  0.70046456822E+02  0.00000000000E+00 0.  1.
         21    1    1    2  503  502  0.21287702697E+02 -0.17387099819E+03 -0.54515630600E+03  0.57260779620E+03  0.00000000000E+00 0. -1.
<mgrwt>
<rscale>  4 0.41650979E+03</rscale>
<asrwt>0</asrwt>
<pdfrwt beam="1">  1        2 0.25646607E+00 0.41650979E+03</pdfrwt>
<pdfrwt beam="2">  1       -2 0.52215267E-02 0.41650979E+03</pdfrwt>
<totfact> 0.20268303E+03</totfact>
</mgrwt>
</event>
<event>
 5    0  0.6041737E-002  0.4772862E+03  0.7546771E-02  0.1019884E+00
          2   -1    0    0  503    0  0.00000000000E+00  0.00000000000E+00  0.40606105159E+04  0.40606105159E+04  0.00000000000E+00 0.  1.
         -2   -1    0    0    0  501 -0.00000000000E+00 -0.00000000000E+00 -0.14025115180E+02  0.14025115180E+02  0.00000000000E+00 0. -1.
         25    1    1    2    0    0  0.14170462601E+03  0.15582380830E+03  0.15974198968E+04  0.16160868129E+04  0.12500000000E+03 0.  0.
         21    1    1    2  502  501 -0.11746676819E+03 -0.11529911689E+03  0.20507415075E+04  0.20573363990E+04  0.00000000000E+00 0.  1.
         21    1    1    2  503  502 -0.24237857819E+02 -0.40524691407E+02  0.39842399639E+03  0.40121241913E+03  0.00000000000E+00 0.  1.
<mgrwt>
<rscale>  4 0.47728620E+03</rscale>
<asrwt>0</asrwt>
<pdfrwt beam="1">  1        2 0.62470837E+00 0.47728620E+03</pdfrwt>
<pdfrwt beam="2">  1       -2 0.21577133E-02 0.47728620E+03</pdfrwt>
<totfact> 0.26317076E+02</totfact>
</mgrwt>
</event>
<event>
 5    0  0.6041737E-002  0.5517511E+03  0.7546771E-02  0.1001089E+00
          2   -1    0    0  503    0  0.00000000000E+00  0.00000000000E+00  0.28368543422E+03  0.28368543422E+03  0.00000000000E+00 0.  1.
         -2   -1    0    0    0  501 -0.00000000000E+00 -0.00000000000E+00 -0.33518830165E+03  0.33518830165E+03  0.00000000000E+00 0. -1.
         25    1    1    2    0    0 -0.25618983129E+03  0.86273976848E+02 -0.82855340773E+02  0.30913821542E+03  0.12500000000E+03 0.  0.
         21    1    1    2  502  501  0.28302644804E+02  0.18692224385E+02  0.47443338716E+02  0.58320745399E+02  0.00000000000E+00 0. -1.
         21    1    1    2  503  502  0.22788718649E+03 -0.10496620123E+03 -0.16090865366E+02  0.25141477505E+03  0.00000000000E+00 0.  1.
<mgrwt>
<rscale>  4 0.55175112E+03</rscale>
<asrwt>0</asrwt>
<pdfrwt beam="1">  1        2 0.43643913E-01 0.55175112E+03</pdfrwt>
<pdfrwt beam="2">  1       -2 0.51567431E-01 0.55175112E+03</pdfrwt>
<totfact> 0.41941610E+02</totfact>
</mgrwt>
</event>
<event>
 5    0  0.6041737E-002  0.3888732E+03  0.7546771E-02  0.1047702E+00
          2   -1    0    0  503    0  0.00000000000E+00  0.00000000000E+00  0.73084435232E+03  0.73084435232E+03  0.00000000000E+00 0.  1.
         -2   -1    0    0    0  501 -0.00000000000E+00 -0.00000000000E+00 -0.15373500706E+03  0.15373500706E+03  0.00000000000E+00 0. -1.
         25    1    1    2    0    0 -0.15261049166E+03 -0.14925287019E+03  0.21621265847E+01  0.24737836651E+03  0.12500000000E+03 0.  0.
         21    1    1    2  502  501  0.75005999878E+02  0.62658831573E+02  0.47163639021E+03  0.48165642709E+03  0.00000000000E+00 0.  1.
         21    1    1    2  503  502  0.77604491782E+02  0.86594038614E+02  0.10331082847E+03  0.15554456579E+03  0.00000000000E+00 0.  1.
<mgrwt>
<rscale>  4 0.38887317E+03</rscale>
<asrwt>0</asrwt>
<pdfrwt beam="1">  1        2 0.11243759E+00 0.38887317E+03</pdfrwt>
<pdfrwt beam="2">  1       -2 0.23651540E-01 0.38887317E+03</pdfrwt>
<totfact> 0.62347041E+02</totfact>
</mgrwt>
</event>
<event>
 5    0  0.6041737E-002  0.4532034E+03  0.7546771E-02  0.1026771E+00
         -2   -1    0    0    0  501 -0.00000000000E+00  0.00000000000E+00  0.49349738084E+03  0.49349738084E+03  0.00000000000E+00 0.  1.
          2   -1    0    0  503    0  0.00000000000E+00 -0.00000000000E+00 -0.10404983591E+03  0.10404983591E+03  0.00000000000E+00 0. -1.
         25    1    1    2    0    0 -0.12644738951E+03 -0.16254830191E+03  0.24267215281E+03  0.34194395231E+03  0.12500000000E+03 0.  0.
         21    1    1    2  502  501  0.77190975298E+01  0.22665072646E+02  0.28876216817E+02  0.37511676614E+02  0.00000000000E+00 0. -1.
         21    1    1    2  503  502  0.11872829198E+03  0.13988322926E+03  0.11789917530E+03  0.21809158783E+03  0.00000000000E+00 0. -1.
<mgrwt>
<rscale>  4 0.45320336E+03</rscale>
<asrwt>0</asrwt>
<pdfrwt beam="1">  1        2 0.16007667E-01 0.45320336E+03</pdfrwt>
<pdfrwt beam="2">  1       -2 0.75922672E-01 0.45320336E+03</pdfrwt>
<totfact> 0.57994977E+02</totfact>
</mgrwt>
</event>
<event>
 5    0  0.6041737E-002  0.5556412E+03  0.7546771E-02  0.1000197E+00
         -1   -1    0    0    0  501 -0.00000000000E+00  0.00000000000E+00  0.21887243987E+03  0.21887243987E+03  0.00000000000E+00 0.  1.
          1   -1    0    0  503    0  0.00000000000E+00 -0.00000000000E+00 -0.35264504621E+03  0.35264504621E+03  0.00000000000E+00 0. -1.
         25    1    1    2    0    0  0.23228104419E+03 -0.38957491911E+02 -0.18511113474E+03  0.32459713780E+03  0.12500000000E+03 0.  0.
         21    1    1    2  502  501 -0.20693932974E+03  0.32130962633E+02  0.62283382633E+02  0.21848456400E+03  0.00000000000E+00 0.  1.
         21    1    1    2  503  502 -0.25341714449E+02  0.68265292781E+01 -0.10944854240E+02  0.28435784278E+02  0.00000000000E+00 0.  1.
<mgrwt>
<rscale>  4 0.55564119E+03</rscale>
<asrwt>0</asrwt>
<pdfrwt beam="1">  1        1 0.54253084E-01 0.55564119E+03</pdfrwt>
<pdfrwt beam="2">  1       -1 0.33672683E-01 0.55564119E+03</pdfrwt>
<totfact> 0.59519239E+02</totfact>
</mgrwt>
</event>
<event>
 5    0  0.6041737E-002  0.5338932E+03  0.7546771E-02  0.1005292E+00
          2   -1    0    0  503    0  0.00000000000E+00  0.00000000000E+00  0.73473172248E+03  0.73473172248E+03  0.00000000000E+00 0. -1.
         -2   -1    0    0    0  501 -0.00000000000E+00 -0.00000000000E+00 -0.96988435656E+02  0.96988435656E+02  0.00000000000E+00 0.  1.
         25    1    1    2    0    0  0.75796580056E+02 -0.21370094687E+03  0.18102898983E+03  0.31592675006E+03  0.12500000000E+03 0.  0.
         21    1    1    2  502  501 -0.28160271359E+02  0.12225897427E+02  0.84086906451E+02  0.89515815850E+02  0.00000000000E+00 0. -1.
         21    1    1    2  503  502 -0.47636308697E+02  0.20147504944E+03  0.37262739054E+03  0.42627759223E+03  0.00000000000E+00 0. -1.
<mgrwt>
<rscale>  4 0.53389317E+03</rscale>
<asrwt>0</asrwt>
<pdfrwt beam="1">  1        2 0.11303565E+00 0.53389317E+03</pdfrwt>
<pdfrwt beam="2">  1       -2 0.14921298E-01 0.53389317E+03</pdfrwt>
<totfact> 0.13653890E+03</totfact>
</mgrwt>
</event>
<event>
 5    0  0.6041737E-002  0.6509954E+03  0.7546771E-02  0.9804913E-01
         -2   -1    0    0    0  501 -0.00000000000E+00  0.00000000000E+00  0.28219871071E+03  0.28219871071E+03  0.00000000000E+00 0. -1.
          2   -1    0    0  503    0  0.00000000000E+00 -0.00000000000E+00 -0.37544029370E+03  0.37544029370E+03  0.00000000000E+00 0.  1.
         25    1    1    2    0    0 -0.14480811865E+03 -0.26189414793E+03 -0.13111370867E+03  0.34981958285E+03  0.12500000000E+03 0.  0.
         21    1    1    2  502  501 -0.23124639117E+01  0.30389104137E+02 -0.24451216191E+01  0.30574887723E+02  0.00000000000E+00 0. -1.
         21    1    1    2  503  502  0.14712058256E+03  0.23150504379E+03  0.40317247296E+02  0.27724453384E+03  0.00000000000E+00 0. -1.
<mgrwt>
<rscale>  4 0.65099544E+03</rscale>
<asrwt>0</asrwt>
<pdfrwt beam="1">  1        2 0.57760045E-01 0.65099544E+03</pdfrwt>
<pdfrwt beam="2">  1       -2 0.43415186E-01 0.65099544E+03</pdfrwt>
<totfact> 0.43336323E+02</totfact>
</mgrwt>
</event>
<event>
 5    0  0.6041737E-002  0.8181248E+03  0.7546771E-02  0.9534146E-01
          2   -1    0    0  503    0  0.00000000000E+00  0.00000000000E+00  0.50167939648E+03  0.50167939648E+03  0.00000000000E+00 0. -1.
         -2   -1    0    0    0  501 -0.00000000000E+00 -0.00000000000E+00 -0.40807165612E+03  0.40807165612E+03  0.00000000000E+00 0.  1.
         25    1    1    2    0    0  0.28678705647E+03  0.55896838988E+02 -0.27071692740E+03  0.41747326519E+03  0.12500000000E+03 0.  0.
         21    1    1    2  502  501 -0.20132317663E+03 -0.65353733121E+02  0.34403088623E+03  0.40392992284E+03  0.00000000000E+00 0. -1.
         21    1    1    2  503  502 -0.85463879842E+02  0.94568941331E+01  0.20293781534E+02  0.88347864565E+02  0.00000000000E+00 0.  1.
<mgrwt>
<rscale>  4 0.81812484E+03</rscale>
<asrwt>0</asrwt>
<pdfrwt beam="1">  1        2 0.77181446E-01 0.81812484E+03</pdfrwt>
<pdfrwt beam="2">  1       -2 0.62780255E-01 0.81812484E+03</pdfrwt>
<totfact> 0.14532652E+02</totfact>
</mgrwt>
</event>
<event>
 5    0  0.6041737E-002  0.9034457E+03  0.7546771E-02  0.9421284E-01
          2   -1    0    0  503    0  0.00000000000E+00  0.00000000000E+00  0.12644812022E+04  0.12644812022E+04  0.00000000000E+00 0.  1.
         -2   -1    0    0    0  501 -0.00000000000E+00 -0.00000000000E+00 -0.17240520525E+03  0.17240520525E+03  0.00000000000E+00 0. -1.
         25    1    1    2    0    0 -0.33346669751E+03 -0.28813518991E+03  0.63861461610E+03  0.78592337662E+03  0.12500000000E+03 0.  0.
         21    1    1    2  502  501  0.23765878536E+02 -0.18260342656E+02  0.42933110975E+02  0.52359422404E+02  0.00000000000E+00 0. -1.
         21    1    1    2  503  502  0.30970081898E+03  0.30639553257E+03  0.41052826985E+03  0.59860360841E+03  0.00000000000E+00 0.  1.
<mgrwt>
<rscale>  4 0.90344572E+03</rscale>
<asrwt>0</asrwt>
<pdfrwt beam="1">  1        2 0.19453556E+00 0.90344572E+03</pdfrwt>
<pdfrwt beam="2">  1       -2 0.26523879E-01 0.90344572E+03</pdfrwt>
<totfact> 0.22369414E+02</totfact>
</mgrwt>
</event>
<event>
 5    0  0.6041737E-002  0.4699356E+03  0.7546771E-02  0.1021938E+00
          2   -1    0    0  503    0  0.00000000000E+00  0.00000000000E+00  0.41994832782E+03  0.41994832782E+03  0.00000000000E+00 0.  1.
         -2   -1    0    0    0  501 -0.00000000000E+00 -0.00000000000E+00 -0.25481369212E+03  0.25481369212E+03  0.00000000000E+00 0. -1.
         25    1    1    2    0    0  0.79863090791E+02  0.20414070967E+03  0.29355590533E+03  0.38710671935E+03  0.12500000000E+03 0.  0.
         21    1    1    2  502  501  0.22207264967E+02 -0.12688516298E+03 -0.54819346594E+02  0.13999345686E+03  0.00000000000E+00 0. -1.
         21    1    1    2  503  502 -0.10207035576E+03 -0.77255546682E+02 -0.73601923032E+02  0.14766184372E+03  0.00000000000E+00 0. -1.
<mgrwt>
<rscale>  4 0.46993558E+03</rscale>
<asrwt>0</asrwt>
<pdfrwt beam="1">  1        2 0.64607435E-01 0.46993558E+03</pdfrwt>
<pdfrwt beam="2">  1       -2 0.39202107E-01 0.46993558E+03</pdfrwt>
<totfact> 0.46863747E+02</totfact>
</mgrwt>
</event>
