<event>
 5    0  0.1911311E+001  0.3241388E+03  0.7546771E-02  0.1073760E+00
         21   -1    0    0  502  501  0.00000000000E+00  0.00000000000E+00  0.35984242379E+03  0.35984242379E+03  0.00000000000E+00 0. -1.
         21   -1    0    0  504  502 -0.00000000000E+00 -0.00000000000E+00 -0.10329614305E+04  0.10329614305E+04  0.00000000000E+00 0.  1.
         25    1    1    2    0    0 -0.32311193156E+03  0.68737447091E+02  0.13060423934E+03  0.37657485881E+03  0.12500000000E+03 0.  0.
         21    1    1    2  503  501  0.27386146364E+02 -0.49402476730E+02  0.72118840129E+02  0.91606401639E+02  0.00000000000E+00 0. -1.
         21    1    1    2  504  503  0.29572578520E+03 -0.19334970361E+02 -0.87584208615E+03  0.92462259381E+03  0.00000000000E+00 0.  1.
<mgrwt>
<rscale>  4 0.32413879E+03</rscale>
<asrwt>0</asrwt>
<pdfrwt beam="1">  1       21 0.55360373E-01 0.32413879E+03</pdfrwt>
<pdfrwt beam="2">  1       21 0.15891714E+00 0.32413879E+03</pdfrwt>
<totfact> 0.70575734E+02</totfact>
</mgrwt>
</event>
<event>
 5    0  0.1911311E+001  0.2617714E+03  0.7546771E-02  0.1106084E+00
         21   -1    0    0  504  501  0.00000000000E+00  0.00000000000E+00  0.10486668515E+04  0.10486668515E+04  0.00000000000E+00 0. -1.
         21   -1    0    0  503  502 -0.00000000000E+00 -0.00000000000E+00 -0.13703239850E+03  0.13703239850E+03  0.00000000000E+00 0. -1.
         25    1    1    2    0    0 -0.26222359761E+03  0.16507629473E+03  0.60865765019E+03  0.69433459755E+03  0.12500000000E+03 0.  0.
         21    1    1    2  503  501  0.17332919130E+03 -0.12494076508E+03  0.48872210372E+02  0.21918416065E+03  0.00000000000E+00 0. -1.
         21    1    1    2  504  502  0.88894406314E+02 -0.40135529645E+02  0.25410459247E+03  0.27218049182E+03  0.00000000000E+00 0. -1.
<mgrwt>
<rscale>  4 0.26177137E+03</rscale>
<asrwt>0</asrwt>
<pdfrwt beam="1">  1       21 0.16133336E+00 0.26177137E+03</pdfrwt>
<pdfrwt beam="2">  1       21 0.21081908E-01 0.26177137E+03</pdfrwt>
<totfact> 0.48860716E+03</totfact>
</mgrwt>
</event>
<event>
 5    0  0.1911311E+001  0.2473801E+03  0.7546771E-02  0.1114972E+00
         21   -1    0    0  504  501  0.00000000000E+00  0.00000000000E+00  0.90580336753E+02  0.90580336753E+02  0.00000000000E+00 0. -1.
         21   -1    0    0  503  502 -0.00000000000E+00 -0.00000000000E+00 -0.14855337401E+04  0.14855337401E+04  0.00000000000E+00 0. -1.
         25    1    1    2    0    0  0.22572927973E+03  0.85008389770E+02 -0.12040944062E+04  0.12343615649E+04  0.12500000000E+03 0.  0.
         21    1    1    2  503  501 -0.34154489257E+02  0.12176509982E+01 -0.11242237886E+03  0.11750235350E+03  0.00000000000E+00 0.  1.
         21    1    1    2  504  502 -0.19157479047E+03 -0.86226040768E+02 -0.78436618329E+02  0.22425015841E+03  0.00000000000E+00 0. -1.
<mgrwt>
<rscale>  4 0.24738011E+03</rscale>
<asrwt>0</asrwt>
<pdfrwt beam="1">  1       21 0.13935438E-01 0.24738011E+03</pdfrwt>
<pdfrwt beam="2">  1       21 0.22854362E+00 0.24738011E+03</pdfrwt>
<totfact> 0.38063994E+03</totfact>
</mgrwt>
</event>
