<event>
 5    0  0.1911311E+001  0.2161140E+03  0.7546771E-02  0.1136814E+00
         21   -1    0    0  502  501  0.00000000000E+00  0.00000000000E+00  0.76801473493E+03  0.76801473493E+03  0.00000000000E+00 0.  1.
         21   -1    0    0  504  502 -0.00000000000E+00 -0.00000000000E+00 -0.24750066446E+03  0.24750066446E+03  0.00000000000E+00 0.  1.
         25    1    1    2    0    0 -0.15978449936E+03 -0.12237192650E+03  0.42397728236E+03  0.48568272626E+03  0.12500000000E+03 0.  0.
         21    1    1    2  503  501  0.20338898787E+02  0.17690863502E+02  0.27734147900E+03  0.27864840468E+03  0.00000000000E+00 0. -1.
         21    1    1    2  504  503  0.13944560057E+03  0.10468106300E+03 -0.18080469089E+03  0.25118426845E+03  0.00000000000E+00 0.  1.
<mgrwt>
<rscale>  4 0.21611404E+03</rscale>
<asrwt>0</asrwt>
<pdfrwt beam="1">  1       21 0.11815611E+00 0.21611404E+03</pdfrwt>
<pdfrwt beam="2">  1       21 0.38077026E-01 0.21611404E+03</pdfrwt>
<totfact> 0.35800450E+03</totfact>
</mgrwt>
</event>
<event>
 5    0  0.1911311E+001  0.2552943E+03  0.7546771E-02  0.1110004E+00
         21   -1    0    0  504  501  0.00000000000E+00  0.00000000000E+00  0.68479349648E+03  0.68479349648E+03  0.00000000000E+00 0.  1.
         21   -1    0    0  503  502 -0.00000000000E+00 -0.00000000000E+00 -0.90031053223E+03  0.90031053223E+03  0.00000000000E+00 0.  1.
         25    1    1    2    0    0 -0.22271574268E+03  0.72144619265E+02  0.51757048568E+03  0.58164538661E+03  0.12500000000E+03 0.  0.
         21    1    1    2  503  501  0.12986515745E+02 -0.13312325851E+03 -0.77036129807E+03  0.78188680837E+03  0.00000000000E+00 0.  1.
         21    1    1    2  504  502  0.20972922693E+03  0.60978639243E+02  0.37273776636E+02  0.22157183372E+03  0.00000000000E+00 0.  1.
<mgrwt>
<rscale>  4 0.25529432E+03</rscale>
<asrwt>0</asrwt>
<pdfrwt beam="1">  1       21 0.10535285E+00 0.25529432E+03</pdfrwt>
<pdfrwt beam="2">  1       21 0.13850931E+00 0.25529432E+03</pdfrwt>
<totfact> 0.24916853E+02</totfact>
</mgrwt>
</event>
<event>
 5    0  0.1911311E+001  0.2077702E+03  0.7546771E-02  0.1143344E+00
         21   -1    0    0  502  501  0.00000000000E+00  0.00000000000E+00  0.18883324144E+03  0.18883324144E+03  0.00000000000E+00 0.  1.
         21   -1    0    0  504  502 -0.00000000000E+00 -0.00000000000E+00 -0.77570238877E+03  0.77570238877E+03  0.00000000000E+00 0.  1.
         25    1    1    2    0    0 -0.13459496950E+03  0.15998978558E+03 -0.31278996280E+03  0.39645314746E+03  0.12500000000E+03 0.  0.
         21    1    1    2  503  501  0.72337372389E+01 -0.74899120490E+02  0.12204395192E+03  0.14337688588E+03  0.00000000000E+00 0.  1.
         21    1    1    2  504  503  0.12736123226E+03 -0.85090665093E+02 -0.39612313646E+03  0.42470559686E+03  0.00000000000E+00 0.  1.
<mgrwt>
<rscale>  4 0.20777015E+03</rscale>
<asrwt>0</asrwt>
<pdfrwt beam="1">  1       21 0.29051268E-01 0.20777015E+03</pdfrwt>
<pdfrwt beam="2">  1       21 0.11933883E+00 0.20777015E+03</pdfrwt>
<totfact> 0.60024075E+03</totfact>
</mgrwt>
</event>
<event>
 5    0  0.1911311E+001  0.2540705E+03  0.7546771E-02  0.1110759E+00
         21   -1    0    0  502  501  0.00000000000E+00  0.00000000000E+00  0.18870167654E+03  0.18870167654E+03  0.00000000000E+00 0. -1.
         21   -1    0    0  504  502 -0.00000000000E+00 -0.00000000000E+00 -0.44428781122E+03  0.44428781122E+03  0.00000000000E+00 0.  1.
         25    1    1    2    0    0 -0.12860195580E+03  0.18232514061E+03 -0.27523983380E+03  0.37571649690E+03  0.12500000000E+03 0.  0.
         21    1    1    2  503  501  0.14415265466E+03 -0.16736228830E+03  0.43482992066E+02  0.22512417460E+03  0.00000000000E+00 0. -1.
         21    1    1    2  504  503 -0.15550698858E+02 -0.14962852314E+02 -0.23829292944E+02  0.32148816254E+02  0.00000000000E+00 0. -1.
<mgrwt>
<rscale>  4 0.25407055E+03</rscale>
<asrwt>0</asrwt>
<pdfrwt beam="1">  1       21 0.29031027E-01 0.25407055E+03</pdfrwt>
<pdfrwt beam="2">  1       21 0.68351970E-01 0.25407055E+03</pdfrwt>
<totfact> 0.21461672E+04</totfact>
</mgrwt>
</event>
<event>
 5    0  0.1911311E+001  0.2866923E+03  0.7546771E-02  0.1092089E+00
         21   -1    0    0  502  501  0.00000000000E+00  0.00000000000E+00  0.20604304877E+03  0.20604304877E+03  0.00000000000E+00 0.  1.
         21   -1    0    0  504  502 -0.00000000000E+00 -0.00000000000E+00 -0.55944614713E+03  0.55944614713E+03  0.00000000000E+00 0.  1.
         25    1    1    2    0    0  0.27311959938E+03  0.66868535447E+02 -0.24894756645E+03  0.39581006485E+03  0.12500000000E+03 0.  0.
         21    1    1    2  503  501 -0.25121401874E+03  0.92190909136E+01 -0.17373669773E+02  0.25198277570E+03  0.00000000000E+00 0.  1.
         21    1    1    2  504  503 -0.21905580643E+02 -0.76087626361E+02 -0.87081862133E+02  0.11769635534E+03  0.00000000000E+00 0.  1.
<mgrwt>
<rscale>  4 0.28669232E+03</rscale>
<asrwt>0</asrwt>
<pdfrwt beam="1">  1       21 0.31698931E-01 0.28669232E+03</pdfrwt>
<pdfrwt beam="2">  1       21 0.86068636E-01 0.28669232E+03</pdfrwt>
<totfact> 0.10551247E+04</totfact>
</mgrwt>
</event>
<event>
 5    0  0.1911311E+001  0.2246686E+03  0.7546771E-02  0.1130450E+00
         21   -1    0    0  502  501  0.00000000000E+00  0.00000000000E+00  0.23804260761E+03  0.23804260761E+03  0.00000000000E+00 0. -1.
         21   -1    0    0  504  502 -0.00000000000E+00 -0.00000000000E+00 -0.39496309956E+03  0.39496309956E+03  0.00000000000E+00 0. -1.
         25    1    1    2    0    0 -0.24734246460E+03 -0.78087544459E+02 -0.59723683164E+02  0.29405420882E+03  0.12500000000E+03 0.  0.
         21    1    1    2  503  501  0.15660262518E+03  0.38957435749E+02  0.43392672899E+02  0.16710771399E+03  0.00000000000E+00 0. -1.
         21    1    1    2  504  503  0.90739839422E+02  0.39130108710E+02 -0.14058948168E+03  0.17184378436E+03  0.00000000000E+00 0. -1.
<mgrwt>
<rscale>  4 0.22466858E+03</rscale>
<asrwt>0</asrwt>
<pdfrwt beam="1">  1       21 0.36621940E-01 0.22466858E+03</pdfrwt>
<pdfrwt beam="2">  1       21 0.60763553E-01 0.22466858E+03</pdfrwt>
<totfact> 0.17793007E+04</totfact>
</mgrwt>
</event>
