<event>
 5    0  0.1856407E+000  0.3444368E+03  0.7546771E-02  0.1064922E+00
         21   -1    0    0  502  501  0.00000000000E+00  0.00000000000E+00  0.12435413719E+03  0.12435413719E+03  0.00000000000E+00 0.  1.
         21   -1    0    0  503  502 -0.00000000000E+00 -0.00000000000E+00 -0.18512469946E+04  0.18512469946E+04  0.00000000000E+00 0. -1.
         25    1    1    2    0    0 -0.29425134376E+03  0.12817120383E+03 -0.16986042190E+03  0.38404332272E+03  0.12500000000E+03 0.  0.
         21    1    1    2  503  504  0.36074438802E+02 -0.36637922180E+02 -0.16482711655E+03  0.17266059431E+03  0.00000000000E+00 0.  1.
         21    1    1    2  504  501  0.25817690496E+03 -0.91533281646E+02 -0.13922053190E+04  0.14188972148E+04  0.00000000000E+00 0. -1.
<mgrwt>
<rscale>  4 0.34443680E+03</rscale>
<asrwt>0</asrwt>
<pdfrwt beam="1">  1       21 0.19131406E-01 0.34443680E+03</pdfrwt>
<pdfrwt beam="2">  1       21 0.28480723E+00 0.34443680E+03</pdfrwt>
<totfact> 0.90390146E+02</totfact>
</mgrwt>
</event>
<event>
 5    0  0.2216188E+000  0.2477089E+03  0.7546771E-02  0.1114761E+00
         21   -1    0    0  502  501  0.00000000000E+00  0.00000000000E+00  0.14022676634E+03  0.14022676634E+03  0.00000000000E+00 0. -1.
         21   -1    0    0  503  502 -0.00000000000E+00 -0.00000000000E+00 -0.54273071247E+03  0.54273071247E+03  0.00000000000E+00 0. -1.
         25    1    1    2    0    0 -0.19279704840E+03 -0.92541823497E+02 -0.26827541866E+02  0.24915739598E+03  0.12500000000E+03 0.  0.
         21    1    1    2  503  504  0.16521574998E+03  0.91747359354E+02 -0.33544074897E+03  0.38501210118E+03  0.00000000000E+00 0. -1.
         21    1    1    2  504  501  0.27581298419E+02  0.79446414300E+00 -0.40235655298E+02  0.48787981645E+02  0.00000000000E+00 0. -1.
<mgrwt>
<rscale>  4 0.24770888E+03</rscale>
<asrwt>0</asrwt>
<pdfrwt beam="1">  1       21 0.21573349E-01 0.24770888E+03</pdfrwt>
<pdfrwt beam="2">  1       21 0.83497033E-01 0.24770888E+03</pdfrwt>
<totfact> 0.24269811E+04</totfact>
</mgrwt>
</event>
<event>
 5    0  0.1856407E+000  0.3338101E+03  0.7546771E-02  0.1069463E+00
         21   -1    0    0  502  501  0.00000000000E+00  0.00000000000E+00  0.63085036267E+03  0.63085036267E+03  0.00000000000E+00 0.  1.
         21   -1    0    0  503  502 -0.00000000000E+00 -0.00000000000E+00 -0.32011397325E+03  0.32011397325E+03  0.00000000000E+00 0. -1.
         25    1    1    2    0    0  0.14022669381E+03 -0.27593602047E+03  0.48625016478E+03  0.58980372650E+03  0.12500000000E+03 0.  0.
         21    1    1    2  503  504 -0.46911418645E+02  0.12086907508E+03 -0.10534105451E+03  0.16705314207E+03  0.00000000000E+00 0. -1.
         21    1    1    2  504  501 -0.93315275164E+02  0.15506694538E+03 -0.70172720852E+02  0.19410746735E+03  0.00000000000E+00 0. -1.
<mgrwt>
<rscale>  4 0.33381015E+03</rscale>
<asrwt>0</asrwt>
<pdfrwt beam="1">  1       21 0.97053902E-01 0.33381015E+03</pdfrwt>
<pdfrwt beam="2">  1       21 0.49248304E-01 0.33381015E+03</pdfrwt>
<totfact> 0.31627400E+03</totfact>
</mgrwt>
</event>
<event>
 5    0  0.3247819E+000  0.2581168E+03  0.7546771E-02  0.1108280E+00
         21   -1    0    0  502  501  0.00000000000E+00  0.00000000000E+00  0.62331811541E+02  0.62331811541E+02  0.00000000000E+00 0.  1.
         21   -1    0    0  503  502 -0.00000000000E+00 -0.00000000000E+00 -0.13737266123E+04  0.13737266123E+04  0.00000000000E+00 0.  1.
         25    1    1    2    0    0 -0.19284278289E+03  0.16254649539E+03 -0.42560939040E+03  0.51027253039E+03  0.12500000000E+03 0.  0.
         21    1    1    2  503  504  0.19880208151E+02 -0.31075194980E+02 -0.49462106720E+02  0.61704055137E+02  0.00000000000E+00 0.  1.
         21    1    1    2  504  501  0.17296257474E+03 -0.13147130041E+03 -0.83632330364E+03  0.86408183831E+03  0.00000000000E+00 0.  1.
<mgrwt>
<rscale>  4 0.25811685E+03</rscale>
<asrwt>0</asrwt>
<pdfrwt beam="1">  1       21 0.95895103E-02 0.25811685E+03</pdfrwt>
<pdfrwt beam="2">  1       21 0.21134254E+00 0.25811685E+03</pdfrwt>
<totfact> 0.94567718E+03</totfact>
</mgrwt>
</event>
<event>
 5    0  0.1856407E+000  0.3543220E+03  0.7546771E-02  0.1060855E+00
         21   -1    0    0  502  501  0.00000000000E+00  0.00000000000E+00  0.99870986274E+03  0.99870986274E+03  0.00000000000E+00 0.  1.
         21   -1    0    0  503  502 -0.00000000000E+00 -0.00000000000E+00 -0.12475592438E+04  0.12475592438E+04  0.00000000000E+00 0.  1.
         25    1    1    2    0    0 -0.31854271617E+03  0.91921800121E+02  0.94313794336E+03  0.10074985159E+04  0.12500000000E+03 0.  0.
         21    1    1    2  503  504  0.49340505251E+02 -0.20900680035E+02 -0.12385167824E+03  0.13494651566E+03  0.00000000000E+00 0. -1.
         21    1    1    2  504  501  0.26920221092E+03 -0.71021120085E+02 -0.10681356461E+04  0.11038240749E+04  0.00000000000E+00 0.  1.
<mgrwt>
<rscale>  4 0.35432200E+03</rscale>
<asrwt>0</asrwt>
<pdfrwt beam="1">  1       21 0.15364767E+00 0.35432200E+03</pdfrwt>
<pdfrwt beam="2">  1       21 0.19193219E+00 0.35432200E+03</pdfrwt>
<totfact> 0.35275202E+01</totfact>
</mgrwt>
</event>
<event>
 5    0  0.1856407E+000  0.2908333E+03  0.7546771E-02  0.1089915E+00
         21   -1    0    0  502  501  0.00000000000E+00  0.00000000000E+00  0.16862578357E+03  0.16862578357E+03  0.00000000000E+00 0.  1.
         21   -1    0    0  503  502 -0.00000000000E+00 -0.00000000000E+00 -0.71523860287E+03  0.71523860287E+03  0.00000000000E+00 0.  1.
         25    1    1    2    0    0  0.18174544677E+03  0.18954582600E+03 -0.53597871779E+03  0.60980096220E+03  0.12500000000E+03 0.  0.
         21    1    1    2  503  504 -0.43148811243E+01 -0.29424266299E+02  0.15681259607E+02  0.33620046835E+02  0.00000000000E+00 0.  1.
         21    1    1    2  504  501 -0.17743056565E+03 -0.16012155970E+03 -0.26315361123E+02  0.24044337740E+03  0.00000000000E+00 0.  1.
<mgrwt>
<rscale>  4 0.29083333E+03</rscale>
<asrwt>0</asrwt>
<pdfrwt beam="1">  1       21 0.25942428E-01 0.29083333E+03</pdfrwt>
<pdfrwt beam="2">  1       21 0.11003671E+00 0.29083333E+03</pdfrwt>
<totfact> 0.86763585E+03</totfact>
</mgrwt>
</event>
<event>
 5    0  0.1856407E+000  0.2923587E+03  0.7546771E-02  0.1089124E+00
         21   -1    0    0  502  501  0.00000000000E+00  0.00000000000E+00  0.16404261902E+04  0.16404261902E+04  0.00000000000E+00 0.  1.
         21   -1    0    0  503  502 -0.00000000000E+00 -0.00000000000E+00 -0.10076148506E+03  0.10076148506E+03  0.00000000000E+00 0. -1.
         25    1    1    2    0    0  0.17174015852E+03  0.20088285638E+03  0.14107798691E+04  0.14407544701E+04  0.12500000000E+03 0.  0.
         21    1    1    2  503  504 -0.17140062098E+03 -0.17964252708E+03  0.10840812949E+03  0.27092791098E+03  0.00000000000E+00 0. -1.
         21    1    1    2  504  501 -0.33953754549E+00 -0.21240329299E+02  0.20476706573E+02  0.29505294212E+02  0.00000000000E+00 0. -1.
<mgrwt>
<rscale>  4 0.29235869E+03</rscale>
<asrwt>0</asrwt>
<pdfrwt beam="1">  1       21 0.25237324E+00 0.29235869E+03</pdfrwt>
<pdfrwt beam="2">  1       21 0.15501768E-01 0.29235869E+03</pdfrwt>
<totfact> 0.21690757E+03</totfact>
</mgrwt>
</event>
<event>
 5    0  0.1856407E+000  0.2393633E+03  0.7546771E-02  0.1120218E+00
         21   -1    0    0  502  501  0.00000000000E+00  0.00000000000E+00  0.10384346831E+03  0.10384346831E+03  0.00000000000E+00 0. -1.
         21   -1    0    0  503  502 -0.00000000000E+00 -0.00000000000E+00 -0.82400257537E+03  0.82400257537E+03  0.00000000000E+00 0. -1.
         25    1    1    2    0    0 -0.19471568581E+03 -0.78323557562E+02 -0.11641366110E+03  0.27060287962E+03  0.12500000000E+03 0.  0.
         21    1    1    2  503  504  0.16907222932E+03  0.96026614363E+02 -0.34006496557E+03  0.39172785221E+03  0.00000000000E+00 0. -1.
         21    1    1    2  504  501  0.25643456487E+02 -0.17703056801E+02 -0.26368048040E+03  0.26551531184E+03  0.00000000000E+00 0. -1.
<mgrwt>
<rscale>  4 0.23936327E+03</rscale>
<asrwt>0</asrwt>
<pdfrwt beam="1">  1       21 0.15975918E-01 0.23936327E+03</pdfrwt>
<pdfrwt beam="2">  1       21 0.12676963E+00 0.23936327E+03</pdfrwt>
<totfact> 0.15637184E+04</totfact>
</mgrwt>
</event>
<event>
 5    0  0.1856407E+000  0.3924529E+03  0.7546771E-02  0.1046425E+00
         21   -1    0    0  502  501  0.00000000000E+00  0.00000000000E+00  0.70377491126E+03  0.70377491126E+03  0.00000000000E+00 0. -1.
         21   -1    0    0  503  502 -0.00000000000E+00 -0.00000000000E+00 -0.23880875212E+04  0.23880875212E+04  0.00000000000E+00 0. -1.
         25    1    1    2    0    0 -0.62846269000E+02 -0.37320355885E+03  0.62591268661E+03  0.74203924500E+03  0.12500000000E+03 0.  0.
         21    1    1    2  503  504 -0.28092034965E+02  0.25859379221E+03 -0.10777840222E+04  0.11087282400E+04  0.00000000000E+00 0. -1.
         21    1    1    2  504  501  0.90938303965E+02  0.11460976663E+03 -0.12324412744E+04  0.12410949475E+04  0.00000000000E+00 0. -1.
<mgrwt>
<rscale>  4 0.39245294E+03</rscale>
<asrwt>0</asrwt>
<pdfrwt beam="1">  1       21 0.10827306E+00 0.39245294E+03</pdfrwt>
<pdfrwt beam="2">  1       21 0.36739808E+00 0.39245294E+03</pdfrwt>
<totfact> 0.70525881E+00</totfact>
</mgrwt>
</event>
<event>
 5    0  0.1856407E+000  0.3124080E+03  0.7546771E-02  0.1079197E+00
         21   -1    0    0  502  501  0.00000000000E+00  0.00000000000E+00  0.41836133771E+03  0.41836133771E+03  0.00000000000E+00 0. -1.
         21   -1    0    0  503  502 -0.00000000000E+00 -0.00000000000E+00 -0.21968891389E+03  0.21968891389E+03  0.00000000000E+00 0. -1.
         25    1    1    2    0    0  0.45835468846E+02 -0.28261790157E+03  0.88603116087E+02  0.32472955004E+03  0.12500000000E+03 0.  0.
         21    1    1    2  503  504 -0.56424877523E+02  0.15313419068E+03  0.55033351612E+02  0.17222809570E+03  0.00000000000E+00 0. -1.
         21    1    1    2  504  501  0.10589408678E+02  0.12948371088E+03  0.55035956120E+02  0.14109260585E+03  0.00000000000E+00 0. -1.
<mgrwt>
<rscale>  4 0.31240802E+03</rscale>
<asrwt>0</asrwt>
<pdfrwt beam="1">  1       21 0.64363283E-01 0.31240802E+03</pdfrwt>
<pdfrwt beam="2">  1       21 0.33798295E-01 0.31240802E+03</pdfrwt>
<totfact> 0.17696741E+04</totfact>
</mgrwt>
</event>
