<event>
 5    0  0.2584788E+000  0.2759858E+03  0.7546771E-02  0.1097902E+00
         21   -1    0    0  502  501  0.00000000000E+00  0.00000000000E+00  0.23830674584E+03  0.23830674584E+03  0.00000000000E+00 0.  1.
         21   -1    0    0  503  502 -0.00000000000E+00 -0.00000000000E+00 -0.62928052133E+03  0.62928052133E+03  0.00000000000E+00 0. -1.
         25    1    1    2    0    0 -0.22228952541E+03  0.10550129202E+03  0.11835541607E+03  0.30029345687E+03  0.12500000000E+03 0.  0.
         21    1    1    2  503  504  0.39293584628E+02 -0.12023125308E+02 -0.55002440802E+02  0.68657190659E+02  0.00000000000E+00 0. -1.
         21    1    1    2  504  501  0.18299594078E+03 -0.93478166708E+02 -0.45432675076E+03  0.49863661964E+03  0.00000000000E+00 0. -1.
<mgrwt>
<rscale>  4 0.27598579E+03</rscale>
<asrwt>0</asrwt>
<pdfrwt beam="1">  1       21 0.36662576E-01 0.27598579E+03</pdfrwt>
<pdfrwt beam="2">  1       21 0.96812388E-01 0.27598579E+03</pdfrwt>
<totfact> 0.60207965E+03</totfact>
</mgrwt>
</event>
<event>
 5    0  0.2159162E+000  0.2697918E+03  0.7546771E-02  0.1101399E+00
         21   -1    0    0  502  501  0.00000000000E+00  0.00000000000E+00  0.35100597934E+03  0.35100597934E+03  0.00000000000E+00 0. -1.
         21   -1    0    0  503  502 -0.00000000000E+00 -0.00000000000E+00 -0.40238932675E+03  0.40238932675E+03  0.00000000000E+00 0. -1.
         25    1    1    2    0    0 -0.23111271010E+03 -0.61233591302E+02  0.24657819347E+03  0.36549752799E+03  0.12500000000E+03 0.  0.
         21    1    1    2  503  504  0.10236666095E+03  0.13076307919E+02 -0.81589585585E+02  0.13155524915E+03  0.00000000000E+00 0. -1.
         21    1    1    2  504  501  0.12874604915E+03  0.48157283383E+02 -0.21637195529E+03  0.25634252896E+03  0.00000000000E+00 0. -1.
<mgrwt>
<rscale>  4 0.26979184E+03</rscale>
<asrwt>0</asrwt>
<pdfrwt beam="1">  1       21 0.54000920E-01 0.26979184E+03</pdfrwt>
<pdfrwt beam="2">  1       21 0.61906050E-01 0.26979184E+03</pdfrwt>
<totfact> 0.74828016E+03</totfact>
</mgrwt>
</event>
<event>
 5    0  0.3900235E+000  0.3692455E+03  0.7546771E-02  0.1054982E+00
         21   -1    0    0  502  501  0.00000000000E+00  0.00000000000E+00  0.32613186351E+03  0.32613186351E+03  0.00000000000E+00 0.  1.
         21   -1    0    0  503  502 -0.00000000000E+00 -0.00000000000E+00 -0.49225761568E+03  0.49225761568E+03  0.00000000000E+00 0.  1.
         25    1    1    2    0    0  0.28945785647E+03 -0.19217549345E+03  0.85321405894E+02  0.37897495070E+03  0.12500000000E+03 0.  0.
         21    1    1    2  503  504 -0.30140285012E+02  0.49606218273E+01  0.30256801229E+01  0.30695264939E+02  0.00000000000E+00 0.  1.
         21    1    1    2  504  501 -0.25931757146E+03  0.18721487162E+03 -0.25447283818E+03  0.40871926355E+03  0.00000000000E+00 0.  1.
<mgrwt>
<rscale>  4 0.36924554E+03</rscale>
<asrwt>0</asrwt>
<pdfrwt beam="1">  1       21 0.50174133E-01 0.36924554E+03</pdfrwt>
<pdfrwt beam="2">  1       21 0.75731940E-01 0.36924554E+03</pdfrwt>
<totfact> 0.53357577E+03</totfact>
</mgrwt>
</event>
<event>
 5    0  0.2159162E+000  0.3336188E+03  0.7546771E-02  0.1069547E+00
         21   -1    0    0  502  501  0.00000000000E+00  0.00000000000E+00  0.52632868337E+02  0.52632868337E+02  0.00000000000E+00 0. -1.
         21   -1    0    0  503  502 -0.00000000000E+00 -0.00000000000E+00 -0.20934763147E+04  0.20934763147E+04  0.00000000000E+00 0. -1.
         25    1    1    2    0    0  0.29555860873E+03  0.91222818518E+02 -0.90700481659E+03  0.96641566168E+03  0.12500000000E+03 0.  0.
         21    1    1    2  503  504 -0.19550528054E+03 -0.82317669439E+01 -0.67239733634E+03  0.70029154973E+03  0.00000000000E+00 0. -1.
         21    1    1    2  504  501 -0.10005332819E+03 -0.82991051574E+02 -0.46144129344E+03  0.47940197164E+03  0.00000000000E+00 0. -1.
<mgrwt>
<rscale>  4 0.33361879E+03</rscale>
<asrwt>0</asrwt>
<pdfrwt beam="1">  1       21 0.80973646E-02 0.33361879E+03</pdfrwt>
<pdfrwt beam="2">  1       21 0.32207327E+00 0.33361879E+03</pdfrwt>
<totfact> 0.26148307E+03</totfact>
</mgrwt>
</event>
<event>
 5    0  0.2159162E+000  0.2837272E+03  0.7546771E-02  0.1093670E+00
         21   -1    0    0  502  501  0.00000000000E+00  0.00000000000E+00  0.39874840829E+03  0.39874840829E+03  0.00000000000E+00 0. -1.
         21   -1    0    0  503  502 -0.00000000000E+00 -0.00000000000E+00 -0.20970617697E+04  0.20970617697E+04  0.00000000000E+00 0. -1.
         25    1    1    2    0    0  0.66007242511E+02 -0.24600639966E+03  0.33867495428E+03  0.44181651100E+03  0.12500000000E+03 0.  0.
         21    1    1    2  503  504 -0.68317339644E+02  0.15893105190E+03 -0.11843304255E+04  0.11968980303E+04  0.00000000000E+00 0. -1.
         21    1    1    2  504  501  0.23100971332E+01  0.87075347760E+02 -0.85265789014E+03  0.85709563665E+03  0.00000000000E+00 0. -1.
<mgrwt>
<rscale>  4 0.28372717E+03</rscale>
<asrwt>0</asrwt>
<pdfrwt beam="1">  1       21 0.61345910E-01 0.28372717E+03</pdfrwt>
<pdfrwt beam="2">  1       21 0.32262488E+00 0.28372717E+03</pdfrwt>
<totfact> 0.54766404E+01</totfact>
</mgrwt>
</event>
<event>
 5    0  0.2159162E+000  0.2969233E+03  0.7546771E-02  0.1086789E+00
         21   -1    0    0  502  501  0.00000000000E+00  0.00000000000E+00  0.40857325323E+03  0.40857325323E+03  0.00000000000E+00 0.  1.
         21   -1    0    0  503  502 -0.00000000000E+00 -0.00000000000E+00 -0.11250538754E+04  0.11250538754E+04  0.00000000000E+00 0. -1.
         25    1    1    2    0    0 -0.22938065309E+03 -0.15128942313E+03  0.32307270786E+03  0.44215941483E+03  0.12500000000E+03 0.  0.
         21    1    1    2  503  504  0.18909424164E+03  0.54885391171E+02 -0.87241744354E+03  0.89436079642E+03  0.00000000000E+00 0. -1.
         21    1    1    2  504  501  0.40286411450E+02  0.96404031956E+02 -0.16713588645E+03  0.19710691734E+03  0.00000000000E+00 0. -1.
<mgrwt>
<rscale>  4 0.29692330E+03</rscale>
<asrwt>0</asrwt>
<pdfrwt beam="1">  1       21 0.62857424E-01 0.29692330E+03</pdfrwt>
<pdfrwt beam="2">  1       21 0.17308521E+00 0.29692330E+03</pdfrwt>
<totfact> 0.43079017E+02</totfact>
</mgrwt>
</event>
<event>
 5    0  0.9724077E+000  0.2451420E+03  0.7546771E-02  0.1116414E+00
         21   -1    0    0  502  501  0.00000000000E+00  0.00000000000E+00  0.82413235358E+02  0.82413235358E+02  0.00000000000E+00 0. -1.
         21   -1    0    0  503  502 -0.00000000000E+00 -0.00000000000E+00 -0.80013373200E+03  0.80013373200E+03  0.00000000000E+00 0. -1.
         25    1    1    2    0    0  0.64672169757E+02 -0.20071643916E+03 -0.57265411611E+03  0.62291838566E+03  0.12500000000E+03 0.  0.
         21    1    1    2  503  504 -0.66069774933E+02  0.14376134151E+03 -0.11061541424E+03  0.19305001513E+03  0.00000000000E+00 0. -1.
         21    1    1    2  504  501  0.13976051757E+01  0.56955097652E+02 -0.34450966285E+02  0.66578566572E+02  0.00000000000E+00 0.  1.
<mgrwt>
<rscale>  4 0.24514196E+03</rscale>
<asrwt>0</asrwt>
<pdfrwt beam="1">  1       21 0.12678960E-01 0.24514196E+03</pdfrwt>
<pdfrwt beam="2">  1       21 0.12309749E+00 0.24514196E+03</pdfrwt>
<totfact> 0.25587262E+04</totfact>
</mgrwt>
</event>
<event>
 5    0  0.3114145E+000  0.2258641E+03  0.7546771E-02  0.1129585E+00
         21   -1    0    0  502  501  0.00000000000E+00  0.00000000000E+00  0.27367489913E+03  0.27367489913E+03  0.00000000000E+00 0. -1.
         21   -1    0    0  503  502 -0.00000000000E+00 -0.00000000000E+00 -0.27540662880E+03  0.27540662880E+03  0.00000000000E+00 0. -1.
         25    1    1    2    0    0  0.20901198287E+03 -0.80505070767E+01  0.13211606628E+03  0.27718310665E+03  0.12500000000E+03 0.  0.
         21    1    1    2  503  504 -0.29293708683E+02 -0.31158029615E+02  0.26380382846E+01  0.42847443610E+02  0.00000000000E+00 0. -1.
         21    1    1    2  504  501 -0.17971827418E+03  0.39208536691E+02 -0.13648583422E+03  0.22905097766E+03  0.00000000000E+00 0. -1.
<mgrwt>
<rscale>  4 0.22586406E+03</rscale>
<asrwt>0</asrwt>
<pdfrwt beam="1">  1       21 0.42103830E-01 0.22586406E+03</pdfrwt>
<pdfrwt beam="2">  1       21 0.42370251E-01 0.22586406E+03</pdfrwt>
<totfact> 0.28586617E+04</totfact>
</mgrwt>
</event>
<event>
 5    0  0.2159162E+000  0.2593209E+03  0.7546771E-02  0.1107552E+00
         21   -1    0    0  502  501  0.00000000000E+00  0.00000000000E+00  0.79100907808E+03  0.79100907808E+03  0.00000000000E+00 0. -1.
         21   -1    0    0  503  502 -0.00000000000E+00 -0.00000000000E+00 -0.87786456913E+02  0.87786456913E+02  0.00000000000E+00 0. -1.
         25    1    1    2    0    0  0.13522367455E+03  0.18258388145E+03  0.47499200277E+03  0.54116976876E+03  0.12500000000E+03 0.  0.
         21    1    1    2  503  504 -0.10094282472E+03 -0.75215351956E+02  0.72117402619E+02  0.14507833330E+03  0.00000000000E+00 0. -1.
         21    1    1    2  504  501 -0.34280849834E+02 -0.10736852949E+03  0.15611321578E+03  0.19254743294E+03  0.00000000000E+00 0. -1.
<mgrwt>
<rscale>  4 0.25932087E+03</rscale>
<asrwt>0</asrwt>
<pdfrwt beam="1">  1       21 0.12169370E+00 0.25932087E+03</pdfrwt>
<pdfrwt beam="2">  1       21 0.13505609E-01 0.25932087E+03</pdfrwt>
<totfact> 0.23324585E+04</totfact>
</mgrwt>
</event>
