<event>
 4    0  0.1607803E-001  0.2945331E+03  0.7546771E-02  0.1088006E+00
         21   -1    0    0  502  501  0.00000000000E+00  0.00000000000E+00  0.46054307162E+03  0.46054307162E+03  0.00000000000E+00 0. -1.
         21   -1    0    0  503  502 -0.00000000000E+00 -0.00000000000E+00 -0.17103730637E+03  0.17103730637E+03  0.00000000000E+00 0. -1.
         25    1    1    2    0    0  0.20587796032E+03  0.16952583101E+03  0.15772534743E+03  0.33410631114E+03  0.12500000000E+03 0.  0.
         21    1    1    2  503  501 -0.20587796032E+03 -0.16952583101E+03  0.13178041782E+03  0.29747406685E+03  0.00000000000E+00 0. -1.
<mgrwt>
<rscale>  3 0.29453309E+03</rscale>
<asrwt>0</asrwt>
<pdfrwt beam="1">  1       21 0.70852780E-01 0.29453309E+03</pdfrwt>
<pdfrwt beam="2">  1       21 0.26313432E-01 0.29453309E+03</pdfrwt>
<totfact> 0.23577910E+04</totfact>
</mgrwt>
</event>
<event>
 4    0  0.1003929E-001  0.3420765E+03  0.7546771E-02  0.1065915E+00
         21   -1    0    0  503  501  0.00000000000E+00  0.00000000000E+00  0.42758173490E+03  0.42758173490E+03  0.00000000000E+00 0.  1.
         21   -1    0    0  501  502 -0.00000000000E+00 -0.00000000000E+00 -0.28551896880E+03  0.28551896880E+03  0.00000000000E+00 0. -1.
         25    1    1    2    0    0  0.30673557588E+03  0.85467049368E+02  0.18967115846E+03  0.39114125120E+03  0.12500000000E+03 0.  0.
         21    1    1    2  503  502 -0.30673557588E+03 -0.85467049368E+02 -0.47608392362E+02  0.32195945251E+03  0.00000000000E+00 0. -1.
<mgrwt>
<rscale>  3 0.34207650E+03</rscale>
<asrwt>0</asrwt>
<pdfrwt beam="1">  1       21 0.65781805E-01 0.34207650E+03</pdfrwt>
<pdfrwt beam="2">  1       21 0.43925995E-01 0.34207650E+03</pdfrwt>
<totfact> 0.97767758E+03</totfact>
</mgrwt>
</event>
<event>
 4    0  0.1348343E-001  0.2551097E+03  0.7546771E-02  0.1110118E+00
         21   -1    0    0  503  501  0.00000000000E+00  0.00000000000E+00  0.81493833080E+03  0.81493833080E+03  0.00000000000E+00 0. -1.
         21   -1    0    0  501  502 -0.00000000000E+00 -0.00000000000E+00 -0.93964499633E+02  0.93964499633E+02  0.00000000000E+00 0. -1.
         25    1    1    2    0    0  0.20789341538E+03  0.78970276671E+02  0.60824147361E+03  0.65957461062E+03  0.12500000000E+03 0.  0.
         21    1    1    2  503  502 -0.20789341538E+03 -0.78970276671E+02  0.11273235755E+03  0.24932821981E+03  0.00000000000E+00 0. -1.
<mgrwt>
<rscale>  3 0.25510973E+03</rscale>
<asrwt>0</asrwt>
<pdfrwt beam="1">  1       21 0.12537512E+00 0.25510973E+03</pdfrwt>
<pdfrwt beam="2">  1       21 0.14456077E-01 0.25510973E+03</pdfrwt>
<totfact> 0.19153862E+04</totfact>
</mgrwt>
</event>
<event>
 4    0  0.1003929E-001  0.2594051E+03  0.7546771E-02  0.1107501E+00
         21   -1    0    0  503  501  0.00000000000E+00  0.00000000000E+00  0.68484616835E+03  0.68484616835E+03  0.00000000000E+00 0.  1.
         21   -1    0    0  501  502 -0.00000000000E+00 -0.00000000000E+00 -0.93126190991E+02  0.93126190991E+02  0.00000000000E+00 0. -1.
         25    1    1    2    0    0 -0.13795352650E+03  0.18065105739E+03  0.41774062369E+03  0.49172981269E+03  0.12500000000E+03 0.  0.
         21    1    1    2  503  502  0.13795352650E+03 -0.18065105739E+03  0.17397935366E+03  0.28624254665E+03  0.00000000000E+00 0. -1.
<mgrwt>
<rscale>  3 0.25940505E+03</rscale>
<asrwt>0</asrwt>
<pdfrwt beam="1">  1       21 0.10536095E+00 0.25940505E+03</pdfrwt>
<pdfrwt beam="2">  1       21 0.14327107E-01 0.25940505E+03</pdfrwt>
<totfact> 0.29853745E+04</totfact>
</mgrwt>
</event>
<event>
 4    0  0.1003929E-001  0.4116108E+03  0.7546771E-02  0.1039832E+00
         21   -1    0    0  502  501  0.00000000000E+00  0.00000000000E+00  0.57794564101E+03  0.57794564101E+03  0.00000000000E+00 0.  1.
         21   -1    0    0  503  502 -0.00000000000E+00 -0.00000000000E+00 -0.25461817326E+04  0.25461817326E+04  0.00000000000E+00 0. -1.
         25    1    1    2    0    0  0.25673746260E+02  0.39133020271E+03  0.48706966620E+03  0.63769924615E+03  0.12500000000E+03 0.  0.
         21    1    1    2  503  501 -0.25673746260E+02 -0.39133020271E+03 -0.24553057578E+04  0.24864281275E+04  0.00000000000E+00 0. -1.
<mgrwt>
<rscale>  3 0.41161082E+03</rscale>
<asrwt>0</asrwt>
<pdfrwt beam="1">  1       21 0.88914714E-01 0.41161082E+03</pdfrwt>
<pdfrwt beam="2">  1       21 0.39172027E+00 0.41161082E+03</pdfrwt>
<totfact> 0.78395377E+00</totfact>
</mgrwt>
</event>
<event>
 4    0  0.1003929E-001  0.4462630E+03  0.7546771E-02  0.1028842E+00
         21   -1    0    0  503  501  0.00000000000E+00  0.00000000000E+00  0.15460408973E+03  0.15460408973E+03  0.00000000000E+00 0.  1.
         21   -1    0    0  501  502 -0.00000000000E+00 -0.00000000000E+00 -0.12441149603E+04  0.12441149603E+04  0.00000000000E+00 0. -1.
         25    1    1    2    0    0 -0.40236386383E+03 -0.14706788867E+03 -0.50325753700E+03  0.67262083772E+03  0.12500000000E+03 0.  0.
         21    1    1    2  503  502  0.40236386383E+03  0.14706788867E+03 -0.58625333353E+03  0.72609821228E+03  0.00000000000E+00 0. -1.
<mgrwt>
<rscale>  3 0.44626297E+03</rscale>
<asrwt>0</asrwt>
<pdfrwt beam="1">  1       21 0.23785245E-01 0.44626297E+03</pdfrwt>
<pdfrwt beam="2">  1       21 0.19140230E+00 0.44626297E+03</pdfrwt>
<totfact> 0.21619308E+03</totfact>
</mgrwt>
</event>
<event>
 4    0  0.1003929E-001  0.2578299E+03  0.7546771E-02  0.1108454E+00
         21   -1    0    0  502  501  0.00000000000E+00  0.00000000000E+00  0.42211789002E+02  0.42211789002E+02  0.00000000000E+00 0. -1.
         21   -1    0    0  503  502 -0.00000000000E+00 -0.00000000000E+00 -0.17243118141E+04  0.17243118141E+04  0.00000000000E+00 0. -1.
         25    1    1    2    0    0 -0.22523976250E+03 -0.10876900717E+02 -0.12781278841E+04  0.13038738995E+04  0.12500000000E+03 0.  0.
         21    1    1    2  503  501  0.22523976250E+03  0.10876900717E+02 -0.40397214104E+03  0.46264970368E+03  0.00000000000E+00 0. -1.
<mgrwt>
<rscale>  3 0.25782990E+03</rscale>
<asrwt>0</asrwt>
<pdfrwt beam="1">  1       21 0.64941220E-02 0.25782990E+03</pdfrwt>
<pdfrwt beam="2">  1       21 0.26527871E+00 0.25782990E+03</pdfrwt>
<totfact> 0.88012954E+03</totfact>
</mgrwt>
</event>
<event>
 4    0  0.1003929E-001  0.2421211E+03  0.7546771E-02  0.1118388E+00
         21   -1    0    0  503  501  0.00000000000E+00  0.00000000000E+00  0.57210643790E+03  0.57210643790E+03  0.00000000000E+00 0.  1.
         21   -1    0    0  501  502 -0.00000000000E+00 -0.00000000000E+00 -0.10249741628E+03  0.10249741628E+03  0.00000000000E+00 0.  1.
         25    1    1    2    0    0  0.20731131058E+03 -0.44309034713E+01  0.12516481663E+03  0.27255979843E+03  0.12500000000E+03 0.  0.
         21    1    1    2  503  502 -0.20731131058E+03  0.44309034713E+01  0.34444420500E+03  0.40204405574E+03  0.00000000000E+00 0.  1.
<mgrwt>
<rscale>  3 0.24212107E+03</rscale>
<asrwt>0</asrwt>
<pdfrwt beam="1">  1       21 0.88016373E-01 0.24212107E+03</pdfrwt>
<pdfrwt beam="2">  1       21 0.15768834E-01 0.24212107E+03</pdfrwt>
<totfact> 0.38648726E+04</totfact>
</mgrwt>
</event>
<event>
 4    0  0.1003929E-001  0.2471250E+03  0.7546771E-02  0.1115135E+00
         21   -1    0    0  502  501  0.00000000000E+00  0.00000000000E+00  0.78933275376E+02  0.78933275376E+02  0.00000000000E+00 0.  1.
         21   -1    0    0  503  502 -0.00000000000E+00 -0.00000000000E+00 -0.70215813055E+03  0.70215813055E+03  0.00000000000E+00 0. -1.
         25    1    1    2    0    0 -0.51120771762E+02 -0.20695995746E+03 -0.25161874956E+03  0.35267939042E+03  0.12500000000E+03 0.  0.
         21    1    1    2  503  501  0.51120771762E+02  0.20695995746E+03 -0.37160610562E+03  0.42841201551E+03  0.00000000000E+00 0. -1.
<mgrwt>
<rscale>  3 0.24712498E+03</rscale>
<asrwt>0</asrwt>
<pdfrwt beam="1">  1       21 0.12143581E-01 0.24712498E+03</pdfrwt>
<pdfrwt beam="2">  1       21 0.10802433E+00 0.24712498E+03</pdfrwt>
<totfact> 0.38133887E+04</totfact>
</mgrwt>
</event>
<event>
 4    0  0.1471871E-001  0.3008948E+03  0.7546771E-02  0.1084794E+00
         21   -1    0    0  503  501  0.00000000000E+00  0.00000000000E+00  0.84648376092E+03  0.84648376092E+03  0.00000000000E+00 0. -1.
         21   -1    0    0  501  502 -0.00000000000E+00 -0.00000000000E+00 -0.97938593631E+02  0.97938593631E+02  0.00000000000E+00 0. -1.
         25    1    1    2    0    0 -0.22549181015E+03  0.15513266814E+03  0.42312334823E+03  0.51920233916E+03  0.12500000000E+03 0.  0.
         21    1    1    2  503  502  0.22549181015E+03 -0.15513266814E+03  0.32542181906E+03  0.42522001539E+03  0.00000000000E+00 0. -1.
<mgrwt>
<rscale>  3 0.30089483E+03</rscale>
<asrwt>0</asrwt>
<pdfrwt beam="1">  1       21 0.13022827E+00 0.30089483E+03</pdfrwt>
<pdfrwt beam="2">  1       21 0.15067477E-01 0.30089483E+03</pdfrwt>
<totfact> 0.15769796E+04</totfact>
</mgrwt>
</event>
<event>
 4    0  0.1093428E-001  0.2962632E+03  0.7546771E-02  0.1087124E+00
         21   -1    0    0  502  501  0.00000000000E+00  0.00000000000E+00  0.11562460914E+04  0.11562460914E+04  0.00000000000E+00 0. -1.
         21   -1    0    0  503  502 -0.00000000000E+00 -0.00000000000E+00 -0.20509085227E+03  0.20509085227E+03  0.00000000000E+00 0. -1.
         25    1    1    2    0    0 -0.21442410020E+03 -0.16176899724E+03  0.10376792215E+04  0.10791432110E+04  0.12500000000E+03 0.  0.
         21    1    1    2  503  501  0.21442410020E+03  0.16176899724E+03 -0.86523982360E+02  0.28219373263E+03  0.00000000000E+00 0. -1.
<mgrwt>
<rscale>  3 0.29626323E+03</rscale>
<asrwt>0</asrwt>
<pdfrwt beam="1">  1       21 0.17788401E+00 0.29626323E+03</pdfrwt>
<pdfrwt beam="2">  1       21 0.31552439E-01 0.29626323E+03</pdfrwt>
<totfact> 0.16671871E+03</totfact>
</mgrwt>
</event>
<event>
 4    0  0.1212873E-001  0.5243684E+03  0.7546771E-02  0.1007607E+00
         21   -1    0    0  502  501  0.00000000000E+00  0.00000000000E+00  0.15924420251E+04  0.15924420251E+04  0.00000000000E+00 0. -1.
         21   -1    0    0  503  502 -0.00000000000E+00 -0.00000000000E+00 -0.18303589637E+03  0.18303589637E+03  0.00000000000E+00 0. -1.
         25    1    1    2    0    0 -0.47033535353E+02  0.50707498329E+03  0.97087508398E+03  0.11034312941E+04  0.12500000000E+03 0.  0.
         21    1    1    2  503  501  0.47033535353E+02 -0.50707498329E+03  0.43853104474E+03  0.67204662735E+03  0.00000000000E+00 0. -1.
<mgrwt>
<rscale>  3 0.52436837E+03</rscale>
<asrwt>0</asrwt>
<pdfrwt beam="1">  1       21 0.24499107E+00 0.52436837E+03</pdfrwt>
<pdfrwt beam="2">  1       21 0.28159370E-01 0.52436837E+03</pdfrwt>
<totfact> 0.67685219E+02</totfact>
</mgrwt>
</event>
<event>
 4    0  0.1494026E-001  0.2472340E+03  0.7546771E-02  0.1115065E+00
         21   -1    0    0  503  501  0.00000000000E+00  0.00000000000E+00  0.65297131172E+03  0.65297131172E+03  0.00000000000E+00 0. -1.
         21   -1    0    0  501  502 -0.00000000000E+00 -0.00000000000E+00 -0.88077537153E+02  0.88077537153E+02  0.00000000000E+00 0. -1.
         25    1    1    2    0    0 -0.58872744699E+02 -0.20502105822E+03  0.40487409813E+03  0.47439189466E+03  0.12500000000E+03 0.  0.
         21    1    1    2  503  502  0.58872744699E+02  0.20502105822E+03  0.16001967644E+03  0.26665695422E+03  0.00000000000E+00 0. -1.
<mgrwt>
<rscale>  3 0.24723397E+03</rscale>
<asrwt>0</asrwt>
<pdfrwt beam="1">  1       21 0.10045712E+00 0.24723397E+03</pdfrwt>
<pdfrwt beam="2">  1       21 0.13550391E-01 0.24723397E+03</pdfrwt>
<totfact> 0.37271389E+04</totfact>
</mgrwt>
</event>
<event>
 4    0  0.1281048E-001  0.4246189E+03  0.7546771E-02  0.1035573E+00
         21   -1    0    0  502  501  0.00000000000E+00  0.00000000000E+00  0.12118128614E+04  0.12118128614E+04  0.00000000000E+00 0.  1.
         21   -1    0    0  503  502 -0.00000000000E+00 -0.00000000000E+00 -0.41493701632E+03  0.41493701632E+03  0.00000000000E+00 0. -1.
         25    1    1    2    0    0  0.25859263856E+02  0.40497845042E+03  0.10608295427E+04  0.11426550509E+04  0.12500000000E+03 0.  0.
         21    1    1    2  503  501 -0.25859263856E+02 -0.40497845042E+03 -0.26395369761E+03  0.48409482677E+03  0.00000000000E+00 0. -1.
<mgrwt>
<rscale>  3 0.42461894E+03</rscale>
<asrwt>0</asrwt>
<pdfrwt beam="1">  1       21 0.18643275E+00 0.42461894E+03</pdfrwt>
<pdfrwt beam="2">  1       21 0.63836464E-01 0.42461894E+03</pdfrwt>
<totfact> 0.30949644E+02</totfact>
</mgrwt>
</event>
<event>
 4    0  0.1392498E-001  0.2609184E+03  0.7546771E-02  0.1106593E+00
         21   -1    0    0  503  501  0.00000000000E+00  0.00000000000E+00  0.12281098099E+03  0.12281098099E+03  0.00000000000E+00 0. -1.
         21   -1    0    0  501  502 -0.00000000000E+00 -0.00000000000E+00 -0.62062514021E+03  0.62062514021E+03  0.00000000000E+00 0. -1.
         25    1    1    2    0    0  0.22571836367E+03 -0.38789703269E+02 -0.90536573127E+02  0.27617981797E+03  0.12500000000E+03 0.  0.
         21    1    1    2  503  502 -0.22571836367E+03  0.38789703269E+02 -0.40727758610E+03  0.46725630324E+03  0.00000000000E+00 0. -1.
<mgrwt>
<rscale>  3 0.26091842E+03</rscale>
<asrwt>0</asrwt>
<pdfrwt beam="1">  1       21 0.18893997E-01 0.26091842E+03</pdfrwt>
<pdfrwt beam="2">  1       21 0.95480789E-01 0.26091842E+03</pdfrwt>
<totfact> 0.22651339E+04</totfact>
</mgrwt>
</event>
<event>
 4    0  0.1303726E-001  0.2609108E+03  0.7546771E-02  0.1106597E+00
         21   -1    0    0  502  501  0.00000000000E+00  0.00000000000E+00  0.22409303219E+03  0.22409303219E+03  0.00000000000E+00 0.  1.
         21   -1    0    0  503  502 -0.00000000000E+00 -0.00000000000E+00 -0.50834632992E+03  0.50834632992E+03  0.00000000000E+00 0. -1.
         25    1    1    2    0    0 -0.41949473174E+02 -0.22514370398E+03  0.10464800395E+03  0.28111501289E+03  0.12500000000E+03 0.  0.
         21    1    1    2  503  501  0.41949473174E+02  0.22514370398E+03 -0.38890130168E+03  0.45132434921E+03  0.00000000000E+00 0. -1.
<mgrwt>
<rscale>  3 0.26091080E+03</rscale>
<asrwt>0</asrwt>
<pdfrwt beam="1">  1       21 0.34475851E-01 0.26091080E+03</pdfrwt>
<pdfrwt beam="2">  1       21 0.78207127E-01 0.26091080E+03</pdfrwt>
<totfact> 0.11266059E+04</totfact>
</mgrwt>
</event>
<event>
 4    0  0.1003929E-001  0.4221122E+03  0.7546771E-02  0.1036381E+00
         21   -1    0    0  503  501  0.00000000000E+00  0.00000000000E+00  0.11669138462E+04  0.11669138462E+04  0.00000000000E+00 0.  1.
         21   -1    0    0  501  502 -0.00000000000E+00 -0.00000000000E+00 -0.45994320706E+03  0.45994320706E+03  0.00000000000E+00 0.  1.
         25    1    1    2    0    0  0.28103869787E+03 -0.28908645140E+03  0.10281234884E+04  0.11114030023E+04  0.12500000000E+03 0.  0.
         21    1    1    2  503  502 -0.28103869787E+03  0.28908645140E+03 -0.32115284927E+03  0.51545405098E+03  0.00000000000E+00 0.  1.
<mgrwt>
<rscale>  3 0.42211222E+03</rscale>
<asrwt>0</asrwt>
<pdfrwt beam="1">  1       21 0.17952521E+00 0.42211222E+03</pdfrwt>
<pdfrwt beam="2">  1       21 0.70760494E-01 0.42211222E+03</pdfrwt>
<totfact> 0.27512575E+02</totfact>
</mgrwt>
</event>
<event>
 4    0  0.1003929E-001  0.4701649E+03  0.7546771E-02  0.1021874E+00
         21   -1    0    0  502  501  0.00000000000E+00  0.00000000000E+00  0.15675457085E+03  0.15675457085E+03  0.00000000000E+00 0.  1.
         21   -1    0    0  503  502 -0.00000000000E+00 -0.00000000000E+00 -0.15050386136E+04  0.15050386136E+04  0.00000000000E+00 0.  1.
         25    1    1    2    0    0 -0.29679495212E+03  0.34255339467E+03 -0.94328905504E+03  0.10539683644E+04  0.12500000000E+03 0.  0.
         21    1    1    2  503  501  0.29679495212E+03 -0.34255339467E+03 -0.40499498775E+03  0.60782482008E+03  0.00000000000E+00 0.  1.
<mgrwt>
<rscale>  3 0.47016494E+03</rscale>
<asrwt>0</asrwt>
<pdfrwt beam="1">  1       21 0.24116088E-01 0.47016494E+03</pdfrwt>
<pdfrwt beam="2">  1       21 0.23154440E+00 0.47016494E+03</pdfrwt>
<totfact> 0.11398387E+03</totfact>
</mgrwt>
</event>
<event>
 4    0  0.1003929E-001  0.3585206E+03  0.7546771E-02  0.1059171E+00
         21   -1    0    0  502  501  0.00000000000E+00  0.00000000000E+00  0.96939893991E+03  0.96939893991E+03  0.00000000000E+00 0.  1.
         21   -1    0    0  503  502 -0.00000000000E+00 -0.00000000000E+00 -0.37189127344E+03  0.37189127344E+03  0.00000000000E+00 0.  1.
         25    1    1    2    0    0 -0.24156645251E+03  0.23357580429E+03  0.84898696878E+03  0.92158335515E+03  0.12500000000E+03 0.  0.
         21    1    1    2  503  501  0.24156645251E+03 -0.23357580429E+03 -0.25147930231E+03  0.41970685820E+03  0.00000000000E+00 0.  1.
<mgrwt>
<rscale>  3 0.35852058E+03</rscale>
<asrwt>0</asrwt>
<pdfrwt beam="1">  1       21 0.14913830E+00 0.35852058E+03</pdfrwt>
<pdfrwt beam="2">  1       21 0.57214042E-01 0.35852058E+03</pdfrwt>
<totfact> 0.76511042E+02</totfact>
</mgrwt>
</event>
<event>
 4    0  0.1324193E-001  0.2724582E+03  0.7546771E-02  0.1099881E+00
         21   -1    0    0  503  501  0.00000000000E+00  0.00000000000E+00  0.85618843883E+02  0.85618843883E+02  0.00000000000E+00 0.  1.
         21   -1    0    0  501  502 -0.00000000000E+00 -0.00000000000E+00 -0.10985677340E+04  0.10985677340E+04  0.00000000000E+00 0.  1.
         25    1    1    2    0    0 -0.23915883545E+03 -0.37570585794E+02 -0.20561715218E+03  0.34133841090E+03  0.12500000000E+03 0.  0.
         21    1    1    2  503  502  0.23915883545E+03  0.37570585794E+02 -0.80733173792E+03  0.84284816695E+03  0.00000000000E+00 0.  1.
<mgrwt>
<rscale>  3 0.27245825E+03</rscale>
<asrwt>0</asrwt>
<pdfrwt beam="1">  1       21 0.13172130E-01 0.27245825E+03</pdfrwt>
<pdfrwt beam="2">  1       21 0.16901042E+00 0.27245825E+03</pdfrwt>
<totfact> 0.10199958E+04</totfact>
</mgrwt>
</event>
<event>
 4    0  0.1432125E-001  0.2611743E+03  0.7546771E-02  0.1106440E+00
         21   -1    0    0  503  501  0.00000000000E+00  0.00000000000E+00  0.51744946846E+03  0.51744946846E+03  0.00000000000E+00 0. -1.
         21   -1    0    0  501  502 -0.00000000000E+00 -0.00000000000E+00 -0.19160237257E+03  0.19160237257E+03  0.00000000000E+00 0. -1.
         25    1    1    2    0    0 -0.20433787039E+03 -0.10408185725E+03  0.39140889695E+03  0.47054534627E+03  0.12500000000E+03 0.  0.
         21    1    1    2  503  502  0.20433787039E+03  0.10408185725E+03 -0.65561801056E+02  0.23850649476E+03  0.00000000000E+00 0. -1.
<mgrwt>
<rscale>  3 0.26117427E+03</rscale>
<asrwt>0</asrwt>
<pdfrwt beam="1">  1       21 0.79607610E-01 0.26117427E+03</pdfrwt>
<pdfrwt beam="2">  1       21 0.29477288E-01 0.26117427E+03</pdfrwt>
<totfact> 0.14746860E+04</totfact>
</mgrwt>
</event>
<event>
 4    0  0.1411814E-001  0.2419799E+03  0.7546771E-02  0.1118481E+00
         21   -1    0    0  502  501  0.00000000000E+00  0.00000000000E+00  0.40027783558E+03  0.40027783558E+03  0.00000000000E+00 0.  1.
         21   -1    0    0  503  502 -0.00000000000E+00 -0.00000000000E+00 -0.17345400915E+03  0.17345400915E+03  0.00000000000E+00 0.  1.
         25    1    1    2    0    0 -0.15892076376E+03  0.13294151913E+03  0.26949435133E+03  0.36218981497E+03  0.12500000000E+03 0.  0.
         21    1    1    2  503  501  0.15892076376E+03 -0.13294151913E+03 -0.42670524901E+02  0.21154202977E+03  0.00000000000E+00 0.  1.
<mgrwt>
<rscale>  3 0.24197987E+03</rscale>
<asrwt>0</asrwt>
<pdfrwt beam="1">  1       21 0.61581205E-01 0.24197987E+03</pdfrwt>
<pdfrwt beam="2">  1       21 0.26685232E-01 0.24197987E+03</pdfrwt>
<totfact> 0.31946952E+04</totfact>
</mgrwt>
</event>
<event>
 4    0  0.1147354E-001  0.2864312E+03  0.7546771E-02  0.1092227E+00
         21   -1    0    0  503  501  0.00000000000E+00  0.00000000000E+00  0.14726746597E+04  0.14726746597E+04  0.00000000000E+00 0.  1.
         21   -1    0    0  501  502 -0.00000000000E+00 -0.00000000000E+00 -0.52800004166E+02  0.52800004166E+02  0.00000000000E+00 0.  1.
         25    1    1    2    0    0 -0.15402194001E+03  0.20662792640E+03  0.91250247320E+03  0.95640139145E+03  0.12500000000E+03 0.  0.
         21    1    1    2  503  502  0.15402194001E+03 -0.20662792640E+03  0.50737218235E+03  0.56907327243E+03  0.00000000000E+00 0.  1.
<mgrwt>
<rscale>  3 0.28643124E+03</rscale>
<asrwt>0</asrwt>
<pdfrwt beam="1">  1       21 0.22656530E+00 0.28643124E+03</pdfrwt>
<pdfrwt beam="2">  1       21 0.81230787E-02 0.28643124E+03</pdfrwt>
<totfact> 0.99949616E+03</totfact>
</mgrwt>
</event>
<event>
 4    0  0.1303317E-001  0.3810927E+03  0.7546771E-02  0.1050531E+00
         21   -1    0    0  502  501  0.00000000000E+00  0.00000000000E+00  0.83621525929E+03  0.83621525929E+03  0.00000000000E+00 0. -1.
         21   -1    0    0  503  502 -0.00000000000E+00 -0.00000000000E+00 -0.16504598833E+03  0.16504598833E+03  0.00000000000E+00 0. -1.
         25    1    1    2    0    0  0.28191878345E+02  0.35890368011E+03  0.30929180263E+03  0.49080857040E+03  0.12500000000E+03 0.  0.
         21    1    1    2  503  501 -0.28191878345E+02 -0.35890368011E+03  0.36187746833E+03  0.51045267723E+03  0.00000000000E+00 0. -1.
<mgrwt>
<rscale>  3 0.38109268E+03</rscale>
<asrwt>0</asrwt>
<pdfrwt beam="1">  1       21 0.12864850E+00 0.38109268E+03</pdfrwt>
<pdfrwt beam="2">  1       21 0.25391691E-01 0.38109268E+03</pdfrwt>
<totfact> 0.58694337E+03</totfact>
</mgrwt>
</event>
<event>
 4    0  0.1473778E-001  0.3806628E+03  0.7546771E-02  0.1050689E+00
         21   -1    0    0  503  501  0.00000000000E+00  0.00000000000E+00  0.49363894180E+03  0.49363894180E+03  0.00000000000E+00 0.  1.
         21   -1    0    0  501  502 -0.00000000000E+00 -0.00000000000E+00 -0.31457848283E+03  0.31457848283E+03  0.00000000000E+00 0.  1.
         25    1    1    2    0    0  0.21191291608E+03  0.29046870587E+03  0.23048756740E+03  0.44500412562E+03  0.12500000000E+03 0.  0.
         21    1    1    2  503  502 -0.21191291608E+03 -0.29046870587E+03 -0.51427108430E+02  0.36321329900E+03  0.00000000000E+00 0.  1.
<mgrwt>
<rscale>  3 0.38066278E+03</rscale>
<asrwt>0</asrwt>
<pdfrwt beam="1">  1       21 0.75944453E-01 0.38066278E+03</pdfrwt>
<pdfrwt beam="2">  1       21 0.48396690E-01 0.38066278E+03</pdfrwt>
<totfact> 0.56962196E+03</totfact>
</mgrwt>
</event>
<event>
 4    0  0.1107428E-001  0.4517935E+03  0.7546771E-02  0.1027189E+00
         21   -1    0    0  502  501  0.00000000000E+00  0.00000000000E+00  0.73565594244E+03  0.73565594244E+03  0.00000000000E+00 0.  1.
         21   -1    0    0  503  502 -0.00000000000E+00 -0.00000000000E+00 -0.40534224751E+03  0.40534224751E+03  0.00000000000E+00 0.  1.
         25    1    1    2    0    0 -0.70242034337E+02  0.42843720462E+03  0.50088211280E+03  0.67453708024E+03  0.12500000000E+03 0.  0.
         21    1    1    2  503  501  0.70242034337E+02 -0.42843720462E+03 -0.17056841787E+03  0.46646110971E+03  0.00000000000E+00 0.  1.
<mgrwt>
<rscale>  3 0.45179352E+03</rscale>
<asrwt>0</asrwt>
<pdfrwt beam="1">  1       21 0.11317784E+00 0.45179352E+03</pdfrwt>
<pdfrwt beam="2">  1       21 0.62360346E-01 0.45179352E+03</pdfrwt>
<totfact> 0.12389394E+03</totfact>
</mgrwt>
</event>
<event>
 4    0  0.1285617E-001  0.2449248E+03  0.7546771E-02  0.1116555E+00
         21   -1    0    0  503  501  0.00000000000E+00  0.00000000000E+00  0.27154514868E+03  0.27154514868E+03  0.00000000000E+00 0.  1.
         21   -1    0    0  501  502 -0.00000000000E+00 -0.00000000000E+00 -0.19236198852E+03  0.19236198852E+03  0.00000000000E+00 0.  1.
         25    1    1    2    0    0 -0.18677588909E+03 -0.97354721263E+02  0.23527244934E+02  0.24605224192E+03  0.12500000000E+03 0.  0.
         21    1    1    2  503  502  0.18677588909E+03  0.97354721263E+02  0.55655915223E+02  0.21785489528E+03  0.00000000000E+00 0.  1.
<mgrwt>
<rscale>  3 0.24492483E+03</rscale>
<asrwt>0</asrwt>
<pdfrwt beam="1">  1       21 0.41776177E-01 0.24492483E+03</pdfrwt>
<pdfrwt beam="2">  1       21 0.29594152E-01 0.24492483E+03</pdfrwt>
<totfact> 0.59015275E+04</totfact>
</mgrwt>
</event>
<event>
 4    0  0.1003929E-001  0.3588861E+03  0.7546771E-02  0.1059026E+00
         21   -1    0    0  503  501  0.00000000000E+00  0.00000000000E+00  0.14994586919E+04  0.14994586919E+04  0.00000000000E+00 0.  1.
         21   -1    0    0  501  502 -0.00000000000E+00 -0.00000000000E+00 -0.83560383228E+02  0.83560383228E+02  0.00000000000E+00 0.  1.
         25    1    1    2    0    0 -0.33639610005E+03  0.34533897307E+01  0.58118428749E+03  0.68306254330E+03  0.12500000000E+03 0.  0.
         21    1    1    2  503  502  0.33639610005E+03 -0.34533897307E+01  0.83471402119E+03  0.89995653184E+03  0.00000000000E+00 0.  1.
<mgrwt>
<rscale>  3 0.35888614E+03</rscale>
<asrwt>0</asrwt>
<pdfrwt beam="1">  1       21 0.23068593E+00 0.35888614E+03</pdfrwt>
<pdfrwt beam="2">  1       21 0.12855445E-01 0.35888614E+03</pdfrwt>
<totfact> 0.39759950E+03</totfact>
</mgrwt>
</event>
<event>
 4    0  0.1113900E-001  0.3010207E+03  0.7546771E-02  0.1084731E+00
         21   -1    0    0  502  501  0.00000000000E+00  0.00000000000E+00  0.56197451806E+02  0.56197451806E+02  0.00000000000E+00 0.  1.
         21   -1    0    0  503  502 -0.00000000000E+00 -0.00000000000E+00 -0.14702590773E+04  0.14702590773E+04  0.00000000000E+00 0.  1.
         25    1    1    2    0    0  0.12171038287E+02 -0.27356961863E+03 -0.73270729379E+03  0.79213221673E+03  0.12500000000E+03 0.  0.
         21    1    1    2  503  501 -0.12171038287E+02  0.27356961863E+03 -0.68135433166E+03  0.73432431233E+03  0.00000000000E+00 0.  1.
<mgrwt>
<rscale>  3 0.30102071E+03</rscale>
<asrwt>0</asrwt>
<pdfrwt beam="1">  1       21 0.86457609E-02 0.30102071E+03</pdfrwt>
<pdfrwt beam="2">  1       21 0.22619373E+00 0.30102071E+03</pdfrwt>
<totfact> 0.89251805E+03</totfact>
</mgrwt>
</event>
<event>
 4    0  0.1332956E-001  0.2535209E+03  0.7546771E-02  0.1111100E+00
         21   -1    0    0  503  501  0.00000000000E+00  0.00000000000E+00  0.17472545385E+03  0.17472545385E+03  0.00000000000E+00 0.  1.
         21   -1    0    0  501  502 -0.00000000000E+00 -0.00000000000E+00 -0.49247033554E+03  0.49247033554E+03  0.00000000000E+00 0.  1.
         25    1    1    2    0    0 -0.22056193421E+03 -0.52754343593E+00  0.30116396461E+02  0.25530343213E+03  0.12500000000E+03 0.  0.
         21    1    1    2  503  502  0.22056193421E+03  0.52754343593E+00 -0.34786127816E+03  0.41189235725E+03  0.00000000000E+00 0.  1.
<mgrwt>
<rscale>  3 0.25352090E+03</rscale>
<asrwt>0</asrwt>
<pdfrwt beam="1">  1       21 0.26880839E-01 0.25352090E+03</pdfrwt>
<pdfrwt beam="2">  1       21 0.75764667E-01 0.25352090E+03</pdfrwt>
<totfact> 0.19815347E+04</totfact>
</mgrwt>
</event>
<event>
 4    0  0.1452461E-001  0.2574371E+03  0.7546771E-02  0.1108693E+00
         21   -1    0    0  503  501  0.00000000000E+00  0.00000000000E+00  0.31326197716E+03  0.31326197716E+03  0.00000000000E+00 0.  1.
         21   -1    0    0  501  502 -0.00000000000E+00 -0.00000000000E+00 -0.19740005390E+03  0.19740005390E+03  0.00000000000E+00 0.  1.
         25    1    1    2    0    0  0.47291190224E+02  0.22002821361E+03  0.12339619243E+03  0.28548290976E+03  0.12500000000E+03 0.  0.
         21    1    1    2  503  502 -0.47291190224E+02 -0.22002821361E+03 -0.75342691754E+01  0.22517912130E+03  0.00000000000E+00 0.  1.
<mgrwt>
<rscale>  3 0.25743712E+03</rscale>
<asrwt>0</asrwt>
<pdfrwt beam="1">  1       21 0.48194150E-01 0.25743712E+03</pdfrwt>
<pdfrwt beam="2">  1       21 0.30369239E-01 0.25743712E+03</pdfrwt>
<totfact> 0.41549154E+04</totfact>
</mgrwt>
</event>
<event>
 4    0  0.1003929E-001  0.2419691E+03  0.7546771E-02  0.1118488E+00
         21   -1    0    0  503  501  0.00000000000E+00  0.00000000000E+00  0.69318440605E+02  0.69318440605E+02  0.00000000000E+00 0.  1.
         21   -1    0    0  501  502 -0.00000000000E+00 -0.00000000000E+00 -0.90624896812E+03  0.90624896812E+03  0.00000000000E+00 0. -1.
         25    1    1    2    0    0  0.19856215651E+03  0.59136593395E+02 -0.22841748559E+03  0.33275158061E+03  0.12500000000E+03 0.  0.
         21    1    1    2  503  502 -0.19856215651E+03 -0.59136593395E+02 -0.60851304193E+03  0.64281582811E+03  0.00000000000E+00 0. -1.
<mgrwt>
<rscale>  3 0.24196914E+03</rscale>
<asrwt>0</asrwt>
<pdfrwt beam="1">  1       21 0.10664376E-01 0.24196914E+03</pdfrwt>
<pdfrwt beam="2">  1       21 0.13942291E+00 0.24196914E+03</pdfrwt>
<totfact> 0.25445008E+04</totfact>
</mgrwt>
</event>
<event>
 4    0  0.1163997E-001  0.3582378E+03  0.7546771E-02  0.1059284E+00
         21   -1    0    0  502  501  0.00000000000E+00  0.00000000000E+00  0.35740907072E+03  0.35740907072E+03  0.00000000000E+00 0.  1.
         21   -1    0    0  503  502 -0.00000000000E+00 -0.00000000000E+00 -0.50003543345E+03  0.50003543345E+03  0.00000000000E+00 0.  1.
         25    1    1    2    0    0 -0.17964911369E+03  0.28361159444E+03  0.17195289549E+03  0.39736902096E+03  0.12500000000E+03 0.  0.
         21    1    1    2  503  501  0.17964911369E+03 -0.28361159444E+03 -0.31457925822E+03  0.46007548321E+03  0.00000000000E+00 0.  1.
<mgrwt>
<rscale>  3 0.35823783E+03</rscale>
<asrwt>0</asrwt>
<pdfrwt beam="1">  1       21 0.54986011E-01 0.35823783E+03</pdfrwt>
<pdfrwt beam="2">  1       21 0.76928528E-01 0.35823783E+03</pdfrwt>
<totfact> 0.42543810E+03</totfact>
</mgrwt>
</event>
<event>
 4    0  0.1124401E-001  0.2517511E+03  0.7546771E-02  0.1112203E+00
         21   -1    0    0  503  501  0.00000000000E+00  0.00000000000E+00  0.10534661025E+03  0.10534661025E+03  0.00000000000E+00 0.  1.
         21   -1    0    0  501  502 -0.00000000000E+00 -0.00000000000E+00 -0.56567591907E+03  0.56567591907E+03  0.00000000000E+00 0.  1.
         25    1    1    2    0    0  0.23411079068E+02 -0.21726833589E+03 -0.33518833956E+03  0.41920142102E+03  0.12500000000E+03 0.  0.
         21    1    1    2  503  502 -0.23411079068E+02  0.21726833589E+03 -0.12514096926E+03  0.25182110831E+03  0.00000000000E+00 0.  1.
<mgrwt>
<rscale>  3 0.25175108E+03</rscale>
<asrwt>0</asrwt>
<pdfrwt beam="1">  1       21 0.16207171E-01 0.25175108E+03</pdfrwt>
<pdfrwt beam="2">  1       21 0.87027064E-01 0.25175108E+03</pdfrwt>
<totfact> 0.37563584E+04</totfact>
</mgrwt>
</event>
<event>
 4    0  0.1305062E-001  0.2516480E+03  0.7546771E-02  0.1112268E+00
         21   -1    0    0  502  501  0.00000000000E+00  0.00000000000E+00  0.82351862061E+02  0.82351862061E+02  0.00000000000E+00 0. -1.
         21   -1    0    0  503  502 -0.00000000000E+00 -0.00000000000E+00 -0.11126533969E+04  0.11126533969E+04  0.00000000000E+00 0. -1.
         25    1    1    2    0    0 -0.38953486595E+02 -0.21490547547E+03 -0.16113200230E+03  0.29881475812E+03  0.12500000000E+03 0.  0.
         21    1    1    2  503  501  0.38953486595E+02  0.21490547547E+03 -0.86916953255E+03  0.89619050085E+03  0.00000000000E+00 0. -1.
<mgrwt>
<rscale>  3 0.25164804E+03</rscale>
<asrwt>0</asrwt>
<pdfrwt beam="1">  1       21 0.12669517E-01 0.25164804E+03</pdfrwt>
<pdfrwt beam="2">  1       21 0.17117745E+00 0.25164804E+03</pdfrwt>
<totfact> 0.10694286E+04</totfact>
</mgrwt>
</event>
<event>
 4    0  0.1003929E-001  0.2504350E+03  0.7546771E-02  0.1113030E+00
         21   -1    0    0  502  501  0.00000000000E+00  0.00000000000E+00  0.17899912308E+03  0.17899912308E+03  0.00000000000E+00 0.  1.
         21   -1    0    0  503  502 -0.00000000000E+00 -0.00000000000E+00 -0.34889814211E+03  0.34889814211E+03  0.00000000000E+00 0. -1.
         25    1    1    2    0    0  0.19097423396E+03 -0.10306076248E+03  0.29676481353E+01  0.25045256185E+03  0.12500000000E+03 0.  0.
         21    1    1    2  503  501 -0.19097423396E+03  0.10306076248E+03 -0.17286666716E+03  0.27744470335E+03  0.00000000000E+00 0. -1.
<mgrwt>
<rscale>  3 0.25043498E+03</rscale>
<asrwt>0</asrwt>
<pdfrwt beam="1">  1       21 0.27538327E-01 0.25043498E+03</pdfrwt>
<pdfrwt beam="2">  1       21 0.53676637E-01 0.25043498E+03</pdfrwt>
<totfact> 0.40210296E+04</totfact>
</mgrwt>
</event>
<event>
 4    0  0.1188731E-001  0.2427140E+03  0.7546771E-02  0.1117998E+00
         21   -1    0    0  503  501  0.00000000000E+00  0.00000000000E+00  0.23206358196E+03  0.23206358196E+03  0.00000000000E+00 0.  1.
         21   -1    0    0  501  502 -0.00000000000E+00 -0.00000000000E+00 -0.23304835195E+03  0.23304835195E+03  0.00000000000E+00 0.  1.
         25    1    1    2    0    0  0.93202759816E+02  0.18600631426E+03 -0.57682022719E+02  0.24947408508E+03  0.12500000000E+03 0.  0.
         21    1    1    2  503  502 -0.93202759816E+02 -0.18600631426E+03  0.56697252730E+02  0.21563784883E+03  0.00000000000E+00 0.  1.
<mgrwt>
<rscale>  3 0.24271404E+03</rscale>
<asrwt>0</asrwt>
<pdfrwt beam="1">  1       21 0.35702090E-01 0.24271404E+03</pdfrwt>
<pdfrwt beam="2">  1       21 0.35853592E-01 0.24271404E+03</pdfrwt>
<totfact> 0.55513396E+04</totfact>
</mgrwt>
</event>
<event>
 4    0  0.1480159E-001  0.2675182E+03  0.7546771E-02  0.1102708E+00
         21   -1    0    0  502  501  0.00000000000E+00  0.00000000000E+00  0.30299489107E+03  0.30299489107E+03  0.00000000000E+00 0.  1.
         21   -1    0    0  503  502 -0.00000000000E+00 -0.00000000000E+00 -0.24549363621E+03  0.24549363621E+03  0.00000000000E+00 0.  1.
         25    1    1    2    0    0  0.34089769143E+01  0.23649388398E+03  0.13492843236E+03  0.29961919188E+03  0.12500000000E+03 0.  0.
         21    1    1    2  503  501 -0.34089769143E+01 -0.23649388398E+03 -0.77427177494E+02  0.24886933539E+03  0.00000000000E+00 0.  1.
<mgrwt>
<rscale>  3 0.26751818E+03</rscale>
<asrwt>0</asrwt>
<pdfrwt beam="1">  1       21 0.46614599E-01 0.26751818E+03</pdfrwt>
<pdfrwt beam="2">  1       21 0.37768252E-01 0.26751818E+03</pdfrwt>
<totfact> 0.28729240E+04</totfact>
</mgrwt>
</event>
<event>
 4    0  0.1272447E-001  0.3985564E+03  0.7546771E-02  0.1044281E+00
         21   -1    0    0  502  501  0.00000000000E+00  0.00000000000E+00  0.45636424082E+03  0.45636424082E+03  0.00000000000E+00 0.  1.
         21   -1    0    0  503  502 -0.00000000000E+00 -0.00000000000E+00 -0.40123739140E+03  0.40123739140E+03  0.00000000000E+00 0.  1.
         25    1    1    2    0    0  0.30236057025E+03  0.22759682482E+03  0.20785237527E+03  0.44949954284E+03  0.12500000000E+03 0.  0.
         21    1    1    2  503  501 -0.30236057025E+03 -0.22759682482E+03 -0.15272552585E+03  0.40810208938E+03  0.00000000000E+00 0.  1.
<mgrwt>
<rscale>  3 0.39855643E+03</rscale>
<asrwt>0</asrwt>
<pdfrwt beam="1">  1       21 0.70209883E-01 0.39855643E+03</pdfrwt>
<pdfrwt beam="2">  1       21 0.61728829E-01 0.39855643E+03</pdfrwt>
<totfact> 0.40031359E+03</totfact>
</mgrwt>
</event>
<event>
 4    0  0.1093313E-001  0.3696934E+03  0.7546771E-02  0.1054810E+00
         21   -1    0    0  503  501  0.00000000000E+00  0.00000000000E+00  0.75222852485E+03  0.75222852485E+03  0.00000000000E+00 0.  1.
         21   -1    0    0  501  502 -0.00000000000E+00 -0.00000000000E+00 -0.33513042104E+03  0.33513042104E+03  0.00000000000E+00 0.  1.
         25    1    1    2    0    0 -0.22578156475E+03 -0.26470903072E+03  0.59199881569E+03  0.69795113275E+03  0.12500000000E+03 0.  0.
         21    1    1    2  503  502  0.22578156475E+03  0.26470903072E+03 -0.17490071188E+03  0.38940781315E+03  0.00000000000E+00 0.  1.
<mgrwt>
<rscale>  3 0.36969337E+03</rscale>
<asrwt>0</asrwt>
<pdfrwt beam="1">  1       21 0.11572746E+00 0.36969337E+03</pdfrwt>
<pdfrwt beam="2">  1       21 0.51558527E-01 0.36969337E+03</pdfrwt>
<totfact> 0.18344715E+03</totfact>
</mgrwt>
</event>
<event>
 4    0  0.1065119E-001  0.2531515E+03  0.7546771E-02  0.1111329E+00
         21   -1    0    0  502  501  0.00000000000E+00  0.00000000000E+00  0.15398444300E+03  0.15398444300E+03  0.00000000000E+00 0.  1.
         21   -1    0    0  503  502 -0.00000000000E+00 -0.00000000000E+00 -0.89465156849E+03  0.89465156849E+03  0.00000000000E+00 0.  1.
         25    1    1    2    0    0 -0.10925759814E+03  0.19111108713E+03  0.22694408546E+02  0.25416669049E+03  0.12500000000E+03 0.  0.
         21    1    1    2  503  501  0.10925759814E+03 -0.19111108713E+03 -0.76336153403E+03  0.79446932100E+03  0.00000000000E+00 0.  1.
<mgrwt>
<rscale>  3 0.25315148E+03</rscale>
<asrwt>0</asrwt>
<pdfrwt beam="1">  1       21 0.23689914E-01 0.25315148E+03</pdfrwt>
<pdfrwt beam="2">  1       21 0.13763871E+00 0.25315148E+03</pdfrwt>
<totfact> 0.60072555E+03</totfact>
</mgrwt>
</event>
<event>
 4    0  0.1453075E-001  0.2952158E+03  0.7546771E-02  0.1087657E+00
         21   -1    0    0  502  501  0.00000000000E+00  0.00000000000E+00  0.70380540517E+03  0.70380540517E+03  0.00000000000E+00 0. -1.
         21   -1    0    0  503  502 -0.00000000000E+00 -0.00000000000E+00 -0.13876836606E+03  0.13876836606E+03  0.00000000000E+00 0. -1.
         25    1    1    2    0    0  0.17670766030E+03 -0.20075303589E+03  0.47708511082E+03  0.56103705902E+03  0.12500000000E+03 0.  0.
         21    1    1    2  503  501 -0.17670766030E+03  0.20075303589E+03  0.87951928283E+02  0.28153671220E+03  0.00000000000E+00 0. -1.
<mgrwt>
<rscale>  3 0.29521582E+03</rscale>
<asrwt>0</asrwt>
<pdfrwt beam="1">  1       21 0.10827775E+00 0.29521582E+03</pdfrwt>
<pdfrwt beam="2">  1       21 0.21348980E-01 0.29521582E+03</pdfrwt>
<totfact> 0.13084340E+04</totfact>
</mgrwt>
</event>
<event>
 4    0  0.1003929E-001  0.2494908E+03  0.7546771E-02  0.1113627E+00
         21   -1    0    0  503  501  0.00000000000E+00  0.00000000000E+00  0.23241839615E+03  0.23241839615E+03  0.00000000000E+00 0. -1.
         21   -1    0    0  501  502 -0.00000000000E+00 -0.00000000000E+00 -0.33354590172E+03  0.33354590172E+03  0.00000000000E+00 0. -1.
         25    1    1    2    0    0 -0.14915774111E+03  0.15611731867E+03 -0.20820466009E+03  0.32495358038E+03  0.12500000000E+03 0.  0.
         21    1    1    2  503  502  0.14915774111E+03 -0.15611731867E+03  0.10707715452E+03  0.24101071748E+03  0.00000000000E+00 0. -1.
<mgrwt>
<rscale>  3 0.24949078E+03</rscale>
<asrwt>0</asrwt>
<pdfrwt beam="1">  1       21 0.35756677E-01 0.24949078E+03</pdfrwt>
<pdfrwt beam="2">  1       21 0.51314754E-01 0.24949078E+03</pdfrwt>
<totfact> 0.26435801E+04</totfact>
</mgrwt>
</event>
<event>
 4    0  0.1340200E-001  0.3929826E+03  0.7546771E-02  0.1046237E+00
         21   -1    0    0  503  501  0.00000000000E+00  0.00000000000E+00  0.88956625297E+03  0.88956625297E+03  0.00000000000E+00 0. -1.
         21   -1    0    0  501  502 -0.00000000000E+00 -0.00000000000E+00 -0.19906576780E+03  0.19906576780E+03  0.00000000000E+00 0. -1.
         25    1    1    2    0    0 -0.36884640678E+03  0.52560596760E+02  0.57893342108E+03  0.69971365155E+03  0.12500000000E+03 0.  0.
         21    1    1    2  503  502  0.36884640678E+03 -0.52560596760E+02  0.11156706409E+03  0.38891836922E+03  0.00000000000E+00 0. -1.
<mgrwt>
<rscale>  3 0.39298255E+03</rscale>
<asrwt>0</asrwt>
<pdfrwt beam="1">  1       21 0.13685634E+00 0.39298255E+03</pdfrwt>
<pdfrwt beam="2">  1       21 0.30625503E-01 0.39298255E+03</pdfrwt>
<totfact> 0.34428105E+03</totfact>
</mgrwt>
</event>
<event>
 4    0  0.1142431E-001  0.2423606E+03  0.7546771E-02  0.1118230E+00
         21   -1    0    0  503  501  0.00000000000E+00  0.00000000000E+00  0.73518741527E+02  0.73518741527E+02  0.00000000000E+00 0.  1.
         21   -1    0    0  501  502 -0.00000000000E+00 -0.00000000000E+00 -0.20084338322E+04  0.20084338322E+04  0.00000000000E+00 0. -1.
         25    1    1    2    0    0 -0.42828349097E+02 -0.20317328038E+03 -0.15004947748E+03  0.28504998691E+03  0.12500000000E+03 0.  0.
         21    1    1    2  503  502  0.42828349097E+02  0.20317328038E+03 -0.17848656132E+04  0.17969025868E+04  0.00000000000E+00 0. -1.
<mgrwt>
<rscale>  3 0.24236058E+03</rscale>
<asrwt>0</asrwt>
<pdfrwt beam="1">  1       21 0.11310576E-01 0.24236058E+03</pdfrwt>
<pdfrwt beam="2">  1       21 0.30898981E+00 0.24236058E+03</pdfrwt>
<totfact> 0.18651141E+03</totfact>
</mgrwt>
</event>
<event>
 4    0  0.1377560E-001  0.3529012E+03  0.7546771E-02  0.1061431E+00
         21   -1    0    0  502  501  0.00000000000E+00  0.00000000000E+00  0.26437755005E+03  0.26437755005E+03  0.00000000000E+00 0. -1.
         21   -1    0    0  503  502 -0.00000000000E+00 -0.00000000000E+00 -0.48120653659E+03  0.48120653659E+03  0.00000000000E+00 0. -1.
         25    1    1    2    0    0 -0.14683174357E+03 -0.29555825294E+03 -0.21941857951E+03  0.41555234909E+03  0.12500000000E+03 0.  0.
         21    1    1    2  503  501  0.14683174357E+03  0.29555825294E+03  0.25895929637E+01  0.33003173755E+03  0.00000000000E+00 0. -1.
<mgrwt>
<rscale>  3 0.35290118E+03</rscale>
<asrwt>0</asrwt>
<pdfrwt beam="1">  1       21 0.40673470E-01 0.35290118E+03</pdfrwt>
<pdfrwt beam="2">  1       21 0.74031774E-01 0.35290118E+03</pdfrwt>
<totfact> 0.87610105E+03</totfact>
</mgrwt>
</event>
<event>
 4    0  0.1353839E-001  0.2473691E+03  0.7546771E-02  0.1114979E+00
         21   -1    0    0  502  501  0.00000000000E+00  0.00000000000E+00  0.40984002379E+03  0.40984002379E+03  0.00000000000E+00 0.  1.
         21   -1    0    0  503  502 -0.00000000000E+00 -0.00000000000E+00 -0.14147638048E+03  0.14147638048E+03  0.00000000000E+00 0.  1.
         25    1    1    2    0    0  0.12189332641E+02  0.21311470958E+03  0.22308486098E+03  0.33310405952E+03  0.12500000000E+03 0.  0.
         21    1    1    2  503  501 -0.12189332641E+02 -0.21311470958E+03  0.45278782326E+02  0.21821234475E+03  0.00000000000E+00 0.  1.
<mgrwt>
<rscale>  3 0.24736908E+03</rscale>
<asrwt>0</asrwt>
<pdfrwt beam="1">  1       21 0.63052311E-01 0.24736908E+03</pdfrwt>
<pdfrwt beam="2">  1       21 0.21765597E-01 0.24736908E+03</pdfrwt>
<totfact> 0.44712569E+04</totfact>
</mgrwt>
</event>
<event>
 4    0  0.1003929E-001  0.2518297E+03  0.7546771E-02  0.1112154E+00
         21   -1    0    0  502  501  0.00000000000E+00  0.00000000000E+00  0.99821364206E+03  0.99821364206E+03  0.00000000000E+00 0.  1.
         21   -1    0    0  503  502 -0.00000000000E+00 -0.00000000000E+00 -0.72429034088E+02  0.72429034088E+02  0.00000000000E+00 0. -1.
         25    1    1    2    0    0 -0.56851267271E+02  0.21109505436E+03  0.74675531793E+03  0.78807467503E+03  0.12500000000E+03 0.  0.
         21    1    1    2  503  501  0.56851267271E+02 -0.21109505436E+03  0.17902929004E+03  0.28256800112E+03  0.00000000000E+00 0. -1.
<mgrwt>
<rscale>  3 0.25182968E+03</rscale>
<asrwt>0</asrwt>
<pdfrwt beam="1">  1       21 0.15357132E+00 0.25182968E+03</pdfrwt>
<pdfrwt beam="2">  1       21 0.11142929E-01 0.25182968E+03</pdfrwt>
<totfact> 0.18132203E+04</totfact>
</mgrwt>
</event>
<event>
 4    0  0.1055198E-001  0.2473179E+03  0.7546771E-02  0.1115012E+00
         21   -1    0    0  502  501  0.00000000000E+00  0.00000000000E+00  0.11690580697E+04  0.11690580697E+04  0.00000000000E+00 0.  1.
         21   -1    0    0  503  502 -0.00000000000E+00 -0.00000000000E+00 -0.10487143854E+03  0.10487143854E+03  0.00000000000E+00 0.  1.
         25    1    1    2    0    0  0.14917653627E+03  0.15260252034E+03  0.10281834828E+04  0.10575100201E+04  0.12500000000E+03 0.  0.
         21    1    1    2  503  501 -0.14917653627E+03 -0.15260252034E+03  0.36003148368E+02  0.21641948821E+03  0.00000000000E+00 0.  1.
<mgrwt>
<rscale>  3 0.24731795E+03</rscale>
<asrwt>0</asrwt>
<pdfrwt beam="1">  1       21 0.17985508E+00 0.24731795E+03</pdfrwt>
<pdfrwt beam="2">  1       21 0.16134068E-01 0.24731795E+03</pdfrwt>
<totfact> 0.60004089E+03</totfact>
</mgrwt>
</event>
<event>
 4    0  0.1003929E-001  0.2502815E+03  0.7546771E-02  0.1113127E+00
         21   -1    0    0  503  501  0.00000000000E+00  0.00000000000E+00  0.37942221082E+02  0.37942221082E+02  0.00000000000E+00 0.  1.
         21   -1    0    0  501  502 -0.00000000000E+00 -0.00000000000E+00 -0.15783640926E+04  0.15783640926E+04  0.00000000000E+00 0. -1.
         25    1    1    2    0    0 -0.16458520492E+03  0.14116500480E+03 -0.57973537379E+03  0.63145383987E+03  0.12500000000E+03 0.  0.
         21    1    1    2  503  502  0.16458520492E+03 -0.14116500480E+03 -0.96068649769E+03  0.98485247378E+03  0.00000000000E+00 0. -1.
<mgrwt>
<rscale>  3 0.25028154E+03</rscale>
<asrwt>0</asrwt>
<pdfrwt beam="1">  1       21 0.58372646E-02 0.25028154E+03</pdfrwt>
<pdfrwt beam="2">  1       21 0.24282525E+00 0.25028154E+03</pdfrwt>
<totfact> 0.14467928E+04</totfact>
</mgrwt>
</event>
<event>
 4    0  0.1144996E-001  0.4792186E+03  0.7546771E-02  0.1019350E+00
         21   -1    0    0  502  501  0.00000000000E+00  0.00000000000E+00  0.41690034135E+03  0.41690034135E+03  0.00000000000E+00 0.  1.
         21   -1    0    0  503  502 -0.00000000000E+00 -0.00000000000E+00 -0.63554063648E+03  0.63554063648E+03  0.00000000000E+00 0.  1.
         25    1    1    2    0    0 -0.24014943776E+03  0.39541585141E+03  0.10149281489E+03  0.48984818003E+03  0.12500000000E+03 0.  0.
         21    1    1    2  503  501  0.24014943776E+03 -0.39541585141E+03 -0.32013311002E+03  0.56259279780E+03  0.00000000000E+00 0.  1.
<mgrwt>
<rscale>  3 0.47921858E+03</rscale>
<asrwt>0</asrwt>
<pdfrwt beam="1">  1       21 0.64138514E-01 0.47921858E+03</pdfrwt>
<pdfrwt beam="2">  1       21 0.97775482E-01 0.47921858E+03</pdfrwt>
<totfact> 0.16512949E+03</totfact>
</mgrwt>
</event>
<event>
 4    0  0.1004205E-001  0.2707278E+03  0.7546771E-02  0.1100864E+00
         21   -1    0    0  503  501  0.00000000000E+00  0.00000000000E+00  0.22179166391E+04  0.22179166391E+04  0.00000000000E+00 0. -1.
         21   -1    0    0  501  502 -0.00000000000E+00 -0.00000000000E+00 -0.31418803388E+02  0.31418803388E+02  0.00000000000E+00 0. -1.
         25    1    1    2    0    0  0.17160631863E+03 -0.16798756155E+03  0.14378519484E+04  0.14631171433E+04  0.12500000000E+03 0.  0.
         21    1    1    2  503  502 -0.17160631863E+03  0.16798756155E+03  0.74864588732E+03  0.78621829922E+03  0.00000000000E+00 0. -1.
<mgrwt>
<rscale>  3 0.27072781E+03</rscale>
<asrwt>0</asrwt>
<pdfrwt beam="1">  1       21 0.34121782E+00 0.27072781E+03</pdfrwt>
<pdfrwt beam="2">  1       21 0.48336638E-02 0.27072781E+03</pdfrwt>
<totfact> 0.51686825E+03</totfact>
</mgrwt>
</event>
<event>
 4    0  0.1495499E-001  0.2472550E+03  0.7546771E-02  0.1115052E+00
         21   -1    0    0  502  501  0.00000000000E+00  0.00000000000E+00  0.32994291278E+03  0.32994291278E+03  0.00000000000E+00 0. -1.
         21   -1    0    0  503  502 -0.00000000000E+00 -0.00000000000E+00 -0.27581263703E+03  0.27581263703E+03  0.00000000000E+00 0. -1.
         25    1    1    2    0    0 -0.21276949333E+03 -0.15466012503E+02  0.22355277511E+03  0.33333301381E+03  0.12500000000E+03 0.  0.
         21    1    1    2  503  501  0.21276949333E+03  0.15466012503E+02 -0.16942249935E+03  0.27242253600E+03  0.00000000000E+00 0. -1.
<mgrwt>
<rscale>  3 0.24725504E+03</rscale>
<asrwt>0</asrwt>
<pdfrwt beam="1">  1       21 0.50760448E-01 0.24725504E+03</pdfrwt>
<pdfrwt beam="2">  1       21 0.42432714E-01 0.24725504E+03</pdfrwt>
<totfact> 0.19142788E+04</totfact>
</mgrwt>
</event>
<event>
 4    0  0.1078348E-001  0.2431184E+03  0.7546771E-02  0.1117733E+00
         21   -1    0    0  503  501  0.00000000000E+00  0.00000000000E+00  0.21547967672E+03  0.21547967672E+03  0.00000000000E+00 0.  1.
         21   -1    0    0  501  502 -0.00000000000E+00 -0.00000000000E+00 -0.34426504017E+03  0.34426504017E+03  0.00000000000E+00 0. -1.
         25    1    1    2    0    0  0.15704591221E+03  0.13717915839E+03  0.88372254381E+02  0.25868164871E+03  0.12500000000E+03 0.  0.
         21    1    1    2  503  502 -0.15704591221E+03 -0.13717915839E+03 -0.21715761783E+03  0.30106306818E+03  0.00000000000E+00 0. -1.
<mgrwt>
<rscale>  3 0.24311837E+03</rscale>
<asrwt>0</asrwt>
<pdfrwt beam="1">  1       21 0.33150720E-01 0.24311837E+03</pdfrwt>
<pdfrwt beam="2">  1       21 0.52963852E-01 0.24311837E+03</pdfrwt>
<totfact> 0.28836413E+04</totfact>
</mgrwt>
</event>
<event>
 4    0  0.1144971E-001  0.2889411E+03  0.7546771E-02  0.1090903E+00
         21   -1    0    0  502  501  0.00000000000E+00  0.00000000000E+00  0.14204555419E+04  0.14204555419E+04  0.00000000000E+00 0.  1.
         21   -1    0    0  503  502 -0.00000000000E+00 -0.00000000000E+00 -0.53549407016E+02  0.53549407016E+02  0.00000000000E+00 0.  1.
         25    1    1    2    0    0  0.54781485852E+02  0.25467810209E+03  0.78349917401E+03  0.83507957858E+03  0.12500000000E+03 0.  0.
         21    1    1    2  503  501 -0.54781485852E+02 -0.25467810209E+03  0.58340696091E+03  0.63892537038E+03  0.00000000000E+00 0.  1.
<mgrwt>
<rscale>  3 0.28894108E+03</rscale>
<asrwt>0</asrwt>
<pdfrwt beam="1">  1       21 0.21853159E+00 0.28894108E+03</pdfrwt>
<pdfrwt beam="2">  1       21 0.82383714E-02 0.28894108E+03</pdfrwt>
<totfact> 0.10925846E+04</totfact>
</mgrwt>
</event>
<event>
 4    0  0.1448649E-001  0.2424427E+03  0.7546771E-02  0.1118176E+00
         21   -1    0    0  502  501  0.00000000000E+00  0.00000000000E+00  0.17071055804E+03  0.17071055804E+03  0.00000000000E+00 0. -1.
         21   -1    0    0  503  502 -0.00000000000E+00 -0.00000000000E+00 -0.29721773195E+03  0.29721773195E+03  0.00000000000E+00 0. -1.
         25    1    1    2    0    0  0.16017904330E+03  0.13227291438E+03 -0.59249450401E+02  0.24957753738E+03  0.12500000000E+03 0.  0.
         21    1    1    2  503  501 -0.16017904330E+03 -0.13227291438E+03 -0.67257723510E+02  0.21835075261E+03  0.00000000000E+00 0. -1.
<mgrwt>
<rscale>  3 0.24244267E+03</rscale>
<asrwt>0</asrwt>
<pdfrwt beam="1">  1       21 0.26263163E-01 0.24244267E+03</pdfrwt>
<pdfrwt beam="2">  1       21 0.45725805E-01 0.24244267E+03</pdfrwt>
<totfact> 0.61866976E+04</totfact>
</mgrwt>
</event>
<event>
 4    0  0.1716999E-001  0.3743950E+03  0.7546771E-02  0.1053025E+00
         21   -1    0    0  503  501  0.00000000000E+00  0.00000000000E+00  0.65271801723E+03  0.65271801723E+03  0.00000000000E+00 0. -1.
         21   -1    0    0  501  502 -0.00000000000E+00 -0.00000000000E+00 -0.97220141979E+03  0.97220141979E+03  0.00000000000E+00 0.  1.
         25    1    1    2    0    0 -0.33480820777E+03  0.11157987205E+03  0.56207113579E+03  0.67534847710E+03  0.12500000000E+03 0.  0.
         21    1    1    2  503  502  0.33480820777E+03 -0.11157987205E+03 -0.88155453835E+03  0.94957095992E+03  0.00000000000E+00 0.  1.
<mgrwt>
<rscale>  3 0.37439498E+03</rscale>
<asrwt>0</asrwt>
<pdfrwt beam="1">  1       21 0.10041816E+00 0.37439498E+03</pdfrwt>
<pdfrwt beam="2">  1       21 0.14956945E+00 0.37439498E+03</pdfrwt>
<totfact> 0.20858631E+02</totfact>
</mgrwt>
</event>
<event>
 4    0  0.1551614E-001  0.2503025E+03  0.7546771E-02  0.1113114E+00
         21   -1    0    0  502  501  0.00000000000E+00  0.00000000000E+00  0.15429717393E+03  0.15429717393E+03  0.00000000000E+00 0. -1.
         21   -1    0    0  503  502 -0.00000000000E+00 -0.00000000000E+00 -0.38026561236E+03  0.38026561236E+03  0.00000000000E+00 0. -1.
         25    1    1    2    0    0 -0.12783974566E+03 -0.17516660224E+03 -0.49893948837E+02  0.25522685055E+03  0.12500000000E+03 0.  0.
         21    1    1    2  503  501  0.12783974566E+03  0.17516660224E+03 -0.17607448959E+03  0.27933593574E+03  0.00000000000E+00 0. -1.
<mgrwt>
<rscale>  3 0.25030250E+03</rscale>
<asrwt>0</asrwt>
<pdfrwt beam="1">  1       21 0.23738027E-01 0.25030250E+03</pdfrwt>
<pdfrwt beam="2">  1       21 0.58502402E-01 0.25030250E+03</pdfrwt>
<totfact> 0.44533130E+04</totfact>
</mgrwt>
</event>
<event>
 4    0  0.1434660E-001  0.2806168E+03  0.7546771E-02  0.1095353E+00
         21   -1    0    0  503  501  0.00000000000E+00  0.00000000000E+00  0.70020514740E+03  0.70020514740E+03  0.00000000000E+00 0. -1.
         21   -1    0    0  501  502 -0.00000000000E+00 -0.00000000000E+00 -0.10328911353E+03  0.10328911353E+03  0.00000000000E+00 0. -1.
         25    1    1    2    0    0 -0.10881800083E+03 -0.22644964094E+03  0.37435612547E+03  0.46785500517E+03  0.12500000000E+03 0.  0.
         21    1    1    2  503  502  0.10881800083E+03  0.22644964094E+03  0.22255990840E+03  0.33563925577E+03  0.00000000000E+00 0. -1.
<mgrwt>
<rscale>  3 0.28061682E+03</rscale>
<asrwt>0</asrwt>
<pdfrwt beam="1">  1       21 0.10772387E+00 0.28061682E+03</pdfrwt>
<pdfrwt beam="2">  1       21 0.15890633E-01 0.28061682E+03</pdfrwt>
<totfact> 0.23168844E+04</totfact>
</mgrwt>
</event>
<event>
 4    0  0.1215868E-001  0.2415023E+03  0.7546771E-02  0.1118796E+00
         21   -1    0    0  502  501  0.00000000000E+00  0.00000000000E+00  0.12709059113E+04  0.12709059113E+04  0.00000000000E+00 0.  1.
         21   -1    0    0  503  502 -0.00000000000E+00 -0.00000000000E+00 -0.47549846629E+02  0.47549846629E+02  0.00000000000E+00 0.  1.
         25    1    1    2    0    0 -0.20391089615E+03  0.33447022545E+02  0.92169290207E+03  0.95280699127E+03  0.12500000000E+03 0.  0.
         21    1    1    2  503  501  0.20391089615E+03 -0.33447022545E+02  0.30166316258E+03  0.36564876664E+03  0.00000000000E+00 0.  1.
<mgrwt>
<rscale>  3 0.24150229E+03</rscale>
<asrwt>0</asrwt>
<pdfrwt beam="1">  1       21 0.19552396E+00 0.24150229E+03</pdfrwt>
<pdfrwt beam="2">  1       21 0.73153620E-02 0.24150229E+03</pdfrwt>
<totfact> 0.19444106E+04</totfact>
</mgrwt>
</event>
<event>
 4    0  0.1373900E-001  0.2851087E+03  0.7546771E-02  0.1092931E+00
         21   -1    0    0  502  501  0.00000000000E+00  0.00000000000E+00  0.10415623901E+03  0.10415623901E+03  0.00000000000E+00 0.  1.
         21   -1    0    0  503  502 -0.00000000000E+00 -0.00000000000E+00 -0.83577027282E+03  0.83577027282E+03  0.00000000000E+00 0.  1.
         25    1    1    2    0    0 -0.47391203511E+02  0.25182540626E+03 -0.19543222688E+03  0.34565982803E+03  0.12500000000E+03 0.  0.
         21    1    1    2  503  501  0.47391203511E+02 -0.25182540626E+03 -0.53618180692E+03  0.59426668381E+03  0.00000000000E+00 0.  1.
<mgrwt>
<rscale>  3 0.28510868E+03</rscale>
<asrwt>0</asrwt>
<pdfrwt beam="1">  1       21 0.16024037E-01 0.28510868E+03</pdfrwt>
<pdfrwt beam="2">  1       21 0.12858004E+00 0.28510868E+03</pdfrwt>
<totfact> 0.14649389E+04</totfact>
</mgrwt>
</event>
<event>
 4    0  0.1042364E-001  0.3454288E+03  0.7546771E-02  0.1064507E+00
         21   -1    0    0  503  501  0.00000000000E+00  0.00000000000E+00  0.31324768087E+03  0.31324768087E+03  0.00000000000E+00 0.  1.
         21   -1    0    0  501  502 -0.00000000000E+00 -0.00000000000E+00 -0.47193804011E+03  0.47193804011E+03  0.00000000000E+00 0. -1.
         25    1    1    2    0    0 -0.76797831991E+02 -0.31272692817E+03  0.11344158036E+03  0.36357946966E+03  0.12500000000E+03 0.  0.
         21    1    1    2  503  502  0.76797831991E+02  0.31272692817E+03 -0.27213193960E+03  0.42160625132E+03  0.00000000000E+00 0. -1.
<mgrwt>
<rscale>  3 0.34542878E+03</rscale>
<asrwt>0</asrwt>
<pdfrwt beam="1">  1       21 0.48191951E-01 0.34542878E+03</pdfrwt>
<pdfrwt beam="2">  1       21 0.72605852E-01 0.34542878E+03</pdfrwt>
<totfact> 0.64538508E+03</totfact>
</mgrwt>
</event>
<event>
 4    0  0.1368650E-001  0.2537808E+03  0.7546771E-02  0.1110938E+00
         21   -1    0    0  502  501  0.00000000000E+00  0.00000000000E+00  0.20987105198E+03  0.20987105198E+03  0.00000000000E+00 0.  1.
         21   -1    0    0  503  502 -0.00000000000E+00 -0.00000000000E+00 -0.27527235292E+03  0.27527235292E+03  0.00000000000E+00 0.  1.
         25    1    1    2    0    0  0.21435058022E+03  0.53230848795E+02  0.34333893429E+01  0.25380402413E+03  0.12500000000E+03 0.  0.
         21    1    1    2  503  501 -0.21435058022E+03 -0.53230848795E+02 -0.68834690287E+02  0.23133938076E+03  0.00000000000E+00 0.  1.
<mgrwt>
<rscale>  3 0.25378080E+03</rscale>
<asrwt>0</asrwt>
<pdfrwt beam="1">  1       21 0.32287854E-01 0.25378080E+03</pdfrwt>
<pdfrwt beam="2">  1       21 0.42349593E-01 0.25378080E+03</pdfrwt>
<totfact> 0.48183680E+04</totfact>
</mgrwt>
</event>
<event>
 4    0  0.1037454E-001  0.2728120E+03  0.7546771E-02  0.1099681E+00
         21   -1    0    0  502  501  0.00000000000E+00  0.00000000000E+00  0.10323156240E+03  0.10323156240E+03  0.00000000000E+00 0. -1.
         21   -1    0    0  503  502 -0.00000000000E+00 -0.00000000000E+00 -0.14645082991E+04  0.14645082991E+04  0.00000000000E+00 0. -1.
         25    1    1    2    0    0  0.76470128967E+02  0.23011669590E+03 -0.11160305824E+03  0.29475687772E+03  0.12500000000E+03 0.  0.
         21    1    1    2  503  501 -0.76470128967E+02 -0.23011669590E+03 -0.12496736785E+04  0.12729829838E+04  0.00000000000E+00 0. -1.
<mgrwt>
<rscale>  3 0.27281198E+03</rscale>
<asrwt>0</asrwt>
<pdfrwt beam="1">  1       21 0.15881779E-01 0.27281198E+03</pdfrwt>
<pdfrwt beam="2">  1       21 0.22530897E+00 0.27281198E+03</pdfrwt>
<totfact> 0.30749627E+03</totfact>
</mgrwt>
</event>
<event>
 4    0  0.1256762E-001  0.3547428E+03  0.7546771E-02  0.1060685E+00
         21   -1    0    0  503  501  0.00000000000E+00  0.00000000000E+00  0.23373651673E+03  0.23373651673E+03  0.00000000000E+00 0.  1.
         21   -1    0    0  501  502 -0.00000000000E+00 -0.00000000000E+00 -0.58764590122E+03  0.58764590122E+03  0.00000000000E+00 0.  1.
         25    1    1    2    0    0  0.17879630445E+03 -0.27973079766E+03 -0.27500242742E+02  0.35580711206E+03  0.12500000000E+03 0.  0.
         21    1    1    2  503  502 -0.17879630445E+03  0.27973079766E+03 -0.32640914174E+03  0.46557530589E+03  0.00000000000E+00 0.  1.
<mgrwt>
<rscale>  3 0.35474278E+03</rscale>
<asrwt>0</asrwt>
<pdfrwt beam="1">  1       21 0.35959464E-01 0.35474278E+03</pdfrwt>
<pdfrwt beam="2">  1       21 0.90407062E-01 0.35474278E+03</pdfrwt>
<totfact> 0.70941680E+03</totfact>
</mgrwt>
</event>
<event>
 4    0  0.1003929E-001  0.2646835E+03  0.7546771E-02  0.1104362E+00
         21   -1    0    0  503  501  0.00000000000E+00  0.00000000000E+00  0.13055348924E+04  0.13055348924E+04  0.00000000000E+00 0. -1.
         21   -1    0    0  501  502 -0.00000000000E+00 -0.00000000000E+00 -0.39625371172E+03  0.39625371172E+03  0.00000000000E+00 0. -1.
         25    1    1    2    0    0 -0.44185690837E+02 -0.22908509994E+03  0.12561633795E+04  0.12837460007E+04  0.12500000000E+03 0.  0.
         21    1    1    2  503  502  0.44185690837E+02  0.22908509994E+03 -0.34688219890E+03  0.41804260334E+03  0.00000000000E+00 0. -1.
<mgrwt>
<rscale>  3 0.26468351E+03</rscale>
<asrwt>0</asrwt>
<pdfrwt beam="1">  1       21 0.20085152E+00 0.26468351E+03</pdfrwt>
<pdfrwt beam="2">  1       21 0.60962110E-01 0.26468351E+03</pdfrwt>
<totfact> 0.30678309E+02</totfact>
</mgrwt>
</event>
<event>
 4    0  0.1004327E-001  0.2637582E+03  0.7546771E-02  0.1104906E+00
         21   -1    0    0  502  501  0.00000000000E+00  0.00000000000E+00  0.74441025188E+03  0.74441025188E+03  0.00000000000E+00 0.  1.
         21   -1    0    0  503  502 -0.00000000000E+00 -0.00000000000E+00 -0.36819827907E+03  0.36819827907E+03  0.00000000000E+00 0.  1.
         25    1    1    2    0    0 -0.17484551736E+03  0.15288049574E+03  0.68048976562E+03  0.72981828014E+03  0.12500000000E+03 0.  0.
         21    1    1    2  503  501  0.17484551736E+03 -0.15288049574E+03 -0.30427779281E+03  0.38279025081E+03  0.00000000000E+00 0.  1.
<mgrwt>
<rscale>  3 0.26375822E+03</rscale>
<asrwt>0</asrwt>
<pdfrwt beam="1">  1       21 0.11452465E+00 0.26375822E+03</pdfrwt>
<pdfrwt beam="2">  1       21 0.56645890E-01 0.26375822E+03</pdfrwt>
<totfact> 0.16367800E+03</totfact>
</mgrwt>
</event>
<event>
 4    0  0.1003929E-001  0.3709291E+03  0.7546771E-02  0.1054338E+00
         21   -1    0    0  503  501  0.00000000000E+00  0.00000000000E+00  0.22474681195E+03  0.22474681195E+03  0.00000000000E+00 0.  1.
         21   -1    0    0  501  502 -0.00000000000E+00 -0.00000000000E+00 -0.60857643950E+03  0.60857643950E+03  0.00000000000E+00 0. -1.
         25    1    1    2    0    0  0.14409976231E+03 -0.31811733833E+03 -0.10238928584E+03  0.38480118022E+03  0.12500000000E+03 0.  0.
         21    1    1    2  503  502 -0.14409976231E+03  0.31811733833E+03 -0.28144034170E+03  0.44852207123E+03  0.00000000000E+00 0. -1.
<mgrwt>
<rscale>  3 0.37092908E+03</rscale>
<asrwt>0</asrwt>
<pdfrwt beam="1">  1       21 0.34576433E-01 0.37092908E+03</pdfrwt>
<pdfrwt beam="2">  1       21 0.93627143E-01 0.37092908E+03</pdfrwt>
<totfact> 0.70225381E+03</totfact>
</mgrwt>
</event>
<event>
 4    0  0.1003929E-001  0.4774538E+03  0.7546771E-02  0.1019837E+00
         21   -1    0    0  502  501  0.00000000000E+00  0.00000000000E+00  0.11368401495E+03  0.11368401495E+03  0.00000000000E+00 0. -1.
         21   -1    0    0  503  502 -0.00000000000E+00 -0.00000000000E+00 -0.19732617603E+04  0.19732617603E+04  0.00000000000E+00 0. -1.
         25    1    1    2    0    0 -0.32182948377E+02  0.45967530869E+03 -0.10895499041E+04  0.11895718243E+04  0.12500000000E+03 0.  0.
         21    1    1    2  503  501  0.32182948377E+02 -0.45967530869E+03 -0.77002784129E+03  0.89737395101E+03  0.00000000000E+00 0. -1.
<mgrwt>
<rscale>  3 0.47745380E+03</rscale>
<asrwt>0</asrwt>
<pdfrwt beam="1">  1       21 0.17489849E-01 0.47745380E+03</pdfrwt>
<pdfrwt beam="2">  1       21 0.30357872E+00 0.47745380E+03</pdfrwt>
<totfact> 0.76233692E+02</totfact>
</mgrwt>
</event>
<event>
 4    0  0.1408308E-001  0.2403881E+03  0.7546771E-02  0.1119535E+00
         21   -1    0    0  503  501  0.00000000000E+00  0.00000000000E+00  0.16296064976E+03  0.16296064976E+03  0.00000000000E+00 0.  1.
         21   -1    0    0  501  502 -0.00000000000E+00 -0.00000000000E+00 -0.39990670727E+03  0.39990670727E+03  0.00000000000E+00 0.  1.
         25    1    1    2    0    0  0.56329941659E+02  0.19745476469E+03  0.11364867466E+02  0.24065661561E+03  0.12500000000E+03 0.  0.
         21    1    1    2  503  502 -0.56329941659E+02 -0.19745476469E+03 -0.24831092497E+03  0.32221074142E+03  0.00000000000E+00 0.  1.
<mgrwt>
<rscale>  3 0.24038812E+03</rscale>
<asrwt>0</asrwt>
<pdfrwt beam="1">  1       21 0.25070870E-01 0.24038812E+03</pdfrwt>
<pdfrwt beam="2">  1       21 0.61524107E-01 0.24038812E+03</pdfrwt>
<totfact> 0.36125609E+04</totfact>
</mgrwt>
</event>
<event>
 4    0  0.1561523E-001  0.2373018E+03  0.7546771E-02  0.1121603E+00
         21   -1    0    0  502  501  0.00000000000E+00  0.00000000000E+00  0.29416137234E+03  0.29416137234E+03  0.00000000000E+00 0. -1.
         21   -1    0    0  503  502 -0.00000000000E+00 -0.00000000000E+00 -0.18680389486E+03  0.18680389486E+03  0.00000000000E+00 0. -1.
         25    1    1    2    0    0  0.13831037341E+03 -0.14682426892E+03  0.14164544957E+03  0.27636128296E+03  0.12500000000E+03 0.  0.
         21    1    1    2  503  501 -0.13831037341E+03  0.14682426892E+03 -0.34287972093E+02  0.20460398424E+03  0.00000000000E+00 0. -1.
<mgrwt>
<rscale>  3 0.23730176E+03</rscale>
<asrwt>0</asrwt>
<pdfrwt beam="1">  1       21 0.45255596E-01 0.23730176E+03</pdfrwt>
<pdfrwt beam="2">  1       21 0.28739061E-01 0.23730176E+03</pdfrwt>
<totfact> 0.53179386E+04</totfact>
</mgrwt>
</event>
<event>
 4    0  0.1111764E-001  0.3450532E+03  0.7546771E-02  0.1064664E+00
         21   -1    0    0  502  501  0.00000000000E+00  0.00000000000E+00  0.40167653109E+03  0.40167653109E+03  0.00000000000E+00 0. -1.
         21   -1    0    0  503  502 -0.00000000000E+00 -0.00000000000E+00 -0.36993269333E+03  0.36993269333E+03  0.00000000000E+00 0.  1.
         25    1    1    2    0    0 -0.30236366745E+03 -0.10960333481E+03  0.20996486199E+03  0.40391449796E+03  0.12500000000E+03 0.  0.
         21    1    1    2  503  501  0.30236366745E+03  0.10960333481E+03 -0.17822102422E+03  0.36769472646E+03  0.00000000000E+00 0.  1.
<mgrwt>
<rscale>  3 0.34505315E+03</rscale>
<asrwt>0</asrwt>
<pdfrwt beam="1">  1       21 0.61796390E-01 0.34505315E+03</pdfrwt>
<pdfrwt beam="2">  1       21 0.56912722E-01 0.34505315E+03</pdfrwt>
<totfact> 0.64788224E+03</totfact>
</mgrwt>
</event>
<event>
 4    0  0.1381587E-001  0.3755202E+03  0.7546771E-02  0.1052602E+00
         21   -1    0    0  503  501  0.00000000000E+00  0.00000000000E+00  0.24996216636E+03  0.24996216636E+03  0.00000000000E+00 0.  1.
         21   -1    0    0  501  502 -0.00000000000E+00 -0.00000000000E+00 -0.10955305927E+04  0.10955305927E+04  0.00000000000E+00 0. -1.
         25    1    1    2    0    0 -0.20080428300E+03  0.29166425995E+03  0.53398894367E+02  0.37929782826E+03  0.12500000000E+03 0.  0.
         21    1    1    2  503  502  0.20080428300E+03 -0.29166425995E+03 -0.89896732069E+03  0.96619493078E+03  0.00000000000E+00 0. -1.
<mgrwt>
<rscale>  3 0.37552017E+03</rscale>
<asrwt>0</asrwt>
<pdfrwt beam="1">  1       21 0.38455717E-01 0.37552017E+03</pdfrwt>
<pdfrwt beam="2">  1       21 0.16854317E+00 0.37552017E+03</pdfrwt>
<totfact> 0.12461565E+03</totfact>
</mgrwt>
</event>
<event>
 4    0  0.1457524E-001  0.2543879E+03  0.7546771E-02  0.1110563E+00
         21   -1    0    0  502  501  0.00000000000E+00  0.00000000000E+00  0.28819398307E+03  0.28819398307E+03  0.00000000000E+00 0.  1.
         21   -1    0    0  503  502 -0.00000000000E+00 -0.00000000000E+00 -0.22101868248E+03  0.22101868248E+03  0.00000000000E+00 0.  1.
         25    1    1    2    0    0  0.13689606122E+03 -0.17420582621E+03  0.12026251108E+03  0.28138278738E+03  0.12500000000E+03 0.  0.
         21    1    1    2  503  501 -0.13689606122E+03  0.17420582621E+03 -0.53087210491E+02  0.22782987816E+03  0.00000000000E+00 0.  1.
<mgrwt>
<rscale>  3 0.25438790E+03</rscale>
<asrwt>0</asrwt>
<pdfrwt beam="1">  1       21 0.44337536E-01 0.25438790E+03</pdfrwt>
<pdfrwt beam="2">  1       21 0.34002874E-01 0.25438790E+03</pdfrwt>
<totfact> 0.39555468E+04</totfact>
</mgrwt>
</event>
<event>
 4    0  0.1146866E-001  0.3421678E+03  0.7546771E-02  0.1065876E+00
         21   -1    0    0  503  501  0.00000000000E+00  0.00000000000E+00  0.78010566834E+03  0.78010566834E+03  0.00000000000E+00 0. -1.
         21   -1    0    0  501  502 -0.00000000000E+00 -0.00000000000E+00 -0.37027937336E+03  0.37027937336E+03  0.00000000000E+00 0. -1.
         25    1    1    2    0    0  0.94450925880E+02  0.30419211699E+03  0.66128892577E+03  0.74456824051E+03  0.12500000000E+03 0.  0.
         21    1    1    2  503  502 -0.94450925880E+02 -0.30419211699E+03 -0.25146263079E+03  0.40581680119E+03  0.00000000000E+00 0. -1.
<mgrwt>
<rscale>  3 0.34216783E+03</rscale>
<asrwt>0</asrwt>
<pdfrwt beam="1">  1       21 0.12001626E+00 0.34216783E+03</pdfrwt>
<pdfrwt beam="2">  1       21 0.56966058E-01 0.34216783E+03</pdfrwt>
<totfact> 0.13713868E+03</totfact>
</mgrwt>
</event>
<event>
 4    0  0.1128001E-001  0.4039110E+03  0.7546771E-02  0.1042434E+00
         21   -1    0    0  503  501  0.00000000000E+00  0.00000000000E+00  0.58572427551E+03  0.58572427551E+03  0.00000000000E+00 0. -1.
         21   -1    0    0  501  502 -0.00000000000E+00 -0.00000000000E+00 -0.35281814261E+03  0.35281814261E+03  0.00000000000E+00 0.  1.
         25    1    1    2    0    0 -0.40675456443E+02  0.38192227202E+03  0.35268244433E+03  0.53621732643E+03  0.12500000000E+03 0.  0.
         21    1    1    2  503  502  0.40675456443E+02 -0.38192227202E+03 -0.11977631143E+03  0.40232509169E+03  0.00000000000E+00 0.  1.
<mgrwt>
<rscale>  3 0.40391102E+03</rscale>
<asrwt>0</asrwt>
<pdfrwt beam="1">  1       21 0.90111427E-01 0.40391102E+03</pdfrwt>
<pdfrwt beam="2">  1       21 0.54279714E-01 0.40391102E+03</pdfrwt>
<totfact> 0.29734735E+03</totfact>
</mgrwt>
</event>
<event>
 4    0  0.1362065E-001  0.3276664E+03  0.7546771E-02  0.1072174E+00
         21   -1    0    0  503  501  0.00000000000E+00  0.00000000000E+00  0.18853283337E+03  0.18853283337E+03  0.00000000000E+00 0.  1.
         21   -1    0    0  501  502 -0.00000000000E+00 -0.00000000000E+00 -0.53927248763E+03  0.53927248763E+03  0.00000000000E+00 0.  1.
         25    1    1    2    0    0 -0.12985600594E+03 -0.27363786117E+03 -0.12775777757E+03  0.35169206854E+03  0.12500000000E+03 0.  0.
         21    1    1    2  503  502  0.12985600594E+03  0.27363786117E+03 -0.22298187669E+03  0.37611325246E+03  0.00000000000E+00 0.  1.
<mgrwt>
<rscale>  3 0.32766639E+03</rscale>
<asrwt>0</asrwt>
<pdfrwt beam="1">  1       21 0.29005052E-01 0.32766639E+03</pdfrwt>
<pdfrwt beam="2">  1       21 0.82964997E-01 0.32766639E+03</pdfrwt>
<totfact> 0.13446481E+04</totfact>
</mgrwt>
</event>
<event>
 4    0  0.1479752E-001  0.2576297E+03  0.7546771E-02  0.1108576E+00
         21   -1    0    0  503  501  0.00000000000E+00  0.00000000000E+00  0.30622162055E+03  0.30622162055E+03  0.00000000000E+00 0. -1.
         21   -1    0    0  501  502 -0.00000000000E+00 -0.00000000000E+00 -0.22344237598E+03  0.22344237598E+03  0.00000000000E+00 0. -1.
         25    1    1    2    0    0 -0.17794457030E+03  0.13814414603E+03  0.14542763888E+03  0.29584163556E+03  0.12500000000E+03 0.  0.
         21    1    1    2  503  502  0.17794457030E+03 -0.13814414603E+03 -0.62648394301E+02  0.23382236097E+03  0.00000000000E+00 0. -1.
<mgrwt>
<rscale>  3 0.25762972E+03</rscale>
<asrwt>0</asrwt>
<pdfrwt beam="1">  1       21 0.47111019E-01 0.25762972E+03</pdfrwt>
<pdfrwt beam="2">  1       21 0.34375750E-01 0.25762972E+03</pdfrwt>
<totfact> 0.34085727E+04</totfact>
</mgrwt>
</event>
<event>
 4    0  0.1921663E-001  0.2427887E+03  0.7546771E-02  0.1117949E+00
         21   -1    0    0  503  501  0.00000000000E+00  0.00000000000E+00  0.19261787383E+04  0.19261787383E+04  0.00000000000E+00 0. -1.
         21   -1    0    0  501  502 -0.00000000000E+00 -0.00000000000E+00 -0.24685344510E+03  0.24685344510E+03  0.00000000000E+00 0.  1.
         25    1    1    2    0    0 -0.66933259712E+02  0.19708194310E+03  0.18730320148E+04  0.18887020099E+04  0.12500000000E+03 0.  0.
         21    1    1    2  503  502  0.66933259712E+02 -0.19708194310E+03 -0.19370672165E+03  0.28433017350E+03  0.00000000000E+00 0.  1.
<mgrwt>
<rscale>  3 0.24278870E+03</rscale>
<asrwt>0</asrwt>
<pdfrwt beam="1">  1       21 0.29633518E+00 0.24278870E+03</pdfrwt>
<pdfrwt beam="2">  1       21 0.37977454E-01 0.24278870E+03</pdfrwt>
<totfact> 0.22373826E+02</totfact>
</mgrwt>
</event>
<event>
 4    0  0.1398499E-001  0.2636539E+03  0.7546771E-02  0.1104968E+00
         21   -1    0    0  503  501  0.00000000000E+00  0.00000000000E+00  0.56230310022E+03  0.56230310022E+03  0.00000000000E+00 0.  1.
         21   -1    0    0  501  502 -0.00000000000E+00 -0.00000000000E+00 -0.14829807008E+03  0.14829807008E+03  0.00000000000E+00 0.  1.
         25    1    1    2    0    0  0.15495092081E+03 -0.17285430141E+03  0.39865803316E+03  0.47795567240E+03  0.12500000000E+03 0.  0.
         21    1    1    2  503  502 -0.15495092081E+03  0.17285430141E+03  0.15346996988E+02  0.23264549790E+03  0.00000000000E+00 0.  1.
<mgrwt>
<rscale>  3 0.26365393E+03</rscale>
<asrwt>0</asrwt>
<pdfrwt beam="1">  1       21 0.86508168E-01 0.26365393E+03</pdfrwt>
<pdfrwt beam="2">  1       21 0.22815088E-01 0.26365393E+03</pdfrwt>
<totfact> 0.19961038E+04</totfact>
</mgrwt>
</event>
<event>
 4    0  0.1055407E-001  0.4755211E+03  0.7546771E-02  0.1020373E+00
         21   -1    0    0  503  501  0.00000000000E+00  0.00000000000E+00  0.12215995733E+03  0.12215995733E+03  0.00000000000E+00 0.  1.
         21   -1    0    0  501  502 -0.00000000000E+00 -0.00000000000E+00 -0.18626761335E+04  0.18626761335E+04  0.00000000000E+00 0.  1.
         25    1    1    2    0    0 -0.43964877563E+03  0.13116513804E+03 -0.68452505459E+03  0.83348358695E+03  0.12500000000E+03 0.  0.
         21    1    1    2  503  502  0.43964877563E+03 -0.13116513804E+03 -0.10559911216E+04  0.11513525039E+04  0.00000000000E+00 0.  1.
<mgrwt>
<rscale>  3 0.47552112E+03</rscale>
<asrwt>0</asrwt>
<pdfrwt beam="1">  1       21 0.18793840E-01 0.47552112E+03</pdfrwt>
<pdfrwt beam="2">  1       21 0.28656555E+00 0.47552112E+03</pdfrwt>
<totfact> 0.84377472E+02</totfact>
</mgrwt>
</event>
<event>
 4    0  0.1142991E-001  0.2476108E+03  0.7546771E-02  0.1114824E+00
         21   -1    0    0  502  501  0.00000000000E+00  0.00000000000E+00  0.86004473710E+02  0.86004473710E+02  0.00000000000E+00 0.  1.
         21   -1    0    0  503  502 -0.00000000000E+00 -0.00000000000E+00 -0.95326189938E+03  0.95326189938E+03  0.00000000000E+00 0. -1.
         25    1    1    2    0    0  0.14163260982E+03 -0.16008214791E+03 -0.14699006607E+03  0.28795341596E+03  0.12500000000E+03 0.  0.
         21    1    1    2  503  501 -0.14163260982E+03  0.16008214791E+03 -0.72026735960E+03  0.75131295713E+03  0.00000000000E+00 0. -1.
<mgrwt>
<rscale>  3 0.24761076E+03</rscale>
<asrwt>0</asrwt>
<pdfrwt beam="1">  1       21 0.13231458E-01 0.24761076E+03</pdfrwt>
<pdfrwt beam="2">  1       21 0.14665567E+00 0.24761076E+03</pdfrwt>
<totfact> 0.15075487E+04</totfact>
</mgrwt>
</event>
<event>
 4    0  0.1686669E-001  0.2492846E+03  0.7546771E-02  0.1113758E+00
         21   -1    0    0  503  501  0.00000000000E+00  0.00000000000E+00  0.36876107743E+03  0.36876107743E+03  0.00000000000E+00 0. -1.
         21   -1    0    0  501  502 -0.00000000000E+00 -0.00000000000E+00 -0.15681672096E+03  0.15681672096E+03  0.00000000000E+00 0. -1.
         25    1    1    2    0    0 -0.21500859120E+03 -0.17002755649E+02  0.18015260239E+03  0.30756746924E+03  0.12500000000E+03 0.  0.
         21    1    1    2  503  502  0.21500859120E+03  0.17002755649E+02  0.31791754083E+02  0.21801032915E+03  0.00000000000E+00 0. -1.
<mgrwt>
<rscale>  3 0.24928455E+03</rscale>
<asrwt>0</asrwt>
<pdfrwt beam="1">  1       21 0.56732473E-01 0.24928455E+03</pdfrwt>
<pdfrwt beam="2">  1       21 0.24125650E-01 0.24928455E+03</pdfrwt>
<totfact> 0.46136970E+04</totfact>
</mgrwt>
</event>
<event>
 4    0  0.1044967E-001  0.3032504E+03  0.7546771E-02  0.1083627E+00
         21   -1    0    0  503  501  0.00000000000E+00  0.00000000000E+00  0.85958194089E+03  0.85958194089E+03  0.00000000000E+00 0. -1.
         21   -1    0    0  501  502 -0.00000000000E+00 -0.00000000000E+00 -0.67608131330E+03  0.67608131330E+03  0.00000000000E+00 0. -1.
         25    1    1    2    0    0 -0.22941517128E+03 -0.15396269001E+03  0.80245490322E+03  0.85784305233E+03  0.12500000000E+03 0.  0.
         21    1    1    2  503  502  0.22941517128E+03  0.15396269001E+03 -0.61895427563E+03  0.67782020186E+03  0.00000000000E+00 0. -1.
<mgrwt>
<rscale>  3 0.30325044E+03</rscale>
<asrwt>0</asrwt>
<pdfrwt beam="1">  1       21 0.13224338E+00 0.30325044E+03</pdfrwt>
<pdfrwt beam="2">  1       21 0.10401251E+00 0.30325044E+03</pdfrwt>
<totfact> 0.27823248E+02</totfact>
</mgrwt>
</event>
<event>
 4    0  0.1290640E-001  0.3743898E+03  0.7546771E-02  0.1053027E+00
         21   -1    0    0  503  501  0.00000000000E+00  0.00000000000E+00  0.79460166210E+03  0.79460166210E+03  0.00000000000E+00 0.  1.
         21   -1    0    0  501  502 -0.00000000000E+00 -0.00000000000E+00 -0.18628938194E+03  0.18628938194E+03  0.00000000000E+00 0.  1.
         25    1    1    2    0    0 -0.12918232647E+03  0.32841232812E+03  0.47228158453E+03  0.60267539009E+03  0.12500000000E+03 0.  0.
         21    1    1    2  503  502  0.12918232647E+03 -0.32841232812E+03  0.13603069563E+03  0.37821565394E+03  0.00000000000E+00 0.  1.
<mgrwt>
<rscale>  3 0.37438981E+03</rscale>
<asrwt>0</asrwt>
<pdfrwt beam="1">  1       21 0.12224641E+00 0.37438981E+03</pdfrwt>
<pdfrwt beam="2">  1       21 0.28659905E-01 0.37438981E+03</pdfrwt>
<totfact> 0.52932493E+03</totfact>
</mgrwt>
</event>
<event>
 4    0  0.1061241E-001  0.3098023E+03  0.7546771E-02  0.1080441E+00
         21   -1    0    0  503  501  0.00000000000E+00  0.00000000000E+00  0.72674996095E+03  0.72674996095E+03  0.00000000000E+00 0. -1.
         21   -1    0    0  501  502 -0.00000000000E+00 -0.00000000000E+00 -0.37680200553E+03  0.37680200553E+03  0.00000000000E+00 0. -1.
         25    1    1    2    0    0  0.23066576583E+03  0.16475970847E+03  0.63188903790E+03  0.70374797569E+03  0.12500000000E+03 0.  0.
         21    1    1    2  503  502 -0.23066576583E+03 -0.16475970847E+03 -0.28194108249E+03  0.39980399079E+03  0.00000000000E+00 0. -1.
<mgrwt>
<rscale>  3 0.30980229E+03</rscale>
<asrwt>0</asrwt>
<pdfrwt beam="1">  1       21 0.11180769E+00 0.30980229E+03</pdfrwt>
<pdfrwt beam="2">  1       21 0.57969539E-01 0.30980229E+03</pdfrwt>
<totfact> 0.16041900E+03</totfact>
</mgrwt>
</event>
<event>
 4    0  0.1003929E-001  0.2595487E+03  0.7546771E-02  0.1107415E+00
         21   -1    0    0  502  501  0.00000000000E+00  0.00000000000E+00  0.18715830604E+04  0.18715830604E+04  0.00000000000E+00 0. -1.
         21   -1    0    0  503  502 -0.00000000000E+00 -0.00000000000E+00 -0.32495951154E+02  0.32495951154E+02  0.00000000000E+00 0.  1.
         25    1    1    2    0    0 -0.80026093761E+02  0.21292339156E+03  0.82825907523E+03  0.86797387176E+03  0.12500000000E+03 0.  0.
         21    1    1    2  503  501  0.80026093761E+02 -0.21292339156E+03  0.10108280340E+04  0.10361051398E+04  0.00000000000E+00 0.  1.
<mgrwt>
<rscale>  3 0.25954874E+03</rscale>
<asrwt>0</asrwt>
<pdfrwt beam="1">  1       21 0.28793577E+00 0.25954874E+03</pdfrwt>
<pdfrwt beam="2">  1       21 0.49993786E-02 0.25954874E+03</pdfrwt>
<totfact> 0.10141547E+04</totfact>
</mgrwt>
</event>
<event>
 4    0  0.1536617E-001  0.2556748E+03  0.7546771E-02  0.1109770E+00
         21   -1    0    0  503  501  0.00000000000E+00  0.00000000000E+00  0.15275580203E+03  0.15275580203E+03  0.00000000000E+00 0.  1.
         21   -1    0    0  501  502 -0.00000000000E+00 -0.00000000000E+00 -0.12351610980E+04  0.12351610980E+04  0.00000000000E+00 0. -1.
         25    1    1    2    0    0  0.12804659304E+03  0.18261619625E+03  0.26278313395E+02  0.25702170118E+03  0.12500000000E+03 0.  0.
         21    1    1    2  503  502 -0.12804659304E+03 -0.18261619625E+03 -0.11086836094E+04  0.11308951989E+04  0.00000000000E+00 0. -1.
<mgrwt>
<rscale>  3 0.25567480E+03</rscale>
<asrwt>0</asrwt>
<pdfrwt beam="1">  1       21 0.23500893E-01 0.25567480E+03</pdfrwt>
<pdfrwt beam="2">  1       21 0.19002478E+00 0.25567480E+03</pdfrwt>
<totfact> 0.25141042E+03</totfact>
</mgrwt>
</event>
<event>
 4    0  0.1415063E-001  0.2891787E+03  0.7546771E-02  0.1090779E+00
         21   -1    0    0  502  501  0.00000000000E+00  0.00000000000E+00  0.13550482920E+03  0.13550482920E+03  0.00000000000E+00 0.  1.
         21   -1    0    0  503  502 -0.00000000000E+00 -0.00000000000E+00 -0.70977171925E+03  0.70977171925E+03  0.00000000000E+00 0.  1.
         25    1    1    2    0    0 -0.17142357280E+03 -0.19650255188E+03 -0.10355625443E+03  0.30716150807E+03  0.12500000000E+03 0.  0.
         21    1    1    2  503  501  0.17142357280E+03  0.19650255188E+03 -0.47071063562E+03  0.53811504039E+03  0.00000000000E+00 0.  1.
<mgrwt>
<rscale>  3 0.28917865E+03</rscale>
<asrwt>0</asrwt>
<pdfrwt beam="1">  1       21 0.20846897E-01 0.28917865E+03</pdfrwt>
<pdfrwt beam="2">  1       21 0.10919565E+00 0.28917865E+03</pdfrwt>
<totfact> 0.13445306E+04</totfact>
</mgrwt>
</event>
<event>
 4    0  0.1600146E-001  0.2787949E+03  0.7546771E-02  0.1096349E+00
         21   -1    0    0  502  501  0.00000000000E+00  0.00000000000E+00  0.16375112075E+04  0.16375112075E+04  0.00000000000E+00 0. -1.
         21   -1    0    0  503  502 -0.00000000000E+00 -0.00000000000E+00 -0.54541996044E+03  0.54541996044E+03  0.00000000000E+00 0.  1.
         25    1    1    2    0    0  0.14215975691E+03  0.20467581331E+03  0.15963200365E+04  0.16204827195E+04  0.12500000000E+03 0.  0.
         21    1    1    2  503  501 -0.14215975691E+03 -0.20467581331E+03 -0.50422878948E+03  0.56244844847E+03  0.00000000000E+00 0.  1.
<mgrwt>
<rscale>  3 0.27879488E+03</rscale>
<asrwt>0</asrwt>
<pdfrwt beam="1">  1       21 0.25192480E+00 0.27879488E+03</pdfrwt>
<pdfrwt beam="2">  1       21 0.83910764E-01 0.27879488E+03</pdfrwt>
<totfact> 0.71427214E+01</totfact>
</mgrwt>
</event>
<event>
 4    0  0.1003929E-001  0.4296709E+03  0.7546771E-02  0.1033964E+00
         21   -1    0    0  502  501  0.00000000000E+00  0.00000000000E+00  0.20972772444E+04  0.20972772444E+04  0.00000000000E+00 0. -1.
         21   -1    0    0  503  502 -0.00000000000E+00 -0.00000000000E+00 -0.64566850231E+03  0.64566850231E+03  0.00000000000E+00 0.  1.
         25    1    1    2    0    0 -0.31677910279E+03  0.26199826385E+03  0.20067131852E+04  0.20521975777E+04  0.12500000000E+03 0.  0.
         21    1    1    2  503  501  0.31677910279E+03 -0.26199826385E+03 -0.55510444311E+03  0.69074816901E+03  0.00000000000E+00 0.  1.
<mgrwt>
<rscale>  3 0.42967091E+03</rscale>
<asrwt>0</asrwt>
<pdfrwt beam="1">  1       21 0.32265803E+00 0.42967091E+03</pdfrwt>
<pdfrwt beam="2">  1       21 0.99333617E-01 0.42967091E+03</pdfrwt>
<totfact> 0.15796691E+01</totfact>
</mgrwt>
</event>
<event>
 4    0  0.1226970E-001  0.2558203E+03  0.7546771E-02  0.1109681E+00
         21   -1    0    0  503  501  0.00000000000E+00  0.00000000000E+00  0.10933457631E+04  0.10933457631E+04  0.00000000000E+00 0. -1.
         21   -1    0    0  501  502 -0.00000000000E+00 -0.00000000000E+00 -0.54819785247E+02  0.54819785247E+02  0.00000000000E+00 0. -1.
         25    1    1    2    0    0  0.11156214921E+03  0.19332070317E+03  0.67175030050E+03  0.71881323975E+03  0.12500000000E+03 0.  0.
         21    1    1    2  503  502 -0.11156214921E+03 -0.19332070317E+03  0.36677567739E+03  0.42935230864E+03  0.00000000000E+00 0. -1.
<mgrwt>
<rscale>  3 0.25582026E+03</rscale>
<asrwt>0</asrwt>
<pdfrwt beam="1">  1       21 0.16820703E+00 0.25582026E+03</pdfrwt>
<pdfrwt beam="2">  1       21 0.84338139E-02 0.25582026E+03</pdfrwt>
<totfact> 0.23130443E+04</totfact>
</mgrwt>
</event>
<event>
 4    0  0.1379873E-001  0.2858410E+03  0.7546771E-02  0.1092541E+00
         21   -1    0    0  502  501  0.00000000000E+00  0.00000000000E+00  0.12331224442E+04  0.12331224442E+04  0.00000000000E+00 0. -1.
         21   -1    0    0  503  502 -0.00000000000E+00 -0.00000000000E+00 -0.63143615501E+02  0.63143615501E+02  0.00000000000E+00 0. -1.
         25    1    1    2    0    0  0.17823623703E+03 -0.18523482227E+03  0.76427701347E+03  0.81598066698E+03  0.12500000000E+03 0.  0.
         21    1    1    2  503  501 -0.17823623703E+03  0.18523482227E+03  0.40570181519E+03  0.48028539268E+03  0.00000000000E+00 0. -1.
<mgrwt>
<rscale>  3 0.28584103E+03</rscale>
<asrwt>0</asrwt>
<pdfrwt beam="1">  1       21 0.18971113E+00 0.28584103E+03</pdfrwt>
<pdfrwt beam="2">  1       21 0.97144033E-02 0.28584103E+03</pdfrwt>
<totfact> 0.12574225E+04</totfact>
</mgrwt>
</event>
<event>
 4    0  0.1123740E-001  0.3202230E+03  0.7546771E-02  0.1075547E+00
         21   -1    0    0  502  501  0.00000000000E+00  0.00000000000E+00  0.10460297929E+04  0.10460297929E+04  0.00000000000E+00 0. -1.
         21   -1    0    0  503  502 -0.00000000000E+00 -0.00000000000E+00 -0.16958130824E+03  0.16958130824E+03  0.00000000000E+00 0. -1.
         25    1    1    2    0    0 -0.27639475126E+03 -0.10258498919E+03  0.86298991491E+03  0.92048592155E+03  0.12500000000E+03 0.  0.
         21    1    1    2  503  501  0.27639475126E+03  0.10258498919E+03  0.13458569747E+02  0.29512517960E+03  0.00000000000E+00 0. -1.
<mgrwt>
<rscale>  3 0.32022295E+03</rscale>
<asrwt>0</asrwt>
<pdfrwt beam="1">  1       21 0.16092766E+00 0.32022295E+03</pdfrwt>
<pdfrwt beam="2">  1       21 0.26089433E-01 0.32022295E+03</pdfrwt>
<totfact> 0.31591949E+03</totfact>
</mgrwt>
</event>
<event>
 4    0  0.1003929E-001  0.2568028E+03  0.7546771E-02  0.1109080E+00
         21   -1    0    0  502  501  0.00000000000E+00  0.00000000000E+00  0.63175647436E+02  0.63175647436E+02  0.00000000000E+00 0.  1.
         21   -1    0    0  503  502 -0.00000000000E+00 -0.00000000000E+00 -0.11931370461E+04  0.11931370461E+04  0.00000000000E+00 0. -1.
         25    1    1    2    0    0 -0.22420838274E+03 -0.72976923175E+01 -0.29207182297E+03  0.38891336436E+03  0.12500000000E+03 0.  0.
         21    1    1    2  503  501  0.22420838274E+03  0.72976923175E+01 -0.83788957567E+03  0.86739932916E+03  0.00000000000E+00 0. -1.
<mgrwt>
<rscale>  3 0.25680276E+03</rscale>
<asrwt>0</asrwt>
<pdfrwt beam="1">  1       21 0.97193301E-02 0.25680276E+03</pdfrwt>
<pdfrwt beam="2">  1       21 0.18355955E+00 0.25680276E+03</pdfrwt>
<totfact> 0.14057551E+04</totfact>
</mgrwt>
</event>
<event>
 4    0  0.1097712E-001  0.3363107E+03  0.7546771E-02  0.1068378E+00
         21   -1    0    0  503  501  0.00000000000E+00  0.00000000000E+00  0.75157377280E+03  0.75157377280E+03  0.00000000000E+00 0. -1.
         21   -1    0    0  501  502 -0.00000000000E+00 -0.00000000000E+00 -0.28306971372E+03  0.28306971372E+03  0.00000000000E+00 0. -1.
         25    1    1    2    0    0 -0.15973918889E+03  0.26825966526E+03  0.60633240454E+03  0.69335693641E+03  0.12500000000E+03 0.  0.
         21    1    1    2  503  502  0.15973918889E+03 -0.26825966526E+03 -0.13782834545E+03  0.34128655011E+03  0.00000000000E+00 0. -1.
<mgrwt>
<rscale>  3 0.33631065E+03</rscale>
<asrwt>0</asrwt>
<pdfrwt beam="1">  1       21 0.11562673E+00 0.33631065E+03</pdfrwt>
<pdfrwt beam="2">  1       21 0.43549187E-01 0.33631065E+03</pdfrwt>
<totfact> 0.26634868E+03</totfact>
</mgrwt>
</event>
<event>
 4    0  0.1371643E-001  0.2943973E+03  0.7546771E-02  0.1088075E+00
         21   -1    0    0  503  501  0.00000000000E+00  0.00000000000E+00  0.13908468873E+03  0.13908468873E+03  0.00000000000E+00 0.  1.
         21   -1    0    0  501  502 -0.00000000000E+00 -0.00000000000E+00 -0.64178342281E+03  0.64178342281E+03  0.00000000000E+00 0.  1.
         25    1    1    2    0    0 -0.11308251278E+02 -0.26630229792E+03 -0.12795708834E+03  0.32100281445E+03  0.12500000000E+03 0.  0.
         21    1    1    2  503  502  0.11308251278E+02  0.26630229792E+03 -0.37474164573E+03  0.45986529710E+03  0.00000000000E+00 0.  1.
<mgrwt>
<rscale>  3 0.29439733E+03</rscale>
<asrwt>0</asrwt>
<pdfrwt beam="1">  1       21 0.21397644E-01 0.29439733E+03</pdfrwt>
<pdfrwt beam="2">  1       21 0.98735914E-01 0.29439733E+03</pdfrwt>
<totfact> 0.16296782E+04</totfact>
</mgrwt>
</event>
<event>
 4    0  0.1206943E-001  0.2429581E+03  0.7546771E-02  0.1117838E+00
         21   -1    0    0  502  501  0.00000000000E+00  0.00000000000E+00  0.79518078589E+02  0.79518078589E+02  0.00000000000E+00 0.  1.
         21   -1    0    0  503  502 -0.00000000000E+00 -0.00000000000E+00 -0.74940827474E+03  0.74940827474E+03  0.00000000000E+00 0.  1.
         25    1    1    2    0    0  0.20220775232E+03  0.50156147037E+02 -0.19916316183E+03  0.31415693405E+03  0.12500000000E+03 0.  0.
         21    1    1    2  503  501 -0.20220775232E+03 -0.50156147037E+02 -0.47072703432E+03  0.51476941928E+03  0.00000000000E+00 0.  1.
<mgrwt>
<rscale>  3 0.24295805E+03</rscale>
<asrwt>0</asrwt>
<pdfrwt beam="1">  1       21 0.12233551E-01 0.24295805E+03</pdfrwt>
<pdfrwt beam="2">  1       21 0.11529358E+00 0.24295805E+03</pdfrwt>
<totfact> 0.32154807E+04</totfact>
</mgrwt>
</event>
<event>
 4    0  0.1003929E-001  0.2522371E+03  0.7546771E-02  0.1111899E+00
         21   -1    0    0  502  501  0.00000000000E+00  0.00000000000E+00  0.11341849272E+04  0.11341849272E+04  0.00000000000E+00 0.  1.
         21   -1    0    0  503  502 -0.00000000000E+00 -0.00000000000E+00 -0.49313885792E+02  0.49313885792E+02  0.00000000000E+00 0. -1.
         25    1    1    2    0    0  0.81831792976E+02  0.20322916171E+03  0.62991266832E+03  0.67853776919E+03  0.12500000000E+03 0.  0.
         21    1    1    2  503  501 -0.81831792976E+02 -0.20322916171E+03  0.45495837305E+03  0.50496104376E+03  0.00000000000E+00 0. -1.
<mgrwt>
<rscale>  3 0.25223706E+03</rscale>
<asrwt>0</asrwt>
<pdfrwt beam="1">  1       21 0.17448997E+00 0.25223706E+03</pdfrwt>
<pdfrwt beam="2">  1       21 0.75867525E-02 0.25223706E+03</pdfrwt>
<totfact> 0.25179791E+04</totfact>
</mgrwt>
</event>
<event>
 4    0  0.1191479E-001  0.2366015E+03  0.7546771E-02  0.1122078E+00
         21   -1    0    0  502  501  0.00000000000E+00  0.00000000000E+00  0.29469762752E+03  0.29469762752E+03  0.00000000000E+00 0. -1.
         21   -1    0    0  503  502 -0.00000000000E+00 -0.00000000000E+00 -0.69044184169E+03  0.69044184169E+03  0.00000000000E+00 0. -1.
         25    1    1    2    0    0 -0.16285462694E+03  0.11761647651E+03  0.22876826067E+03  0.32911271953E+03  0.12500000000E+03 0.  0.
         21    1    1    2  503  501  0.16285462694E+03 -0.11761647651E+03 -0.62451247485E+03  0.65602674968E+03  0.00000000000E+00 0. -1.
<mgrwt>
<rscale>  3 0.23660149E+03</rscale>
<asrwt>0</asrwt>
<pdfrwt beam="1">  1       21 0.45338097E-01 0.23660149E+03</pdfrwt>
<pdfrwt beam="2">  1       21 0.10622182E+00 0.23660149E+03</pdfrwt>
<totfact> 0.32024089E+03</totfact>
</mgrwt>
</event>
<event>
 4    0  0.1457486E-001  0.3025223E+03  0.7546771E-02  0.1083986E+00
         21   -1    0    0  502  501  0.00000000000E+00  0.00000000000E+00  0.15739715879E+03  0.15739715879E+03  0.00000000000E+00 0.  1.
         21   -1    0    0  503  502 -0.00000000000E+00 -0.00000000000E+00 -0.53309433829E+03  0.53309433829E+03  0.00000000000E+00 0.  1.
         25    1    1    2    0    0 -0.11032964739E+03 -0.25243244405E+03 -0.17329534577E+03  0.34864171691E+03  0.12500000000E+03 0.  0.
         21    1    1    2  503  501  0.11032964739E+03  0.25243244405E+03 -0.20240183372E+03  0.34184978016E+03  0.00000000000E+00 0.  1.
<mgrwt>
<rscale>  3 0.30252235E+03</rscale>
<asrwt>0</asrwt>
<pdfrwt beam="1">  1       21 0.24214947E-01 0.30252235E+03</pdfrwt>
<pdfrwt beam="2">  1       21 0.82014514E-01 0.30252235E+03</pdfrwt>
<totfact> 0.19808966E+04</totfact>
</mgrwt>
</event>
<event>
 4    0  0.1187576E-001  0.2729457E+03  0.7546771E-02  0.1099605E+00
         21   -1    0    0  502  501  0.00000000000E+00  0.00000000000E+00  0.65920163311E+03  0.65920163311E+03  0.00000000000E+00 0.  1.
         21   -1    0    0  503  502 -0.00000000000E+00 -0.00000000000E+00 -0.17292336498E+03  0.17292336498E+03  0.00000000000E+00 0. -1.
         25    1    1    2    0    0  0.21285631397E+03  0.11647548430E+03  0.51987409502E+03  0.58716984214E+03  0.12500000000E+03 0.  0.
         21    1    1    2  503  501 -0.21285631397E+03 -0.11647548430E+03 -0.33595826898E+02  0.24495515595E+03  0.00000000000E+00 0. -1.
<mgrwt>
<rscale>  3 0.27294569E+03</rscale>
<asrwt>0</asrwt>
<pdfrwt beam="1">  1       21 0.10141563E+00 0.27294569E+03</pdfrwt>
<pdfrwt beam="2">  1       21 0.26603595E-01 0.27294569E+03</pdfrwt>
<totfact> 0.10167634E+04</totfact>
</mgrwt>
</event>
<event>
 4    0  0.1384694E-001  0.2374598E+03  0.7546771E-02  0.1121497E+00
         21   -1    0    0  503  501  0.00000000000E+00  0.00000000000E+00  0.14787945149E+03  0.14787945149E+03  0.00000000000E+00 0. -1.
         21   -1    0    0  501  502 -0.00000000000E+00 -0.00000000000E+00 -0.46503170914E+03  0.46503170914E+03  0.00000000000E+00 0. -1.
         25    1    1    2    0    0 -0.11686634973E+03  0.16463410840E+03 -0.60677035485E+00  0.23746052623E+03  0.12500000000E+03 0.  0.
         21    1    1    2  503  502  0.11686634973E+03 -0.16463410840E+03 -0.31654548730E+03  0.37545063441E+03  0.00000000000E+00 0. -1.
<mgrwt>
<rscale>  3 0.23745975E+03</rscale>
<asrwt>0</asrwt>
<pdfrwt beam="1">  1       21 0.22750685E-01 0.23745975E+03</pdfrwt>
<pdfrwt beam="2">  1       21 0.71543339E-01 0.23745975E+03</pdfrwt>
<totfact> 0.31261880E+04</totfact>
</mgrwt>
</event>
<event>
 4    0  0.1043544E-001  0.2364600E+03  0.7546771E-02  0.1122174E+00
         21   -1    0    0  503  501  0.00000000000E+00  0.00000000000E+00  0.99368229665E+02  0.99368229665E+02  0.00000000000E+00 0. -1.
         21   -1    0    0  501  502 -0.00000000000E+00 -0.00000000000E+00 -0.10200446401E+04  0.10200446401E+04  0.00000000000E+00 0. -1.
         25    1    1    2    0    0  0.20026425208E+03  0.13511060230E+02 -0.71787878619E+02  0.24711701465E+03  0.12500000000E+03 0.  0.
         21    1    1    2  503  502 -0.20026425208E+03 -0.13511060230E+02 -0.84888853180E+03  0.87229585510E+03  0.00000000000E+00 0. -1.
<mgrwt>
<rscale>  3 0.23645997E+03</rscale>
<asrwt>0</asrwt>
<pdfrwt beam="1">  1       21 0.15287420E-01 0.23645997E+03</pdfrwt>
<pdfrwt beam="2">  1       21 0.15692994E+00 0.23645997E+03</pdfrwt>
<totfact> 0.97369501E+03</totfact>
</mgrwt>
</event>
<event>
 4    0  0.1220455E-001  0.2636400E+03  0.7546771E-02  0.1104976E+00
         21   -1    0    0  503  501  0.00000000000E+00  0.00000000000E+00  0.65075668424E+02  0.65075668424E+02  0.00000000000E+00 0. -1.
         21   -1    0    0  501  502 -0.00000000000E+00 -0.00000000000E+00 -0.12576783981E+04  0.12576783981E+04  0.00000000000E+00 0. -1.
         25    1    1    2    0    0 -0.25970448388E+02  0.23066550030E+03 -0.29507580036E+03  0.39569655694E+03  0.12500000000E+03 0.  0.
         21    1    1    2  503  502  0.25970448388E+02 -0.23066550030E+03 -0.89752692933E+03  0.92705750959E+03  0.00000000000E+00 0. -1.
<mgrwt>
<rscale>  3 0.26363998E+03</rscale>
<asrwt>0</asrwt>
<pdfrwt beam="1">  1       21 0.10011641E-01 0.26363998E+03</pdfrwt>
<pdfrwt beam="2">  1       21 0.19348899E+00 0.26363998E+03</pdfrwt>
<totfact> 0.11391818E+04</totfact>
</mgrwt>
</event>
<event>
 4    0  0.1378955E-001  0.2396891E+03  0.7546771E-02  0.1120000E+00
         21   -1    0    0  503  501  0.00000000000E+00  0.00000000000E+00  0.13055789942E+03  0.13055789942E+03  0.00000000000E+00 0. -1.
         21   -1    0    0  501  502 -0.00000000000E+00 -0.00000000000E+00 -0.67308804263E+03  0.67308804263E+03  0.00000000000E+00 0. -1.
         25    1    1    2    0    0  0.14871890904E+03  0.14038707613E+03 -0.17659517552E+02  0.24033872682E+03  0.12500000000E+03 0.  0.
         21    1    1    2  503  502 -0.14871890904E+03 -0.14038707613E+03 -0.52487062566E+03  0.56330721523E+03  0.00000000000E+00 0. -1.
<mgrwt>
<rscale>  3 0.23968906E+03</rscale>
<asrwt>0</asrwt>
<pdfrwt beam="1">  1       21 0.20085830E-01 0.23968906E+03</pdfrwt>
<pdfrwt beam="2">  1       21 0.10355201E+00 0.23968906E+03</pdfrwt>
<totfact> 0.16816690E+04</totfact>
</mgrwt>
</event>
<event>
 4    0  0.1003929E-001  0.2787440E+03  0.7546771E-02  0.1096377E+00
         21   -1    0    0  503  501  0.00000000000E+00  0.00000000000E+00  0.68795050002E+03  0.68795050002E+03  0.00000000000E+00 0.  1.
         21   -1    0    0  501  502 -0.00000000000E+00 -0.00000000000E+00 -0.70660523409E+03  0.70660523409E+03  0.00000000000E+00 0.  1.
         25    1    1    2    0    0  0.11012912409E+03  0.22348327260E+03  0.63583377268E+03  0.69424979912E+03  0.12500000000E+03 0.  0.
         21    1    1    2  503  502 -0.11012912409E+03 -0.22348327260E+03 -0.65448850675E+03  0.70030593499E+03  0.00000000000E+00 0.  1.
<mgrwt>
<rscale>  3 0.27874396E+03</rscale>
<asrwt>0</asrwt>
<pdfrwt beam="1">  1       21 0.10583854E+00 0.27874396E+03</pdfrwt>
<pdfrwt beam="2">  1       21 0.10870850E+00 0.27874396E+03</pdfrwt>
<totfact> 0.44402633E+02</totfact>
</mgrwt>
</event>
<event>
 4    0  0.1611844E-001  0.2873311E+03  0.7546771E-02  0.1091751E+00
         21   -1    0    0  503  501  0.00000000000E+00  0.00000000000E+00  0.30867431790E+03  0.30867431790E+03  0.00000000000E+00 0. -1.
         21   -1    0    0  501  502 -0.00000000000E+00 -0.00000000000E+00 -0.27273311476E+03  0.27273311476E+03  0.00000000000E+00 0. -1.
         25    1    1    2    0    0 -0.23677035676E+03  0.10427825725E+03  0.11707553448E+03  0.31026736462E+03  0.12500000000E+03 0.  0.
         21    1    1    2  503  502  0.23677035676E+03 -0.10427825725E+03 -0.81134331346E+02  0.27114006804E+03  0.00000000000E+00 0. -1.
<mgrwt>
<rscale>  3 0.28733109E+03</rscale>
<asrwt>0</asrwt>
<pdfrwt beam="1">  1       21 0.47488357E-01 0.28733109E+03</pdfrwt>
<pdfrwt beam="2">  1       21 0.41958941E-01 0.28733109E+03</pdfrwt>
<totfact> 0.22125406E+04</totfact>
</mgrwt>
</event>
<event>
 4    0  0.1003929E-001  0.2571044E+03  0.7546771E-02  0.1108896E+00
         21   -1    0    0  502  501  0.00000000000E+00  0.00000000000E+00  0.18300792995E+04  0.18300792995E+04  0.00000000000E+00 0. -1.
         21   -1    0    0  503  502 -0.00000000000E+00 -0.00000000000E+00 -0.60557608176E+02  0.60557608176E+02  0.00000000000E+00 0. -1.
         25    1    1    2    0    0  0.19474199835E+03 -0.11204120971E+03  0.15676519864E+04  0.15885954265E+04  0.12500000000E+03 0.  0.
         21    1    1    2  503  501 -0.19474199835E+03  0.11204120971E+03  0.20186970494E+03  0.30204148121E+03  0.00000000000E+00 0. -1.
<mgrwt>
<rscale>  3 0.25710441E+03</rscale>
<asrwt>0</asrwt>
<pdfrwt beam="1">  1       21 0.28155062E+00 0.25710441E+03</pdfrwt>
<pdfrwt beam="2">  1       21 0.93165565E-02 0.25710441E+03</pdfrwt>
<totfact> 0.37579928E+03</totfact>
</mgrwt>
</event>
<event>
 4    0  0.1003929E-001  0.2719286E+03  0.7546771E-02  0.1100181E+00
         21   -1    0    0  503  501  0.00000000000E+00  0.00000000000E+00  0.24333289482E+04  0.24333289482E+04  0.00000000000E+00 0. -1.
         21   -1    0    0  501  502 -0.00000000000E+00 -0.00000000000E+00 -0.68213532123E+03  0.68213532123E+03  0.00000000000E+00 0. -1.
         25    1    1    2    0    0  0.95033825270E+02  0.22201070451E+03  0.24040466941E+04  0.24193771282E+04  0.12500000000E+03 0.  0.
         21    1    1    2  503  502 -0.95033825270E+02 -0.22201070451E+03 -0.65285306717E+03  0.69608714123E+03  0.00000000000E+00 0. -1.
<mgrwt>
<rscale>  3 0.27192863E+03</rscale>
<asrwt>0</asrwt>
<pdfrwt beam="1">  1       21 0.37435830E+00 0.27192863E+03</pdfrwt>
<pdfrwt beam="2">  1       21 0.10494390E+00 0.27192863E+03</pdfrwt>
<totfact> 0.79544295E+00</totfact>
</mgrwt>
</event>
<event>
 4    0  0.1056836E-001  0.3803878E+03  0.7546771E-02  0.1050791E+00
         21   -1    0    0  502  501  0.00000000000E+00  0.00000000000E+00  0.10613484638E+03  0.10613484638E+03  0.00000000000E+00 0. -1.
         21   -1    0    0  503  502 -0.00000000000E+00 -0.00000000000E+00 -0.15502991882E+04  0.15502991882E+04  0.00000000000E+00 0. -1.
         25    1    1    2    0    0 -0.19469306498E+03  0.30193452586E+03 -0.39909229745E+03  0.55133429908E+03  0.12500000000E+03 0.  0.
         21    1    1    2  503  501  0.19469306498E+03 -0.30193452586E+03 -0.10450720444E+04  0.11050997355E+04  0.00000000000E+00 0. -1.
<mgrwt>
<rscale>  3 0.38038776E+03</rscale>
<asrwt>0</asrwt>
<pdfrwt beam="1">  1       21 0.16328439E-01 0.38038776E+03</pdfrwt>
<pdfrwt beam="2">  1       21 0.23850756E+00 0.38038776E+03</pdfrwt>
<totfact> 0.22624212E+03</totfact>
</mgrwt>
</event>
<event>
 4    0  0.1524926E-001  0.2622343E+03  0.7546771E-02  0.1105808E+00
         21   -1    0    0  502  501  0.00000000000E+00  0.00000000000E+00  0.18804633646E+03  0.18804633646E+03  0.00000000000E+00 0. -1.
         21   -1    0    0  503  502 -0.00000000000E+00 -0.00000000000E+00 -0.40829922052E+03  0.40829922052E+03  0.00000000000E+00 0. -1.
         25    1    1    2    0    0  0.16625701064E+03  0.15968849429E+03  0.20486153756E+02  0.26303325130E+03  0.12500000000E+03 0.  0.
         21    1    1    2  503  501 -0.16625701064E+03 -0.15968849429E+03 -0.24073903781E+03  0.33331230568E+03  0.00000000000E+00 0. -1.
<mgrwt>
<rscale>  3 0.26223426E+03</rscale>
<asrwt>0</asrwt>
<pdfrwt beam="1">  1       21 0.28930206E-01 0.26223426E+03</pdfrwt>
<pdfrwt beam="2">  1       21 0.62815264E-01 0.26223426E+03</pdfrwt>
<totfact> 0.25916331E+04</totfact>
</mgrwt>
</event>
<event>
 4    0  0.1203459E-001  0.2682171E+03  0.7546771E-02  0.1102304E+00
         21   -1    0    0  503  501  0.00000000000E+00  0.00000000000E+00  0.60000237721E+03  0.60000237721E+03  0.00000000000E+00 0. -1.
         21   -1    0    0  501  502 -0.00000000000E+00 -0.00000000000E+00 -0.22154334807E+03  0.22154334807E+03  0.00000000000E+00 0. -1.
         25    1    1    2    0    0 -0.84485294767E+02 -0.22176035506E+03  0.49055598230E+03  0.55909354484E+03  0.12500000000E+03 0.  0.
         21    1    1    2  503  502  0.84485294767E+02  0.22176035506E+03 -0.11209695317E+03  0.26245218044E+03  0.00000000000E+00 0. -1.
<mgrwt>
<rscale>  3 0.26821711E+03</rscale>
<asrwt>0</asrwt>
<pdfrwt beam="1">  1       21 0.92308057E-01 0.26821711E+03</pdfrwt>
<pdfrwt beam="2">  1       21 0.34083592E-01 0.26821711E+03</pdfrwt>
<totfact> 0.78315872E+03</totfact>
</mgrwt>
</event>
<event>
 4    0  0.1003929E-001  0.2451088E+03  0.7546771E-02  0.1116436E+00
         21   -1    0    0  502  501  0.00000000000E+00  0.00000000000E+00  0.29754936206E+03  0.29754936206E+03  0.00000000000E+00 0.  1.
         21   -1    0    0  503  502 -0.00000000000E+00 -0.00000000000E+00 -0.22185296731E+03  0.22185296731E+03  0.00000000000E+00 0. -1.
         25    1    1    2    0    0  0.87926445605E+02  0.19163058947E+03 -0.79414591263E+02  0.25765290599E+03  0.12500000000E+03 0.  0.
         21    1    1    2  503  501 -0.87926445605E+02 -0.19163058947E+03  0.15511098601E+03  0.26174942338E+03  0.00000000000E+00 0. -1.
<mgrwt>
<rscale>  3 0.24510884E+03</rscale>
<asrwt>0</asrwt>
<pdfrwt beam="1">  1       21 0.45776825E-01 0.24510884E+03</pdfrwt>
<pdfrwt beam="2">  1       21 0.34131226E-01 0.24510884E+03</pdfrwt>
<totfact> 0.36894134E+04</totfact>
</mgrwt>
</event>
<event>
 4    0  0.1188639E-001  0.2824897E+03  0.7546771E-02  0.1094337E+00
         21   -1    0    0  502  501  0.00000000000E+00  0.00000000000E+00  0.58382179147E+03  0.58382179147E+03  0.00000000000E+00 0. -1.
         21   -1    0    0  503  502 -0.00000000000E+00 -0.00000000000E+00 -0.13664963245E+03  0.13664963245E+03  0.00000000000E+00 0. -1.
         25    1    1    2    0    0  0.11988286611E+02 -0.25304493516E+03  0.12058541410E+03  0.30715028947E+03  0.12500000000E+03 0.  0.
         21    1    1    2  503  501 -0.11988286611E+02  0.25304493516E+03  0.32658674491E+03  0.41332113445E+03  0.00000000000E+00 0. -1.
<mgrwt>
<rscale>  3 0.28248975E+03</rscale>
<asrwt>0</asrwt>
<pdfrwt beam="1">  1       21 0.89818736E-01 0.28248975E+03</pdfrwt>
<pdfrwt beam="2">  1       21 0.21023021E-01 0.28248975E+03</pdfrwt>
<totfact> 0.21185781E+04</totfact>
</mgrwt>
</event>
<event>
 4    0  0.1263027E-001  0.2367898E+03  0.7546771E-02  0.1121950E+00
         21   -1    0    0  502  501  0.00000000000E+00  0.00000000000E+00  0.93001416220E+03  0.93001416220E+03  0.00000000000E+00 0. -1.
         21   -1    0    0  503  502 -0.00000000000E+00 -0.00000000000E+00 -0.95299421769E+02  0.95299421769E+02  0.00000000000E+00 0. -1.
         25    1    1    2    0    0  0.14017373620E+03  0.14420719049E+03  0.78249345149E+03  0.81753617152E+03  0.12500000000E+03 0.  0.
         21    1    1    2  503  501 -0.14017373620E+03 -0.14420719049E+03  0.52221288943E+02  0.20777741246E+03  0.00000000000E+00 0. -1.
<mgrwt>
<rscale>  3 0.23678976E+03</rscale>
<asrwt>0</asrwt>
<pdfrwt beam="1">  1       21 0.14307910E+00 0.23678976E+03</pdfrwt>
<pdfrwt beam="2">  1       21 0.14661450E-01 0.23678976E+03</pdfrwt>
<totfact> 0.13430216E+04</totfact>
</mgrwt>
</event>
<event>
 4    0  0.1284996E-001  0.2464581E+03  0.7546771E-02  0.1115564E+00
         21   -1    0    0  503  501  0.00000000000E+00  0.00000000000E+00  0.10435730056E+04  0.10435730056E+04  0.00000000000E+00 0.  1.
         21   -1    0    0  501  502 -0.00000000000E+00 -0.00000000000E+00 -0.74732544539E+02  0.74732544539E+02  0.00000000000E+00 0.  1.
         25    1    1    2    0    0  0.20046746057E+03 -0.70209483932E+02  0.82687730828E+03  0.86282539215E+03  0.12500000000E+03 0.  0.
         21    1    1    2  503  502 -0.20046746057E+03  0.70209483932E+02  0.14196315277E+03  0.25548015799E+03  0.00000000000E+00 0.  1.
<mgrwt>
<rscale>  3 0.24645806E+03</rscale>
<asrwt>0</asrwt>
<pdfrwt beam="1">  1       21 0.16054968E+00 0.24645806E+03</pdfrwt>
<pdfrwt beam="2">  1       21 0.11497315E-01 0.24645806E+03</pdfrwt>
<totfact> 0.15246762E+04</totfact>
</mgrwt>
</event>
<event>
 4    0  0.1249516E-001  0.2369053E+03  0.7546771E-02  0.1121872E+00
         21   -1    0    0  503  501  0.00000000000E+00  0.00000000000E+00  0.36966731123E+03  0.36966731123E+03  0.00000000000E+00 0.  1.
         21   -1    0    0  501  502 -0.00000000000E+00 -0.00000000000E+00 -0.21268681314E+03  0.21268681314E+03  0.00000000000E+00 0. -1.
         25    1    1    2    0    0  0.19710969201E+03 -0.40581979394E+02  0.26376288191E+03  0.35453488631E+03  0.12500000000E+03 0.  0.
         21    1    1    2  503  502 -0.19710969201E+03  0.40581979394E+02 -0.10678238383E+03  0.22781923806E+03  0.00000000000E+00 0. -1.
<mgrwt>
<rscale>  3 0.23690531E+03</rscale>
<asrwt>0</asrwt>
<pdfrwt beam="1">  1       21 0.56871894E-01 0.23690531E+03</pdfrwt>
<pdfrwt beam="2">  1       21 0.32721048E-01 0.23690531E+03</pdfrwt>
<totfact> 0.25508173E+04</totfact>
</mgrwt>
</event>
<event>
 4    0  0.1403408E-001  0.2686750E+03  0.7546771E-02  0.1102040E+00
         21   -1    0    0  502  501  0.00000000000E+00  0.00000000000E+00  0.16401374269E+03  0.16401374269E+03  0.00000000000E+00 0.  1.
         21   -1    0    0  503  502 -0.00000000000E+00 -0.00000000000E+00 -0.39179361509E+03  0.39179361509E+03  0.00000000000E+00 0.  1.
         25    1    1    2    0    0 -0.92785078793E+02  0.21897986060E+03 -0.10864272023E+03  0.28980940436E+03  0.12500000000E+03 0.  0.
         21    1    1    2  503  501  0.92785078793E+02 -0.21897986060E+03 -0.11913715217E+03  0.26599795342E+03  0.00000000000E+00 0.  1.
<mgrwt>
<rscale>  3 0.26867499E+03</rscale>
<asrwt>0</asrwt>
<pdfrwt beam="1">  1       21 0.25232884E-01 0.26867499E+03</pdfrwt>
<pdfrwt beam="2">  1       21 0.60275941E-01 0.26867499E+03</pdfrwt>
<totfact> 0.36863282E+04</totfact>
</mgrwt>
</event>
<event>
 4    0  0.1003929E-001  0.3069141E+03  0.7546771E-02  0.1081835E+00
         21   -1    0    0  503  501  0.00000000000E+00  0.00000000000E+00  0.51301556761E+03  0.51301556761E+03  0.00000000000E+00 0.  1.
         21   -1    0    0  501  502 -0.00000000000E+00 -0.00000000000E+00 -0.17457728706E+03  0.17457728706E+03  0.00000000000E+00 0. -1.
         25    1    1    2    0    0 -0.24601000905E+03  0.13435145381E+03  0.24306620398E+03  0.39150659919E+03  0.12500000000E+03 0.  0.
         21    1    1    2  503  502  0.24601000905E+03 -0.13435145381E+03  0.95372076569E+02  0.29608625548E+03  0.00000000000E+00 0. -1.
<mgrwt>
<rscale>  3 0.30691406E+03</rscale>
<asrwt>0</asrwt>
<pdfrwt beam="1">  1       21 0.78925471E-01 0.30691406E+03</pdfrwt>
<pdfrwt beam="2">  1       21 0.26858044E-01 0.30691406E+03</pdfrwt>
<totfact> 0.17672225E+04</totfact>
</mgrwt>
</event>
<event>
 4    0  0.1170969E-001  0.3887837E+03  0.7546771E-02  0.1047734E+00
         21   -1    0    0  503  501  0.00000000000E+00  0.00000000000E+00  0.33026403818E+03  0.33026403818E+03  0.00000000000E+00 0.  1.
         21   -1    0    0  501  502 -0.00000000000E+00 -0.00000000000E+00 -0.65872853215E+03  0.65872853215E+03  0.00000000000E+00 0.  1.
         25    1    1    2    0    0  0.19447741496E+03  0.31258006171E+03  0.12177207430E+03  0.40740790124E+03  0.12500000000E+03 0.  0.
         21    1    1    2  503  502 -0.19447741496E+03 -0.31258006171E+03 -0.45023656827E+03  0.58158466909E+03  0.00000000000E+00 0.  1.
<mgrwt>
<rscale>  3 0.38878369E+03</rscale>
<asrwt>0</asrwt>
<pdfrwt beam="1">  1       21 0.50809852E-01 0.38878369E+03</pdfrwt>
<pdfrwt beam="2">  1       21 0.10134285E+00 0.38878369E+03</pdfrwt>
<totfact> 0.26014384E+03</totfact>
</mgrwt>
</event>
<event>
 4    0  0.1097362E-001  0.2866088E+03  0.7546771E-02  0.1092133E+00
         21   -1    0    0  503  501  0.00000000000E+00  0.00000000000E+00  0.14410445605E+04  0.14410445605E+04  0.00000000000E+00 0. -1.
         21   -1    0    0  501  502 -0.00000000000E+00 -0.00000000000E+00 -0.89892305773E+02  0.89892305773E+02  0.00000000000E+00 0. -1.
         25    1    1    2    0    0 -0.14057505571E+03 -0.21623656484E+03  0.11961970369E+04  0.12300536368E+04  0.12500000000E+03 0.  0.
         21    1    1    2  503  502  0.14057505571E+03  0.21623656484E+03  0.15495521784E+03  0.30088322950E+03  0.00000000000E+00 0. -1.
<mgrwt>
<rscale>  3 0.28660879E+03</rscale>
<asrwt>0</asrwt>
<pdfrwt beam="1">  1       21 0.22169915E+00 0.28660879E+03</pdfrwt>
<pdfrwt beam="2">  1       21 0.13829587E-01 0.28660879E+03</pdfrwt>
<totfact> 0.41332492E+03</totfact>
</mgrwt>
</event>
<event>
 4    0  0.1401791E-001  0.2645048E+03  0.7546771E-02  0.1104466E+00
         21   -1    0    0  503  501  0.00000000000E+00  0.00000000000E+00  0.17592085936E+03  0.17592085936E+03  0.00000000000E+00 0. -1.
         21   -1    0    0  501  502 -0.00000000000E+00 -0.00000000000E+00 -0.35777307848E+03  0.35777307848E+03  0.00000000000E+00 0. -1.
         25    1    1    2    0    0  0.20345991848E+03 -0.11376229700E+03 -0.13073693859E+03  0.29505075116E+03  0.12500000000E+03 0.  0.
         21    1    1    2  503  502 -0.20345991848E+03  0.11376229700E+03 -0.51115280528E+02  0.23864318669E+03  0.00000000000E+00 0. -1.
<mgrwt>
<rscale>  3 0.26450482E+03</rscale>
<asrwt>0</asrwt>
<pdfrwt beam="1">  1       21 0.27064748E-01 0.26450482E+03</pdfrwt>
<pdfrwt beam="2">  1       21 0.55042012E-01 0.26450482E+03</pdfrwt>
<totfact> 0.39200279E+04</totfact>
</mgrwt>
</event>
<event>
 4    0  0.1475891E-001  0.2641565E+03  0.7546771E-02  0.1104671E+00
         21   -1    0    0  502  501  0.00000000000E+00  0.00000000000E+00  0.31483973431E+03  0.31483973431E+03  0.00000000000E+00 0.  1.
         21   -1    0    0  503  502 -0.00000000000E+00 -0.00000000000E+00 -0.19607506425E+03  0.19607506425E+03  0.00000000000E+00 0.  1.
         25    1    1    2    0    0  0.21448196707E+03 -0.90283700820E+02  0.66880680216E+02  0.27249162596E+03  0.12500000000E+03 0.  0.
         21    1    1    2  503  501 -0.21448196707E+03  0.90283700820E+02  0.51883989844E+02  0.23842317260E+03  0.00000000000E+00 0.  1.
<mgrwt>
<rscale>  3 0.26415651E+03</rscale>
<asrwt>0</asrwt>
<pdfrwt beam="1">  1       21 0.48436882E-01 0.26415651E+03</pdfrwt>
<pdfrwt beam="2">  1       21 0.30165394E-01 0.26415651E+03</pdfrwt>
<totfact> 0.41552660E+04</totfact>
</mgrwt>
</event>
<event>
 4    0  0.1485196E-001  0.2818470E+03  0.7546771E-02  0.1094684E+00
         21   -1    0    0  503  501  0.00000000000E+00  0.00000000000E+00  0.91313545779E+02  0.91313545779E+02  0.00000000000E+00 0. -1.
         21   -1    0    0  501  502 -0.00000000000E+00 -0.00000000000E+00 -0.97187850477E+03  0.97187850477E+03  0.00000000000E+00 0. -1.
         25    1    1    2    0    0 -0.65665003874E+02 -0.24392795085E+03 -0.22500402064E+03  0.36064462736E+03  0.12500000000E+03 0.  0.
         21    1    1    2  503  502  0.65665003874E+02  0.24392795085E+03 -0.65556093834E+03  0.70254742318E+03  0.00000000000E+00 0. -1.
<mgrwt>
<rscale>  3 0.28184701E+03</rscale>
<asrwt>0</asrwt>
<pdfrwt beam="1">  1       21 0.14048239E-01 0.28184701E+03</pdfrwt>
<pdfrwt beam="2">  1       21 0.14951976E+00 0.28184701E+03</pdfrwt>
<totfact> 0.12606127E+04</totfact>
</mgrwt>
</event>
<event>
 4    0  0.1584955E-001  0.2441686E+03  0.7546771E-02  0.1117047E+00
         21   -1    0    0  503  501  0.00000000000E+00  0.00000000000E+00  0.14170178543E+03  0.14170178543E+03  0.00000000000E+00 0.  1.
         21   -1    0    0  501  502 -0.00000000000E+00 -0.00000000000E+00 -0.10861045528E+04  0.10861045528E+04  0.00000000000E+00 0. -1.
         25    1    1    2    0    0 -0.11775222421E+03  0.17357334380E+03  0.16071503974E+02  0.24469692524E+03  0.12500000000E+03 0.  0.
         21    1    1    2  503  502  0.11775222421E+03 -0.17357334380E+03 -0.96047427138E+03  0.98310941302E+03  0.00000000000E+00 0. -1.
<mgrwt>
<rscale>  3 0.24416857E+03</rscale>
<asrwt>0</asrwt>
<pdfrwt beam="1">  1       21 0.21800274E-01 0.24416857E+03</pdfrwt>
<pdfrwt beam="2">  1       21 0.16709301E+00 0.24416857E+03</pdfrwt>
<totfact> 0.42142422E+03</totfact>
</mgrwt>
</event>
<event>
 4    0  0.1003929E-001  0.2683296E+03  0.7546771E-02  0.1102239E+00
         21   -1    0    0  503  501  0.00000000000E+00  0.00000000000E+00  0.21205751483E+04  0.21205751483E+04  0.00000000000E+00 0.  1.
         21   -1    0    0  501  502 -0.00000000000E+00 -0.00000000000E+00 -0.34466734983E+02  0.34466734983E+02  0.00000000000E+00 0.  1.
         25    1    1    2    0    0  0.12118336432E+03  0.20418222509E+03  0.71838935849E+03  0.76686638942E+03  0.12500000000E+03 0.  0.
         21    1    1    2  503  502 -0.12118336432E+03 -0.20418222509E+03  0.13677190548E+04  0.13881754939E+04  0.00000000000E+00 0.  1.
<mgrwt>
<rscale>  3 0.26832963E+03</rscale>
<asrwt>0</asrwt>
<pdfrwt beam="1">  1       21 0.32624223E+00 0.26832963E+03</pdfrwt>
<pdfrwt beam="2">  1       21 0.53025763E-02 0.26832963E+03</pdfrwt>
<totfact> 0.54254155E+03</totfact>
</mgrwt>
</event>
<event>
 4    0  0.1003929E-001  0.3743402E+03  0.7546771E-02  0.1053046E+00
         21   -1    0    0  503  501  0.00000000000E+00  0.00000000000E+00  0.11840888311E+04  0.11840888311E+04  0.00000000000E+00 0.  1.
         21   -1    0    0  501  502 -0.00000000000E+00 -0.00000000000E+00 -0.13071254019E+03  0.13071254019E+03  0.00000000000E+00 0. -1.
         25    1    1    2    0    0  0.88803217187E+02  0.34149608547E+03  0.79094288412E+03  0.87505498896E+03  0.12500000000E+03 0.  0.
         21    1    1    2  503  502 -0.88803217187E+02 -0.34149608547E+03  0.26243340681E+03  0.43974638234E+03  0.00000000000E+00 0. -1.
<mgrwt>
<rscale>  3 0.37434020E+03</rscale>
<asrwt>0</asrwt>
<pdfrwt beam="1">  1       21 0.18216750E+00 0.37434020E+03</pdfrwt>
<pdfrwt beam="2">  1       21 0.20109622E-01 0.37434020E+03</pdfrwt>
<totfact> 0.35644855E+03</totfact>
</mgrwt>
</event>
<event>
 4    0  0.1003929E-001  0.2580886E+03  0.7546771E-02  0.1108297E+00
         21   -1    0    0  502  501  0.00000000000E+00  0.00000000000E+00  0.42540140423E+03  0.42540140423E+03  0.00000000000E+00 0.  1.
         21   -1    0    0  503  502 -0.00000000000E+00 -0.00000000000E+00 -0.14334939531E+03  0.14334939531E+03  0.00000000000E+00 0. -1.
         25    1    1    2    0    0 -0.26833816623E+02  0.22419784095E+03  0.20687397477E+03  0.33076663532E+03  0.12500000000E+03 0.  0.
         21    1    1    2  503  501  0.26833816623E+02 -0.22419784095E+03  0.75178034155E+02  0.23798416423E+03  0.00000000000E+00 0. -1.
<mgrwt>
<rscale>  3 0.25808860E+03</rscale>
<asrwt>0</asrwt>
<pdfrwt beam="1">  1       21 0.65446369E-01 0.25808860E+03</pdfrwt>
<pdfrwt beam="2">  1       21 0.22053753E-01 0.25808860E+03</pdfrwt>
<totfact> 0.40022022E+04</totfact>
</mgrwt>
</event>
<event>
 4    0  0.1035827E-001  0.2511226E+03  0.7546771E-02  0.1112597E+00
         21   -1    0    0  502  501  0.00000000000E+00  0.00000000000E+00  0.84229897640E+02  0.84229897640E+02  0.00000000000E+00 0.  1.
         21   -1    0    0  503  502 -0.00000000000E+00 -0.00000000000E+00 -0.70187240542E+03  0.70187240542E+03  0.00000000000E+00 0.  1.
         25    1    1    2    0    0 -0.24210673335E+02  0.21645187664E+03 -0.43307186251E+03  0.50061343340E+03  0.12500000000E+03 0.  0.
         21    1    1    2  503  501  0.24210673335E+02 -0.21645187664E+03 -0.18457064527E+03  0.28548886966E+03  0.00000000000E+00 0.  1.
<mgrwt>
<rscale>  3 0.25112262E+03</rscale>
<asrwt>0</asrwt>
<pdfrwt beam="1">  1       21 0.12958446E-01 0.25112262E+03</pdfrwt>
<pdfrwt beam="2">  1       21 0.10798037E+00 0.25112262E+03</pdfrwt>
<totfact> 0.33887022E+04</totfact>
</mgrwt>
</event>
<event>
 4    0  0.1003929E-001  0.2797560E+03  0.7546771E-02  0.1095822E+00
         21   -1    0    0  503  501  0.00000000000E+00  0.00000000000E+00  0.10056827847E+04  0.10056827847E+04  0.00000000000E+00 0. -1.
         21   -1    0    0  501  502 -0.00000000000E+00 -0.00000000000E+00 -0.76048029613E+02  0.76048029613E+02  0.00000000000E+00 0.  1.
         25    1    1    2    0    0 -0.24992935176E+03 -0.13180574840E+02  0.64291170703E+03  0.70114112093E+03  0.12500000000E+03 0.  0.
         21    1    1    2  503  502  0.24992935176E+03  0.13180574840E+02  0.28672304808E+03  0.38058969340E+03  0.00000000000E+00 0.  1.
<mgrwt>
<rscale>  3 0.27975598E+03</rscale>
<asrwt>0</asrwt>
<pdfrwt beam="1">  1       21 0.15472042E+00 0.27975598E+03</pdfrwt>
<pdfrwt beam="2">  1       21 0.11699698E-01 0.27975598E+03</pdfrwt>
<totfact> 0.16044910E+04</totfact>
</mgrwt>
</event>
<event>
 4    0  0.1154403E-001  0.2805030E+03  0.7546771E-02  0.1095415E+00
         21   -1    0    0  503  501  0.00000000000E+00  0.00000000000E+00  0.20989413677E+03  0.20989413677E+03  0.00000000000E+00 0. -1.
         21   -1    0    0  501  502 -0.00000000000E+00 -0.00000000000E+00 -0.79226293456E+03  0.79226293456E+03  0.00000000000E+00 0. -1.
         25    1    1    2    0    0 -0.17109915245E+03 -0.18379881524E+03  0.81730794795E+02  0.29216749865E+03  0.12500000000E+03 0.  0.
         21    1    1    2  503  502  0.17109915245E+03  0.18379881524E+03 -0.66409959258E+03  0.70998957268E+03  0.00000000000E+00 0. -1.
<mgrwt>
<rscale>  3 0.28050298E+03</rscale>
<asrwt>0</asrwt>
<pdfrwt beam="1">  1       21 0.32291406E-01 0.28050298E+03</pdfrwt>
<pdfrwt beam="2">  1       21 0.12188660E+00 0.28050298E+03</pdfrwt>
<totfact> 0.44089718E+03</totfact>
</mgrwt>
</event>
<event>
 4    0  0.1414480E-001  0.3887526E+03  0.7546771E-02  0.1047745E+00
         21   -1    0    0  503  501  0.00000000000E+00  0.00000000000E+00  0.82391795726E+03  0.82391795726E+03  0.00000000000E+00 0.  1.
         21   -1    0    0  501  502 -0.00000000000E+00 -0.00000000000E+00 -0.18017171702E+03  0.18017171702E+03  0.00000000000E+00 0.  1.
         25    1    1    2    0    0  0.28472667958E+03  0.23331163754E+03  0.42460766272E+03  0.57569112336E+03  0.12500000000E+03 0.  0.
         21    1    1    2  503  502 -0.28472667958E+03 -0.23331163754E+03  0.21913857753E+03  0.42839855092E+03  0.00000000000E+00 0.  1.
<mgrwt>
<rscale>  3 0.38875262E+03</rscale>
<asrwt>0</asrwt>
<pdfrwt beam="1">  1       21 0.12675661E+00 0.38875262E+03</pdfrwt>
<pdfrwt beam="2">  1       21 0.27718726E-01 0.38875262E+03</pdfrwt>
<totfact> 0.51223148E+03</totfact>
</mgrwt>
</event>
<event>
 4    0  0.1483763E-001  0.5024485E+03  0.7546771E-02  0.1013142E+00
         21   -1    0    0  503  501  0.00000000000E+00  0.00000000000E+00  0.76762820959E+03  0.76762820959E+03  0.00000000000E+00 0. -1.
         21   -1    0    0  501  502 -0.00000000000E+00 -0.00000000000E+00 -0.32740087448E+03  0.32740087448E+03  0.00000000000E+00 0. -1.
         25    1    1    2    0    0  0.46475825117E+03 -0.14432334665E+03  0.31320321396E+03  0.59207323335E+03  0.12500000000E+03 0.  0.
         21    1    1    2  503  502 -0.46475825117E+03  0.14432334665E+03  0.12702412115E+03  0.50295585072E+03  0.00000000000E+00 0. -1.
<mgrwt>
<rscale>  3 0.50244847E+03</rscale>
<asrwt>0</asrwt>
<pdfrwt beam="1">  1       21 0.11809665E+00 0.50244847E+03</pdfrwt>
<pdfrwt beam="2">  1       21 0.50369365E-01 0.50244847E+03</pdfrwt>
<totfact> 0.17364569E+03</totfact>
</mgrwt>
</event>
<event>
 4    0  0.1762890E-001  0.2499235E+03  0.7546771E-02  0.1113353E+00
         21   -1    0    0  503  501  0.00000000000E+00  0.00000000000E+00  0.13712819364E+04  0.13712819364E+04  0.00000000000E+00 0. -1.
         21   -1    0    0  501  502 -0.00000000000E+00 -0.00000000000E+00 -0.20385286493E+03  0.20385286493E+03  0.00000000000E+00 0.  1.
         25    1    1    2    0    0 -0.15870606095E+03  0.14713649773E+03  0.12983583031E+04  0.13221936492E+04  0.12500000000E+03 0.  0.
         21    1    1    2  503  502  0.15870606095E+03 -0.14713649773E+03 -0.13092923163E+03  0.25294115213E+03  0.00000000000E+00 0.  1.
<mgrwt>
<rscale>  3 0.24992351E+03</rscale>
<asrwt>0</asrwt>
<pdfrwt beam="1">  1       21 0.21096645E+00 0.24992351E+03</pdfrwt>
<pdfrwt beam="2">  1       21 0.31361980E-01 0.24992351E+03</pdfrwt>
<totfact> 0.10550816E+03</totfact>
</mgrwt>
</event>
<event>
 4    0  0.1017307E-001  0.3310917E+03  0.7546771E-02  0.1070655E+00
         21   -1    0    0  503  501  0.00000000000E+00  0.00000000000E+00  0.10906099958E+03  0.10906099958E+03  0.00000000000E+00 0. -1.
         21   -1    0    0  501  502 -0.00000000000E+00 -0.00000000000E+00 -0.15576448006E+04  0.15576448006E+04  0.00000000000E+00 0. -1.
         25    1    1    2    0    0  0.18958445539E+03 -0.24094484050E+03 -0.21308333138E+03  0.39373365109E+03  0.12500000000E+03 0.  0.
         21    1    1    2  503  502 -0.18958445539E+03  0.24094484050E+03 -0.12355004696E+04  0.12729721491E+04  0.00000000000E+00 0. -1.
<mgrwt>
<rscale>  3 0.33109165E+03</rscale>
<asrwt>0</asrwt>
<pdfrwt beam="1">  1       21 0.16778616E-01 0.33109165E+03</pdfrwt>
<pdfrwt beam="2">  1       21 0.23963765E+00 0.33109165E+03</pdfrwt>
<totfact> 0.21785503E+03</totfact>
</mgrwt>
</event>
<event>
 4    0  0.1228203E-001  0.2674172E+03  0.7546771E-02  0.1102767E+00
         21   -1    0    0  502  501  0.00000000000E+00  0.00000000000E+00  0.60148362503E+02  0.60148362503E+02  0.00000000000E+00 0.  1.
         21   -1    0    0  503  502 -0.00000000000E+00 -0.00000000000E+00 -0.10553139706E+04  0.10553139706E+04  0.00000000000E+00 0.  1.
         25    1    1    2    0    0 -0.10827769357E+03 -0.21014970684E+03 -0.51925592239E+03  0.58407077580E+03  0.12500000000E+03 0.  0.
         21    1    1    2  503  501  0.10827769357E+03  0.21014970684E+03 -0.47590968566E+03  0.53139155725E+03  0.00000000000E+00 0.  1.
<mgrwt>
<rscale>  3 0.26741720E+03</rscale>
<asrwt>0</asrwt>
<pdfrwt beam="1">  1       21 0.92535945E-02 0.26741720E+03</pdfrwt>
<pdfrwt beam="2">  1       21 0.16235599E+00 0.26741720E+03</pdfrwt>
<totfact> 0.21523952E+04</totfact>
</mgrwt>
</event>
<event>
 4    0  0.1079912E-001  0.3917218E+03  0.7546771E-02  0.1046684E+00
         21   -1    0    0  503  501  0.00000000000E+00  0.00000000000E+00  0.39580299091E+03  0.39580299091E+03  0.00000000000E+00 0.  1.
         21   -1    0    0  501  502 -0.00000000000E+00 -0.00000000000E+00 -0.61060330970E+03  0.61060330970E+03  0.00000000000E+00 0.  1.
         25    1    1    2    0    0  0.34631607135E+03  0.13373922468E+03  0.20818914275E+03  0.44360874726E+03  0.12500000000E+03 0.  0.
         21    1    1    2  503  502 -0.34631607135E+03 -0.13373922468E+03 -0.42298946153E+03  0.56279755335E+03  0.00000000000E+00 0.  1.
<mgrwt>
<rscale>  3 0.39172184E+03</rscale>
<asrwt>0</asrwt>
<pdfrwt beam="1">  1       21 0.60892768E-01 0.39172184E+03</pdfrwt>
<pdfrwt beam="2">  1       21 0.93938971E-01 0.39172184E+03</pdfrwt>
<totfact> 0.21101644E+03</totfact>
</mgrwt>
</event>
<event>
 4    0  0.1047356E-001  0.2504722E+03  0.7546771E-02  0.1113007E+00
         21   -1    0    0  502  501  0.00000000000E+00  0.00000000000E+00  0.30042095760E+03  0.30042095760E+03  0.00000000000E+00 0. -1.
         21   -1    0    0  503  502 -0.00000000000E+00 -0.00000000000E+00 -0.95210639111E+03  0.95210639111E+03  0.00000000000E+00 0. -1.
         25    1    1    2    0    0 -0.21695197664E+03  0.65684484651E+01  0.23270662954E+03  0.34188986547E+03  0.12500000000E+03 0.  0.
         21    1    1    2  503  501  0.21695197664E+03 -0.65684484651E+01 -0.88439206305E+03  0.91063748323E+03  0.00000000000E+00 0. -1.
<mgrwt>
<rscale>  3 0.25047216E+03</rscale>
<asrwt>0</asrwt>
<pdfrwt beam="1">  1       21 0.46218610E-01 0.25047216E+03</pdfrwt>
<pdfrwt beam="2">  1       21 0.14647790E+00 0.25047216E+03</pdfrwt>
<totfact> 0.13549527E+03</totfact>
</mgrwt>
</event>
<event>
 4    0  0.1300831E-001  0.3097314E+03  0.7546771E-02  0.1080475E+00
         21   -1    0    0  503  501  0.00000000000E+00  0.00000000000E+00  0.16478033819E+03  0.16478033819E+03  0.00000000000E+00 0.  1.
         21   -1    0    0  501  502 -0.00000000000E+00 -0.00000000000E+00 -0.66157155060E+03  0.66157155060E+03  0.00000000000E+00 0.  1.
         25    1    1    2    0    0 -0.13243224315E+03 -0.25053985093E+03 -0.75809933048E+02  0.31887405331E+03  0.12500000000E+03 0.  0.
         21    1    1    2  503  502  0.13243224315E+03  0.25053985093E+03 -0.42098127936E+03  0.50747783548E+03  0.00000000000E+00 0.  1.
<mgrwt>
<rscale>  3 0.30973136E+03</rscale>
<asrwt>0</asrwt>
<pdfrwt beam="1">  1       21 0.25350821E-01 0.30973136E+03</pdfrwt>
<pdfrwt beam="2">  1       21 0.10178024E+00 0.30973136E+03</pdfrwt>
<totfact> 0.10874767E+04</totfact>
</mgrwt>
</event>
<event>
 4    0  0.1096012E-001  0.2902218E+03  0.7546771E-02  0.1090233E+00
         21   -1    0    0  503  501  0.00000000000E+00  0.00000000000E+00  0.36754202131E+03  0.36754202131E+03  0.00000000000E+00 0.  1.
         21   -1    0    0  501  502 -0.00000000000E+00 -0.00000000000E+00 -0.49871788175E+03  0.49871788175E+03  0.00000000000E+00 0.  1.
         25    1    1    2    0    0  0.25908159087E+03 -0.38476382277E+02  0.26388769542E+03  0.39225682724E+03  0.12500000000E+03 0.  0.
         21    1    1    2  503  502 -0.25908159087E+03  0.38476382277E+02 -0.39506355586E+03  0.47400307582E+03  0.00000000000E+00 0.  1.
<mgrwt>
<rscale>  3 0.29022182E+03</rscale>
<asrwt>0</asrwt>
<pdfrwt beam="1">  1       21 0.56544927E-01 0.29022182E+03</pdfrwt>
<pdfrwt beam="2">  1       21 0.76725828E-01 0.29022182E+03</pdfrwt>
<totfact> 0.41648021E+03</totfact>
</mgrwt>
</event>
<event>
 4    0  0.1003929E-001  0.2772821E+03  0.7546771E-02  0.1097183E+00
         21   -1    0    0  502  501  0.00000000000E+00  0.00000000000E+00  0.12359616195E+04  0.12359616195E+04  0.00000000000E+00 0. -1.
         21   -1    0    0  503  502 -0.00000000000E+00 -0.00000000000E+00 -0.75029818298E+02  0.75029818298E+02  0.00000000000E+00 0. -1.
         25    1    1    2    0    0 -0.24614180977E+03  0.25972366973E+02  0.27266089132E+03  0.38888213641E+03  0.12500000000E+03 0.  0.
         21    1    1    2  503  501  0.24614180977E+03 -0.25972366973E+02  0.88827090986E+03  0.92210930136E+03  0.00000000000E+00 0. -1.
<mgrwt>
<rscale>  3 0.27728208E+03</rscale>
<asrwt>0</asrwt>
<pdfrwt beam="1">  1       21 0.19014793E+00 0.27728208E+03</pdfrwt>
<pdfrwt beam="2">  1       21 0.11543050E-01 0.27728208E+03</pdfrwt>
<totfact> 0.92188782E+03</totfact>
</mgrwt>
</event>
<event>
 4    0  0.1102454E-001  0.5265846E+03  0.7546771E-02  0.1007064E+00
         21   -1    0    0  503  501  0.00000000000E+00  0.00000000000E+00  0.18398483375E+03  0.18398483375E+03  0.00000000000E+00 0.  1.
         21   -1    0    0  501  502 -0.00000000000E+00 -0.00000000000E+00 -0.15039190385E+04  0.15039190385E+04  0.00000000000E+00 0.  1.
         25    1    1    2    0    0 -0.37076959343E+03  0.35241486125E+03 -0.80612611192E+03  0.96287622993E+03  0.12500000000E+03 0.  0.
         21    1    1    2  503  502  0.37076959343E+03 -0.35241486125E+03 -0.51380809280E+03  0.72502764228E+03  0.00000000000E+00 0.  1.
<mgrwt>
<rscale>  3 0.52658459E+03</rscale>
<asrwt>0</asrwt>
<pdfrwt beam="1">  1       21 0.28305360E-01 0.52658459E+03</pdfrwt>
<pdfrwt beam="2">  1       21 0.23137216E+00 0.52658459E+03</pdfrwt>
<totfact> 0.81470057E+02</totfact>
</mgrwt>
</event>
<event>
 4    0  0.1008426E-001  0.4987973E+03  0.7546771E-02  0.1014093E+00
         21   -1    0    0  503  501  0.00000000000E+00  0.00000000000E+00  0.11372589719E+04  0.11372589719E+04  0.00000000000E+00 0. -1.
         21   -1    0    0  501  502 -0.00000000000E+00 -0.00000000000E+00 -0.28998372408E+03  0.28998372408E+03  0.00000000000E+00 0. -1.
         25    1    1    2    0    0 -0.71444739260E+02 -0.47756616558E+03  0.79905610275E+03  0.94196042837E+03  0.12500000000E+03 0.  0.
         21    1    1    2  503  502  0.71444739260E+02  0.47756616558E+03  0.48219145022E+02  0.48528226757E+03  0.00000000000E+00 0. -1.
<mgrwt>
<rscale>  3 0.49879735E+03</rscale>
<asrwt>0</asrwt>
<pdfrwt beam="1">  1       21 0.17496292E+00 0.49879735E+03</pdfrwt>
<pdfrwt beam="2">  1       21 0.44612881E-01 0.49879735E+03</pdfrwt>
<totfact> 0.77820624E+02</totfact>
</mgrwt>
</event>
<event>
 4    0  0.1370523E-001  0.2738401E+03  0.7546771E-02  0.1099102E+00
         21   -1    0    0  502  501  0.00000000000E+00  0.00000000000E+00  0.17866508312E+03  0.17866508312E+03  0.00000000000E+00 0.  1.
         21   -1    0    0  503  502 -0.00000000000E+00 -0.00000000000E+00 -0.46358661999E+03  0.46358661999E+03  0.00000000000E+00 0.  1.
         25    1    1    2    0    0  0.10564811519E+02 -0.24341690220E+03 -0.87688624433E+01  0.27398046731E+03  0.12500000000E+03 0.  0.
         21    1    1    2  503  501 -0.10564811519E+02  0.24341690220E+03 -0.27615267443E+03  0.36827123579E+03  0.00000000000E+00 0.  1.
<mgrwt>
<rscale>  3 0.27384011E+03</rscale>
<asrwt>0</asrwt>
<pdfrwt beam="1">  1       21 0.27486936E-01 0.27384011E+03</pdfrwt>
<pdfrwt beam="2">  1       21 0.71321019E-01 0.27384011E+03</pdfrwt>
<totfact> 0.21529804E+04</totfact>
</mgrwt>
</event>
<event>
 4    0  0.1322625E-001  0.3253324E+03  0.7546771E-02  0.1073221E+00
         21   -1    0    0  503  501  0.00000000000E+00  0.00000000000E+00  0.90384481036E+03  0.90384481036E+03  0.00000000000E+00 0.  1.
         21   -1    0    0  501  502 -0.00000000000E+00 -0.00000000000E+00 -0.11176959819E+03  0.11176959819E+03  0.00000000000E+00 0.  1.
         25    1    1    2    0    0 -0.17823943640E+03  0.24175789262E+03  0.32175654111E+03  0.45756796990E+03  0.12500000000E+03 0.  0.
         21    1    1    2  503  502  0.17823943640E+03 -0.24175789262E+03  0.47031867106E+03  0.55804643864E+03  0.00000000000E+00 0.  1.
<mgrwt>
<rscale>  3 0.32533241E+03</rscale>
<asrwt>0</asrwt>
<pdfrwt beam="1">  1       21 0.13905304E+00 0.32533241E+03</pdfrwt>
<pdfrwt beam="2">  1       21 0.17195323E-01 0.32533241E+03</pdfrwt>
<totfact> 0.10306222E+04</totfact>
</mgrwt>
</event>
<event>
 4    0  0.1270500E-001  0.2871320E+03  0.7546771E-02  0.1091856E+00
         21   -1    0    0  503  501  0.00000000000E+00  0.00000000000E+00  0.27148152515E+03  0.27148152515E+03  0.00000000000E+00 0.  1.
         21   -1    0    0  501  502 -0.00000000000E+00 -0.00000000000E+00 -0.44717237859E+03  0.44717237859E+03  0.00000000000E+00 0.  1.
         25    1    1    2    0    0 -0.27079953374E+02 -0.25707282943E+03  0.13265110754E+03  0.31629271227E+03  0.12500000000E+03 0.  0.
         21    1    1    2  503  502  0.27079953374E+02  0.25707282943E+03 -0.30834196098E+03  0.40236119147E+03  0.00000000000E+00 0.  1.
<mgrwt>
<rscale>  3 0.28713196E+03</rscale>
<asrwt>0</asrwt>
<pdfrwt beam="1">  1       21 0.41766389E-01 0.28713196E+03</pdfrwt>
<pdfrwt beam="2">  1       21 0.68795750E-01 0.28713196E+03</pdfrwt>
<totfact> 0.10059247E+04</totfact>
</mgrwt>
</event>
<event>
 4    0  0.1264126E-001  0.2516267E+03  0.7546771E-02  0.1112281E+00
         21   -1    0    0  503  501  0.00000000000E+00  0.00000000000E+00  0.10003034077E+03  0.10003034077E+03  0.00000000000E+00 0.  1.
         21   -1    0    0  501  502 -0.00000000000E+00 -0.00000000000E+00 -0.88461570745E+03  0.88461570745E+03  0.00000000000E+00 0.  1.
         25    1    1    2    0    0 -0.87455862193E+02 -0.20010608839E+03 -0.10824221252E+03  0.27392033698E+03  0.12500000000E+03 0.  0.
         21    1    1    2  503  502  0.87455862193E+02  0.20010608839E+03 -0.67634315416E+03  0.71072571124E+03  0.00000000000E+00 0.  1.
<mgrwt>
<rscale>  3 0.25162666E+03</rscale>
<asrwt>0</asrwt>
<pdfrwt beam="1">  1       21 0.15389283E-01 0.25162666E+03</pdfrwt>
<pdfrwt beam="2">  1       21 0.13609472E+00 0.25162666E+03</pdfrwt>
<totfact> 0.13881655E+04</totfact>
</mgrwt>
</event>
<event>
 4    0  0.1003929E-001  0.3945905E+03  0.7546771E-02  0.1045669E+00
         21   -1    0    0  503  501  0.00000000000E+00  0.00000000000E+00  0.10026633963E+04  0.10026633963E+04  0.00000000000E+00 0.  1.
         21   -1    0    0  501  502 -0.00000000000E+00 -0.00000000000E+00 -0.26368930910E+03  0.26368930910E+03  0.00000000000E+00 0.  1.
         25    1    1    2    0    0 -0.64260095983E+01  0.37421301253E+03  0.79535880527E+03  0.88786108230E+03  0.12500000000E+03 0.  0.
         21    1    1    2  503  502  0.64260095983E+01 -0.37421301253E+03 -0.56384718047E+02  0.37849162312E+03  0.00000000000E+00 0.  1.
<mgrwt>
<rscale>  3 0.39459051E+03</rscale>
<asrwt>0</asrwt>
<pdfrwt beam="1">  1       21 0.15425591E+00 0.39459051E+03</pdfrwt>
<pdfrwt beam="2">  1       21 0.40567587E-01 0.39459051E+03</pdfrwt>
<totfact> 0.14147296E+03</totfact>
</mgrwt>
</event>
<event>
 4    0  0.1777035E-001  0.2477031E+03  0.7546771E-02  0.1114765E+00
         21   -1    0    0  503  501  0.00000000000E+00  0.00000000000E+00  0.10345652389E+04  0.10345652389E+04  0.00000000000E+00 0. -1.
         21   -1    0    0  501  502 -0.00000000000E+00 -0.00000000000E+00 -0.21371426369E+03  0.21371426369E+03  0.00000000000E+00 0.  1.
         25    1    1    2    0    0 -0.43796462087E+02  0.20931723832E+03  0.96112316558E+03  0.99252938282E+03  0.12500000000E+03 0.  0.
         21    1    1    2  503  502  0.43796462087E+02 -0.20931723832E+03 -0.14027219039E+03  0.25575011974E+03  0.00000000000E+00 0.  1.
<mgrwt>
<rscale>  3 0.24770312E+03</rscale>
<asrwt>0</asrwt>
<pdfrwt beam="1">  1       21 0.15916388E+00 0.24770312E+03</pdfrwt>
<pdfrwt beam="2">  1       21 0.32879118E-01 0.24770312E+03</pdfrwt>
<totfact> 0.21677041E+03</totfact>
</mgrwt>
</event>
<event>
 4    0  0.1003929E-001  0.3096314E+03  0.7546771E-02  0.1080523E+00
         21   -1    0    0  502  501  0.00000000000E+00  0.00000000000E+00  0.34676185216E+02  0.34676185216E+02  0.00000000000E+00 0.  1.
         21   -1    0    0  503  502 -0.00000000000E+00 -0.00000000000E+00 -0.25348740771E+04  0.25348740771E+04  0.00000000000E+00 0.  1.
         25    1    1    2    0    0  0.49667616295E+02  0.27889015352E+03 -0.13220208248E+04  0.13577962480E+04  0.12500000000E+03 0.  0.
         21    1    1    2  503  501 -0.49667616295E+02 -0.27889015352E+03 -0.11781770671E+04  0.12117540143E+04  0.00000000000E+00 0.  1.
<mgrwt>
<rscale>  3 0.30963138E+03</rscale>
<asrwt>0</asrwt>
<pdfrwt beam="1">  1       21 0.53347975E-02 0.30963138E+03</pdfrwt>
<pdfrwt beam="2">  1       21 0.38998065E+00 0.30963138E+03</pdfrwt>
<totfact> 0.21262082E+03</totfact>
</mgrwt>
</event>
<event>
 4    0  0.1770409E-001  0.2900339E+03  0.7546771E-02  0.1090331E+00
         21   -1    0    0  502  501  0.00000000000E+00  0.00000000000E+00  0.10206274504E+04  0.10206274504E+04  0.00000000000E+00 0. -1.
         21   -1    0    0  503  502 -0.00000000000E+00 -0.00000000000E+00 -0.38621665968E+03  0.38621665968E+03  0.00000000000E+00 0.  1.
         25    1    1    2    0    0  0.58882404493E+02  0.25500495789E+03  0.95206539685E+03  0.99526287281E+03  0.12500000000E+03 0.  0.
         21    1    1    2  503  501 -0.58882404493E+02 -0.25500495789E+03 -0.31765460611E+03  0.41158123729E+03  0.00000000000E+00 0.  1.
<mgrwt>
<rscale>  3 0.29003391E+03</rscale>
<asrwt>0</asrwt>
<pdfrwt beam="1">  1       21 0.15701961E+00 0.29003391E+03</pdfrwt>
<pdfrwt beam="2">  1       21 0.59417948E-01 0.29003391E+03</pdfrwt>
<totfact> 0.64109619E+02</totfact>
</mgrwt>
</event>
<event>
 4    0  0.1568412E-001  0.3672185E+03  0.7546771E-02  0.1055762E+00
         21   -1    0    0  502  501  0.00000000000E+00  0.00000000000E+00  0.63878946933E+03  0.63878946933E+03  0.00000000000E+00 0.  1.
         21   -1    0    0  503  502 -0.00000000000E+00 -0.00000000000E+00 -0.75925531973E+03  0.75925531973E+03  0.00000000000E+00 0. -1.
         25    1    1    2    0    0  0.31968163279E+03  0.13049180038E+03  0.53984566292E+03  0.65290335891E+03  0.12500000000E+03 0.  0.
         21    1    1    2  503  501 -0.31968163279E+03 -0.13049180038E+03 -0.66031151331E+03  0.74514143015E+03  0.00000000000E+00 0. -1.
<mgrwt>
<rscale>  3 0.36721854E+03</rscale>
<asrwt>0</asrwt>
<pdfrwt beam="1">  1       21 0.98275303E-01 0.36721854E+03</pdfrwt>
<pdfrwt beam="2">  1       21 0.11680851E+00 0.36721854E+03</pdfrwt>
<totfact> 0.41938924E+02</totfact>
</mgrwt>
</event>
<event>
 4    0  0.1003929E-001  0.2519416E+03  0.7546771E-02  0.1112084E+00
         21   -1    0    0  503  501  0.00000000000E+00  0.00000000000E+00  0.10599646224E+03  0.10599646224E+03  0.00000000000E+00 0.  1.
         21   -1    0    0  501  502 -0.00000000000E+00 -0.00000000000E+00 -0.55782074262E+03  0.55782074262E+03  0.00000000000E+00 0. -1.
         25    1    1    2    0    0  0.18828336964E+03 -0.11135043207E+03 -0.15755058453E+03  0.29714766143E+03  0.12500000000E+03 0.  0.
         21    1    1    2  503  502 -0.18828336964E+03  0.11135043207E+03 -0.29427369586E+03  0.36666954343E+03  0.00000000000E+00 0. -1.
<mgrwt>
<rscale>  3 0.25194155E+03</rscale>
<asrwt>0</asrwt>
<pdfrwt beam="1">  1       21 0.16307148E-01 0.25194155E+03</pdfrwt>
<pdfrwt beam="2">  1       21 0.85818576E-01 0.25194155E+03</pdfrwt>
<totfact> 0.38357502E+04</totfact>
</mgrwt>
</event>
<event>
 4    0  0.1347173E-001  0.2747461E+03  0.7546771E-02  0.1098594E+00
         21   -1    0    0  502  501  0.00000000000E+00  0.00000000000E+00  0.94554449916E+03  0.94554449916E+03  0.00000000000E+00 0. -1.
         21   -1    0    0  503  502 -0.00000000000E+00 -0.00000000000E+00 -0.14321525592E+03  0.14321525592E+03  0.00000000000E+00 0.  1.
         25    1    1    2    0    0 -0.14864450265E+03 -0.19433273429E+03  0.79809182081E+03  0.84405921252E+03  0.12500000000E+03 0.  0.
         21    1    1    2  503  501  0.14864450265E+03  0.19433273429E+03  0.42374224288E+01  0.24470054257E+03  0.00000000000E+00 0.  1.
<mgrwt>
<rscale>  3 0.27474606E+03</rscale>
<asrwt>0</asrwt>
<pdfrwt beam="1">  1       21 0.14546838E+00 0.27474606E+03</pdfrwt>
<pdfrwt beam="2">  1       21 0.22033117E-01 0.27474606E+03</pdfrwt>
<totfact> 0.58882868E+03</totfact>
</mgrwt>
</event>
<event>
 4    0  0.1039711E-001  0.2482943E+03  0.7546771E-02  0.1114388E+00
         21   -1    0    0  502  501  0.00000000000E+00  0.00000000000E+00  0.15682425609E+04  0.15682425609E+04  0.00000000000E+00 0. -1.
         21   -1    0    0  503  502 -0.00000000000E+00 -0.00000000000E+00 -0.61771408303E+02  0.61771408303E+02  0.00000000000E+00 0.  1.
         25    1    1    2    0    0 -0.13464310414E+03  0.16702178420E+03  0.13278171594E+04  0.13508325028E+04  0.12500000000E+03 0.  0.
         21    1    1    2  503  501  0.13464310414E+03 -0.16702178420E+03  0.17865399322E+03  0.27918146640E+03  0.00000000000E+00 0.  1.
<mgrwt>
<rscale>  3 0.24829426E+03</rscale>
<asrwt>0</asrwt>
<pdfrwt beam="1">  1       21 0.24126806E+00 0.24829426E+03</pdfrwt>
<pdfrwt beam="2">  1       21 0.95032948E-02 0.24829426E+03</pdfrwt>
<totfact> 0.63282907E+03</totfact>
</mgrwt>
</event>
<event>
 4    0  0.1490350E-001  0.2442043E+03  0.7546771E-02  0.1117023E+00
         21   -1    0    0  503  501  0.00000000000E+00  0.00000000000E+00  0.10032549742E+03  0.10032549742E+03  0.00000000000E+00 0.  1.
         21   -1    0    0  501  502 -0.00000000000E+00 -0.00000000000E+00 -0.57441038365E+03  0.57441038365E+03  0.00000000000E+00 0.  1.
         25    1    1    2    0    0  0.20978511683E+03 -0.97814684272E+00 -0.14362254364E+03  0.28330758383E+03  0.12500000000E+03 0.  0.
         21    1    1    2  503  502 -0.20978511683E+03  0.97814684272E+00 -0.33046234259E+03  0.39142829724E+03  0.00000000000E+00 0.  1.
<mgrwt>
<rscale>  3 0.24420432E+03</rscale>
<asrwt>0</asrwt>
<pdfrwt beam="1">  1       21 0.15434692E-01 0.24420432E+03</pdfrwt>
<pdfrwt beam="2">  1       21 0.88370829E-01 0.24420432E+03</pdfrwt>
<totfact> 0.39789720E+04</totfact>
</mgrwt>
</event>
<event>
 4    0  0.1003929E-001  0.3408161E+03  0.7546771E-02  0.1066449E+00
         21   -1    0    0  503  501  0.00000000000E+00  0.00000000000E+00  0.19403820033E+04  0.19403820033E+04  0.00000000000E+00 0.  1.
         21   -1    0    0  501  502 -0.00000000000E+00 -0.00000000000E+00 -0.17642082195E+03  0.17642082195E+03  0.00000000000E+00 0.  1.
         25    1    1    2    0    0  0.27762370745E+03 -0.15315251210E+03  0.17671560245E+04  0.17997210978E+04  0.12500000000E+03 0.  0.
         21    1    1    2  503  502 -0.27762370745E+03  0.15315251210E+03 -0.31948430936E+01  0.31708172751E+03  0.00000000000E+00 0.  1.
<mgrwt>
<rscale>  3 0.34081610E+03</rscale>
<asrwt>0</asrwt>
<pdfrwt beam="1">  1       21 0.29852029E+00 0.34081610E+03</pdfrwt>
<pdfrwt beam="2">  1       21 0.27141666E-01 0.34081610E+03</pdfrwt>
<totfact> 0.38429412E+02</totfact>
</mgrwt>
</event>
<event>
 4    0  0.1151103E-001  0.2421200E+03  0.7546771E-02  0.1118389E+00
         21   -1    0    0  503  501  0.00000000000E+00  0.00000000000E+00  0.49141970186E+02  0.49141970186E+02  0.00000000000E+00 0. -1.
         21   -1    0    0  501  502 -0.00000000000E+00 -0.00000000000E+00 -0.13896455091E+04  0.13896455091E+04  0.00000000000E+00 0. -1.
         25    1    1    2    0    0  0.20545650494E+03  0.28012499748E+02 -0.34230390700E+03  0.41927799884E+03  0.12500000000E+03 0.  0.
         21    1    1    2  503  502 -0.20545650494E+03 -0.28012499748E+02 -0.99819963195E+03  0.10195094805E+04  0.00000000000E+00 0. -1.
<mgrwt>
<rscale>  3 0.24211996E+03</rscale>
<asrwt>0</asrwt>
<pdfrwt beam="1">  1       21 0.75603034E-02 0.24211996E+03</pdfrwt>
<pdfrwt beam="2">  1       21 0.21379161E+00 0.24211996E+03</pdfrwt>
<totfact> 0.14010405E+04</totfact>
</mgrwt>
</event>
<event>
 4    0  0.1243434E-001  0.2761642E+03  0.7546771E-02  0.1097803E+00
         21   -1    0    0  503  501  0.00000000000E+00  0.00000000000E+00  0.65935913224E+02  0.65935913224E+02  0.00000000000E+00 0. -1.
         21   -1    0    0  501  502 -0.00000000000E+00 -0.00000000000E+00 -0.13427986578E+04  0.13427986578E+04  0.00000000000E+00 0. -1.
         25    1    1    2    0    0  0.22856472118E+03  0.91650731779E+02 -0.32968507125E+03  0.43006852316E+03  0.12500000000E+03 0.  0.
         21    1    1    2  503  502 -0.22856472118E+03 -0.91650731779E+02 -0.94717767333E+03  0.97866604787E+03  0.00000000000E+00 0. -1.
<mgrwt>
<rscale>  3 0.27616424E+03</rscale>
<asrwt>0</asrwt>
<pdfrwt beam="1">  1       21 0.10143987E-01 0.27616424E+03</pdfrwt>
<pdfrwt beam="2">  1       21 0.20658441E+00 0.27616424E+03</pdfrwt>
<totfact> 0.90704890E+03</totfact>
</mgrwt>
</event>
<event>
 4    0  0.1440631E-001  0.2647346E+03  0.7546771E-02  0.1104332E+00
         21   -1    0    0  503  501  0.00000000000E+00  0.00000000000E+00  0.33389986820E+03  0.33389986820E+03  0.00000000000E+00 0.  1.
         21   -1    0    0  501  502 -0.00000000000E+00 -0.00000000000E+00 -0.25766021101E+03  0.25766021101E+03  0.00000000000E+00 0.  1.
         25    1    1    2    0    0 -0.21891355029E+03 -0.80847189509E+02  0.19587141061E+03  0.32931750643E+03  0.12500000000E+03 0.  0.
         21    1    1    2  503  502  0.21891355029E+03  0.80847189509E+02 -0.11963175341E+03  0.26224257277E+03  0.00000000000E+00 0.  1.
<mgrwt>
<rscale>  3 0.26473460E+03</rscale>
<asrwt>0</asrwt>
<pdfrwt beam="1">  1       21 0.51369210E-01 0.26473460E+03</pdfrwt>
<pdfrwt beam="2">  1       21 0.39640033E-01 0.26473460E+03</pdfrwt>
<totfact> 0.21276901E+04</totfact>
</mgrwt>
</event>
<event>
 4    0  0.1312731E-001  0.3040968E+03  0.7546771E-02  0.1083210E+00
         21   -1    0    0  503  501  0.00000000000E+00  0.00000000000E+00  0.25373168559E+03  0.25373168559E+03  0.00000000000E+00 0. -1.
         21   -1    0    0  501  502 -0.00000000000E+00 -0.00000000000E+00 -0.57219749702E+03  0.57219749702E+03  0.00000000000E+00 0. -1.
         25    1    1    2    0    0  0.14910758346E+03  0.23370232078E+03  0.10334498094E+03  0.32117756969E+03  0.12500000000E+03 0.  0.
         21    1    1    2  503  502 -0.14910758346E+03 -0.23370232078E+03 -0.42181079237E+03  0.50475161292E+03  0.00000000000E+00 0. -1.
<mgrwt>
<rscale>  3 0.30409677E+03</rscale>
<asrwt>0</asrwt>
<pdfrwt beam="1">  1       21 0.39035645E-01 0.30409677E+03</pdfrwt>
<pdfrwt beam="2">  1       21 0.88030382E-01 0.30409677E+03</pdfrwt>
<totfact> 0.65387904E+03</totfact>
</mgrwt>
</event>
<event>
 4    0  0.1169290E-001  0.3170281E+03  0.7546771E-02  0.1077025E+00
         21   -1    0    0  502  501  0.00000000000E+00  0.00000000000E+00  0.15561439657E+03  0.15561439657E+03  0.00000000000E+00 0. -1.
         21   -1    0    0  503  502 -0.00000000000E+00 -0.00000000000E+00 -0.86494600826E+03  0.86494600826E+03  0.00000000000E+00 0.  1.
         25    1    1    2    0    0  0.87341979981E+02 -0.27794455942E+03 -0.79855331795E+02  0.32693068623E+03  0.12500000000E+03 0.  0.
         21    1    1    2  503  501 -0.87341979981E+02  0.27794455942E+03 -0.62947627990E+03  0.69362971861E+03  0.00000000000E+00 0.  1.
<mgrwt>
<rscale>  3 0.31702807E+03</rscale>
<asrwt>0</asrwt>
<pdfrwt beam="1">  1       21 0.23940677E-01 0.31702807E+03</pdfrwt>
<pdfrwt beam="2">  1       21 0.13306862E+00 0.31702807E+03</pdfrwt>
<totfact> 0.62011504E+03</totfact>
</mgrwt>
</event>
<event>
 4    0  0.1003929E-001  0.2607237E+03  0.7546771E-02  0.1106709E+00
         21   -1    0    0  503  501  0.00000000000E+00  0.00000000000E+00  0.99974491312E+02  0.99974491312E+02  0.00000000000E+00 0.  1.
         21   -1    0    0  501  502 -0.00000000000E+00 -0.00000000000E+00 -0.60211467921E+03  0.60211467921E+03  0.00000000000E+00 0. -1.
         25    1    1    2    0    0 -0.20279871800E+02  0.22790478292E+03 -0.24319816539E+03  0.35654201846E+03  0.12500000000E+03 0.  0.
         21    1    1    2  503  502  0.20279871800E+02 -0.22790478292E+03 -0.25894202250E+03  0.34554715206E+03  0.00000000000E+00 0. -1.
<mgrwt>
<rscale>  3 0.26072373E+03</rscale>
<asrwt>0</asrwt>
<pdfrwt beam="1">  1       21 0.15380691E-01 0.26072373E+03</pdfrwt>
<pdfrwt beam="2">  1       21 0.92633025E-01 0.26072373E+03</pdfrwt>
<totfact> 0.35621899E+04</totfact>
</mgrwt>
</event>
<event>
 4    0  0.1003929E-001  0.2449201E+03  0.7546771E-02  0.1116558E+00
         21   -1    0    0  502  501  0.00000000000E+00  0.00000000000E+00  0.87706497649E+02  0.87706497649E+02  0.00000000000E+00 0. -1.
         21   -1    0    0  503  502 -0.00000000000E+00 -0.00000000000E+00 -0.79938877963E+03  0.79938877963E+03  0.00000000000E+00 0.  1.
         25    1    1    2    0    0 -0.20081141169E+03  0.63526744564E+02 -0.14995522429E+03  0.28718015188E+03  0.12500000000E+03 0.  0.
         21    1    1    2  503  501  0.20081141169E+03 -0.63526744564E+02 -0.56172705769E+03  0.59991512540E+03  0.00000000000E+00 0.  1.
<mgrwt>
<rscale>  3 0.24492013E+03</rscale>
<asrwt>0</asrwt>
<pdfrwt beam="1">  1       21 0.13493307E-01 0.24492013E+03</pdfrwt>
<pdfrwt beam="2">  1       21 0.12298289E+00 0.24492013E+03</pdfrwt>
<totfact> 0.22915190E+04</totfact>
</mgrwt>
</event>
<event>
 4    0  0.1311963E-001  0.2631749E+03  0.7546771E-02  0.1105251E+00
         21   -1    0    0  502  501  0.00000000000E+00  0.00000000000E+00  0.12897742978E+04  0.12897742978E+04  0.00000000000E+00 0. -1.
         21   -1    0    0  503  502 -0.00000000000E+00 -0.00000000000E+00 -0.56601062411E+02  0.56601062411E+02  0.00000000000E+00 0. -1.
         25    1    1    2    0    0  0.21708648004E+03 -0.80681532932E+02  0.91980521840E+03  0.95671452867E+03  0.12500000000E+03 0.  0.
         21    1    1    2  503  501 -0.21708648004E+03  0.80681532932E+02  0.31336801703E+03  0.38966083159E+03  0.00000000000E+00 0. -1.
<mgrwt>
<rscale>  3 0.26317494E+03</rscale>
<asrwt>0</asrwt>
<pdfrwt beam="1">  1       21 0.19842679E+00 0.26317494E+03</pdfrwt>
<pdfrwt beam="2">  1       21 0.87078567E-02 0.26317494E+03</pdfrwt>
<totfact> 0.13536205E+04</totfact>
</mgrwt>
</event>
<event>
 4    0  0.1154814E-001  0.2733684E+03  0.7546771E-02  0.1099367E+00
         21   -1    0    0  503  501  0.00000000000E+00  0.00000000000E+00  0.85816334392E+03  0.85816334392E+03  0.00000000000E+00 0.  1.
         21   -1    0    0  501  502 -0.00000000000E+00 -0.00000000000E+00 -0.15000206725E+03  0.15000206725E+03  0.00000000000E+00 0.  1.
         25    1    1    2    0    0  0.22353427307E+03 -0.95591279583E+02  0.71445511103E+03  0.76496821480E+03  0.12500000000E+03 0.  0.
         21    1    1    2  503  502 -0.22353427307E+03  0.95591279583E+02 -0.62938343602E+01  0.24319719637E+03  0.00000000000E+00 0.  1.
<mgrwt>
<rscale>  3 0.27336837E+03</rscale>
<asrwt>0</asrwt>
<pdfrwt beam="1">  1       21 0.13202513E+00 0.27336837E+03</pdfrwt>
<pdfrwt beam="2">  1       21 0.23077242E-01 0.27336837E+03</pdfrwt>
<totfact> 0.69459165E+03</totfact>
</mgrwt>
</event>
<event>
 4    0  0.1003929E-001  0.4130904E+03  0.7546771E-02  0.1039339E+00
         21   -1    0    0  502  501  0.00000000000E+00  0.00000000000E+00  0.12570038410E+04  0.12570038410E+04  0.00000000000E+00 0. -1.
         21   -1    0    0  503  502 -0.00000000000E+00 -0.00000000000E+00 -0.17128531317E+03  0.17128531317E+03  0.00000000000E+00 0.  1.
         25    1    1    2    0    0 -0.14570597333E+03 -0.36577101054E+03  0.90550745449E+03  0.99528257945E+03  0.12500000000E+03 0.  0.
         21    1    1    2  503  501  0.14570597333E+03  0.36577101054E+03  0.18021107338E+03  0.43300657476E+03  0.00000000000E+00 0.  1.
<mgrwt>
<rscale>  3 0.41309038E+03</rscale>
<asrwt>0</asrwt>
<pdfrwt beam="1">  1       21 0.19338520E+00 0.41309038E+03</pdfrwt>
<pdfrwt beam="2">  1       21 0.26351587E-01 0.41309038E+03</pdfrwt>
<totfact> 0.17426871E+03</totfact>
</mgrwt>
</event>
<event>
 4    0  0.1210456E-001  0.2502741E+03  0.7546771E-02  0.1113132E+00
         21   -1    0    0  503  501  0.00000000000E+00  0.00000000000E+00  0.18398057909E+03  0.18398057909E+03  0.00000000000E+00 0. -1.
         21   -1    0    0  501  502 -0.00000000000E+00 -0.00000000000E+00 -0.33874897317E+03  0.33874897317E+03  0.00000000000E+00 0. -1.
         25    1    1    2    0    0 -0.12405037647E+03 -0.17783040295E+03 -0.17436173987E+03  0.30502321952E+03  0.12500000000E+03 0.  0.
         21    1    1    2  503  502  0.12405037647E+03  0.17783040295E+03  0.19593345794E+02  0.21770633274E+03  0.00000000000E+00 0. -1.
<mgrwt>
<rscale>  3 0.25027415E+03</rscale>
<asrwt>0</asrwt>
<pdfrwt beam="1">  1       21 0.28304705E-01 0.25027415E+03</pdfrwt>
<pdfrwt beam="2">  1       21 0.52115226E-01 0.25027415E+03</pdfrwt>
<totfact> 0.40579903E+04</totfact>
</mgrwt>
</event>
<event>
 4    0  0.1326997E-001  0.2540271E+03  0.7546771E-02  0.1110786E+00
         21   -1    0    0  502  501  0.00000000000E+00  0.00000000000E+00  0.57971374133E+02  0.57971374133E+02  0.00000000000E+00 0.  1.
         21   -1    0    0  503  502 -0.00000000000E+00 -0.00000000000E+00 -0.99210820255E+03  0.99210820255E+03  0.00000000000E+00 0.  1.
         25    1    1    2    0    0 -0.14609326811E+03  0.16601659705E+03 -0.42744759276E+03  0.49723354476E+03  0.12500000000E+03 0.  0.
         21    1    1    2  503  501  0.14609326811E+03 -0.16601659705E+03 -0.50668923566E+03  0.55284603193E+03  0.00000000000E+00 0.  1.
<mgrwt>
<rscale>  3 0.25402707E+03</rscale>
<asrwt>0</asrwt>
<pdfrwt beam="1">  1       21 0.89186733E-02 0.25402707E+03</pdfrwt>
<pdfrwt beam="2">  1       21 0.15263203E+00 0.25402707E+03</pdfrwt>
<totfact> 0.27348768E+04</totfact>
</mgrwt>
</event>
<event>
 4    0  0.1079983E-001  0.2534664E+03  0.7546771E-02  0.1111134E+00
         21   -1    0    0  502  501  0.00000000000E+00  0.00000000000E+00  0.16949068211E+03  0.16949068211E+03  0.00000000000E+00 0.  1.
         21   -1    0    0  503  502 -0.00000000000E+00 -0.00000000000E+00 -0.88288641056E+03  0.88288641056E+03  0.00000000000E+00 0.  1.
         25    1    1    2    0    0  0.19605855430E+03 -0.10090233516E+03  0.49500136924E+02  0.25825472214E+03  0.12500000000E+03 0.  0.
         21    1    1    2  503  501 -0.19605855430E+03  0.10090233516E+03 -0.76289586537E+03  0.79412237052E+03  0.00000000000E+00 0.  1.
<mgrwt>
<rscale>  3 0.25346644E+03</rscale>
<asrwt>0</asrwt>
<pdfrwt beam="1">  1       21 0.26075490E-01 0.25346644E+03</pdfrwt>
<pdfrwt beam="2">  1       21 0.13582868E+00 0.25346644E+03</pdfrwt>
<totfact> 0.51693016E+03</totfact>
</mgrwt>
</event>
<event>
 4    0  0.1254562E-001  0.3649155E+03  0.7546771E-02  0.1056654E+00
         21   -1    0    0  502  501  0.00000000000E+00  0.00000000000E+00  0.29240874724E+03  0.29240874724E+03  0.00000000000E+00 0.  1.
         21   -1    0    0  503  502 -0.00000000000E+00 -0.00000000000E+00 -0.43910138768E+03  0.43910138768E+03  0.00000000000E+00 0.  1.
         25    1    1    2    0    0  0.13224214012E+03  0.31630736160E+03 -0.13300344441E+03  0.38839830954E+03  0.12500000000E+03 0.  0.
         21    1    1    2  503  501 -0.13224214012E+03 -0.31630736160E+03 -0.13689196020E+02  0.34311182538E+03  0.00000000000E+00 0.  1.
<mgrwt>
<rscale>  3 0.36491551E+03</rscale>
<asrwt>0</asrwt>
<pdfrwt beam="1">  1       21 0.44985961E-01 0.36491551E+03</pdfrwt>
<pdfrwt beam="2">  1       21 0.67554059E-01 0.36491551E+03</pdfrwt>
<totfact> 0.86942031E+03</totfact>
</mgrwt>
</event>
<event>
 4    0  0.1043306E-001  0.2904263E+03  0.7546771E-02  0.1090127E+00
         21   -1    0    0  502  501  0.00000000000E+00  0.00000000000E+00  0.12939587010E+04  0.12939587010E+04  0.00000000000E+00 0. -1.
         21   -1    0    0  503  502 -0.00000000000E+00 -0.00000000000E+00 -0.14472458412E+03  0.14472458412E+03  0.00000000000E+00 0. -1.
         25    1    1    2    0    0  0.15804442333E+03  0.20915166404E+03  0.11399550764E+04  0.11763694294E+04  0.12500000000E+03 0.  0.
         21    1    1    2  503  501 -0.15804442333E+03 -0.20915166404E+03  0.92790405509E+01  0.26231385574E+03  0.00000000000E+00 0. -1.
<mgrwt>
<rscale>  3 0.29042634E+03</rscale>
<asrwt>0</asrwt>
<pdfrwt beam="1">  1       21 0.19907056E+00 0.29042634E+03</pdfrwt>
<pdfrwt beam="2">  1       21 0.22265321E-01 0.29042634E+03</pdfrwt>
<totfact> 0.23681781E+03</totfact>
</mgrwt>
</event>
<event>
 4    0  0.1326129E-001  0.2630188E+03  0.7546771E-02  0.1105343E+00
         21   -1    0    0  502  501  0.00000000000E+00  0.00000000000E+00  0.42476459431E+03  0.42476459431E+03  0.00000000000E+00 0. -1.
         21   -1    0    0  503  502 -0.00000000000E+00 -0.00000000000E+00 -0.33889581651E+03  0.33889581651E+03  0.00000000000E+00 0. -1.
         25    1    1    2    0    0 -0.21923177634E+03  0.74103425864E+02  0.33349442306E+03  0.42473217407E+03  0.12500000000E+03 0.  0.
         21    1    1    2  503  501  0.21923177634E+03 -0.74103425864E+02 -0.24762564526E+03  0.33892823676E+03  0.00000000000E+00 0. -1.
<mgrwt>
<rscale>  3 0.26301880E+03</rscale>
<asrwt>0</asrwt>
<pdfrwt beam="1">  1       21 0.65348399E-01 0.26301880E+03</pdfrwt>
<pdfrwt beam="2">  1       21 0.52137818E-01 0.26301880E+03</pdfrwt>
<totfact> 0.71881418E+03</totfact>
</mgrwt>
</event>
<event>
 4    0  0.1223036E-001  0.2514684E+03  0.7546771E-02  0.1112380E+00
         21   -1    0    0  502  501  0.00000000000E+00  0.00000000000E+00  0.56907378864E+03  0.56907378864E+03  0.00000000000E+00 0.  1.
         21   -1    0    0  503  502 -0.00000000000E+00 -0.00000000000E+00 -0.97898115294E+02  0.97898115294E+02  0.00000000000E+00 0.  1.
         25    1    1    2    0    0 -0.18089053005E+02  0.21744921405E+03  0.21863359185E+03  0.33322218115E+03  0.12500000000E+03 0.  0.
         21    1    1    2  503  501  0.18089053005E+02 -0.21744921405E+03  0.25254208150E+03  0.33374972278E+03  0.00000000000E+00 0.  1.
<mgrwt>
<rscale>  3 0.25146844E+03</rscale>
<asrwt>0</asrwt>
<pdfrwt beam="1">  1       21 0.87549812E-01 0.25146844E+03</pdfrwt>
<pdfrwt beam="2">  1       21 0.15061249E-01 0.25146844E+03</pdfrwt>
<totfact> 0.42396832E+04</totfact>
</mgrwt>
</event>
<event>
 4    0  0.1003929E-001  0.2566567E+03  0.7546771E-02  0.1109169E+00
         21   -1    0    0  502  501  0.00000000000E+00  0.00000000000E+00  0.43835525939E+03  0.43835525939E+03  0.00000000000E+00 0.  1.
         21   -1    0    0  503  502 -0.00000000000E+00 -0.00000000000E+00 -0.16683435564E+03  0.16683435564E+03  0.00000000000E+00 0. -1.
         25    1    1    2    0    0  0.14189620441E+03  0.17353140065E+03  0.28133156677E+03  0.38081508675E+03  0.12500000000E+03 0.  0.
         21    1    1    2  503  501 -0.14189620441E+03 -0.17353140065E+03 -0.98106630181E+01  0.22437452829E+03  0.00000000000E+00 0. -1.
<mgrwt>
<rscale>  3 0.25665674E+03</rscale>
<asrwt>0</asrwt>
<pdfrwt beam="1">  1       21 0.67439270E-01 0.25665674E+03</pdfrwt>
<pdfrwt beam="2">  1       21 0.25666824E-01 0.25665674E+03</pdfrwt>
<totfact> 0.28045680E+04</totfact>
</mgrwt>
</event>
<event>
 4    0  0.1003929E-001  0.2584229E+03  0.7546771E-02  0.1108095E+00
         21   -1    0    0  502  501  0.00000000000E+00  0.00000000000E+00  0.17334820714E+04  0.17334820714E+04  0.00000000000E+00 0.  1.
         21   -1    0    0  503  502 -0.00000000000E+00 -0.00000000000E+00 -0.53203832353E+02  0.53203832353E+02  0.00000000000E+00 0.  1.
         25    1    1    2    0    0 -0.63614018592E+02  0.21704982657E+03  0.14135127643E+04  0.14369414412E+04  0.12500000000E+03 0.  0.
         21    1    1    2  503  501  0.63614018592E+02 -0.21704982657E+03  0.26676547474E+03  0.34974446255E+03  0.00000000000E+00 0.  1.
<mgrwt>
<rscale>  3 0.25842285E+03</rscale>
<asrwt>0</asrwt>
<pdfrwt beam="1">  1       21 0.26668951E+00 0.25842285E+03</pdfrwt>
<pdfrwt beam="2">  1       21 0.81852063E-02 0.25842285E+03</pdfrwt>
<totfact> 0.57659502E+03</totfact>
</mgrwt>
</event>
<event>
 4    0  0.1003929E-001  0.2567023E+03  0.7546771E-02  0.1109141E+00
         21   -1    0    0  503  501  0.00000000000E+00  0.00000000000E+00  0.69807827908E+02  0.69807827908E+02  0.00000000000E+00 0.  1.
         21   -1    0    0  501  502 -0.00000000000E+00 -0.00000000000E+00 -0.20030918777E+04  0.20030918777E+04  0.00000000000E+00 0.  1.
         25    1    1    2    0    0  0.18094388431E+03 -0.13240229192E+03 -0.20064432479E+03  0.32581313854E+03  0.12500000000E+03 0.  0.
         21    1    1    2  503  502 -0.18094388431E+03  0.13240229192E+03 -0.17326397250E+04  0.17470865671E+04  0.00000000000E+00 0.  1.
<mgrwt>
<rscale>  3 0.25670227E+03</rscale>
<asrwt>0</asrwt>
<pdfrwt beam="1">  1       21 0.10739668E-01 0.25670227E+03</pdfrwt>
<pdfrwt beam="2">  1       21 0.30816793E+00 0.25670227E+03</pdfrwt>
<totfact> 0.20399061E+03</totfact>
</mgrwt>
</event>
<event>
 4    0  0.1366314E-001  0.2642458E+03  0.7546771E-02  0.1104619E+00
         21   -1    0    0  503  501  0.00000000000E+00  0.00000000000E+00  0.28495837880E+03  0.28495837880E+03  0.00000000000E+00 0.  1.
         21   -1    0    0  501  502 -0.00000000000E+00 -0.00000000000E+00 -0.28153831988E+03  0.28153831988E+03  0.00000000000E+00 0.  1.
         25    1    1    2    0    0 -0.17841121880E+03  0.14956702792E+03  0.13745541196E+03  0.29785877377E+03  0.12500000000E+03 0.  0.
         21    1    1    2  503  502  0.17841121880E+03 -0.14956702792E+03 -0.13403535305E+03  0.26863792491E+03  0.00000000000E+00 0.  1.
<mgrwt>
<rscale>  3 0.26424583E+03</rscale>
<asrwt>0</asrwt>
<pdfrwt beam="1">  1       21 0.43839751E-01 0.26424583E+03</pdfrwt>
<pdfrwt beam="2">  1       21 0.43313588E-01 0.26424583E+03</pdfrwt>
<totfact> 0.24706497E+04</totfact>
</mgrwt>
</event>
<event>
 4    0  0.1450129E-001  0.2806933E+03  0.7546771E-02  0.1095311E+00
         21   -1    0    0  503  501  0.00000000000E+00  0.00000000000E+00  0.99973639376E+02  0.99973639376E+02  0.00000000000E+00 0. -1.
         21   -1    0    0  501  502 -0.00000000000E+00 -0.00000000000E+00 -0.71444566474E+03  0.71444566474E+03  0.00000000000E+00 0. -1.
         25    1    1    2    0    0 -0.17065096211E+03  0.18450461227E+03 -0.28480122360E+03  0.39987553036E+03  0.12500000000E+03 0.  0.
         21    1    1    2  503  502  0.17065096211E+03 -0.18450461227E+03 -0.32967080176E+03  0.41454377375E+03  0.00000000000E+00 0. -1.
<mgrwt>
<rscale>  3 0.28069325E+03</rscale>
<asrwt>0</asrwt>
<pdfrwt beam="1">  1       21 0.15380559E-01 0.28069325E+03</pdfrwt>
<pdfrwt beam="2">  1       21 0.10991472E+00 0.28069325E+03</pdfrwt>
<totfact> 0.23422516E+04</totfact>
</mgrwt>
</event>
<event>
 4    0  0.1003929E-001  0.2672373E+03  0.7546771E-02  0.1102871E+00
         21   -1    0    0  503  501  0.00000000000E+00  0.00000000000E+00  0.94075945937E+03  0.94075945937E+03  0.00000000000E+00 0. -1.
         21   -1    0    0  501  502 -0.00000000000E+00 -0.00000000000E+00 -0.83199520621E+02  0.83199520621E+02  0.00000000000E+00 0.  1.
         25    1    1    2    0    0  0.22730380662E+03 -0.64216385613E+02  0.67327804884E+03  0.72437496902E+03  0.12500000000E+03 0.  0.
         21    1    1    2  503  502 -0.22730380662E+03  0.64216385613E+02  0.18428188990E+03  0.29958401097E+03  0.00000000000E+00 0.  1.
<mgrwt>
<rscale>  3 0.26723728E+03</rscale>
<asrwt>0</asrwt>
<pdfrwt beam="1">  1       21 0.14473222E+00 0.26723728E+03</pdfrwt>
<pdfrwt beam="2">  1       21 0.12799927E-01 0.26723728E+03</pdfrwt>
<totfact> 0.16402366E+04</totfact>
</mgrwt>
</event>
<event>
 4    0  0.1131384E-001  0.3221871E+03  0.7546771E-02  0.1074647E+00
         21   -1    0    0  502  501  0.00000000000E+00  0.00000000000E+00  0.64215103790E+03  0.64215103790E+03  0.00000000000E+00 0.  1.
         21   -1    0    0  503  502 -0.00000000000E+00 -0.00000000000E+00 -0.16850139406E+03  0.16850139406E+03  0.00000000000E+00 0.  1.
         25    1    1    2    0    0 -0.12573522046E+03 -0.26901704181E+03  0.10842534776E+03  0.33994201047E+03  0.12500000000E+03 0.  0.
         21    1    1    2  503  501  0.12573522046E+03  0.26901704181E+03  0.36522429608E+03  0.47071042149E+03  0.00000000000E+00 0.  1.
<mgrwt>
<rscale>  3 0.32218708E+03</rscale>
<asrwt>0</asrwt>
<pdfrwt beam="1">  1       21 0.98792466E-01 0.32218708E+03</pdfrwt>
<pdfrwt beam="2">  1       21 0.25923292E-01 0.32218708E+03</pdfrwt>
<totfact> 0.11129725E+04</totfact>
</mgrwt>
</event>
<event>
 4    0  0.1003929E-001  0.4764340E+03  0.7546771E-02  0.1020120E+00
         21   -1    0    0  503  501  0.00000000000E+00  0.00000000000E+00  0.97289067938E+03  0.97289067938E+03  0.00000000000E+00 0.  1.
         21   -1    0    0  501  502 -0.00000000000E+00 -0.00000000000E+00 -0.29451022612E+03  0.29451022612E+03  0.00000000000E+00 0.  1.
         25    1    1    2    0    0 -0.13330189449E+03 -0.43999425282E+03  0.65116950578E+03  0.80685256575E+03  0.12500000000E+03 0.  0.
         21    1    1    2  503  502  0.13330189449E+03  0.43999425282E+03  0.27210947481E+02  0.46054833976E+03  0.00000000000E+00 0.  1.
<mgrwt>
<rscale>  3 0.47643398E+03</rscale>
<asrwt>0</asrwt>
<pdfrwt beam="1">  1       21 0.14967549E+00 0.47643398E+03</pdfrwt>
<pdfrwt beam="2">  1       21 0.45309266E-01 0.47643398E+03</pdfrwt>
<totfact> 0.11777045E+03</totfact>
</mgrwt>
</event>
<event>
 4    0  0.1405100E-001  0.2794996E+03  0.7546771E-02  0.1095963E+00
         21   -1    0    0  503  501  0.00000000000E+00  0.00000000000E+00  0.37431784536E+03  0.37431784536E+03  0.00000000000E+00 0.  1.
         21   -1    0    0  501  502 -0.00000000000E+00 -0.00000000000E+00 -0.25350989623E+03  0.25350989623E+03  0.00000000000E+00 0.  1.
         25    1    1    2    0    0  0.22010800655E+03 -0.11852217977E+03  0.22319656180E+03  0.35768246650E+03  0.12500000000E+03 0.  0.
         21    1    1    2  503  502 -0.22010800655E+03  0.11852217977E+03 -0.10238861267E+03  0.27014527508E+03  0.00000000000E+00 0.  1.
<mgrwt>
<rscale>  3 0.27949963E+03</rscale>
<asrwt>0</asrwt>
<pdfrwt beam="1">  1       21 0.57587361E-01 0.27949963E+03</pdfrwt>
<pdfrwt beam="2">  1       21 0.39001522E-01 0.27949963E+03</pdfrwt>
<totfact> 0.17126086E+04</totfact>
</mgrwt>
</event>
<event>
 4    0  0.1003929E-001  0.6439715E+03  0.7546771E-02  0.9818158E-01
         21   -1    0    0  502  501  0.00000000000E+00  0.00000000000E+00  0.12066704133E+04  0.12066704133E+04  0.00000000000E+00 0.  1.
         21   -1    0    0  503  502 -0.00000000000E+00 -0.00000000000E+00 -0.41313898594E+03  0.41313898594E+03  0.00000000000E+00 0.  1.
         25    1    1    2    0    0 -0.52013956203E+03 -0.35850950693E+03  0.74716820571E+03  0.98638712389E+03  0.12500000000E+03 0.  0.
         21    1    1    2  503  501  0.52013956203E+03  0.35850950693E+03  0.46363221619E+02  0.63342227531E+03  0.00000000000E+00 0.  1.
<mgrwt>
<rscale>  3 0.64397145E+03</rscale>
<asrwt>0</asrwt>
<pdfrwt beam="1">  1       21 0.18564160E+00 0.64397145E+03</pdfrwt>
<pdfrwt beam="2">  1       21 0.63559845E-01 0.64397145E+03</pdfrwt>
<totfact> 0.28812268E+02</totfact>
</mgrwt>
</event>
<event>
 4    0  0.1485658E-001  0.3446746E+03  0.7546771E-02  0.1064822E+00
         21   -1    0    0  503  501  0.00000000000E+00  0.00000000000E+00  0.10591833136E+03  0.10591833136E+03  0.00000000000E+00 0. -1.
         21   -1    0    0  501  502 -0.00000000000E+00 -0.00000000000E+00 -0.10513638211E+04  0.10513638211E+04  0.00000000000E+00 0. -1.
         25    1    1    2    0    0 -0.17581727638E+03 -0.26881943575E+03 -0.45023730742E+03  0.56702225415E+03  0.12500000000E+03 0.  0.
         21    1    1    2  503  502  0.17581727638E+03  0.26881943575E+03 -0.49520818227E+03  0.59025989826E+03  0.00000000000E+00 0. -1.
<mgrwt>
<rscale>  3 0.34467463E+03</rscale>
<asrwt>0</asrwt>
<pdfrwt beam="1">  1       21 0.16295127E-01 0.34467463E+03</pdfrwt>
<pdfrwt beam="2">  1       21 0.16174829E+00 0.34467463E+03</pdfrwt>
<totfact> 0.75152269E+03</totfact>
</mgrwt>
</event>
<event>
 4    0  0.1418606E-001  0.3113397E+03  0.7546771E-02  0.1079705E+00
         21   -1    0    0  503  501  0.00000000000E+00  0.00000000000E+00  0.35193369008E+03  0.35193369008E+03  0.00000000000E+00 0.  1.
         21   -1    0    0  501  502 -0.00000000000E+00 -0.00000000000E+00 -0.25409766647E+03  0.25409766647E+03  0.00000000000E+00 0.  1.
         25    1    1    2    0    0  0.10859740272E+03  0.26365513075E+03  0.73167734316E+02  0.31982173346E+03  0.12500000000E+03 0.  0.
         21    1    1    2  503  502 -0.10859740272E+03 -0.26365513075E+03  0.24668289289E+02  0.28620962309E+03  0.00000000000E+00 0.  1.
<mgrwt>
<rscale>  3 0.31133972E+03</rscale>
<asrwt>0</asrwt>
<pdfrwt beam="1">  1       21 0.54143645E-01 0.31133972E+03</pdfrwt>
<pdfrwt beam="2">  1       21 0.39091949E-01 0.31133972E+03</pdfrwt>
<totfact> 0.19201191E+04</totfact>
</mgrwt>
</event>
<event>
 4    0  0.1003929E-001  0.3838187E+03  0.7546771E-02  0.1049531E+00
         21   -1    0    0  503  501  0.00000000000E+00  0.00000000000E+00  0.11494542103E+04  0.11494542103E+04  0.00000000000E+00 0. -1.
         21   -1    0    0  501  502 -0.00000000000E+00 -0.00000000000E+00 -0.13000558544E+03  0.13000558544E+03  0.00000000000E+00 0.  1.
         25    1    1    2    0    0  0.36285342035E+03  0.54039022097E+01  0.68881285095E+03  0.78853024701E+03  0.12500000000E+03 0.  0.
         21    1    1    2  503  502 -0.36285342035E+03 -0.54039022097E+01  0.33063577388E+03  0.49092954870E+03  0.00000000000E+00 0.  1.
<mgrwt>
<rscale>  3 0.38381872E+03</rscale>
<asrwt>0</asrwt>
<pdfrwt beam="1">  1       21 0.17683910E+00 0.38381872E+03</pdfrwt>
<pdfrwt beam="2">  1       21 0.20000860E-01 0.38381872E+03</pdfrwt>
<totfact> 0.39078276E+03</totfact>
</mgrwt>
</event>
<event>
 4    0  0.1190840E-001  0.2539417E+03  0.7546771E-02  0.1110839E+00
         21   -1    0    0  503  501  0.00000000000E+00  0.00000000000E+00  0.72536632897E+03  0.72536632897E+03  0.00000000000E+00 0. -1.
         21   -1    0    0  501  502 -0.00000000000E+00 -0.00000000000E+00 -0.18672049871E+03  0.18672049871E+03  0.00000000000E+00 0. -1.
         25    1    1    2    0    0  0.21903334522E+03 -0.29762298538E+02  0.62511801650E+03  0.67472878647E+03  0.12500000000E+03 0.  0.
         21    1    1    2  503  502 -0.21903334522E+03  0.29762298538E+02 -0.86472186239E+02  0.23735804121E+03  0.00000000000E+00 0. -1.
<mgrwt>
<rscale>  3 0.25394173E+03</rscale>
<asrwt>0</asrwt>
<pdfrwt beam="1">  1       21 0.11159482E+00 0.25394173E+03</pdfrwt>
<pdfrwt beam="2">  1       21 0.28726231E-01 0.25394173E+03</pdfrwt>
<totfact> 0.70148976E+03</totfact>
</mgrwt>
</event>
<event>
 4    0  0.1169308E-001  0.2543837E+03  0.7546771E-02  0.1110565E+00
         21   -1    0    0  503  501  0.00000000000E+00  0.00000000000E+00  0.74967258730E+03  0.74967258730E+03  0.00000000000E+00 0. -1.
         21   -1    0    0  501  502 -0.00000000000E+00 -0.00000000000E+00 -0.79707937098E+02  0.79707937098E+02  0.00000000000E+00 0. -1.
         25    1    1    2    0    0 -0.63036395229E+02  0.21239700278E+03  0.26224990230E+03  0.36535747587E+03  0.12500000000E+03 0.  0.
         21    1    1    2  503  502  0.63036395229E+02 -0.21239700278E+03  0.40771474790E+03  0.46402304854E+03  0.00000000000E+00 0. -1.
<mgrwt>
<rscale>  3 0.25438371E+03</rscale>
<asrwt>0</asrwt>
<pdfrwt beam="1">  1       21 0.11533424E+00 0.25438371E+03</pdfrwt>
<pdfrwt beam="2">  1       21 0.12262760E-01 0.25438371E+03</pdfrwt>
<totfact> 0.31819191E+04</totfact>
</mgrwt>
</event>
<event>
 4    0  0.1003929E-001  0.4917023E+03  0.7546771E-02  0.1015968E+00
         21   -1    0    0  502  501  0.00000000000E+00  0.00000000000E+00  0.16214156020E+03  0.16214156020E+03  0.00000000000E+00 0.  1.
         21   -1    0    0  503  502 -0.00000000000E+00 -0.00000000000E+00 -0.17818267521E+04  0.17818267521E+04  0.00000000000E+00 0. -1.
         25    1    1    2    0    0  0.21045734640E+03 -0.42644325863E+03 -0.39669072271E+03  0.63177106373E+03  0.12500000000E+03 0.  0.
         21    1    1    2  503  501 -0.21045734640E+03  0.42644325863E+03 -0.12229944692E+04  0.13121972486E+04  0.00000000000E+00 0. -1.
<mgrwt>
<rscale>  3 0.49170230E+03</rscale>
<asrwt>0</asrwt>
<pdfrwt beam="1">  1       21 0.24944855E-01 0.49170230E+03</pdfrwt>
<pdfrwt beam="2">  1       21 0.27412719E+00 0.49170230E+03</pdfrwt>
<totfact> 0.57761667E+02</totfact>
</mgrwt>
</event>
<event>
 4    0  0.1003929E-001  0.3561028E+03  0.7546771E-02  0.1060138E+00
         21   -1    0    0  502  501  0.00000000000E+00  0.00000000000E+00  0.34180351516E+04  0.34180351516E+04  0.00000000000E+00 0.  1.
         21   -1    0    0  503  502 -0.00000000000E+00 -0.00000000000E+00 -0.24742317797E+03  0.24742317797E+03  0.00000000000E+00 0. -1.
         25    1    1    2    0    0 -0.83913900356E+02  0.32271143566E+03  0.32915531173E+04  0.33107599033E+04  0.12500000000E+03 0.  0.
         21    1    1    2  503  501  0.83913900356E+02 -0.32271143566E+03 -0.12094114364E+03  0.35469842628E+03  0.00000000000E+00 0. -1.
<mgrwt>
<rscale>  3 0.35610281E+03</rscale>
<asrwt>0</asrwt>
<pdfrwt beam="1">  1       21 0.52585153E+00 0.35610281E+03</pdfrwt>
<pdfrwt beam="2">  1       21 0.38065107E-01 0.35610281E+03</pdfrwt>
<totfact> 0.64212035E+00</totfact>
</mgrwt>
</event>
<event>
 4    0  0.1151141E-001  0.2739515E+03  0.7546771E-02  0.1099039E+00
         21   -1    0    0  502  501  0.00000000000E+00  0.00000000000E+00  0.89707465629E+03  0.89707465629E+03  0.00000000000E+00 0. -1.
         21   -1    0    0  503  502 -0.00000000000E+00 -0.00000000000E+00 -0.17221622824E+03  0.17221622824E+03  0.00000000000E+00 0. -1.
         25    1    1    2    0    0  0.16648354025E+02  0.24320207398E+03  0.77361771051E+03  0.82069103717E+03  0.12500000000E+03 0.  0.
         21    1    1    2  503  501 -0.16648354025E+02 -0.24320207398E+03 -0.48759282464E+02  0.24859984735E+03  0.00000000000E+00 0. -1.
<mgrwt>
<rscale>  3 0.27395149E+03</rscale>
<asrwt>0</asrwt>
<pdfrwt beam="1">  1       21 0.13801148E+00 0.27395149E+03</pdfrwt>
<pdfrwt beam="2">  1       21 0.26494805E-01 0.27395149E+03</pdfrwt>
<totfact> 0.47487488E+03</totfact>
</mgrwt>
</event>
<event>
 4    0  0.1127091E-001  0.2404275E+03  0.7546771E-02  0.1119508E+00
         21   -1    0    0  503  501  0.00000000000E+00  0.00000000000E+00  0.89184662542E+02  0.89184662542E+02  0.00000000000E+00 0.  1.
         21   -1    0    0  501  502 -0.00000000000E+00 -0.00000000000E+00 -0.57934504746E+03  0.57934504746E+03  0.00000000000E+00 0.  1.
         25    1    1    2    0    0  0.24130132554E+01  0.20536450148E+03 -0.32889659210E+03  0.40740442977E+03  0.12500000000E+03 0.  0.
         21    1    1    2  503  502 -0.24130132554E+01 -0.20536450148E+03 -0.16126379282E+03  0.26112528023E+03  0.00000000000E+00 0.  1.
<mgrwt>
<rscale>  3 0.24042754E+03</rscale>
<asrwt>0</asrwt>
<pdfrwt beam="1">  1       21 0.13720717E-01 0.24042754E+03</pdfrwt>
<pdfrwt beam="2">  1       21 0.89130007E-01 0.24042754E+03</pdfrwt>
<totfact> 0.48440389E+04</totfact>
</mgrwt>
</event>
<event>
 4    0  0.1241045E-001  0.2864510E+03  0.7546771E-02  0.1092217E+00
         21   -1    0    0  502  501  0.00000000000E+00  0.00000000000E+00  0.23344812809E+02  0.23344812809E+02  0.00000000000E+00 0. -1.
         21   -1    0    0  503  502 -0.00000000000E+00 -0.00000000000E+00 -0.31992373536E+04  0.31992373536E+04  0.00000000000E+00 0. -1.
         25    1    1    2    0    0 -0.20038629513E+03  0.16209415543E+03 -0.15208873048E+04  0.15476279839E+04  0.12500000000E+03 0.  0.
         21    1    1    2  503  501  0.20038629513E+03 -0.16209415543E+03 -0.16550052359E+04  0.16749541825E+04  0.00000000000E+00 0. -1.
<mgrwt>
<rscale>  3 0.28645101E+03</rscale>
<asrwt>0</asrwt>
<pdfrwt beam="1">  1       21 0.35915098E-02 0.28645101E+03</pdfrwt>
<pdfrwt beam="2">  1       21 0.49219034E+00 0.28645101E+03</pdfrwt>
<totfact> 0.89231853E+02</totfact>
</mgrwt>
</event>
<event>
 4    0  0.1437809E-001  0.2719106E+03  0.7546771E-02  0.1100191E+00
         21   -1    0    0  503  501  0.00000000000E+00  0.00000000000E+00  0.16170737548E+03  0.16170737548E+03  0.00000000000E+00 0. -1.
         21   -1    0    0  501  502 -0.00000000000E+00 -0.00000000000E+00 -0.17116716357E+04  0.17116716357E+04  0.00000000000E+00 0.  1.
         25    1    1    2    0    0  0.21894344267E+03  0.10185362926E+03  0.31369726501E+02  0.27371418053E+03  0.12500000000E+03 0.  0.
         21    1    1    2  503  502 -0.21894344267E+03 -0.10185362926E+03 -0.15813339867E+04  0.15996648307E+04  0.00000000000E+00 0.  1.
<mgrwt>
<rscale>  3 0.27191063E+03</rscale>
<asrwt>0</asrwt>
<pdfrwt beam="1">  1       21 0.24878058E-01 0.27191063E+03</pdfrwt>
<pdfrwt beam="2">  1       21 0.26333410E+00 0.27191063E+03</pdfrwt>
<totfact> 0.77926916E+02</totfact>
</mgrwt>
</event>
<event>
 4    0  0.1003929E-001  0.2888892E+03  0.7546771E-02  0.1090931E+00
         21   -1    0    0  502  501  0.00000000000E+00  0.00000000000E+00  0.16930638478E+04  0.16930638478E+04  0.00000000000E+00 0.  1.
         21   -1    0    0  503  502 -0.00000000000E+00 -0.00000000000E+00 -0.22926874082E+03  0.22926874082E+03  0.00000000000E+00 0.  1.
         25    1    1    2    0    0 -0.16063772000E+03  0.20500601959E+03  0.16017590419E+04  0.16276022160E+04  0.12500000000E+03 0.  0.
         21    1    1    2  503  501  0.16063772000E+03 -0.20500601959E+03 -0.13796393499E+03  0.29473037257E+03  0.00000000000E+00 0.  1.
<mgrwt>
<rscale>  3 0.28888916E+03</rscale>
<asrwt>0</asrwt>
<pdfrwt beam="1">  1       21 0.26047135E+00 0.28888916E+03</pdfrwt>
<pdfrwt beam="2">  1       21 0.35272115E-01 0.28888916E+03</pdfrwt>
<totfact> 0.40202806E+02</totfact>
</mgrwt>
</event>
<event>
 4    0  0.1266162E-001  0.4063291E+03  0.7546771E-02  0.1041610E+00
         21   -1    0    0  503  501  0.00000000000E+00  0.00000000000E+00  0.33064024155E+03  0.33064024155E+03  0.00000000000E+00 0.  1.
         21   -1    0    0  501  502 -0.00000000000E+00 -0.00000000000E+00 -0.58456071110E+03  0.58456071110E+03  0.00000000000E+00 0.  1.
         25    1    1    2    0    0 -0.31924445575E+03  0.21808552473E+03  0.68148672045E+02  0.41200432052E+03  0.12500000000E+03 0.  0.
         21    1    1    2  503  502  0.31924445575E+03 -0.21808552473E+03 -0.32206914160E+03  0.50319663214E+03  0.00000000000E+00 0.  1.
<mgrwt>
<rscale>  3 0.40632908E+03</rscale>
<asrwt>0</asrwt>
<pdfrwt beam="1">  1       21 0.50867730E-01 0.40632908E+03</pdfrwt>
<pdfrwt beam="2">  1       21 0.89932417E-01 0.40632908E+03</pdfrwt>
<totfact> 0.34290848E+03</totfact>
</mgrwt>
</event>
<event>
 4    0  0.1003929E-001  0.3097912E+03  0.7546771E-02  0.1080446E+00
         21   -1    0    0  502  501  0.00000000000E+00  0.00000000000E+00  0.94541772519E+03  0.94541772519E+03  0.00000000000E+00 0. -1.
         21   -1    0    0  503  502 -0.00000000000E+00 -0.00000000000E+00 -0.93084868765E+02  0.93084868765E+02  0.00000000000E+00 0.  1.
         25    1    1    2    0    0  0.16231212025E+03  0.23237977094E+03  0.45279023424E+03  0.54862517126E+03  0.12500000000E+03 0.  0.
         21    1    1    2  503  501 -0.16231212025E+03 -0.23237977094E+03  0.39954262218E+03  0.48987742269E+03  0.00000000000E+00 0.  1.
<mgrwt>
<rscale>  3 0.30979119E+03</rscale>
<asrwt>0</asrwt>
<pdfrwt beam="1">  1       21 0.14544887E+00 0.30979119E+03</pdfrwt>
<pdfrwt beam="2">  1       21 0.14320750E-01 0.30979119E+03</pdfrwt>
<totfact> 0.12924042E+04</totfact>
</mgrwt>
</event>
<event>
 4    0  0.1040209E-001  0.2705009E+03  0.7546771E-02  0.1100993E+00
         21   -1    0    0  503  501  0.00000000000E+00  0.00000000000E+00  0.16011409046E+04  0.16011409046E+04  0.00000000000E+00 0. -1.
         21   -1    0    0  501  502 -0.00000000000E+00 -0.00000000000E+00 -0.69033737634E+02  0.69033737634E+02  0.00000000000E+00 0. -1.
         25    1    1    2    0    0  0.19589559702E+03 -0.13845813124E+03  0.13278082070E+04  0.13550813163E+04  0.12500000000E+03 0.  0.
         21    1    1    2  503  502 -0.19589559702E+03  0.13845813124E+03  0.20429895993E+03  0.31509332596E+03  0.00000000000E+00 0. -1.
<mgrwt>
<rscale>  3 0.27050090E+03</rscale>
<asrwt>0</asrwt>
<pdfrwt beam="1">  1       21 0.24632934E+00 0.27050090E+03</pdfrwt>
<pdfrwt beam="2">  1       21 0.10620576E-01 0.27050090E+03</pdfrwt>
<totfact> 0.47603082E+03</totfact>
</mgrwt>
</event>
<event>
 4    0  0.1420935E-001  0.2436406E+03  0.7546771E-02  0.1117391E+00
         21   -1    0    0  503  501  0.00000000000E+00  0.00000000000E+00  0.13323747976E+03  0.13323747976E+03  0.00000000000E+00 0. -1.
         21   -1    0    0  501  502 -0.00000000000E+00 -0.00000000000E+00 -0.40083757363E+03  0.40083757363E+03  0.00000000000E+00 0. -1.
         25    1    1    2    0    0 -0.13765902644E+03  0.15743482082E+03 -0.90081444140E+02  0.25976026822E+03  0.12500000000E+03 0.  0.
         21    1    1    2  503  502  0.13765902644E+03 -0.15743482082E+03 -0.17751864973E+03  0.27431478518E+03  0.00000000000E+00 0. -1.
<mgrwt>
<rscale>  3 0.24364058E+03</rscale>
<asrwt>0</asrwt>
<pdfrwt beam="1">  1       21 0.20498074E-01 0.24364058E+03</pdfrwt>
<pdfrwt beam="2">  1       21 0.61667319E-01 0.24364058E+03</pdfrwt>
<totfact> 0.52634225E+04</totfact>
</mgrwt>
</event>
<event>
 4    0  0.1003929E-001  0.2386816E+03  0.7546771E-02  0.1120674E+00
         21   -1    0    0  502  501  0.00000000000E+00  0.00000000000E+00  0.46258368075E+03  0.46258368075E+03  0.00000000000E+00 0.  1.
         21   -1    0    0  503  502 -0.00000000000E+00 -0.00000000000E+00 -0.12847375393E+03  0.12847375393E+03  0.00000000000E+00 0.  1.
         25    1    1    2    0    0 -0.68922307359E+02 -0.19129465529E+03  0.30243383042E+03  0.38527282719E+03  0.12500000000E+03 0.  0.
         21    1    1    2  503  501  0.68922307359E+02  0.19129465529E+03  0.31676096407E+02  0.20578460748E+03  0.00000000000E+00 0. -1.
<mgrwt>
<rscale>  3 0.23868165E+03</rscale>
<asrwt>0</asrwt>
<pdfrwt beam="1">  1       21 0.71166719E-01 0.23868165E+03</pdfrwt>
<pdfrwt beam="2">  1       21 0.19765193E-01 0.23868165E+03</pdfrwt>
<totfact> 0.41229266E+04</totfact>
</mgrwt>
</event>
<event>
 4    0  0.1003929E-001  0.3566611E+03  0.7546771E-02  0.1059914E+00
         21   -1    0    0  503  501  0.00000000000E+00  0.00000000000E+00  0.15995641469E+03  0.15995641469E+03  0.00000000000E+00 0. -1.
         21   -1    0    0  501  502 -0.00000000000E+00 -0.00000000000E+00 -0.14432601225E+04  0.14432601225E+04  0.00000000000E+00 0. -1.
         25    1    1    2    0    0  0.28045669122E+03 -0.18145583292E+03 -0.95342219923E+02  0.36918466091E+03  0.12500000000E+03 0.  0.
         21    1    1    2  503  502 -0.28045669122E+03  0.18145583292E+03 -0.11879614879E+04  0.12340318762E+04  0.00000000000E+00 0. -1.
<mgrwt>
<rscale>  3 0.35666115E+03</rscale>
<asrwt>0</asrwt>
<pdfrwt beam="1">  1       21 0.24608679E-01 0.35666115E+03</pdfrwt>
<pdfrwt beam="2">  1       21 0.22204002E+00 0.35666115E+03</pdfrwt>
<totfact> 0.13343802E+03</totfact>
</mgrwt>
</event>
<event>
 4    0  0.1315412E-001  0.2774296E+03  0.7546771E-02  0.1097101E+00
         21   -1    0    0  503  501  0.00000000000E+00  0.00000000000E+00  0.11089247045E+04  0.11089247045E+04  0.00000000000E+00 0. -1.
         21   -1    0    0  501  502 -0.00000000000E+00 -0.00000000000E+00 -0.68172609862E+02  0.68172609862E+02  0.00000000000E+00 0. -1.
         25    1    1    2    0    0 -0.20716983971E+03  0.13573073990E+03  0.72176179007E+03  0.77324463002E+03  0.12500000000E+03 0.  0.
         21    1    1    2  503  502  0.20716983971E+03 -0.13573073990E+03  0.31899030452E+03  0.40385268430E+03  0.00000000000E+00 0. -1.
<mgrwt>
<rscale>  3 0.27742959E+03</rscale>
<asrwt>0</asrwt>
<pdfrwt beam="1">  1       21 0.17060379E+00 0.27742959E+03</pdfrwt>
<pdfrwt beam="2">  1       21 0.10488095E-01 0.27742959E+03</pdfrwt>
<totfact> 0.14936816E+04</totfact>
</mgrwt>
</event>
<event>
 4    0  0.1003929E-001  0.4564960E+03  0.7546771E-02  0.1025802E+00
         21   -1    0    0  503  501  0.00000000000E+00  0.00000000000E+00  0.25964315973E+04  0.25964315973E+04  0.00000000000E+00 0.  1.
         21   -1    0    0  501  502 -0.00000000000E+00 -0.00000000000E+00 -0.95167000117E+02  0.95167000117E+02  0.00000000000E+00 0.  1.
         25    1    1    2    0    0 -0.37565680338E+03 -0.22725663776E+03  0.18547215836E+04  0.19100734975E+04  0.12500000000E+03 0.  0.
         21    1    1    2  503  502  0.37565680338E+03  0.22725663776E+03  0.64654301362E+03  0.78152509992E+03  0.00000000000E+00 0.  1.
<mgrwt>
<rscale>  3 0.45649602E+03</rscale>
<asrwt>0</asrwt>
<pdfrwt beam="1">  1       21 0.39945096E+00 0.45649602E+03</pdfrwt>
<pdfrwt beam="2">  1       21 0.14641079E-01 0.45649602E+03</pdfrwt>
<totfact> 0.27516067E+02</totfact>
</mgrwt>
</event>
<event>
 4    0  0.1003929E-001  0.2604937E+03  0.7546771E-02  0.1106847E+00
         21   -1    0    0  502  501  0.00000000000E+00  0.00000000000E+00  0.49866597163E+02  0.49866597163E+02  0.00000000000E+00 0. -1.
         21   -1    0    0  503  502 -0.00000000000E+00 -0.00000000000E+00 -0.21321888136E+04  0.21321888136E+04  0.00000000000E+00 0. -1.
         25    1    1    2    0    0 -0.22560940866E+03  0.36501639678E+02 -0.35848800967E+03  0.44313725645E+03  0.12500000000E+03 0.  0.
         21    1    1    2  503  501  0.22560940866E+03 -0.36501639678E+02 -0.17238342068E+04  0.17389181543E+04  0.00000000000E+00 0. -1.
<mgrwt>
<rscale>  3 0.26049371E+03</rscale>
<asrwt>0</asrwt>
<pdfrwt beam="1">  1       21 0.76717816E-02 0.26049371E+03</pdfrwt>
<pdfrwt beam="2">  1       21 0.32802916E+00 0.26049371E+03</pdfrwt>
<totfact> 0.28150079E+03</totfact>
</mgrwt>
</event>
<event>
 4    0  0.1616257E-001  0.2907121E+03  0.7546771E-02  0.1089978E+00
         21   -1    0    0  502  501  0.00000000000E+00  0.00000000000E+00  0.20094021230E+03  0.20094021230E+03  0.00000000000E+00 0. -1.
         21   -1    0    0  503  502 -0.00000000000E+00 -0.00000000000E+00 -0.12632830876E+04  0.12632830876E+04  0.00000000000E+00 0.  1.
         25    1    1    2    0    0  0.15208830391E+03  0.21391039010E+03  0.72342287104E+02  0.29957789251E+03  0.12500000000E+03 0.  0.
         21    1    1    2  503  501 -0.15208830391E+03 -0.21391039010E+03 -0.11346851624E+04  0.11646454073E+04  0.00000000000E+00 0.  1.
<mgrwt>
<rscale>  3 0.29071207E+03</rscale>
<asrwt>0</asrwt>
<pdfrwt beam="1">  1       21 0.30913879E-01 0.29071207E+03</pdfrwt>
<pdfrwt beam="2">  1       21 0.19435124E+00 0.29071207E+03</pdfrwt>
<totfact> 0.13464551E+03</totfact>
</mgrwt>
</event>
<event>
 4    0  0.1234520E-001  0.2820416E+03  0.7546771E-02  0.1094579E+00
         21   -1    0    0  502  501  0.00000000000E+00  0.00000000000E+00  0.11809467063E+04  0.11809467063E+04  0.00000000000E+00 0. -1.
         21   -1    0    0  503  502 -0.00000000000E+00 -0.00000000000E+00 -0.10001774025E+03  0.10001774025E+03  0.00000000000E+00 0.  1.
         25    1    1    2    0    0 -0.24870198265E+03  0.45494921201E+02  0.96024565828E+03  0.10008092667E+04  0.12500000000E+03 0.  0.
         21    1    1    2  503  501  0.24870198265E+03 -0.45494921201E+02  0.12068330776E+03  0.28015517985E+03  0.00000000000E+00 0.  1.
<mgrwt>
<rscale>  3 0.28204160E+03</rscale>
<asrwt>0</asrwt>
<pdfrwt beam="1">  1       21 0.18168410E+00 0.28204160E+03</pdfrwt>
<pdfrwt beam="2">  1       21 0.15387345E-01 0.28204160E+03</pdfrwt>
<totfact> 0.62192283E+03</totfact>
</mgrwt>
</event>
<event>
 4    0  0.1426232E-001  0.2802311E+03  0.7546771E-02  0.1095563E+00
         21   -1    0    0  502  501  0.00000000000E+00  0.00000000000E+00  0.24126039749E+03  0.24126039749E+03  0.00000000000E+00 0.  1.
         21   -1    0    0  503  502 -0.00000000000E+00 -0.00000000000E+00 -0.29261574645E+03  0.29261574645E+03  0.00000000000E+00 0.  1.
         25    1    1    2    0    0  0.34868170288E+02 -0.24837203560E+03 -0.17266430938E+02  0.28076250997E+03  0.12500000000E+03 0.  0.
         21    1    1    2  503  501 -0.34868170288E+02  0.24837203560E+03 -0.34088918024E+02  0.25311363397E+03  0.00000000000E+00 0.  1.
<mgrwt>
<rscale>  3 0.28023108E+03</rscale>
<asrwt>0</asrwt>
<pdfrwt beam="1">  1       21 0.37116984E-01 0.28023108E+03</pdfrwt>
<pdfrwt beam="2">  1       21 0.45017807E-01 0.28023108E+03</pdfrwt>
<totfact> 0.31826032E+04</totfact>
</mgrwt>
</event>
<event>
 4    0  0.1319406E-001  0.3456254E+03  0.7546771E-02  0.1064425E+00
         21   -1    0    0  503  501  0.00000000000E+00  0.00000000000E+00  0.76149550942E+02  0.76149550942E+02  0.00000000000E+00 0. -1.
         21   -1    0    0  501  502 -0.00000000000E+00 -0.00000000000E+00 -0.14688317512E+04  0.14688317512E+04  0.00000000000E+00 0. -1.
         25    1    1    2    0    0  0.59858925353E+02  0.31662096318E+03 -0.67788978719E+03  0.76091490250E+03  0.12500000000E+03 0.  0.
         21    1    1    2  503  502 -0.59858925353E+02 -0.31662096318E+03 -0.71479241310E+03  0.78406639967E+03  0.00000000000E+00 0. -1.
<mgrwt>
<rscale>  3 0.34562541E+03</rscale>
<asrwt>0</asrwt>
<pdfrwt beam="1">  1       21 0.11715315E-01 0.34562541E+03</pdfrwt>
<pdfrwt beam="2">  1       21 0.22597412E+00 0.34562541E+03</pdfrwt>
<totfact> 0.50714936E+03</totfact>
</mgrwt>
</event>
<event>
 4    0  0.1003929E-001  0.3810761E+03  0.7546771E-02  0.1050537E+00
         21   -1    0    0  502  501  0.00000000000E+00  0.00000000000E+00  0.17722470054E+04  0.17722470054E+04  0.00000000000E+00 0. -1.
         21   -1    0    0  503  502 -0.00000000000E+00 -0.00000000000E+00 -0.10745031404E+03  0.10745031404E+03  0.00000000000E+00 0.  1.
         25    1    1    2    0    0  0.32279246852E+03  0.15937060044E+03  0.13457776036E+04  0.13986909324E+04  0.12500000000E+03 0.  0.
         21    1    1    2  503  501 -0.32279246852E+03 -0.15937060044E+03  0.31901908776E+03  0.48100638703E+03  0.00000000000E+00 0.  1.
<mgrwt>
<rscale>  3 0.38107606E+03</rscale>
<asrwt>0</asrwt>
<pdfrwt beam="1">  1       21 0.27265337E+00 0.38107606E+03</pdfrwt>
<pdfrwt beam="2">  1       21 0.16530819E-01 0.38107606E+03</pdfrwt>
<totfact> 0.13714387E+03</totfact>
</mgrwt>
</event>
<event>
 4    0  0.1003929E-001  0.2516589E+03  0.7546771E-02  0.1112261E+00
         21   -1    0    0  502  501  0.00000000000E+00  0.00000000000E+00  0.21000115037E+03  0.21000115037E+03  0.00000000000E+00 0.  1.
         21   -1    0    0  503  502 -0.00000000000E+00 -0.00000000000E+00 -0.28386846707E+03  0.28386846707E+03  0.00000000000E+00 0. -1.
         25    1    1    2    0    0 -0.21374291816E+03  0.44957181986E+02  0.27343283419E+02  0.25313995817E+03  0.12500000000E+03 0.  0.
         21    1    1    2  503  501  0.21374291816E+03 -0.44957181986E+02 -0.10121060012E+03  0.24072965927E+03  0.00000000000E+00 0. -1.
<mgrwt>
<rscale>  3 0.25165886E+03</rscale>
<asrwt>0</asrwt>
<pdfrwt beam="1">  1       21 0.32307869E-01 0.25165886E+03</pdfrwt>
<pdfrwt beam="2">  1       21 0.43672072E-01 0.25165886E+03</pdfrwt>
<totfact> 0.45216542E+04</totfact>
</mgrwt>
</event>
<event>
 4    0  0.1018509E-001  0.2430321E+03  0.7546771E-02  0.1117789E+00
         21   -1    0    0  502  501  0.00000000000E+00  0.00000000000E+00  0.10605265387E+04  0.10605265387E+04  0.00000000000E+00 0.  1.
         21   -1    0    0  503  502 -0.00000000000E+00 -0.00000000000E+00 -0.20016748239E+03  0.20016748239E+03  0.00000000000E+00 0.  1.
         25    1    1    2    0    0  0.12732270912E+03 -0.16501072179E+03  0.98722329982E+03  0.10166978186E+04  0.12500000000E+03 0.  0.
         21    1    1    2  503  501 -0.12732270912E+03  0.16501072179E+03 -0.12686424352E+03  0.24399620252E+03  0.00000000000E+00 0.  1.
<mgrwt>
<rscale>  3 0.24303212E+03</rscale>
<asrwt>0</asrwt>
<pdfrwt beam="1">  1       21 0.16315793E+00 0.24303212E+03</pdfrwt>
<pdfrwt beam="2">  1       21 0.30794998E-01 0.24303212E+03</pdfrwt>
<totfact> 0.23136174E+03</totfact>
</mgrwt>
</event>
<event>
 4    0  0.1003929E-001  0.2969063E+03  0.7546771E-02  0.1086797E+00
         21   -1    0    0  503  501  0.00000000000E+00  0.00000000000E+00  0.11371530658E+03  0.11371530658E+03  0.00000000000E+00 0.  1.
         21   -1    0    0  501  502 -0.00000000000E+00 -0.00000000000E+00 -0.97943371754E+03  0.97943371754E+03  0.00000000000E+00 0.  1.
         25    1    1    2    0    0 -0.32696233775E+01  0.26929103452E+03 -0.73720181355E+03  0.79474515765E+03  0.12500000000E+03 0.  0.
         21    1    1    2  503  502  0.32696233775E+01 -0.26929103452E+03 -0.12851659741E+03  0.29840386646E+03  0.00000000000E+00 0.  1.
<mgrwt>
<rscale>  3 0.29690630E+03</rscale>
<asrwt>0</asrwt>
<pdfrwt beam="1">  1       21 0.17494662E-01 0.29690630E+03</pdfrwt>
<pdfrwt beam="2">  1       21 0.15068211E+00 0.29690630E+03</pdfrwt>
<totfact> 0.81751467E+03</totfact>
</mgrwt>
</event>
<event>
 4    0  0.1032115E-001  0.2488368E+03  0.7546771E-02  0.1114042E+00
         21   -1    0    0  502  501  0.00000000000E+00  0.00000000000E+00  0.45704289467E+02  0.45704289467E+02  0.00000000000E+00 0.  1.
         21   -1    0    0  503  502 -0.00000000000E+00 -0.00000000000E+00 -0.12078294951E+04  0.12078294951E+04  0.00000000000E+00 0.  1.
         25    1    1    2    0    0  0.40695060316E+02 -0.21127864589E+03 -0.72099500646E+03  0.76272770599E+03  0.12500000000E+03 0.  0.
         21    1    1    2  503  501 -0.40695060316E+02  0.21127864589E+03 -0.44113019913E+03  0.49080607854E+03  0.00000000000E+00 0.  1.
<mgrwt>
<rscale>  3 0.24883680E+03</rscale>
<asrwt>0</asrwt>
<pdfrwt beam="1">  1       21 0.70314301E-02 0.24883680E+03</pdfrwt>
<pdfrwt beam="2">  1       21 0.18581990E+00 0.24883680E+03</pdfrwt>
<totfact> 0.24065123E+04</totfact>
</mgrwt>
</event>
<event>
 4    0  0.1557226E-001  0.3137039E+03  0.7546771E-02  0.1078584E+00
         21   -1    0    0  502  501  0.00000000000E+00  0.00000000000E+00  0.10364489707E+03  0.10364489707E+03  0.00000000000E+00 0. -1.
         21   -1    0    0  503  502 -0.00000000000E+00 -0.00000000000E+00 -0.92994900737E+03  0.92994900737E+03  0.00000000000E+00 0. -1.
         25    1    1    2    0    0  0.28719317621E+03 -0.17471006405E+02 -0.30154589804E+03  0.43513226167E+03  0.12500000000E+03 0.  0.
         21    1    1    2  503  501 -0.28719317621E+03  0.17471006405E+02 -0.52475821226E+03  0.59846164276E+03  0.00000000000E+00 0. -1.
<mgrwt>
<rscale>  3 0.31370393E+03</rscale>
<asrwt>0</asrwt>
<pdfrwt beam="1">  1       21 0.15945369E-01 0.31370393E+03</pdfrwt>
<pdfrwt beam="2">  1       21 0.14306908E+00 0.31370393E+03</pdfrwt>
<totfact> 0.11057274E+04</totfact>
</mgrwt>
</event>
<event>
 4    0  0.1364963E-001  0.2374045E+03  0.7546771E-02  0.1121534E+00
         21   -1    0    0  503  501  0.00000000000E+00  0.00000000000E+00  0.67670814810E+03  0.67670814810E+03  0.00000000000E+00 0. -1.
         21   -1    0    0  501  502 -0.00000000000E+00 -0.00000000000E+00 -0.81037312103E+02  0.81037312103E+02  0.00000000000E+00 0. -1.
         25    1    1    2    0    0 -0.17614269069E+02  0.20106123078E+03  0.45017484513E+03  0.50893837759E+03  0.12500000000E+03 0.  0.
         21    1    1    2  503  502  0.17614269069E+02 -0.20106123078E+03  0.14549599087E+03  0.24880708261E+03  0.00000000000E+00 0. -1.
<mgrwt>
<rscale>  3 0.23740447E+03</rscale>
<asrwt>0</asrwt>
<pdfrwt beam="1">  1       21 0.10410894E+00 0.23740447E+03</pdfrwt>
<pdfrwt beam="2">  1       21 0.12467279E-01 0.23740447E+03</pdfrwt>
<totfact> 0.39945944E+04</totfact>
</mgrwt>
</event>
<event>
 4    0  0.1426146E-001  0.3243296E+03  0.7546771E-02  0.1073674E+00
         21   -1    0    0  502  501  0.00000000000E+00  0.00000000000E+00  0.26046379094E+03  0.26046379094E+03  0.00000000000E+00 0.  1.
         21   -1    0    0  503  502 -0.00000000000E+00 -0.00000000000E+00 -0.48836936904E+03  0.48836936904E+03  0.00000000000E+00 0.  1.
         25    1    1    2    0    0 -0.13843619147E+03  0.26533017190E+03  0.64212997663E+02  0.33062514771E+03  0.12500000000E+03 0.  0.
         21    1    1    2  503  501  0.13843619147E+03 -0.26533017190E+03 -0.29211857577E+03  0.41820801228E+03  0.00000000000E+00 0.  1.
<mgrwt>
<rscale>  3 0.32432958E+03</rscale>
<asrwt>0</asrwt>
<pdfrwt beam="1">  1       21 0.40071353E-01 0.32432958E+03</pdfrwt>
<pdfrwt beam="2">  1       21 0.75133748E-01 0.32432958E+03</pdfrwt>
<totfact> 0.88384737E+03</totfact>
</mgrwt>
</event>
<event>
 4    0  0.1120753E-001  0.2409037E+03  0.7546771E-02  0.1119192E+00
         21   -1    0    0  503  501  0.00000000000E+00  0.00000000000E+00  0.66116858126E+02  0.66116858126E+02  0.00000000000E+00 0.  1.
         21   -1    0    0  501  502 -0.00000000000E+00 -0.00000000000E+00 -0.11589723031E+04  0.11589723031E+04  0.00000000000E+00 0.  1.
         25    1    1    2    0    0  0.44155582038E+02 -0.20114642021E+03 -0.21335236007E+03  0.32179780505E+03  0.12500000000E+03 0.  0.
         21    1    1    2  503  502 -0.44155582038E+02  0.20114642021E+03 -0.87950308486E+03  0.90329135613E+03  0.00000000000E+00 0.  1.
<mgrwt>
<rscale>  3 0.24090371E+03</rscale>
<asrwt>0</asrwt>
<pdfrwt beam="1">  1       21 0.10171825E-01 0.24090371E+03</pdfrwt>
<pdfrwt beam="2">  1       21 0.17830341E+00 0.24090371E+03</pdfrwt>
<totfact> 0.14225441E+04</totfact>
</mgrwt>
</event>
<event>
 4    0  0.1850166E-001  0.2983555E+03  0.7546771E-02  0.1086066E+00
         21   -1    0    0  502  501  0.00000000000E+00  0.00000000000E+00  0.50775679887E+03  0.50775679887E+03  0.00000000000E+00 0.  1.
         21   -1    0    0  503  502 -0.00000000000E+00 -0.00000000000E+00 -0.86263492902E+03  0.86263492902E+03  0.00000000000E+00 0. -1.
         25    1    1    2    0    0  0.81263149642E+02 -0.25843237147E+03  0.43943642944E+03  0.53115004060E+03  0.12500000000E+03 0.  0.
         21    1    1    2  503  501 -0.81263149642E+02  0.25843237147E+03 -0.79431455959E+03  0.83924168729E+03  0.00000000000E+00 0. -1.
<mgrwt>
<rscale>  3 0.29835548E+03</rscale>
<asrwt>0</asrwt>
<pdfrwt beam="1">  1       21 0.78116431E-01 0.29835548E+03</pdfrwt>
<pdfrwt beam="2">  1       21 0.13271306E+00 0.29835548E+03</pdfrwt>
<totfact> 0.54181553E+02</totfact>
</mgrwt>
</event>
<event>
 4    0  0.1003929E-001  0.5346903E+03  0.7546771E-02  0.1005101E+00
         21   -1    0    0  502  501  0.00000000000E+00  0.00000000000E+00  0.21798988142E+04  0.21798988142E+04  0.00000000000E+00 0.  1.
         21   -1    0    0  503  502 -0.00000000000E+00 -0.00000000000E+00 -0.13140103824E+03  0.13140103824E+03  0.00000000000E+00 0.  1.
         25    1    1    2    0    0 -0.58953303651E+02 -0.51652033981E+03  0.12362708335E+04  0.13469444410E+04  0.12500000000E+03 0.  0.
         21    1    1    2  503  501  0.58953303651E+02  0.51652033981E+03  0.81222694247E+03  0.96435541142E+03  0.00000000000E+00 0.  1.
<mgrwt>
<rscale>  3 0.53469033E+03</rscale>
<asrwt>0</asrwt>
<pdfrwt beam="1">  1       21 0.33536902E+00 0.53469033E+03</pdfrwt>
<pdfrwt beam="2">  1       21 0.20215546E-01 0.53469033E+03</pdfrwt>
<totfact> 0.36077739E+02</totfact>
</mgrwt>
</event>
<event>
 4    0  0.1099725E-001  0.2414137E+03  0.7546771E-02  0.1118855E+00
         21   -1    0    0  503  501  0.00000000000E+00  0.00000000000E+00  0.13444450046E+04  0.13444450046E+04  0.00000000000E+00 0.  1.
         21   -1    0    0  501  502 -0.00000000000E+00 -0.00000000000E+00 -0.40064834338E+02  0.40064834338E+02  0.00000000000E+00 0.  1.
         25    1    1    2    0    0  0.18437934757E+03  0.93058133114E+02  0.88043191247E+03  0.91292985078E+03  0.12500000000E+03 0.  0.
         21    1    1    2  503  502 -0.18437934757E+03 -0.93058133114E+02  0.42394825784E+03  0.47157998820E+03  0.00000000000E+00 0.  1.
<mgrwt>
<rscale>  3 0.24141367E+03</rscale>
<asrwt>0</asrwt>
<pdfrwt beam="1">  1       21 0.20683766E+00 0.24141367E+03</pdfrwt>
<pdfrwt beam="2">  1       21 0.61638217E-02 0.24141367E+03</pdfrwt>
<totfact> 0.22101924E+04</totfact>
</mgrwt>
</event>
<event>
 4    0  0.1003929E-001  0.4185823E+03  0.7546771E-02  0.1037529E+00
         21   -1    0    0  503  501  0.00000000000E+00  0.00000000000E+00  0.58774056903E+03  0.58774056903E+03  0.00000000000E+00 0. -1.
         21   -1    0    0  501  502 -0.00000000000E+00 -0.00000000000E+00 -0.82735205063E+03  0.82735205063E+03  0.00000000000E+00 0. -1.
         25    1    1    2    0    0  0.28974801814E+03 -0.27501318548E+03  0.45221896051E+03  0.61620869391E+03  0.12500000000E+03 0.  0.
         21    1    1    2  503  502 -0.28974801814E+03  0.27501318548E+03 -0.69183044210E+03  0.79888392575E+03  0.00000000000E+00 0. -1.
<mgrwt>
<rscale>  3 0.41858233E+03</rscale>
<asrwt>0</asrwt>
<pdfrwt beam="1">  1       21 0.90421626E-01 0.41858233E+03</pdfrwt>
<pdfrwt beam="2">  1       21 0.12728493E+00 0.41858233E+03</pdfrwt>
<totfact> 0.39982162E+02</totfact>
</mgrwt>
</event>
<event>
 4    0  0.1406225E-001  0.2545425E+03  0.7546771E-02  0.1110467E+00
         21   -1    0    0  503  501  0.00000000000E+00  0.00000000000E+00  0.11072701284E+04  0.11072701284E+04  0.00000000000E+00 0. -1.
         21   -1    0    0  501  502 -0.00000000000E+00 -0.00000000000E+00 -0.11168497293E+03  0.11168497293E+03  0.00000000000E+00 0.  1.
         25    1    1    2    0    0 -0.19867838418E+03  0.98457021047E+02  0.96149010740E+03  0.99461304634E+03  0.12500000000E+03 0.  0.
         21    1    1    2  503  502  0.19867838418E+03 -0.98457021047E+02  0.34095048089E+02  0.22434205500E+03  0.00000000000E+00 0.  1.
<mgrwt>
<rscale>  3 0.25454250E+03</rscale>
<asrwt>0</asrwt>
<pdfrwt beam="1">  1       21 0.17034924E+00 0.25454250E+03</pdfrwt>
<pdfrwt beam="2">  1       21 0.17182304E-01 0.25454250E+03</pdfrwt>
<totfact> 0.61951621E+03</totfact>
</mgrwt>
</event>
<event>
 4    0  0.1003929E-001  0.3025150E+03  0.7546771E-02  0.1083990E+00
         21   -1    0    0  503  501  0.00000000000E+00  0.00000000000E+00  0.21720636584E+04  0.21720636584E+04  0.00000000000E+00 0. -1.
         21   -1    0    0  501  502 -0.00000000000E+00 -0.00000000000E+00 -0.63597875481E+02  0.63597875481E+02  0.00000000000E+00 0. -1.
         25    1    1    2    0    0  0.21311450741E+03 -0.17456375067E+03  0.17864711026E+04  0.18119035009E+04  0.12500000000E+03 0.  0.
         21    1    1    2  503  502 -0.21311450741E+03  0.17456375067E+03  0.32199468030E+03  0.42375803292E+03  0.00000000000E+00 0. -1.
<mgrwt>
<rscale>  3 0.30251495E+03</rscale>
<asrwt>0</asrwt>
<pdfrwt beam="1">  1       21 0.33416358E+00 0.30251495E+03</pdfrwt>
<pdfrwt beam="2">  1       21 0.97842902E-02 0.30251495E+03</pdfrwt>
<totfact> 0.16230519E+03</totfact>
</mgrwt>
</event>
<event>
 4    0  0.1075755E-001  0.2754104E+03  0.7546771E-02  0.1098222E+00
         21   -1    0    0  502  501  0.00000000000E+00  0.00000000000E+00  0.96547789002E+02  0.96547789002E+02  0.00000000000E+00 0. -1.
         21   -1    0    0  503  502 -0.00000000000E+00 -0.00000000000E+00 -0.83152896644E+03  0.83152896644E+03  0.00000000000E+00 0. -1.
         25    1    1    2    0    0  0.85860701617E+02 -0.22989956806E+03 -0.56799167277E+03  0.63124116771E+03  0.12500000000E+03 0.  0.
         21    1    1    2  503  501 -0.85860701617E+02  0.22989956806E+03 -0.16698950467E+03  0.29683558773E+03  0.00000000000E+00 0. -1.
<mgrwt>
<rscale>  3 0.27541037E+03</rscale>
<asrwt>0</asrwt>
<pdfrwt beam="1">  1       21 0.14853505E-01 0.27541037E+03</pdfrwt>
<pdfrwt beam="2">  1       21 0.12792754E+00 0.27541037E+03</pdfrwt>
<totfact> 0.17143942E+04</totfact>
</mgrwt>
</event>
<event>
 4    0  0.1003929E-001  0.3095990E+03  0.7546771E-02  0.1080538E+00
         21   -1    0    0  503  501  0.00000000000E+00  0.00000000000E+00  0.27540012827E+04  0.27540012827E+04  0.00000000000E+00 0. -1.
         21   -1    0    0  501  502 -0.00000000000E+00 -0.00000000000E+00 -0.35187826645E+02  0.35187826645E+02  0.00000000000E+00 0. -1.
         25    1    1    2    0    0  0.24615302915E+03 -0.14012586231E+03  0.18398117125E+04  0.18656791548E+04  0.12500000000E+03 0.  0.
         21    1    1    2  503  502 -0.24615302915E+03  0.14012586231E+03  0.87900174355E+03  0.92350995458E+03  0.00000000000E+00 0. -1.
<mgrwt>
<rscale>  3 0.30959905E+03</rscale>
<asrwt>0</asrwt>
<pdfrwt beam="1">  1       21 0.42369233E+00 0.30959905E+03</pdfrwt>
<pdfrwt beam="2">  1       21 0.54135140E-02 0.30959905E+03</pdfrwt>
<totfact> 0.12631263E+03</totfact>
</mgrwt>
</event>
<event>
 4    0  0.1003929E-001  0.2628955E+03  0.7546771E-02  0.1105416E+00
         21   -1    0    0  502  501  0.00000000000E+00  0.00000000000E+00  0.44808940777E+03  0.44808940777E+03  0.00000000000E+00 0.  1.
         21   -1    0    0  503  502 -0.00000000000E+00 -0.00000000000E+00 -0.17188037488E+03  0.17188037488E+03  0.00000000000E+00 0.  1.
         25    1    1    2    0    0  0.20365843795E+03  0.10960065738E+03  0.41998446302E+01  0.26292908197E+03  0.12500000000E+03 0.  0.
         21    1    1    2  503  501 -0.20365843795E+03 -0.10960065738E+03  0.27200918826E+03  0.35704070069E+03  0.00000000000E+00 0.  1.
<mgrwt>
<rscale>  3 0.26289554E+03</rscale>
<asrwt>0</asrwt>
<pdfrwt beam="1">  1       21 0.68936831E-01 0.26289554E+03</pdfrwt>
<pdfrwt beam="2">  1       21 0.26443135E-01 0.26289554E+03</pdfrwt>
<totfact> 0.25153030E+04</totfact>
</mgrwt>
</event>
<event>
 4    0  0.1003929E-001  0.2591326E+03  0.7546771E-02  0.1107665E+00
         21   -1    0    0  503  501  0.00000000000E+00  0.00000000000E+00  0.22708457870E+04  0.22708457870E+04  0.00000000000E+00 0.  1.
         21   -1    0    0  501  502 -0.00000000000E+00 -0.00000000000E+00 -0.27095685348E+02  0.27095685348E+02  0.00000000000E+00 0.  1.
         25    1    1    2    0    0  0.20579999900E+03  0.95765719725E+02  0.14219417193E+04  0.14453608428E+04  0.12500000000E+03 0.  0.
         21    1    1    2  503  502 -0.20579999900E+03 -0.95765719725E+02  0.82180838235E+03  0.85258062959E+03  0.00000000000E+00 0.  1.
<mgrwt>
<rscale>  3 0.25913262E+03</rscale>
<asrwt>0</asrwt>
<pdfrwt beam="1">  1       21 0.34936074E+00 0.25913262E+03</pdfrwt>
<pdfrwt beam="2">  1       21 0.41685687E-02 0.25913262E+03</pdfrwt>
<totfact> 0.60046094E+03</totfact>
</mgrwt>
</event>
<event>
 4    0  0.1148488E-001  0.2996905E+03  0.7546771E-02  0.1085395E+00
         21   -1    0    0  502  501  0.00000000000E+00  0.00000000000E+00  0.43946391755E+03  0.43946391755E+03  0.00000000000E+00 0.  1.
         21   -1    0    0  503  502 -0.00000000000E+00 -0.00000000000E+00 -0.47827066629E+03  0.47827066629E+03  0.00000000000E+00 0.  1.
         25    1    1    2    0    0 -0.26102348229E+03  0.77821314945E+02  0.33868143141E+03  0.45223835236E+03  0.12500000000E+03 0.  0.
         21    1    1    2  503  501  0.26102348229E+03 -0.77821314945E+02 -0.37748818016E+03  0.46549623148E+03  0.00000000000E+00 0.  1.
<mgrwt>
<rscale>  3 0.29969053E+03</rscale>
<asrwt>0</asrwt>
<pdfrwt beam="1">  1       21 0.67609834E-01 0.29969053E+03</pdfrwt>
<pdfrwt beam="2">  1       21 0.73580102E-01 0.29969053E+03</pdfrwt>
<totfact> 0.30839787E+03</totfact>
</mgrwt>
</event>
<event>
 4    0  0.1003929E-001  0.2611997E+03  0.7546771E-02  0.1106425E+00
         21   -1    0    0  503  501  0.00000000000E+00  0.00000000000E+00  0.28474445973E+04  0.28474445973E+04  0.00000000000E+00 0.  1.
         21   -1    0    0  501  502 -0.00000000000E+00 -0.00000000000E+00 -0.65725067939E+02  0.65725067939E+02  0.00000000000E+00 0.  1.
         25    1    1    2    0    0 -0.22887885094E+03 -0.14655343787E+02  0.26189250636E+04  0.26319182731E+04  0.12500000000E+03 0.  0.
         21    1    1    2  503  502  0.22887885094E+03  0.14655343787E+02  0.16279446579E+03  0.28125139218E+03  0.00000000000E+00 0.  1.
<mgrwt>
<rscale>  3 0.26119975E+03</rscale>
<asrwt>0</asrwt>
<pdfrwt beam="1">  1       21 0.43806831E+00 0.26119975E+03</pdfrwt>
<pdfrwt beam="2">  1       21 0.10111551E-01 0.26119975E+03</pdfrwt>
<totfact> 0.35914796E+02</totfact>
</mgrwt>
</event>
<event>
 4    0  0.1224040E-001  0.3561164E+03  0.7546771E-02  0.1060132E+00
         21   -1    0    0  502  501  0.00000000000E+00  0.00000000000E+00  0.21163703233E+03  0.21163703233E+03  0.00000000000E+00 0. -1.
         21   -1    0    0  503  502 -0.00000000000E+00 -0.00000000000E+00 -0.81986968072E+03  0.81986968072E+03  0.00000000000E+00 0. -1.
         25    1    1    2    0    0 -0.25395686637E+03  0.21610136588E+03 -0.21657990091E+02  0.35677438087E+03  0.12500000000E+03 0.  0.
         21    1    1    2  503  501  0.25395686637E+03 -0.21610136588E+03 -0.58657465830E+03  0.67473233217E+03  0.00000000000E+00 0. -1.
<mgrwt>
<rscale>  3 0.35611640E+03</rscale>
<asrwt>0</asrwt>
<pdfrwt beam="1">  1       21 0.32559544E-01 0.35611640E+03</pdfrwt>
<pdfrwt beam="2">  1       21 0.12613380E+00 0.35611640E+03</pdfrwt>
<totfact> 0.38250661E+03</totfact>
</mgrwt>
</event>
<event>
 4    0  0.1003929E-001  0.3158514E+03  0.7546771E-02  0.1077575E+00
         21   -1    0    0  503  501  0.00000000000E+00  0.00000000000E+00  0.68915193684E+03  0.68915193684E+03  0.00000000000E+00 0. -1.
         21   -1    0    0  501  502 -0.00000000000E+00 -0.00000000000E+00 -0.32842597163E+03  0.32842597163E+03  0.00000000000E+00 0. -1.
         25    1    1    2    0    0 -0.22287465173E+03 -0.18564486266E+03 -0.20866946456E+03  0.37855656230E+03  0.12500000000E+03 0.  0.
         21    1    1    2  503  502  0.22287465173E+03  0.18564486266E+03  0.56939542978E+03  0.63902134617E+03  0.00000000000E+00 0. -1.
<mgrwt>
<rscale>  3 0.31585143E+03</rscale>
<asrwt>0</asrwt>
<pdfrwt beam="1">  1       21 0.10602337E+00 0.31585143E+03</pdfrwt>
<pdfrwt beam="2">  1       21 0.50527073E-01 0.31585143E+03</pdfrwt>
<totfact> 0.24422338E+03</totfact>
</mgrwt>
</event>
<event>
 4    0  0.1003929E-001  0.2737059E+03  0.7546771E-02  0.1099177E+00
         21   -1    0    0  503  501  0.00000000000E+00  0.00000000000E+00  0.18776646399E+04  0.18776646399E+04  0.00000000000E+00 0.  1.
         21   -1    0    0  501  502 -0.00000000000E+00 -0.00000000000E+00 -0.69436585481E+02  0.69436585481E+02  0.00000000000E+00 0.  1.
         25    1    1    2    0    0  0.22178140578E+03  0.10051345393E+03  0.16100565386E+04  0.16331555357E+04  0.12500000000E+03 0.  0.
         21    1    1    2  503  502 -0.22178140578E+03 -0.10051345393E+03  0.19817151581E+03  0.31394568965E+03  0.00000000000E+00 0.  1.
<mgrwt>
<rscale>  3 0.27370595E+03</rscale>
<asrwt>0</asrwt>
<pdfrwt beam="1">  1       21 0.28887145E+00 0.27370595E+03</pdfrwt>
<pdfrwt beam="2">  1       21 0.10682553E-01 0.27370595E+03</pdfrwt>
<totfact> 0.26308229E+03</totfact>
</mgrwt>
</event>
<event>
 4    0  0.1286145E-001  0.3151479E+03  0.7546771E-02  0.1077904E+00
         21   -1    0    0  503  501  0.00000000000E+00  0.00000000000E+00  0.88083208116E+03  0.88083208116E+03  0.00000000000E+00 0.  1.
         21   -1    0    0  501  502 -0.00000000000E+00 -0.00000000000E+00 -0.21388942990E+03  0.21388942990E+03  0.00000000000E+00 0. -1.
         25    1    1    2    0    0  0.24073679992E+03 -0.16043371158E+03  0.73308870630E+03  0.79795816554E+03  0.12500000000E+03 0.  0.
         21    1    1    2  503  502 -0.24073679992E+03  0.16043371158E+03 -0.66146055039E+02  0.29676334552E+03  0.00000000000E+00 0. -1.
<mgrwt>
<rscale>  3 0.31514787E+03</rscale>
<asrwt>0</asrwt>
<pdfrwt beam="1">  1       21 0.13551263E+00 0.31514787E+03</pdfrwt>
<pdfrwt beam="2">  1       21 0.32906067E-01 0.31514787E+03</pdfrwt>
<totfact> 0.31778832E+03</totfact>
</mgrwt>
</event>
<event>
 4    0  0.1336608E-001  0.2446086E+03  0.7546771E-02  0.1116760E+00
         21   -1    0    0  502  501  0.00000000000E+00  0.00000000000E+00  0.82325730189E+03  0.82325730189E+03  0.00000000000E+00 0. -1.
         21   -1    0    0  503  502 -0.00000000000E+00 -0.00000000000E+00 -0.62834878926E+02  0.62834878926E+02  0.00000000000E+00 0. -1.
         25    1    1    2    0    0  0.22386849268E+02  0.20906263799E+03  0.41250840520E+03  0.47957954709E+03  0.12500000000E+03 0.  0.
         21    1    1    2  503  501 -0.22386849268E+02 -0.20906263799E+03  0.34791401776E+03  0.40651263373E+03  0.00000000000E+00 0. -1.
<mgrwt>
<rscale>  3 0.24460858E+03</rscale>
<asrwt>0</asrwt>
<pdfrwt beam="1">  1       21 0.12665496E+00 0.24460858E+03</pdfrwt>
<pdfrwt beam="2">  1       21 0.96669050E-02 0.24460858E+03</pdfrwt>
<totfact> 0.38694074E+04</totfact>
</mgrwt>
</event>
<event>
 4    0  0.1003929E-001  0.2378856E+03  0.7546771E-02  0.1121209E+00
         21   -1    0    0  502  501  0.00000000000E+00  0.00000000000E+00  0.22865711132E+03  0.22865711132E+03  0.00000000000E+00 0.  1.
         21   -1    0    0  503  502 -0.00000000000E+00 -0.00000000000E+00 -0.29867569462E+03  0.29867569462E+03  0.00000000000E+00 0. -1.
         25    1    1    2    0    0 -0.86898343531E+02  0.18279294226E+03  0.10474490958E+03  0.25992513909E+03  0.12500000000E+03 0.  0.
         21    1    1    2  503  501  0.86898343531E+02 -0.18279294226E+03 -0.17476349288E+03  0.26740766685E+03  0.00000000000E+00 0. -1.
<mgrwt>
<rscale>  3 0.23788565E+03</rscale>
<asrwt>0</asrwt>
<pdfrwt beam="1">  1       21 0.35178017E-01 0.23788565E+03</pdfrwt>
<pdfrwt beam="2">  1       21 0.45950107E-01 0.23788565E+03</pdfrwt>
<totfact> 0.34576929E+04</totfact>
</mgrwt>
</event>
<event>
 4    0  0.1441506E-001  0.2479835E+03  0.7546771E-02  0.1114586E+00
         21   -1    0    0  503  501  0.00000000000E+00  0.00000000000E+00  0.91553732007E+02  0.91553732007E+02  0.00000000000E+00 0. -1.
         21   -1    0    0  501  502 -0.00000000000E+00 -0.00000000000E+00 -0.58672188265E+03  0.58672188265E+03  0.00000000000E+00 0. -1.
         25    1    1    2    0    0 -0.34524733909E+02  0.21137368482E+03 -0.23952139983E+03  0.34476991293E+03  0.12500000000E+03 0.  0.
         21    1    1    2  503  502  0.34524733909E+02 -0.21137368482E+03 -0.25564675081E+03  0.33350570173E+03  0.00000000000E+00 0. -1.
<mgrwt>
<rscale>  3 0.24798345E+03</rscale>
<asrwt>0</asrwt>
<pdfrwt beam="1">  1       21 0.14085189E-01 0.24798345E+03</pdfrwt>
<pdfrwt beam="2">  1       21 0.90264908E-01 0.24798345E+03</pdfrwt>
<totfact> 0.44699436E+04</totfact>
</mgrwt>
</event>
<event>
 4    0  0.1003929E-001  0.3820219E+03  0.7546771E-02  0.1050189E+00
         21   -1    0    0  503  501  0.00000000000E+00  0.00000000000E+00  0.82792597334E+03  0.82792597334E+03  0.00000000000E+00 0. -1.
         21   -1    0    0  501  502 -0.00000000000E+00 -0.00000000000E+00 -0.12220249961E+04  0.12220249961E+04  0.00000000000E+00 0. -1.
         25    1    1    2    0    0 -0.26588015378E+03 -0.24417920669E+03  0.75463976053E+03  0.84582616968E+03  0.12500000000E+03 0.  0.
         21    1    1    2  503  502  0.26588015378E+03  0.24417920669E+03 -0.11487387833E+04  0.12041247998E+04  0.00000000000E+00 0. -1.
<mgrwt>
<rscale>  3 0.38202191E+03</rscale>
<asrwt>0</asrwt>
<pdfrwt beam="1">  1       21 0.12737323E+00 0.38202191E+03</pdfrwt>
<pdfrwt beam="2">  1       21 0.18800384E+00 0.38202191E+03</pdfrwt>
<totfact> 0.60215685E+01</totfact>
</mgrwt>
</event>
<event>
 4    0  0.1728575E-001  0.3314856E+03  0.7546771E-02  0.1070481E+00
         21   -1    0    0  502  501  0.00000000000E+00  0.00000000000E+00  0.60197206884E+03  0.60197206884E+03  0.00000000000E+00 0.  1.
         21   -1    0    0  503  502 -0.00000000000E+00 -0.00000000000E+00 -0.53985599491E+03  0.53985599491E+03  0.00000000000E+00 0. -1.
         25    1    1    2    0    0 -0.30694225899E+03 -0.66440659609E+01  0.50431269948E+03  0.60350144392E+03  0.12500000000E+03 0.  0.
         21    1    1    2  503  501  0.30694225899E+03  0.66440659609E+01 -0.44219662554E+03  0.53832661982E+03  0.00000000000E+00 0. -1.
<mgrwt>
<rscale>  3 0.33148559E+03</rscale>
<asrwt>0</asrwt>
<pdfrwt beam="1">  1       21 0.92611088E-01 0.33148559E+03</pdfrwt>
<pdfrwt beam="2">  1       21 0.83054768E-01 0.33148559E+03</pdfrwt>
<totfact> 0.11193044E+03</totfact>
</mgrwt>
</event>
<event>
 4    0  0.1473112E-001  0.2885770E+03  0.7546771E-02  0.1091094E+00
         21   -1    0    0  503  501  0.00000000000E+00  0.00000000000E+00  0.29750491244E+03  0.29750491244E+03  0.00000000000E+00 0.  1.
         21   -1    0    0  501  502 -0.00000000000E+00 -0.00000000000E+00 -0.48030272221E+03  0.48030272221E+03  0.00000000000E+00 0. -1.
         25    1    1    2    0    0  0.23853215486E+03  0.10370201829E+03  0.17346600361E+03  0.33670038894E+03  0.12500000000E+03 0.  0.
         21    1    1    2  503  502 -0.23853215486E+03 -0.10370201829E+03 -0.35626381338E+03  0.44110724572E+03  0.00000000000E+00 0. -1.
<mgrwt>
<rscale>  3 0.28857702E+03</rscale>
<asrwt>0</asrwt>
<pdfrwt beam="1">  1       21 0.45769986E-01 0.28857702E+03</pdfrwt>
<pdfrwt beam="2">  1       21 0.73892727E-01 0.28857702E+03</pdfrwt>
<totfact> 0.70919371E+03</totfact>
</mgrwt>
</event>
<event>
 4    0  0.1353564E-001  0.3127212E+03  0.7546771E-02  0.1079049E+00
         21   -1    0    0  503  501  0.00000000000E+00  0.00000000000E+00  0.59265443585E+03  0.59265443585E+03  0.00000000000E+00 0. -1.
         21   -1    0    0  501  502 -0.00000000000E+00 -0.00000000000E+00 -0.18255194248E+03  0.18255194248E+03  0.00000000000E+00 0. -1.
         25    1    1    2    0    0  0.26504292522E+03  0.10918687048E+03  0.37208020094E+03  0.48604341455E+03  0.12500000000E+03 0.  0.
         21    1    1    2  503  502 -0.26504292522E+03 -0.10918687048E+03  0.38022292422E+02  0.28916296377E+03  0.00000000000E+00 0. -1.
<mgrwt>
<rscale>  3 0.31272116E+03</rscale>
<asrwt>0</asrwt>
<pdfrwt beam="1">  1       21 0.91177605E-01 0.31272116E+03</pdfrwt>
<pdfrwt beam="2">  1       21 0.28084914E-01 0.31272116E+03</pdfrwt>
<totfact> 0.11566465E+04</totfact>
</mgrwt>
</event>
<event>
 4    0  0.1003929E-001  0.3851094E+03  0.7546771E-02  0.1049061E+00
         21   -1    0    0  503  501  0.00000000000E+00  0.00000000000E+00  0.24380869725E+04  0.24380869725E+04  0.00000000000E+00 0. -1.
         21   -1    0    0  501  502 -0.00000000000E+00 -0.00000000000E+00 -0.60840133315E+02  0.60840133315E+02  0.00000000000E+00 0. -1.
         25    1    1    2    0    0 -0.35721101523E+03  0.71306091505E+02  0.15089957069E+04  0.15573622930E+04  0.12500000000E+03 0.  0.
         21    1    1    2  503  502  0.35721101523E+03 -0.71306091505E+02  0.86825113224E+03  0.94156481281E+03  0.00000000000E+00 0. -1.
<mgrwt>
<rscale>  3 0.38510942E+03</rscale>
<asrwt>0</asrwt>
<pdfrwt beam="1">  1       21 0.37509023E+00 0.38510942E+03</pdfrwt>
<pdfrwt beam="2">  1       21 0.93600224E-02 0.38510942E+03</pdfrwt>
<totfact> 0.92817218E+02</totfact>
</mgrwt>
</event>
<event>
 4    0  0.1185694E-001  0.2495531E+03  0.7546771E-02  0.1113588E+00
         21   -1    0    0  502  501  0.00000000000E+00  0.00000000000E+00  0.45122383676E+03  0.45122383676E+03  0.00000000000E+00 0.  1.
         21   -1    0    0  503  502 -0.00000000000E+00 -0.00000000000E+00 -0.14899500731E+03  0.14899500731E+03  0.00000000000E+00 0.  1.
         25    1    1    2    0    0  0.21493837332E+03  0.21288982502E+02  0.29182645158E+03  0.38397838864E+03  0.12500000000E+03 0.  0.
         21    1    1    2  503  501 -0.21493837332E+03 -0.21288982502E+02  0.10402377869E+02  0.21624045543E+03  0.00000000000E+00 0.  1.
<mgrwt>
<rscale>  3 0.24955305E+03</rscale>
<asrwt>0</asrwt>
<pdfrwt beam="1">  1       21 0.69419051E-01 0.24955305E+03</pdfrwt>
<pdfrwt beam="2">  1       21 0.22922309E-01 0.24955305E+03</pdfrwt>
<totfact> 0.32772688E+04</totfact>
</mgrwt>
</event>
<event>
 4    0  0.1106357E-001  0.5446862E+03  0.7546771E-02  0.1002731E+00
         21   -1    0    0  503  501  0.00000000000E+00  0.00000000000E+00  0.40867200954E+03  0.40867200954E+03  0.00000000000E+00 0.  1.
         21   -1    0    0  501  502 -0.00000000000E+00 -0.00000000000E+00 -0.11352666988E+04  0.11352666988E+04  0.00000000000E+00 0. -1.
         25    1    1    2    0    0 -0.19328661040E+03  0.49365814714E+03  0.10791221067E+03  0.55527301862E+03  0.12500000000E+03 0.  0.
         21    1    1    2  503  502  0.19328661040E+03 -0.49365814714E+03 -0.83450689991E+03  0.98866568970E+03  0.00000000000E+00 0. -1.
<mgrwt>
<rscale>  3 0.54468622E+03</rscale>
<asrwt>0</asrwt>
<pdfrwt beam="1">  1       21 0.62872618E-01 0.54468622E+03</pdfrwt>
<pdfrwt beam="2">  1       21 0.17465641E+00 0.54468622E+03</pdfrwt>
<totfact> 0.36667577E+02</totfact>
</mgrwt>
</event>
<event>
 4    0  0.1027219E-001  0.3520241E+03  0.7546771E-02  0.1061787E+00
         21   -1    0    0  503  501  0.00000000000E+00  0.00000000000E+00  0.13677829071E+04  0.13677829071E+04  0.00000000000E+00 0.  1.
         21   -1    0    0  501  502 -0.00000000000E+00 -0.00000000000E+00 -0.97207345471E+02  0.97207345471E+02  0.00000000000E+00 0.  1.
         25    1    1    2    0    0 -0.47101241232E+02 -0.32569536303E+03  0.91560243637E+03  0.98094282092E+03  0.12500000000E+03 0.  0.
         21    1    1    2  503  502  0.47101241232E+02  0.32569536303E+03  0.35497312522E+03  0.48404743162E+03  0.00000000000E+00 0.  1.
<mgrwt>
<rscale>  3 0.35202414E+03</rscale>
<asrwt>0</asrwt>
<pdfrwt beam="1">  1       21 0.21042813E+00 0.35202414E+03</pdfrwt>
<pdfrwt beam="2">  1       21 0.14954977E-01 0.35202414E+03</pdfrwt>
<totfact> 0.40608615E+03</totfact>
</mgrwt>
</event>
<event>
 4    0  0.1356611E-001  0.2415250E+03  0.7546771E-02  0.1118781E+00
         21   -1    0    0  502  501  0.00000000000E+00  0.00000000000E+00  0.83701248762E+03  0.83701248762E+03  0.00000000000E+00 0. -1.
         21   -1    0    0  503  502 -0.00000000000E+00 -0.00000000000E+00 -0.61050688335E+02  0.61050688335E+02  0.00000000000E+00 0. -1.
         25    1    1    2    0    0 -0.14873685094E+02 -0.20612635811E+03  0.47646451121E+03  0.53418417467E+03  0.12500000000E+03 0.  0.
         21    1    1    2  503  501  0.14873685094E+02  0.20612635811E+03  0.29949728807E+03  0.36387900129E+03  0.00000000000E+00 0. -1.
<mgrwt>
<rscale>  3 0.24152495E+03</rscale>
<asrwt>0</asrwt>
<pdfrwt beam="1">  1       21 0.12877114E+00 0.24152495E+03</pdfrwt>
<pdfrwt beam="2">  1       21 0.93924142E-02 0.24152495E+03</pdfrwt>
<totfact> 0.39100619E+04</totfact>
</mgrwt>
</event>
<event>
 4    0  0.1152620E-001  0.2500004E+03  0.7546771E-02  0.1113305E+00
         21   -1    0    0  503  501  0.00000000000E+00  0.00000000000E+00  0.35932604669E+03  0.35932604669E+03  0.00000000000E+00 0.  1.
         21   -1    0    0  501  502 -0.00000000000E+00 -0.00000000000E+00 -0.16389190723E+03  0.16389190723E+03  0.00000000000E+00 0.  1.
         25    1    1    2    0    0  0.21522716401E+03  0.23504758341E+02  0.17620918587E+03  0.30585925354E+03  0.12500000000E+03 0.  0.
         21    1    1    2  503  502 -0.21522716401E+03 -0.23504758341E+02  0.19224953586E+02  0.21735870038E+03  0.00000000000E+00 0.  1.
<mgrwt>
<rscale>  3 0.25000041E+03</rscale>
<asrwt>0</asrwt>
<pdfrwt beam="1">  1       21 0.55280930E-01 0.25000041E+03</pdfrwt>
<pdfrwt beam="2">  1       21 0.25214140E-01 0.25000041E+03</pdfrwt>
<totfact> 0.44791751E+04</totfact>
</mgrwt>
</event>
<event>
 4    0  0.1864909E-001  0.3198795E+03  0.7546771E-02  0.1075705E+00
         21   -1    0    0  503  501  0.00000000000E+00  0.00000000000E+00  0.46649703334E+03  0.46649703334E+03  0.00000000000E+00 0.  1.
         21   -1    0    0  501  502 -0.00000000000E+00 -0.00000000000E+00 -0.77363237125E+03  0.77363237125E+03  0.00000000000E+00 0. -1.
         25    1    1    2    0    0  0.28484870622E+03  0.74559331353E+02  0.37753564581E+03  0.49482930712E+03  0.12500000000E+03 0.  0.
         21    1    1    2  503  502 -0.28484870622E+03 -0.74559331353E+02 -0.68467098372E+03  0.74530009746E+03  0.00000000000E+00 0. -1.
<mgrwt>
<rscale>  3 0.31987948E+03</rscale>
<asrwt>0</asrwt>
<pdfrwt beam="1">  1       21 0.71768774E-01 0.31987948E+03</pdfrwt>
<pdfrwt beam="2">  1       21 0.11902037E+00 0.31987948E+03</pdfrwt>
<totfact> 0.85344585E+02</totfact>
</mgrwt>
</event>
<event>
 4    0  0.1441769E-001  0.2443143E+03  0.7546771E-02  0.1116952E+00
         21   -1    0    0  503  501  0.00000000000E+00  0.00000000000E+00  0.48440002589E+03  0.48440002589E+03  0.00000000000E+00 0. -1.
         21   -1    0    0  501  502 -0.00000000000E+00 -0.00000000000E+00 -0.14903154826E+03  0.14903154826E+03  0.00000000000E+00 0. -1.
         25    1    1    2    0    0 -0.77799093851E+01  0.20977117537E+03  0.34563563388E+03  0.42326524121E+03  0.12500000000E+03 0.  0.
         21    1    1    2  503  502  0.77799093851E+01 -0.20977117537E+03 -0.10267156254E+02  0.21016633294E+03  0.00000000000E+00 0. -1.
<mgrwt>
<rscale>  3 0.24431429E+03</rscale>
<asrwt>0</asrwt>
<pdfrwt beam="1">  1       21 0.74523080E-01 0.24431429E+03</pdfrwt>
<pdfrwt beam="2">  1       21 0.22927931E-01 0.24431429E+03</pdfrwt>
<totfact> 0.28029631E+04</totfact>
</mgrwt>
</event>
<event>
 4    0  0.1295633E-001  0.2866007E+03  0.7546771E-02  0.1092137E+00
         21   -1    0    0  503  501  0.00000000000E+00  0.00000000000E+00  0.61398394765E+03  0.61398394765E+03  0.00000000000E+00 0.  1.
         21   -1    0    0  501  502 -0.00000000000E+00 -0.00000000000E+00 -0.16778419438E+03  0.16778419438E+03  0.00000000000E+00 0.  1.
         25    1    1    2    0    0  0.16446986812E+03  0.19865710711E+03  0.43836985818E+03  0.52374432339E+03  0.12500000000E+03 0.  0.
         21    1    1    2  503  502 -0.16446986812E+03 -0.19865710711E+03  0.78298950955E+01  0.25802381863E+03  0.00000000000E+00 0.  1.
<mgrwt>
<rscale>  3 0.28660074E+03</rscale>
<asrwt>0</asrwt>
<pdfrwt beam="1">  1       21 0.94459068E-01 0.28660074E+03</pdfrwt>
<pdfrwt beam="2">  1       21 0.25812953E-01 0.28660074E+03</pdfrwt>
<totfact> 0.12684385E+04</totfact>
</mgrwt>
</event>
<event>
 4    0  0.1171684E-001  0.2434809E+03  0.7546771E-02  0.1117495E+00
         21   -1    0    0  503  501  0.00000000000E+00  0.00000000000E+00  0.38918492108E+03  0.38918492108E+03  0.00000000000E+00 0. -1.
         21   -1    0    0  501  502 -0.00000000000E+00 -0.00000000000E+00 -0.44782146859E+03  0.44782146859E+03  0.00000000000E+00 0. -1.
         25    1    1    2    0    0 -0.16669089327E+03 -0.12598446675E+03  0.32146254720E+03  0.40326307668E+03  0.12500000000E+03 0.  0.
         21    1    1    2  503  502  0.16669089327E+03  0.12598446675E+03 -0.38009909472E+03  0.43374331299E+03  0.00000000000E+00 0. -1.
<mgrwt>
<rscale>  3 0.24348088E+03</rscale>
<asrwt>0</asrwt>
<pdfrwt beam="1">  1       21 0.59874604E-01 0.24348088E+03</pdfrwt>
<pdfrwt beam="2">  1       21 0.68895610E-01 0.24348088E+03</pdfrwt>
<totfact> 0.48159322E+03</totfact>
</mgrwt>
</event>
<event>
 4    0  0.1003929E-001  0.2377040E+03  0.7546771E-02  0.1121332E+00
         21   -1    0    0  502  501  0.00000000000E+00  0.00000000000E+00  0.46493395823E+03  0.46493395823E+03  0.00000000000E+00 0. -1.
         21   -1    0    0  503  502 -0.00000000000E+00 -0.00000000000E+00 -0.11349509511E+03  0.11349509511E+03  0.00000000000E+00 0.  1.
         25    1    1    2    0    0  0.13867918407E+02  0.20170741743E+03  0.27192055941E+03  0.36117030891E+03  0.12500000000E+03 0.  0.
         21    1    1    2  503  501 -0.13867918407E+02 -0.20170741743E+03  0.79518303708E+02  0.21725874443E+03  0.00000000000E+00 0.  1.
<mgrwt>
<rscale>  3 0.23770402E+03</rscale>
<asrwt>0</asrwt>
<pdfrwt beam="1">  1       21 0.71528300E-01 0.23770402E+03</pdfrwt>
<pdfrwt beam="2">  1       21 0.17460784E-01 0.23770402E+03</pdfrwt>
<totfact> 0.51385447E+04</totfact>
</mgrwt>
</event>
<event>
 4    0  0.1465874E-001  0.2404320E+03  0.7546771E-02  0.1119505E+00
         21   -1    0    0  503  501  0.00000000000E+00  0.00000000000E+00  0.31049089246E+03  0.31049089246E+03  0.00000000000E+00 0. -1.
         21   -1    0    0  501  502 -0.00000000000E+00 -0.00000000000E+00 -0.24555426338E+03  0.24555426338E+03  0.00000000000E+00 0. -1.
         25    1    1    2    0    0  0.37969194076E+02  0.20184372359E+03  0.19787898203E+03  0.31138985208E+03  0.12500000000E+03 0.  0.
         21    1    1    2  503  502 -0.37969194076E+02 -0.20184372359E+03 -0.13294235294E+03  0.24465530376E+03  0.00000000000E+00 0. -1.
<mgrwt>
<rscale>  3 0.24043200E+03</rscale>
<asrwt>0</asrwt>
<pdfrwt beam="1">  1       21 0.47767830E-01 0.24043200E+03</pdfrwt>
<pdfrwt beam="2">  1       21 0.37777579E-01 0.24043200E+03</pdfrwt>
<totfact> 0.27618383E+04</totfact>
</mgrwt>
</event>
<event>
 4    0  0.1136843E-001  0.2460566E+03  0.7546771E-02  0.1115823E+00
         21   -1    0    0  503  501  0.00000000000E+00  0.00000000000E+00  0.42225772788E+03  0.42225772788E+03  0.00000000000E+00 0.  1.
         21   -1    0    0  501  502 -0.00000000000E+00 -0.00000000000E+00 -0.38709754703E+03  0.38709754703E+03  0.00000000000E+00 0.  1.
         25    1    1    2    0    0 -0.11120832481E+03 -0.18042052310E+03  0.35120654879E+03  0.42882385262E+03  0.12500000000E+03 0.  0.
         21    1    1    2  503  502  0.11120832481E+03  0.18042052310E+03 -0.31604636794E+03  0.38053142229E+03  0.00000000000E+00 0.  1.
<mgrwt>
<rscale>  3 0.24605661E+03</rscale>
<asrwt>0</asrwt>
<pdfrwt beam="1">  1       21 0.64962727E-01 0.24605661E+03</pdfrwt>
<pdfrwt beam="2">  1       21 0.59553469E-01 0.24605661E+03</pdfrwt>
<totfact> 0.55361625E+03</totfact>
</mgrwt>
</event>
<event>
 4    0  0.1454000E-001  0.2366310E+03  0.7546771E-02  0.1122058E+00
         21   -1    0    0  503  501  0.00000000000E+00  0.00000000000E+00  0.64600631109E+03  0.64600631109E+03  0.00000000000E+00 0.  1.
         21   -1    0    0  501  502 -0.00000000000E+00 -0.00000000000E+00 -0.16728665390E+03  0.16728665390E+03  0.00000000000E+00 0. -1.
         25    1    1    2    0    0 -0.16888020993E+03  0.10885181850E+03  0.55108235375E+03  0.59973827984E+03  0.12500000000E+03 0.  0.
         21    1    1    2  503  502  0.16888020993E+03 -0.10885181850E+03 -0.72362696550E+02  0.21355468515E+03  0.00000000000E+00 0. -1.
<mgrwt>
<rscale>  3 0.23663103E+03</rscale>
<asrwt>0</asrwt>
<pdfrwt beam="1">  1       21 0.99385585E-01 0.23663103E+03</pdfrwt>
<pdfrwt beam="2">  1       21 0.25736409E-01 0.23663103E+03</pdfrwt>
<totfact> 0.11604578E+04</totfact>
</mgrwt>
</event>
<event>
 4    0  0.1453151E-001  0.2633801E+03  0.7546771E-02  0.1105129E+00
         21   -1    0    0  503  501  0.00000000000E+00  0.00000000000E+00  0.16636443603E+03  0.16636443603E+03  0.00000000000E+00 0.  1.
         21   -1    0    0  501  502 -0.00000000000E+00 -0.00000000000E+00 -0.40554092681E+03  0.40554092681E+03  0.00000000000E+00 0.  1.
         25    1    1    2    0    0  0.53473059615E+02  0.22557642452E+03 -0.40267898916E+02  0.26644060330E+03  0.12500000000E+03 0.  0.
         21    1    1    2  503  502 -0.53473059615E+02 -0.22557642452E+03 -0.19890859187E+03  0.30546475954E+03  0.00000000000E+00 0.  1.
<mgrwt>
<rscale>  3 0.26338013E+03</rscale>
<asrwt>0</asrwt>
<pdfrwt beam="1">  1       21 0.25594529E-01 0.26338013E+03</pdfrwt>
<pdfrwt beam="2">  1       21 0.62390910E-01 0.26338013E+03</pdfrwt>
<totfact> 0.33348119E+04</totfact>
</mgrwt>
</event>
<event>
 4    0  0.1257946E-001  0.2858368E+03  0.7546771E-02  0.1092543E+00
         21   -1    0    0  503  501  0.00000000000E+00  0.00000000000E+00  0.99187320331E+03  0.99187320331E+03  0.00000000000E+00 0.  1.
         21   -1    0    0  501  502 -0.00000000000E+00 -0.00000000000E+00 -0.12230910755E+03  0.12230910755E+03  0.00000000000E+00 0.  1.
         25    1    1    2    0    0 -0.25452197094E+03 -0.36003678783E+02  0.79755822611E+03  0.84723185883E+03  0.12500000000E+03 0.  0.
         21    1    1    2  503  502  0.25452197094E+03  0.36003678783E+02  0.72005869647E+02  0.26695045203E+03  0.00000000000E+00 0.  1.
<mgrwt>
<rscale>  3 0.28583684E+03</rscale>
<asrwt>0</asrwt>
<pdfrwt beam="1">  1       21 0.15259587E+00 0.28583684E+03</pdfrwt>
<pdfrwt beam="2">  1       21 0.18816786E-01 0.28583684E+03</pdfrwt>
<totfact> 0.69380610E+03</totfact>
</mgrwt>
</event>
<event>
 4    0  0.1003929E-001  0.2410062E+03  0.7546771E-02  0.1119124E+00
         21   -1    0    0  502  501  0.00000000000E+00  0.00000000000E+00  0.27908116382E+02  0.27908116382E+02  0.00000000000E+00 0.  1.
         21   -1    0    0  503  502 -0.00000000000E+00 -0.00000000000E+00 -0.19080884630E+04  0.19080884630E+04  0.00000000000E+00 0.  1.
         25    1    1    2    0    0 -0.77975796997E+02  0.19073217472E+03 -0.12487861170E+04  0.12718296872E+04  0.12500000000E+03 0.  0.
         21    1    1    2  503  501  0.77975796997E+02 -0.19073217472E+03 -0.63139422963E+03  0.66416689213E+03  0.00000000000E+00 0.  1.
<mgrwt>
<rscale>  3 0.24100620E+03</rscale>
<asrwt>0</asrwt>
<pdfrwt beam="1">  1       21 0.42935548E-02 0.24100620E+03</pdfrwt>
<pdfrwt beam="2">  1       21 0.29355218E+00 0.24100620E+03</pdfrwt>
<totfact> 0.12360471E+04</totfact>
</mgrwt>
</event>
<event>
 4    0  0.1003929E-001  0.3459429E+03  0.7546771E-02  0.1064293E+00
         21   -1    0    0  502  501  0.00000000000E+00  0.00000000000E+00  0.25163202411E+04  0.25163202411E+04  0.00000000000E+00 0.  1.
         21   -1    0    0  503  502 -0.00000000000E+00 -0.00000000000E+00 -0.33455786172E+03  0.33455786172E+03  0.00000000000E+00 0.  1.
         25    1    1    2    0    0  0.20627471066E+03  0.24799650611E+03  0.24233194558E+04  0.24478876012E+04  0.12500000000E+03 0.  0.
         21    1    1    2  503  501 -0.20627471066E+03 -0.24799650611E+03 -0.24155707636E+03  0.40299050168E+03  0.00000000000E+00 0.  1.
<mgrwt>
<rscale>  3 0.34594295E+03</rscale>
<asrwt>0</asrwt>
<pdfrwt beam="1">  1       21 0.38712618E+00 0.34594295E+03</pdfrwt>
<pdfrwt beam="2">  1       21 0.51470442E-01 0.34594295E+03</pdfrwt>
<totfact> 0.30265273E+01</totfact>
</mgrwt>
</event>
<event>
 4    0  0.1487118E-001  0.3358043E+03  0.7546771E-02  0.1068597E+00
         21   -1    0    0  503  501  0.00000000000E+00  0.00000000000E+00  0.25853044314E+03  0.25853044314E+03  0.00000000000E+00 0.  1.
         21   -1    0    0  501  502 -0.00000000000E+00 -0.00000000000E+00 -0.40619959249E+03  0.40619959249E+03  0.00000000000E+00 0.  1.
         25    1    1    2    0    0  0.21661693718E+03 -0.22409065315E+03 -0.61780539511E+02  0.34144011681E+03  0.12500000000E+03 0.  0.
         21    1    1    2  503  502 -0.21661693718E+03  0.22409065315E+03 -0.85888609845E+02  0.32328991882E+03  0.00000000000E+00 0.  1.
<mgrwt>
<rscale>  3 0.33580429E+03</rscale>
<asrwt>0</asrwt>
<pdfrwt beam="1">  1       21 0.39773914E-01 0.33580429E+03</pdfrwt>
<pdfrwt beam="2">  1       21 0.62492245E-01 0.33580429E+03</pdfrwt>
<totfact> 0.13463969E+04</totfact>
</mgrwt>
</event>
<event>
 4    0  0.1041091E-001  0.4719144E+03  0.7546771E-02  0.1021381E+00
         21   -1    0    0  503  501  0.00000000000E+00  0.00000000000E+00  0.10331300951E+04  0.10331300951E+04  0.00000000000E+00 0. -1.
         21   -1    0    0  501  502 -0.00000000000E+00 -0.00000000000E+00 -0.25558084196E+03  0.25558084196E+03  0.00000000000E+00 0. -1.
         25    1    1    2    0    0  0.66511884898E+02  0.45017150508E+03  0.67271127614E+03  0.82173211929E+03  0.12500000000E+03 0.  0.
         21    1    1    2  503  502 -0.66511884898E+02 -0.45017150508E+03  0.10483797700E+03  0.46697881777E+03  0.00000000000E+00 0. -1.
<mgrwt>
<rscale>  3 0.47191441E+03</rscale>
<asrwt>0</asrwt>
<pdfrwt beam="1">  1       21 0.15894309E+00 0.47191441E+03</pdfrwt>
<pdfrwt beam="2">  1       21 0.39320130E-01 0.47191441E+03</pdfrwt>
<totfact> 0.13429672E+03</totfact>
</mgrwt>
</event>
<event>
 4    0  0.1481873E-001  0.2698025E+03  0.7546771E-02  0.1101393E+00
         21   -1    0    0  503  501  0.00000000000E+00  0.00000000000E+00  0.11243703625E+03  0.11243703625E+03  0.00000000000E+00 0. -1.
         21   -1    0    0  501  502 -0.00000000000E+00 -0.00000000000E+00 -0.57583598394E+03  0.57583598394E+03  0.00000000000E+00 0. -1.
         25    1    1    2    0    0  0.15623706484E+03 -0.18099268644E+03 -0.24608992640E+03  0.36517615591E+03  0.12500000000E+03 0.  0.
         21    1    1    2  503  502 -0.15623706484E+03  0.18099268644E+03 -0.21730902129E+03  0.32309686428E+03  0.00000000000E+00 0. -1.
<mgrwt>
<rscale>  3 0.26980247E+03</rscale>
<asrwt>0</asrwt>
<pdfrwt beam="1">  1       21 0.17298006E-01 0.26980247E+03</pdfrwt>
<pdfrwt beam="2">  1       21 0.88590151E-01 0.26980247E+03</pdfrwt>
<totfact> 0.31706763E+04</totfact>
</mgrwt>
</event>
<event>
 4    0  0.1003929E-001  0.2927331E+03  0.7546771E-02  0.1088931E+00
         21   -1    0    0  503  501  0.00000000000E+00  0.00000000000E+00  0.30788204182E+03  0.30788204182E+03  0.00000000000E+00 0.  1.
         21   -1    0    0  501  502 -0.00000000000E+00 -0.00000000000E+00 -0.29903648314E+03  0.29903648314E+03  0.00000000000E+00 0. -1.
         25    1    1    2    0    0 -0.20936059142E+03  0.16197464503E+03  0.12442947419E+03  0.31808070819E+03  0.12500000000E+03 0.  0.
         21    1    1    2  503  502  0.20936059142E+03 -0.16197464503E+03 -0.11558391551E+03  0.28883781677E+03  0.00000000000E+00 0. -1.
<mgrwt>
<rscale>  3 0.29273306E+03</rscale>
<asrwt>0</asrwt>
<pdfrwt beam="1">  1       21 0.47366468E-01 0.29273306E+03</pdfrwt>
<pdfrwt beam="2">  1       21 0.46005613E-01 0.29273306E+03</pdfrwt>
<totfact> 0.18348624E+04</totfact>
</mgrwt>
</event>
<event>
 4    0  0.1003929E-001  0.2484966E+03  0.7546771E-02  0.1114259E+00
         21   -1    0    0  502  501  0.00000000000E+00  0.00000000000E+00  0.21590818728E+04  0.21590818728E+04  0.00000000000E+00 0. -1.
         21   -1    0    0  503  502 -0.00000000000E+00 -0.00000000000E+00 -0.24991033740E+02  0.24991033740E+02  0.00000000000E+00 0. -1.
         25    1    1    2    0    0  0.17680338801E+03 -0.12192660987E+03  0.10625354030E+04  0.10912066802E+04  0.12500000000E+03 0.  0.
         21    1    1    2  503  501 -0.17680338801E+03  0.12192660987E+03  0.10715554361E+04  0.10928662264E+04  0.00000000000E+00 0. -1.
<mgrwt>
<rscale>  3 0.24849655E+03</rscale>
<asrwt>0</asrwt>
<pdfrwt beam="1">  1       21 0.33216629E+00 0.24849655E+03</pdfrwt>
<pdfrwt beam="2">  1       21 0.38447761E-02 0.24849655E+03</pdfrwt>
<totfact> 0.87920856E+03</totfact>
</mgrwt>
</event>
<event>
 4    0  0.1408580E-001  0.2574098E+03  0.7546771E-02  0.1108710E+00
         21   -1    0    0  503  501  0.00000000000E+00  0.00000000000E+00  0.53720134269E+03  0.53720134269E+03  0.00000000000E+00 0. -1.
         21   -1    0    0  501  502 -0.00000000000E+00 -0.00000000000E+00 -0.23067812633E+03  0.23067812633E+03  0.00000000000E+00 0. -1.
         25    1    1    2    0    0  0.91953983352E+02 -0.20537594187E+03  0.43743162498E+03  0.50754924795E+03  0.12500000000E+03 0.  0.
         21    1    1    2  503  502 -0.91953983352E+02  0.20537594187E+03 -0.13090840863E+03  0.26033022107E+03  0.00000000000E+00 0. -1.
<mgrwt>
<rscale>  3 0.25740981E+03</rscale>
<asrwt>0</asrwt>
<pdfrwt beam="1">  1       21 0.82646360E-01 0.25740981E+03</pdfrwt>
<pdfrwt beam="2">  1       21 0.35488943E-01 0.25740981E+03</pdfrwt>
<totfact> 0.93919231E+03</totfact>
</mgrwt>
</event>
<event>
 4    0  0.1689094E-001  0.3264375E+03  0.7546771E-02  0.1072724E+00
         21   -1    0    0  502  501  0.00000000000E+00  0.00000000000E+00  0.33530498143E+03  0.33530498143E+03  0.00000000000E+00 0. -1.
         21   -1    0    0  503  502 -0.00000000000E+00 -0.00000000000E+00 -0.11607381270E+04  0.11607381270E+04  0.00000000000E+00 0.  1.
         25    1    1    2    0    0 -0.23254999642E+03 -0.19198153201E+03  0.22938104059E+03  0.39897001297E+03  0.12500000000E+03 0.  0.
         21    1    1    2  503  501  0.23254999642E+03  0.19198153201E+03 -0.10548141862E+04  0.10970730955E+04  0.00000000000E+00 0.  1.
<mgrwt>
<rscale>  3 0.32643745E+03</rscale>
<asrwt>0</asrwt>
<pdfrwt beam="1">  1       21 0.51585382E-01 0.32643745E+03</pdfrwt>
<pdfrwt beam="2">  1       21 0.17857510E+00 0.32643745E+03</pdfrwt>
<totfact> 0.59057440E+02</totfact>
</mgrwt>
</event>
<event>
 4    0  0.1196049E-001  0.2511831E+03  0.7546771E-02  0.1112559E+00
         21   -1    0    0  503  501  0.00000000000E+00  0.00000000000E+00  0.42556019728E+02  0.42556019728E+02  0.00000000000E+00 0. -1.
         21   -1    0    0  501  502 -0.00000000000E+00 -0.00000000000E+00 -0.14967292329E+04  0.14967292329E+04  0.00000000000E+00 0. -1.
         25    1    1    2    0    0  0.95572476009E+01 -0.21766170121E+03 -0.48798708739E+03  0.54883909720E+03  0.12500000000E+03 0.  0.
         21    1    1    2  503  502 -0.95572476009E+01  0.21766170121E+03 -0.96618612575E+03  0.99044615540E+03  0.00000000000E+00 0. -1.
<mgrwt>
<rscale>  3 0.25118311E+03</rscale>
<asrwt>0</asrwt>
<pdfrwt beam="1">  1       21 0.65470807E-02 0.25118311E+03</pdfrwt>
<pdfrwt beam="2">  1       21 0.23026601E+00 0.25118311E+03</pdfrwt>
<totfact> 0.14135199E+04</totfact>
</mgrwt>
</event>
<event>
 4    0  0.1442619E-001  0.3275756E+03  0.7546771E-02  0.1072215E+00
         21   -1    0    0  502  501  0.00000000000E+00  0.00000000000E+00  0.36632463022E+03  0.36632463022E+03  0.00000000000E+00 0.  1.
         21   -1    0    0  503  502 -0.00000000000E+00 -0.00000000000E+00 -0.27919528961E+03  0.27919528961E+03  0.00000000000E+00 0.  1.
         25    1    1    2    0    0 -0.21590714068E+03  0.21228497938E+03  0.99876552791E+02  0.34246332893E+03  0.12500000000E+03 0.  0.
         21    1    1    2  503  501  0.21590714068E+03 -0.21228497938E+03 -0.12747212180E+02  0.30305659090E+03  0.00000000000E+00 0.  1.
<mgrwt>
<rscale>  3 0.32757565E+03</rscale>
<asrwt>0</asrwt>
<pdfrwt beam="1">  1       21 0.56357635E-01 0.32757565E+03</pdfrwt>
<pdfrwt beam="2">  1       21 0.42953122E-01 0.32757565E+03</pdfrwt>
<totfact> 0.14433128E+04</totfact>
</mgrwt>
</event>
<event>
 4    0  0.1160208E-001  0.2459508E+03  0.7546771E-02  0.1115891E+00
         21   -1    0    0  503  501  0.00000000000E+00  0.00000000000E+00  0.15390953706E+04  0.15390953706E+04  0.00000000000E+00 0. -1.
         21   -1    0    0  501  502 -0.00000000000E+00 -0.00000000000E+00 -0.37606530683E+02  0.37606530683E+02  0.00000000000E+00 0. -1.
         25    1    1    2    0    0 -0.13173117628E-01 -0.21181778847E+03  0.10436401376E+04  0.10722296921E+04  0.12500000000E+03 0.  0.
         21    1    1    2  503  502  0.13173117628E-01  0.21181778847E+03  0.45784870230E+03  0.50447220923E+03  0.00000000000E+00 0. -1.
<mgrwt>
<rscale>  3 0.24595076E+03</rscale>
<asrwt>0</asrwt>
<pdfrwt beam="1">  1       21 0.23678386E+00 0.24595076E+03</pdfrwt>
<pdfrwt beam="2">  1       21 0.57856213E-02 0.24595076E+03</pdfrwt>
<totfact> 0.16023821E+04</totfact>
</mgrwt>
</event>
<event>
 4    0  0.1083880E-001  0.2854322E+03  0.7546771E-02  0.1092758E+00
         21   -1    0    0  503  501  0.00000000000E+00  0.00000000000E+00  0.81202136257E+02  0.81202136257E+02  0.00000000000E+00 0.  1.
         21   -1    0    0  501  502 -0.00000000000E+00 -0.00000000000E+00 -0.15199799922E+04  0.15199799922E+04  0.00000000000E+00 0.  1.
         25    1    1    2    0    0 -0.19087472038E+03 -0.17150336021E+03 -0.23315909337E+03  0.36855762679E+03  0.12500000000E+03 0.  0.
         21    1    1    2  503  502  0.19087472038E+03  0.17150336021E+03 -0.12056187626E+04  0.12326245017E+04  0.00000000000E+00 0.  1.
<mgrwt>
<rscale>  3 0.28543224E+03</rscale>
<asrwt>0</asrwt>
<pdfrwt beam="1">  1       21 0.12492636E-01 0.28543224E+03</pdfrwt>
<pdfrwt beam="2">  1       21 0.23384308E+00 0.28543224E+03</pdfrwt>
<totfact> 0.41865957E+03</totfact>
</mgrwt>
</event>
<event>
 4    0  0.1397700E-001  0.2735837E+03  0.7546771E-02  0.1099246E+00
         21   -1    0    0  502  501  0.00000000000E+00  0.00000000000E+00  0.84006379556E+03  0.84006379556E+03  0.00000000000E+00 0. -1.
         21   -1    0    0  503  502 -0.00000000000E+00 -0.00000000000E+00 -0.92133181493E+02  0.92133181493E+02  0.00000000000E+00 0. -1.
         25    1    1    2    0    0 -0.14111980150E+03 -0.19826310580E+03  0.56499913411E+03  0.62775160616E+03  0.12500000000E+03 0.  0.
         21    1    1    2  503  501  0.14111980150E+03  0.19826310580E+03  0.18293147995E+03  0.30444537089E+03  0.00000000000E+00 0. -1.
<mgrwt>
<rscale>  3 0.27358373E+03</rscale>
<asrwt>0</asrwt>
<pdfrwt beam="1">  1       21 0.12924058E+00 0.27358373E+03</pdfrwt>
<pdfrwt beam="2">  1       21 0.14174336E-01 0.27358373E+03</pdfrwt>
<totfact> 0.18214251E+04</totfact>
</mgrwt>
</event>
<event>
 4    0  0.1106898E-001  0.2548433E+03  0.7546771E-02  0.1110282E+00
         21   -1    0    0  502  501  0.00000000000E+00  0.00000000000E+00  0.34211913638E+02  0.34211913638E+02  0.00000000000E+00 0. -1.
         21   -1    0    0  503  502 -0.00000000000E+00 -0.00000000000E+00 -0.16626215851E+04  0.16626215851E+04  0.00000000000E+00 0. -1.
         25    1    1    2    0    0  0.20579578107E+03 -0.83475780943E+02 -0.85540346394E+03  0.89255823094E+03  0.12500000000E+03 0.  0.
         21    1    1    2  503  501 -0.20579578107E+03  0.83475780943E+02 -0.77300620751E+03  0.80427526778E+03  0.00000000000E+00 0. -1.
<mgrwt>
<rscale>  3 0.25484330E+03</rscale>
<asrwt>0</asrwt>
<pdfrwt beam="1">  1       21 0.52633723E-02 0.25484330E+03</pdfrwt>
<pdfrwt beam="2">  1       21 0.25578789E+00 0.25484330E+03</pdfrwt>
<totfact> 0.14409308E+04</totfact>
</mgrwt>
</event>
<event>
 4    0  0.1297127E-001  0.2398001E+03  0.7546771E-02  0.1119926E+00
         21   -1    0    0  503  501  0.00000000000E+00  0.00000000000E+00  0.17247821542E+03  0.17247821542E+03  0.00000000000E+00 0.  1.
         21   -1    0    0  501  502 -0.00000000000E+00 -0.00000000000E+00 -0.42435741764E+03  0.42435741764E+03  0.00000000000E+00 0.  1.
         25    1    1    2    0    0  0.16467625926E+03  0.12149415424E+03  0.37183343816E+02  0.24266582153E+03  0.12500000000E+03 0.  0.
         21    1    1    2  503  502 -0.16467625926E+03 -0.12149415424E+03 -0.28906254604E+03  0.35416981153E+03  0.00000000000E+00 0.  1.
<mgrwt>
<rscale>  3 0.23980012E+03</rscale>
<asrwt>0</asrwt>
<pdfrwt beam="1">  1       21 0.26535110E-01 0.23980012E+03</pdfrwt>
<pdfrwt beam="2">  1       21 0.65285756E-01 0.23980012E+03</pdfrwt>
<totfact> 0.28464059E+04</totfact>
</mgrwt>
</event>
<event>
 4    0  0.1456978E-001  0.2439601E+03  0.7546771E-02  0.1117182E+00
         21   -1    0    0  502  501  0.00000000000E+00  0.00000000000E+00  0.16701891544E+03  0.16701891544E+03  0.00000000000E+00 0. -1.
         21   -1    0    0  503  502 -0.00000000000E+00 -0.00000000000E+00 -0.37530614309E+03  0.37530614309E+03  0.00000000000E+00 0. -1.
         25    1    1    2    0    0  0.17874029460E+03  0.10928609224E+03  0.41027593012E+01  0.24399462188E+03  0.12500000000E+03 0.  0.
         21    1    1    2  503  501 -0.17874029460E+03 -0.10928609224E+03 -0.21238998695E+03  0.29833043665E+03  0.00000000000E+00 0. -1.
<mgrwt>
<rscale>  3 0.24396013E+03</rscale>
<asrwt>0</asrwt>
<pdfrwt beam="1">  1       21 0.25695218E-01 0.24396013E+03</pdfrwt>
<pdfrwt beam="2">  1       21 0.57739406E-01 0.24396013E+03</pdfrwt>
<totfact> 0.39453932E+04</totfact>
</mgrwt>
</event>
<event>
 4    0  0.1742118E-001  0.2745266E+03  0.7546771E-02  0.1098717E+00
         21   -1    0    0  503  501  0.00000000000E+00  0.00000000000E+00  0.23646163909E+03  0.23646163909E+03  0.00000000000E+00 0. -1.
         21   -1    0    0  501  502 -0.00000000000E+00 -0.00000000000E+00 -0.39643776770E+03  0.39643776770E+03  0.00000000000E+00 0. -1.
         25    1    1    2    0    0 -0.23818132214E+03 -0.54859013640E+02  0.84462523867E+02  0.28722599383E+03  0.12500000000E+03 0.  0.
         21    1    1    2  503  502  0.23818132214E+03  0.54859013640E+02 -0.24443865249E+03  0.34567341296E+03  0.00000000000E+00 0. -1.
<mgrwt>
<rscale>  3 0.27452660E+03</rscale>
<asrwt>0</asrwt>
<pdfrwt beam="1">  1       21 0.36378714E-01 0.27452660E+03</pdfrwt>
<pdfrwt beam="2">  1       21 0.60990426E-01 0.27452660E+03</pdfrwt>
<totfact> 0.17450116E+04</totfact>
</mgrwt>
</event>
<event>
 4    0  0.1567574E-001  0.2621757E+03  0.7546771E-02  0.1105843E+00
         21   -1    0    0  502  501  0.00000000000E+00  0.00000000000E+00  0.40853517924E+03  0.40853517924E+03  0.00000000000E+00 0. -1.
         21   -1    0    0  503  502 -0.00000000000E+00 -0.00000000000E+00 -0.15270732999E+03  0.15270732999E+03  0.00000000000E+00 0. -1.
         25    1    1    2    0    0  0.14534423283E+03 -0.17884670965E+03  0.18234599843E+03  0.31935271208E+03  0.12500000000E+03 0.  0.
         21    1    1    2  503  501 -0.14534423283E+03  0.17884670965E+03  0.73481850814E+02  0.24188979715E+03  0.00000000000E+00 0. -1.
<mgrwt>
<rscale>  3 0.26217569E+03</rscale>
<asrwt>0</asrwt>
<pdfrwt beam="1">  1       21 0.62851566E-01 0.26217569E+03</pdfrwt>
<pdfrwt beam="2">  1       21 0.23493436E-01 0.26217569E+03</pdfrwt>
<totfact> 0.38700905E+04</totfact>
</mgrwt>
</event>
<event>
 4    0  0.1003929E-001  0.2583699E+03  0.7546771E-02  0.1108127E+00
         21   -1    0    0  502  501  0.00000000000E+00  0.00000000000E+00  0.21714946707E+04  0.21714946707E+04  0.00000000000E+00 0.  1.
         21   -1    0    0  503  502 -0.00000000000E+00 -0.00000000000E+00 -0.66825229272E+02  0.66825229272E+02  0.00000000000E+00 0.  1.
         25    1    1    2    0    0  0.49538974303E+01  0.22606518777E+03  0.19436028038E+04  0.19607006067E+04  0.12500000000E+03 0.  0.
         21    1    1    2  503  501 -0.49538974303E+01 -0.22606518777E+03  0.16106663758E+03  0.27761929321E+03  0.00000000000E+00 0.  1.
<mgrwt>
<rscale>  3 0.25836991E+03</rscale>
<asrwt>0</asrwt>
<pdfrwt beam="1">  1       21 0.33407605E+00 0.25836991E+03</pdfrwt>
<pdfrwt beam="2">  1       21 0.10280806E-01 0.25836991E+03</pdfrwt>
<totfact> 0.15499839E+03</totfact>
</mgrwt>
</event>
<event>
 4    0  0.1232539E-001  0.2998178E+03  0.7546771E-02  0.1085332E+00
         21   -1    0    0  503  501  0.00000000000E+00  0.00000000000E+00  0.59621476208E+02  0.59621476208E+02  0.00000000000E+00 0. -1.
         21   -1    0    0  501  502 -0.00000000000E+00 -0.00000000000E+00 -0.16709062326E+04  0.16709062326E+04  0.00000000000E+00 0. -1.
         25    1    1    2    0    0  0.23351427428E+03  0.14048772059E+03 -0.47254620915E+03  0.55963437681E+03  0.12500000000E+03 0.  0.
         21    1    1    2  503  502 -0.23351427428E+03 -0.14048772059E+03 -0.11387385472E+04  0.11708933320E+04  0.00000000000E+00 0. -1.
<mgrwt>
<rscale>  3 0.29981780E+03</rscale>
<asrwt>0</asrwt>
<pdfrwt beam="1">  1       21 0.91725355E-02 0.29981780E+03</pdfrwt>
<pdfrwt beam="2">  1       21 0.25706248E+00 0.29981780E+03</pdfrwt>
<totfact> 0.52200123E+03</totfact>
</mgrwt>
</event>
<event>
 4    0  0.1400870E-001  0.2686644E+03  0.7546771E-02  0.1102046E+00
         21   -1    0    0  502  501  0.00000000000E+00  0.00000000000E+00  0.23293497269E+03  0.23293497269E+03  0.00000000000E+00 0. -1.
         21   -1    0    0  503  502 -0.00000000000E+00 -0.00000000000E+00 -0.46999312833E+03  0.46999312833E+03  0.00000000000E+00 0. -1.
         25    1    1    2    0    0  0.12881287700E+03  0.19990692626E+03  0.10319734026E+03  0.28780241049E+03  0.12500000000E+03 0.  0.
         21    1    1    2  503  501 -0.12881287700E+03 -0.19990692626E+03 -0.34025549590E+03  0.41512569053E+03  0.00000000000E+00 0. -1.
<mgrwt>
<rscale>  3 0.26866436E+03</rscale>
<asrwt>0</asrwt>
<pdfrwt beam="1">  1       21 0.35836150E-01 0.26866436E+03</pdfrwt>
<pdfrwt beam="2">  1       21 0.72306634E-01 0.26866436E+03</pdfrwt>
<totfact> 0.12393257E+04</totfact>
</mgrwt>
</event>
<event>
 4    0  0.2007494E-001  0.2937936E+03  0.7546771E-02  0.1088385E+00
         21   -1    0    0  502  501  0.00000000000E+00  0.00000000000E+00  0.71613683214E+03  0.71613683214E+03  0.00000000000E+00 0.  1.
         21   -1    0    0  503  502 -0.00000000000E+00 -0.00000000000E+00 -0.41317709372E+03  0.41317709372E+03  0.00000000000E+00 0. -1.
         25    1    1    2    0    0 -0.24869718205E+03  0.94018104332E+02  0.63752828069E+03  0.70196652412E+03  0.12500000000E+03 0.  0.
         21    1    1    2  503  501  0.24869718205E+03 -0.94018104332E+02 -0.33456854227E+03  0.42734740175E+03  0.00000000000E+00 0. -1.
<mgrwt>
<rscale>  3 0.29379362E+03</rscale>
<asrwt>0</asrwt>
<pdfrwt beam="1">  1       21 0.11017490E+00 0.29379362E+03</pdfrwt>
<pdfrwt beam="2">  1       21 0.63565707E-01 0.29379362E+03</pdfrwt>
<totfact> 0.13743704E+03</totfact>
</mgrwt>
</event>
<event>
 4    0  0.1176220E-001  0.2667646E+03  0.7546771E-02  0.1103146E+00
         21   -1    0    0  503  501  0.00000000000E+00  0.00000000000E+00  0.99081968505E+03  0.99081968505E+03  0.00000000000E+00 0.  1.
         21   -1    0    0  501  502 -0.00000000000E+00 -0.00000000000E+00 -0.63931906355E+02  0.63931906355E+02  0.00000000000E+00 0.  1.
         25    1    1    2    0    0 -0.14302685694E+03  0.18730108044E+03  0.45990117973E+03  0.53166951357E+03  0.12500000000E+03 0.  0.
         21    1    1    2  503  502  0.14302685694E+03 -0.18730108044E+03  0.46698659897E+03  0.52308207784E+03  0.00000000000E+00 0.  1.
<mgrwt>
<rscale>  3 0.26676465E+03</rscale>
<asrwt>0</asrwt>
<pdfrwt beam="1">  1       21 0.15243379E+00 0.26676465E+03</pdfrwt>
<pdfrwt beam="2">  1       21 0.98356786E-02 0.26676465E+03</pdfrwt>
<totfact> 0.22929633E+04</totfact>
</mgrwt>
</event>
<event>
 4    0  0.1755845E-001  0.2430633E+03  0.7546771E-02  0.1117769E+00
         21   -1    0    0  503  501  0.00000000000E+00  0.00000000000E+00  0.37076427286E+03  0.37076427286E+03  0.00000000000E+00 0. -1.
         21   -1    0    0  501  502 -0.00000000000E+00 -0.00000000000E+00 -0.44165006713E+03  0.44165006713E+03  0.00000000000E+00 0.  1.
         25    1    1    2    0    0  0.19135171859E+02 -0.20757795967E+03  0.30051659443E+03  0.38651000979E+03  0.12500000000E+03 0.  0.
         21    1    1    2  503  502 -0.19135171859E+02  0.20757795967E+03 -0.37140238870E+03  0.42590433019E+03  0.00000000000E+00 0.  1.
<mgrwt>
<rscale>  3 0.24306329E+03</rscale>
<asrwt>0</asrwt>
<pdfrwt beam="1">  1       21 0.57040658E-01 0.24306329E+03</pdfrwt>
<pdfrwt beam="2">  1       21 0.67946164E-01 0.24306329E+03</pdfrwt>
<totfact> 0.55131033E+03</totfact>
</mgrwt>
</event>
<event>
 4    0  0.1003929E-001  0.2558412E+03  0.7546771E-02  0.1109668E+00
         21   -1    0    0  502  501  0.00000000000E+00  0.00000000000E+00  0.19355509407E+03  0.19355509407E+03  0.00000000000E+00 0. -1.
         21   -1    0    0  503  502 -0.00000000000E+00 -0.00000000000E+00 -0.36112114990E+03  0.36112114990E+03  0.00000000000E+00 0.  1.
         25    1    1    2    0    0 -0.16387154123E+03  0.15157777536E+03  0.28690857821E+02  0.25744488600E+03  0.12500000000E+03 0.  0.
         21    1    1    2  503  501  0.16387154123E+03 -0.15157777536E+03 -0.19625691365E+03  0.29723135797E+03  0.00000000000E+00 0.  1.
<mgrwt>
<rscale>  3 0.25584117E+03</rscale>
<asrwt>0</asrwt>
<pdfrwt beam="1">  1       21 0.29777707E-01 0.25584117E+03</pdfrwt>
<pdfrwt beam="2">  1       21 0.55557100E-01 0.25584117E+03</pdfrwt>
<totfact> 0.32009089E+04</totfact>
</mgrwt>
</event>
<event>
 4    0  0.1389670E-001  0.3909230E+03  0.7546771E-02  0.1046969E+00
         21   -1    0    0  503  501  0.00000000000E+00  0.00000000000E+00  0.25955050682E+03  0.25955050682E+03  0.00000000000E+00 0. -1.
         21   -1    0    0  501  502 -0.00000000000E+00 -0.00000000000E+00 -0.62946239976E+03  0.62946239976E+03  0.00000000000E+00 0. -1.
         25    1    1    2    0    0  0.31550262890E+03 -0.19404603630E+03 -0.39952048884E+02  0.39295920814E+03  0.12500000000E+03 0.  0.
         21    1    1    2  503  502 -0.31550262890E+03  0.19404603630E+03 -0.32995984405E+03  0.49605369844E+03  0.00000000000E+00 0. -1.
<mgrwt>
<rscale>  3 0.39092298E+03</rscale>
<asrwt>0</asrwt>
<pdfrwt beam="1">  1       21 0.39930847E-01 0.39092298E+03</pdfrwt>
<pdfrwt beam="2">  1       21 0.96840369E-01 0.39092298E+03</pdfrwt>
<totfact> 0.47979935E+03</totfact>
</mgrwt>
</event>
<event>
 4    0  0.1003929E-001  0.2419404E+03  0.7546771E-02  0.1118507E+00
         21   -1    0    0  503  501  0.00000000000E+00  0.00000000000E+00  0.92773020699E+02  0.92773020699E+02  0.00000000000E+00 0.  1.
         21   -1    0    0  501  502 -0.00000000000E+00 -0.00000000000E+00 -0.23120397226E+04  0.23120397226E+04  0.00000000000E+00 0.  1.
         25    1    1    2    0    0  0.14815750065E+03 -0.14477396564E+03 -0.78951332601E+02  0.25449648140E+03  0.12500000000E+03 0.  0.
         21    1    1    2  503  502 -0.14815750065E+03  0.14477396564E+03 -0.21403153693E+04  0.21503162619E+04  0.00000000000E+00 0.  1.
<mgrwt>
<rscale>  3 0.24194038E+03</rscale>
<asrwt>0</asrwt>
<pdfrwt beam="1">  1       21 0.14272773E-01 0.24194038E+03</pdfrwt>
<pdfrwt beam="2">  1       21 0.35569841E+00 0.24194038E+03</pdfrwt>
<totfact> 0.64963720E+02</totfact>
</mgrwt>
</event>
<event>
 4    0  0.1019003E-001  0.2454347E+03  0.7546771E-02  0.1116224E+00
         21   -1    0    0  502  501  0.00000000000E+00  0.00000000000E+00  0.12653100641E+04  0.12653100641E+04  0.00000000000E+00 0.  1.
         21   -1    0    0  503  502 -0.00000000000E+00 -0.00000000000E+00 -0.79270931676E+02  0.79270931676E+02  0.00000000000E+00 0.  1.
         25    1    1    2    0    0  0.18400263533E+03 -0.10371210670E+03  0.10813279788E+04  0.11088319840E+04  0.12500000000E+03 0.  0.
         21    1    1    2  503  501 -0.18400263533E+03  0.10371210670E+03  0.10471115362E+03  0.23574901183E+03  0.00000000000E+00 0.  1.
<mgrwt>
<rscale>  3 0.24543466E+03</rscale>
<asrwt>0</asrwt>
<pdfrwt beam="1">  1       21 0.19466307E+00 0.24543466E+03</pdfrwt>
<pdfrwt beam="2">  1       21 0.12195529E-01 0.24543466E+03</pdfrwt>
<totfact> 0.79535069E+03</totfact>
</mgrwt>
</event>
<event>
 4    0  0.1312719E-001  0.3229837E+03  0.7546771E-02  0.1074284E+00
         21   -1    0    0  502  501  0.00000000000E+00  0.00000000000E+00  0.58953528994E+03  0.58953528994E+03  0.00000000000E+00 0.  1.
         21   -1    0    0  503  502 -0.00000000000E+00 -0.00000000000E+00 -0.17296533627E+03  0.17296533627E+03  0.00000000000E+00 0.  1.
         25    1    1    2    0    0 -0.28879363395E+03 -0.72743978531E+02  0.12681654579E+03  0.34698830774E+03  0.12500000000E+03 0.  0.
         21    1    1    2  503  501  0.28879363395E+03  0.72743978531E+02  0.28975340788E+03  0.41551231847E+03  0.00000000000E+00 0.  1.
<mgrwt>
<rscale>  3 0.32298367E+03</rscale>
<asrwt>0</asrwt>
<pdfrwt beam="1">  1       21 0.90697736E-01 0.32298367E+03</pdfrwt>
<pdfrwt beam="2">  1       21 0.26610052E-01 0.32298367E+03</pdfrwt>
<totfact> 0.12954706E+04</totfact>
</mgrwt>
</event>
<event>
 4    0  0.1140742E-001  0.3331910E+03  0.7546771E-02  0.1069734E+00
         21   -1    0    0  502  501  0.00000000000E+00  0.00000000000E+00  0.37261989731E+03  0.37261989731E+03  0.00000000000E+00 0.  1.
         21   -1    0    0  503  502 -0.00000000000E+00 -0.00000000000E+00 -0.45311469158E+03  0.45311469158E+03  0.00000000000E+00 0.  1.
         25    1    1    2    0    0 -0.23866255193E+03 -0.19603930850E+03  0.21641954172E+03  0.39730799414E+03  0.12500000000E+03 0.  0.
         21    1    1    2  503  501  0.23866255193E+03  0.19603930850E+03 -0.29691433599E+03  0.42842659475E+03  0.00000000000E+00 0.  1.
<mgrwt>
<rscale>  3 0.33319097E+03</rscale>
<asrwt>0</asrwt>
<pdfrwt beam="1">  1       21 0.57326138E-01 0.33319097E+03</pdfrwt>
<pdfrwt beam="2">  1       21 0.69709952E-01 0.33319097E+03</pdfrwt>
<totfact> 0.49116376E+03</totfact>
</mgrwt>
</event>
<event>
 4    0  0.1493638E-001  0.3296273E+03  0.7546771E-02  0.1071302E+00
         21   -1    0    0  502  501  0.00000000000E+00  0.00000000000E+00  0.47809817448E+03  0.47809817448E+03  0.00000000000E+00 0. -1.
         21   -1    0    0  503  502 -0.00000000000E+00 -0.00000000000E+00 -0.22153183490E+03  0.22153183490E+03  0.00000000000E+00 0. -1.
         25    1    1    2    0    0  0.28629063137E+03  0.10519893901E+03  0.21064752070E+03  0.39118604315E+03  0.12500000000E+03 0.  0.
         21    1    1    2  503  501 -0.28629063137E+03 -0.10519893901E+03  0.45918818877E+02  0.30844396623E+03  0.00000000000E+00 0. -1.
<mgrwt>
<rscale>  3 0.32962728E+03</rscale>
<asrwt>0</asrwt>
<pdfrwt beam="1">  1       21 0.73553565E-01 0.32962728E+03</pdfrwt>
<pdfrwt beam="2">  1       21 0.34081821E-01 0.32962728E+03</pdfrwt>
<totfact> 0.12840677E+04</totfact>
</mgrwt>
</event>
<event>
 4    0  0.1184597E-001  0.2492282E+03  0.7546771E-02  0.1113794E+00
         21   -1    0    0  502  501  0.00000000000E+00  0.00000000000E+00  0.13598595226E+04  0.13598595226E+04  0.00000000000E+00 0.  1.
         21   -1    0    0  503  502 -0.00000000000E+00 -0.00000000000E+00 -0.59070697410E+02  0.59070697410E+02  0.00000000000E+00 0.  1.
         25    1    1    2    0    0  0.14876436993E+03 -0.15607330917E+03  0.10873234515E+04  0.11155209562E+04  0.12500000000E+03 0.  0.
         21    1    1    2  503  501 -0.14876436993E+03  0.15607330917E+03  0.21346537374E+03  0.30340926384E+03  0.00000000000E+00 0.  1.
<mgrwt>
<rscale>  3 0.24922824E+03</rscale>
<asrwt>0</asrwt>
<pdfrwt beam="1">  1       21 0.20920913E+00 0.24922824E+03</pdfrwt>
<pdfrwt beam="2">  1       21 0.90878006E-02 0.24922824E+03</pdfrwt>
<totfact> 0.10793485E+04</totfact>
</mgrwt>
</event>
<event>
 4    0  0.1444862E-001  0.2726820E+03  0.7546771E-02  0.1099754E+00
         21   -1    0    0  503  501  0.00000000000E+00  0.00000000000E+00  0.31553299346E+03  0.31553299346E+03  0.00000000000E+00 0. -1.
         21   -1    0    0  501  502 -0.00000000000E+00 -0.00000000000E+00 -0.26333730600E+03  0.26333730600E+03  0.00000000000E+00 0. -1.
         25    1    1    2    0    0  0.23977580416E+03  0.35185547915E+02  0.15720715206E+03  0.31475315360E+03  0.12500000000E+03 0.  0.
         21    1    1    2  503  502 -0.23977580416E+03 -0.35185547915E+02 -0.10501146459E+03  0.26411714586E+03  0.00000000000E+00 0. -1.
<mgrwt>
<rscale>  3 0.27268197E+03</rscale>
<asrwt>0</asrwt>
<pdfrwt beam="1">  1       21 0.48543537E-01 0.27268197E+03</pdfrwt>
<pdfrwt beam="2">  1       21 0.40513432E-01 0.27268197E+03</pdfrwt>
<totfact> 0.22843120E+04</totfact>
</mgrwt>
</event>
<event>
 4    0  0.1051442E-001  0.2722191E+03  0.7546771E-02  0.1100016E+00
         21   -1    0    0  503  501  0.00000000000E+00  0.00000000000E+00  0.46360314297E+03  0.46360314297E+03  0.00000000000E+00 0.  1.
         21   -1    0    0  501  502 -0.00000000000E+00 -0.00000000000E+00 -0.38603365434E+03  0.38603365434E+03  0.00000000000E+00 0.  1.
         25    1    1    2    0    0  0.22726770460E+02 -0.24075247231E+03  0.37683849454E+03  0.46487687616E+03  0.12500000000E+03 0.  0.
         21    1    1    2  503  502 -0.22726770460E+02  0.24075247231E+03 -0.29926900591E+03  0.38475992115E+03  0.00000000000E+00 0.  1.
<mgrwt>
<rscale>  3 0.27221914E+03</rscale>
<asrwt>0</asrwt>
<pdfrwt beam="1">  1       21 0.71323560E-01 0.27221914E+03</pdfrwt>
<pdfrwt beam="2">  1       21 0.59389793E-01 0.27221914E+03</pdfrwt>
<totfact> 0.44599818E+03</totfact>
</mgrwt>
</event>
<event>
 4    0  0.1336404E-001  0.2440123E+03  0.7546771E-02  0.1117148E+00
         21   -1    0    0  502  501  0.00000000000E+00  0.00000000000E+00  0.56061457368E+03  0.56061457368E+03  0.00000000000E+00 0.  1.
         21   -1    0    0  503  502 -0.00000000000E+00 -0.00000000000E+00 -0.11201418660E+03  0.11201418660E+03  0.00000000000E+00 0.  1.
         25    1    1    2    0    0  0.72822773619E+02 -0.19650405181E+03  0.38098205011E+03  0.45242603953E+03  0.12500000000E+03 0.  0.
         21    1    1    2  503  501 -0.72822773619E+02  0.19650405181E+03  0.67618336960E+02  0.22020272075E+03  0.00000000000E+00 0.  1.
<mgrwt>
<rscale>  3 0.24401229E+03</rscale>
<asrwt>0</asrwt>
<pdfrwt beam="1">  1       21 0.86248394E-01 0.24401229E+03</pdfrwt>
<pdfrwt beam="2">  1       21 0.17232952E-01 0.24401229E+03</pdfrwt>
<totfact> 0.34357304E+04</totfact>
</mgrwt>
</event>
<event>
 4    0  0.1146333E-001  0.2661264E+03  0.7546771E-02  0.1103517E+00
         21   -1    0    0  503  501  0.00000000000E+00  0.00000000000E+00  0.70928273706E+03  0.70928273706E+03  0.00000000000E+00 0. -1.
         21   -1    0    0  501  502 -0.00000000000E+00 -0.00000000000E+00 -0.18414479905E+03  0.18414479905E+03  0.00000000000E+00 0. -1.
         25    1    1    2    0    0  0.16622809673E+03 -0.16603149894E+03  0.59207519128E+03  0.64913501748E+03  0.12500000000E+03 0.  0.
         21    1    1    2  503  502 -0.16622809673E+03  0.16603149894E+03 -0.66937253267E+02  0.24429251863E+03  0.00000000000E+00 0. -1.
<mgrwt>
<rscale>  3 0.26612636E+03</rscale>
<asrwt>0</asrwt>
<pdfrwt beam="1">  1       21 0.10912042E+00 0.26612636E+03</pdfrwt>
<pdfrwt beam="2">  1       21 0.28329969E-01 0.26612636E+03</pdfrwt>
<totfact> 0.75605836E+03</totfact>
</mgrwt>
</event>
<event>
 4    0  0.1279349E-001  0.2697789E+03  0.7546771E-02  0.1101406E+00
         21   -1    0    0  502  501  0.00000000000E+00  0.00000000000E+00  0.12392406659E+03  0.12392406659E+03  0.00000000000E+00 0. -1.
         21   -1    0    0  503  502 -0.00000000000E+00 -0.00000000000E+00 -0.90013635886E+03  0.90013635886E+03  0.00000000000E+00 0. -1.
         25    1    1    2    0    0 -0.98289901148E+02  0.21793292499E+03 -0.70335580197E+02  0.27879698403E+03  0.12500000000E+03 0.  0.
         21    1    1    2  503  501  0.98289901148E+02 -0.21793292499E+03 -0.70587671207E+03  0.74526344142E+03  0.00000000000E+00 0. -1.
<mgrwt>
<rscale>  3 0.26977892E+03</rscale>
<asrwt>0</asrwt>
<pdfrwt beam="1">  1       21 0.19065241E-01 0.26977892E+03</pdfrwt>
<pdfrwt beam="2">  1       21 0.13848251E+00 0.26977892E+03</pdfrwt>
<totfact> 0.88302938E+03</totfact>
</mgrwt>
</event>
<event>
 4    0  0.1475227E-001  0.3109769E+03  0.7546771E-02  0.1079879E+00
         21   -1    0    0  503  501  0.00000000000E+00  0.00000000000E+00  0.60724175070E+03  0.60724175070E+03  0.00000000000E+00 0. -1.
         21   -1    0    0  501  502 -0.00000000000E+00 -0.00000000000E+00 -0.14624395759E+03  0.14624395759E+03  0.00000000000E+00 0. -1.
         25    1    1    2    0    0 -0.28290265180E+03  0.32368594998E+02  0.25216396646E+03  0.40036646003E+03  0.12500000000E+03 0.  0.
         21    1    1    2  503  502  0.28290265180E+03 -0.32368594998E+02  0.20883382665E+03  0.35311924826E+03  0.00000000000E+00 0. -1.
<mgrwt>
<rscale>  3 0.31097691E+03</rscale>
<asrwt>0</asrwt>
<pdfrwt beam="1">  1       21 0.93421806E-01 0.31097691E+03</pdfrwt>
<pdfrwt beam="2">  1       21 0.22499071E-01 0.31097691E+03</pdfrwt>
<totfact> 0.16776300E+04</totfact>
</mgrwt>
</event>
<event>
 4    0  0.1144536E-001  0.2823915E+03  0.7546771E-02  0.1094390E+00
         21   -1    0    0  502  501  0.00000000000E+00  0.00000000000E+00  0.53412126738E+03  0.53412126738E+03  0.00000000000E+00 0.  1.
         21   -1    0    0  503  502 -0.00000000000E+00 -0.00000000000E+00 -0.27220186708E+03  0.27220186708E+03  0.00000000000E+00 0.  1.
         25    1    1    2    0    0  0.24633893162E+03 -0.58626924654E+02  0.42125127186E+03  0.50714654644E+03  0.12500000000E+03 0.  0.
         21    1    1    2  503  501 -0.24633893162E+03  0.58626924654E+02 -0.15933187156E+03  0.29917658802E+03  0.00000000000E+00 0.  1.
<mgrwt>
<rscale>  3 0.28239155E+03</rscale>
<asrwt>0</asrwt>
<pdfrwt beam="1">  1       21 0.82172503E-01 0.28239155E+03</pdfrwt>
<pdfrwt beam="2">  1       21 0.41877210E-01 0.28239155E+03</pdfrwt>
<totfact> 0.67147609E+03</totfact>
</mgrwt>
</event>
<event>
 4    0  0.1234513E-001  0.2512258E+03  0.7546771E-02  0.1112533E+00
         21   -1    0    0  502  501  0.00000000000E+00  0.00000000000E+00  0.77814467170E+02  0.77814467170E+02  0.00000000000E+00 0.  1.
         21   -1    0    0  503  502 -0.00000000000E+00 -0.00000000000E+00 -0.18262188298E+04  0.18262188298E+04  0.00000000000E+00 0. -1.
         25    1    1    2    0    0 -0.15160073818E+03 -0.15654589086E+03 -0.15371114041E+03  0.29451912408E+03  0.12500000000E+03 0.  0.
         21    1    1    2  503  501  0.15160073818E+03  0.15654589086E+03 -0.15946932223E+04  0.16095141729E+04  0.00000000000E+00 0. -1.
<mgrwt>
<rscale>  3 0.25122579E+03</rscale>
<asrwt>0</asrwt>
<pdfrwt beam="1">  1       21 0.11971458E-01 0.25122579E+03</pdfrwt>
<pdfrwt beam="2">  1       21 0.28095671E+00 0.25122579E+03</pdfrwt>
<totfact> 0.24343788E+03</totfact>
</mgrwt>
</event>
<event>
 4    0  0.1440335E-001  0.2643882E+03  0.7546771E-02  0.1104535E+00
         21   -1    0    0  502  501  0.00000000000E+00  0.00000000000E+00  0.17862558791E+03  0.17862558791E+03  0.00000000000E+00 0. -1.
         21   -1    0    0  503  502 -0.00000000000E+00 -0.00000000000E+00 -0.35814247315E+03  0.35814247315E+03  0.00000000000E+00 0. -1.
         25    1    1    2    0    0  0.20909402848E+03  0.10274144974E+03 -0.14413403863E+03  0.30112412612E+03  0.12500000000E+03 0.  0.
         21    1    1    2  503  501 -0.20909402848E+03 -0.10274144974E+03 -0.35382846611E+02  0.23564393494E+03  0.00000000000E+00 0. -1.
<mgrwt>
<rscale>  3 0.26438820E+03</rscale>
<asrwt>0</asrwt>
<pdfrwt beam="1">  1       21 0.27480860E-01 0.26438820E+03</pdfrwt>
<pdfrwt beam="2">  1       21 0.55098842E-01 0.26438820E+03</pdfrwt>
<totfact> 0.37973672E+04</totfact>
</mgrwt>
</event>
<event>
 4    0  0.1186754E-001  0.3088662E+03  0.7546771E-02  0.1080891E+00
         21   -1    0    0  502  501  0.00000000000E+00  0.00000000000E+00  0.19238097812E+03  0.19238097812E+03  0.00000000000E+00 0. -1.
         21   -1    0    0  503  502 -0.00000000000E+00 -0.00000000000E+00 -0.73431726261E+03  0.73431726261E+03  0.00000000000E+00 0. -1.
         25    1    1    2    0    0  0.90697560818E+02  0.26748317988E+03  0.74561174921E+01  0.30895613401E+03  0.12500000000E+03 0.  0.
         21    1    1    2  503  501 -0.90697560818E+02 -0.26748317988E+03 -0.54939240198E+03  0.61774210672E+03  0.00000000000E+00 0. -1.
<mgrwt>
<rscale>  3 0.30886615E+03</rscale>
<asrwt>0</asrwt>
<pdfrwt beam="1">  1       21 0.29597074E-01 0.30886615E+03</pdfrwt>
<pdfrwt beam="2">  1       21 0.11297188E+00 0.30886615E+03</pdfrwt>
<totfact> 0.62330166E+03</totfact>
</mgrwt>
</event>
<event>
 4    0  0.1003929E-001  0.2641101E+03  0.7546771E-02  0.1104699E+00
         21   -1    0    0  502  501  0.00000000000E+00  0.00000000000E+00  0.47426212411E+03  0.47426212411E+03  0.00000000000E+00 0. -1.
         21   -1    0    0  503  502 -0.00000000000E+00 -0.00000000000E+00 -0.19610945225E+03  0.19610945225E+03  0.00000000000E+00 0. -1.
         25    1    1    2    0    0  0.17269078021E+03 -0.15590713668E+03 -0.49310189514E+02  0.26867384619E+03  0.12500000000E+03 0.  0.
         21    1    1    2  503  501 -0.17269078021E+03  0.15590713668E+03  0.32746286138E+03  0.40169773016E+03  0.00000000000E+00 0. -1.
<mgrwt>
<rscale>  3 0.26411009E+03</rscale>
<asrwt>0</asrwt>
<pdfrwt beam="1">  1       21 0.72963404E-01 0.26411009E+03</pdfrwt>
<pdfrwt beam="2">  1       21 0.30170685E-01 0.26411009E+03</pdfrwt>
<totfact> 0.17129110E+04</totfact>
</mgrwt>
</event>
<event>
 4    0  0.1334270E-001  0.4557094E+03  0.7546771E-02  0.1026033E+00
         21   -1    0    0  503  501  0.00000000000E+00  0.00000000000E+00  0.75900506310E+03  0.75900506310E+03  0.00000000000E+00 0.  1.
         21   -1    0    0  501  502 -0.00000000000E+00 -0.00000000000E+00 -0.28843022572E+03  0.28843022572E+03  0.00000000000E+00 0.  1.
         25    1    1    2    0    0 -0.33769346527E+03 -0.27930122065E+03  0.39430500440E+03  0.60261719593E+03  0.12500000000E+03 0.  0.
         21    1    1    2  503  502  0.33769346527E+03  0.27930122065E+03  0.76269832982E+02  0.44481809289E+03  0.00000000000E+00 0.  1.
<mgrwt>
<rscale>  3 0.45570939E+03</rscale>
<asrwt>0</asrwt>
<pdfrwt beam="1">  1       21 0.11677001E+00 0.45570939E+03</pdfrwt>
<pdfrwt beam="2">  1       21 0.44373881E-01 0.45570939E+03</pdfrwt>
<totfact> 0.23744817E+03</totfact>
</mgrwt>
</event>
<event>
 4    0  0.1003929E-001  0.4018687E+03  0.7546771E-02  0.1043135E+00
         21   -1    0    0  503  501  0.00000000000E+00  0.00000000000E+00  0.15054129003E+04  0.15054129003E+04  0.00000000000E+00 0.  1.
         21   -1    0    0  501  502 -0.00000000000E+00 -0.00000000000E+00 -0.12399205365E+03  0.12399205365E+03  0.00000000000E+00 0.  1.
         25    1    1    2    0    0  0.33638874597E+03 -0.18087590742E+03  0.10480061431E+04  0.11224149670E+04  0.12500000000E+03 0.  0.
         21    1    1    2  503  502 -0.33638874597E+03  0.18087590742E+03  0.33341470362E+03  0.50698998697E+03  0.00000000000E+00 0.  1.
<mgrwt>
<rscale>  3 0.40186874E+03</rscale>
<asrwt>0</asrwt>
<pdfrwt beam="1">  1       21 0.23160197E+00 0.40186874E+03</pdfrwt>
<pdfrwt beam="2">  1       21 0.19075702E-01 0.40186874E+03</pdfrwt>
<totfact> 0.18441834E+03</totfact>
</mgrwt>
</event>
<event>
 4    0  0.1311825E-001  0.2818073E+03  0.7546771E-02  0.1094706E+00
         21   -1    0    0  502  501  0.00000000000E+00  0.00000000000E+00  0.37006579569E+03  0.37006579569E+03  0.00000000000E+00 0.  1.
         21   -1    0    0  503  502 -0.00000000000E+00 -0.00000000000E+00 -0.33702906459E+03  0.33702906459E+03  0.00000000000E+00 0.  1.
         25    1    1    2    0    0 -0.21436218377E+03 -0.13356357995E+03  0.24803110757E+03  0.37541284746E+03  0.12500000000E+03 0.  0.
         21    1    1    2  503  501  0.21436218377E+03  0.13356357995E+03 -0.21499437646E+03  0.33168201282E+03  0.00000000000E+00 0.  1.
<mgrwt>
<rscale>  3 0.28180734E+03</rscale>
<asrwt>0</asrwt>
<pdfrwt beam="1">  1       21 0.56933199E-01 0.28180734E+03</pdfrwt>
<pdfrwt beam="2">  1       21 0.51850626E-01 0.28180734E+03</pdfrwt>
<totfact> 0.97162598E+03</totfact>
</mgrwt>
</event>
<event>
 4    0  0.1249652E-001  0.2648465E+03  0.7546771E-02  0.1104266E+00
         21   -1    0    0  502  501  0.00000000000E+00  0.00000000000E+00  0.19055082176E+03  0.19055082176E+03  0.00000000000E+00 0.  1.
         21   -1    0    0  503  502 -0.00000000000E+00 -0.00000000000E+00 -0.35816135698E+03  0.35816135698E+03  0.00000000000E+00 0.  1.
         25    1    1    2    0    0 -0.19199146796E+03 -0.13288314263E+03 -0.17089573074E+03  0.31519677053E+03  0.12500000000E+03 0.  0.
         21    1    1    2  503  501  0.19199146796E+03  0.13288314263E+03  0.32851955206E+01  0.23351540821E+03  0.00000000000E+00 0.  1.
<mgrwt>
<rscale>  3 0.26484647E+03</rscale>
<asrwt>0</asrwt>
<pdfrwt beam="1">  1       21 0.29315511E-01 0.26484647E+03</pdfrwt>
<pdfrwt beam="2">  1       21 0.55101747E-01 0.26484647E+03</pdfrwt>
<totfact> 0.33464138E+04</totfact>
</mgrwt>
</event>
<event>
 4    0  0.1003929E-001  0.2867495E+03  0.7546771E-02  0.1092059E+00
         21   -1    0    0  503  501  0.00000000000E+00  0.00000000000E+00  0.14054471049E+04  0.14054471049E+04  0.00000000000E+00 0.  1.
         21   -1    0    0  501  502 -0.00000000000E+00 -0.00000000000E+00 -0.22646408572E+03  0.22646408572E+03  0.00000000000E+00 0.  1.
         25    1    1    2    0    0 -0.53824861512E+01 -0.25801413254E+03  0.13110283970E+04  0.13420211330E+04  0.12500000000E+03 0.  0.
         21    1    1    2  503  502  0.53824861512E+01  0.25801413254E+03 -0.13204537775E+03  0.28989005766E+03  0.00000000000E+00 0.  1.
<mgrwt>
<rscale>  3 0.28674948E+03</rscale>
<asrwt>0</asrwt>
<pdfrwt beam="1">  1       21 0.21622263E+00 0.28674948E+03</pdfrwt>
<pdfrwt beam="2">  1       21 0.34840630E-01 0.28674948E+03</pdfrwt>
<totfact> 0.76877095E+02</totfact>
</mgrwt>
</event>
<event>
 4    0  0.1678887E-001  0.3272751E+03  0.7546771E-02  0.1072349E+00
         21   -1    0    0  502  501  0.00000000000E+00  0.00000000000E+00  0.88708183944E+03  0.88708183944E+03  0.00000000000E+00 0.  1.
         21   -1    0    0  503  502 -0.00000000000E+00 -0.00000000000E+00 -0.36839040099E+03  0.36839040099E+03  0.00000000000E+00 0. -1.
         25    1    1    2    0    0 -0.22638663935E+03 -0.20058181681E+03  0.78625424303E+03  0.85164823160E+03  0.12500000000E+03 0.  0.
         21    1    1    2  503  501  0.22638663935E+03  0.20058181681E+03 -0.26756280458E+03  0.40382400883E+03  0.00000000000E+00 0. -1.
<mgrwt>
<rscale>  3 0.32727508E+03</rscale>
<asrwt>0</asrwt>
<pdfrwt beam="1">  1       21 0.13647413E+00 0.32727508E+03</pdfrwt>
<pdfrwt beam="2">  1       21 0.56675447E-01 0.32727508E+03</pdfrwt>
<totfact> 0.10061882E+03</totfact>
</mgrwt>
</event>
<event>
 4    0  0.1472151E-001  0.2434297E+03  0.7546771E-02  0.1117529E+00
         21   -1    0    0  503  501  0.00000000000E+00  0.00000000000E+00  0.39338635989E+03  0.39338635989E+03  0.00000000000E+00 0. -1.
         21   -1    0    0  501  502 -0.00000000000E+00 -0.00000000000E+00 -0.16395812579E+03  0.16395812579E+03  0.00000000000E+00 0. -1.
         25    1    1    2    0    0  0.20227029416E+03  0.52151228940E+02  0.24815823750E+03  0.34762124995E+03  0.12500000000E+03 0.  0.
         21    1    1    2  503  502 -0.20227029416E+03 -0.52151228940E+02 -0.18730003403E+02  0.20972323573E+03  0.00000000000E+00 0. -1.
<mgrwt>
<rscale>  3 0.24342971E+03</rscale>
<asrwt>0</asrwt>
<pdfrwt beam="1">  1       21 0.60520978E-01 0.24342971E+03</pdfrwt>
<pdfrwt beam="2">  1       21 0.25224327E-01 0.24342971E+03</pdfrwt>
<totfact> 0.36949491E+04</totfact>
</mgrwt>
</event>
<event>
 4    0  0.1433655E-001  0.2482589E+03  0.7546771E-02  0.1114410E+00
         21   -1    0    0  502  501  0.00000000000E+00  0.00000000000E+00  0.62004928393E+02  0.62004928393E+02  0.00000000000E+00 0. -1.
         21   -1    0    0  503  502 -0.00000000000E+00 -0.00000000000E+00 -0.92080902353E+03  0.92080902353E+03  0.00000000000E+00 0. -1.
         25    1    1    2    0    0  0.19238515684E+03 -0.94844290816E+02 -0.33638495701E+03  0.41807574359E+03  0.12500000000E+03 0.  0.
         21    1    1    2  503  501 -0.19238515684E+03  0.94844290816E+02 -0.52241913813E+03  0.56473820834E+03  0.00000000000E+00 0. -1.
<mgrwt>
<rscale>  3 0.24825891E+03</rscale>
<asrwt>0</asrwt>
<pdfrwt beam="1">  1       21 0.95392203E-02 0.24825891E+03</pdfrwt>
<pdfrwt beam="2">  1       21 0.14166292E+00 0.24825891E+03</pdfrwt>
<totfact> 0.29662714E+04</totfact>
</mgrwt>
</event>
<event>
 4    0  0.1003929E-001  0.2374418E+03  0.7546771E-02  0.1121509E+00
         21   -1    0    0  503  501  0.00000000000E+00  0.00000000000E+00  0.39662030518E+02  0.39662030518E+02  0.00000000000E+00 0. -1.
         21   -1    0    0  501  502 -0.00000000000E+00 -0.00000000000E+00 -0.28655333676E+04  0.28655333676E+04  0.00000000000E+00 0.  1.
         25    1    1    2    0    0  0.38549065287E+02 -0.19816051343E+03 -0.36110252483E+03  0.43217317473E+03  0.12500000000E+03 0.  0.
         21    1    1    2  503  502 -0.38549065287E+02  0.19816051343E+03 -0.24647688122E+04  0.24730222233E+04  0.00000000000E+00 0.  1.
<mgrwt>
<rscale>  3 0.23744182E+03</rscale>
<asrwt>0</asrwt>
<pdfrwt beam="1">  1       21 0.61018511E-02 0.23744182E+03</pdfrwt>
<pdfrwt beam="2">  1       21 0.44085127E+00 0.23744182E+03</pdfrwt>
<totfact> 0.85815035E+02</totfact>
</mgrwt>
</event>
<event>
 4    0  0.1362368E-001  0.2391014E+03  0.7546771E-02  0.1120393E+00
         21   -1    0    0  502  501  0.00000000000E+00  0.00000000000E+00  0.33792973847E+03  0.33792973847E+03  0.00000000000E+00 0. -1.
         21   -1    0    0  503  502 -0.00000000000E+00 -0.00000000000E+00 -0.14761845547E+03  0.14761845547E+03  0.00000000000E+00 0. -1.
         25    1    1    2    0    0  0.11416739404E+02  0.20350464892E+03  0.71224321979E+02  0.24948424422E+03  0.12500000000E+03 0.  0.
         21    1    1    2  503  501 -0.11416739404E+02 -0.20350464892E+03  0.11908696102E+03  0.23606394972E+03  0.00000000000E+00 0. -1.
<mgrwt>
<rscale>  3 0.23910141E+03</rscale>
<asrwt>0</asrwt>
<pdfrwt beam="1">  1       21 0.51989190E-01 0.23910141E+03</pdfrwt>
<pdfrwt beam="2">  1       21 0.22710532E-01 0.23910141E+03</pdfrwt>
<totfact> 0.62576440E+04</totfact>
</mgrwt>
</event>
<event>
 4    0  0.1003929E-001  0.3178010E+03  0.7546771E-02  0.1076666E+00
         21   -1    0    0  502  501  0.00000000000E+00  0.00000000000E+00  0.41229632874E+02  0.41229632874E+02  0.00000000000E+00 0. -1.
         21   -1    0    0  503  502 -0.00000000000E+00 -0.00000000000E+00 -0.26968810421E+04  0.26968810421E+04  0.00000000000E+00 0.  1.
         25    1    1    2    0    0  0.29214609681E+03  0.48072999883E+01 -0.82144396237E+03  0.88077672274E+03  0.12500000000E+03 0.  0.
         21    1    1    2  503  501 -0.29214609681E+03 -0.48072999883E+01 -0.18342074469E+04  0.18573339523E+04  0.00000000000E+00 0.  1.
<mgrwt>
<rscale>  3 0.31780096E+03</rscale>
<asrwt>0</asrwt>
<pdfrwt beam="1">  1       21 0.63430190E-02 0.31780096E+03</pdfrwt>
<pdfrwt beam="2">  1       21 0.41490487E+00 0.31780096E+03</pdfrwt>
<totfact> 0.10869730E+03</totfact>
</mgrwt>
</event>
<event>
 4    0  0.1438287E-001  0.2410323E+03  0.7546771E-02  0.1119107E+00
         21   -1    0    0  502  501  0.00000000000E+00  0.00000000000E+00  0.30745950386E+03  0.30745950386E+03  0.00000000000E+00 0. -1.
         21   -1    0    0  503  502 -0.00000000000E+00 -0.00000000000E+00 -0.16872216582E+03  0.16872216582E+03  0.00000000000E+00 0. -1.
         25    1    1    2    0    0  0.15106825937E+03  0.14017836524E+03  0.11998123798E+03  0.26924355246E+03  0.12500000000E+03 0.  0.
         21    1    1    2  503  501 -0.15106825937E+03 -0.14017836524E+03  0.18756100061E+02  0.20693811723E+03  0.00000000000E+00 0. -1.
<mgrwt>
<rscale>  3 0.24103235E+03</rscale>
<asrwt>0</asrwt>
<pdfrwt beam="1">  1       21 0.47301462E-01 0.24103235E+03</pdfrwt>
<pdfrwt beam="2">  1       21 0.25957256E-01 0.24103235E+03</pdfrwt>
<totfact> 0.59017341E+04</totfact>
</mgrwt>
</event>
<event>
 4    0  0.1243373E-001  0.2420835E+03  0.7546771E-02  0.1118413E+00
         21   -1    0    0  502  501  0.00000000000E+00  0.00000000000E+00  0.13614593644E+04  0.13614593644E+04  0.00000000000E+00 0. -1.
         21   -1    0    0  503  502 -0.00000000000E+00 -0.00000000000E+00 -0.40334381667E+02  0.40334381667E+02  0.00000000000E+00 0. -1.
         25    1    1    2    0    0 -0.18322797184E+02  0.20650348233E+03  0.90594113941E+03  0.93772797825E+03  0.12500000000E+03 0.  0.
         21    1    1    2  503  501  0.18322797184E+02 -0.20650348233E+03  0.41518384336E+03  0.46406576786E+03  0.00000000000E+00 0. -1.
<mgrwt>
<rscale>  3 0.24208348E+03</rscale>
<asrwt>0</asrwt>
<pdfrwt beam="1">  1       21 0.20945525E+00 0.24208348E+03</pdfrwt>
<pdfrwt beam="2">  1       21 0.62052905E-02 0.24208348E+03</pdfrwt>
<totfact> 0.21017846E+04</totfact>
</mgrwt>
</event>
<event>
 4    0  0.1003929E-001  0.2774102E+03  0.7546771E-02  0.1097112E+00
         21   -1    0    0  503  501  0.00000000000E+00  0.00000000000E+00  0.20272383949E+04  0.20272383949E+04  0.00000000000E+00 0. -1.
         21   -1    0    0  501  502 -0.00000000000E+00 -0.00000000000E+00 -0.85190893737E+02  0.85190893737E+02  0.00000000000E+00 0. -1.
         25    1    1    2    0    0 -0.37011671923E+02 -0.24487053363E+03  0.18112270241E+04  0.18323481587E+04  0.12500000000E+03 0.  0.
         21    1    1    2  503  502  0.37011671923E+02  0.24487053363E+03  0.13082047709E+03  0.28008112990E+03  0.00000000000E+00 0. -1.
<mgrwt>
<rscale>  3 0.27741024E+03</rscale>
<asrwt>0</asrwt>
<pdfrwt beam="1">  1       21 0.31188279E+00 0.27741024E+03</pdfrwt>
<pdfrwt beam="2">  1       21 0.13106293E-01 0.27741024E+03</pdfrwt>
<totfact> 0.13288346E+03</totfact>
</mgrwt>
</event>
<event>
 4    0  0.1187817E-001  0.2371277E+03  0.7546771E-02  0.1121721E+00
         21   -1    0    0  503  501  0.00000000000E+00  0.00000000000E+00  0.26492413947E+03  0.26492413947E+03  0.00000000000E+00 0.  1.
         21   -1    0    0  501  502 -0.00000000000E+00 -0.00000000000E+00 -0.19014988007E+03  0.19014988007E+03  0.00000000000E+00 0.  1.
         25    1    1    2    0    0  0.39849157219E+02 -0.19752621445E+03 -0.79203592287E+01  0.23725996885E+03  0.12500000000E+03 0.  0.
         21    1    1    2  503  502 -0.39849157219E+02  0.19752621445E+03  0.82694618627E+02  0.21781405069E+03  0.00000000000E+00 0.  1.
<mgrwt>
<rscale>  3 0.23712773E+03</rscale>
<asrwt>0</asrwt>
<pdfrwt beam="1">  1       21 0.40757560E-01 0.23712773E+03</pdfrwt>
<pdfrwt beam="2">  1       21 0.29253828E-01 0.23712773E+03</pdfrwt>
<totfact> 0.63675306E+04</totfact>
</mgrwt>
</event>
<event>
 4    0  0.1003929E-001  0.2616295E+03  0.7546771E-02  0.1106168E+00
         21   -1    0    0  502  501  0.00000000000E+00  0.00000000000E+00  0.55608522972E+02  0.55608522972E+02  0.00000000000E+00 0.  1.
         21   -1    0    0  503  502 -0.00000000000E+00 -0.00000000000E+00 -0.12740881758E+04  0.12740881758E+04  0.00000000000E+00 0.  1.
         25    1    1    2    0    0 -0.20290192786E+03 -0.10796208439E+03 -0.89789599781E+03  0.93523645507E+03  0.12500000000E+03 0.  0.
         21    1    1    2  503  501  0.20290192786E+03  0.10796208439E+03 -0.32058365497E+03  0.39446024366E+03  0.00000000000E+00 0.  1.
<mgrwt>
<rscale>  3 0.26162952E+03</rscale>
<asrwt>0</asrwt>
<pdfrwt beam="1">  1       21 0.85551580E-02 0.26162952E+03</pdfrwt>
<pdfrwt beam="2">  1       21 0.19601355E+00 0.26162952E+03</pdfrwt>
<totfact> 0.14496776E+04</totfact>
</mgrwt>
</event>
<event>
 4    0  0.1431695E-001  0.3111698E+03  0.7546771E-02  0.1079787E+00
         21   -1    0    0  502  501  0.00000000000E+00  0.00000000000E+00  0.24958827543E+03  0.24958827543E+03  0.00000000000E+00 0.  1.
         21   -1    0    0  503  502 -0.00000000000E+00 -0.00000000000E+00 -0.49311188993E+03  0.49311188993E+03  0.00000000000E+00 0.  1.
         25    1    1    2    0    0 -0.40036626010E+02  0.28213239829E+03  0.70084624892E+02  0.31896469434E+03  0.12500000000E+03 0.  0.
         21    1    1    2  503  501  0.40036626010E+02 -0.28213239829E+03 -0.31360823939E+03  0.42373547102E+03  0.00000000000E+00 0.  1.
<mgrwt>
<rscale>  3 0.31116976E+03</rscale>
<asrwt>0</asrwt>
<pdfrwt beam="1">  1       21 0.38398196E-01 0.31116976E+03</pdfrwt>
<pdfrwt beam="2">  1       21 0.75863367E-01 0.31116976E+03</pdfrwt>
<totfact> 0.94867469E+03</totfact>
</mgrwt>
</event>
<event>
 4    0  0.1133766E-001  0.2439499E+03  0.7546771E-02  0.1117189E+00
         21   -1    0    0  503  501  0.00000000000E+00  0.00000000000E+00  0.22884414630E+02  0.22884414630E+02  0.00000000000E+00 0. -1.
         21   -1    0    0  501  502 -0.00000000000E+00 -0.00000000000E+00 -0.24017809090E+04  0.24017809090E+04  0.00000000000E+00 0. -1.
         25    1    1    2    0    0  0.15745938840E+03 -0.13817768391E+03 -0.96622710459E+03  0.99654721362E+03  0.12500000000E+03 0.  0.
         21    1    1    2  503  502 -0.15745938840E+03  0.13817768391E+03 -0.14126693898E+04  0.14281181100E+04  0.00000000000E+00 0. -1.
<mgrwt>
<rscale>  3 0.24394985E+03</rscale>
<asrwt>0</asrwt>
<pdfrwt beam="1">  1       21 0.35206798E-02 0.24394985E+03</pdfrwt>
<pdfrwt beam="2">  1       21 0.36950469E+00 0.24394985E+03</pdfrwt>
<totfact> 0.61204800E+03</totfact>
</mgrwt>
</event>
<event>
 4    0  0.1473487E-001  0.2831382E+03  0.7546771E-02  0.1093987E+00
         21   -1    0    0  503  501  0.00000000000E+00  0.00000000000E+00  0.45714271275E+03  0.45714271275E+03  0.00000000000E+00 0.  1.
         21   -1    0    0  501  502 -0.00000000000E+00 -0.00000000000E+00 -0.18440951876E+03  0.18440951876E+03  0.00000000000E+00 0.  1.
         25    1    1    2    0    0  0.29425865137E+02 -0.25234173502E+03  0.26435280686E+03  0.38736241334E+03  0.12500000000E+03 0.  0.
         21    1    1    2  503  502 -0.29425865137E+02  0.25234173502E+03  0.83803871332E+01  0.25418981817E+03  0.00000000000E+00 0.  1.
<mgrwt>
<rscale>  3 0.28313819E+03</rscale>
<asrwt>0</asrwt>
<pdfrwt beam="1">  1       21 0.70329648E-01 0.28313819E+03</pdfrwt>
<pdfrwt beam="2">  1       21 0.28370695E-01 0.28313819E+03</pdfrwt>
<totfact> 0.20799883E+04</totfact>
</mgrwt>
</event>
<event>
 4    0  0.1061972E-001  0.2507428E+03  0.7546771E-02  0.1112836E+00
         21   -1    0    0  503  501  0.00000000000E+00  0.00000000000E+00  0.61045586408E+02  0.61045586408E+02  0.00000000000E+00 0. -1.
         21   -1    0    0  501  502 -0.00000000000E+00 -0.00000000000E+00 -0.14167996371E+04  0.14167996371E+04  0.00000000000E+00 0.  1.
         25    1    1    2    0    0  0.81565527537E+02 -0.20147961970E+03 -0.26180474618E+03  0.36251027235E+03  0.12500000000E+03 0.  0.
         21    1    1    2  503  502 -0.81565527537E+02  0.20147961970E+03 -0.10939493045E+04  0.11153349512E+04  0.00000000000E+00 0.  1.
<mgrwt>
<rscale>  3 0.25074284E+03</rscale>
<asrwt>0</asrwt>
<pdfrwt beam="1">  1       21 0.93916292E-02 0.25074284E+03</pdfrwt>
<pdfrwt beam="2">  1       21 0.21796916E+00 0.25074284E+03</pdfrwt>
<totfact> 0.89588741E+03</totfact>
</mgrwt>
</event>
<event>
 4    0  0.1322772E-001  0.2890618E+03  0.7546771E-02  0.1090840E+00
         21   -1    0    0  502  501  0.00000000000E+00  0.00000000000E+00  0.10269835858E+03  0.10269835858E+03  0.00000000000E+00 0.  1.
         21   -1    0    0  503  502 -0.00000000000E+00 -0.00000000000E+00 -0.85959205635E+03  0.85959205635E+03  0.00000000000E+00 0.  1.
         25    1    1    2    0    0  0.15547205729E+03  0.20918928761E+03 -0.21264554163E+03  0.35885212139E+03  0.12500000000E+03 0.  0.
         21    1    1    2  503  501 -0.15547205729E+03 -0.20918928761E+03 -0.54424815613E+03  0.60343829353E+03  0.00000000000E+00 0.  1.
<mgrwt>
<rscale>  3 0.28906179E+03</rscale>
<asrwt>0</asrwt>
<pdfrwt beam="1">  1       21 0.15799747E-01 0.28906179E+03</pdfrwt>
<pdfrwt beam="2">  1       21 0.13224493E+00 0.28906179E+03</pdfrwt>
<totfact> 0.13966101E+04</totfact>
</mgrwt>
</event>
<event>
 4    0  0.1413346E-001  0.2436079E+03  0.7546771E-02  0.1117412E+00
         21   -1    0    0  502  501  0.00000000000E+00  0.00000000000E+00  0.13122181102E+03  0.13122181102E+03  0.00000000000E+00 0.  1.
         21   -1    0    0  503  502 -0.00000000000E+00 -0.00000000000E+00 -0.44798218476E+03  0.44798218476E+03  0.00000000000E+00 0.  1.
         25    1    1    2    0    0 -0.19421646039E+03  0.77458152319E+02 -0.65377242335E+02  0.25222803703E+03  0.12500000000E+03 0.  0.
         21    1    1    2  503  501  0.19421646039E+03 -0.77458152319E+02 -0.25138313141E+03  0.32697595876E+03  0.00000000000E+00 0.  1.
<mgrwt>
<rscale>  3 0.24360788E+03</rscale>
<asrwt>0</asrwt>
<pdfrwt beam="1">  1       21 0.20187971E-01 0.24360788E+03</pdfrwt>
<pdfrwt beam="2">  1       21 0.68920337E-01 0.24360788E+03</pdfrwt>
<totfact> 0.42454594E+04</totfact>
</mgrwt>
</event>
<event>
 4    0  0.1344792E-001  0.2421229E+03  0.7546771E-02  0.1118387E+00
         21   -1    0    0  503  501  0.00000000000E+00  0.00000000000E+00  0.22206101697E+03  0.22206101697E+03  0.00000000000E+00 0.  1.
         21   -1    0    0  501  502 -0.00000000000E+00 -0.00000000000E+00 -0.45373155466E+03  0.45373155466E+03  0.00000000000E+00 0.  1.
         25    1    1    2    0    0  0.12440003215E+03 -0.16590095909E+03  0.11793413420E+03  0.26931757506E+03  0.12500000000E+03 0.  0.
         21    1    1    2  503  502 -0.12440003215E+03  0.16590095909E+03 -0.34960467189E+03  0.40647499657E+03  0.00000000000E+00 0.  1.
<mgrwt>
<rscale>  3 0.24212289E+03</rscale>
<asrwt>0</asrwt>
<pdfrwt beam="1">  1       21 0.34163234E-01 0.24212289E+03</pdfrwt>
<pdfrwt beam="2">  1       21 0.69804854E-01 0.24212289E+03</pdfrwt>
<totfact> 0.14948646E+04</totfact>
</mgrwt>
</event>
<event>
 4    0  0.1046987E-001  0.3546117E+03  0.7546771E-02  0.1060738E+00
         21   -1    0    0  502  501  0.00000000000E+00  0.00000000000E+00  0.71028334646E+02  0.71028334646E+02  0.00000000000E+00 0.  1.
         21   -1    0    0  503  502 -0.00000000000E+00 -0.00000000000E+00 -0.19008923335E+04  0.19008923335E+04  0.00000000000E+00 0.  1.
         25    1    1    2    0    0 -0.26537405836E+03  0.19925127622E+03 -0.58956325897E+03  0.68799294928E+03  0.12500000000E+03 0.  0.
         21    1    1    2  503  501  0.26537405836E+03 -0.19925127622E+03 -0.12403007398E+04  0.12839277188E+04  0.00000000000E+00 0.  1.
<mgrwt>
<rscale>  3 0.35461171E+03</rscale>
<asrwt>0</asrwt>
<pdfrwt beam="1">  1       21 0.10927436E-01 0.35461171E+03</pdfrwt>
<pdfrwt beam="2">  1       21 0.29244499E+00 0.35461171E+03</pdfrwt>
<totfact> 0.22671011E+03</totfact>
</mgrwt>
</event>
<event>
 4    0  0.1122957E-001  0.2783012E+03  0.7546771E-02  0.1096620E+00
         21   -1    0    0  502  501  0.00000000000E+00  0.00000000000E+00  0.39062216819E+03  0.39062216819E+03  0.00000000000E+00 0. -1.
         21   -1    0    0  503  502 -0.00000000000E+00 -0.00000000000E+00 -0.21276921327E+03  0.21276921327E+03  0.00000000000E+00 0. -1.
         25    1    1    2    0    0 -0.19242912127E+03  0.15747247727E+03 -0.29190105947E+02  0.27982782223E+03  0.12500000000E+03 0.  0.
         21    1    1    2  503  501  0.19242912127E+03 -0.15747247727E+03  0.20704306086E+03  0.32356355923E+03  0.00000000000E+00 0. -1.
<mgrwt>
<rscale>  3 0.27830118E+03</rscale>
<asrwt>0</asrwt>
<pdfrwt beam="1">  1       21 0.60095718E-01 0.27830118E+03</pdfrwt>
<pdfrwt beam="2">  1       21 0.32733725E-01 0.27830118E+03</pdfrwt>
<totfact> 0.22215279E+04</totfact>
</mgrwt>
</event>
<event>
 4    0  0.1380884E-001  0.2645115E+03  0.7546771E-02  0.1104463E+00
         21   -1    0    0  503  501  0.00000000000E+00  0.00000000000E+00  0.21490745091E+04  0.21490745091E+04  0.00000000000E+00 0. -1.
         21   -1    0    0  501  502 -0.00000000000E+00 -0.00000000000E+00 -0.21873164216E+03  0.21873164216E+03  0.00000000000E+00 0.  1.
         25    1    1    2    0    0  0.17826042042E+02  0.23242971787E+03  0.20760957932E+04  0.20928784207E+04  0.12500000000E+03 0.  0.
         21    1    1    2  503  502 -0.17826042042E+02 -0.23242971787E+03 -0.14575292622E+03  0.27492773055E+03  0.00000000000E+00 0.  1.
<mgrwt>
<rscale>  3 0.26451151E+03</rscale>
<asrwt>0</asrwt>
<pdfrwt beam="1">  1       21 0.33062683E+00 0.26451151E+03</pdfrwt>
<pdfrwt beam="2">  1       21 0.33651023E-01 0.26451151E+03</pdfrwt>
<totfact> 0.17486549E+02</totfact>
</mgrwt>
</event>
<event>
 4    0  0.1003929E-001  0.2366698E+03  0.7546771E-02  0.1122031E+00
         21   -1    0    0  503  501  0.00000000000E+00  0.00000000000E+00  0.91035410828E+03  0.91035410828E+03  0.00000000000E+00 0.  1.
         21   -1    0    0  501  502 -0.00000000000E+00 -0.00000000000E+00 -0.27950958124E+03  0.27950958124E+03  0.00000000000E+00 0.  1.
         25    1    1    2    0    0  0.18192832065E+03  0.85379741899E+02  0.85597049154E+03  0.88808676185E+03  0.12500000000E+03 0.  0.
         21    1    1    2  503  502 -0.18192832065E+03 -0.85379741899E+02 -0.22512596451E+03  0.30177692767E+03  0.00000000000E+00 0.  1.
<mgrwt>
<rscale>  3 0.23666984E+03</rscale>
<asrwt>0</asrwt>
<pdfrwt beam="1">  1       21 0.14005448E+00 0.23666984E+03</pdfrwt>
<pdfrwt beam="2">  1       21 0.43001474E-01 0.23666984E+03</pdfrwt>
<totfact> 0.17878866E+03</totfact>
</mgrwt>
</event>
<event>
 4    0  0.1134290E-001  0.2611283E+03  0.7546771E-02  0.1106467E+00
         21   -1    0    0  502  501  0.00000000000E+00  0.00000000000E+00  0.75092081186E+03  0.75092081186E+03  0.00000000000E+00 0. -1.
         21   -1    0    0  503  502 -0.00000000000E+00 -0.00000000000E+00 -0.23567966735E+03  0.23567966735E+03  0.00000000000E+00 0. -1.
         25    1    1    2    0    0 -0.73774235557E+01  0.22914744471E+03  0.66386477431E+03  0.71337536848E+03  0.12500000000E+03 0.  0.
         21    1    1    2  503  501  0.73774235557E+01 -0.22914744471E+03 -0.14862362980E+03  0.27322511072E+03  0.00000000000E+00 0. -1.
<mgrwt>
<rscale>  3 0.26112828E+03</rscale>
<asrwt>0</asrwt>
<pdfrwt beam="1">  1       21 0.11552628E+00 0.26112828E+03</pdfrwt>
<pdfrwt beam="2">  1       21 0.36258411E-01 0.26112828E+03</pdfrwt>
<totfact> 0.40458351E+03</totfact>
</mgrwt>
</event>
<event>
 4    0  0.1311065E-001  0.2863848E+03  0.7546771E-02  0.1092252E+00
         21   -1    0    0  502  501  0.00000000000E+00  0.00000000000E+00  0.23811869481E+03  0.23811869481E+03  0.00000000000E+00 0. -1.
         21   -1    0    0  503  502 -0.00000000000E+00 -0.00000000000E+00 -0.60410574289E+03  0.60410574289E+03  0.00000000000E+00 0. -1.
         25    1    1    2    0    0 -0.17405227702E+03 -0.18999232468E+03  0.10527531540E+03  0.30512156692E+03  0.12500000000E+03 0.  0.
         21    1    1    2  503  501  0.17405227702E+03  0.18999232468E+03 -0.47126236347E+03  0.53710287078E+03  0.00000000000E+00 0. -1.
<mgrwt>
<rscale>  3 0.28638484E+03</rscale>
<asrwt>0</asrwt>
<pdfrwt beam="1">  1       21 0.36633646E-01 0.28638484E+03</pdfrwt>
<pdfrwt beam="2">  1       21 0.92939344E-01 0.28638484E+03</pdfrwt>
<totfact> 0.66053790E+03</totfact>
</mgrwt>
</event>
<event>
 4    0  0.1003929E-001  0.3177024E+03  0.7546771E-02  0.1076712E+00
         21   -1    0    0  502  501  0.00000000000E+00  0.00000000000E+00  0.64428365608E+03  0.64428365608E+03  0.00000000000E+00 0. -1.
         21   -1    0    0  503  502 -0.00000000000E+00 -0.00000000000E+00 -0.14787246028E+03  0.14787246028E+03  0.00000000000E+00 0.  1.
         25    1    1    2    0    0 -0.10611937916E+03  0.27211857750E+03  0.19671293356E+03  0.37367207694E+03  0.12500000000E+03 0.  0.
         21    1    1    2  503  501  0.10611937916E+03 -0.27211857750E+03  0.29969826224E+03  0.41848403941E+03  0.00000000000E+00 0.  1.
<mgrwt>
<rscale>  3 0.31770244E+03</rscale>
<asrwt>0</asrwt>
<pdfrwt beam="1">  1       21 0.99120561E-01 0.31770244E+03</pdfrwt>
<pdfrwt beam="2">  1       21 0.22749610E-01 0.31770244E+03</pdfrwt>
<totfact> 0.14225972E+04</totfact>
</mgrwt>
</event>
<event>
 4    0  0.1309147E-001  0.2446757E+03  0.7546771E-02  0.1116717E+00
         21   -1    0    0  503  501  0.00000000000E+00  0.00000000000E+00  0.47701098308E+03  0.47701098308E+03  0.00000000000E+00 0.  1.
         21   -1    0    0  501  502 -0.00000000000E+00 -0.00000000000E+00 -0.17515751768E+03  0.17515751768E+03  0.00000000000E+00 0.  1.
         25    1    1    2    0    0  0.61594203579E+02  0.20111528015E+03  0.35877683014E+03  0.43426606553E+03  0.12500000000E+03 0.  0.
         21    1    1    2  503  502 -0.61594203579E+02 -0.20111528015E+03 -0.56923364740E+02  0.21790243523E+03  0.00000000000E+00 0.  1.
<mgrwt>
<rscale>  3 0.24467571E+03</rscale>
<asrwt>0</asrwt>
<pdfrwt beam="1">  1       21 0.73386305E-01 0.24467571E+03</pdfrwt>
<pdfrwt beam="2">  1       21 0.26947311E-01 0.24467571E+03</pdfrwt>
<totfact> 0.21275922E+04</totfact>
</mgrwt>
</event>
<event>
 4    0  0.1009731E-001  0.4181795E+03  0.7546771E-02  0.1037660E+00
         21   -1    0    0  503  501  0.00000000000E+00  0.00000000000E+00  0.67552508721E+03  0.67552508721E+03  0.00000000000E+00 0.  1.
         21   -1    0    0  501  502 -0.00000000000E+00 -0.00000000000E+00 -0.29598954348E+03  0.29598954348E+03  0.00000000000E+00 0.  1.
         25    1    1    2    0    0 -0.39900400925E+03  0.66994602633E+01 -0.37555192730E+01  0.41819634873E+03  0.12500000000E+03 0.  0.
         21    1    1    2  503  502  0.39900400925E+03 -0.66994602633E+01  0.38329106300E+03  0.55331828195E+03  0.00000000000E+00 0.  1.
<mgrwt>
<rscale>  3 0.41817949E+03</rscale>
<asrwt>0</asrwt>
<pdfrwt beam="1">  1       21 0.10392694E+00 0.41817949E+03</pdfrwt>
<pdfrwt beam="2">  1       21 0.45536853E-01 0.41817949E+03</pdfrwt>
<totfact> 0.30457134E+03</totfact>
</mgrwt>
</event>
<event>
 4    0  0.1331435E-001  0.2919163E+03  0.7546771E-02  0.1089353E+00
         21   -1    0    0  502  501  0.00000000000E+00  0.00000000000E+00  0.31582366052E+03  0.31582366052E+03  0.00000000000E+00 0. -1.
         21   -1    0    0  503  502 -0.00000000000E+00 -0.00000000000E+00 -0.26161173936E+03  0.26161173936E+03  0.00000000000E+00 0. -1.
         25    1    1    2    0    0 -0.35751564197E+02 -0.26136557959E+03 -0.45458868515E+02  0.29543467851E+03  0.12500000000E+03 0.  0.
         21    1    1    2  503  501  0.35751564197E+02  0.26136557959E+03  0.99670789673E+02  0.28200072137E+03  0.00000000000E+00 0. -1.
<mgrwt>
<rscale>  3 0.29191632E+03</rscale>
<asrwt>0</asrwt>
<pdfrwt beam="1">  1       21 0.48588256E-01 0.29191632E+03</pdfrwt>
<pdfrwt beam="2">  1       21 0.40247960E-01 0.29191632E+03</pdfrwt>
<totfact> 0.22924815E+04</totfact>
</mgrwt>
</event>
<event>
 4    0  0.1551710E-001  0.2686520E+03  0.7546771E-02  0.1102054E+00
         21   -1    0    0  502  501  0.00000000000E+00  0.00000000000E+00  0.15260015367E+03  0.15260015367E+03  0.00000000000E+00 0. -1.
         21   -1    0    0  503  502 -0.00000000000E+00 -0.00000000000E+00 -0.43183340172E+03  0.43183340172E+03  0.00000000000E+00 0. -1.
         25    1    1    2    0    0 -0.18549817812E+03 -0.14879296314E+03 -0.10002887190E+03  0.28667001095E+03  0.12500000000E+03 0.  0.
         21    1    1    2  503  501  0.18549817812E+03  0.14879296314E+03 -0.17920437615E+03  0.29776354444E+03  0.00000000000E+00 0. -1.
<mgrwt>
<rscale>  3 0.26865204E+03</rscale>
<asrwt>0</asrwt>
<pdfrwt beam="1">  1       21 0.23476946E-01 0.26865204E+03</pdfrwt>
<pdfrwt beam="2">  1       21 0.66435909E-01 0.26865204E+03</pdfrwt>
<totfact> 0.34227029E+04</totfact>
</mgrwt>
</event>
<event>
 4    0  0.1714945E-001  0.2921556E+03  0.7546771E-02  0.1089229E+00
         21   -1    0    0  502  501  0.00000000000E+00  0.00000000000E+00  0.18500953694E+03  0.18500953694E+03  0.00000000000E+00 0. -1.
         21   -1    0    0  503  502 -0.00000000000E+00 -0.00000000000E+00 -0.41833473296E+03  0.41833473296E+03  0.00000000000E+00 0. -1.
         25    1    1    2    0    0  0.17635903791E+03 -0.19653845126E+03 -0.11482997548E+03  0.31391208378E+03  0.12500000000E+03 0.  0.
         21    1    1    2  503  501 -0.17635903791E+03  0.19653845126E+03 -0.11849522054E+03  0.28943218612E+03  0.00000000000E+00 0. -1.
<mgrwt>
<rscale>  3 0.29215556E+03</rscale>
<asrwt>0</asrwt>
<pdfrwt beam="1">  1       21 0.28463006E-01 0.29215556E+03</pdfrwt>
<pdfrwt beam="2">  1       21 0.64359188E-01 0.29215556E+03</pdfrwt>
<totfact> 0.25058062E+04</totfact>
</mgrwt>
</event>
<event>
 4    0  0.1003929E-001  0.3466552E+03  0.7546771E-02  0.1063996E+00
         21   -1    0    0  503  501  0.00000000000E+00  0.00000000000E+00  0.28939028321E+03  0.28939028321E+03  0.00000000000E+00 0.  1.
         21   -1    0    0  501  502 -0.00000000000E+00 -0.00000000000E+00 -0.12100947139E+04  0.12100947139E+04  0.00000000000E+00 0.  1.
         25    1    1    2    0    0  0.32326436746E+03 -0.67042745442E+01  0.15243764342E+03  0.37869121154E+03  0.12500000000E+03 0.  0.
         21    1    1    2  503  502 -0.32326436746E+03  0.67042745442E+01 -0.10731420741E+04  0.11207937856E+04  0.00000000000E+00 0.  1.
<mgrwt>
<rscale>  3 0.34665516E+03</rscale>
<asrwt>0</asrwt>
<pdfrwt beam="1">  1       21 0.44521582E-01 0.34665516E+03</pdfrwt>
<pdfrwt beam="2">  1       21 0.18616842E+00 0.34665516E+03</pdfrwt>
<totfact> 0.70370779E+02</totfact>
</mgrwt>
</event>
<event>
 4    0  0.1268197E-001  0.2363302E+03  0.7546771E-02  0.1122262E+00
         21   -1    0    0  503  501  0.00000000000E+00  0.00000000000E+00  0.32730470603E+03  0.32730470603E+03  0.00000000000E+00 0.  1.
         21   -1    0    0  501  502 -0.00000000000E+00 -0.00000000000E+00 -0.42369088938E+03  0.42369088938E+03  0.00000000000E+00 0.  1.
         25    1    1    2    0    0 -0.18671152399E+03 -0.73251406790E+02  0.25420330141E+03  0.34708972937E+03  0.12500000000E+03 0.  0.
         21    1    1    2  503  502  0.18671152399E+03  0.73251406790E+02 -0.35058948477E+03  0.40390586604E+03  0.00000000000E+00 0.  1.
<mgrwt>
<rscale>  3 0.23633020E+03</rscale>
<asrwt>0</asrwt>
<pdfrwt beam="1">  1       21 0.50354570E-01 0.23633020E+03</pdfrwt>
<pdfrwt beam="2">  1       21 0.65183213E-01 0.23633020E+03</pdfrwt>
<totfact> 0.78982991E+03</totfact>
</mgrwt>
</event>
<event>
 4    0  0.1003929E-001  0.2445532E+03  0.7546771E-02  0.1116796E+00
         21   -1    0    0  503  501  0.00000000000E+00  0.00000000000E+00  0.11650035173E+04  0.11650035173E+04  0.00000000000E+00 0.  1.
         21   -1    0    0  501  502 -0.00000000000E+00 -0.00000000000E+00 -0.56589536648E+02  0.56589536648E+02  0.00000000000E+00 0. -1.
         25    1    1    2    0    0  0.17569141999E+03  0.11538536245E+03  0.87016310729E+03  0.90387504126E+03  0.12500000000E+03 0.  0.
         21    1    1    2  503  502 -0.17569141999E+03 -0.11538536245E+03  0.23825087332E+03  0.31771801265E+03  0.00000000000E+00 0. -1.
<mgrwt>
<rscale>  3 0.24455318E+03</rscale>
<asrwt>0</asrwt>
<pdfrwt beam="1">  1       21 0.17923129E+00 0.24455318E+03</pdfrwt>
<pdfrwt beam="2">  1       21 0.87060834E-02 0.24455318E+03</pdfrwt>
<totfact> 0.18417113E+04</totfact>
</mgrwt>
</event>
<event>
 4    0  0.1022638E-001  0.2423428E+03  0.7546771E-02  0.1118242E+00
         21   -1    0    0  502  501  0.00000000000E+00  0.00000000000E+00  0.94474391728E+03  0.94474391728E+03  0.00000000000E+00 0.  1.
         21   -1    0    0  503  502 -0.00000000000E+00 -0.00000000000E+00 -0.14450510085E+03  0.14450510085E+03  0.00000000000E+00 0.  1.
         25    1    1    2    0    0 -0.15376859537E+03  0.13950000108E+03  0.84311274384E+03  0.87725089344E+03  0.12500000000E+03 0.  0.
         21    1    1    2  503  501  0.15376859537E+03 -0.13950000108E+03 -0.42873927399E+02  0.21199812469E+03  0.00000000000E+00 0.  1.
<mgrwt>
<rscale>  3 0.24234280E+03</rscale>
<asrwt>0</asrwt>
<pdfrwt beam="1">  1       21 0.14534521E+00 0.24234280E+03</pdfrwt>
<pdfrwt beam="2">  1       21 0.22231555E-01 0.24234280E+03</pdfrwt>
<totfact> 0.59203567E+03</totfact>
</mgrwt>
</event>
<event>
 4    0  0.1254773E-001  0.2876294E+03  0.7546771E-02  0.1091593E+00
         21   -1    0    0  502  501  0.00000000000E+00  0.00000000000E+00  0.96206039717E+02  0.96206039717E+02  0.00000000000E+00 0.  1.
         21   -1    0    0  503  502 -0.00000000000E+00 -0.00000000000E+00 -0.16012544404E+04  0.16012544404E+04  0.00000000000E+00 0. -1.
         25    1    1    2    0    0  0.11350946492E+03 -0.23285462487E+03 -0.16292945900E+03  0.33057023998E+03  0.12500000000E+03 0.  0.
         21    1    1    2  503  501 -0.11350946492E+03  0.23285462487E+03 -0.13421189417E+04  0.13668902401E+04  0.00000000000E+00 0. -1.
<mgrwt>
<rscale>  3 0.28762941E+03</rscale>
<asrwt>0</asrwt>
<pdfrwt beam="1">  1       21 0.14800931E-01 0.28762941E+03</pdfrwt>
<pdfrwt beam="2">  1       21 0.24634681E+00 0.28762941E+03</pdfrwt>
<totfact> 0.25763210E+03</totfact>
</mgrwt>
</event>
<event>
 4    0  0.1297880E-001  0.2480562E+03  0.7546771E-02  0.1114539E+00
         21   -1    0    0  502  501  0.00000000000E+00  0.00000000000E+00  0.35562826240E+03  0.35562826240E+03  0.00000000000E+00 0.  1.
         21   -1    0    0  503  502 -0.00000000000E+00 -0.00000000000E+00 -0.23795145259E+03  0.23795145259E+03  0.00000000000E+00 0. -1.
         25    1    1    2    0    0 -0.14636803322E+03 -0.15647134098E+03  0.24142893656E+03  0.34614998643E+03  0.12500000000E+03 0.  0.
         21    1    1    2  503  501  0.14636803322E+03  0.15647134098E+03 -0.12375212676E+03  0.24742972856E+03  0.00000000000E+00 0. -1.
<mgrwt>
<rscale>  3 0.24805621E+03</rscale>
<asrwt>0</asrwt>
<pdfrwt beam="1">  1       21 0.54712040E-01 0.24805621E+03</pdfrwt>
<pdfrwt beam="2">  1       21 0.36607916E-01 0.24805621E+03</pdfrwt>
<totfact> 0.22032078E+04</totfact>
</mgrwt>
</event>
<event>
 4    0  0.1003929E-001  0.3805771E+03  0.7546771E-02  0.1050721E+00
         21   -1    0    0  503  501  0.00000000000E+00  0.00000000000E+00  0.15950456411E+04  0.15950456411E+04  0.00000000000E+00 0.  1.
         21   -1    0    0  501  502 -0.00000000000E+00 -0.00000000000E+00 -0.20325454097E+03  0.20325454097E+03  0.00000000000E+00 0.  1.
         25    1    1    2    0    0  0.22014536281E+03  0.28416537175E+03  0.13875665387E+04  0.14388119539E+04  0.12500000000E+03 0.  0.
         21    1    1    2  503  502 -0.22014536281E+03 -0.28416537175E+03  0.42245613805E+01  0.35948822816E+03  0.00000000000E+00 0.  1.
<mgrwt>
<rscale>  3 0.38057711E+03</rscale>
<asrwt>0</asrwt>
<pdfrwt beam="1">  1       21 0.24539163E+00 0.38057711E+03</pdfrwt>
<pdfrwt beam="2">  1       21 0.31269930E-01 0.38057711E+03</pdfrwt>
<totfact> 0.58894993E+02</totfact>
</mgrwt>
</event>
<event>
 4    0  0.1151447E-001  0.2373475E+03  0.7546771E-02  0.1121573E+00
         21   -1    0    0  503  501  0.00000000000E+00  0.00000000000E+00  0.11440367063E+03  0.11440367063E+03  0.00000000000E+00 0.  1.
         21   -1    0    0  501  502 -0.00000000000E+00 -0.00000000000E+00 -0.44661125822E+03  0.44661125822E+03  0.00000000000E+00 0.  1.
         25    1    1    2    0    0 -0.19937448883E+03  0.30962226291E+02 -0.24529889154E+03  0.34132886260E+03  0.12500000000E+03 0.  0.
         21    1    1    2  503  502  0.19937448883E+03 -0.30962226291E+02 -0.86908696050E+02  0.21968606625E+03  0.00000000000E+00 0.  1.
<mgrwt>
<rscale>  3 0.23734752E+03</rscale>
<asrwt>0</asrwt>
<pdfrwt beam="1">  1       21 0.17600564E-01 0.23734752E+03</pdfrwt>
<pdfrwt beam="2">  1       21 0.68709425E-01 0.23734752E+03</pdfrwt>
<totfact> 0.55361568E+04</totfact>
</mgrwt>
</event>
<event>
 4    0  0.1003929E-001  0.3610730E+03  0.7546771E-02  0.1058160E+00
         21   -1    0    0  503  501  0.00000000000E+00  0.00000000000E+00  0.14138291869E+03  0.14138291869E+03  0.00000000000E+00 0.  1.
         21   -1    0    0  501  502 -0.00000000000E+00 -0.00000000000E+00 -0.19246753033E+04  0.19246753033E+04  0.00000000000E+00 0.  1.
         25    1    1    2    0    0 -0.32900205479E+03  0.80661970513E+02 -0.13846619394E+03  0.38671254493E+03  0.12500000000E+03 0.  0.
         21    1    1    2  503  502  0.32900205479E+03 -0.80661970513E+02 -0.16448261907E+04  0.16793456770E+04  0.00000000000E+00 0.  1.
<mgrwt>
<rscale>  3 0.36107299E+03</rscale>
<asrwt>0</asrwt>
<pdfrwt beam="1">  1       21 0.21751221E-01 0.36107299E+03</pdfrwt>
<pdfrwt beam="2">  1       21 0.29610386E+00 0.36107299E+03</pdfrwt>
<totfact> 0.59993759E+02</totfact>
</mgrwt>
</event>
<event>
 4    0  0.1144382E-001  0.2944074E+03  0.7546771E-02  0.1088070E+00
         21   -1    0    0  502  501  0.00000000000E+00  0.00000000000E+00  0.12191874982E+03  0.12191874982E+03  0.00000000000E+00 0. -1.
         21   -1    0    0  503  502 -0.00000000000E+00 -0.00000000000E+00 -0.86086284687E+03  0.86086284687E+03  0.00000000000E+00 0. -1.
         25    1    1    2    0    0  0.26508429785E+03  0.27946597193E+02 -0.13753393023E+03  0.32494811775E+03  0.12500000000E+03 0.  0.
         21    1    1    2  503  501 -0.26508429785E+03 -0.27946597193E+02 -0.60141016682E+03  0.65783347895E+03  0.00000000000E+00 0. -1.
<mgrwt>
<rscale>  3 0.29440737E+03</rscale>
<asrwt>0</asrwt>
<pdfrwt beam="1">  1       21 0.18756731E-01 0.29440737E+03</pdfrwt>
<pdfrwt beam="2">  1       21 0.13244044E+00 0.29440737E+03</pdfrwt>
<totfact> 0.10087139E+04</totfact>
</mgrwt>
</event>
<event>
 4    0  0.1074990E-001  0.3399072E+03  0.7546771E-02  0.1066835E+00
         21   -1    0    0  503  501  0.00000000000E+00  0.00000000000E+00  0.94351503977E+03  0.94351503977E+03  0.00000000000E+00 0.  1.
         21   -1    0    0  501  502 -0.00000000000E+00 -0.00000000000E+00 -0.16797301010E+03  0.16797301010E+03  0.00000000000E+00 0. -1.
         25    1    1    2    0    0 -0.12449774477E+03 -0.29053775195E+03  0.71214389793E+03  0.78910443233E+03  0.12500000000E+03 0.  0.
         21    1    1    2  503  502  0.12449774477E+03  0.29053775195E+03  0.63398131741E+02  0.32238361755E+03  0.00000000000E+00 0. -1.
<mgrwt>
<rscale>  3 0.33990715E+03</rscale>
<asrwt>0</asrwt>
<pdfrwt beam="1">  1       21 0.14515616E+00 0.33990715E+03</pdfrwt>
<pdfrwt beam="2">  1       21 0.25842002E-01 0.33990715E+03</pdfrwt>
<totfact> 0.42110581E+03</totfact>
</mgrwt>
</event>
<event>
 4    0  0.1003929E-001  0.2421592E+03  0.7546771E-02  0.1118363E+00
         21   -1    0    0  502  501  0.00000000000E+00  0.00000000000E+00  0.25099578691E+03  0.25099578691E+03  0.00000000000E+00 0.  1.
         21   -1    0    0  503  502 -0.00000000000E+00 -0.00000000000E+00 -0.25485429229E+03  0.25485429229E+03  0.00000000000E+00 0. -1.
         25    1    1    2    0    0  0.43321069710E+02  0.20282838891E+03  0.11361667972E+03  0.26748798167E+03  0.12500000000E+03 0.  0.
         21    1    1    2  503  501 -0.43321069710E+02 -0.20282838891E+03 -0.11747518510E+03  0.23836209753E+03  0.00000000000E+00 0. -1.
<mgrwt>
<rscale>  3 0.24215918E+03</rscale>
<asrwt>0</asrwt>
<pdfrwt beam="1">  1       21 0.38614736E-01 0.24215918E+03</pdfrwt>
<pdfrwt beam="2">  1       21 0.39208353E-01 0.24215918E+03</pdfrwt>
<totfact> 0.39609851E+04</totfact>
</mgrwt>
</event>
<event>
 4    0  0.1106723E-001  0.2668777E+03  0.7546771E-02  0.1103080E+00
         21   -1    0    0  502  501  0.00000000000E+00  0.00000000000E+00  0.10252641494E+04  0.10252641494E+04  0.00000000000E+00 0.  1.
         21   -1    0    0  503  502 -0.00000000000E+00 -0.00000000000E+00 -0.64531100151E+02  0.64531100151E+02  0.00000000000E+00 0.  1.
         25    1    1    2    0    0  0.42158237175E+02 -0.23199442335E+03  0.39306861902E+03  0.47510700762E+03  0.12500000000E+03 0.  0.
         21    1    1    2  503  501 -0.42158237175E+02  0.23199442335E+03  0.56766443022E+03  0.61468824192E+03  0.00000000000E+00 0.  1.
<mgrwt>
<rscale>  3 0.26687774E+03</rscale>
<asrwt>0</asrwt>
<pdfrwt beam="1">  1       21 0.15773293E+00 0.26687774E+03</pdfrwt>
<pdfrwt beam="2">  1       21 0.99278623E-02 0.26687774E+03</pdfrwt>
<totfact> 0.20564786E+04</totfact>
</mgrwt>
</event>
<event>
 4    0  0.1136143E-001  0.2813771E+03  0.7546771E-02  0.1094939E+00
         21   -1    0    0  503  501  0.00000000000E+00  0.00000000000E+00  0.74573575056E+03  0.74573575056E+03  0.00000000000E+00 0. -1.
         21   -1    0    0  501  502 -0.00000000000E+00 -0.00000000000E+00 -0.12489348216E+03  0.12489348216E+03  0.00000000000E+00 0. -1.
         25    1    1    2    0    0  0.25086315748E+03  0.24813767927E+02  0.53472473473E+03  0.60423802329E+03  0.12500000000E+03 0.  0.
         21    1    1    2  503  502 -0.25086315748E+03 -0.24813767927E+02  0.86117533673E+02  0.26639120943E+03  0.00000000000E+00 0. -1.
<mgrwt>
<rscale>  3 0.28137705E+03</rscale>
<asrwt>0</asrwt>
<pdfrwt beam="1">  1       21 0.11472857E+00 0.28137705E+03</pdfrwt>
<pdfrwt beam="2">  1       21 0.19214382E-01 0.28137705E+03</pdfrwt>
<totfact> 0.13937283E+04</totfact>
</mgrwt>
</event>
<event>
 4    0  0.1075948E-001  0.2476439E+03  0.7546771E-02  0.1114803E+00
         21   -1    0    0  502  501  0.00000000000E+00  0.00000000000E+00  0.11314112998E+04  0.11314112998E+04  0.00000000000E+00 0.  1.
         21   -1    0    0  503  502 -0.00000000000E+00 -0.00000000000E+00 -0.47051466111E+02  0.47051466111E+02  0.00000000000E+00 0.  1.
         25    1    1    2    0    0 -0.29201653475E+01  0.21376147184E+03  0.58832265376E+03  0.63831891648E+03  0.12500000000E+03 0.  0.
         21    1    1    2  503  501  0.29201653475E+01 -0.21376147184E+03  0.49603717993E+03  0.54014384943E+03  0.00000000000E+00 0.  1.
<mgrwt>
<rscale>  3 0.24764389E+03</rscale>
<asrwt>0</asrwt>
<pdfrwt beam="1">  1       21 0.17406326E+00 0.24764389E+03</pdfrwt>
<pdfrwt beam="2">  1       21 0.72386879E-02 0.24764389E+03</pdfrwt>
<totfact> 0.27585344E+04</totfact>
</mgrwt>
</event>
<event>
 4    0  0.1003929E-001  0.3211026E+03  0.7546771E-02  0.1075143E+00
         21   -1    0    0  503  501  0.00000000000E+00  0.00000000000E+00  0.24292636083E+04  0.24292636083E+04  0.00000000000E+00 0.  1.
         21   -1    0    0  501  502 -0.00000000000E+00 -0.00000000000E+00 -0.72210685233E+02  0.72210685233E+02  0.00000000000E+00 0. -1.
         25    1    1    2    0    0  0.21138121565E+03  0.20688122711E+03  0.20505279858E+04  0.20755172562E+04  0.12500000000E+03 0.  0.
         21    1    1    2  503  502 -0.21138121565E+03 -0.20688122711E+03  0.30652493735E+03  0.42595703736E+03  0.00000000000E+00 0. -1.
<mgrwt>
<rscale>  3 0.32110257E+03</rscale>
<asrwt>0</asrwt>
<pdfrwt beam="1">  1       21 0.37373280E+00 0.32110257E+03</pdfrwt>
<pdfrwt beam="2">  1       21 0.11109338E-01 0.32110257E+03</pdfrwt>
<totfact> 0.73216832E+02</totfact>
</mgrwt>
</event>
<event>
 4    0  0.1003929E-001  0.2630699E+03  0.7546771E-02  0.1105313E+00
         21   -1    0    0  502  501  0.00000000000E+00  0.00000000000E+00  0.13332965072E+03  0.13332965072E+03  0.00000000000E+00 0. -1.
         21   -1    0    0  503  502 -0.00000000000E+00 -0.00000000000E+00 -0.50329947282E+03  0.50329947282E+03  0.00000000000E+00 0.  1.
         25    1    1    2    0    0  0.17015367595E+03 -0.15693471910E+03 -0.10105722461E+03  0.28181260111E+03  0.12500000000E+03 0.  0.
         21    1    1    2  503  501 -0.17015367595E+03  0.15693471910E+03 -0.26891259749E+03  0.35481652243E+03  0.00000000000E+00 0.  1.
<mgrwt>
<rscale>  3 0.26306991E+03</rscale>
<asrwt>0</asrwt>
<pdfrwt beam="1">  1       21 0.20512254E-01 0.26306991E+03</pdfrwt>
<pdfrwt beam="2">  1       21 0.77430689E-01 0.26306991E+03</pdfrwt>
<totfact> 0.31487753E+04</totfact>
</mgrwt>
</event>
<event>
 4    0  0.1003929E-001  0.2387169E+03  0.7546771E-02  0.1120651E+00
         21   -1    0    0  502  501  0.00000000000E+00  0.00000000000E+00  0.19173712689E+04  0.19173712689E+04  0.00000000000E+00 0. -1.
         21   -1    0    0  503  502 -0.00000000000E+00 -0.00000000000E+00 -0.27389577220E+02  0.27389577220E+02  0.00000000000E+00 0. -1.
         25    1    1    2    0    0  0.57358616578E+02  0.19511722516E+03  0.75951624897E+03  0.79614739521E+03  0.12500000000E+03 0.  0.
         21    1    1    2  503  501 -0.57358616578E+02 -0.19511722516E+03  0.11304654427E+04  0.11486134509E+04  0.00000000000E+00 0. -1.
<mgrwt>
<rscale>  3 0.23871687E+03</rscale>
<asrwt>0</asrwt>
<pdfrwt beam="1">  1       21 0.29498009E+00 0.23871687E+03</pdfrwt>
<pdfrwt beam="2">  1       21 0.42137826E-02 0.23871687E+03</pdfrwt>
<totfact> 0.12540059E+04</totfact>
</mgrwt>
</event>
<event>
 4    0  0.1708395E-001  0.3054436E+03  0.7546771E-02  0.1082551E+00
         21   -1    0    0  503  501  0.00000000000E+00  0.00000000000E+00  0.66420980672E+03  0.66420980672E+03  0.00000000000E+00 0.  1.
         21   -1    0    0  501  502 -0.00000000000E+00 -0.00000000000E+00 -0.13249617371E+04  0.13249617371E+04  0.00000000000E+00 0. -1.
         25    1    1    2    0    0  0.23301534707E+03 -0.15288758883E+03  0.61321583087E+03  0.68507621621E+03  0.12500000000E+03 0.  0.
         21    1    1    2  503  502 -0.23301534707E+03  0.15288758883E+03 -0.12739677613E+04  0.13040953276E+04  0.00000000000E+00 0. -1.
<mgrwt>
<rscale>  3 0.30544356E+03</rscale>
<asrwt>0</asrwt>
<pdfrwt beam="1">  1       21 0.10218612E+00 0.30544356E+03</pdfrwt>
<pdfrwt beam="2">  1       21 0.20384027E+00 0.30544356E+03</pdfrwt>
<totfact> 0.86916112E+01</totfact>
</mgrwt>
</event>
<event>
 4    0  0.1329435E-001  0.3331433E+03  0.7546771E-02  0.1069754E+00
         21   -1    0    0  502  501  0.00000000000E+00  0.00000000000E+00  0.39859787898E+03  0.39859787898E+03  0.00000000000E+00 0. -1.
         21   -1    0    0  503  502 -0.00000000000E+00 -0.00000000000E+00 -0.40742268302E+03  0.40742268302E+03  0.00000000000E+00 0. -1.
         25    1    1    2    0    0  0.77289170206E+02 -0.29897468390E+03  0.23905262559E+03  0.41003735835E+03  0.12500000000E+03 0.  0.
         21    1    1    2  503  501 -0.77289170206E+02  0.29897468390E+03 -0.24787742964E+03  0.39598320364E+03  0.00000000000E+00 0. -1.
<mgrwt>
<rscale>  3 0.33314333E+03</rscale>
<asrwt>0</asrwt>
<pdfrwt beam="1">  1       21 0.61322751E-01 0.33314333E+03</pdfrwt>
<pdfrwt beam="2">  1       21 0.62680412E-01 0.33314333E+03</pdfrwt>
<totfact> 0.53681320E+03</totfact>
</mgrwt>
</event>
<event>
 4    0  0.1003929E-001  0.3401042E+03  0.7546771E-02  0.1066752E+00
         21   -1    0    0  502  501  0.00000000000E+00  0.00000000000E+00  0.27922313966E+03  0.27922313966E+03  0.00000000000E+00 0.  1.
         21   -1    0    0  503  502 -0.00000000000E+00 -0.00000000000E+00 -0.17898854656E+04  0.17898854656E+04  0.00000000000E+00 0.  1.
         25    1    1    2    0    0  0.30478869824E+03 -0.84555830944E+02  0.15494368802E+03  0.37373571622E+03  0.12500000000E+03 0.  0.
         21    1    1    2  503  501 -0.30478869824E+03  0.84555830944E+02 -0.16656060139E+04  0.16953728890E+04  0.00000000000E+00 0.  1.
<mgrwt>
<rscale>  3 0.34010416E+03</rscale>
<asrwt>0</asrwt>
<pdfrwt beam="1">  1       21 0.42957407E-01 0.34010416E+03</pdfrwt>
<pdfrwt beam="2">  1       21 0.27536699E+00 0.34010416E+03</pdfrwt>
<totfact> 0.20999013E+02</totfact>
</mgrwt>
</event>
<event>
 4    0  0.1571490E-001  0.2647578E+03  0.7546771E-02  0.1104318E+00
         21   -1    0    0  502  501  0.00000000000E+00  0.00000000000E+00  0.47748371977E+03  0.47748371977E+03  0.00000000000E+00 0. -1.
         21   -1    0    0  503  502 -0.00000000000E+00 -0.00000000000E+00 -0.15282521605E+03  0.15282521605E+03  0.00000000000E+00 0. -1.
         25    1    1    2    0    0 -0.19857211263E+03 -0.12264104444E+03  0.29280262211E+03  0.39475319531E+03  0.12500000000E+03 0.  0.
         21    1    1    2  503  501  0.19857211263E+03  0.12264104444E+03  0.31855881610E+02  0.23555574051E+03  0.00000000000E+00 0. -1.
<mgrwt>
<rscale>  3 0.26475783E+03</rscale>
<asrwt>0</asrwt>
<pdfrwt beam="1">  1       21 0.73459033E-01 0.26475783E+03</pdfrwt>
<pdfrwt beam="2">  1       21 0.23511572E-01 0.26475783E+03</pdfrwt>
<totfact> 0.27342594E+04</totfact>
</mgrwt>
</event>
<event>
 4    0  0.1224410E-001  0.3645323E+03  0.7546771E-02  0.1056804E+00
         21   -1    0    0  502  501  0.00000000000E+00  0.00000000000E+00  0.71145564407E+03  0.71145564407E+03  0.00000000000E+00 0. -1.
         21   -1    0    0  503  502 -0.00000000000E+00 -0.00000000000E+00 -0.27136911464E+03  0.27136911464E+03  0.00000000000E+00 0.  1.
         25    1    1    2    0    0 -0.19727853936E+03 -0.27989285569E+03  0.51629520152E+03  0.63201627184E+03  0.12500000000E+03 0.  0.
         21    1    1    2  503  501  0.19727853936E+03  0.27989285569E+03 -0.76208672088E+02  0.35080848687E+03  0.00000000000E+00 0.  1.
<mgrwt>
<rscale>  3 0.36453235E+03</rscale>
<asrwt>0</asrwt>
<pdfrwt beam="1">  1       21 0.10945471E+00 0.36453235E+03</pdfrwt>
<pdfrwt beam="2">  1       21 0.41749095E-01 0.36453235E+03</pdfrwt>
<totfact> 0.32847085E+03</totfact>
</mgrwt>
</event>
<event>
 4    0  0.1025581E-001  0.3258072E+03  0.7546771E-02  0.1073007E+00
         21   -1    0    0  502  501  0.00000000000E+00  0.00000000000E+00  0.11942152873E+04  0.11942152873E+04  0.00000000000E+00 0. -1.
         21   -1    0    0  503  502 -0.00000000000E+00 -0.00000000000E+00 -0.18645863672E+03  0.18645863672E+03  0.00000000000E+00 0. -1.
         25    1    1    2    0    0  0.22695002252E+03 -0.19753229340E+03  0.10287097738E+04  0.10790709515E+04  0.12500000000E+03 0.  0.
         21    1    1    2  503  501 -0.22695002252E+03  0.19753229340E+03 -0.20953123211E+02  0.30160297252E+03  0.00000000000E+00 0. -1.
<mgrwt>
<rscale>  3 0.32580718E+03</rscale>
<asrwt>0</asrwt>
<pdfrwt beam="1">  1       21 0.18372542E+00 0.32580718E+03</pdfrwt>
<pdfrwt beam="2">  1       21 0.28685945E-01 0.32580718E+03</pdfrwt>
<totfact> 0.17987249E+03</totfact>
</mgrwt>
</event>
<event>
 4    0  0.1003929E-001  0.4004772E+03  0.7546771E-02  0.1043615E+00
         21   -1    0    0  503  501  0.00000000000E+00  0.00000000000E+00  0.47867581197E+03  0.47867581197E+03  0.00000000000E+00 0. -1.
         21   -1    0    0  501  502 -0.00000000000E+00 -0.00000000000E+00 -0.97075764376E+03  0.97075764376E+03  0.00000000000E+00 0. -1.
         25    1    1    2    0    0  0.48908454054E+02  0.37731280618E+03  0.34586544882E+03  0.52915489157E+03  0.12500000000E+03 0.  0.
         21    1    1    2  503  502 -0.48908454054E+02 -0.37731280618E+03 -0.83794728061E+03  0.92027856416E+03  0.00000000000E+00 0. -1.
<mgrwt>
<rscale>  3 0.40047720E+03</rscale>
<asrwt>0</asrwt>
<pdfrwt beam="1">  1       21 0.73642433E-01 0.40047720E+03</pdfrwt>
<pdfrwt beam="2">  1       21 0.14934733E+00 0.40047720E+03</pdfrwt>
<totfact> 0.42592131E+02</totfact>
</mgrwt>
</event>
<event>
 4    0  0.1135119E-001  0.4145491E+03  0.7546771E-02  0.1038855E+00
         21   -1    0    0  502  501  0.00000000000E+00  0.00000000000E+00  0.15951785236E+04  0.15951785236E+04  0.00000000000E+00 0. -1.
         21   -1    0    0  503  502 -0.00000000000E+00 -0.00000000000E+00 -0.11993156041E+03  0.11993156041E+03  0.00000000000E+00 0. -1.
         25    1    1    2    0    0 -0.10706605046E+02  0.39510928488E+03  0.10769473488E+04  0.11539785832E+04  0.12500000000E+03 0.  0.
         21    1    1    2  503  501  0.10706605046E+02 -0.39510928488E+03  0.39829961440E+03  0.56113150083E+03  0.00000000000E+00 0. -1.
<mgrwt>
<rscale>  3 0.41454913E+03</rscale>
<asrwt>0</asrwt>
<pdfrwt beam="1">  1       21 0.24541207E+00 0.41454913E+03</pdfrwt>
<pdfrwt beam="2">  1       21 0.18451010E-01 0.41454913E+03</pdfrwt>
<totfact> 0.16021978E+03</totfact>
</mgrwt>
</event>
<event>
 4    0  0.1093094E-001  0.3107703E+03  0.7546771E-02  0.1079977E+00
         21   -1    0    0  502  501  0.00000000000E+00  0.00000000000E+00  0.11652576685E+04  0.11652576685E+04  0.00000000000E+00 0.  1.
         21   -1    0    0  503  502 -0.00000000000E+00 -0.00000000000E+00 -0.10939779960E+03  0.10939779960E+03  0.00000000000E+00 0.  1.
         25    1    1    2    0    0  0.11503852725E+02 -0.28429010803E+03  0.89585770448E+03  0.94822952434E+03  0.12500000000E+03 0.  0.
         21    1    1    2  503  501 -0.11503852725E+02  0.28429010803E+03  0.16000216445E+03  0.32642594379E+03  0.00000000000E+00 0.  1.
<mgrwt>
<rscale>  3 0.31077034E+03</rscale>
<asrwt>0</asrwt>
<pdfrwt beam="1">  1       21 0.17927040E+00 0.31077034E+03</pdfrwt>
<pdfrwt beam="2">  1       21 0.16830432E-01 0.31077034E+03</pdfrwt>
<totfact> 0.53870624E+03</totfact>
</mgrwt>
</event>
<event>
 4    0  0.1655491E-001  0.2649130E+03  0.7546771E-02  0.1104227E+00
         21   -1    0    0  502  501  0.00000000000E+00  0.00000000000E+00  0.45395929364E+03  0.45395929364E+03  0.00000000000E+00 0. -1.
         21   -1    0    0  503  502 -0.00000000000E+00 -0.00000000000E+00 -0.16388910556E+03  0.16388910556E+03  0.00000000000E+00 0. -1.
         25    1    1    2    0    0 -0.20231674714E+03 -0.11671262812E+03  0.27794044434E+03  0.38396587652E+03  0.12500000000E+03 0.  0.
         21    1    1    2  503  501  0.20231674714E+03  0.11671262812E+03  0.12129743745E+02  0.23388252268E+03  0.00000000000E+00 0. -1.
<mgrwt>
<rscale>  3 0.26491301E+03</rscale>
<asrwt>0</asrwt>
<pdfrwt beam="1">  1       21 0.69839891E-01 0.26491301E+03</pdfrwt>
<pdfrwt beam="2">  1       21 0.25213709E-01 0.26491301E+03</pdfrwt>
<totfact> 0.26764880E+04</totfact>
</mgrwt>
</event>
<event>
 4    0  0.1666039E-001  0.2784965E+03  0.7546771E-02  0.1096513E+00
         21   -1    0    0  503  501  0.00000000000E+00  0.00000000000E+00  0.18450937317E+03  0.18450937317E+03  0.00000000000E+00 0. -1.
         21   -1    0    0  501  502 -0.00000000000E+00 -0.00000000000E+00 -0.38834028905E+03  0.38834028905E+03  0.00000000000E+00 0. -1.
         25    1    1    2    0    0  0.56607429904E+02  0.24234463555E+03 -0.58232161924E+02  0.28451943375E+03  0.12500000000E+03 0.  0.
         21    1    1    2  503  502 -0.56607429904E+02 -0.24234463555E+03 -0.14559875396E+03  0.28833022847E+03  0.00000000000E+00 0. -1.
<mgrwt>
<rscale>  3 0.27849654E+03</rscale>
<asrwt>0</asrwt>
<pdfrwt beam="1">  1       21 0.28386058E-01 0.27849654E+03</pdfrwt>
<pdfrwt beam="2">  1       21 0.59744659E-01 0.27849654E+03</pdfrwt>
<totfact> 0.29788213E+04</totfact>
</mgrwt>
</event>
<event>
 4    0  0.1070232E-001  0.2510301E+03  0.7546771E-02  0.1112656E+00
         21   -1    0    0  503  501  0.00000000000E+00  0.00000000000E+00  0.44205256219E+02  0.44205256219E+02  0.00000000000E+00 0. -1.
         21   -1    0    0  501  502 -0.00000000000E+00 -0.00000000000E+00 -0.18691381610E+04  0.18691381610E+04  0.00000000000E+00 0. -1.
         25    1    1    2    0    0  0.15406780630E+03  0.15379930505E+03 -0.40261977196E+03  0.47446685442E+03  0.12500000000E+03 0.  0.
         21    1    1    2  503  502 -0.15406780630E+03 -0.15379930505E+03 -0.14223131328E+04  0.14388765628E+04  0.00000000000E+00 0. -1.
<mgrwt>
<rscale>  3 0.25103011E+03</rscale>
<asrwt>0</asrwt>
<pdfrwt beam="1">  1       21 0.68008101E-02 0.25103011E+03</pdfrwt>
<pdfrwt beam="2">  1       21 0.28755966E+00 0.25103011E+03</pdfrwt>
<totfact> 0.60458366E+03</totfact>
</mgrwt>
</event>
<event>
 4    0  0.1240435E-001  0.2565593E+03  0.7546771E-02  0.1109228E+00
         21   -1    0    0  502  501  0.00000000000E+00  0.00000000000E+00  0.15269619641E+03  0.15269619641E+03  0.00000000000E+00 0.  1.
         21   -1    0    0  503  502 -0.00000000000E+00 -0.00000000000E+00 -0.38452507046E+03  0.38452507046E+03  0.00000000000E+00 0.  1.
         25    1    1    2    0    0  0.18973060041E+03  0.11916372192E+03 -0.15806540885E+03  0.30134260706E+03  0.12500000000E+03 0.  0.
         21    1    1    2  503  501 -0.18973060041E+03 -0.11916372192E+03 -0.73763465202E+02  0.23587865981E+03  0.00000000000E+00 0.  1.
<mgrwt>
<rscale>  3 0.25655934E+03</rscale>
<asrwt>0</asrwt>
<pdfrwt beam="1">  1       21 0.23491723E-01 0.25655934E+03</pdfrwt>
<pdfrwt beam="2">  1       21 0.59157703E-01 0.25655934E+03</pdfrwt>
<totfact> 0.44240537E+04</totfact>
</mgrwt>
</event>
<event>
 4    0  0.1003929E-001  0.2625392E+03  0.7546771E-02  0.1105627E+00
         21   -1    0    0  503  501  0.00000000000E+00  0.00000000000E+00  0.73513776478E+02  0.73513776478E+02  0.00000000000E+00 0. -1.
         21   -1    0    0  501  502 -0.00000000000E+00 -0.00000000000E+00 -0.19486648484E+04  0.19486648484E+04  0.00000000000E+00 0. -1.
         25    1    1    2    0    0  0.17017054088E+03  0.15602511687E+03 -0.19702695736E+03  0.32824757730E+03  0.12500000000E+03 0.  0.
         21    1    1    2  503  502 -0.17017054088E+03 -0.15602511687E+03 -0.16781241146E+04  0.16939310476E+04  0.00000000000E+00 0. -1.
<mgrwt>
<rscale>  3 0.26253924E+03</rscale>
<asrwt>0</asrwt>
<pdfrwt beam="1">  1       21 0.11309809E-01 0.26253924E+03</pdfrwt>
<pdfrwt beam="2">  1       21 0.29979467E+00 0.26253924E+03</pdfrwt>
<totfact> 0.20702358E+03</totfact>
</mgrwt>
</event>
<event>
 4    0  0.1003929E-001  0.3259208E+03  0.7546771E-02  0.1072956E+00
         21   -1    0    0  502  501  0.00000000000E+00  0.00000000000E+00  0.93094169998E+03  0.93094169998E+03  0.00000000000E+00 0. -1.
         21   -1    0    0  503  502 -0.00000000000E+00 -0.00000000000E+00 -0.15074578095E+03  0.15074578095E+03  0.00000000000E+00 0.  1.
         25    1    1    2    0    0  0.25928310717E+02 -0.29987844346E+03  0.69694845757E+03  0.76939035000E+03  0.12500000000E+03 0.  0.
         21    1    1    2  503  501 -0.25928310717E+02  0.29987844346E+03  0.83247461462E+02  0.31229713094E+03  0.00000000000E+00 0.  1.
<mgrwt>
<rscale>  3 0.32592079E+03</rscale>
<asrwt>0</asrwt>
<pdfrwt beam="1">  1       21 0.14322180E+00 0.32592079E+03</pdfrwt>
<pdfrwt beam="2">  1       21 0.23191659E-01 0.32592079E+03</pdfrwt>
<totfact> 0.54142059E+03</totfact>
</mgrwt>
</event>
<event>
 4    0  0.1301361E-001  0.3097328E+03  0.7546771E-02  0.1080474E+00
         21   -1    0    0  502  501  0.00000000000E+00  0.00000000000E+00  0.48125737432E+03  0.48125737432E+03  0.00000000000E+00 0. -1.
         21   -1    0    0  503  502 -0.00000000000E+00 -0.00000000000E+00 -0.31630650259E+03  0.31630650259E+03  0.00000000000E+00 0. -1.
         25    1    1    2    0    0  0.19293626438E+03  0.20756922656E+03  0.34357470295E+03  0.46257752046E+03  0.12500000000E+03 0.  0.
         21    1    1    2  503  501 -0.19293626438E+03 -0.20756922656E+03 -0.17862383122E+03  0.33498635645E+03  0.00000000000E+00 0. -1.
<mgrwt>
<rscale>  3 0.30973277E+03</rscale>
<asrwt>0</asrwt>
<pdfrwt beam="1">  1       21 0.74039596E-01 0.30973277E+03</pdfrwt>
<pdfrwt beam="2">  1       21 0.48662539E-01 0.30973277E+03</pdfrwt>
<totfact> 0.61481073E+03</totfact>
</mgrwt>
</event>
<event>
 4    0  0.1102997E-001  0.2575026E+03  0.7546771E-02  0.1108653E+00
         21   -1    0    0  502  501  0.00000000000E+00  0.00000000000E+00  0.38687356824E+02  0.38687356824E+02  0.00000000000E+00 0.  1.
         21   -1    0    0  503  502 -0.00000000000E+00 -0.00000000000E+00 -0.16648309070E+04  0.16648309070E+04  0.00000000000E+00 0.  1.
         25    1    1    2    0    0  0.12146302421E+03 -0.18955029176E+03 -0.59918976387E+03  0.65217785342E+03  0.12500000000E+03 0.  0.
         21    1    1    2  503  501 -0.12146302421E+03  0.18955029176E+03 -0.10269537863E+04  0.10513404105E+04  0.00000000000E+00 0.  1.
<mgrwt>
<rscale>  3 0.25750258E+03</rscale>
<asrwt>0</asrwt>
<pdfrwt beam="1">  1       21 0.59519019E-02 0.25750258E+03</pdfrwt>
<pdfrwt beam="2">  1       21 0.25612780E+00 0.25750258E+03</pdfrwt>
<totfact> 0.11592582E+04</totfact>
</mgrwt>
</event>
<event>
 4    0  0.1548488E-001  0.2851904E+03  0.7546771E-02  0.1092887E+00
         21   -1    0    0  502  501  0.00000000000E+00  0.00000000000E+00  0.96263873344E+02  0.96263873344E+02  0.00000000000E+00 0. -1.
         21   -1    0    0  503  502 -0.00000000000E+00 -0.00000000000E+00 -0.77939080976E+03  0.77939080976E+03  0.00000000000E+00 0. -1.
         25    1    1    2    0    0  0.38283752744E+02 -0.25346192102E+03 -0.29325864657E+03  0.40906506196E+03  0.12500000000E+03 0.  0.
         21    1    1    2  503  501 -0.38283752744E+02  0.25346192102E+03 -0.38986828985E+03  0.46658962114E+03  0.00000000000E+00 0. -1.
<mgrwt>
<rscale>  3 0.28519045E+03</rscale>
<asrwt>0</asrwt>
<pdfrwt beam="1">  1       21 0.14809826E-01 0.28519045E+03</pdfrwt>
<pdfrwt beam="2">  1       21 0.11990628E+00 0.28519045E+03</pdfrwt>
<totfact> 0.20212015E+04</totfact>
</mgrwt>
</event>
<event>
 4    0  0.1433634E-001  0.2981325E+03  0.7546771E-02  0.1086178E+00
         21   -1    0    0  502  501  0.00000000000E+00  0.00000000000E+00  0.10944344076E+04  0.10944344076E+04  0.00000000000E+00 0. -1.
         21   -1    0    0  503  502 -0.00000000000E+00 -0.00000000000E+00 -0.83341853560E+02  0.83341853560E+02  0.00000000000E+00 0. -1.
         25    1    1    2    0    0 -0.24092566022E+03 -0.12334029655E+03  0.72517352494E+03  0.78406609656E+03  0.12500000000E+03 0.  0.
         21    1    1    2  503  501  0.24092566022E+03  0.12334029655E+03  0.28591902909E+03  0.39371016459E+03  0.00000000000E+00 0. -1.
<mgrwt>
<rscale>  3 0.29813253E+03</rscale>
<asrwt>0</asrwt>
<pdfrwt beam="1">  1       21 0.16837451E+00 0.29813253E+03</pdfrwt>
<pdfrwt beam="2">  1       21 0.12821824E-01 0.29813253E+03</pdfrwt>
<totfact> 0.10676699E+04</totfact>
</mgrwt>
</event>
<event>
 4    0  0.1508626E-001  0.2633848E+03  0.7546771E-02  0.1105126E+00
         21   -1    0    0  502  501  0.00000000000E+00  0.00000000000E+00  0.10875980138E+03  0.10875980138E+03  0.00000000000E+00 0. -1.
         21   -1    0    0  503  502 -0.00000000000E+00 -0.00000000000E+00 -0.62575314396E+03  0.62575314396E+03  0.00000000000E+00 0. -1.
         25    1    1    2    0    0  0.37940072886E+02  0.22870746503E+03 -0.15791358315E+03  0.30709648880E+03  0.12500000000E+03 0.  0.
         21    1    1    2  503  501 -0.37940072886E+02 -0.22870746503E+03 -0.35907975943E+03  0.42741645654E+03  0.00000000000E+00 0. -1.
<mgrwt>
<rscale>  3 0.26338480E+03</rscale>
<asrwt>0</asrwt>
<pdfrwt beam="1">  1       21 0.16732277E-01 0.26338480E+03</pdfrwt>
<pdfrwt beam="2">  1       21 0.96269717E-01 0.26338480E+03</pdfrwt>
<totfact> 0.27817355E+04</totfact>
</mgrwt>
</event>
<event>
 4    0  0.1115722E-001  0.2419341E+03  0.7546771E-02  0.1118511E+00
         21   -1    0    0  503  501  0.00000000000E+00  0.00000000000E+00  0.34492043524E+02  0.34492043524E+02  0.00000000000E+00 0.  1.
         21   -1    0    0  501  502 -0.00000000000E+00 -0.00000000000E+00 -0.15875030547E+04  0.15875030547E+04  0.00000000000E+00 0.  1.
         25    1    1    2    0    0 -0.84742571748E+02 -0.18901274169E+03 -0.60423000426E+03  0.65086559137E+03  0.12500000000E+03 0.  0.
         21    1    1    2  503  502  0.84742571748E+02  0.18901274169E+03 -0.94878100687E+03  0.97112950680E+03  0.00000000000E+00 0.  1.
<mgrwt>
<rscale>  3 0.24193412E+03</rscale>
<asrwt>0</asrwt>
<pdfrwt beam="1">  1       21 0.53064683E-02 0.24193412E+03</pdfrwt>
<pdfrwt beam="2">  1       21 0.24423124E+00 0.24193412E+03</pdfrwt>
<totfact> 0.16806631E+04</totfact>
</mgrwt>
</event>
<event>
 4    0  0.1003929E-001  0.2888135E+03  0.7546771E-02  0.1090970E+00
         21   -1    0    0  502  501  0.00000000000E+00  0.00000000000E+00  0.30513580426E+03  0.30513580426E+03  0.00000000000E+00 0.  1.
         21   -1    0    0  503  502 -0.00000000000E+00 -0.00000000000E+00 -0.81953370337E+03  0.81953370337E+03  0.00000000000E+00 0.  1.
         25    1    1    2    0    0 -0.19818360446E+03  0.16885351379E+03  0.20856844049E+03  0.35624997483E+03  0.12500000000E+03 0.  0.
         21    1    1    2  503  501  0.19818360446E+03 -0.16885351379E+03 -0.72296633960E+03  0.76841953280E+03  0.00000000000E+00 0.  1.
<mgrwt>
<rscale>  3 0.28881352E+03</rscale>
<asrwt>0</asrwt>
<pdfrwt beam="1">  1       21 0.46943970E-01 0.28881352E+03</pdfrwt>
<pdfrwt beam="2">  1       21 0.12608211E+00 0.28881352E+03</pdfrwt>
<totfact> 0.18822706E+03</totfact>
</mgrwt>
</event>
<event>
 4    0  0.1202552E-001  0.2405594E+03  0.7546771E-02  0.1119421E+00
         21   -1    0    0  503  501  0.00000000000E+00  0.00000000000E+00  0.42734186035E+02  0.42734186035E+02  0.00000000000E+00 0. -1.
         21   -1    0    0  501  502 -0.00000000000E+00 -0.00000000000E+00 -0.14272584980E+04  0.14272584980E+04  0.00000000000E+00 0. -1.
         25    1    1    2    0    0 -0.15299935375E+03 -0.13724078152E+03 -0.42182682912E+03  0.48559932879E+03  0.12500000000E+03 0.  0.
         21    1    1    2  503  502  0.15299935375E+03  0.13724078152E+03 -0.96269748284E+03  0.98439335523E+03  0.00000000000E+00 0. -1.
<mgrwt>
<rscale>  3 0.24055942E+03</rscale>
<asrwt>0</asrwt>
<pdfrwt beam="1">  1       21 0.65744917E-02 0.24055942E+03</pdfrwt>
<pdfrwt beam="2">  1       21 0.21957818E+00 0.24055942E+03</pdfrwt>
<totfact> 0.16447545E+04</totfact>
</mgrwt>
</event>
<event>
 4    0  0.1175315E-001  0.4393340E+03  0.7546771E-02  0.1030951E+00
         21   -1    0    0  503  501  0.00000000000E+00  0.00000000000E+00  0.69379183427E+03  0.69379183427E+03  0.00000000000E+00 0.  1.
         21   -1    0    0  501  502 -0.00000000000E+00 -0.00000000000E+00 -0.32269511995E+03  0.32269511995E+03  0.00000000000E+00 0.  1.
         25    1    1    2    0    0  0.27572766045E+03  0.31837655254E+03  0.40022918328E+03  0.59430444310E+03  0.12500000000E+03 0.  0.
         21    1    1    2  503  502 -0.27572766045E+03 -0.31837655254E+03 -0.29132468962E+02  0.42218251111E+03  0.00000000000E+00 0.  1.
<mgrwt>
<rscale>  3 0.43933401E+03</rscale>
<asrwt>0</asrwt>
<pdfrwt beam="1">  1       21 0.10673720E+00 0.43933401E+03</pdfrwt>
<pdfrwt beam="2">  1       21 0.49645403E-01 0.43933401E+03</pdfrwt>
<totfact> 0.23580416E+03</totfact>
</mgrwt>
</event>
<event>
 4    0  0.1003929E-001  0.5775570E+03  0.7546771E-02  0.9953094E-01
         21   -1    0    0  502  501  0.00000000000E+00  0.00000000000E+00  0.55420848814E+03  0.55420848814E+03  0.00000000000E+00 0.  1.
         21   -1    0    0  503  502 -0.00000000000E+00 -0.00000000000E+00 -0.61396410608E+03  0.61396410608E+03  0.00000000000E+00 0. -1.
         25    1    1    2    0    0 -0.90524609162E+02  0.55655400672E+03  0.90558188971E+02  0.58461342172E+03  0.12500000000E+03 0.  0.
         21    1    1    2  503  501  0.90524609162E+02 -0.55655400672E+03 -0.15031380691E+03  0.58355917250E+03  0.00000000000E+00 0. -1.
<mgrwt>
<rscale>  3 0.57755698E+03</rscale>
<asrwt>0</asrwt>
<pdfrwt beam="1">  1       21 0.85262844E-01 0.57755698E+03</pdfrwt>
<pdfrwt beam="2">  1       21 0.94456016E-01 0.57755698E+03</pdfrwt>
<totfact> 0.90586202E+02</totfact>
</mgrwt>
</event>
<event>
 4    0  0.1003929E-001  0.2448495E+03  0.7546771E-02  0.1116604E+00
         21   -1    0    0  502  501  0.00000000000E+00  0.00000000000E+00  0.12746083519E+04  0.12746083519E+04  0.00000000000E+00 0. -1.
         21   -1    0    0  503  502 -0.00000000000E+00 -0.00000000000E+00 -0.41618427355E+02  0.41618427355E+02  0.00000000000E+00 0.  1.
         25    1    1    2    0    0  0.86801703751E+02 -0.19181167253E+03  0.76071334353E+03  0.79914707314E+03  0.12500000000E+03 0.  0.
         21    1    1    2  503  501 -0.86801703751E+02  0.19181167253E+03  0.47227658097E+03  0.51707970607E+03  0.00000000000E+00 0.  1.
<mgrwt>
<rscale>  3 0.24484945E+03</rscale>
<asrwt>0</asrwt>
<pdfrwt beam="1">  1       21 0.19609356E+00 0.24484945E+03</pdfrwt>
<pdfrwt beam="2">  1       21 0.64028360E-02 0.24484945E+03</pdfrwt>
<totfact> 0.24238459E+04</totfact>
</mgrwt>
</event>
<event>
 4    0  0.1003929E-001  0.3254016E+03  0.7546771E-02  0.1073190E+00
         21   -1    0    0  503  501  0.00000000000E+00  0.00000000000E+00  0.14740469048E+04  0.14740469048E+04  0.00000000000E+00 0.  1.
         21   -1    0    0  501  502 -0.00000000000E+00 -0.00000000000E+00 -0.11504711579E+03  0.11504711579E+03  0.00000000000E+00 0.  1.
         25    1    1    2    0    0 -0.54868119369E+02 -0.29538232699E+03  0.12114323416E+04  0.12543741658E+04  0.12500000000E+03 0.  0.
         21    1    1    2  503  502  0.54868119369E+02  0.29538232699E+03  0.14756744737E+03  0.33471985472E+03  0.00000000000E+00 0.  1.
<mgrwt>
<rscale>  3 0.32540164E+03</rscale>
<asrwt>0</asrwt>
<pdfrwt beam="1">  1       21 0.22677643E+00 0.32540164E+03</pdfrwt>
<pdfrwt beam="2">  1       21 0.17699557E-01 0.32540164E+03</pdfrwt>
<totfact> 0.23762268E+03</totfact>
</mgrwt>
</event>
<event>
 4    0  0.1568786E-001  0.2685038E+03  0.7546771E-02  0.1102139E+00
         21   -1    0    0  502  501  0.00000000000E+00  0.00000000000E+00  0.20100989473E+03  0.20100989473E+03  0.00000000000E+00 0. -1.
         21   -1    0    0  503  502 -0.00000000000E+00 -0.00000000000E+00 -0.42370875719E+03  0.42370875719E+03  0.00000000000E+00 0. -1.
         25    1    1    2    0    0  0.22985792813E+03 -0.60287935541E+02  0.38894391369E+02  0.27130624021E+03  0.12500000000E+03 0.  0.
         21    1    1    2  503  501 -0.22985792813E+03  0.60287935541E+02 -0.26159325383E+03  0.35341241171E+03  0.00000000000E+00 0. -1.
<mgrwt>
<rscale>  3 0.26850382E+03</rscale>
<asrwt>0</asrwt>
<pdfrwt beam="1">  1       21 0.30924599E-01 0.26850382E+03</pdfrwt>
<pdfrwt beam="2">  1       21 0.65185962E-01 0.26850382E+03</pdfrwt>
<totfact> 0.20908348E+04</totfact>
</mgrwt>
</event>
<event>
 4    0  0.1165092E-001  0.2384490E+03  0.7546771E-02  0.1120830E+00
         21   -1    0    0  502  501  0.00000000000E+00  0.00000000000E+00  0.70650123105E+03  0.70650123105E+03  0.00000000000E+00 0.  1.
         21   -1    0    0  503  502 -0.00000000000E+00 -0.00000000000E+00 -0.11067476775E+03  0.11067476775E+03  0.00000000000E+00 0.  1.
         25    1    1    2    0    0  0.19158342283E+03  0.67295639790E+02  0.56308799485E+03  0.61149489040E+03  0.12500000000E+03 0.  0.
         21    1    1    2  503  501 -0.19158342283E+03 -0.67295639790E+02  0.32738468449E+02  0.20568110840E+03  0.00000000000E+00 0.  1.
<mgrwt>
<rscale>  3 0.23844897E+03</rscale>
<asrwt>0</asrwt>
<pdfrwt beam="1">  1       21 0.10869249E+00 0.23844897E+03</pdfrwt>
<pdfrwt beam="2">  1       21 0.17026888E-01 0.23844897E+03</pdfrwt>
<totfact> 0.20360366E+04</totfact>
</mgrwt>
</event>
<event>
 4    0  0.1159312E-001  0.3536117E+03  0.7546771E-02  0.1061142E+00
         21   -1    0    0  503  501  0.00000000000E+00  0.00000000000E+00  0.59200030706E+03  0.59200030706E+03  0.00000000000E+00 0. -1.
         21   -1    0    0  501  502 -0.00000000000E+00 -0.00000000000E+00 -0.41517418426E+03  0.41517418426E+03  0.00000000000E+00 0. -1.
         25    1    1    2    0    0 -0.30362737144E+03 -0.13125037183E+03  0.45410806934E+03  0.57554789499E+03  0.12500000000E+03 0.  0.
         21    1    1    2  503  502  0.30362737144E+03  0.13125037183E+03 -0.27728194653E+03  0.43162659633E+03  0.00000000000E+00 0. -1.
<mgrwt>
<rscale>  3 0.35361171E+03</rscale>
<asrwt>0</asrwt>
<pdfrwt beam="1">  1       21 0.91076971E-01 0.35361171E+03</pdfrwt>
<pdfrwt beam="2">  1       21 0.63872951E-01 0.35361171E+03</pdfrwt>
<totfact> 0.20806222E+03</totfact>
</mgrwt>
</event>
<event>
 4    0  0.1287201E-001  0.2487077E+03  0.7546771E-02  0.1114124E+00
         21   -1    0    0  502  501  0.00000000000E+00  0.00000000000E+00  0.21337808761E+03  0.21337808761E+03  0.00000000000E+00 0. -1.
         21   -1    0    0  503  502 -0.00000000000E+00 -0.00000000000E+00 -0.51034842756E+03  0.51034842756E+03  0.00000000000E+00 0. -1.
         25    1    1    2    0    0 -0.19902326982E+03 -0.81365002654E+02  0.10334347448E+03  0.26932396719E+03  0.12500000000E+03 0.  0.
         21    1    1    2  503  501  0.19902326982E+03  0.81365002654E+02 -0.40031381443E+03  0.45440254798E+03  0.00000000000E+00 0. -1.
<mgrwt>
<rscale>  3 0.24870771E+03</rscale>
<asrwt>0</asrwt>
<pdfrwt beam="1">  1       21 0.32827399E-01 0.24870771E+03</pdfrwt>
<pdfrwt beam="2">  1       21 0.78515141E-01 0.24870771E+03</pdfrwt>
<totfact> 0.12387949E+04</totfact>
</mgrwt>
</event>
<event>
 4    0  0.1106060E-001  0.2418072E+03  0.7546771E-02  0.1118595E+00
         21   -1    0    0  503  501  0.00000000000E+00  0.00000000000E+00  0.11690521533E+04  0.11690521533E+04  0.00000000000E+00 0. -1.
         21   -1    0    0  501  502 -0.00000000000E+00 -0.00000000000E+00 -0.10639544864E+03  0.10639544864E+03  0.00000000000E+00 0. -1.
         25    1    1    2    0    0  0.25465238658E+02  0.20541966595E+03  0.10393960340E+04  0.10671526756E+04  0.12500000000E+03 0.  0.
         21    1    1    2  503  502 -0.25465238658E+02 -0.20541966595E+03  0.23260670653E+02  0.20829492633E+03  0.00000000000E+00 0. -1.
<mgrwt>
<rscale>  3 0.24180719E+03</rscale>
<asrwt>0</asrwt>
<pdfrwt beam="1">  1       21 0.17985417E+00 0.24180719E+03</pdfrwt>
<pdfrwt beam="2">  1       21 0.16368531E-01 0.24180719E+03</pdfrwt>
<totfact> 0.58654464E+03</totfact>
</mgrwt>
</event>
<event>
 4    0  0.1310936E-001  0.2479319E+03  0.7546771E-02  0.1114619E+00
         21   -1    0    0  502  501  0.00000000000E+00  0.00000000000E+00  0.44324725815E+03  0.44324725815E+03  0.00000000000E+00 0.  1.
         21   -1    0    0  503  502 -0.00000000000E+00 -0.00000000000E+00 -0.12042103809E+03  0.12042103809E+03  0.00000000000E+00 0.  1.
         25    1    1    2    0    0 -0.19990841023E+03  0.76693325911E+02  0.17579290090E+03  0.30392989772E+03  0.12500000000E+03 0.  0.
         21    1    1    2  503  501  0.19990841023E+03 -0.76693325911E+02  0.14703331916E+03  0.25973839852E+03  0.00000000000E+00 0.  1.
<mgrwt>
<rscale>  3 0.24793192E+03</rscale>
<asrwt>0</asrwt>
<pdfrwt beam="1">  1       21 0.68191885E-01 0.24793192E+03</pdfrwt>
<pdfrwt beam="2">  1       21 0.18526314E-01 0.24793192E+03</pdfrwt>
<totfact> 0.50957680E+04</totfact>
</mgrwt>
</event>
<event>
 4    0  0.1003929E-001  0.2776968E+03  0.7546771E-02  0.1096954E+00
         21   -1    0    0  503  501  0.00000000000E+00  0.00000000000E+00  0.12173634374E+04  0.12173634374E+04  0.00000000000E+00 0. -1.
         21   -1    0    0  501  502 -0.00000000000E+00 -0.00000000000E+00 -0.34754994695E+03  0.34754994695E+03  0.00000000000E+00 0. -1.
         25    1    1    2    0    0 -0.21797078688E+03  0.11823376951E+03  0.11544679033E+04  0.11873969968E+04  0.12500000000E+03 0.  0.
         21    1    1    2  503  502  0.21797078688E+03 -0.11823376951E+03 -0.28465441281E+03  0.37751638762E+03  0.00000000000E+00 0. -1.
<mgrwt>
<rscale>  3 0.27769676E+03</rscale>
<asrwt>0</asrwt>
<pdfrwt beam="1">  1       21 0.18728668E+00 0.27769676E+03</pdfrwt>
<pdfrwt beam="2">  1       21 0.53469223E-01 0.27769676E+03</pdfrwt>
<totfact> 0.49432939E+02</totfact>
</mgrwt>
</event>
<event>
 4    0  0.1311010E-001  0.2812306E+03  0.7546771E-02  0.1095019E+00
         21   -1    0    0  503  501  0.00000000000E+00  0.00000000000E+00  0.14246269696E+03  0.14246269696E+03  0.00000000000E+00 0.  1.
         21   -1    0    0  501  502 -0.00000000000E+00 -0.00000000000E+00 -0.55184667292E+03  0.55184667292E+03  0.00000000000E+00 0.  1.
         25    1    1    2    0    0  0.12842845677E+03 -0.21672969141E+03 -0.10739861429E+03  0.30104001395E+03  0.12500000000E+03 0.  0.
         21    1    1    2  503  502 -0.12842845677E+03  0.21672969141E+03 -0.30198536168E+03  0.39326935593E+03  0.00000000000E+00 0.  1.
<mgrwt>
<rscale>  3 0.28123056E+03</rscale>
<asrwt>0</asrwt>
<pdfrwt beam="1">  1       21 0.21917338E-01 0.28123056E+03</pdfrwt>
<pdfrwt beam="2">  1       21 0.84899488E-01 0.28123056E+03</pdfrwt>
<totfact> 0.22326430E+04</totfact>
</mgrwt>
</event>
<event>
 4    0  0.1480588E-001  0.2682498E+03  0.7546771E-02  0.1102286E+00
         21   -1    0    0  502  501  0.00000000000E+00  0.00000000000E+00  0.24512972919E+03  0.24512972919E+03  0.00000000000E+00 0. -1.
         21   -1    0    0  503  502 -0.00000000000E+00 -0.00000000000E+00 -0.26080322573E+03  0.26080322573E+03  0.00000000000E+00 0. -1.
         25    1    1    2    0    0 -0.19580876335E+03 -0.13413375256E+03 -0.13203216350E+02  0.26857449675E+03  0.12500000000E+03 0.  0.
         21    1    1    2  503  501  0.19580876335E+03  0.13413375256E+03 -0.24702801853E+01  0.23735845817E+03  0.00000000000E+00 0. -1.
<mgrwt>
<rscale>  3 0.26824976E+03</rscale>
<asrwt>0</asrwt>
<pdfrwt beam="1">  1       21 0.37712266E-01 0.26824976E+03</pdfrwt>
<pdfrwt beam="2">  1       21 0.40123573E-01 0.26824976E+03</pdfrwt>
<totfact> 0.39226449E+04</totfact>
</mgrwt>
</event>
<event>
 4    0  0.1244478E-001  0.2461404E+03  0.7546771E-02  0.1115769E+00
         21   -1    0    0  502  501  0.00000000000E+00  0.00000000000E+00  0.65755816595E+02  0.65755816595E+02  0.00000000000E+00 0.  1.
         21   -1    0    0  503  502 -0.00000000000E+00 -0.00000000000E+00 -0.18934371292E+04  0.18934371292E+04  0.00000000000E+00 0. -1.
         25    1    1    2    0    0 -0.20840212287E+03  0.39097920737E+02 -0.19832569890E+03  0.31609836296E+03  0.12500000000E+03 0.  0.
         21    1    1    2  503  501  0.20840212287E+03 -0.39097920737E+02 -0.16293556137E+04  0.16430945828E+04  0.00000000000E+00 0. -1.
<mgrwt>
<rscale>  3 0.24614039E+03</rscale>
<asrwt>0</asrwt>
<pdfrwt beam="1">  1       21 0.10116279E-01 0.24614039E+03</pdfrwt>
<pdfrwt beam="2">  1       21 0.29129802E+00 0.24614039E+03</pdfrwt>
<totfact> 0.28760454E+03</totfact>
</mgrwt>
</event>
<event>
 4    0  0.1723462E-001  0.2547449E+03  0.7546771E-02  0.1110342E+00
         21   -1    0    0  502  501  0.00000000000E+00  0.00000000000E+00  0.20168792077E+03  0.20168792077E+03  0.00000000000E+00 0. -1.
         21   -1    0    0  503  502 -0.00000000000E+00 -0.00000000000E+00 -0.10882298632E+04  0.10882298632E+04  0.00000000000E+00 0.  1.
         25    1    1    2    0    0  0.11081253399E+01 -0.22196560636E+03  0.10374434803E+03  0.27505971733E+03  0.12500000000E+03 0.  0.
         21    1    1    2  503  501 -0.11081253399E+01  0.22196560636E+03 -0.99028629047E+03  0.10148580667E+04  0.00000000000E+00 0.  1.
<mgrwt>
<rscale>  3 0.25474489E+03</rscale>
<asrwt>0</asrwt>
<pdfrwt beam="1">  1       21 0.31028910E-01 0.25474489E+03</pdfrwt>
<pdfrwt beam="2">  1       21 0.16741998E+00 0.25474489E+03</pdfrwt>
<totfact> 0.21043601E+03</totfact>
</mgrwt>
</event>
<event>
 4    0  0.1609609E-001  0.2424378E+03  0.7546771E-02  0.1118179E+00
         21   -1    0    0  502  501  0.00000000000E+00  0.00000000000E+00  0.37911057396E+03  0.37911057396E+03  0.00000000000E+00 0. -1.
         21   -1    0    0  503  502 -0.00000000000E+00 -0.00000000000E+00 -0.32081529337E+03  0.32081529337E+03  0.00000000000E+00 0.  1.
         25    1    1    2    0    0  0.20510334752E+03 -0.32919357749E+02  0.29706847597E+03  0.38343936508E+03  0.12500000000E+03 0.  0.
         21    1    1    2  503  501 -0.20510334752E+03  0.32919357749E+02 -0.23877319538E+03  0.31648650226E+03  0.00000000000E+00 0.  1.
<mgrwt>
<rscale>  3 0.24243776E+03</rscale>
<asrwt>0</asrwt>
<pdfrwt beam="1">  1       21 0.58324704E-01 0.24243776E+03</pdfrwt>
<pdfrwt beam="2">  1       21 0.49356199E-01 0.24243776E+03</pdfrwt>
<totfact> 0.10446163E+04</totfact>
</mgrwt>
</event>
<event>
 4    0  0.1046285E-001  0.4324277E+03  0.7546771E-02  0.1033096E+00
         21   -1    0    0  503  501  0.00000000000E+00  0.00000000000E+00  0.22519868458E+03  0.22519868458E+03  0.00000000000E+00 0. -1.
         21   -1    0    0  501  502 -0.00000000000E+00 -0.00000000000E+00 -0.13362887322E+04  0.13362887322E+04  0.00000000000E+00 0. -1.
         25    1    1    2    0    0  0.55224939909E+02  0.41026687942E+03 -0.66050787260E+02  0.43744303953E+03  0.12500000000E+03 0.  0.
         21    1    1    2  503  502 -0.55224939909E+02 -0.41026687942E+03 -0.10450392604E+04  0.11240443772E+04  0.00000000000E+00 0. -1.
<mgrwt>
<rscale>  3 0.43242769E+03</rscale>
<asrwt>0</asrwt>
<pdfrwt beam="1">  1       21 0.34645952E-01 0.43242769E+03</pdfrwt>
<pdfrwt beam="2">  1       21 0.20558288E+00 0.43242769E+03</pdfrwt>
<totfact> 0.83154655E+02</totfact>
</mgrwt>
</event>
<event>
 4    0  0.1211100E-001  0.2730883E+03  0.7546771E-02  0.1099525E+00
         21   -1    0    0  503  501  0.00000000000E+00  0.00000000000E+00  0.67828495501E+03  0.67828495501E+03  0.00000000000E+00 0. -1.
         21   -1    0    0  501  502 -0.00000000000E+00 -0.00000000000E+00 -0.21277397930E+03  0.21277397930E+03  0.00000000000E+00 0. -1.
         25    1    1    2    0    0 -0.42823230838E+02 -0.23899448674E+03  0.56588128866E+03  0.62833018919E+03  0.12500000000E+03 0.  0.
         21    1    1    2  503  502  0.42823230838E+02  0.23899448674E+03 -0.10037031295E+03  0.26272874512E+03  0.00000000000E+00 0. -1.
<mgrwt>
<rscale>  3 0.27308825E+03</rscale>
<asrwt>0</asrwt>
<pdfrwt beam="1">  1       21 0.10435153E+00 0.27308825E+03</pdfrwt>
<pdfrwt beam="2">  1       21 0.32734459E-01 0.27308825E+03</pdfrwt>
<totfact> 0.63177081E+03</totfact>
</mgrwt>
</event>
<event>
 4    0  0.1885422E-001  0.2622016E+03  0.7546771E-02  0.1105828E+00
         21   -1    0    0  503  501  0.00000000000E+00  0.00000000000E+00  0.31533045135E+03  0.31533045135E+03  0.00000000000E+00 0. -1.
         21   -1    0    0  501  502 -0.00000000000E+00 -0.00000000000E+00 -0.53202159681E+03  0.53202159681E+03  0.00000000000E+00 0.  1.
         25    1    1    2    0    0  0.23019195728E+03 -0.11677338711E+02  0.22735876365E+03  0.34704712193E+03  0.12500000000E+03 0.  0.
         21    1    1    2  503  502 -0.23019195728E+03  0.11677338711E+02 -0.44404990911E+03  0.50030492623E+03  0.00000000000E+00 0.  1.
<mgrwt>
<rscale>  3 0.26220164E+03</rscale>
<asrwt>0</asrwt>
<pdfrwt beam="1">  1       21 0.48512378E-01 0.26220164E+03</pdfrwt>
<pdfrwt beam="2">  1       21 0.81849475E-01 0.26220164E+03</pdfrwt>
<totfact> 0.50523750E+03</totfact>
</mgrwt>
</event>
<event>
 4    0  0.1003929E-001  0.2841052E+03  0.7546771E-02  0.1093468E+00
         21   -1    0    0  502  501  0.00000000000E+00  0.00000000000E+00  0.18099911637E+03  0.18099911637E+03  0.00000000000E+00 0. -1.
         21   -1    0    0  503  502 -0.00000000000E+00 -0.00000000000E+00 -0.14830951358E+04  0.14830951358E+04  0.00000000000E+00 0. -1.
         25    1    1    2    0    0  0.25429204617E+03  0.20647021420E+02  0.49711856174E+02  0.28842158879E+03  0.12500000000E+03 0.  0.
         21    1    1    2  503  501 -0.25429204617E+03 -0.20647021420E+02 -0.13518078756E+04  0.13756726633E+04  0.00000000000E+00 0. -1.
<mgrwt>
<rscale>  3 0.28410516E+03</rscale>
<asrwt>0</asrwt>
<pdfrwt beam="1">  1       21 0.27846018E-01 0.28410516E+03</pdfrwt>
<pdfrwt beam="2">  1       21 0.22816848E+00 0.28410516E+03</pdfrwt>
<totfact> 0.10104427E+03</totfact>
</mgrwt>
</event>
<event>
 4    0  0.1003929E-001  0.2574363E+03  0.7546771E-02  0.1108693E+00
         21   -1    0    0  503  501  0.00000000000E+00  0.00000000000E+00  0.14316425430E+03  0.14316425430E+03  0.00000000000E+00 0. -1.
         21   -1    0    0  501  502 -0.00000000000E+00 -0.00000000000E+00 -0.18553906709E+04  0.18553906709E+04  0.00000000000E+00 0. -1.
         25    1    1    2    0    0 -0.73995379458E+02  0.21253970192E+03  0.13907589272E+02  0.25781167955E+03  0.12500000000E+03 0.  0.
         21    1    1    2  503  502  0.73995379458E+02 -0.21253970192E+03 -0.17261340058E+04  0.17407432456E+04  0.00000000000E+00 0. -1.
<mgrwt>
<rscale>  3 0.25743629E+03</rscale>
<asrwt>0</asrwt>
<pdfrwt beam="1">  1       21 0.22025271E-01 0.25743629E+03</pdfrwt>
<pdfrwt beam="2">  1       21 0.28544470E+00 0.25743629E+03</pdfrwt>
<totfact> 0.73913379E+02</totfact>
</mgrwt>
</event>
<event>
 4    0  0.1104136E-001  0.2862567E+03  0.7546771E-02  0.1092320E+00
         21   -1    0    0  502  501  0.00000000000E+00  0.00000000000E+00  0.71392215318E+02  0.71392215318E+02  0.00000000000E+00 0. -1.
         21   -1    0    0  503  502 -0.00000000000E+00 -0.00000000000E+00 -0.20582599539E+04  0.20582599539E+04  0.00000000000E+00 0.  1.
         25    1    1    2    0    0  0.16246187313E+03  0.19981003575E+03 -0.26974457239E+03  0.39332562202E+03  0.12500000000E+03 0.  0.
         21    1    1    2  503  501 -0.16246187313E+03 -0.19981003575E+03 -0.17171231662E+04  0.17363265472E+04  0.00000000000E+00 0.  1.
<mgrwt>
<rscale>  3 0.28625672E+03</rscale>
<asrwt>0</asrwt>
<pdfrwt beam="1">  1       21 0.10983420E-01 0.28625672E+03</pdfrwt>
<pdfrwt beam="2">  1       21 0.31665531E+00 0.28625672E+03</pdfrwt>
<totfact> 0.16998524E+03</totfact>
</mgrwt>
</event>
<event>
 4    0  0.1154528E-001  0.3062823E+03  0.7546771E-02  0.1082142E+00
         21   -1    0    0  502  501  0.00000000000E+00  0.00000000000E+00  0.37170194224E+03  0.37170194224E+03  0.00000000000E+00 0. -1.
         21   -1    0    0  503  502 -0.00000000000E+00 -0.00000000000E+00 -0.28532974462E+03  0.28532974462E+03  0.00000000000E+00 0. -1.
         25    1    1    2    0    0  0.15103691077E+03 -0.23531195945E+03 -0.98612405259E+02  0.32176586697E+03  0.12500000000E+03 0.  0.
         21    1    1    2  503  501 -0.15103691077E+03  0.23531195945E+03  0.18498460288E+03  0.33526581988E+03  0.00000000000E+00 0. -1.
<mgrwt>
<rscale>  3 0.30628233E+03</rscale>
<asrwt>0</asrwt>
<pdfrwt beam="1">  1       21 0.57184914E-01 0.30628233E+03</pdfrwt>
<pdfrwt beam="2">  1       21 0.43896884E-01 0.30628233E+03</pdfrwt>
<totfact> 0.13487848E+04</totfact>
</mgrwt>
</event>
<event>
 4    0  0.1274738E-001  0.3148890E+03  0.7546771E-02  0.1078026E+00
         21   -1    0    0  502  501  0.00000000000E+00  0.00000000000E+00  0.22359902512E+03  0.22359902512E+03  0.00000000000E+00 0.  1.
         21   -1    0    0  503  502 -0.00000000000E+00 -0.00000000000E+00 -0.58721427866E+03  0.58721427866E+03  0.00000000000E+00 0.  1.
         25    1    1    2    0    0 -0.12377809837E+03 -0.26116867851E+03  0.36753493917E+02  0.31702667961E+03  0.12500000000E+03 0.  0.
         21    1    1    2  503  501  0.12377809837E+03  0.26116867851E+03 -0.40036874746E+03  0.49378662417E+03  0.00000000000E+00 0.  1.
<mgrwt>
<rscale>  3 0.31488902E+03</rscale>
<asrwt>0</asrwt>
<pdfrwt beam="1">  1       21 0.34399851E-01 0.31488902E+03</pdfrwt>
<pdfrwt beam="2">  1       21 0.90340656E-01 0.31488902E+03</pdfrwt>
<totfact> 0.79034135E+03</totfact>
</mgrwt>
</event>
<event>
 4    0  0.1003929E-001  0.2365535E+03  0.7546771E-02  0.1122110E+00
         21   -1    0    0  502  501  0.00000000000E+00  0.00000000000E+00  0.43307981309E+03  0.43307981309E+03  0.00000000000E+00 0. -1.
         21   -1    0    0  503  502 -0.00000000000E+00 -0.00000000000E+00 -0.15399721281E+03  0.15399721281E+03  0.00000000000E+00 0. -1.
         25    1    1    2    0    0 -0.10798145194E+03  0.16932970228E+03 -0.80384909659E+01  0.23669000691E+03  0.12500000000E+03 0.  0.
         21    1    1    2  503  501  0.10798145194E+03 -0.16932970228E+03  0.28712109125E+03  0.35038701899E+03  0.00000000000E+00 0. -1.
<mgrwt>
<rscale>  3 0.23655347E+03</rscale>
<asrwt>0</asrwt>
<pdfrwt beam="1">  1       21 0.66627663E-01 0.23655347E+03</pdfrwt>
<pdfrwt beam="2">  1       21 0.23691879E-01 0.23655347E+03</pdfrwt>
<totfact> 0.33887533E+04</totfact>
</mgrwt>
</event>
<event>
 4    0  0.1447232E-001  0.2533417E+03  0.7546771E-02  0.1111211E+00
         21   -1    0    0  502  501  0.00000000000E+00  0.00000000000E+00  0.41523509423E+03  0.41523509423E+03  0.00000000000E+00 0.  1.
         21   -1    0    0  503  502 -0.00000000000E+00 -0.00000000000E+00 -0.13634118972E+03  0.13634118972E+03  0.00000000000E+00 0.  1.
         25    1    1    2    0    0  0.21809679699E+03 -0.31476750625E+02  0.17533846465E+03  0.30809994462E+03  0.12500000000E+03 0.  0.
         21    1    1    2  503  501 -0.21809679699E+03  0.31476750625E+02  0.10355543986E+03  0.24347633933E+03  0.00000000000E+00 0.  1.
<mgrwt>
<rscale>  3 0.25334166E+03</rscale>
<asrwt>0</asrwt>
<pdfrwt beam="1">  1       21 0.63882322E-01 0.25334166E+03</pdfrwt>
<pdfrwt beam="2">  1       21 0.20975568E-01 0.25334166E+03</pdfrwt>
<totfact> 0.46489283E+04</totfact>
</mgrwt>
</event>
<event>
 4    0  0.1003929E-001  0.2362947E+03  0.7546771E-02  0.1122286E+00
         21   -1    0    0  502  501  0.00000000000E+00  0.00000000000E+00  0.19527790190E+04  0.19527790190E+04  0.00000000000E+00 0. -1.
         21   -1    0    0  503  502 -0.00000000000E+00 -0.00000000000E+00 -0.61773573019E+02  0.61773573019E+02  0.00000000000E+00 0. -1.
         25    1    1    2    0    0 -0.93887716999E+02 -0.17718719010E+03  0.17582685324E+04  0.17740753749E+04  0.12500000000E+03 0.  0.
         21    1    1    2  503  501  0.93887716999E+02  0.17718719010E+03  0.13273691361E+03  0.24047721716E+03  0.00000000000E+00 0. -1.
<mgrwt>
<rscale>  3 0.23629474E+03</rscale>
<asrwt>0</asrwt>
<pdfrwt beam="1">  1       21 0.30042749E+00 0.23629474E+03</pdfrwt>
<pdfrwt beam="2">  1       21 0.95036281E-02 0.23629474E+03</pdfrwt>
<totfact> 0.28694136E+03</totfact>
</mgrwt>
</event>
<event>
 4    0  0.1160753E-001  0.3009182E+03  0.7546771E-02  0.1084783E+00
         21   -1    0    0  502  501  0.00000000000E+00  0.00000000000E+00  0.49794989559E+02  0.49794989559E+02  0.00000000000E+00 0. -1.
         21   -1    0    0  503  502 -0.00000000000E+00 -0.00000000000E+00 -0.16579129013E+04  0.16579129013E+04  0.00000000000E+00 0. -1.
         25    1    1    2    0    0 -0.27014780345E+03  0.44123785380E+02 -0.83866217513E+03  0.89101402242E+03  0.12500000000E+03 0.  0.
         21    1    1    2  503  501  0.27014780345E+03 -0.44123785380E+02 -0.76945573657E+03  0.81669386841E+03  0.00000000000E+00 0. -1.
<mgrwt>
<rscale>  3 0.30091817E+03</rscale>
<asrwt>0</asrwt>
<pdfrwt beam="1">  1       21 0.76607675E-02 0.30091817E+03</pdfrwt>
<pdfrwt beam="2">  1       21 0.25506353E+00 0.30091817E+03</pdfrwt>
<totfact> 0.73661859E+03</totfact>
</mgrwt>
</event>
<event>
 4    0  0.1003929E-001  0.2375862E+03  0.7546771E-02  0.1121411E+00
         21   -1    0    0  503  501  0.00000000000E+00  0.00000000000E+00  0.10912246189E+03  0.10912246189E+03  0.00000000000E+00 0.  1.
         21   -1    0    0  501  502 -0.00000000000E+00 -0.00000000000E+00 -0.49129996604E+03  0.49129996604E+03  0.00000000000E+00 0.  1.
         25    1    1    2    0    0  0.18509143460E+03  0.81014481878E+02 -0.29906277652E+03  0.38194990475E+03  0.12500000000E+03 0.  0.
         21    1    1    2  503  502 -0.18509143460E+03 -0.81014481878E+02 -0.83114727621E+02  0.21847252318E+03  0.00000000000E+00 0.  1.
<mgrwt>
<rscale>  3 0.23758616E+03</rscale>
<asrwt>0</asrwt>
<pdfrwt beam="1">  1       21 0.16788071E-01 0.23758616E+03</pdfrwt>
<pdfrwt beam="2">  1       21 0.75584609E-01 0.23758616E+03</pdfrwt>
<totfact> 0.48847012E+04</totfact>
</mgrwt>
</event>
<event>
 4    0  0.1456488E-001  0.2559131E+03  0.7546771E-02  0.1109624E+00
         21   -1    0    0  503  501  0.00000000000E+00  0.00000000000E+00  0.26805131797E+03  0.26805131797E+03  0.00000000000E+00 0. -1.
         21   -1    0    0  501  502 -0.00000000000E+00 -0.00000000000E+00 -0.34081875092E+03  0.34081875092E+03  0.00000000000E+00 0. -1.
         25    1    1    2    0    0  0.70298974571E+02 -0.21195415949E+03  0.14735857554E+03  0.29530672416E+03  0.12500000000E+03 0.  0.
         21    1    1    2  503  502 -0.70298974571E+02  0.21195415949E+03 -0.22012600849E+03  0.31356334474E+03  0.00000000000E+00 0. -1.
<mgrwt>
<rscale>  3 0.25591309E+03</rscale>
<asrwt>0</asrwt>
<pdfrwt beam="1">  1       21 0.41238665E-01 0.25591309E+03</pdfrwt>
<pdfrwt beam="2">  1       21 0.52433654E-01 0.25591309E+03</pdfrwt>
<totfact> 0.18873722E+04</totfact>
</mgrwt>
</event>
<event>
 4    0  0.1003929E-001  0.2623863E+03  0.7546771E-02  0.1105718E+00
         21   -1    0    0  502  501  0.00000000000E+00  0.00000000000E+00  0.15032591362E+03  0.15032591362E+03  0.00000000000E+00 0. -1.
         21   -1    0    0  503  502 -0.00000000000E+00 -0.00000000000E+00 -0.45609510182E+03  0.45609510182E+03  0.00000000000E+00 0.  1.
         25    1    1    2    0    0 -0.38466815597E+02  0.22746835389E+03 -0.59644234824E+02  0.26907988158E+03  0.12500000000E+03 0.  0.
         21    1    1    2  503  501  0.38466815597E+02 -0.22746835389E+03 -0.24612495337E+03  0.33734113386E+03  0.00000000000E+00 0.  1.
<mgrwt>
<rscale>  3 0.26238626E+03</rscale>
<asrwt>0</asrwt>
<pdfrwt beam="1">  1       21 0.23127063E-01 0.26238626E+03</pdfrwt>
<pdfrwt beam="2">  1       21 0.70168478E-01 0.26238626E+03</pdfrwt>
<totfact> 0.31289724E+04</totfact>
</mgrwt>
</event>
<event>
 4    0  0.1076106E-001  0.2489568E+03  0.7546771E-02  0.1113966E+00
         21   -1    0    0  503  501  0.00000000000E+00  0.00000000000E+00  0.64220465376E+02  0.64220465376E+02  0.00000000000E+00 0.  1.
         21   -1    0    0  501  502 -0.00000000000E+00 -0.00000000000E+00 -0.89577686694E+03  0.89577686694E+03  0.00000000000E+00 0.  1.
         25    1    1    2    0    0  0.16314335528E+03 -0.14049465827E+03 -0.56450987127E+03  0.61696912252E+03  0.12500000000E+03 0.  0.
         21    1    1    2  503  502 -0.16314335528E+03  0.14049465827E+03 -0.26704653029E+03  0.34302820979E+03  0.00000000000E+00 0.  1.
<mgrwt>
<rscale>  3 0.24895683E+03</rscale>
<asrwt>0</asrwt>
<pdfrwt beam="1">  1       21 0.98800717E-02 0.24895683E+03</pdfrwt>
<pdfrwt beam="2">  1       21 0.13781182E+00 0.24895683E+03</pdfrwt>
<totfact> 0.29938598E+04</totfact>
</mgrwt>
</event>
