<event>
 5    0  0.1856407E+000  0.2623401E+03  0.7546771E-02  0.1105745E+00
         21   -1    0    0  502  501  0.00000000000E+00  0.00000000000E+00  0.42751677292E+02  0.42751677292E+02  0.00000000000E+00 0.  1.
         21   -1    0    0  503  502 -0.00000000000E+00 -0.00000000000E+00 -0.18140837385E+04  0.18140837385E+04  0.00000000000E+00 0.  1.
         25    1    1    2    0    0  0.89487747007E+02  0.21257766972E+03 -0.52984545570E+03  0.59123474987E+03  0.12500000000E+03 0.  0.
         21    1    1    2  503  504 -0.25424999162E+02 -0.75477530726E+02 -0.24319757299E+03  0.25590691225E+03  0.00000000000E+00 0.  1.
         21    1    1    2  504  501 -0.64062747845E+02 -0.13710013899E+03 -0.99828903255E+03  0.10096937537E+04  0.00000000000E+00 0.  1.
<mgrwt>
<rscale>  4 0.26234009E+03</rscale>
<asrwt>0</asrwt>
<pdfrwt beam="1">  1       21 0.65771808E-02 0.26234009E+03</pdfrwt>
<pdfrwt beam="2">  1       21 0.27908982E+00 0.26234009E+03</pdfrwt>
<totfact> 0.71154030E+03</totfact>
</mgrwt>
</event>
<event>
 5    0  0.6547833E+000  0.2798830E+03  0.7546771E-02  0.1095753E+00
         21   -1    0    0  502  501  0.00000000000E+00  0.00000000000E+00  0.93603291713E+02  0.93603291713E+02  0.00000000000E+00 0. -1.
         21   -1    0    0  503  502 -0.00000000000E+00 -0.00000000000E+00 -0.12374072065E+04  0.12374072065E+04  0.00000000000E+00 0.  1.
         25    1    1    2    0    0 -0.74431494638E+02 -0.23910135470E+03 -0.17876287934E+03  0.33210039483E+03  0.12500000000E+03 0.  0.
         21    1    1    2  503  504 -0.10757286011E+02  0.18119749729E+02 -0.80314711727E+02  0.83033110579E+02  0.00000000000E+00 0. -1.
         21    1    1    2  504  501  0.85188780649E+02  0.22098160497E+03 -0.88472632370E+03  0.91587699279E+03  0.00000000000E+00 0.  1.
<mgrwt>
<rscale>  4 0.27988302E+03</rscale>
<asrwt>0</asrwt>
<pdfrwt beam="1">  1       21 0.14400507E-01 0.27988302E+03</pdfrwt>
<pdfrwt beam="2">  1       21 0.19037033E+00 0.27988302E+03</pdfrwt>
<totfact> 0.61406156E+03</totfact>
</mgrwt>
</event>
<event>
 5    0  0.1856407E+000  0.2611209E+03  0.7546771E-02  0.1106472E+00
         21   -1    0    0  502  501  0.00000000000E+00  0.00000000000E+00  0.14940036140E+04  0.14940036140E+04  0.00000000000E+00 0.  1.
         21   -1    0    0  503  502 -0.00000000000E+00 -0.00000000000E+00 -0.92175041202E+02  0.92175041202E+02  0.00000000000E+00 0.  1.
         25    1    1    2    0    0 -0.23716436568E+03 -0.79281417834E+02  0.11666318147E+04  0.11996613150E+04  0.12500000000E+03 0.  0.
         21    1    1    2  503  504  0.10966760005E+03 -0.52062963965E+02  0.11715067517E+03  0.16870629926E+03  0.00000000000E+00 0.  1.
         21    1    1    2  504  501  0.12749676563E+03  0.13134438180E+03  0.11804608294E+03  0.21781104098E+03  0.00000000000E+00 0.  1.
<mgrwt>
<rscale>  4 0.26112092E+03</rscale>
<asrwt>0</asrwt>
<pdfrwt beam="1">  1       21 0.22984669E+00 0.26112092E+03</pdfrwt>
<pdfrwt beam="2">  1       21 0.14180777E-01 0.26112092E+03</pdfrwt>
<totfact> 0.35811527E+03</totfact>
</mgrwt>
</event>
<event>
 5    0  0.1856407E+000  0.2448721E+03  0.7546771E-02  0.1116589E+00
         21   -1    0    0  502  501  0.00000000000E+00  0.00000000000E+00  0.28427995679E+04  0.28427995679E+04  0.00000000000E+00 0. -1.
         21   -1    0    0  503  502 -0.00000000000E+00 -0.00000000000E+00 -0.68270302352E+02  0.68270302352E+02  0.00000000000E+00 0. -1.
         25    1    1    2    0    0 -0.40337703560E+02 -0.21277172574E+03  0.25621440016E+04  0.25743165739E+04  0.12500000000E+03 0.  0.
         21    1    1    2  503  504  0.11873117515E+02  0.15576828614E+03  0.52771837798E+02  0.16489268253E+03  0.00000000000E+00 0. -1.
         21    1    1    2  504  501  0.28464586045E+02  0.57003439599E+02  0.15961342618E+03  0.17186061388E+03  0.00000000000E+00 0. -1.
<mgrwt>
<rscale>  4 0.24487210E+03</rscale>
<asrwt>0</asrwt>
<pdfrwt beam="1">  1       21 0.43735369E+00 0.24487210E+03</pdfrwt>
<pdfrwt beam="2">  1       21 0.10503126E-01 0.24487210E+03</pdfrwt>
<totfact> 0.34640669E+02</totfact>
</mgrwt>
</event>
<event>
 5    0  0.1856407E+000  0.2382823E+03  0.7546771E-02  0.1120942E+00
         21   -1    0    0  502  501  0.00000000000E+00  0.00000000000E+00  0.18404571104E+03  0.18404571104E+03  0.00000000000E+00 0. -1.
         21   -1    0    0  503  502 -0.00000000000E+00 -0.00000000000E+00 -0.47562407525E+03  0.47562407525E+03  0.00000000000E+00 0. -1.
         25    1    1    2    0    0  0.90526744999E+02  0.18154434895E+03  0.63770975584E+02  0.24666815669E+03  0.12500000000E+03 0.  0.
         21    1    1    2  503  504 -0.27528985595E+02 -0.86805143648E+02 -0.20618670040E+03  0.22540171569E+03  0.00000000000E+00 0. -1.
         21    1    1    2  504  501 -0.62997759404E+02 -0.94739205303E+02 -0.14916263939E+03  0.18759991392E+03  0.00000000000E+00 0. -1.
<mgrwt>
<rscale>  4 0.23828227E+03</rscale>
<asrwt>0</asrwt>
<pdfrwt beam="1">  1       21 0.28314726E-01 0.23828227E+03</pdfrwt>
<pdfrwt beam="2">  1       21 0.73172933E-01 0.23828227E+03</pdfrwt>
<totfact> 0.19515114E+04</totfact>
</mgrwt>
</event>
<event>
 5    0  0.1856407E+000  0.5888638E+03  0.7546771E-02  0.9928783E-01
         21   -1    0    0  502  501  0.00000000000E+00  0.00000000000E+00  0.11273919952E+04  0.11273919952E+04  0.00000000000E+00 0.  1.
         21   -1    0    0  503  502 -0.00000000000E+00 -0.00000000000E+00 -0.37061522180E+03  0.37061522180E+03  0.00000000000E+00 0.  1.
         25    1    1    2    0    0  0.57530116360E+03 -0.12813157848E+02  0.69242622971E+02  0.59292086039E+03  0.12500000000E+03 0.  0.
         21    1    1    2  503  504 -0.18621386865E+03 -0.30292735516E+02  0.29894703199E+03  0.35350047049E+03  0.00000000000E+00 0. -1.
         21    1    1    2  504  501 -0.38908729495E+03  0.43105893364E+02  0.38858711840E+03  0.55158588607E+03  0.00000000000E+00 0.  1.
<mgrwt>
<rscale>  4 0.58886383E+03</rscale>
<asrwt>0</asrwt>
<pdfrwt beam="1">  1       21 0.17344492E+00 0.58886383E+03</pdfrwt>
<pdfrwt beam="2">  1       21 0.57017727E-01 0.58886383E+03</pdfrwt>
<totfact> 0.45630818E+02</totfact>
</mgrwt>
</event>
<event>
 5    0  0.1856407E+000  0.2396633E+03  0.7546771E-02  0.1120017E+00
         21   -1    0    0  502  501  0.00000000000E+00  0.00000000000E+00  0.18243997676E+03  0.18243997676E+03  0.00000000000E+00 0.  1.
         21   -1    0    0  503  502 -0.00000000000E+00 -0.00000000000E+00 -0.25636274096E+04  0.25636274096E+04  0.00000000000E+00 0.  1.
         25    1    1    2    0    0 -0.46827339263E+02 -0.20176174790E+03  0.93481870863E+02  0.25935393345E+03  0.12500000000E+03 0.  0.
         21    1    1    2  503  504  0.61695819077E+02  0.12739963571E+03 -0.20808640421E+04  0.20856730815E+04  0.00000000000E+00 0.  1.
         21    1    1    2  504  501 -0.14868479814E+02  0.74362112184E+02 -0.39380526163E+03  0.40104037142E+03  0.00000000000E+00 0.  1.
<mgrwt>
<rscale>  4 0.23966329E+03</rscale>
<asrwt>0</asrwt>
<pdfrwt beam="1">  1       21 0.28067689E-01 0.23966329E+03</pdfrwt>
<pdfrwt beam="2">  1       21 0.39440421E+00 0.23966329E+03</pdfrwt>
<totfact> 0.10602933E+02</totfact>
</mgrwt>
</event>
<event>
 5    0  0.1856407E+000  0.2242922E+03  0.7546771E-02  0.1130723E+00
         21   -1    0    0  502  501  0.00000000000E+00  0.00000000000E+00  0.21445448051E+04  0.21445448051E+04  0.00000000000E+00 0.  1.
         21   -1    0    0  503  502 -0.00000000000E+00 -0.00000000000E+00 -0.35277613444E+02  0.35277613444E+02  0.00000000000E+00 0.  1.
         25    1    1    2    0    0  0.15667098120E+03 -0.14841981667E+03  0.68095023740E+03  0.72518443458E+03  0.12500000000E+03 0.  0.
         21    1    1    2  503  504 -0.14427889344E+03  0.10560044278E+03  0.13680105980E+04  0.13796451895E+04  0.00000000000E+00 0.  1.
         21    1    1    2  504  501 -0.12392087761E+02  0.42819373887E+02  0.60306356190E+02  0.74992794428E+02  0.00000000000E+00 0.  1.
<mgrwt>
<rscale>  4 0.22429218E+03</rscale>
<asrwt>0</asrwt>
<pdfrwt beam="1">  1       21 0.32992987E+00 0.22429218E+03</pdfrwt>
<pdfrwt beam="2">  1       21 0.54273268E-02 0.22429218E+03</pdfrwt>
<totfact> 0.51727191E+03</totfact>
</mgrwt>
</event>
<event>
 5    0  0.5696141E+000  0.2412749E+03  0.7546771E-02  0.1118946E+00
         21   -1    0    0  502  501  0.00000000000E+00  0.00000000000E+00  0.44228818311E+02  0.44228818311E+02  0.00000000000E+00 0. -1.
         21   -1    0    0  503  502 -0.00000000000E+00 -0.00000000000E+00 -0.18087523459E+04  0.18087523459E+04  0.00000000000E+00 0. -1.
         25    1    1    2    0    0  0.20607728206E+03 -0.15220152507E+02 -0.38419728370E+03  0.45379736891E+03  0.12500000000E+03 0.  0.
         21    1    1    2  503  504 -0.20635541128E+03 -0.71057979983E+01 -0.12305701768E+04  0.12477724184E+04  0.00000000000E+00 0. -1.
         21    1    1    2  504  501  0.27812922553E+00  0.22325950506E+02 -0.14975606710E+03  0.15141137690E+03  0.00000000000E+00 0.  1.
<mgrwt>
<rscale>  4 0.24127488E+03</rscale>
<asrwt>0</asrwt>
<pdfrwt beam="1">  1       21 0.68044338E-02 0.24127488E+03</pdfrwt>
<pdfrwt beam="2">  1       21 0.27826958E+00 0.24127488E+03</pdfrwt>
<totfact> 0.69011110E+03</totfact>
</mgrwt>
</event>
