<event>
 5    0  0.2352773E+000  0.2542798E+03  0.7546771E-02  0.1110630E+00
         21   -1    0    0  502  501  0.00000000000E+00  0.00000000000E+00  0.22418683622E+03  0.22418683622E+03  0.00000000000E+00 0. -1.
         21   -1    0    0  503  502 -0.00000000000E+00 -0.00000000000E+00 -0.25893612802E+03  0.25893612802E+03  0.00000000000E+00 0. -1.
         25    1    1    2    0    0  0.13646106736E+03 -0.17438916950E+03  0.49929598030E+01  0.25432879309E+03  0.12500000000E+03 0.  0.
         21    1    1    2  503  504 -0.11876003336E+03  0.13820221100E+03 -0.46226971101E+02  0.18799130168E+03  0.00000000000E+00 0. -1.
         21    1    1    2  504  501 -0.17701034007E+02  0.36186958500E+02  0.64847194984E+01  0.40802869475E+02  0.00000000000E+00 0. -1.
<mgrwt>
<rscale>  4 0.25427978E+03</rscale>
<asrwt>0</asrwt>
<pdfrwt beam="1">  1       21 0.34490282E-01 0.25427978E+03</pdfrwt>
<pdfrwt beam="2">  1       21 0.39836328E-01 0.25427978E+03</pdfrwt>
<totfact> 0.47877478E+04</totfact>
</mgrwt>
</event>
<event>
 5    0  0.2951432E+000  0.2649934E+03  0.7546771E-02  0.1104180E+00
         21   -1    0    0  502  501  0.00000000000E+00  0.00000000000E+00  0.84194864301E+03  0.84194864301E+03  0.00000000000E+00 0.  1.
         21   -1    0    0  503  502 -0.00000000000E+00 -0.00000000000E+00 -0.16023506390E+03  0.16023506390E+03  0.00000000000E+00 0.  1.
         25    1    1    2    0    0  0.73529319826E+02 -0.22178803199E+03  0.71528584454E+03  0.76279442277E+03  0.12500000000E+03 0.  0.
         21    1    1    2  503  504 -0.64328504828E+01  0.20975076064E+02 -0.15563558262E+02  0.26899065542E+02  0.00000000000E+00 0.  1.
         21    1    1    2  504  501 -0.67096469343E+02  0.20081295592E+03 -0.18008707172E+02  0.21249021860E+03  0.00000000000E+00 0.  1.
<mgrwt>
<rscale>  4 0.26499338E+03</rscale>
<asrwt>0</asrwt>
<pdfrwt beam="1">  1       21 0.12953056E+00 0.26499338E+03</pdfrwt>
<pdfrwt beam="2">  1       21 0.24651549E-01 0.26499338E+03</pdfrwt>
<totfact> 0.64582722E+03</totfact>
</mgrwt>
</event>
<event>
 5    0  0.1856407E+000  0.2914767E+03  0.7546771E-02  0.1089581E+00
         21   -1    0    0  502  501  0.00000000000E+00  0.00000000000E+00  0.73521699188E+03  0.73521699188E+03  0.00000000000E+00 0.  1.
         21   -1    0    0  503  502 -0.00000000000E+00 -0.00000000000E+00 -0.29589728556E+03  0.29589728556E+03  0.00000000000E+00 0.  1.
         25    1    1    2    0    0 -0.95263307983E+02 -0.24594830036E+03  0.61806228525E+03  0.68351419352E+03  0.12500000000E+03 0.  0.
         21    1    1    2  503  504  0.26360692473E+02 -0.59317725206E+01  0.60573298111E+01  0.27690490739E+02  0.00000000000E+00 0.  1.
         21    1    1    2  504  501  0.68902615510E+02  0.25188007288E+03 -0.18479990874E+03  0.31990959318E+03  0.00000000000E+00 0.  1.
<mgrwt>
<rscale>  4 0.29147674E+03</rscale>
<asrwt>0</asrwt>
<pdfrwt beam="1">  1       21 0.11311031E+00 0.29147674E+03</pdfrwt>
<pdfrwt beam="2">  1       21 0.45522659E-01 0.29147674E+03</pdfrwt>
<totfact> 0.26288947E+03</totfact>
</mgrwt>
</event>
<event>
 5    0  0.3480019E+000  0.3758473E+03  0.7546771E-02  0.1052479E+00
         21   -1    0    0  502  501  0.00000000000E+00  0.00000000000E+00  0.24552451309E+03  0.24552451309E+03  0.00000000000E+00 0. -1.
         21   -1    0    0  503  502 -0.00000000000E+00 -0.00000000000E+00 -0.58600247201E+03  0.58600247201E+03  0.00000000000E+00 0. -1.
         25    1    1    2    0    0 -0.21837648967E+03  0.27919154500E+03 -0.80809890908E+02  0.38443653379E+03  0.12500000000E+03 0.  0.
         21    1    1    2  503  504  0.17933202406E+03 -0.26529164420E+03 -0.24475472826E+03  0.40304405261E+03  0.00000000000E+00 0. -1.
         21    1    1    2  504  501  0.39044465607E+02 -0.13899900806E+02 -0.14913339746E+02  0.44046398710E+02  0.00000000000E+00 0. -1.
<mgrwt>
<rscale>  4 0.37584732E+03</rscale>
<asrwt>0</asrwt>
<pdfrwt beam="1">  1       21 0.37773002E-01 0.37584732E+03</pdfrwt>
<pdfrwt beam="2">  1       21 0.90154227E-01 0.37584732E+03</pdfrwt>
<totfact> 0.64094186E+03</totfact>
</mgrwt>
</event>
<event>
 5    0  0.1856407E+000  0.2987486E+03  0.7546771E-02  0.1085868E+00
         21   -1    0    0  502  501  0.00000000000E+00  0.00000000000E+00  0.29761894363E+03  0.29761894363E+03  0.00000000000E+00 0. -1.
         21   -1    0    0  503  502 -0.00000000000E+00 -0.00000000000E+00 -0.50527548026E+03  0.50527548026E+03  0.00000000000E+00 0. -1.
         25    1    1    2    0    0  0.26579906908E+03 -0.54558112048E+02 -0.37689038712E+03  0.48093356778E+03  0.12500000000E+03 0.  0.
         21    1    1    2  503  504 -0.35593972515E+02 -0.53170625579E+01  0.20349618638E+02  0.41343790493E+02  0.00000000000E+00 0. -1.
         21    1    1    2  504  501 -0.23020509656E+03  0.59875174606E+02  0.14888423186E+03  0.28061706561E+03  0.00000000000E+00 0. -1.
<mgrwt>
<rscale>  4 0.29874861E+03</rscale>
<asrwt>0</asrwt>
<pdfrwt beam="1">  1       21 0.45787530E-01 0.29874861E+03</pdfrwt>
<pdfrwt beam="2">  1       21 0.77734689E-01 0.29874861E+03</pdfrwt>
<totfact> 0.62870099E+03</totfact>
</mgrwt>
</event>
<event>
 5    0  0.1856407E+000  0.2559433E+03  0.7546771E-02  0.1109605E+00
         21   -1    0    0  502  501  0.00000000000E+00  0.00000000000E+00  0.15126936586E+04  0.15126936586E+04  0.00000000000E+00 0. -1.
         21   -1    0    0  503  502 -0.00000000000E+00 -0.00000000000E+00 -0.24722115447E+03  0.24722115447E+03  0.00000000000E+00 0.  1.
         25    1    1    2    0    0  0.76916112186E+02  0.21527104126E+03  0.13785786235E+04  0.14029831541E+04  0.12500000000E+03 0.  0.
         21    1    1    2  503  504 -0.47049305899E+02 -0.12337927276E+03 -0.19142712451E+03  0.23255198587E+03  0.00000000000E+00 0.  1.
         21    1    1    2  504  501 -0.29866806287E+02 -0.91891768500E+02  0.78321005163E+02  0.12437967312E+03  0.00000000000E+00 0. -1.
<mgrwt>
<rscale>  4 0.25594327E+03</rscale>
<asrwt>0</asrwt>
<pdfrwt beam="1">  1       21 0.23272210E+00 0.25594327E+03</pdfrwt>
<pdfrwt beam="2">  1       21 0.38034025E-01 0.25594327E+03</pdfrwt>
<totfact> 0.52324618E+02</totfact>
</mgrwt>
</event>
<event>
 5    0  0.1856407E+000  0.2762254E+03  0.7546771E-02  0.1097769E+00
         21   -1    0    0  502  501  0.00000000000E+00  0.00000000000E+00  0.10107134987E+04  0.10107134987E+04  0.00000000000E+00 0. -1.
         21   -1    0    0  503  502 -0.00000000000E+00 -0.00000000000E+00 -0.81917011041E+02  0.81917011041E+02  0.00000000000E+00 0. -1.
         25    1    1    2    0    0 -0.23893918511E+03 -0.59862572498E+02  0.26534851595E+03  0.38302780145E+03  0.12500000000E+03 0.  0.
         21    1    1    2  503  504  0.95769222833E+02  0.38514468774E+02  0.21753712658E+03  0.24078519429E+03  0.00000000000E+00 0. -1.
         21    1    1    2  504  501  0.14316996228E+03  0.21348103724E+02  0.44591084512E+03  0.46881751400E+03  0.00000000000E+00 0. -1.
<mgrwt>
<rscale>  4 0.27622538E+03</rscale>
<asrwt>0</asrwt>
<pdfrwt beam="1">  1       21 0.15549438E+00 0.27622538E+03</pdfrwt>
<pdfrwt beam="2">  1       21 0.12602618E-01 0.27622538E+03</pdfrwt>
<totfact> 0.13866951E+04</totfact>
</mgrwt>
</event>
<event>
 5    0  0.1856407E+000  0.3790142E+03  0.7546771E-02  0.1051299E+00
         21   -1    0    0  502  501  0.00000000000E+00  0.00000000000E+00  0.20856123213E+03  0.20856123213E+03  0.00000000000E+00 0.  1.
         21   -1    0    0  503  502 -0.00000000000E+00 -0.00000000000E+00 -0.19371123043E+04  0.19371123043E+04  0.00000000000E+00 0.  1.
         25    1    1    2    0    0 -0.26114429237E+03  0.24959628330E+03 -0.10124477172E+02  0.38239005101E+03  0.12500000000E+03 0.  0.
         21    1    1    2  503  504  0.20545726125E+03 -0.26594997806E+03 -0.14155852103E+04  0.14549307765E+04  0.00000000000E+00 0.  1.
         21    1    1    2  504  501  0.55687031114E+02  0.16353694764E+02 -0.30284138470E+03  0.30835270885E+03  0.00000000000E+00 0.  1.
<mgrwt>
<rscale>  4 0.37901420E+03</rscale>
<asrwt>0</asrwt>
<pdfrwt beam="1">  1       21 0.32086345E-01 0.37901420E+03</pdfrwt>
<pdfrwt beam="2">  1       21 0.29801727E+00 0.37901420E+03</pdfrwt>
<totfact> 0.27024758E+02</totfact>
</mgrwt>
</event>
<event>
 5    0  0.1856407E+000  0.4082674E+03  0.7546771E-02  0.1040954E+00
         21   -1    0    0  502  501  0.00000000000E+00  0.00000000000E+00  0.10346497413E+04  0.10346497413E+04  0.00000000000E+00 0. -1.
         21   -1    0    0  503  502 -0.00000000000E+00 -0.00000000000E+00 -0.41609695807E+03  0.41609695807E+03  0.00000000000E+00 0.  1.
         25    1    1    2    0    0 -0.19743733358E+03 -0.36618826233E+03  0.84275754692E+03  0.94812479508E+03  0.12500000000E+03 0.  0.
         21    1    1    2  503  504  0.16040992066E+02  0.26056518136E+02  0.28401974184E+02  0.41748385615E+02  0.00000000000E+00 0.  1.
         21    1    1    2  504  501  0.18139634151E+03  0.34013174419E+03 -0.25260673792E+03  0.46087351862E+03  0.00000000000E+00 0.  1.
<mgrwt>
<rscale>  4 0.40826737E+03</rscale>
<asrwt>0</asrwt>
<pdfrwt beam="1">  1       21 0.15917688E+00 0.40826737E+03</pdfrwt>
<pdfrwt beam="2">  1       21 0.64014917E-01 0.40826737E+03</pdfrwt>
<totfact> 0.48757632E+02</totfact>
</mgrwt>
</event>
<event>
 5    0  0.1856407E+000  0.3011248E+03  0.7546771E-02  0.1084680E+00
         21   -1    0    0  502  501  0.00000000000E+00  0.00000000000E+00  0.87281620436E+03  0.87281620436E+03  0.00000000000E+00 0. -1.
         21   -1    0    0  503  502 -0.00000000000E+00 -0.00000000000E+00 -0.18076446194E+03  0.18076446194E+03  0.00000000000E+00 0.  1.
         25    1    1    2    0    0 -0.18025742120E+03 -0.20629695936E+03  0.71061984060E+03  0.77178800923E+03  0.12500000000E+03 0.  0.
         21    1    1    2  503  504  0.50910916999E+01  0.26430824186E+02 -0.14755600514E+02  0.30695853602E+02  0.00000000000E+00 0.  1.
         21    1    1    2  504  501  0.17516632950E+03  0.17986613517E+03 -0.38124976639E+01  0.25109680347E+03  0.00000000000E+00 0.  1.
<mgrwt>
<rscale>  4 0.30112485E+03</rscale>
<asrwt>0</asrwt>
<pdfrwt beam="1">  1       21 0.13427941E+00 0.30112485E+03</pdfrwt>
<pdfrwt beam="2">  1       21 0.27809918E-01 0.30112485E+03</pdfrwt>
<totfact> 0.45692364E+03</totfact>
</mgrwt>
</event>
<event>
 5    0  0.4516475E+000  0.2525641E+03  0.7546771E-02  0.1111695E+00
         21   -1    0    0  502  501  0.00000000000E+00  0.00000000000E+00  0.28872595310E+03  0.28872595310E+03  0.00000000000E+00 0. -1.
         21   -1    0    0  503  502 -0.00000000000E+00 -0.00000000000E+00 -0.27249083175E+03  0.27249083175E+03  0.00000000000E+00 0. -1.
         25    1    1    2    0    0  0.18999624725E+03 -0.10984094357E+03  0.15790636378E+03  0.29786410757E+03  0.12500000000E+03 0.  0.
         21    1    1    2  503  504 -0.16067424976E+03  0.91875388967E+02 -0.13291372548E+03  0.22786697886E+03  0.00000000000E+00 0. -1.
         21    1    1    2  504  501 -0.29321997494E+02  0.17965554607E+02 -0.87575169523E+01  0.35485698422E+02  0.00000000000E+00 0.  1.
<mgrwt>
<rscale>  4 0.25256406E+03</rscale>
<asrwt>0</asrwt>
<pdfrwt beam="1">  1       21 0.44419377E-01 0.25256406E+03</pdfrwt>
<pdfrwt beam="2">  1       21 0.41921667E-01 0.25256406E+03</pdfrwt>
<totfact> 0.25847050E+04</totfact>
</mgrwt>
</event>
<event>
 5    0  0.1856407E+000  0.2505360E+03  0.7546771E-02  0.1112967E+00
         21   -1    0    0  502  501  0.00000000000E+00  0.00000000000E+00  0.12121453419E+04  0.12121453419E+04  0.00000000000E+00 0. -1.
         21   -1    0    0  503  502 -0.00000000000E+00 -0.00000000000E+00 -0.65573730812E+02  0.65573730812E+02  0.00000000000E+00 0. -1.
         25    1    1    2    0    0 -0.15933920363E+03  0.14749340332E+03  0.94958110539E+03  0.98207563942E+03  0.12500000000E+03 0.  0.
         21    1    1    2  503  504  0.11952958465E+03 -0.12054249352E+03  0.13326447357E+03  0.21581759489E+03  0.00000000000E+00 0. -1.
         21    1    1    2  504  501  0.39809618978E+02 -0.26950909803E+02  0.63726032086E+02  0.79825838347E+02  0.00000000000E+00 0. -1.
<mgrwt>
<rscale>  4 0.25053600E+03</rscale>
<asrwt>0</asrwt>
<pdfrwt beam="1">  1       21 0.18648388E+00 0.25053600E+03</pdfrwt>
<pdfrwt beam="2">  1       21 0.10088267E-01 0.25053600E+03</pdfrwt>
<totfact> 0.12618512E+04</totfact>
</mgrwt>
</event>
<event>
 5    0  0.1856407E+000  0.3395441E+03  0.7546771E-02  0.1066990E+00
         21   -1    0    0  502  501  0.00000000000E+00  0.00000000000E+00  0.15171602330E+03  0.15171602330E+03  0.00000000000E+00 0. -1.
         21   -1    0    0  503  502 -0.00000000000E+00 -0.00000000000E+00 -0.78670138877E+03  0.78670138877E+03  0.00000000000E+00 0. -1.
         25    1    1    2    0    0 -0.31564374405E+03 -0.58518944109E+01 -0.19855792843E+03  0.39333887269E+03  0.12500000000E+03 0.  0.
         21    1    1    2  503  504  0.97709245956E+02 -0.10853856184E+02 -0.79007764886E+02  0.12612347066E+03  0.00000000000E+00 0. -1.
         21    1    1    2  504  501  0.21793449809E+03  0.16705750595E+02 -0.35741967216E+03  0.41895506872E+03  0.00000000000E+00 0. -1.
<mgrwt>
<rscale>  4 0.33954413E+03</rscale>
<asrwt>0</asrwt>
<pdfrwt beam="1">  1       21 0.23340927E-01 0.33954413E+03</pdfrwt>
<pdfrwt beam="2">  1       21 0.12103098E+00 0.33954413E+03</pdfrwt>
<totfact> 0.82103910E+03</totfact>
</mgrwt>
</event>
<event>
 5    0  0.2859466E+000  0.2542855E+03  0.7546771E-02  0.1110626E+00
         21   -1    0    0  502  501  0.00000000000E+00  0.00000000000E+00  0.11124649658E+03  0.11124649658E+03  0.00000000000E+00 0. -1.
         21   -1    0    0  503  502 -0.00000000000E+00 -0.00000000000E+00 -0.62241027056E+03  0.62241027056E+03  0.00000000000E+00 0. -1.
         25    1    1    2    0    0 -0.23438767765E+03 -0.30170985457E+02 -0.22938537720E+03  0.35226484790E+03  0.12500000000E+03 0.  0.
         21    1    1    2  503  504  0.20594984773E+03  0.54778479753E+02 -0.26540425815E+03  0.34037544252E+03  0.00000000000E+00 0. -1.
         21    1    1    2  504  501  0.28437829915E+02 -0.24607494295E+02 -0.16374138629E+02  0.41016476709E+02  0.00000000000E+00 0. -1.
<mgrwt>
<rscale>  4 0.25428550E+03</rscale>
<asrwt>0</asrwt>
<pdfrwt beam="1">  1       21 0.17114845E-01 0.25428550E+03</pdfrwt>
<pdfrwt beam="2">  1       21 0.95755428E-01 0.25428550E+03</pdfrwt>
<totfact> 0.27128220E+04</totfact>
</mgrwt>
</event>
