<event>
 5    0  0.1531977E+001  0.2240432E+03  0.7546771E-02  0.1130904E+00
         21   -1    0    0  502  501  0.00000000000E+00  0.00000000000E+00  0.85648694743E+02  0.85648694743E+02  0.00000000000E+00 0.  1.
         21   -1    0    0  504  502 -0.00000000000E+00 -0.00000000000E+00 -0.62220283234E+03  0.62220283234E+03  0.00000000000E+00 0.  1.
         25    1    1    2    0    0 -0.18566706060E+03 -0.80708156344E+02 -0.32850874894E+03  0.40562182143E+03  0.12500000000E+03 0.  0.
         21    1    1    2  503  501  0.16001077844E+03  0.78120914575E+02 -0.13121382035E+03  0.22118633132E+03  0.00000000000E+00 0.  1.
         21    1    1    2  504  503  0.25656282159E+02  0.25872417690E+01 -0.76831568308E+02  0.81043374330E+02  0.00000000000E+00 0.  1.
<mgrwt>
<rscale>  4 0.22404320E+03</rscale>
<asrwt>0</asrwt>
<pdfrwt beam="1">  1       21 0.13176722E-01 0.22404320E+03</pdfrwt>
<pdfrwt beam="2">  1       21 0.95723513E-01 0.22404320E+03</pdfrwt>
<totfact> 0.44436534E+04</totfact>
</mgrwt>
</event>
<event>
 5    0  0.1531977E+001  0.2539232E+03  0.7546771E-02  0.1110850E+00
         21   -1    0    0  502  501  0.00000000000E+00  0.00000000000E+00  0.21238527485E+04  0.21238527485E+04  0.00000000000E+00 0. -1.
         21   -1    0    0  504  502 -0.00000000000E+00 -0.00000000000E+00 -0.59171375084E+02  0.59171375084E+02  0.00000000000E+00 0. -1.
         25    1    1    2    0    0  0.24482858764E+03 -0.37609750086E+02  0.12316857700E+04  0.12625491542E+04  0.12500000000E+03 0.  0.
         21    1    1    2  503  501 -0.17584783539E+03  0.10774306631E+03  0.78381968720E+03  0.81049634891E+03  0.00000000000E+00 0. -1.
         21    1    1    2  504  503 -0.68980752257E+02 -0.70133316220E+02  0.49175916119E+02  0.10997862043E+03  0.00000000000E+00 0. -1.
<mgrwt>
<rscale>  4 0.25392317E+03</rscale>
<asrwt>0</asrwt>
<pdfrwt beam="1">  1       21 0.32674652E+00 0.25392317E+03</pdfrwt>
<pdfrwt beam="2">  1       21 0.91032901E-02 0.25392317E+03</pdfrwt>
<totfact> 0.21344119E+03</totfact>
</mgrwt>
</event>
<event>
 5    0  0.1531977E+001  0.2363138E+03  0.7546771E-02  0.1122273E+00
         21   -1    0    0  502  501  0.00000000000E+00  0.00000000000E+00  0.31605432163E+02  0.31605432163E+02  0.00000000000E+00 0. -1.
         21   -1    0    0  504  502 -0.00000000000E+00 -0.00000000000E+00 -0.16580622132E+04  0.16580622132E+04  0.00000000000E+00 0. -1.
         25    1    1    2    0    0  0.19870177996E+03 -0.27144268948E+02 -0.78035307089E+03  0.81534969427E+03  0.12500000000E+03 0.  0.
         21    1    1    2  503  501 -0.62180117428E+02 -0.30568938343E+02 -0.33841809737E+03  0.34543832390E+03  0.00000000000E+00 0. -1.
         21    1    1    2  504  503 -0.13652166253E+03  0.57713207291E+02 -0.50768561279E+03  0.52887962720E+03  0.00000000000E+00 0. -1.
<mgrwt>
<rscale>  4 0.23631379E+03</rscale>
<asrwt>0</asrwt>
<pdfrwt beam="1">  1       21 0.48623711E-02 0.23631379E+03</pdfrwt>
<pdfrwt beam="2">  1       21 0.25508666E+00 0.23631379E+03</pdfrwt>
<totfact> 0.16877814E+04</totfact>
</mgrwt>
</event>
<event>
 5    0  0.1531977E+001  0.3265713E+03  0.7546771E-02  0.1072664E+00
         21   -1    0    0  502  501  0.00000000000E+00  0.00000000000E+00  0.24091956547E+03  0.24091956547E+03  0.00000000000E+00 0. -1.
         21   -1    0    0  504  502 -0.00000000000E+00 -0.00000000000E+00 -0.10454771640E+04  0.10454771640E+04  0.00000000000E+00 0. -1.
         25    1    1    2    0    0 -0.28147442825E+03  0.11795501814E+03 -0.59967669651E+02  0.33520495442E+03  0.12500000000E+03 0.  0.
         21    1    1    2  503  501  0.41574645962E+02  0.66651108832E+02  0.55215923991E+02  0.96018851054E+02  0.00000000000E+00 0. -1.
         21    1    1    2  504  503  0.23989978229E+03 -0.18460612697E+03 -0.79980585283E+03  0.85517292396E+03  0.00000000000E+00 0. -1.
<mgrwt>
<rscale>  4 0.32657132E+03</rscale>
<asrwt>0</asrwt>
<pdfrwt beam="1">  1       21 0.37064549E-01 0.32657132E+03</pdfrwt>
<pdfrwt beam="2">  1       21 0.16084264E+00 0.32657132E+03</pdfrwt>
<totfact> 0.15720516E+03</totfact>
</mgrwt>
</event>
<event>
 5    0  0.1531977E+001  0.3185137E+03  0.7546771E-02  0.1076335E+00
         21   -1    0    0  502  501  0.00000000000E+00  0.00000000000E+00  0.17241103724E+04  0.17241103724E+04  0.00000000000E+00 0. -1.
         21   -1    0    0  504  502 -0.00000000000E+00 -0.00000000000E+00 -0.76834910401E+02  0.76834910401E+02  0.00000000000E+00 0. -1.
         25    1    1    2    0    0  0.30486676188E+03  0.37790816637E+02  0.48092099315E+03  0.58419336694E+03  0.12500000000E+03 0.  0.
         21    1    1    2  503  501 -0.38333924634E+02  0.21293653970E+02  0.41548761379E+03  0.41779524493E+03  0.00000000000E+00 0. -1.
         21    1    1    2  504  503 -0.26653283725E+03 -0.59084470607E+02  0.75086685511E+03  0.79895667098E+03  0.00000000000E+00 0. -1.
<mgrwt>
<rscale>  4 0.31851373E+03</rscale>
<asrwt>0</asrwt>
<pdfrwt beam="1">  1       21 0.26524772E+00 0.31851373E+03</pdfrwt>
<pdfrwt beam="2">  1       21 0.11820757E-01 0.31851373E+03</pdfrwt>
<totfact> 0.29248520E+03</totfact>
</mgrwt>
</event>
<event>
 5    0  0.1531977E+001  0.3171545E+03  0.7546771E-02  0.1076966E+00
         21   -1    0    0  502  501  0.00000000000E+00  0.00000000000E+00  0.62741733822E+03  0.62741733822E+03  0.00000000000E+00 0.  1.
         21   -1    0    0  504  502 -0.00000000000E+00 -0.00000000000E+00 -0.18810193324E+04  0.18810193324E+04  0.00000000000E+00 0.  1.
         25    1    1    2    0    0 -0.26717222954E+03 -0.15612605943E+03  0.54703148958E+03  0.64080012271E+03  0.12500000000E+03 0.  0.
         21    1    1    2  503  501  0.20497744440E+02  0.14934683432E+01  0.17100225699E+02  0.26735850347E+02  0.00000000000E+00 0. -1.
         21    1    1    2  504  503  0.24667448510E+03  0.15463259108E+03 -0.18177337094E+04  0.18409006975E+04  0.00000000000E+00 0.  1.
<mgrwt>
<rscale>  4 0.31715452E+03</rscale>
<asrwt>0</asrwt>
<pdfrwt beam="1">  1       21 0.96525745E-01 0.31715452E+03</pdfrwt>
<pdfrwt beam="2">  1       21 0.28938759E+00 0.31715452E+03</pdfrwt>
<totfact> 0.29608419E+01</totfact>
</mgrwt>
</event>
<event>
 5    0  0.1531977E+001  0.2370470E+03  0.7546771E-02  0.1121776E+00
         21   -1    0    0  503  501  0.00000000000E+00  0.00000000000E+00  0.15917078368E+04  0.15917078368E+04  0.00000000000E+00 0.  1.
         21   -1    0    0  504  502 -0.00000000000E+00 -0.00000000000E+00 -0.18021139417E+03  0.18021139417E+03  0.00000000000E+00 0.  1.
         25    1    1    2    0    0  0.21705264481E+03 -0.15202069404E+03  0.13636328449E+04  0.13947550601E+04  0.12500000000E+03 0.  0.
         21    1    1    2  503  502 -0.17008871886E+03  0.10241351053E+03 -0.94030582749E+02  0.21968261177E+03  0.00000000000E+00 0.  1.
         21    1    1    2  504  501 -0.46963925948E+02  0.49607183517E+02  0.14189418044E+03  0.15748155905E+03  0.00000000000E+00 0.  1.
<mgrwt>
<rscale>  4 0.23704703E+03</rscale>
<asrwt>0</asrwt>
<pdfrwt beam="1">  1       21 0.24487812E+00 0.23704703E+03</pdfrwt>
<pdfrwt beam="2">  1       21 0.27724831E-01 0.23704703E+03</pdfrwt>
<totfact> 0.84164696E+02</totfact>
</mgrwt>
</event>
<event>
 5    0  0.1531977E+001  0.2349794E+03  0.7546771E-02  0.1123183E+00
         21   -1    0    0  504  501  0.00000000000E+00  0.00000000000E+00  0.90546683382E+02  0.90546683382E+02  0.00000000000E+00 0.  1.
         21   -1    0    0  503  502 -0.00000000000E+00 -0.00000000000E+00 -0.81506580716E+03  0.81506580716E+03  0.00000000000E+00 0.  1.
         25    1    1    2    0    0  0.36163762556E+02 -0.22074246967E+03 -0.19982290473E+03  0.32494499364E+03  0.12500000000E+03 0.  0.
         21    1    1    2  503  501 -0.16794029827E+02  0.19139759129E+03 -0.50511347289E+03  0.54042085256E+03  0.00000000000E+00 0.  1.
         21    1    1    2  504  502 -0.19369732729E+02  0.29344878378E+02 -0.19582746151E+02  0.40246644330E+02  0.00000000000E+00 0.  1.
<mgrwt>
<rscale>  4 0.23497941E+03</rscale>
<asrwt>0</asrwt>
<pdfrwt beam="1">  1       21 0.13930259E-01 0.23497941E+03</pdfrwt>
<pdfrwt beam="2">  1       21 0.12539474E+00 0.23497941E+03</pdfrwt>
<totfact> 0.20701391E+04</totfact>
</mgrwt>
</event>
<event>
 5    0  0.1531977E+001  0.2081580E+03  0.7546771E-02  0.1143033E+00
         21   -1    0    0  502  501  0.00000000000E+00  0.00000000000E+00  0.82372254673E+02  0.82372254673E+02  0.00000000000E+00 0. -1.
         21   -1    0    0  504  502 -0.00000000000E+00 -0.00000000000E+00 -0.14221134632E+04  0.14221134632E+04  0.00000000000E+00 0. -1.
         25    1    1    2    0    0 -0.19635692763E+03  0.74121941697E+02 -0.26867258823E+03  0.36312541213E+03  0.12500000000E+03 0.  0.
         21    1    1    2  503  501  0.92844327640E+02  0.52739364883E+02 -0.71582586585E+02  0.12855184357E+03  0.00000000000E+00 0. -1.
         21    1    1    2  504  503  0.10351259999E+03 -0.12686130658E+03 -0.99948603371E+03  0.10128084622E+04  0.00000000000E+00 0. -1.
<mgrwt>
<rscale>  4 0.20815802E+03</rscale>
<asrwt>0</asrwt>
<pdfrwt beam="1">  1       21 0.12672654E-01 0.20815802E+03</pdfrwt>
<pdfrwt beam="2">  1       21 0.21878669E+00 0.20815802E+03</pdfrwt>
<totfact> 0.53676243E+03</totfact>
</mgrwt>
</event>
<event>
 5    0  0.1531977E+001  0.4467264E+03  0.7546771E-02  0.1028703E+00
         21   -1    0    0  502  501  0.00000000000E+00  0.00000000000E+00  0.82532554454E+03  0.82532554454E+03  0.00000000000E+00 0. -1.
         21   -1    0    0  504  502 -0.00000000000E+00 -0.00000000000E+00 -0.58426117885E+03  0.58426117885E+03  0.00000000000E+00 0. -1.
         25    1    1    2    0    0 -0.70147347776E+02 -0.35312076422E+03  0.21197644581E+03  0.43608936939E+03  0.12500000000E+03 0.  0.
         21    1    1    2  503  501 -0.63270704752E+02 -0.79562190558E+02  0.38460850790E+03  0.39781531971E+03  0.00000000000E+00 0. -1.
         21    1    1    2  504  503  0.13341805253E+03  0.43268295477E+03 -0.35552058802E+03  0.57568203428E+03  0.00000000000E+00 0. -1.
<mgrwt>
<rscale>  4 0.44672638E+03</rscale>
<asrwt>0</asrwt>
<pdfrwt beam="1">  1       21 0.12697316E+00 0.44672638E+03</pdfrwt>
<pdfrwt beam="2">  1       21 0.89886334E-01 0.44672638E+03</pdfrwt>
<totfact> 0.40251465E+02</totfact>
</mgrwt>
</event>
<event>
 5    0  0.1531977E+001  0.1736808E+03  0.7546771E-02  0.1174063E+00
         21   -1    0    0  502  501  0.00000000000E+00  0.00000000000E+00  0.35327076117E+04  0.35327076117E+04  0.00000000000E+00 0. -1.
         21   -1    0    0  504  502 -0.00000000000E+00 -0.00000000000E+00 -0.73974308606E+03  0.73974308606E+03  0.00000000000E+00 0. -1.
         25    1    1    2    0    0 -0.20815239425E+03  0.17376389869E+01 -0.65347346259E+03  0.69712481302E+03  0.12500000000E+03 0.  0.
         21    1    1    2  503  501  0.11980285139E+03 -0.12453020397E+02  0.34786082988E+04  0.34806929623E+04  0.00000000000E+00 0. -1.
         21    1    1    2  504  503  0.88349542861E+02  0.10715381410E+02 -0.32170310626E+02  0.94632922433E+02  0.00000000000E+00 0. -1.
<mgrwt>
<rscale>  4 0.17368084E+03</rscale>
<asrwt>0</asrwt>
<pdfrwt beam="1">  1       21 0.54349347E+00 0.17368084E+03</pdfrwt>
<pdfrwt beam="2">  1       21 0.11380663E+00 0.17368084E+03</pdfrwt>
<totfact> 0.58104166E-01</totfact>
</mgrwt>
</event>
<event>
 5    0  0.1531977E+001  0.2498891E+03  0.7546771E-02  0.1113375E+00
         21   -1    0    0  502  501  0.00000000000E+00  0.00000000000E+00  0.22753538158E+03  0.22753538158E+03  0.00000000000E+00 0. -1.
         21   -1    0    0  504  502 -0.00000000000E+00 -0.00000000000E+00 -0.44922744013E+03  0.44922744013E+03  0.00000000000E+00 0. -1.
         25    1    1    2    0    0  0.20743467771E+03  0.16050022816E+02  0.74431105541E+02  0.25387346892E+03  0.12500000000E+03 0.  0.
         21    1    1    2  503  501 -0.23621248396E+03 -0.27664307160E+02 -0.16829990114E+03  0.29135289289E+03  0.00000000000E+00 0. -1.
         21    1    1    2  504  503  0.28777806249E+02  0.11614284344E+02 -0.12782326295E+03  0.13153645991E+03  0.00000000000E+00 0.  1.
<mgrwt>
<rscale>  4 0.24988905E+03</rscale>
<asrwt>0</asrwt>
<pdfrwt beam="1">  1       21 0.35005444E-01 0.24988905E+03</pdfrwt>
<pdfrwt beam="2">  1       21 0.69111913E-01 0.24988905E+03</pdfrwt>
<totfact> 0.14499862E+04</totfact>
</mgrwt>
</event>
<event>
 5    0  0.1531977E+001  0.2794930E+03  0.7546771E-02  0.1095966E+00
         21   -1    0    0  504  501  0.00000000000E+00  0.00000000000E+00  0.96347448587E+03  0.96347448587E+03  0.00000000000E+00 0. -1.
         21   -1    0    0  501  502 -0.00000000000E+00 -0.00000000000E+00 -0.11757706303E+03  0.11757706303E+03  0.00000000000E+00 0. -1.
         25    1    1    2    0    0 -0.16289588553E+03 -0.19384629046E+03  0.11957382170E+03  0.30665021227E+03  0.12500000000E+03 0.  0.
         21    1    1    2  503  502  0.17126135269E+03  0.16853981869E+03  0.67635089977E+03  0.71776504584E+03  0.00000000000E+00 0. -1.
         21    1    1    2  504  503 -0.83654671627E+01  0.25306471762E+02  0.49972701360E+02  0.56636290796E+02  0.00000000000E+00 0. -1.
<mgrwt>
<rscale>  4 0.27949295E+03</rscale>
<asrwt>0</asrwt>
<pdfrwt beam="1">  1       21 0.14822684E+00 0.27949295E+03</pdfrwt>
<pdfrwt beam="2">  1       21 0.18088780E-01 0.27949295E+03</pdfrwt>
<totfact> 0.81003769E+03</totfact>
</mgrwt>
</event>
<event>
 5    0  0.1531977E+001  0.2933629E+03  0.7546771E-02  0.1088606E+00
         21   -1    0    0  503  501  0.00000000000E+00  0.00000000000E+00  0.90026463169E+03  0.90026463169E+03  0.00000000000E+00 0. -1.
         21   -1    0    0  504  502 -0.00000000000E+00 -0.00000000000E+00 -0.20784872497E+03  0.20784872497E+03  0.00000000000E+00 0.  1.
         25    1    1    2    0    0  0.10315503638E+02 -0.24083163093E+03  0.70648837290E+03  0.75687324244E+03  0.12500000000E+03 0.  0.
         21    1    1    2  503  502  0.28554641037E+02  0.26768294307E+03 -0.69877721033E+02  0.27812303291E+03  0.00000000000E+00 0.  1.
         21    1    1    2  504  501 -0.38870144675E+02 -0.26851312144E+02  0.55805254849E+02  0.73117081312E+02  0.00000000000E+00 0. -1.
<mgrwt>
<rscale>  4 0.29336288E+03</rscale>
<asrwt>0</asrwt>
<pdfrwt beam="1">  1       21 0.13850225E+00 0.29336288E+03</pdfrwt>
<pdfrwt beam="2">  1       21 0.31976727E-01 0.29336288E+03</pdfrwt>
<totfact> 0.32173096E+03</totfact>
</mgrwt>
</event>
<event>
 5    0  0.1531977E+001  0.4458326E+03  0.7546771E-02  0.1028972E+00
         21   -1    0    0  503  501  0.00000000000E+00  0.00000000000E+00  0.57811662785E+03  0.57811662785E+03  0.00000000000E+00 0.  1.
         21   -1    0    0  504  502 -0.00000000000E+00 -0.00000000000E+00 -0.45945650432E+03  0.45945650432E+03  0.00000000000E+00 0.  1.
         25    1    1    2    0    0 -0.21982964489E+03 -0.40789569243E+03 -0.12372057851E+02  0.48008544707E+03  0.12500000000E+03 0.  0.
         21    1    1    2  503  502  0.42109678443E+02  0.38344706004E+02 -0.78506945421E+02  0.96989081738E+02  0.00000000000E+00 0.  1.
         21    1    1    2  504  501  0.17771996645E+03  0.36955098642E+03  0.20953912680E+03  0.46049860337E+03  0.00000000000E+00 0.  1.
<mgrwt>
<rscale>  4 0.44583260E+03</rscale>
<asrwt>0</asrwt>
<pdfrwt beam="1">  1       21 0.88941020E-01 0.44583260E+03</pdfrwt>
<pdfrwt beam="2">  1       21 0.70685616E-01 0.44583260E+03</pdfrwt>
<totfact> 0.16868211E+03</totfact>
</mgrwt>
</event>
<event>
 5    0  0.1531977E+001  0.3511995E+03  0.7546771E-02  0.1062124E+00
         21   -1    0    0  504  501  0.00000000000E+00  0.00000000000E+00  0.19288274764E+04  0.19288274764E+04  0.00000000000E+00 0.  1.
         21   -1    0    0  503  502 -0.00000000000E+00 -0.00000000000E+00 -0.19789158191E+03  0.19789158191E+03  0.00000000000E+00 0.  1.
         25    1    1    2    0    0 -0.45251143500E+02  0.31195470288E+03 -0.88246520685E+01  0.33921420536E+03  0.12500000000E+03 0.  0.
         21    1    1    2  503  501 -0.21254455846E+02  0.10667139002E+02  0.86077851236E+01  0.25290980853E+02  0.00000000000E+00 0.  1.
         21    1    1    2  504  502  0.66505599346E+02 -0.32262184188E+03  0.17311527615E+04  0.17622138721E+04  0.00000000000E+00 0.  1.
<mgrwt>
<rscale>  4 0.35119947E+03</rscale>
<asrwt>0</asrwt>
<pdfrwt beam="1">  1       21 0.29674268E+00 0.35119947E+03</pdfrwt>
<pdfrwt beam="2">  1       21 0.30444860E-01 0.35119947E+03</pdfrwt>
<totfact> 0.31166021E+02</totfact>
</mgrwt>
</event>
<event>
 5    0  0.1531977E+001  0.2262765E+03  0.7546771E-02  0.1129288E+00
         21   -1    0    0  504  501  0.00000000000E+00  0.00000000000E+00  0.15921882230E+04  0.15921882230E+04  0.00000000000E+00 0.  1.
         21   -1    0    0  503  502 -0.00000000000E+00 -0.00000000000E+00 -0.19068877091E+03  0.19068877091E+03  0.00000000000E+00 0.  1.
         25    1    1    2    0    0  0.17108002469E+03 -0.11739171782E+03 -0.90455398551E+02  0.25856598652E+03  0.12500000000E+03 0.  0.
         21    1    1    2  503  501 -0.19976534899E+02  0.55648509314E+01  0.17923286807E+00  0.20737927497E+02  0.00000000000E+00 0. -1.
         21    1    1    2  504  502 -0.15110348979E+03  0.11182686689E+03  0.14917756178E+04  0.15035730799E+04  0.00000000000E+00 0.  1.
<mgrwt>
<rscale>  4 0.22627650E+03</rscale>
<asrwt>0</asrwt>
<pdfrwt beam="1">  1       21 0.24495203E+00 0.22627650E+03</pdfrwt>
<pdfrwt beam="2">  1       21 0.29336735E-01 0.22627650E+03</pdfrwt>
<totfact> 0.76183513E+02</totfact>
</mgrwt>
</event>
<event>
 5    0  0.1531977E+001  0.2159190E+03  0.7546771E-02  0.1136963E+00
         21   -1    0    0  502  501  0.00000000000E+00  0.00000000000E+00  0.19922361503E+03  0.19922361503E+03  0.00000000000E+00 0. -1.
         21   -1    0    0  504  502 -0.00000000000E+00 -0.00000000000E+00 -0.37399708751E+03  0.37399708751E+03  0.00000000000E+00 0. -1.
         25    1    1    2    0    0  0.50216527670E+02  0.22782192421E+03 -0.12854369242E+03  0.29423291736E+03  0.12500000000E+03 0.  0.
         21    1    1    2  503  501 -0.83332395773E+02 -0.82964942152E+02  0.14463608322E+02  0.11847643554E+03  0.00000000000E+00 0. -1.
         21    1    1    2  504  503  0.33115868103E+02 -0.14485698205E+03 -0.60693388378E+02  0.16051134964E+03  0.00000000000E+00 0. -1.
<mgrwt>
<rscale>  4 0.21591903E+03</rscale>
<asrwt>0</asrwt>
<pdfrwt beam="1">  1       21 0.30649787E-01 0.21591903E+03</pdfrwt>
<pdfrwt beam="2">  1       21 0.57538013E-01 0.21591903E+03</pdfrwt>
<totfact> 0.28600050E+04</totfact>
</mgrwt>
</event>
<event>
 5    0  0.1531977E+001  0.2596725E+03  0.7546771E-02  0.1107340E+00
         21   -1    0    0  504  501  0.00000000000E+00  0.00000000000E+00  0.38222163054E+03  0.38222163054E+03  0.00000000000E+00 0.  1.
         21   -1    0    0  503  502 -0.00000000000E+00 -0.00000000000E+00 -0.21837020075E+03  0.21837020075E+03  0.00000000000E+00 0.  1.
         25    1    1    2    0    0 -0.58449060750E+02 -0.23357278423E+03  0.84836815110E+02  0.28424430237E+03  0.12500000000E+03 0.  0.
         21    1    1    2  503  501  0.55053142759E+02  0.21325542973E+03 -0.14372602204E+02  0.22071542432E+03  0.00000000000E+00 0.  1.
         21    1    1    2  504  502  0.33959179902E+01  0.20317354494E+02  0.93387216883E+02  0.95632104597E+02  0.00000000000E+00 0.  1.
<mgrwt>
<rscale>  4 0.25967245E+03</rscale>
<asrwt>0</asrwt>
<pdfrwt beam="1">  1       21 0.58803328E-01 0.25967245E+03</pdfrwt>
<pdfrwt beam="2">  1       21 0.33595415E-01 0.25967245E+03</pdfrwt>
<totfact> 0.22293913E+04</totfact>
</mgrwt>
</event>
<event>
 5    0  0.1531977E+001  0.1756704E+03  0.7546771E-02  0.1172060E+00
         21   -1    0    0  502  501  0.00000000000E+00  0.00000000000E+00  0.30021372109E+03  0.30021372109E+03  0.00000000000E+00 0.  1.
         21   -1    0    0  504  502 -0.00000000000E+00 -0.00000000000E+00 -0.26226940949E+03  0.26226940949E+03  0.00000000000E+00 0.  1.
         25    1    1    2    0    0  0.21585865186E+03  0.11911079681E+02 -0.82815410282E+02  0.26309736522E+03  0.12500000000E+03 0.  0.
         21    1    1    2  503  501 -0.11335268349E+03  0.54168971472E+01  0.15304469185E+03  0.19052782299E+03  0.00000000000E+00 0.  1.
         21    1    1    2  504  503 -0.10250596837E+03 -0.17327976828E+02 -0.32284969971E+02  0.10885794238E+03  0.00000000000E+00 0.  1.
<mgrwt>
<rscale>  4 0.17567036E+03</rscale>
<asrwt>0</asrwt>
<pdfrwt beam="1">  1       21 0.46186726E-01 0.17567036E+03</pdfrwt>
<pdfrwt beam="2">  1       21 0.40349140E-01 0.17567036E+03</pdfrwt>
<totfact> 0.26838035E+04</totfact>
</mgrwt>
</event>
<event>
 5    0  0.1531977E+001  0.2438976E+03  0.7546771E-02  0.1117223E+00
         21   -1    0    0  504  501  0.00000000000E+00  0.00000000000E+00  0.23426910415E+03  0.23426910415E+03  0.00000000000E+00 0.  1.
         21   -1    0    0  503  502 -0.00000000000E+00 -0.00000000000E+00 -0.38021437260E+03  0.38021437260E+03  0.00000000000E+00 0.  1.
         25    1    1    2    0    0 -0.12181761855E+03 -0.18921204791E+03 -0.17021567497E+03  0.30860833960E+03  0.12500000000E+03 0.  0.
         21    1    1    2  503  501  0.10671175222E+03  0.16211292229E+03 -0.70240783324E+02  0.20640195076E+03  0.00000000000E+00 0.  1.
         21    1    1    2  504  502  0.15105866332E+02  0.27099125616E+02  0.94511189839E+02  0.99473186395E+02  0.00000000000E+00 0.  1.
<mgrwt>
<rscale>  4 0.24389757E+03</rscale>
<asrwt>0</asrwt>
<pdfrwt beam="1">  1       21 0.36041401E-01 0.24389757E+03</pdfrwt>
<pdfrwt beam="2">  1       21 0.58494518E-01 0.24389757E+03</pdfrwt>
<totfact> 0.19743426E+04</totfact>
</mgrwt>
</event>
<event>
 5    0  0.1531977E+001  0.2321919E+03  0.7546771E-02  0.1125106E+00
         21   -1    0    0  502  501  0.00000000000E+00  0.00000000000E+00  0.34528435712E+03  0.34528435712E+03  0.00000000000E+00 0.  1.
         21   -1    0    0  504  502 -0.00000000000E+00 -0.00000000000E+00 -0.26977505915E+03  0.26977505915E+03  0.00000000000E+00 0.  1.
         25    1    1    2    0    0 -0.20041178114E+02  0.21701058519E+03  0.20169459765E+03  0.32218155382E+03  0.12500000000E+03 0.  0.
         21    1    1    2  503  501 -0.64624795594E+02 -0.78618780935E+02 -0.55389882296E+02  0.11586766582E+03  0.00000000000E+00 0.  1.
         21    1    1    2  504  503  0.84665973708E+02 -0.13839180425E+03 -0.70795417381E+02  0.17701019663E+03  0.00000000000E+00 0.  1.
<mgrwt>
<rscale>  4 0.23219192E+03</rscale>
<asrwt>0</asrwt>
<pdfrwt beam="1">  1       21 0.53120670E-01 0.23219192E+03</pdfrwt>
<pdfrwt beam="2">  1       21 0.41503855E-01 0.23219192E+03</pdfrwt>
<totfact> 0.18338245E+04</totfact>
</mgrwt>
</event>
<event>
 5    0  0.1531977E+001  0.2299717E+03  0.7546771E-02  0.1126660E+00
         21   -1    0    0  503  501  0.00000000000E+00  0.00000000000E+00  0.95845617979E+03  0.95845617979E+03  0.00000000000E+00 0.  1.
         21   -1    0    0  504  502 -0.00000000000E+00 -0.00000000000E+00 -0.14362792738E+03  0.14362792738E+03  0.00000000000E+00 0.  1.
         25    1    1    2    0    0 -0.16200697580E+03  0.14919972645E+03  0.60269392437E+03  0.65373678576E+03  0.12500000000E+03 0.  0.
         21    1    1    2  503  502  0.13093508726E+03 -0.13733803448E+03 -0.40089223293E+02  0.19394039965E+03  0.00000000000E+00 0.  1.
         21    1    1    2  504  501  0.31071888535E+02 -0.11861691968E+02  0.25222355133E+03  0.25440692176E+03  0.00000000000E+00 0. -1.
<mgrwt>
<rscale>  4 0.22997173E+03</rscale>
<asrwt>0</asrwt>
<pdfrwt beam="1">  1       21 0.14745479E+00 0.22997173E+03</pdfrwt>
<pdfrwt beam="2">  1       21 0.22096605E-01 0.22997173E+03</pdfrwt>
<totfact> 0.58148841E+03</totfact>
</mgrwt>
</event>
<event>
 5    0  0.1531977E+001  0.3142003E+03  0.7546771E-02  0.1078350E+00
         21   -1    0    0  502  501  0.00000000000E+00  0.00000000000E+00  0.94220282408E+03  0.94220282408E+03  0.00000000000E+00 0.  1.
         21   -1    0    0  504  502 -0.00000000000E+00 -0.00000000000E+00 -0.33246901531E+03  0.33246901531E+03  0.00000000000E+00 0.  1.
         25    1    1    2    0    0  0.29918799076E+03  0.16521344520E+03  0.40760013752E+03  0.54641724753E+03  0.12500000000E+03 0.  0.
         21    1    1    2  503  501 -0.47229502123E+02 -0.43319539836E+02  0.38735682756E+03  0.39262261812E+03  0.00000000000E+00 0.  1.
         21    1    1    2  504  503 -0.25195848864E+03 -0.12189390536E+03 -0.18522315631E+03  0.33563197374E+03  0.00000000000E+00 0.  1.
<mgrwt>
<rscale>  4 0.31420033E+03</rscale>
<asrwt>0</asrwt>
<pdfrwt beam="1">  1       21 0.14495428E+00 0.31420033E+03</pdfrwt>
<pdfrwt beam="2">  1       21 0.51149080E-01 0.31420033E+03</pdfrwt>
<totfact> 0.10772888E+03</totfact>
</mgrwt>
</event>
<event>
 5    0  0.1531977E+001  0.2133748E+03  0.7546771E-02  0.1138921E+00
         21   -1    0    0  504  501  0.00000000000E+00  0.00000000000E+00  0.20249117952E+03  0.20249117952E+03  0.00000000000E+00 0.  1.
         21   -1    0    0  503  502 -0.00000000000E+00 -0.00000000000E+00 -0.30778003005E+03  0.30778003005E+03  0.00000000000E+00 0. -1.
         25    1    1    2    0    0  0.18843757246E+03  0.68405209753E+02 -0.29843080345E+02  0.23812517901E+03  0.12500000000E+03 0.  0.
         21    1    1    2  503  501 -0.14290014683E+03 -0.78143346245E+02 -0.12412698079E+03  0.20477876327E+03  0.00000000000E+00 0. -1.
         21    1    1    2  504  502 -0.45537425623E+02  0.97381364924E+01  0.48681210614E+02  0.67367267286E+02  0.00000000000E+00 0. -1.
<mgrwt>
<rscale>  4 0.21337481E+03</rscale>
<asrwt>0</asrwt>
<pdfrwt beam="1">  1       21 0.31152489E-01 0.21337481E+03</pdfrwt>
<pdfrwt beam="2">  1       21 0.47350773E-01 0.21337481E+03</pdfrwt>
<totfact> 0.41800899E+04</totfact>
</mgrwt>
</event>
<event>
 5    0  0.1531977E+001  0.2511190E+03  0.7546771E-02  0.1112600E+00
         21   -1    0    0  502  501  0.00000000000E+00  0.00000000000E+00  0.88531852011E+03  0.88531852011E+03  0.00000000000E+00 0.  1.
         21   -1    0    0  504  502 -0.00000000000E+00 -0.00000000000E+00 -0.93888662191E+02  0.93888662191E+02  0.00000000000E+00 0. -1.
         25    1    1    2    0    0  0.16994094856E+03 -0.12248133562E+03  0.45621490271E+03  0.51733803362E+03  0.12500000000E+03 0.  0.
         21    1    1    2  503  501  0.20682571021E+02  0.98916941550E+01  0.20240274144E+03  0.20369703998E+03  0.00000000000E+00 0. -1.
         21    1    1    2  504  503 -0.19062351958E+03  0.11258964147E+03  0.13281221378E+03  0.25817210870E+03  0.00000000000E+00 0. -1.
<mgrwt>
<rscale>  4 0.25111904E+03</rscale>
<asrwt>0</asrwt>
<pdfrwt beam="1">  1       21 0.13620284E+00 0.25111904E+03</pdfrwt>
<pdfrwt beam="2">  1       21 0.14444410E-01 0.25111904E+03</pdfrwt>
<totfact> 0.15562093E+04</totfact>
</mgrwt>
</event>
<event>
 5    0  0.1531977E+001  0.6070604E+03  0.7546771E-02  0.9890865E-01
         21   -1    0    0  504  501  0.00000000000E+00  0.00000000000E+00  0.28874633828E+03  0.28874633828E+03  0.00000000000E+00 0.  1.
         21   -1    0    0  503  502 -0.00000000000E+00 -0.00000000000E+00 -0.22770379142E+04  0.22770379142E+04  0.00000000000E+00 0.  1.
         25    1    1    2    0    0  0.11021823002E+03  0.60666204241E+03 -0.11472542393E+04  0.13084357766E+04  0.12500000000E+03 0.  0.
         21    1    1    2  503  501 -0.10802148685E+03 -0.18008360383E+02 -0.61835790999E+03  0.62798045154E+03  0.00000000000E+00 0.  1.
         21    1    1    2  504  502 -0.21967431711E+01 -0.58865368203E+03 -0.22267942667E+03  0.62936802438E+03  0.00000000000E+00 0.  1.
<mgrwt>
<rscale>  4 0.60706039E+03</rscale>
<asrwt>0</asrwt>
<pdfrwt beam="1">  1       21 0.44422515E-01 0.60706039E+03</pdfrwt>
<pdfrwt beam="2">  1       21 0.35031351E+00 0.60706039E+03</pdfrwt>
<totfact> 0.58263568E+01</totfact>
</mgrwt>
</event>
<event>
 5    0  0.1531977E+001  0.2842815E+03  0.7546771E-02  0.1093373E+00
         21   -1    0    0  504  501  0.00000000000E+00  0.00000000000E+00  0.45099669833E+03  0.45099669833E+03  0.00000000000E+00 0. -1.
         21   -1    0    0  501  502 -0.00000000000E+00 -0.00000000000E+00 -0.18281951360E+03  0.18281951360E+03  0.00000000000E+00 0. -1.
         25    1    1    2    0    0 -0.25074816835E+03  0.43910775870E+02  0.19174515311E+03  0.34233609787E+03  0.12500000000E+03 0.  0.
         21    1    1    2  503  502 -0.47272292885E+01 -0.24099211129E+02  0.11616893655E+02  0.27167460168E+02  0.00000000000E+00 0. -1.
         21    1    1    2  504  503  0.25547539763E+03 -0.19811564741E+02  0.64815137969E+02  0.26431265389E+03  0.00000000000E+00 0. -1.
<mgrwt>
<rscale>  4 0.28428154E+03</rscale>
<asrwt>0</asrwt>
<pdfrwt beam="1">  1       21 0.69384107E-01 0.28428154E+03</pdfrwt>
<pdfrwt beam="2">  1       21 0.28126079E-01 0.28428154E+03</pdfrwt>
<totfact> 0.21791558E+04</totfact>
</mgrwt>
</event>
<event>
 5    0  0.1531977E+001  0.2511532E+03  0.7546771E-02  0.1112578E+00
         21   -1    0    0  504  501  0.00000000000E+00  0.00000000000E+00  0.15433884959E+03  0.15433884959E+03  0.00000000000E+00 0. -1.
         21   -1    0    0  503  502 -0.00000000000E+00 -0.00000000000E+00 -0.45874880156E+03  0.45874880156E+03  0.00000000000E+00 0. -1.
         25    1    1    2    0    0 -0.56662062779E+02 -0.22293735924E+03 -0.13344361137E+03  0.29384324548E+03  0.12500000000E+03 0.  0.
         21    1    1    2  503  501  0.73910421063E+01  0.19535568081E+02 -0.93942296484E+02  0.96236276904E+02  0.00000000000E+00 0. -1.
         21    1    1    2  504  502  0.49271020673E+02  0.20340179116E+03 -0.77024044117E+02  0.22300812877E+03  0.00000000000E+00 0. -1.
<mgrwt>
<rscale>  4 0.25115324E+03</rscale>
<asrwt>0</asrwt>
<pdfrwt beam="1">  1       21 0.23744439E-01 0.25115324E+03</pdfrwt>
<pdfrwt beam="2">  1       21 0.70576738E-01 0.25115324E+03</pdfrwt>
<totfact> 0.29516647E+04</totfact>
</mgrwt>
</event>
<event>
 5    0  0.1531977E+001  0.2203486E+03  0.7546771E-02  0.1133623E+00
         21   -1    0    0  502  501  0.00000000000E+00  0.00000000000E+00  0.14370575550E+03  0.14370575550E+03  0.00000000000E+00 0. -1.
         21   -1    0    0  504  502 -0.00000000000E+00 -0.00000000000E+00 -0.57817887959E+03  0.57817887959E+03  0.00000000000E+00 0. -1.
         25    1    1    2    0    0  0.22430975769E+03  0.14981757764E+02 -0.73722308539E+02  0.26758045377E+03  0.12500000000E+03 0.  0.
         21    1    1    2  503  501 -0.53417789531E+02 -0.43152984013E+02 -0.19127944186E+02  0.71284770579E+02  0.00000000000E+00 0.  1.
         21    1    1    2  504  503 -0.17089196816E+03  0.28171226250E+02 -0.34162287136E+03  0.38301941075E+03  0.00000000000E+00 0. -1.
<mgrwt>
<rscale>  4 0.22034862E+03</rscale>
<asrwt>0</asrwt>
<pdfrwt beam="1">  1       21 0.22108578E-01 0.22034862E+03</pdfrwt>
<pdfrwt beam="2">  1       21 0.88950597E-01 0.22034862E+03</pdfrwt>
<totfact> 0.20308117E+04</totfact>
</mgrwt>
</event>
<event>
 5    0  0.1531977E+001  0.1893325E+03  0.7546771E-02  0.1159065E+00
         21   -1    0    0  503  501  0.00000000000E+00  0.00000000000E+00  0.33369175959E+03  0.33369175959E+03  0.00000000000E+00 0.  1.
         21   -1    0    0  504  502 -0.00000000000E+00 -0.00000000000E+00 -0.34162124960E+03  0.34162124960E+03  0.00000000000E+00 0.  1.
         25    1    1    2    0    0  0.22143680263E+03 -0.12749230140E+03  0.98596124274E+02  0.30105604162E+03  0.12500000000E+03 0.  0.
         21    1    1    2  503  502 -0.11458843886E+03  0.62411438833E+02 -0.18513908153E+03  0.22649984002E+03  0.00000000000E+00 0.  1.
         21    1    1    2  504  501 -0.10684836376E+03  0.65080862569E+02  0.78613467239E+02  0.14775712755E+03  0.00000000000E+00 0.  1.
<mgrwt>
<rscale>  4 0.18933250E+03</rscale>
<asrwt>0</asrwt>
<pdfrwt beam="1">  1       21 0.51337194E-01 0.18933250E+03</pdfrwt>
<pdfrwt beam="2">  1       21 0.52557115E-01 0.18933250E+03</pdfrwt>
<totfact> 0.12405574E+04</totfact>
</mgrwt>
</event>
<event>
 5    0  0.1531977E+001  0.2591040E+03  0.7546771E-02  0.1107683E+00
         21   -1    0    0  503  501  0.00000000000E+00  0.00000000000E+00  0.38987043106E+03  0.38987043106E+03  0.00000000000E+00 0.  1.
         21   -1    0    0  504  502 -0.00000000000E+00 -0.00000000000E+00 -0.43698433737E+03  0.43698433737E+03  0.00000000000E+00 0.  1.
         25    1    1    2    0    0  0.24509450128E+03 -0.68042984890E+02 -0.24309959100E+03  0.37339466185E+03  0.12500000000E+03 0.  0.
         21    1    1    2  503  502 -0.25795541882E+02  0.24513988750E+02 -0.86306497725E+02  0.93355006159E+02  0.00000000000E+00 0.  1.
         21    1    1    2  504  501 -0.21929895940E+03  0.43528996139E+02  0.28229218241E+03  0.36010510042E+03  0.00000000000E+00 0.  1.
<mgrwt>
<rscale>  4 0.25910397E+03</rscale>
<asrwt>0</asrwt>
<pdfrwt beam="1">  1       21 0.59980066E-01 0.25910397E+03</pdfrwt>
<pdfrwt beam="2">  1       21 0.67228360E-01 0.25910397E+03</pdfrwt>
<totfact> 0.50161026E+03</totfact>
</mgrwt>
</event>
<event>
 5    0  0.1531977E+001  0.2514854E+03  0.7546771E-02  0.1112370E+00
         21   -1    0    0  502  501  0.00000000000E+00  0.00000000000E+00  0.11047336577E+04  0.11047336577E+04  0.00000000000E+00 0. -1.
         21   -1    0    0  504  502 -0.00000000000E+00 -0.00000000000E+00 -0.63995880446E+02  0.63995880446E+02  0.00000000000E+00 0. -1.
         25    1    1    2    0    0 -0.17761866704E+03  0.11889940167E+03  0.32211318125E+03  0.40628482636E+03  0.12500000000E+03 0.  0.
         21    1    1    2  503  501 -0.21225068791E+02 -0.10673333955E+02  0.12244714589E+03  0.12473061829E+03  0.00000000000E+00 0.  1.
         21    1    1    2  504  503  0.19884373583E+03 -0.10822606771E+03  0.59617745008E+03  0.63771409346E+03  0.00000000000E+00 0. -1.
<mgrwt>
<rscale>  4 0.25148539E+03</rscale>
<asrwt>0</asrwt>
<pdfrwt beam="1">  1       21 0.16995901E+00 0.25148539E+03</pdfrwt>
<pdfrwt beam="2">  1       21 0.98455209E-02 0.25148539E+03</pdfrwt>
<totfact> 0.17139061E+04</totfact>
</mgrwt>
</event>
<event>
 5    0  0.1531977E+001  0.2795899E+03  0.7546771E-02  0.1095913E+00
         21   -1    0    0  503  501  0.00000000000E+00  0.00000000000E+00  0.19302796542E+03  0.19302796542E+03  0.00000000000E+00 0. -1.
         21   -1    0    0  504  502 -0.00000000000E+00 -0.00000000000E+00 -0.43794784778E+03  0.43794784778E+03  0.00000000000E+00 0. -1.
         25    1    1    2    0    0  0.22265002829E+03 -0.13419424363E+03 -0.95505566222E+02  0.30385431262E+03  0.12500000000E+03 0.  0.
         21    1    1    2  503  502 -0.10842279528E+02  0.17353059111E+02 -0.69369596988E+02  0.72324440352E+02  0.00000000000E+00 0. -1.
         21    1    1    2  504  501 -0.21180774876E+03  0.11684118451E+03 -0.80044719149E+02  0.25479706022E+03  0.00000000000E+00 0. -1.
<mgrwt>
<rscale>  4 0.27958992E+03</rscale>
<asrwt>0</asrwt>
<pdfrwt beam="1">  1       21 0.29696610E-01 0.27958992E+03</pdfrwt>
<pdfrwt beam="2">  1       21 0.67376591E-01 0.27958992E+03</pdfrwt>
<totfact> 0.20951018E+04</totfact>
</mgrwt>
</event>
<event>
 5    0  0.1531977E+001  0.2036326E+03  0.7546771E-02  0.1146710E+00
         21   -1    0    0  502  501  0.00000000000E+00  0.00000000000E+00  0.10537312587E+04  0.10537312587E+04  0.00000000000E+00 0.  1.
         21   -1    0    0  504  502 -0.00000000000E+00 -0.00000000000E+00 -0.63057602005E+02  0.63057602005E+02  0.00000000000E+00 0.  1.
         25    1    1    2    0    0  0.21689053860E+03 -0.16802331177E+01  0.38908332946E+03  0.46266096246E+03  0.12500000000E+03 0.  0.
         21    1    1    2  503  501 -0.14001588408E+03 -0.42983485687E+02  0.49016171197E+03  0.51157651599E+03  0.00000000000E+00 0.  1.
         21    1    1    2  504  503 -0.76874654519E+02  0.44663718805E+02  0.11142861532E+03  0.14255138230E+03  0.00000000000E+00 0.  1.
<mgrwt>
<rscale>  4 0.20363257E+03</rscale>
<asrwt>0</asrwt>
<pdfrwt beam="1">  1       21 0.16211249E+00 0.20363257E+03</pdfrwt>
<pdfrwt beam="2">  1       21 0.97011703E-02 0.20363257E+03</pdfrwt>
<totfact> 0.20640284E+04</totfact>
</mgrwt>
</event>
<event>
 5    0  0.1531977E+001  0.2306338E+03  0.7546771E-02  0.1126194E+00
         21   -1    0    0  504  501  0.00000000000E+00  0.00000000000E+00  0.54236908538E+03  0.54236908538E+03  0.00000000000E+00 0.  1.
         21   -1    0    0  503  502 -0.00000000000E+00 -0.00000000000E+00 -0.20801663561E+03  0.20801663561E+03  0.00000000000E+00 0.  1.
         25    1    1    2    0    0 -0.19777023770E+03 -0.46822297542E+02 -0.86735783571E+02  0.25387692022E+03  0.12500000000E+03 0.  0.
         21    1    1    2  503  501  0.15732175543E+02 -0.16689005280E+02 -0.94246134302E+01  0.24796120318E+02  0.00000000000E+00 0. -1.
         21    1    1    2  504  502  0.18203806216E+03  0.63511302821E+02  0.43051284678E+03  0.47171268045E+03  0.00000000000E+00 0.  1.
<mgrwt>
<rscale>  4 0.23063385E+03</rscale>
<asrwt>0</asrwt>
<pdfrwt beam="1">  1       21 0.83441397E-01 0.23063385E+03</pdfrwt>
<pdfrwt beam="2">  1       21 0.32002560E-01 0.23063385E+03</pdfrwt>
<totfact> 0.11455290E+04</totfact>
</mgrwt>
</event>
<event>
 5    0  0.1531977E+001  0.2595609E+03  0.7546771E-02  0.1107407E+00
         21   -1    0    0  503  501  0.00000000000E+00  0.00000000000E+00  0.55283901775E+02  0.55283901775E+02  0.00000000000E+00 0.  1.
         21   -1    0    0  504  502 -0.00000000000E+00 -0.00000000000E+00 -0.15677133893E+04  0.15677133893E+04  0.00000000000E+00 0.  1.
         25    1    1    2    0    0 -0.12837528645E+03 -0.21522815983E+03 -0.49672995242E+03  0.57023593414E+03  0.12500000000E+03 0.  0.
         21    1    1    2  503  502  0.12867359394E+03  0.17837207453E+03 -0.96694367753E+03  0.99164185383E+03  0.00000000000E+00 0.  1.
         21    1    1    2  504  501 -0.29830748535E+00  0.36856085298E+02 -0.48755857531E+02  0.61119503061E+02  0.00000000000E+00 0.  1.
<mgrwt>
<rscale>  4 0.25956089E+03</rscale>
<asrwt>0</asrwt>
<pdfrwt beam="1">  1       21 0.85052158E-02 0.25956089E+03</pdfrwt>
<pdfrwt beam="2">  1       21 0.24118667E+00 0.25956089E+03</pdfrwt>
<totfact> 0.76411519E+03</totfact>
</mgrwt>
</event>
<event>
 5    0  0.1531977E+001  0.2554782E+03  0.7546771E-02  0.1109891E+00
         21   -1    0    0  504  501  0.00000000000E+00  0.00000000000E+00  0.15703591810E+03  0.15703591810E+03  0.00000000000E+00 0.  1.
         21   -1    0    0  501  502 -0.00000000000E+00 -0.00000000000E+00 -0.67765392952E+03  0.67765392952E+03  0.00000000000E+00 0.  1.
         25    1    1    2    0    0 -0.15024291609E+03 -0.13953272552E+03 -0.90886497325E+02  0.25676384232E+03  0.12500000000E+03 0.  0.
         21    1    1    2  503  502 -0.92266437046E+01 -0.24059889367E+02  0.44563161713E+02  0.51477029948E+02  0.00000000000E+00 0.  1.
         21    1    1    2  504  503  0.15946955979E+03  0.16359261489E+03 -0.47429467581E+03  0.52644897535E+03  0.00000000000E+00 0.  1.
<mgrwt>
<rscale>  4 0.25547823E+03</rscale>
<asrwt>0</asrwt>
<pdfrwt beam="1">  1       21 0.24159372E-01 0.25547823E+03</pdfrwt>
<pdfrwt beam="2">  1       21 0.10425445E+00 0.25547823E+03</pdfrwt>
<totfact> 0.11558049E+04</totfact>
</mgrwt>
</event>
<event>
 5    0  0.1531977E+001  0.3788454E+03  0.7546771E-02  0.1051361E+00
         21   -1    0    0  502  501  0.00000000000E+00  0.00000000000E+00  0.67427953407E+03  0.67427953407E+03  0.00000000000E+00 0.  1.
         21   -1    0    0  504  502 -0.00000000000E+00 -0.00000000000E+00 -0.44280656200E+03  0.44280656200E+03  0.00000000000E+00 0.  1.
         25    1    1    2    0    0 -0.30621816168E+03  0.18474100554E+03  0.52383755533E+03  0.64647473735E+03  0.12500000000E+03 0.  0.
         21    1    1    2  503  501  0.17377783449E+01 -0.24343350370E+02 -0.15387608644E+02  0.28851292529E+02  0.00000000000E+00 0.  1.
         21    1    1    2  504  503  0.30448038333E+03 -0.16039765517E+03 -0.27697697460E+03  0.44176006619E+03  0.00000000000E+00 0.  1.
<mgrwt>
<rscale>  4 0.37884535E+03</rscale>
<asrwt>0</asrwt>
<pdfrwt beam="1">  1       21 0.10373531E+00 0.37884535E+03</pdfrwt>
<pdfrwt beam="2">  1       21 0.68124087E-01 0.37884535E+03</pdfrwt>
<totfact> 0.13038732E+03</totfact>
</mgrwt>
</event>
