<event>
 5    0  0.1531977E+001  0.2476443E+03  0.7546771E-02  0.1114803E+00
         21   -1    0    0  503  501  0.00000000000E+00  0.00000000000E+00  0.12085661126E+03  0.12085661126E+03  0.00000000000E+00 0.  1.
         21   -1    0    0  504  502 -0.00000000000E+00 -0.00000000000E+00 -0.87215227526E+03  0.87215227526E+03  0.00000000000E+00 0.  1.
         25    1    1    2    0    0  0.20578790402E+03  0.23707713298E+02 -0.13949317636E+03  0.27927417238E+03  0.12500000000E+03 0.  0.
         21    1    1    2  503  502  0.17914216450E+02 -0.53410409867E+02 -0.40096304918E+03  0.40490117047E+03  0.00000000000E+00 0.  1.
         21    1    1    2  504  501 -0.22370212047E+03  0.29702696569E+02 -0.21083943846E+03  0.30883354367E+03  0.00000000000E+00 0.  1.
<mgrwt>
<rscale>  4 0.24764434E+03</rscale>
<asrwt>0</asrwt>
<pdfrwt beam="1">  1       21 0.18593324E-01 0.24764434E+03</pdfrwt>
<pdfrwt beam="2">  1       21 0.13417728E+00 0.24764434E+03</pdfrwt>
<totfact> 0.10168937E+04</totfact>
</mgrwt>
</event>
<event>
 5    0  0.1531977E+001  0.1818662E+03  0.7546771E-02  0.1166009E+00
         21   -1    0    0  503  501  0.00000000000E+00  0.00000000000E+00  0.80380175027E+03  0.80380175027E+03  0.00000000000E+00 0.  1.
         21   -1    0    0  504  502 -0.00000000000E+00 -0.00000000000E+00 -0.64011629518E+03  0.64011629518E+03  0.00000000000E+00 0.  1.
         25    1    1    2    0    0  0.30198009679E+02  0.19943289896E+03  0.66647323773E+03  0.70745811013E+03  0.12500000000E+03 0.  0.
         21    1    1    2  503  502 -0.51912740957E+01 -0.13128988552E+03 -0.60051704192E+03  0.61472327189E+03  0.00000000000E+00 0.  1.
         21    1    1    2  504  501 -0.25006735583E+02 -0.68143013447E+02  0.97729259281E+02  0.12173666344E+03  0.00000000000E+00 0.  1.
<mgrwt>
<rscale>  4 0.18186619E+03</rscale>
<asrwt>0</asrwt>
<pdfrwt beam="1">  1       21 0.12366181E+00 0.18186619E+03</pdfrwt>
<pdfrwt beam="2">  1       21 0.98479430E-01 0.18186619E+03</pdfrwt>
<totfact> 0.42248527E+02</totfact>
</mgrwt>
</event>
<event>
 5    0  0.1531977E+001  0.2586110E+03  0.7546771E-02  0.1107981E+00
         21   -1    0    0  503  501  0.00000000000E+00  0.00000000000E+00  0.61033936797E+03  0.61033936797E+03  0.00000000000E+00 0.  1.
         21   -1    0    0  501  502 -0.00000000000E+00 -0.00000000000E+00 -0.23207341972E+03  0.23207341972E+03  0.00000000000E+00 0. -1.
         25    1    1    2    0    0  0.64731404606E+02 -0.23151120971E+03  0.47331579124E+03  0.54538099820E+03  0.12500000000E+03 0.  0.
         21    1    1    2  503  504 -0.28230195629E+02  0.15869294711E+03 -0.13128141882E+03  0.20788267445E+03  0.00000000000E+00 0. -1.
         21    1    1    2  504  502 -0.36501208977E+02  0.72818262594E+02  0.36231575837E+02  0.89149115036E+02  0.00000000000E+00 0.  1.
<mgrwt>
<rscale>  4 0.25861098E+03</rscale>
<asrwt>0</asrwt>
<pdfrwt beam="1">  1       21 0.93898363E-01 0.25861098E+03</pdfrwt>
<pdfrwt beam="2">  1       21 0.35703603E-01 0.25861098E+03</pdfrwt>
<totfact> 0.68930711E+03</totfact>
</mgrwt>
</event>
<event>
 5    0  0.1531977E+001  0.2361854E+03  0.7546771E-02  0.1122360E+00
         21   -1    0    0  503  501  0.00000000000E+00  0.00000000000E+00  0.33974135549E+03  0.33974135549E+03  0.00000000000E+00 0. -1.
         21   -1    0    0  504  502 -0.00000000000E+00 -0.00000000000E+00 -0.51308125495E+03  0.51308125495E+03  0.00000000000E+00 0.  1.
         25    1    1    2    0    0 -0.16731218087E+03 -0.14925057470E+03 -0.27008488620E+03  0.37261232625E+03  0.12500000000E+03 0.  0.
         21    1    1    2  503  502  0.81969320952E+02 -0.31071967055E+02 -0.14336193434E+03  0.16803892683E+03  0.00000000000E+00 0.  1.
         21    1    1    2  504  501  0.85342859922E+02  0.18032254175E+03  0.24010692108E+03  0.31217135736E+03  0.00000000000E+00 0. -1.
<mgrwt>
<rscale>  4 0.23618538E+03</rscale>
<asrwt>0</asrwt>
<pdfrwt beam="1">  1       21 0.52267901E-01 0.23618538E+03</pdfrwt>
<pdfrwt beam="2">  1       21 0.78935577E-01 0.23618538E+03</pdfrwt>
<totfact> 0.47681742E+03</totfact>
</mgrwt>
</event>
<event>
 5    0  0.1531977E+001  0.3653327E+03  0.7546771E-02  0.1056492E+00
         21   -1    0    0  502  501  0.00000000000E+00  0.00000000000E+00  0.44188612456E+03  0.44188612456E+03  0.00000000000E+00 0.  1.
         21   -1    0    0  504  502 -0.00000000000E+00 -0.00000000000E+00 -0.60064325787E+03  0.60064325787E+03  0.00000000000E+00 0.  1.
         25    1    1    2    0    0  0.25907580181E+03  0.24932940768E+03 -0.23018175685E+03  0.44485285860E+03  0.12500000000E+03 0.  0.
         21    1    1    2  503  501 -0.10985278338E+02 -0.34865198600E+02  0.23036772593E+03  0.23324996799E+03  0.00000000000E+00 0.  1.
         21    1    1    2  504  503 -0.24809052347E+03 -0.21446420908E+03 -0.15894310239E+03  0.36442655585E+03  0.00000000000E+00 0.  1.
<mgrwt>
<rscale>  4 0.36533272E+03</rscale>
<asrwt>0</asrwt>
<pdfrwt beam="1">  1       21 0.67982481E-01 0.36533272E+03</pdfrwt>
<pdfrwt beam="2">  1       21 0.92406655E-01 0.36533272E+03</pdfrwt>
<totfact> 0.17412157E+03</totfact>
</mgrwt>
</event>
<event>
 5    0  0.1531977E+001  0.2155798E+03  0.7546771E-02  0.1137222E+00
         21   -1    0    0  502  501  0.00000000000E+00  0.00000000000E+00  0.33645087945E+03  0.33645087945E+03  0.00000000000E+00 0.  1.
         21   -1    0    0  504  502 -0.00000000000E+00 -0.00000000000E+00 -0.40087319324E+03  0.40087319324E+03  0.00000000000E+00 0. -1.
         25    1    1    2    0    0 -0.15156343540E+03 -0.13781798854E+03  0.16722454854E+03  0.29249670520E+03  0.12500000000E+03 0.  0.
         21    1    1    2  503  501  0.26467309787E+02  0.18588345194E+02  0.81210428049E+02  0.87413835795E+02  0.00000000000E+00 0.  1.
         21    1    1    2  504  503  0.12509612562E+03  0.11922964334E+03 -0.31285729039E+03  0.35741353170E+03  0.00000000000E+00 0. -1.
<mgrwt>
<rscale>  4 0.21557980E+03</rscale>
<asrwt>0</asrwt>
<pdfrwt beam="1">  1       21 0.51761674E-01 0.21557980E+03</pdfrwt>
<pdfrwt beam="2">  1       21 0.61672799E-01 0.21557980E+03</pdfrwt>
<totfact> 0.85199944E+03</totfact>
</mgrwt>
</event>
<event>
 5    0  0.1531977E+001  0.6115397E+03  0.7546771E-02  0.9881750E-01
         21   -1    0    0  502  501  0.00000000000E+00  0.00000000000E+00  0.44148551688E+03  0.44148551688E+03  0.00000000000E+00 0.  1.
         21   -1    0    0  504  502 -0.00000000000E+00 -0.00000000000E+00 -0.16492309311E+04  0.16492309311E+04  0.00000000000E+00 0.  1.
         25    1    1    2    0    0  0.54798930255E+03 -0.43921757728E+03 -0.91931610329E+03  0.11636027903E+04  0.12500000000E+03 0.  0.
         21    1    1    2  503  501 -0.50924242461E+03  0.26402325351E+03  0.15889932647E+02  0.57383674976E+03  0.00000000000E+00 0.  1.
         21    1    1    2  504  503 -0.38746877944E+02  0.17519432377E+03 -0.30431924357E+03  0.35327690788E+03  0.00000000000E+00 0.  1.
<mgrwt>
<rscale>  4 0.61153974E+03</rscale>
<asrwt>0</asrwt>
<pdfrwt beam="1">  1       21 0.67920850E-01 0.61153974E+03</pdfrwt>
<pdfrwt beam="2">  1       21 0.25372783E+00 0.61153974E+03</pdfrwt>
<totfact> 0.90285127E+01</totfact>
</mgrwt>
</event>
<event>
 5    0  0.1531977E+001  0.2044094E+03  0.7546771E-02  0.1146071E+00
         21   -1    0    0  503  501  0.00000000000E+00  0.00000000000E+00  0.21424138199E+03  0.21424138199E+03  0.00000000000E+00 0.  1.
         21   -1    0    0  504  502 -0.00000000000E+00 -0.00000000000E+00 -0.49371393333E+03  0.49371393333E+03  0.00000000000E+00 0.  1.
         25    1    1    2    0    0  0.36100785066E+02  0.21038709026E+03  0.40960296444E+02  0.25073639607E+03  0.12500000000E+03 0.  0.
         21    1    1    2  503  502 -0.15065425955E+02 -0.15526306954E+03 -0.35575523510E+03  0.38845253908E+03  0.00000000000E+00 0.  1.
         21    1    1    2  504  501 -0.21035359111E+02 -0.55124020725E+02  0.35322387313E+02  0.68766380153E+02  0.00000000000E+00 0.  1.
<mgrwt>
<rscale>  4 0.20440938E+03</rscale>
<asrwt>0</asrwt>
<pdfrwt beam="1">  1       21 0.32960213E-01 0.20440938E+03</pdfrwt>
<pdfrwt beam="2">  1       21 0.75955989E-01 0.20440938E+03</pdfrwt>
<totfact> 0.13591197E+04</totfact>
</mgrwt>
</event>
<event>
 5    0  0.1531977E+001  0.3830466E+03  0.7546771E-02  0.1049813E+00
         21   -1    0    0  503  501  0.00000000000E+00  0.00000000000E+00  0.90676069792E+03  0.90676069792E+03  0.00000000000E+00 0.  1.
         21   -1    0    0  504  502 -0.00000000000E+00 -0.00000000000E+00 -0.29176137427E+03  0.29176137427E+03  0.00000000000E+00 0.  1.
         25    1    1    2    0    0 -0.17322613183E+03  0.40052416110E+03  0.32842895729E+03  0.56028338933E+03  0.12500000000E+03 0.  0.
         21    1    1    2  503  502  0.24411516474E+03 -0.23479579127E+03  0.52411302630E+02  0.34273637376E+03  0.00000000000E+00 0.  1.
         21    1    1    2  504  501 -0.70889032913E+02 -0.16572836983E+03  0.23415906374E+03  0.29550230910E+03  0.00000000000E+00 0.  1.
<mgrwt>
<rscale>  4 0.38304664E+03</rscale>
<asrwt>0</asrwt>
<pdfrwt beam="1">  1       21 0.13950164E+00 0.38304664E+03</pdfrwt>
<pdfrwt beam="2">  1       21 0.44886366E-01 0.38304664E+03</pdfrwt>
<totfact> 0.15109839E+03</totfact>
</mgrwt>
</event>
<event>
 5    0  0.1531977E+001  0.2521493E+03  0.7546771E-02  0.1111954E+00
         21   -1    0    0  503  501  0.00000000000E+00  0.00000000000E+00  0.10688320352E+03  0.10688320352E+03  0.00000000000E+00 0.  1.
         21   -1    0    0  504  502 -0.00000000000E+00 -0.00000000000E+00 -0.99222499512E+03  0.99222499512E+03  0.00000000000E+00 0. -1.
         25    1    1    2    0    0 -0.15014939580E+03  0.15930258596E+03 -0.12827762872E+03  0.28284678712E+03  0.12500000000E+03 0.  0.
         21    1    1    2  503  502  0.13227117518E+03 -0.17480967219E+03 -0.76128833960E+03  0.79222094221E+03  0.00000000000E+00 0. -1.
         21    1    1    2  504  501  0.17878220621E+02  0.15507086231E+02  0.42241767160E+01  0.24040469315E+02  0.00000000000E+00 0. -1.
<mgrwt>
<rscale>  4 0.25214929E+03</rscale>
<asrwt>0</asrwt>
<pdfrwt beam="1">  1       21 0.16443569E-01 0.25214929E+03</pdfrwt>
<pdfrwt beam="2">  1       21 0.15265001E+00 0.25214929E+03</pdfrwt>
<totfact> 0.90825505E+03</totfact>
</mgrwt>
</event>
<event>
 5    0  0.1531977E+001  0.2802020E+03  0.7546771E-02  0.1095579E+00
         21   -1    0    0  504  501  0.00000000000E+00  0.00000000000E+00  0.14685686180E+04  0.14685686180E+04  0.00000000000E+00 0. -1.
         21   -1    0    0  501  502 -0.00000000000E+00 -0.00000000000E+00 -0.48901509459E+02  0.48901509459E+02  0.00000000000E+00 0.  1.
         25    1    1    2    0    0  0.16852013516E+03  0.18571250085E+03  0.73633559719E+03  0.78784724447E+03  0.12500000000E+03 0.  0.
         21    1    1    2  503  502 -0.14012010821E+03 -0.17144790167E+03  0.62694037511E+03  0.66489266928E+03  0.00000000000E+00 0. -1.
         21    1    1    2  504  503 -0.28400026955E+02 -0.14264599172E+02  0.56391136196E+02  0.64730213672E+02  0.00000000000E+00 0. -1.
<mgrwt>
<rscale>  4 0.28020201E+03</rscale>
<asrwt>0</asrwt>
<pdfrwt beam="1">  1       21 0.22593360E+00 0.28020201E+03</pdfrwt>
<pdfrwt beam="2">  1       21 0.75233103E-02 0.28020201E+03</pdfrwt>
<totfact> 0.11580479E+04</totfact>
</mgrwt>
</event>
<event>
 5    0  0.1531977E+001  0.3036684E+03  0.7546771E-02  0.1083421E+00
         21   -1    0    0  502  501  0.00000000000E+00  0.00000000000E+00  0.24699525113E+03  0.24699525113E+03  0.00000000000E+00 0. -1.
         21   -1    0    0  504  502 -0.00000000000E+00 -0.00000000000E+00 -0.49039144795E+03  0.49039144795E+03  0.00000000000E+00 0. -1.
         25    1    1    2    0    0  0.29992070180E+03 -0.10387122395E+03 -0.15708741630E+03  0.37555707275E+03  0.12500000000E+03 0.  0.
         21    1    1    2  503  501 -0.24069525558E+03  0.90321790688E+02 -0.98592509183E+00  0.25708598558E+03  0.00000000000E+00 0. -1.
         21    1    1    2  504  503 -0.59225446218E+02  0.13549433258E+02 -0.85322855423E+02  0.10474364076E+03  0.00000000000E+00 0. -1.
<mgrwt>
<rscale>  4 0.30366837E+03</rscale>
<asrwt>0</asrwt>
<pdfrwt beam="1">  1       21 0.37999269E-01 0.30366837E+03</pdfrwt>
<pdfrwt beam="2">  1       21 0.75444838E-01 0.30366837E+03</pdfrwt>
<totfact> 0.98448518E+03</totfact>
</mgrwt>
</event>
<event>
 5    0  0.1531977E+001  0.2105546E+03  0.7546771E-02  0.1141128E+00
         21   -1    0    0  503  501  0.00000000000E+00  0.00000000000E+00  0.66322641899E+03  0.66322641899E+03  0.00000000000E+00 0. -1.
         21   -1    0    0  504  502 -0.00000000000E+00 -0.00000000000E+00 -0.89743162394E+02  0.89743162394E+02  0.00000000000E+00 0. -1.
         25    1    1    2    0    0  0.19725746990E+03  0.51615311513E+02  0.41555577133E+03  0.47946454395E+03  0.12500000000E+03 0.  0.
         21    1    1    2  503  502 -0.15481554476E+03 -0.40683925681E+02  0.68892301987E+02  0.17426756434E+03  0.00000000000E+00 0. -1.
         21    1    1    2  504  501 -0.42441925132E+02 -0.10931385832E+02  0.89035183273E+02  0.99237473091E+02  0.00000000000E+00 0.  1.
<mgrwt>
<rscale>  4 0.21055458E+03</rscale>
<asrwt>0</asrwt>
<pdfrwt beam="1">  1       21 0.10203483E+00 0.21055458E+03</pdfrwt>
<pdfrwt beam="2">  1       21 0.13806641E-01 0.21055458E+03</pdfrwt>
<totfact> 0.35330580E+04</totfact>
</mgrwt>
</event>
<event>
 5    0  0.1531977E+001  0.2154134E+03  0.7546771E-02  0.1137349E+00
         21   -1    0    0  502  501  0.00000000000E+00  0.00000000000E+00  0.79304582532E+03  0.79304582532E+03  0.00000000000E+00 0.  1.
         21   -1    0    0  504  502 -0.00000000000E+00 -0.00000000000E+00 -0.65237347109E+03  0.65237347109E+03  0.00000000000E+00 0. -1.
         25    1    1    2    0    0  0.63345015786E+01 -0.20019426377E+03 -0.56618269139E+03  0.61343761638E+03  0.12500000000E+03 0.  0.
         21    1    1    2  503  501  0.20602218071E+02  0.17383381128E+03  0.75261195801E+03  0.77270136836E+03  0.00000000000E+00 0.  1.
         21    1    1    2  504  503 -0.26936719650E+02  0.26360452493E+02 -0.45756912389E+02  0.59280311677E+02  0.00000000000E+00 0.  1.
<mgrwt>
<rscale>  4 0.21541338E+03</rscale>
<asrwt>0</asrwt>
<pdfrwt beam="1">  1       21 0.12200705E+00 0.21541338E+03</pdfrwt>
<pdfrwt beam="2">  1       21 0.10036515E+00 0.21541338E+03</pdfrwt>
<totfact> 0.40218728E+02</totfact>
</mgrwt>
</event>
<event>
 5    0  0.1531977E+001  0.3599087E+03  0.7546771E-02  0.1058620E+00
         21   -1    0    0  502  501  0.00000000000E+00  0.00000000000E+00  0.57144120050E+03  0.57144120050E+03  0.00000000000E+00 0. -1.
         21   -1    0    0  504  502 -0.00000000000E+00 -0.00000000000E+00 -0.43265611278E+03  0.43265611278E+03  0.00000000000E+00 0.  1.
         25    1    1    2    0    0  0.32610287797E+03  0.90487409377E+02  0.20415282327E+03  0.41452917090E+03  0.12500000000E+03 0.  0.
         21    1    1    2  503  501  0.82477999483E+01 -0.42030175622E+02  0.17162505919E+03  0.17688901268E+03  0.00000000000E+00 0.  1.
         21    1    1    2  504  503 -0.33435067792E+03 -0.48457233755E+02 -0.23699279474E+03  0.41267912969E+03  0.00000000000E+00 0.  1.
<mgrwt>
<rscale>  4 0.35990874E+03</rscale>
<asrwt>0</asrwt>
<pdfrwt beam="1">  1       21 0.87914031E-01 0.35990874E+03</pdfrwt>
<pdfrwt beam="2">  1       21 0.66562478E-01 0.35990874E+03</pdfrwt>
<totfact> 0.20576302E+03</totfact>
</mgrwt>
</event>
<event>
 5    0  0.1531977E+001  0.2851957E+03  0.7546771E-02  0.1092885E+00
         21   -1    0    0  502  501  0.00000000000E+00  0.00000000000E+00  0.65641103138E+03  0.65641103138E+03  0.00000000000E+00 0.  1.
         21   -1    0    0  504  502 -0.00000000000E+00 -0.00000000000E+00 -0.10823893220E+04  0.10823893220E+04  0.00000000000E+00 0.  1.
         25    1    1    2    0    0 -0.63828392442E+02 -0.29956722077E+03 -0.94942603485E+03  0.10054100552E+04  0.12500000000E+03 0.  0.
         21    1    1    2  503  501  0.52493680263E+02  0.24954136292E+03  0.59384931289E+03  0.64628436829E+03  0.00000000000E+00 0.  1.
         21    1    1    2  504  503  0.11334712178E+02  0.50025857848E+02 -0.70401568691E+02  0.87105929923E+02  0.00000000000E+00 0. -1.
<mgrwt>
<rscale>  4 0.28519566E+03</rscale>
<asrwt>0</asrwt>
<pdfrwt beam="1">  1       21 0.10098631E+00 0.28519566E+03</pdfrwt>
<pdfrwt beam="2">  1       21 0.16652143E+00 0.28519566E+03</pdfrwt>
<totfact> 0.16382886E+02</totfact>
</mgrwt>
</event>
<event>
 5    0  0.1531977E+001  0.3950774E+03  0.7546771E-02  0.1045498E+00
         21   -1    0    0  503  501  0.00000000000E+00  0.00000000000E+00  0.69635793755E+03  0.69635793755E+03  0.00000000000E+00 0. -1.
         21   -1    0    0  504  502 -0.00000000000E+00 -0.00000000000E+00 -0.54478011625E+03  0.54478011625E+03  0.00000000000E+00 0.  1.
         25    1    1    2    0    0 -0.59948160103E+02 -0.24629918313E+03  0.31092030309E+03  0.42018270357E+03  0.12500000000E+03 0.  0.
         21    1    1    2  503  502  0.88617711542E+02  0.39390321333E+03 -0.37966195175E+03  0.55421659834E+03  0.00000000000E+00 0.  1.
         21    1    1    2  504  501 -0.28669551439E+02 -0.14760403020E+03  0.22031946996E+03  0.26673875189E+03  0.00000000000E+00 0.  1.
<mgrwt>
<rscale>  4 0.39507737E+03</rscale>
<asrwt>0</asrwt>
<pdfrwt beam="1">  1       21 0.10713199E+00 0.39507737E+03</pdfrwt>
<pdfrwt beam="2">  1       21 0.83812326E-01 0.39507737E+03</pdfrwt>
<totfact> 0.74559610E+02</totfact>
</mgrwt>
</event>
<event>
 5    0  0.1531977E+001  0.2892144E+03  0.7546771E-02  0.1090760E+00
         21   -1    0    0  502  501  0.00000000000E+00  0.00000000000E+00  0.10029383336E+04  0.10029383336E+04  0.00000000000E+00 0.  1.
         21   -1    0    0  504  502 -0.00000000000E+00 -0.00000000000E+00 -0.20526441396E+03  0.20526441396E+03  0.00000000000E+00 0. -1.
         25    1    1    2    0    0 -0.28261875221E+03  0.11339989662E+02 -0.25369013720E+02  0.31027494472E+03  0.12500000000E+03 0.  0.
         21    1    1    2  503  501  0.25614766044E+03 -0.33496728918E+02  0.82384646465E+03  0.86339831603E+03  0.00000000000E+00 0.  1.
         21    1    1    2  504  503  0.26471091771E+02  0.22156739256E+02 -0.80353133751E+00  0.34529486770E+02  0.00000000000E+00 0. -1.
<mgrwt>
<rscale>  4 0.28921441E+03</rscale>
<asrwt>0</asrwt>
<pdfrwt beam="1">  1       21 0.15429820E+00 0.28921441E+03</pdfrwt>
<pdfrwt beam="2">  1       21 0.31579141E-01 0.28921441E+03</pdfrwt>
<totfact> 0.24820304E+03</totfact>
</mgrwt>
</event>
<event>
 5    0  0.1531977E+001  0.2465640E+03  0.7546771E-02  0.1115496E+00
         21   -1    0    0  502  501  0.00000000000E+00  0.00000000000E+00  0.24916300179E+04  0.24916300179E+04  0.00000000000E+00 0.  1.
         21   -1    0    0  504  502 -0.00000000000E+00 -0.00000000000E+00 -0.49729729624E+02  0.49729729624E+02  0.00000000000E+00 0.  1.
         25    1    1    2    0    0 -0.23548872188E+03 -0.12935022303E+02  0.98282888225E+03  0.10184300981E+04  0.12500000000E+03 0.  0.
         21    1    1    2  503  501  0.13897215117E+03  0.18803679472E+03  0.86888023197E+03  0.89979106046E+03  0.00000000000E+00 0.  1.
         21    1    1    2  504  503  0.96516570718E+02 -0.17510177242E+03  0.59019117410E+03  0.62313858901E+03  0.00000000000E+00 0.  1.
<mgrwt>
<rscale>  4 0.24656402E+03</rscale>
<asrwt>0</asrwt>
<pdfrwt beam="1">  1       21 0.38332760E+00 0.24656402E+03</pdfrwt>
<pdfrwt beam="2">  1       21 0.76507296E-02 0.24656402E+03</pdfrwt>
<totfact> 0.13335988E+03</totfact>
</mgrwt>
</event>
<event>
 5    0  0.1531977E+001  0.2355794E+03  0.7546771E-02  0.1122773E+00
         21   -1    0    0  503  501  0.00000000000E+00  0.00000000000E+00  0.15287509675E+03  0.15287509675E+03  0.00000000000E+00 0.  1.
         21   -1    0    0  504  502 -0.00000000000E+00 -0.00000000000E+00 -0.53119556028E+03  0.53119556028E+03  0.00000000000E+00 0.  1.
         25    1    1    2    0    0  0.10278974683E+03  0.19277047448E+03 -0.24584759457E+03  0.35184119662E+03  0.12500000000E+03 0.  0.
         21    1    1    2  503  502 -0.61159123949E+00 -0.28098905658E+02 -0.13552525593E+03  0.13840887810E+03  0.00000000000E+00 0.  1.
         21    1    1    2  504  501 -0.10217815559E+03 -0.16467156882E+03  0.30523869649E+01  0.19382058230E+03  0.00000000000E+00 0.  1.
<mgrwt>
<rscale>  4 0.23557938E+03</rscale>
<asrwt>0</asrwt>
<pdfrwt beam="1">  1       21 0.23519245E-01 0.23557938E+03</pdfrwt>
<pdfrwt beam="2">  1       21 0.81722395E-01 0.23557938E+03</pdfrwt>
<totfact> 0.21765211E+04</totfact>
</mgrwt>
</event>
<event>
 5    0  0.1531977E+001  0.3320830E+03  0.7546771E-02  0.1070219E+00
         21   -1    0    0  502  501  0.00000000000E+00  0.00000000000E+00  0.21275676839E+03  0.21275676839E+03  0.00000000000E+00 0.  1.
         21   -1    0    0  504  502 -0.00000000000E+00 -0.00000000000E+00 -0.85258674573E+03  0.85258674573E+03  0.00000000000E+00 0.  1.
         25    1    1    2    0    0  0.97667241307E+02 -0.31104406192E+03 -0.43643772266E+03  0.55891876354E+03  0.12500000000E+03 0.  0.
         21    1    1    2  503  501 -0.74073737366E+02  0.29296146725E+03 -0.13261796227E+01  0.30218388212E+03  0.00000000000E+00 0.  1.
         21    1    1    2  504  503 -0.23593503941E+02  0.18082594671E+02 -0.20206607506E+03  0.20424086846E+03  0.00000000000E+00 0.  1.
<mgrwt>
<rscale>  4 0.33208300E+03</rscale>
<asrwt>0</asrwt>
<pdfrwt beam="1">  1       21 0.32731810E-01 0.33208300E+03</pdfrwt>
<pdfrwt beam="2">  1       21 0.13116719E+00 0.33208300E+03</pdfrwt>
<totfact> 0.34628174E+03</totfact>
</mgrwt>
</event>
<event>
 5    0  0.1531977E+001  0.3103830E+03  0.7546771E-02  0.1080162E+00
         21   -1    0    0  503  501  0.00000000000E+00  0.00000000000E+00  0.54444157026E+03  0.54444157026E+03  0.00000000000E+00 0.  1.
         21   -1    0    0  504  502 -0.00000000000E+00 -0.00000000000E+00 -0.33557849786E+03  0.33557849786E+03  0.00000000000E+00 0.  1.
         25    1    1    2    0    0  0.18837917354E+03 -0.26994126918E+03  0.10187234706E+03  0.36654873745E+03  0.12500000000E+03 0.  0.
         21    1    1    2  503  502 -0.20027225055E+03  0.17890596006E+03 -0.10037520345E+03  0.28669059690E+03  0.00000000000E+00 0.  1.
         21    1    1    2  504  501  0.11893077013E+02  0.91035309121E+02  0.20736592879E+03  0.22678073377E+03  0.00000000000E+00 0.  1.
<mgrwt>
<rscale>  4 0.31038295E+03</rscale>
<asrwt>0</asrwt>
<pdfrwt beam="1">  1       21 0.83760241E-01 0.31038295E+03</pdfrwt>
<pdfrwt beam="2">  1       21 0.51627461E-01 0.31038295E+03</pdfrwt>
<totfact> 0.40938925E+03</totfact>
</mgrwt>
</event>
<event>
 5    0  0.1531977E+001  0.2444229E+03  0.7546771E-02  0.1116881E+00
         21   -1    0    0  504  501  0.00000000000E+00  0.00000000000E+00  0.70692335976E+02  0.70692335976E+02  0.00000000000E+00 0. -1.
         21   -1    0    0  503  502 -0.00000000000E+00 -0.00000000000E+00 -0.10219443643E+04  0.10219443643E+04  0.00000000000E+00 0. -1.
         25    1    1    2    0    0  0.44050267424E-01 -0.22115119770E+03 -0.31629807570E+03  0.40568131196E+03  0.12500000000E+03 0.  0.
         21    1    1    2  503  501  0.54611438339E+02  0.19091599007E+03 -0.50904808548E+03  0.54640761140E+03  0.00000000000E+00 0. -1.
         21    1    1    2  504  502 -0.54655488606E+02  0.30235207630E+02 -0.12590586716E+03  0.14054777693E+03  0.00000000000E+00 0. -1.
<mgrwt>
<rscale>  4 0.24442289E+03</rscale>
<asrwt>0</asrwt>
<pdfrwt beam="1">  1       21 0.10875743E-01 0.24442289E+03</pdfrwt>
<pdfrwt beam="2">  1       21 0.15722222E+00 0.24442289E+03</pdfrwt>
<totfact> 0.17848750E+04</totfact>
</mgrwt>
</event>
<event>
 5    0  0.1531977E+001  0.1882677E+03  0.7546771E-02  0.1160033E+00
         21   -1    0    0  504  501  0.00000000000E+00  0.00000000000E+00  0.35495018168E+03  0.35495018168E+03  0.00000000000E+00 0. -1.
         21   -1    0    0  503  502 -0.00000000000E+00 -0.00000000000E+00 -0.30176352989E+03  0.30176352989E+03  0.00000000000E+00 0. -1.
         25    1    1    2    0    0  0.19472459768E+03  0.88474781918E+02 -0.14179545844E+03  0.28544072591E+03  0.12500000000E+03 0.  0.
         21    1    1    2  503  501 -0.68814243990E+02 -0.40211845745E+02 -0.48246463716E+02  0.93167129264E+02  0.00000000000E+00 0. -1.
         21    1    1    2  504  502 -0.12591035369E+03 -0.48262936172E+02  0.24322857395E+03  0.27810585639E+03  0.00000000000E+00 0. -1.
<mgrwt>
<rscale>  4 0.18826771E+03</rscale>
<asrwt>0</asrwt>
<pdfrwt beam="1">  1       21 0.54607720E-01 0.18826771E+03</pdfrwt>
<pdfrwt beam="2">  1       21 0.46425159E-01 0.18826771E+03</pdfrwt>
<totfact> 0.14112989E+04</totfact>
</mgrwt>
</event>
<event>
 5    0  0.1531977E+001  0.2501734E+03  0.7546771E-02  0.1113195E+00
         21   -1    0    0  504  501  0.00000000000E+00  0.00000000000E+00  0.31914599700E+03  0.31914599700E+03  0.00000000000E+00 0.  1.
         21   -1    0    0  503  502 -0.00000000000E+00 -0.00000000000E+00 -0.88415659771E+03  0.88415659771E+03  0.00000000000E+00 0.  1.
         25    1    1    2    0    0 -0.33598779467E+03 -0.98093193237E+02  0.42477195496E+02  0.37408472952E+03  0.12500000000E+03 0.  0.
         21    1    1    2  503  501  0.20701559406E+03 -0.13807093446E+02 -0.62407978914E+03  0.65766380106E+03  0.00000000000E+00 0.  1.
         21    1    1    2  504  502  0.12897220061E+03  0.11190028668E+03  0.16591992937E+02  0.17155406413E+03  0.00000000000E+00 0.  1.
<mgrwt>
<rscale>  4 0.25017342E+03</rscale>
<asrwt>0</asrwt>
<pdfrwt beam="1">  1       21 0.49099384E-01 0.25017342E+03</pdfrwt>
<pdfrwt beam="2">  1       21 0.13602409E+00 0.25017342E+03</pdfrwt>
<totfact> 0.14499753E+03</totfact>
</mgrwt>
</event>
<event>
 5    0  0.1531977E+001  0.2580914E+03  0.7546771E-02  0.1108295E+00
         21   -1    0    0  504  501  0.00000000000E+00  0.00000000000E+00  0.37720740738E+03  0.37720740738E+03  0.00000000000E+00 0.  1.
         21   -1    0    0  503  502 -0.00000000000E+00 -0.00000000000E+00 -0.21813235876E+03  0.21813235876E+03  0.00000000000E+00 0.  1.
         25    1    1    2    0    0 -0.20318585628E+03 -0.42414342910E+02  0.19026714532E+03  0.30807475597E+03  0.12500000000E+03 0.  0.
         21    1    1    2  503  501  0.23064297446E+03  0.28787910398E+02 -0.65276530964E+02  0.24142483499E+03  0.00000000000E+00 0.  1.
         21    1    1    2  504  502 -0.27457118183E+02  0.13626432511E+02  0.34084434259E+02  0.45840175181E+02  0.00000000000E+00 0.  1.
<mgrwt>
<rscale>  4 0.25809143E+03</rscale>
<asrwt>0</asrwt>
<pdfrwt beam="1">  1       21 0.58031909E-01 0.25809143E+03</pdfrwt>
<pdfrwt beam="2">  1       21 0.33558824E-01 0.25809143E+03</pdfrwt>
<totfact> 0.23003362E+04</totfact>
</mgrwt>
</event>
<event>
 5    0  0.1531977E+001  0.1754046E+03  0.7546771E-02  0.1172326E+00
         21   -1    0    0  502  501  0.00000000000E+00  0.00000000000E+00  0.26404501010E+03  0.26404501010E+03  0.00000000000E+00 0.  1.
         21   -1    0    0  504  502 -0.00000000000E+00 -0.00000000000E+00 -0.88484999678E+03  0.88484999678E+03  0.00000000000E+00 0. -1.
         25    1    1    2    0    0  0.19063951134E+03  0.94680085984E+02 -0.17782755848E+03  0.30422916119E+03  0.12500000000E+03 0.  0.
         21    1    1    2  503  501 -0.75963983283E+02 -0.76280405127E+02  0.18066163546E+03  0.21030419275E+03  0.00000000000E+00 0.  1.
         21    1    1    2  504  503 -0.11467552806E+03 -0.18399680857E+02 -0.62363906366E+03  0.63436165293E+03  0.00000000000E+00 0. -1.
<mgrwt>
<rscale>  4 0.17540456E+03</rscale>
<asrwt>0</asrwt>
<pdfrwt beam="1">  1       21 0.40622309E-01 0.17540456E+03</pdfrwt>
<pdfrwt beam="2">  1       21 0.13613077E+00 0.17540456E+03</pdfrwt>
<totfact> 0.22827030E+03</totfact>
</mgrwt>
</event>
<event>
 5    0  0.1531977E+001  0.3276287E+03  0.7546771E-02  0.1072191E+00
         21   -1    0    0  504  501  0.00000000000E+00  0.00000000000E+00  0.66802994048E+03  0.66802994048E+03  0.00000000000E+00 0.  1.
         21   -1    0    0  503  502 -0.00000000000E+00 -0.00000000000E+00 -0.36925900923E+03  0.36925900923E+03  0.00000000000E+00 0.  1.
         25    1    1    2    0    0  0.11177197401E+03 -0.26016250149E+03 -0.18615632943E+03  0.36118787403E+03  0.12500000000E+03 0.  0.
         21    1    1    2  503  501 -0.96773630206E+01 -0.28137221644E+02 -0.50999853559E+02  0.59045234015E+02  0.00000000000E+00 0. -1.
         21    1    1    2  504  502 -0.10209461099E+03  0.28829972313E+03  0.53592711424E+03  0.61705584166E+03  0.00000000000E+00 0.  1.
<mgrwt>
<rscale>  4 0.32762868E+03</rscale>
<asrwt>0</asrwt>
<pdfrwt beam="1">  1       21 0.10277384E+00 0.32762868E+03</pdfrwt>
<pdfrwt beam="2">  1       21 0.56809079E-01 0.32762868E+03</pdfrwt>
<totfact> 0.20387041E+03</totfact>
</mgrwt>
</event>
<event>
 5    0  0.1531977E+001  0.2636933E+03  0.7546771E-02  0.1104944E+00
         21   -1    0    0  503  501  0.00000000000E+00  0.00000000000E+00  0.11956013331E+04  0.11956013331E+04  0.00000000000E+00 0. -1.
         21   -1    0    0  504  502 -0.00000000000E+00 -0.00000000000E+00 -0.11391454760E+03  0.11391454760E+03  0.00000000000E+00 0. -1.
         25    1    1    2    0    0 -0.28107776320E+03 -0.11809704442E+03  0.27187101444E+03  0.42718903235E+03  0.12500000000E+03 0.  0.
         21    1    1    2  503  502  0.95008018248E+02  0.52628474056E+01  0.92401731793E+02  0.13263597224E+03  0.00000000000E+00 0.  1.
         21    1    1    2  504  501  0.18606974495E+03  0.11283419701E+03  0.71741403927E+03  0.74969087612E+03  0.00000000000E+00 0. -1.
<mgrwt>
<rscale>  4 0.26369327E+03</rscale>
<asrwt>0</asrwt>
<pdfrwt beam="1">  1       21 0.18393866E+00 0.26369327E+03</pdfrwt>
<pdfrwt beam="2">  1       21 0.17525316E-01 0.26369327E+03</pdfrwt>
<totfact> 0.47744413E+03</totfact>
</mgrwt>
</event>
<event>
 5    0  0.1531977E+001  0.4238872E+03  0.7546771E-02  0.1035809E+00
         21   -1    0    0  504  501  0.00000000000E+00  0.00000000000E+00  0.11744819559E+04  0.11744819559E+04  0.00000000000E+00 0. -1.
         21   -1    0    0  503  502 -0.00000000000E+00 -0.00000000000E+00 -0.37090417433E+03  0.37090417433E+03  0.00000000000E+00 0. -1.
         25    1    1    2    0    0  0.39964120366E+03 -0.13119209665E+03 -0.12031295958E+03  0.45499963311E+03  0.12500000000E+03 0.  0.
         21    1    1    2  503  501 -0.13307564256E+02  0.16948725515E+02 -0.40141379576E+02  0.45559641320E+02  0.00000000000E+00 0. -1.
         21    1    1    2  504  502 -0.38633363941E+03  0.11424337114E+03  0.96403212078E+03  0.10448268558E+04  0.00000000000E+00 0. -1.
<mgrwt>
<rscale>  4 0.42388718E+03</rscale>
<asrwt>0</asrwt>
<pdfrwt beam="1">  1       21 0.18068953E+00 0.42388718E+03</pdfrwt>
<pdfrwt beam="2">  1       21 0.57062181E-01 0.42388718E+03</pdfrwt>
<totfact> 0.43403351E+02</totfact>
</mgrwt>
</event>
<event>
 5    0  0.1531977E+001  0.2279698E+03  0.7546771E-02  0.1128077E+00
         21   -1    0    0  502  501  0.00000000000E+00  0.00000000000E+00  0.21596813516E+03  0.21596813516E+03  0.00000000000E+00 0.  1.
         21   -1    0    0  504  502 -0.00000000000E+00 -0.00000000000E+00 -0.42406949581E+03  0.42406949581E+03  0.00000000000E+00 0.  1.
         25    1    1    2    0    0 -0.22435700363E+03  0.32554273923E+02  0.51335493673E+02  0.26392457017E+03  0.12500000000E+03 0.  0.
         21    1    1    2  503  501  0.14395893131E+03 -0.51159984814E+02 -0.67186654447E+02  0.16689986365E+03  0.00000000000E+00 0.  1.
         21    1    1    2  504  503  0.80398072316E+02  0.18605710891E+02 -0.19225019988E+03  0.20921319715E+03  0.00000000000E+00 0.  1.
<mgrwt>
<rscale>  4 0.22796977E+03</rscale>
<asrwt>0</asrwt>
<pdfrwt beam="1">  1       21 0.33225867E-01 0.22796977E+03</pdfrwt>
<pdfrwt beam="2">  1       21 0.65241460E-01 0.22796977E+03</pdfrwt>
<totfact> 0.18472470E+04</totfact>
</mgrwt>
</event>
<event>
 5    0  0.1531977E+001  0.2689800E+03  0.7546771E-02  0.1101865E+00
         21   -1    0    0  502  501  0.00000000000E+00  0.00000000000E+00  0.81643284514E+03  0.81643284514E+03  0.00000000000E+00 0.  1.
         21   -1    0    0  504  502 -0.00000000000E+00 -0.00000000000E+00 -0.27853547270E+03  0.27853547270E+03  0.00000000000E+00 0.  1.
         25    1    1    2    0    0  0.22536780545E+03 -0.89985899739E+02 -0.15986018792E+03  0.31633588093E+03  0.12500000000E+03 0.  0.
         21    1    1    2  503  501 -0.25913185790E+02 -0.52321002885E+01  0.43274766845E+03  0.43355439407E+03  0.00000000000E+00 0.  1.
         21    1    1    2  504  503 -0.19945461966E+03  0.95218000027E+02  0.26500989192E+03  0.34507804283E+03  0.00000000000E+00 0.  1.
<mgrwt>
<rscale>  4 0.26898002E+03</rscale>
<asrwt>0</asrwt>
<pdfrwt beam="1">  1       21 0.12560505E+00 0.26898002E+03</pdfrwt>
<pdfrwt beam="2">  1       21 0.42851612E-01 0.26898002E+03</pdfrwt>
<totfact> 0.23252908E+03</totfact>
</mgrwt>
</event>
<event>
 5    0  0.1531977E+001  0.2634834E+03  0.7546771E-02  0.1105068E+00
         21   -1    0    0  503  501  0.00000000000E+00  0.00000000000E+00  0.11627845255E+03  0.11627845255E+03  0.00000000000E+00 0.  1.
         21   -1    0    0  504  502 -0.00000000000E+00 -0.00000000000E+00 -0.55944650158E+03  0.55944650158E+03  0.00000000000E+00 0.  1.
         25    1    1    2    0    0  0.69413935047E+02  0.22131475135E+03 -0.20562380876E+03  0.33422247721E+03  0.12500000000E+03 0.  0.
         21    1    1    2  503  502 -0.72408240727E+01 -0.35174251350E+02 -0.87131284787E+02  0.94241807495E+02  0.00000000000E+00 0.  1.
         21    1    1    2  504  501 -0.62173110974E+02 -0.18614050000E+03 -0.15041295549E+03  0.24726066943E+03  0.00000000000E+00 0.  1.
<mgrwt>
<rscale>  4 0.26348342E+03</rscale>
<asrwt>0</asrwt>
<pdfrwt beam="1">  1       21 0.17888993E-01 0.26348342E+03</pdfrwt>
<pdfrwt beam="2">  1       21 0.86068692E-01 0.26348342E+03</pdfrwt>
<totfact> 0.31936767E+04</totfact>
</mgrwt>
</event>
<event>
 5    0  0.1531977E+001  0.2438554E+03  0.7546771E-02  0.1117251E+00
         21   -1    0    0  502  501  0.00000000000E+00  0.00000000000E+00  0.60072319205E+03  0.60072319205E+03  0.00000000000E+00 0. -1.
         21   -1    0    0  504  502 -0.00000000000E+00 -0.00000000000E+00 -0.62087024743E+03  0.62087024743E+03  0.00000000000E+00 0.  1.
         25    1    1    2    0    0  0.25273750500E+01  0.20073261838E+03 -0.46078103346E+03  0.51792290208E+03  0.12500000000E+03 0.  0.
         21    1    1    2  503  501 -0.31518099687E+02 -0.20741325441E+03  0.55088235810E+03  0.58947860112E+03  0.00000000000E+00 0. -1.
         21    1    1    2  504  503  0.28990724637E+02  0.66806360289E+01 -0.11024838003E+03  0.11419193628E+03  0.00000000000E+00 0.  1.
<mgrwt>
<rscale>  4 0.24385538E+03</rscale>
<asrwt>0</asrwt>
<pdfrwt beam="1">  1       21 0.92418952E-01 0.24385538E+03</pdfrwt>
<pdfrwt beam="2">  1       21 0.95518500E-01 0.24385538E+03</pdfrwt>
<totfact> 0.86148136E+02</totfact>
</mgrwt>
</event>
<event>
 5    0  0.1531977E+001  0.2727294E+03  0.7546771E-02  0.1099728E+00
         21   -1    0    0  503  501  0.00000000000E+00  0.00000000000E+00  0.39918616089E+03  0.39918616089E+03  0.00000000000E+00 0. -1.
         21   -1    0    0  504  502 -0.00000000000E+00 -0.00000000000E+00 -0.68282633494E+03  0.68282633494E+03  0.00000000000E+00 0. -1.
         25    1    1    2    0    0  0.26522322464E+03 -0.35397120759E+00 -0.42631473892E+03  0.51740964506E+03  0.12500000000E+03 0.  0.
         21    1    1    2  503  502 -0.24820066318E+02 -0.21395082869E+01 -0.16908489785E+03  0.17091025677E+03  0.00000000000E+00 0.  1.
         21    1    1    2  504  501 -0.24040315832E+03  0.24934794945E+01  0.31175946272E+03  0.39369259399E+03  0.00000000000E+00 0. -1.
<mgrwt>
<rscale>  4 0.27272936E+03</rscale>
<asrwt>0</asrwt>
<pdfrwt beam="1">  1       21 0.61413256E-01 0.27272936E+03</pdfrwt>
<pdfrwt beam="2">  1       21 0.10505020E+00 0.27272936E+03</pdfrwt>
<totfact> 0.16872444E+03</totfact>
</mgrwt>
</event>
<event>
 5    0  0.1531977E+001  0.1965878E+03  0.7546771E-02  0.1152650E+00
         21   -1    0    0  502  501  0.00000000000E+00  0.00000000000E+00  0.19577031901E+03  0.19577031901E+03  0.00000000000E+00 0. -1.
         21   -1    0    0  504  502 -0.00000000000E+00 -0.00000000000E+00 -0.44071316092E+03  0.44071316092E+03  0.00000000000E+00 0.  1.
         25    1    1    2    0    0 -0.18930489049E+03 -0.67959949466E+02  0.43663897349E+02  0.24080372137E+03  0.12500000000E+03 0.  0.
         21    1    1    2  503  501  0.43134354277E+02  0.58689889057E+02 -0.90421710548E+00  0.72841562346E+02  0.00000000000E+00 0. -1.
         21    1    1    2  504  503  0.14617053621E+03  0.92700604095E+01 -0.28770252216E+03  0.32283819621E+03  0.00000000000E+00 0.  1.
<mgrwt>
<rscale>  4 0.19658783E+03</rscale>
<asrwt>0</asrwt>
<pdfrwt beam="1">  1       21 0.30118511E-01 0.19658783E+03</pdfrwt>
<pdfrwt beam="2">  1       21 0.67802024E-01 0.19658783E+03</pdfrwt>
<totfact> 0.20968377E+04</totfact>
</mgrwt>
</event>
<event>
 5    0  0.1531977E+001  0.3145667E+03  0.7546771E-02  0.1078177E+00
         21   -1    0    0  504  501  0.00000000000E+00  0.00000000000E+00  0.32393347212E+03  0.32393347212E+03  0.00000000000E+00 0. -1.
         21   -1    0    0  501  502 -0.00000000000E+00 -0.00000000000E+00 -0.75778971474E+03  0.75778971474E+03  0.00000000000E+00 0. -1.
         25    1    1    2    0    0 -0.13036189182E+03 -0.16050783653E+03  0.53584590514E+02  0.24749403380E+03  0.12500000000E+03 0.  0.
         21    1    1    2  503  502  0.12242198013E+03 -0.16386091640E+03  0.46194245520E+02  0.20969370391E+03  0.00000000000E+00 0. -1.
         21    1    1    2  504  503  0.79399116868E+01  0.32436875293E+03 -0.53363507865E+03  0.62453544915E+03  0.00000000000E+00 0. -1.
<mgrwt>
<rscale>  4 0.31456665E+03</rscale>
<asrwt>0</asrwt>
<pdfrwt beam="1">  1       21 0.49835919E-01 0.31456665E+03</pdfrwt>
<pdfrwt beam="2">  1       21 0.11658303E+00 0.31456665E+03</pdfrwt>
<totfact> 0.19918146E+03</totfact>
</mgrwt>
</event>
