<LesHouchesEvents version="3.0">
  <!--
  <scalesfunctionalform>
    muR  H_T/2 := sum_i mT(i)/2, i=final state
    muF1 H_T/2 := sum_i mT(i)/2, i=final state
    muF2 H_T/2 := sum_i mT(i)/2, i=final state
    QES  H_T/2 := sum_i mT(i)/2, i=final state
  </scalesfunctionalform>
HERWIG6   
  -->
  <header>
       73
  </header>
  <init>
   2212   2212 0.65000000D+04 0.65000000D+04 -1 -1   247000   247000 -3   1
 0.13356084D-01 0.18564425D-03 0.41063134D-03     66
  </init>
  <event>
  5     66 -.41063134E-03 0.55218636E+02 0.75467711E-02 0.11269882E+00
       21 -1    0    0  501  502 0.00000000E+00 0.00000000E+00 0.88087494E+02 0.88090686E+02 0.75000000E+00 0.0000E+00 0.9000E+01
        2 -1    0    0  502    0 0.00000000E+00 0.00000000E+00 -.27202284E+03 0.27202303E+03 0.32000000E+00 0.0000E+00 0.9000E+01
       25  1    1    2    0    0 0.71325052E+01 -.11446028E+02 -.25164304E+02 0.12821906E+03 0.12500000E+03 0.0000E+00 0.9000E+01
       23  1    1    2    0    0 0.40105004E+02 0.40040304E+02 -.13308864E+03 0.17099554E+03 0.91188000E+02 0.0000E+00 0.9000E+01
        2  1    1    2  501    0 -.47237509E+02 -.28594275E+02 -.25682410E+02 0.60899125E+02 0.32000000E+00 0.0000E+00 0.9000E+01
#aMCatNLO 1  0  0  2  1 0.13778264D+03 0.00000000D+00  -5  6  0 0.00000000D+00 0.00000000D+00 0.00000000D+00 0.00000000D+00 0.00000000D+00
  <mgrwgt>
 -.4891166629D-02    5    2    0
 0.154797995100512D+03 0.000000000000000D+00 0.000000000000000D+00 0.154797995100512D+03
 0.154797995100512D+03 0.000000000000000D+00 0.000000000000000D+00 -.154797995100512D+03
 0.134190469772475D+03 0.713284455597955D+01 -.114458228437948D+02 0.469062665933489D+02
 0.119827746198191D+03 0.401053067728765D+02 0.400404871633272D+02 -.532142948023836D+02
 0.555777742303578D+02 -.472381513288560D+02 -.285946643195325D+02 0.630802820903465D+01
 0.000000000000000D+00 -.000000000000000D+00 -.000000000000000D+00 -.000000000000000D+00
 0.178661234625669D+03 0.000000000000000D+00 0.000000000000000D+00 0.178661234625669D+03
 0.683875027404730D+03 0.000000000000000D+00 0.000000000000000D+00 -.683875027404730D+03
 0.145498448020485D+03 0.489826508289865D+02 0.307457387032585D+02 0.469062665933489D+02
 0.156379469415310D+03 0.814341465275799D+02 0.817068278580408D+02 -.532142948023836D+02
 0.369933450173535D+02 -.333867501451311D+02 -.146301493647046D+02 0.630802820903465D+01
 0.523664999577250D+03 -.970300472114353D+02 -.978224171965947D+02 -.505213792779061D+03
0.796189960428D-06 0.000000000000D+00 0.000000000000D+00 0.176007124476D-06 0.000000000000D+00  6 21 2 25 23 2 21 2 0.13552182D-01 0.41849928D-01 0.20780318D+05 0.20780318D+05 0.20780318D+05 0.12320003D+01  1  2  2  2  6  2        2 0.854847609311D-02 0.100000000000D+01
-.376010663538D-07 0.420160985389D-07 -.160727813761D-08 0.176007124476D-06 0.000000000000D+00  6 21 2 25 23 2 21 4 0.13552182D-01 0.41849928D-01 0.20780318D+05 0.20780318D+05 0.20780318D+05 0.12320003D+01  1  2  3  2  6  2        2 -.612764751768D-03 0.100000000000D+01
0.114752311053D-06 0.000000000000D+00 0.000000000000D+00 0.176007124476D-06 0.000000000000D+00  6 21 2 25 23 2 21 4 0.13552182D-01 0.41849928D-01 0.20780318D+05 0.20780318D+05 0.20780318D+05 0.12320003D+01  1  2 15  2  6  2        2 0.187005790569D-02 0.100000000000D+01
-.508584627210D-05 0.000000000000D+00 -.959776480459D-06 0.176007124476D-06 0.000000000000D+00  6 21 2 25 23 2 21 4 0.13552182D-01 0.19539142D+00 0.20780318D+05 0.20780318D+05 0.20780318D+05 0.12320003D+01  1  2  5  2  6  2        2 -.131164037585D-01 0.100000000000D+01
-.965486768010D-06 0.000000000000D+00 -.179392523453D-06 0.176007124476D-06 0.000000000000D+00  6 21 21 25 23 2 -2 4 0.13552182D-01 0.19539142D+00 0.20780318D+05 0.20780318D+05 0.20780318D+05 0.12320003D+01  1  2  5 10  6  2        2 -.158053211711D-02 0.100000000000D+01
  </mgrwgt>
  </event>
  <event>
  5     66 0.41063134E-03 0.42527862E+02 0.75467711E-02 0.12122740E+00
       21 -1    0    0  501  502 0.00000000E+00 0.00000000E+00 0.35445229E+02 0.35453163E+02 0.75000000E+00 0.0000E+00 0.9000E+01
        2 -1    0    0  502    0 -.00000000E+00 -.00000000E+00 -.84087862E+03 0.84087868E+03 0.32000000E+00 0.0000E+00 0.9000E+01
       25  1    1    2    0    0 -.77337205E+01 -.69265327E+02 -.21376274E+03 0.25724892E+03 0.12500000E+03 0.0000E+00 0.9000E+01
       23  1    1    2    0    0 -.43628752E+01 0.28494715E+02 -.55423338E+03 0.56242410E+03 0.91188000E+02 0.0000E+00 0.9000E+01
        2  1    1    2  501    0 0.12096596E+02 0.40770612E+02 -.37437274E+02 0.56658824E+02 0.32000000E+00 0.0000E+00 0.9000E+01
#aMCatNLO 1  0  0  5  1 0.18926647D+01 0.00000000D+00  -5  6  0 0.00000000D+00 0.00000000D+00 0.00000000D+00 0.00000000D+00 0.00000000D+00
  <mgrwgt>
 0.1902928590D-01    8    2    0
 0.172651782404238D+03 0.000000000000000D+00 0.000000000000000D+00 0.172651782404238D+03
 0.172651782404238D+03 -.000000000000000D+00 -.000000000000000D+00 -.172651782404238D+03
 0.154252045537000D+03 -.773380722957277D+01 -.692656199099173D+02 0.575426422453771D+02
 0.134583379682243D+03 -.436295088803773D+01 0.284944598876283D+02 -.946914207199131D+02
 0.564681395892341D+02 0.120967581176105D+02 0.407711600222890D+02 0.371487784745361D+02
 0.000000000000000D+00 0.000000000000000D+00 0.000000000000000D+00 0.000000000000000D+00
 0.172651782404238D+03 0.000000000000000D+00 0.000000000000000D+00 0.172651782404238D+03
 0.172651782404238D+03 -.000000000000000D+00 -.000000000000000D+00 -.172651782404238D+03
 0.154220641786764D+03 -.765770649114925D+01 -.690091284306371D+02 0.577763453124268D+02
 0.134485490464946D+03 -.429657113856094D+01 0.287181875477042D+02 -.944875705160376D+02
 0.538636818648652D+02 0.132497240679930D+02 0.381173770808298D+02 0.356764151876177D+02
 0.273375069190153D+01 -.129544643828280D+01 0.217356380210312D+01 0.103481001599305D+01
0.590216024250D-06 0.000000000000D+00 0.000000000000D+00 0.233268722312D-06 0.000000000000D+00  6 21 2 25 23 2 21 2 0.54537271D-02 0.12936656D+00 0.19779744D+05 0.19779744D+05 0.19779744D+05 0.12343559D+01  1  2  2  3  6  5        2 0.877203378668D-02 0.100000000000D+01
-.136349165358D-09 0.311465553030D-07 -.119147610419D-08 0.233268722312D-06 0.000000000000D+00  6 21 2 25 23 2 21 4 0.54537271D-02 0.12936656D+00 0.19779744D+05 0.19779744D+05 0.19779744D+05 0.12343559D+01  1  2  3  3  6  5        2 -.308761079646D-05 0.100000000000D+01
0.900402542829D-07 0.000000000000D+00 0.000000000000D+00 0.233268722312D-06 0.000000000000D+00  6 21 2 25 23 2 21 4 0.54537271D-02 0.12936656D+00 0.19779744D+05 0.19779744D+05 0.19779744D+05 0.12343559D+01  1  2 15  3  6  5        2 0.203895095734D-02 0.100000000000D+01
0.220346993594D-09 0.000000000000D+00 0.000000000000D+00 0.233231069089D-06 0.000000000000D+00  6 21 2 25 23 2 21 4 0.54537271D-02 0.12936656D+00 0.19820953D+05 0.19820953D+05 0.19820953D+05 0.12342562D+01  1  2 12  3  6  5        2 0.498818533393D-05 0.100000000000D+01
-.895483974781D-05 0.000000000000D+00 0.000000000000D+00 0.233268722312D-06 0.000000000000D+00  6 21 2 25 23 2 21 4 0.54537271D-02 0.12936656D+00 0.19779744D+05 0.19779744D+05 0.19779744D+05 0.12343559D+01  1  2  4  3  6  5        2 -.202781291791D+00 0.100000000000D+01
-.734599689233D-05 0.000000000000D+00 0.000000000000D+00 0.233268722312D-06 0.000000000000D+00  6 21 2 25 23 2 21 4 0.54537271D-02 0.12936656D+00 0.19779744D+05 0.19779744D+05 0.19779744D+05 0.12343559D+01  1  2  5  3  6  5        2 -.166349234746D+00 0.100000000000D+01
0.786866672747D-05 0.000000000000D+00 -.000000000000D+00 0.233268722312D-06 0.000000000000D+00  6 21 2 25 23 2 21 4 0.54537271D-02 0.12936656D+00 0.19779744D+05 0.19779744D+05 0.19779744D+05 0.12343559D+01  1  2  6  3  6  5        2 0.178185031626D+00 0.100000000000D+01
0.879773343878D-05 0.000000000000D+00 0.000000000000D+00 0.233268722312D-06 0.538906397234D-06  6 21 2 25 23 2 21 4 0.54537271D-02 0.12936656D+00 0.19820953D+05 0.19820953D+05 0.19820953D+05 0.12342562D+01  1  2 11  3  6  5        2 0.199161895497D+00 0.100000000000D+01
  </mgrwgt>
  </event>
  <event>
  5     66 0.41063134E-03 0.77089473E+02 0.75467711E-02 0.11434585E+00
       21 -1    0    0  501  502 0.00000000E+00 0.00000000E+00 0.21718390E+04 0.21718392E+04 0.75000000E+00 0.0000E+00 0.9000E+01
        4 -1    0    0  502    0 0.00000000E+00 0.00000000E+00 -.15293888E+02 0.15372231E+02 0.15500000E+01 0.0000E+00 0.9000E+01
       25  1    1    2    0    0 0.55820767E+02 -.37632376E+02 0.45647137E+03 0.47804108E+03 0.12500000E+03 0.0000E+00 0.9000E+01
       23  1    1    2    0    0 0.18610155E+02 0.17588497E+02 0.74646083E+03 0.75244582E+03 0.91188000E+02 0.0000E+00 0.9000E+01
        4  1    1    2  501    0 -.74430922E+02 0.20043879E+02 0.95361296E+03 0.95672451E+03 0.15500000E+01 0.0000E+00 0.9000E+01
#aMCatNLO 1  0  0  1  2 0.89606833D+02 0.00000000D+00  -5  6  0 0.00000000D+00 0.00000000D+00 0.00000000D+00 0.00000000D+00 0.00000000D+00
  <mgrwgt>
 0.1138915570D-01   14    2    0
 0.182487478110586D+03 0.000000000000000D+00 0.000000000000000D+00 0.182487478110586D+03
 0.182487478110586D+03 0.000000000000000D+00 0.000000000000000D+00 -.182487478110586D+03
 0.167619834995594D+03 0.558249770612067D+02 -.376335096008558D+02 -.890993825746737D+02
 0.985862587373678D+02 0.186126311132936D+02 0.175878301597381D+02 0.273539258817433D+02
 0.987688624882105D+02 -.744376081745003D+02 0.200456794411178D+02 0.617454566929305D+02
 0.000000000000000D+00 -.000000000000000D+00 0.000000000000000D+00 0.000000000000000D+00
 0.280922303601476D+03 0.000000000000000D+00 0.000000000000000D+00 0.280922303601476D+03
 0.209487767383484D+03 0.000000000000000D+00 0.000000000000000D+00 -.209487767383484D+03
 0.184217922995240D+03 0.637141917227008D+02 -.794546723019791D+02 -.890993825746737D+02
 0.981179114902209D+02 0.230233044662569D+02 -.579339291891674D+01 0.273539258817433D+02
 0.934780865940117D+02 -.701268785416492D+02 -.280573645658030D+01 0.617454566929305D+02
 0.114596149905487D+03 -.166106176473085D+02 0.880538016774762D+02 0.714345362179915D+02
0.393293561348D-04 0.000000000000D+00 0.000000000000D+00 0.213146621443D-06 0.000000000000D+00  6 21 4 25 23 4 21 2 0.33413512D+00 0.23589422D-02 0.24614904D+05 0.24614904D+05 0.24614904D+05 0.12240211D+01  1  2  2  1  6  1       21 0.433261531860D-02 0.100000000000D+01
-.141141739241D-05 0.207546714347D-05 -.793946387464D-07 0.213146621443D-06 0.000000000000D+00  6 21 4 25 23 4 21 4 0.33413512D+00 0.23589422D-02 0.24614904D+05 0.24614904D+05 0.24614904D+05 0.12240211D+01  1  2  3  1  6  1       21 -.232952072429D-03 0.100000000000D+01
0.416615283567D-05 0.000000000000D+00 0.000000000000D+00 0.213146621443D-06 0.000000000000D+00  6 21 4 25 23 4 21 4 0.33413512D+00 0.23589422D-02 0.24614904D+05 0.24614904D+05 0.24614904D+05 0.12240211D+01  1  2 15  1  6  1       21 0.687616535225D-03 0.100000000000D+01
-.108243118789D-04 0.000000000000D+00 0.000000000000D+00 0.213146621443D-06 0.000000000000D+00  6 21 4 25 23 4 21 4 0.33413512D+00 0.23589422D-02 0.24614904D+05 0.24614904D+05 0.24614904D+05 0.12240211D+01  1  2  4  1  6  1       21 -.178653451372D-02 0.100000000000D+01
-.938291248183D-04 0.000000000000D+00 -.331313517754D-04 0.213146621443D-06 0.000000000000D+00  6 21 4 25 23 4 21 4 0.53224666D+00 0.23589422D-02 0.24614904D+05 0.24614904D+05 0.24614904D+05 0.12240211D+01  1  2  5  1  6  1       21 -.810403050283D-03 0.100000000000D+01
0.686646554133D-04 0.000000000000D+00 0.222345185356D-04 0.213146621443D-06 0.000000000000D+00  6 21 4 25 23 4 21 4 0.33413512D+00 0.23589422D-02 0.24614904D+05 0.24614904D+05 0.24614904D+05 0.12240211D+01  1  2  6  1  6  1       21 0.113329861650D-01 0.100000000000D+01
-.151784476799D-04 0.000000000000D+00 -.531305372360D-05 0.213146621443D-06 0.000000000000D+00  6 -1 4 25 23 4 -1 4 0.53224666D+00 0.23589422D-02 0.24614904D+05 0.24614904D+05 0.24614904D+05 0.12240211D+01  1  2  5  4  6  1       21 -.126065600608D-04 0.100000000000D+01
-.151784476799D-04 0.000000000000D+00 -.531305372360D-05 0.213146621443D-06 0.000000000000D+00  6 -3 4 25 23 4 -3 4 0.53224666D+00 0.23589422D-02 0.24614904D+05 0.24614904D+05 0.24614904D+05 0.12240211D+01  1  2  5  4  6  1       21 -.152053201844D-04 0.100000000000D+01
-.151784476799D-04 0.000000000000D+00 -.531305372360D-05 0.213146621443D-06 0.000000000000D+00  6 1 4 25 23 4 1 4 0.53224666D+00 0.23589422D-02 0.24614904D+05 0.24614904D+05 0.24614904D+05 0.12240211D+01  1  2  5  5  6  1       21 -.446077161518D-03 0.100000000000D+01
-.151784476799D-04 0.000000000000D+00 -.531305372360D-05 0.213146621443D-06 0.000000000000D+00  6 3 4 25 23 4 3 4 0.53224666D+00 0.23589422D-02 0.24614904D+05 0.24614904D+05 0.24614904D+05 0.12240211D+01  1  2  5  5  6  1       21 -.174599203568D-04 0.100000000000D+01
-.151784476799D-04 0.000000000000D+00 -.531305372360D-05 0.213146621443D-06 0.000000000000D+00  6 -4 4 25 23 4 -4 4 0.53224666D+00 0.23589422D-02 0.24614904D+05 0.24614904D+05 0.24614904D+05 0.12240211D+01  1  2  5  6  6  1       21 -.445781834902D-05 0.100000000000D+01
-.151784476799D-04 0.000000000000D+00 -.531305372360D-05 0.213146621443D-06 0.000000000000D+00  6 4 4 25 23 4 4 4 0.53224666D+00 0.23589422D-02 0.24614904D+05 0.24614904D+05 0.24614904D+05 0.12240211D+01  1  2  5  7  6  1       21 -.445781834902D-05 0.100000000000D+01
-.151784476799D-04 0.000000000000D+00 -.531305372360D-05 0.213146621443D-06 0.000000000000D+00  6 -2 4 25 23 4 -2 4 0.53224666D+00 0.23589422D-02 0.24614904D+05 0.24614904D+05 0.24614904D+05 0.12240211D+01  1  2  5  8  6  1       21 -.122950817958D-04 0.100000000000D+01
-.151784476799D-04 0.000000000000D+00 -.531305372360D-05 0.213146621443D-06 0.000000000000D+00  6 2 4 25 23 4 2 4 0.53224666D+00 0.23589422D-02 0.24614904D+05 0.24614904D+05 0.24614904D+05 0.12240211D+01  1  2  5  9  6  1       21 -.162161300139D-02 0.100000000000D+01
  </mgrwgt>
  </event>
  <event>
  6     66 0.41063134E-03 0.52359918E+02 0.75467711E-02 0.11867142E+00
       21 -1    0    0  501  502 0.00000000E+00 0.00000000E+00 0.43197207E+02 0.43203717E+02 0.75000000E+00 0.0000E+00 0.9000E+01
        2 -1    0    0  502    0 -.00000000E+00 -.00000000E+00 -.67590945E+03 0.67590953E+03 0.32000000E+00 0.0000E+00 0.9000E+01
       25  1    1    2    0    0 -.10302400E+03 0.98356609E+01 -.42335603E+03 0.45339388E+03 0.12500000E+03 0.0000E+00 0.9000E+01
       23  1    1    2    0    0 0.46583674E+02 0.46684882E+01 -.13541865E+03 0.16983903E+03 0.91188000E+02 0.0000E+00 0.9000E+01
        2  1    1    2  503    0 0.40689392E+02 -.69347713E+01 -.62776822E+02 0.75131548E+02 0.32000000E+00 0.0000E+00 0.9000E+01
       21  1    1    2  501  503 0.15750936E+02 -.75693778E+01 -.11160746E+02 0.20748788E+02 0.75000000E+00 0.0000E+00 0.9000E+01
#aMCatNLO 2  0  0  5  1 0.86929408D+01 0.00000000D+00  -5  6  0 0.00000000D+00 0.00000000D+00 0.00000000D+00 0.00000000D+00 0.00000000D+00
  <mgrwgt>
 0.1231286493D+00    2    2    0
 0.170879397715085D+03 0.000000000000000D+00 0.000000000000000D+00 0.170879397715085D+03
 0.170879397715085D+03 -.000000000000000D+00 -.000000000000000D+00 -.170879397715085D+03
 0.171107696926703D+03 -.104204962573912D+03 0.101391465920152D+02 -.518783907702955D+02
 0.106271137732171D+03 0.458469788795268D+02 0.485780570326456D+01 0.292020482545260D+02
 0.643799607712957D+02 0.583579836943856D+02 -.149969522952798D+02 0.226763425157695D+02
 0.000000000000000D+00 0.000000000000000D+00 0.000000000000000D+00 0.000000000000000D+00
 0.170879397715085D+03 0.000000000000000D+00 0.000000000000000D+00 0.170879397715085D+03
 0.170879397715085D+03 -.000000000000000D+00 -.000000000000000D+00 -.170879397715085D+03
 0.170233210407999D+03 -.103022789555937D+03 0.983534938668011D+01 -.514190301383569D+02
 0.106661762154439D+03 0.465844337918336D+02 0.466829305324390D+01 0.294886033944188D+02
 0.415640363961032D+02 0.404218980945520D+02 -.684342561786765D+01 0.684154966239107D+01
 0.232997864716285D+02 0.160164576695513D+02 -.766021682205637D+01 0.150888770815471D+02
-.311513373833D-05 0.000000000000D+00 0.000000000000D+00 0.160591505376D-06 0.000000000000D+00  6 21 2 25 23 2 21 4 0.66462308D-02 0.10398658D+00 0.26169127D+05 0.26169127D+05 0.26169127D+05 0.12211753D+01  1  2 13  3  6  5        2 -.631587403065D-01 0.100000000000D+01
0.918812075252D-05 0.000000000000D+00 0.000000000000D+00 0.160445218015D-06 0.239076071743D-07  6 21 2 25 23 2 21 4 0.66462308D-02 0.10398658D+00 0.26169127D+05 0.26169127D+05 0.26169127D+05 0.12211753D+01  1  2  1  3  6  5        2 0.186287389647D+00 0.100000000000D+01
  </mgrwgt>
  </event>
  <event>
  6     66 0.41063134E-03 0.21998732E+03 0.75467711E-02 0.10062850E+00
       21 -1    0    0  501  503 0.00000000E+00 0.00000000E+00 0.18626480E+03 0.18626631E+03 0.75000000E+00 0.0000E+00 0.9000E+01
        2 -1    0    0  502    0 0.00000000E+00 0.00000000E+00 -.31863537E+04 0.31863537E+04 0.32000000E+00 0.0000E+00 0.9000E+01
       25  1    1    2    0    0 0.54414476E+02 -.79079749E+02 -.72011680E+03 0.73716195E+03 0.12500000E+03 0.0000E+00 0.9000E+01
       23  1    1    2    0    0 -.57611157E+02 -.54132666E+01 -.66623153E+03 0.67492818E+03 0.91188000E+02 0.0000E+00 0.9000E+01
        2  1    1    2  501    0 0.11779302E+02 -.35459376E+03 -.14484732E+04 0.14912914E+04 0.32000000E+00 0.0000E+00 0.9000E+01
       21  1    1    2  502  503 -.85826211E+01 0.43908677E+03 -.16526740E+03 0.46923846E+03 0.75000000E+00 0.0000E+00 0.9000E+01
#aMCatNLO 2  0  0  1  5 0.24868970D+03 0.00000000D+00  -5  6  0 0.00000000D+00 0.00000000D+00 0.00000000D+00 0.00000000D+00 0.00000000D+00
  <mgrwgt>
 0.5573407791D-02    1    2    0
 0.223908853122078D+03 0.000000000000000D+00 0.000000000000000D+00 0.223908853122078D+03
 0.223908853122078D+03 0.000000000000000D+00 0.000000000000000D+00 -.223908853122078D+03
 0.142178306037850D+03 0.520210705425726D+02 0.433666876894265D+02 -.167610448512937D+01
 0.154179196370946D+03 -.597448293980871D+02 0.103745178443774D+03 -.335181526855778D+02
 0.151460203835359D+03 0.772375885551452D+01 -.147111866133200D+03 0.351942571707072D+02
 0.000000000000000D+00 -.000000000000000D+00 0.000000000000000D+00 0.000000000000000D+00
 0.170405972382717D+04 0.000000000000000D+00 0.000000000000000D+00 0.170405972382717D+04
 0.348290489330817D+03 0.000000000000000D+00 0.000000000000000D+00 -.348290489330817D+03
 0.157614505147038D+03 0.544144707507397D+02 -.790796325194903D+02 -.167610448512937D+01
 0.113079912363856D+03 -.576111624700768D+02 -.541319088986965D+01 -.335181526855778D+02
 0.356530863477346D+03 0.117793128277659D+02 -.354593948994352D+03 0.351942571707072D+02
 0.142512493216975D+04 -.858262110842878D+01 0.439086772403712D+03 0.135576923449635D+04
0.170104014417D-03 0.000000000000D+00 0.000000000000D+00 0.101230878060D-06 0.559204093801D-09  6 21 2 25 23 2 21 4 0.28656233D-01 0.49020825D+00 0.28066893D+06 0.28066893D+06 0.28066893D+06 0.11245155D+01  1  2  1  1  6  1       21 0.557340779129D-02 0.100000000000D+01
  </mgrwgt>
  </event>
  <event>
  5     66 0.41063134E-03 0.54472691E+02 0.75467711E-02 0.11680869E+00
       21 -1    0    0  501  502 0.00000000E+00 0.00000000E+00 0.22788248E+02 0.22800587E+02 0.75000000E+00 0.0000E+00 0.9000E+01
        2 -1    0    0  502    0 0.00000000E+00 0.00000000E+00 -.33745043E+04 0.33745043E+04 0.32000000E+00 0.0000E+00 0.9000E+01
       25  1    1    2    0    0 0.40716506E+02 0.53389543E+02 -.17514559E+04 0.17571941E+04 0.12500000E+03 0.0000E+00 0.9000E+01
       23  1    1    2    0    0 0.86517472E+01 -.76412268E+02 -.15759515E+04 0.15804594E+04 0.91188000E+02 0.0000E+00 0.9000E+01
        2  1    1    2  501    0 -.49368253E+02 0.23022725E+02 -.24308613E+02 0.59651331E+02 0.32000000E+00 0.0000E+00 0.9000E+01
#aMCatNLO 1  0  0  1  2 0.34378622D+02 0.00000000D+00  -5  6  0 0.00000000D+00 0.00000000D+00 0.00000000D+00 0.00000000D+00 0.00000000D+00
  <mgrwgt>
 0.4627167901D-01   23    2    0
 0.277344598424071D+03 0.000000000000000D+00 0.000000000000000D+00 0.277344598424071D+03
 0.277344598424071D+03 0.000000000000000D+00 0.000000000000000D+00 -.277344598424071D+03
 0.179093529808802D+03 0.407165227162620D+02 0.533895349053700D+02 -.109275865404309D+03
 0.157134336134201D+03 0.865176221146716D+01 -.764122747396046D+02 -.102285187236918D+03
 0.218461330905138D+03 -.493682849277292D+02 0.230227398342345D+02 0.211561052641227D+03
 0.000000000000000D+00 0.000000000000000D+00 -.000000000000000D+00 0.000000000000000D+00
 0.295111148667875D+03 0.000000000000000D+00 0.000000000000000D+00 0.295111148667875D+03
 0.295021129366979D+03 0.000000000000000D+00 0.000000000000000D+00 -.295021129366979D+03
 0.180247584476742D+03 0.333536087028026D+02 0.617293587876949D+02 -.109275865404309D+03
 0.153530701288412D+03 0.228622298816193D+01 -.692021571229445D+02 -.102285187236918D+03
 0.221975252034406D+03 -.583928483846923D+02 0.332446804556185D+02 0.211561052641227D+03
 0.343787402352933D+02 0.227530166937278D+02 -.257718821203688D+02 0.900193008958330D-01
0.936533994433D-05 0.000000000000D+00 0.000000000000D+00 0.191790130437D-05 0.000000000000D+00  6 21 2 25 23 2 21 2 0.35068346D-02 0.51915546D+00 0.24908667D+05 0.24908667D+05 0.24908667D+05 0.12234681D+01  1  2  2  1  6  1       21 0.113648954615D-01 0.100000000000D+01
0.107159150164D-05 0.494222566861D-06 -.189059230736D-07 0.191790130437D-05 0.000000000000D+00  6 21 2 25 23 2 21 4 0.35068346D-02 0.51915546D+00 0.24908667D+05 0.24908667D+05 0.24908667D+05 0.12234681D+01  1  2  3  1  6  1       21 0.194650918947D-02 0.100000000000D+01
0.963124157409D-06 0.000000000000D+00 0.000000000000D+00 0.191790130437D-05 0.000000000000D+00  6 21 2 25 23 2 21 4 0.35068346D-02 0.51915546D+00 0.24908667D+05 0.24908667D+05 0.24908667D+05 0.12234681D+01  1  2 15  1  6  1       21 0.174948198090D-02 0.100000000000D+01
0.118393376230D-04 0.000000000000D+00 0.000000000000D+00 0.188072799871D-05 0.000000000000D+00  6 21 2 25 23 2 21 4 0.38363010D-02 0.51915546D+00 0.32294587D+05 0.32294587D+05 0.32294587D+05 0.12115533D+01  1  2 12  1  6  1       21 0.175546269494D-01 0.100000000000D+01
-.564146281230D-05 0.000000000000D+00 0.000000000000D+00 0.191790130437D-05 0.000000000000D+00  6 21 2 25 23 2 21 4 0.35068346D-02 0.51915546D+00 0.24908667D+05 0.24908667D+05 0.24908667D+05 0.12234681D+01  1  2  4  1  6  1       21 -.102475236034D-01 0.100000000000D+01
-.527724738648D-04 0.000000000000D+00 -.197053206219D-04 0.191790130437D-05 0.000000000000D+00  6 21 2 25 23 2 21 4 0.41687258D-02 0.51915546D+00 0.24908667D+05 0.24908667D+05 0.24908667D+05 0.12234681D+01  1  2  5  1  6  1       21 -.718744075005D-01 0.100000000000D+01
0.531681948989D-04 0.000000000000D+00 0.185753168092D-04 0.191790130437D-05 0.000000000000D+00  6 21 2 25 23 2 21 4 0.35068346D-02 0.51915546D+00 0.24908667D+05 0.24908667D+05 0.24908667D+05 0.12234681D+01  1  2  6  1  6  1       21 0.965782014884D-01 0.100000000000D+01
0.268052230778D-06 0.000000000000D+00 0.000000000000D+00 0.188072799871D-05 0.000000000000D+00  6 -1 2 25 23 2 -1 4 0.38363010D-02 0.51915546D+00 0.32294587D+05 0.32294587D+05 0.32294587D+05 0.12115533D+01  1  2 12  4  6  1       21 0.217539041815D-04 0.100000000000D+01
0.268052230778D-06 0.000000000000D+00 0.000000000000D+00 0.188072799871D-05 0.000000000000D+00  6 -3 2 25 23 2 -3 4 0.38363010D-02 0.51915546D+00 0.32294587D+05 0.32294587D+05 0.32294587D+05 0.12115533D+01  1  2 12  4  6  1       21 0.160552949748D-04 0.100000000000D+01
-.179901689611D-05 0.000000000000D+00 -.949501648642D-06 0.191790130437D-05 0.000000000000D+00  6 -1 2 25 23 2 -1 4 0.41687258D-02 0.51915546D+00 0.24908667D+05 0.24908667D+05 0.24908667D+05 0.12234681D+01  1  2  5  4  6  1       21 -.135675153493D-03 0.100000000000D+01
-.179901689611D-05 0.000000000000D+00 -.949501648642D-06 0.191790130437D-05 0.000000000000D+00  6 -3 2 25 23 2 -3 4 0.41687258D-02 0.51915546D+00 0.24908667D+05 0.24908667D+05 0.24908667D+05 0.12234681D+01  1  2  5  4  6  1       21 -.988144611833D-04 0.100000000000D+01
0.268052230778D-06 0.000000000000D+00 0.000000000000D+00 0.188072799871D-05 0.000000000000D+00  6 1 2 25 23 2 1 4 0.38363010D-02 0.51915546D+00 0.32294587D+05 0.32294587D+05 0.32294587D+05 0.12115533D+01  1  2 12  5  6  1       21 0.238601463956D-04 0.100000000000D+01
0.268052230778D-06 0.000000000000D+00 0.000000000000D+00 0.188072799871D-05 0.000000000000D+00  6 3 2 25 23 2 3 4 0.38363010D-02 0.51915546D+00 0.32294587D+05 0.32294587D+05 0.32294587D+05 0.12115533D+01  1  2 12  5  6  1       21 0.160539722699D-04 0.100000000000D+01
-.179901689611D-05 0.000000000000D+00 -.949501648642D-06 0.191790130437D-05 0.000000000000D+00  6 1 2 25 23 2 1 4 0.41687258D-02 0.51915546D+00 0.24908667D+05 0.24908667D+05 0.24908667D+05 0.12234681D+01  1  2  5  5  6  1       21 -.150007402936D-03 0.100000000000D+01
-.179901689611D-05 0.000000000000D+00 -.949501648642D-06 0.191790130437D-05 0.000000000000D+00  6 3 2 25 23 2 3 4 0.41687258D-02 0.51915546D+00 0.24908667D+05 0.24908667D+05 0.24908667D+05 0.12234681D+01  1  2  5  5  6  1       21 -.988057568481D-04 0.100000000000D+01
0.268052230778D-06 0.000000000000D+00 0.000000000000D+00 0.188072799871D-05 0.000000000000D+00  6 -2 2 25 23 2 -2 4 0.38363010D-02 0.51915546D+00 0.32294587D+05 0.32294587D+05 0.32294587D+05 0.12115533D+01  1  2 12  6  6  1       21 0.213797208237D-04 0.100000000000D+01
-.179901689611D-05 0.000000000000D+00 -.949501648642D-06 0.191790130437D-05 0.000000000000D+00  6 -2 2 25 23 2 -2 4 0.41687258D-02 0.51915546D+00 0.24908667D+05 0.24908667D+05 0.24908667D+05 0.12234681D+01  1  2  5  6  6  1       21 -.133133703734D-03 0.100000000000D+01
0.268052230778D-06 0.000000000000D+00 0.000000000000D+00 0.188072799871D-05 0.000000000000D+00  6 2 2 25 23 2 2 4 0.38363010D-02 0.51915546D+00 0.32294587D+05 0.32294587D+05 0.32294587D+05 0.12115533D+01  1  2 12  7  6  1       21 0.252847337146D-04 0.100000000000D+01
-.179901689611D-05 0.000000000000D+00 -.949501648642D-06 0.191790130437D-05 0.000000000000D+00  6 2 2 25 23 2 2 4 0.41687258D-02 0.51915546D+00 0.24908667D+05 0.24908667D+05 0.24908667D+05 0.12234681D+01  1  2  5  7  6  1       21 -.159675729912D-03 0.100000000000D+01
0.268052230778D-06 0.000000000000D+00 0.000000000000D+00 0.188072799871D-05 0.000000000000D+00  6 -4 2 25 23 2 -4 4 0.38363010D-02 0.51915546D+00 0.32294587D+05 0.32294587D+05 0.32294587D+05 0.12115533D+01  1  2 12  8  6  1       21 0.144672517052D-04 0.100000000000D+01
-.179901689611D-05 0.000000000000D+00 -.949501648642D-06 0.191790130437D-05 0.000000000000D+00  6 -4 2 25 23 2 -4 4 0.41687258D-02 0.51915546D+00 0.24908667D+05 0.24908667D+05 0.24908667D+05 0.12234681D+01  1  2  5  8  6  1       21 -.886575141818D-04 0.100000000000D+01
0.268052230778D-06 0.000000000000D+00 0.000000000000D+00 0.188072799871D-05 0.000000000000D+00  6 4 2 25 23 2 4 4 0.38363010D-02 0.51915546D+00 0.32294587D+05 0.32294587D+05 0.32294587D+05 0.12115533D+01  1  2 12  9  6  1       21 0.144672517052D-04 0.100000000000D+01
-.179901689611D-05 0.000000000000D+00 -.949501648642D-06 0.191790130437D-05 0.000000000000D+00  6 4 2 25 23 2 4 4 0.41687258D-02 0.51915546D+00 0.24908667D+05 0.24908667D+05 0.24908667D+05 0.12234681D+01  1  2  5  9  6  1       21 -.886575141818D-04 0.100000000000D+01
  </mgrwgt>
  </event>
  <event>
  6     66 -.41063134E-03 0.17501423E+03 0.75467711E-02 0.11011724E+00
       21 -1    0    0  503  502 0.00000000E+00 0.00000000E+00 0.19567001E+03 0.19567145E+03 0.75000000E+00 0.0000E+00 0.9000E+01
        2 -1    0    0  502    0 0.00000000E+00 0.00000000E+00 -.54679544E+03 0.54679553E+03 0.32000000E+00 0.0000E+00 0.9000E+01
       25  1    1    2    0    0 -.86549834E+01 0.18871773E+02 -.91869726E+02 0.15651230E+03 0.12500000E+03 0.0000E+00 0.9000E+01
       23  1    1    2    0    0 0.18860586E+03 -.50706353E+02 -.31344497E+03 0.38040282E+03 0.91188000E+02 0.0000E+00 0.9000E+01
        2  1    1    2  501    0 -.17660223E+03 0.46869918E+02 0.47850679E+02 0.18887807E+03 0.32000000E+00 0.0000E+00 0.9000E+01
       21  1    1    2  503  501 -.33486515E+01 -.15035338E+02 0.63385923E+01 0.16673785E+02 0.75000000E+00 0.0000E+00 0.9000E+01
#aMCatNLO 2  0  0  1  2 0.15403728D+02 0.00000000D+00  -5  6  0 0.00000000D+00 0.00000000D+00 0.00000000D+00 0.00000000D+00 0.00000000D+00
  <mgrwgt>
 -.1283649557D-01    4    2    0
 0.315736423732268D+03 0.000000000000000D+00 0.000000000000000D+00 0.315736423732268D+03
 0.315736423732268D+03 0.000000000000000D+00 0.000000000000000D+00 -.315736423732268D+03
 0.127480821571772D+03 -.933184158693697D+01 0.158325551552205D+02 -.169884313127257D+02
 0.259994301830291D+03 0.187228155118881D+03 -.568925108692118D+02 -.144881488734750D+03
 0.243997724062473D+03 -.177896313531944D+03 0.410599557139914D+02 0.161869920047476D+03
 0.000000000000000D+00 -.000000000000000D+00 -.000000000000000D+00 0.000000000000000D+00
 0.335556251990940D+03 0.000000000000000D+00 0.000000000000000D+00 0.335556251990940D+03
 0.318837494650225D+03 0.000000000000000D+00 0.000000000000000D+00 -.318837494650225D+03
 0.127846230028476D+03 -.865495248621252D+01 0.188717654576427D+02 -.169884313127257D+02
 0.259709891623175D+03 0.188605925715238D+03 -.507063651825075D+02 -.144881488734750D+03
 0.244104572024214D+03 -.176602321680360D+03 0.468699375298827D+02 0.161869920047476D+03
 0.227330529652993D+02 -.334865154866573D+01 -.150353378050180D+02 0.167187573407152D+02
-.135180885230D-04 0.000000000000D+00 0.000000000000D+00 0.791546380874D-07 0.000000000000D+00  6 21 2 25 23 2 21 4 0.30236340D-01 0.83302698D-01 0.73001239D+05 0.73001239D+05 0.73001239D+05 0.11763392D+01  1  2 13  1  6  1       21 -.189878108226D-01 0.100000000000D+01
-.894590964941D-05 0.000000000000D+00 0.000000000000D+00 0.791546380874D-07 0.000000000000D+00  6 21 2 25 23 2 21 4 0.31158227D-01 0.83302698D-01 0.73001239D+05 0.73001239D+05 0.73001239D+05 0.11763392D+01  1  2 13  1  6  1       21 -.118437509867D-01 0.100000000000D+01
-.291886012443D-05 0.000000000000D+00 0.000000000000D+00 0.794807474376D-07 0.000000000000D+00  6 21 2 25 23 2 21 4 0.28324587D-01 0.83302698D-01 0.68854350D+05 0.68854350D+05 0.68854350D+05 0.11787600D+01  1  2  8  1  6  1       21 -.470579783077D-02 0.100000000000D+01
0.162012106901D-04 0.000000000000D+00 0.000000000000D+00 0.794807474376D-07 0.417546124544D-08  6 21 2 25 23 2 21 4 0.30102616D-01 0.84120872D-01 0.73001239D+05 0.73001239D+05 0.73001239D+05 0.11763392D+01  1  2  1  1  6  1       21 0.227008640726D-01 0.100000000000D+01
  </mgrwgt>
  </event>
  <event>
  6     66 0.41063134E-03 0.32284511E+02 0.75467711E-02 0.11914838E+00
       21 -1    0    0  501  502 0.00000000E+00 0.00000000E+00 0.76862204E+02 0.76865863E+02 0.75000000E+00 0.0000E+00 0.9000E+01
        2 -1    0    0  502    0 -.00000000E+00 -.00000000E+00 -.91920541E+03 0.91920547E+03 0.32000000E+00 0.0000E+00 0.9000E+01
       25  1    1    2    0    0 -.15972852E+02 -.88116881E+02 -.29665989E+02 0.15660392E+03 0.12500000E+03 0.0000E+00 0.9000E+01
       23  1    1    2    0    0 0.58319883E+00 0.51199016E+02 -.23537346E+03 0.25756086E+03 0.91188000E+02 0.0000E+00 0.9000E+01
        2  1    1    2  503    0 0.29055532E+02 0.28117833E+02 -.53585490E+03 0.53737828E+03 0.32000000E+00 0.0000E+00 0.9000E+01
       21  1    1    2  501  503 -.13665879E+02 0.88000312E+01 -.41448857E+02 0.44528272E+02 0.75000000E+00 0.0000E+00 0.9000E+01
#aMCatNLO 2  0  0  5  1 0.16100548D+02 0.00000000D+00  -5  6  0 0.00000000D+00 0.00000000D+00 0.00000000D+00 0.00000000D+00 0.00000000D+00
  <mgrwgt>
 0.7111730810D-02    3    2    0
 0.265808208935299D+03 0.000000000000000D+00 0.000000000000000D+00 0.265808208935299D+03
 0.265808208935299D+03 -.000000000000000D+00 -.000000000000000D+00 -.265808208935299D+03
 0.250814878352741D+03 -.164581576803289D+02 -.892810689884408D+02 0.197588266273964D+03
 0.108751519836799D+03 0.370050645227737D+00 0.506877004670991D+02 -.306962832716177D+02
 0.172050019681058D+03 0.160881070351011D+02 0.385933685213417D+02 -.166891983002346D+03
 0.000000000000000D+00 0.000000000000000D+00 0.000000000000000D+00 0.000000000000000D+00
 0.265808208935299D+03 0.000000000000000D+00 0.000000000000000D+00 0.265808208935299D+03
 0.265808208935299D+03 -.000000000000000D+00 -.000000000000000D+00 -.265808208935299D+03
 0.246402181504467D+03 -.159711256854519D+02 -.881127397860703D+02 0.192535979188027D+03
 0.109638231870043D+03 0.583966870196009D+00 0.512008588943076D+02 -.329153698865587D+02
 0.157767566998324D+03 0.291105420554309D+02 0.280779142121686D+02 -.152495286062566D+03
 0.178084374977630D+02 -.137233832401751D+02 0.883396667959398D+01 -.712532323890189D+01
-.242725965172D-05 0.000000000000D+00 0.000000000000D+00 0.279354619061D-07 0.000000000000D+00  6 21 2 25 23 2 21 4 0.11825240D-01 0.14141650D+00 0.24823942D+05 0.24823942D+05 0.24823942D+05 0.12236268D+01  1  2 13  3  6  5        2 -.123651863324D-01 0.100000000000D+01
-.983694992957D-06 0.000000000000D+00 0.000000000000D+00 0.281371423797D-07 0.000000000000D+00  6 21 2 25 23 2 21 4 0.11825240D-01 0.14141650D+00 0.22594785D+05 0.22594785D+05 0.22594785D+05 0.12280359D+01  1  2  8  3  6  5        2 -.509000217487D-02 0.100000000000D+01
0.482243376067D-05 0.000000000000D+00 0.000000000000D+00 0.281371423797D-07 0.180915936087D-08  6 21 2 25 23 2 21 4 0.11825240D-01 0.14141650D+00 0.24823942D+05 0.24823942D+05 0.24823942D+05 0.12236268D+01  1  2  1  3  6  5        2 0.245669193175D-01 0.100000000000D+01
  </mgrwgt>
  </event>
  <event>
  6     66 0.41063134E-03 0.10164550E+03 0.75467711E-02 0.11582573E+00
       21 -1    0    0  501  502 0.00000000E+00 0.00000000E+00 0.56861037E+02 0.56865984E+02 0.75000000E+00 0.0000E+00 0.9000E+01
        2 -1    0    0  502    0 -.00000000E+00 -.00000000E+00 -.88277441E+03 0.88277446E+03 0.32000000E+00 0.0000E+00 0.9000E+01
       25  1    1    2    0    0 -.42827188E+01 0.71934268E+01 -.34413732E+03 0.36623159E+03 0.12500000E+03 0.0000E+00 0.9000E+01
       23  1    1    2    0    0 -.49342645E+02 -.89535376E+02 -.40286774E+03 0.42552197E+03 0.91188000E+02 0.0000E+00 0.9000E+01
        2  1    1    2  503    0 0.64010439E+02 0.85927777E+02 -.52594430E+02 0.11936162E+03 0.32000000E+00 0.0000E+00 0.9000E+01
       21  1    1    2  501  503 -.10385076E+02 -.35858273E+01 -.26313884E+02 0.28525269E+02 0.75000000E+00 0.0000E+00 0.9000E+01
#aMCatNLO 2  0  0  5  1 0.82115707D+01 0.00000000D+00  -5  6  0 0.00000000D+00 0.00000000D+00 0.00000000D+00 0.00000000D+00 0.00000000D+00
  <mgrwgt>
 0.1122852234D-01    2    2    0
 0.224048698973464D+03 0.000000000000000D+00 0.000000000000000D+00 0.224048698973464D+03
 0.224048698973464D+03 -.000000000000000D+00 -.000000000000000D+00 -.224048698973464D+03
 0.135206632468193D+03 -.646766069536562D+01 0.383844013757679D+01 -.509830286058880D+02
 0.154900556216458D+03 -.518182892564184D+02 -.933367376509312D+02 -.654373691050262D+02
 0.157990209262278D+03 0.582859499517841D+02 0.894982975133544D+02 0.116420397710914D+03
 0.000000000000000D+00 -.000000000000000D+00 0.000000000000000D+00 0.000000000000000D+00
 0.224048698973464D+03 0.000000000000000D+00 0.000000000000000D+00 0.224048698973464D+03
 0.224048698973464D+03 -.000000000000000D+00 -.000000000000000D+00 -.224048698973464D+03
 0.133668295901855D+03 -.427583519396794D+01 0.720399651923858D+01 -.466050747971789D+02
 0.149736874477932D+03 -.493349335440656D+02 -.895235355231542D+02 -.604771126464979D+02
 0.153354785895822D+03 0.640364491868576D+02 0.859232580931462D+02 0.109700579995509D+03
 0.113374416713192D+02 -.104256804488241D+02 -.360371908923053D+01 -.261839255183170D+01
-.131261781345D-05 0.000000000000D+00 0.000000000000D+00 0.261888138222D-06 0.000000000000D+00  6 21 2 25 23 2 21 4 0.87482368D-02 0.13581183D+00 0.34676108D+05 0.34676108D+05 0.34676108D+05 0.12083508D+01  1  2  8  3  6  5        2 -.113647335260D-01 0.100000000000D+01
0.262713036326D-05 0.000000000000D+00 0.000000000000D+00 0.261888138222D-06 0.177630772910D-07  6 21 2 25 23 2 21 4 0.87482368D-02 0.13581183D+00 0.36186081D+05 0.36186081D+05 0.36186081D+05 0.12064448D+01  1  2  1  3  6  5        2 0.225932558630D-01 0.100000000000D+01
  </mgrwgt>
  </event>
  <event>
  6     66 0.41063134E-03 0.17152056E+02 0.75467711E-02 0.12049441E+00
       21 -1    0    0  501  503 0.00000000E+00 0.00000000E+00 0.44671467E+03 0.44671530E+03 0.75000000E+00 0.0000E+00 0.9000E+01
        2 -1    0    0  502    0 0.00000000E+00 0.00000000E+00 -.77867641E+03 0.77867647E+03 0.32000000E+00 0.0000E+00 0.9000E+01
       25  1    1    2    0    0 -.67270902E+02 0.97577172E+01 -.16326551E+03 0.21656688E+03 0.12500000E+03 0.0000E+00 0.9000E+01
       23  1    1    2    0    0 0.80857046E+02 -.56976840E+01 -.57495020E+03 0.58775277E+03 0.91188000E+02 0.0000E+00 0.9000E+01
        2  1    1    2  501    0 0.48975168E+01 0.58004032E+01 -.51213581E+01 0.91630266E+01 0.32000000E+00 0.0000E+00 0.9000E+01
       21  1    1    2  502  503 -.18483661E+02 -.98604365E+01 0.41137534E+03 0.41190910E+03 0.75000000E+00 0.0000E+00 0.9000E+01
#aMCatNLO 2  0  0  1  1 0.11318169D+02 0.00000000D+00  -5  6  0 0.00000000D+00 0.00000000D+00 0.00000000D+00 0.00000000D+00 0.00000000D+00
  <mgrwgt>
 0.1720572333D+00    1    2    0
 0.164897834521308D+03 0.000000000000000D+00 0.000000000000000D+00 0.164897834521308D+03
 0.164897834521308D+03 0.000000000000000D+00 0.000000000000000D+00 -.164897834521308D+03
 0.169678164290863D+03 -.766653716894053D+02 0.474532453971895D+01 0.852383840523459D+02
 0.149507000584824D+03 0.723719652876929D+02 -.102248583175784D+02 -.932461408995190D+02
 0.106105041669288D+02 0.429340640171241D+01 0.547953377785943D+01 0.800775684717305D+01
 0.000000000000000D+00 -.000000000000000D+00 -.000000000000000D+00 0.000000000000000D+00
 0.210450183358424D+04 0.000000000000000D+00 0.000000000000000D+00 0.210450183358424D+04
 0.165286762994488D+03 0.000000000000000D+00 0.000000000000000D+00 -.165286762994488D+03
 0.165865257232919D+03 -.672719388213505D+02 0.975641780079655D+01 0.852383840523459D+02
 0.153558766920312D+03 0.808561964156252D+02 -.569879484027474D+01 -.932461408995190D+02
 0.110363475168150D+02 0.489940322672117D+01 0.580281352539061D+01 0.800775684717305D+01
 0.193932822490869D+04 -.184836608209959D+02 -.986043648591242D+01 0.193921507058976D+04
0.812849235223D-03 0.000000000000D+00 0.000000000000D+00 0.138097120032D-05 0.717142620536D-05  6 21 2 25 23 2 21 4 0.68725357D-01 0.11979637D+00 0.21438404D+05 0.21438404D+05 0.21438404D+05 0.12305192D+01  1  2  1  1  6  1       21 0.172057233280D+00 0.100000000000D+01
  </mgrwgt>
  </event>
  <event>
  5     66 0.41063134E-03 0.23606423E+02 0.75467711E-02 0.12226711E+00
       21 -1    0    0  501  502 0.00000000E+00 0.00000000E+00 0.11923281E+03 0.11923517E+03 0.75000000E+00 0.0000E+00 0.9000E+01
        2 -1    0    0  502    0 0.00000000E+00 0.00000000E+00 -.14358991E+03 0.14359027E+03 0.32000000E+00 0.0000E+00 0.9000E+01
       25  1    1    2    0    0 0.50949352E+02 0.24896509E+01 -.37337300E+02 0.14007537E+03 0.12500000E+03 0.0000E+00 0.9000E+01
       23  1    1    2    0    0 -.33552365E+02 0.13463876E+02 0.14180561E+02 0.99112950E+02 0.91188000E+02 0.0000E+00 0.9000E+01
        2  1    1    2  501    0 -.17396988E+02 -.15953527E+02 -.12003668E+01 0.23637121E+02 0.32000000E+00 0.0000E+00 0.9000E+01
#aMCatNLO 1  0  0  1  2 0.96736746D+01 0.00000000D+00  -5  6  0 0.00000000D+00 0.00000000D+00 0.00000000D+00 0.00000000D+00 0.00000000D+00
  <mgrwgt>
 0.6448712718D-01   41    2    0
 0.130847184566534D+03 0.000000000000000D+00 0.000000000000000D+00 0.130847184566534D+03
 0.130847184566534D+03 0.000000000000000D+00 0.000000000000000D+00 -.130847184566534D+03
 0.137205966406794D+03 0.509501888955991D+02 0.249041812661770D+01 -.244612609380554D+02
 0.100861039033446D+03 -.335517496431244D+02 0.134644403320926D+02 0.234667167139945D+02
 0.236273636928275D+02 -.173984392524746D+02 -.159548584587103D+02 0.994544224060938D+00
 0.000000000000000D+00 0.000000000000000D+00 0.000000000000000D+00 0.000000000000000D+00
 0.149144996047195D+03 0.000000000000000D+00 0.000000000000000D+00 0.149144996047195D+03
 0.132221395410153D+03 0.000000000000000D+00 0.000000000000000D+00 -.132221395410153D+03
 0.135866378911227D+03 0.472797633698681D+02 -.971394594726741D+00 -.244612609380554D+02
 0.101490685929464D+03 -.362716037375205D+02 0.108991722349267D+02 0.234667167139945D+02
 0.245160395764374D+02 -.180455453373082D+02 -.165651855340949D+02 0.994544224060938D+00
 0.194932870402201D+02 0.703738570496057D+01 0.663740789389495D+01 0.169236006370421D+02
0.469265882546D-06 0.000000000000D+00 0.000000000000D+00 0.450533371102D-06 0.000000000000D+00  6 21 2 25 23 2 21 2 0.18343718D-01 0.22090965D-01 0.16474675D+05 0.16474675D+05 0.16474675D+05 0.12432063D+01  1  2  2  1  6  1       21 0.590938594063D-02 0.100000000000D+01
0.167604780868D-07 0.247638409700D-07 -.947312615366D-09 0.450533371102D-06 0.000000000000D+00  6 21 2 25 23 2 21 4 0.18343718D-01 0.22090965D-01 0.16474675D+05 0.16474675D+05 0.16474675D+05 0.12432063D+01  1  2  3  1  6  1       21 0.326209199561D-03 0.100000000000D+01
0.531928912478D-07 0.000000000000D+00 0.000000000000D+00 0.450533371102D-06 0.000000000000D+00  6 21 2 25 23 2 21 4 0.18343718D-01 0.22090965D-01 0.16474675D+05 0.16474675D+05 0.16474675D+05 0.12432063D+01  1  2 15  1  6  1       21 0.103529328856D-02 0.100000000000D+01
0.407014697189D-05 0.000000000000D+00 0.000000000000D+00 0.447878324275D-06 0.000000000000D+00  6 21 2 25 23 2 21 4 0.20996810D-01 0.22090965D-01 0.17763053D+05 0.17763053D+05 0.17763053D+05 0.12395377D+01  1  2 12  1  6  1       21 0.610695038841D-01 0.100000000000D+01
0.289173575748D-05 0.000000000000D+00 0.000000000000D+00 0.447878324275D-06 0.000000000000D+00  6 21 2 25 23 2 21 4 0.22020923D-01 0.22090965D-01 0.17763053D+05 0.17763053D+05 0.17763053D+05 0.12395377D+01  1  2 12  1  6  1       21 0.397041144972D-01 0.100000000000D+01
-.456595836120D-05 0.000000000000D+00 0.000000000000D+00 0.450533371102D-06 0.000000000000D+00  6 21 2 25 23 2 21 4 0.18343718D-01 0.22090965D-01 0.16474675D+05 0.16474675D+05 0.16474675D+05 0.12432063D+01  1  2  4  1  6  1       21 -.888672515502D-01 0.100000000000D+01
-.116077855441D-04 0.000000000000D+00 -.116452717911D-05 0.450533371102D-06 0.000000000000D+00  6 21 2 25 23 2 21 4 0.21082505D-01 0.22090965D-01 0.16474675D+05 0.16474675D+05 0.16474675D+05 0.12432063D+01  1  2  5  1  6  1       21 -.174746978920D+00 0.100000000000D+01
0.113543276847D-04 0.000000000000D+00 0.112063447005D-05 0.450533371102D-06 0.000000000000D+00  6 21 2 25 23 2 21 4 0.18343718D-01 0.22090965D-01 0.16474675D+05 0.16474675D+05 0.16474675D+05 0.12432063D+01  1  2  6  1  6  1       21 0.220989289589D+00 0.100000000000D+01
0.732274672031D-11 0.000000000000D+00 0.000000000000D+00 0.450533371102D-06 0.720798382310D-07  6 21 2 25 23 2 21 4 0.20908923D-01 0.22322973D-01 0.17763053D+05 0.17763053D+05 0.17763053D+05 0.12395377D+01  1  2 11  1  6  1       21 0.109448021497D-06 0.100000000000D+01
0.146715915166D-06 0.000000000000D+00 0.000000000000D+00 0.447878324275D-06 0.000000000000D+00  6 -1 2 25 23 2 -1 4 0.20996810D-01 0.22090965D-01 0.17763053D+05 0.17763053D+05 0.17763053D+05 0.12395377D+01  1  2 12  4  6  1       21 0.173827260898D-03 0.100000000000D+01
0.146715915166D-06 0.000000000000D+00 0.000000000000D+00 0.447878324275D-06 0.000000000000D+00  6 -3 2 25 23 2 -3 4 0.20996810D-01 0.22090965D-01 0.17763053D+05 0.17763053D+05 0.17763053D+05 0.12395377D+01  1  2 12  4  6  1       21 0.102653099657D-03 0.100000000000D+01
0.148822862078D-06 0.000000000000D+00 0.000000000000D+00 0.447878324275D-06 0.000000000000D+00  6 -1 2 25 23 2 -1 4 0.22020923D-01 0.22090965D-01 0.17763053D+05 0.17763053D+05 0.17763053D+05 0.12395377D+01  1  2 12  4  6  1       21 0.163262065579D-03 0.100000000000D+01
0.148822862078D-06 0.000000000000D+00 0.000000000000D+00 0.447878324275D-06 0.000000000000D+00  6 -3 2 25 23 2 -3 4 0.22020923D-01 0.22090965D-01 0.17763053D+05 0.17763053D+05 0.17763053D+05 0.12395377D+01  1  2 12  4  6  1       21 0.956899902572D-04 0.100000000000D+01
-.388891838703D-06 0.000000000000D+00 -.434535498155D-07 0.450533371102D-06 0.000000000000D+00  6 -1 2 25 23 2 -1 4 0.21082505D-01 0.22090965D-01 0.16474675D+05 0.16474675D+05 0.16474675D+05 0.12432063D+01  1  2  5  4  6  1       21 -.462117837051D-03 0.100000000000D+01
-.388891838703D-06 0.000000000000D+00 -.434535498155D-07 0.450533371102D-06 0.000000000000D+00  6 -3 2 25 23 2 -3 4 0.21082505D-01 0.22090965D-01 0.16474675D+05 0.16474675D+05 0.16474675D+05 0.12432063D+01  1  2  5  4  6  1       21 -.272213871030D-03 0.100000000000D+01
0.283305939586D-12 0.000000000000D+00 0.000000000000D+00 0.450533371102D-06 0.197585893939D-08  6 -1 2 25 23 2 -1 4 0.20908923D-01 0.22322973D-01 0.17763053D+05 0.17763053D+05 0.17763053D+05 0.12395377D+01  1  2 11  4  6  1       21 0.334015445519D-09 0.100000000000D+01
0.283305939586D-12 0.000000000000D+00 0.000000000000D+00 0.450533371102D-06 0.197585893939D-08  6 -3 2 25 23 2 -3 4 0.20908923D-01 0.22322973D-01 0.17763053D+05 0.17763053D+05 0.17763053D+05 0.12395377D+01  1  2 11  4  6  1       21 0.197381816961D-09 0.100000000000D+01
0.146715915166D-06 0.000000000000D+00 0.000000000000D+00 0.447878324275D-06 0.000000000000D+00  6 1 2 25 23 2 1 4 0.20996810D-01 0.22090965D-01 0.17763053D+05 0.17763053D+05 0.17763053D+05 0.12395377D+01  1  2 12  5  6  1       21 0.265836929568D-03 0.100000000000D+01
0.146715915166D-06 0.000000000000D+00 0.000000000000D+00 0.447878324275D-06 0.000000000000D+00  6 3 2 25 23 2 3 4 0.20996810D-01 0.22090965D-01 0.17763053D+05 0.17763053D+05 0.17763053D+05 0.12395377D+01  1  2 12  5  6  1       21 0.102644137447D-03 0.100000000000D+01
0.148822862078D-06 0.000000000000D+00 0.000000000000D+00 0.447878324275D-06 0.000000000000D+00  6 1 2 25 23 2 1 4 0.22020923D-01 0.22090965D-01 0.17763053D+05 0.17763053D+05 0.17763053D+05 0.12395377D+01  1  2 12  5  6  1       21 0.253890805382D-03 0.100000000000D+01
0.148822862078D-06 0.000000000000D+00 0.000000000000D+00 0.447878324275D-06 0.000000000000D+00  6 3 2 25 23 2 3 4 0.22020923D-01 0.22090965D-01 0.17763053D+05 0.17763053D+05 0.17763053D+05 0.12395377D+01  1  2 12  5  6  1       21 0.956825112425D-04 0.100000000000D+01
-.388891838703D-06 0.000000000000D+00 -.434535498155D-07 0.450533371102D-06 0.000000000000D+00  6 1 2 25 23 2 1 4 0.21082505D-01 0.22090965D-01 0.16474675D+05 0.16474675D+05 0.16474675D+05 0.12432063D+01  1  2  5  5  6  1       21 -.707761638672D-03 0.100000000000D+01
-.388891838703D-06 0.000000000000D+00 -.434535498155D-07 0.450533371102D-06 0.000000000000D+00  6 3 2 25 23 2 3 4 0.21082505D-01 0.22090965D-01 0.16474675D+05 0.16474675D+05 0.16474675D+05 0.12432063D+01  1  2  5  5  6  1       21 -.272189935904D-03 0.100000000000D+01
0.359577537120D-12 0.000000000000D+00 0.000000000000D+00 0.450533371102D-06 0.250779949112D-08  6 1 2 25 23 2 1 4 0.20908923D-01 0.22322973D-01 0.17763053D+05 0.17763053D+05 0.17763053D+05 0.12395377D+01  1  2 11  5  6  1       21 0.647398944152D-09 0.100000000000D+01
0.359577537120D-12 0.000000000000D+00 0.000000000000D+00 0.450533371102D-06 0.250779949112D-08  6 3 2 25 23 2 3 4 0.20908923D-01 0.22322973D-01 0.17763053D+05 0.17763053D+05 0.17763053D+05 0.12395377D+01  1  2 11  5  6  1       21 0.250498870959D-09 0.100000000000D+01
0.146715915166D-06 0.000000000000D+00 0.000000000000D+00 0.447878324275D-06 0.000000000000D+00  6 -2 2 25 23 2 -2 4 0.20996810D-01 0.22090965D-01 0.17763053D+05 0.17763053D+05 0.17763053D+05 0.12395377D+01  1  2 12  6  6  1       21 0.158268609035D-03 0.100000000000D+01
0.148822862078D-06 0.000000000000D+00 0.000000000000D+00 0.447878324275D-06 0.000000000000D+00  6 -2 2 25 23 2 -2 4 0.22020923D-01 0.22090965D-01 0.17763053D+05 0.17763053D+05 0.17763053D+05 0.12395377D+01  1  2 12  6  6  1       21 0.147998822378D-03 0.100000000000D+01
-.388891838703D-06 0.000000000000D+00 -.434535498155D-07 0.450533371102D-06 0.000000000000D+00  6 -2 2 25 23 2 -2 4 0.21082505D-01 0.22090965D-01 0.16474675D+05 0.16474675D+05 0.16474675D+05 0.12432063D+01  1  2  5  6  6  1       21 -.420564319784D-03 0.100000000000D+01
0.161581539369D-11 0.000000000000D+00 0.000000000000D+00 0.450533371102D-06 0.156849736957D-07  6 -2 2 25 23 2 -2 4 0.20908923D-01 0.22322973D-01 0.17763053D+05 0.17763053D+05 0.17763053D+05 0.12395377D+01  1  2 11  6  6  1       21 0.173517659211D-08 0.100000000000D+01
0.146715915166D-06 0.000000000000D+00 0.000000000000D+00 0.447878324275D-06 0.000000000000D+00  6 2 2 25 23 2 2 4 0.20996810D-01 0.22090965D-01 0.17763053D+05 0.17763053D+05 0.17763053D+05 0.12395377D+01  1  2 12  7  6  1       21 0.330610459117D-03 0.100000000000D+01
0.148822862078D-06 0.000000000000D+00 0.000000000000D+00 0.447878324275D-06 0.000000000000D+00  6 2 2 25 23 2 2 4 0.22020923D-01 0.22090965D-01 0.17763053D+05 0.17763053D+05 0.17763053D+05 0.12395377D+01  1  2 12  7  6  1       21 0.317930781449D-03 0.100000000000D+01
-.388891838703D-06 0.000000000000D+00 -.434535498155D-07 0.450533371102D-06 0.000000000000D+00  6 2 2 25 23 2 2 4 0.21082505D-01 0.22090965D-01 0.16474675D+05 0.16474675D+05 0.16474675D+05 0.12432063D+01  1  2  5  7  6  1       21 -.880637486990D-03 0.100000000000D+01
0.530892048798D-12 0.000000000000D+00 0.000000000000D+00 0.450533371102D-06 0.195572110404D-08  6 2 2 25 23 2 2 4 0.20908923D-01 0.22322973D-01 0.17763053D+05 0.17763053D+05 0.17763053D+05 0.12395377D+01  1  2 11  7  6  1       21 0.118802771926D-08 0.100000000000D+01
0.146715915166D-06 0.000000000000D+00 0.000000000000D+00 0.447878324275D-06 0.000000000000D+00  6 -4 2 25 23 2 -4 4 0.20996810D-01 0.22090965D-01 0.17763053D+05 0.17763053D+05 0.17763053D+05 0.12395377D+01  1  2 12  8  6  1       21 0.872268525572D-04 0.100000000000D+01
0.148822862078D-06 0.000000000000D+00 0.000000000000D+00 0.447878324275D-06 0.000000000000D+00  6 -4 2 25 23 2 -4 4 0.22020923D-01 0.22090965D-01 0.17763053D+05 0.17763053D+05 0.17763053D+05 0.12395377D+01  1  2 12  8  6  1       21 0.811606298421D-04 0.100000000000D+01
-.388891838703D-06 0.000000000000D+00 -.434535498155D-07 0.450533371102D-06 0.000000000000D+00  6 -4 2 25 23 2 -4 4 0.21082505D-01 0.22090965D-01 0.16474675D+05 0.16474675D+05 0.16474675D+05 0.12432063D+01  1  2  5  8  6  1       21 -.231069277293D-03 0.100000000000D+01
0.581480645763D-12 0.000000000000D+00 0.000000000000D+00 0.450533371102D-06 0.405541702972D-08  6 -4 2 25 23 2 -4 4 0.20908923D-01 0.22322973D-01 0.17763053D+05 0.17763053D+05 0.17763053D+05 0.12395377D+01  1  2 11  8  6  1       21 0.344298332967D-09 0.100000000000D+01
0.146715915166D-06 0.000000000000D+00 0.000000000000D+00 0.447878324275D-06 0.000000000000D+00  6 4 2 25 23 2 4 4 0.20996810D-01 0.22090965D-01 0.17763053D+05 0.17763053D+05 0.17763053D+05 0.12395377D+01  1  2 12  9  6  1       21 0.872268525572D-04 0.100000000000D+01
0.148822862078D-06 0.000000000000D+00 0.000000000000D+00 0.447878324275D-06 0.000000000000D+00  6 4 2 25 23 2 4 4 0.22020923D-01 0.22090965D-01 0.17763053D+05 0.17763053D+05 0.17763053D+05 0.12395377D+01  1  2 12  9  6  1       21 0.811606298421D-04 0.100000000000D+01
-.388891838703D-06 0.000000000000D+00 -.434535498155D-07 0.450533371102D-06 0.000000000000D+00  6 4 2 25 23 2 4 4 0.21082505D-01 0.22090965D-01 0.16474675D+05 0.16474675D+05 0.16474675D+05 0.12432063D+01  1  2  5  9  6  1       21 -.231069277293D-03 0.100000000000D+01
0.537328388149D-12 0.000000000000D+00 0.000000000000D+00 0.450533371102D-06 0.374748620049D-08  6 4 2 25 23 2 4 4 0.20908923D-01 0.22322973D-01 0.17763053D+05 0.17763053D+05 0.17763053D+05 0.12395377D+01  1  2 11  9  6  1       21 0.318155504647D-09 0.100000000000D+01
  </mgrwgt>
  </event>
  <event>
  5     66 0.41063134E-03 0.27840278E+02 0.75467711E-02 0.11895136E+00
       21 -1    0    0  501  502 0.00000000E+00 0.00000000E+00 0.28025128E+02 0.28035162E+02 0.75000000E+00 0.0000E+00 0.9000E+01
        2 -1    0    0  502    0 0.00000000E+00 0.00000000E+00 -.14447487E+04 0.14447487E+04 0.32000000E+00 0.0000E+00 0.9000E+01
       25  1    1    2    0    0 -.68123501E+02 -.51225805E+02 -.10591413E+04 0.10698926E+04 0.12500000E+03 0.0000E+00 0.9000E+01
       23  1    1    2    0    0 0.58069096E+02 0.77205697E+02 -.34948032E+03 0.37387764E+03 0.91188000E+02 0.0000E+00 0.9000E+01
        2  1    1    2  501    0 0.10054405E+02 -.25979891E+02 -.81018913E+01 0.29013598E+02 0.32000000E+00 0.0000E+00 0.9000E+01
#aMCatNLO 1  0  0  1  5 0.62182718D+01 0.00000000D+00  -5  6  0 0.00000000D+00 0.00000000D+00 0.00000000D+00 0.00000000D+00 0.00000000D+00
  <mgrwgt>
 0.5621815749D-01   41    2    0
 0.201237872301220D+03 0.000000000000000D+00 0.000000000000000D+00 0.201237872301220D+03
 0.201237872301220D+03 0.000000000000000D+00 0.000000000000000D+00 -.201237872301220D+03
 0.186868946551939D+03 -.681235409486344D+02 -.512257027048231D+02 -.109681875150127D+03
 0.137955988372701D+03 0.580690667218412D+02 0.772057721322747D+02 0.372002099913748D+02
 0.776508096778004D+02 0.100544742267932D+02 -.259800694274516D+02 0.724816651587525D+02
 0.000000000000000D+00 0.000000000000000D+00 0.000000000000000D+00 0.000000000000000D+00
 0.275379212669912D+03 0.000000000000000D+00 0.000000000000000D+00 0.275379212669912D+03
 0.201392313677903D+03 0.000000000000000D+00 0.000000000000000D+00 -.201392313677903D+03
 0.188168826755390D+03 -.707920383034224D+02 -.523534233732480D+02 -.109681875150127D+03
 0.136681712669225D+03 0.561149436150071D+02 0.763799496849452D+02 0.372002099913748D+02
 0.776732386279909D+02 0.894930071751229D+01 -.264471214207300D+02 0.724816651587525D+02
 0.742477482952094D+02 0.572779397090300D+01 0.242059510903285D+01 0.739868989920092D+02
0.285399443003D-06 0.000000000000D+00 0.000000000000D+00 0.698900350059D-06 0.000000000000D+00  6 21 2 25 23 2 21 2 0.43123327D-02 0.22226980D+00 0.24335627D+05 0.24335627D+05 0.24335627D+05 0.12245537D+01  1  2  2  1  6  1       21 0.278838964184D-02 0.100000000000D+01
0.349496056364D-07 0.150609423833D-07 -.576139248198D-09 0.698900350059D-06 0.000000000000D+00  6 21 2 25 23 2 21 4 0.43123327D-02 0.22226980D+00 0.24335627D+05 0.24335627D+05 0.24335627D+05 0.12245537D+01  1  2  3  1  6  1       21 0.512033436376D-03 0.100000000000D+01
0.249938172261D-07 0.000000000000D+00 0.000000000000D+00 0.698900350059D-06 0.000000000000D+00  6 21 2 25 23 2 21 4 0.43123327D-02 0.22226980D+00 0.24335627D+05 0.24335627D+05 0.24335627D+05 0.12245537D+01  1  2 15  1  6  1       21 0.366174950744D-03 0.100000000000D+01
0.386486908543D-04 0.000000000000D+00 0.000000000000D+00 0.696688807187D-06 0.000000000000D+00  6 21 2 25 23 2 21 4 0.59023174D-02 0.22226980D+00 0.25369671D+05 0.25369671D+05 0.25369671D+05 0.12226148D+01  1  2 12  1  6  1       21 0.331044685370D+00 0.100000000000D+01
0.361281721768D-04 0.000000000000D+00 0.000000000000D+00 0.696688807187D-06 0.000000000000D+00  6 21 2 25 23 2 21 4 0.60457201D-02 0.22226980D+00 0.25369671D+05 0.25369671D+05 0.25369671D+05 0.12226148D+01  1  2 12  1  6  1       21 0.297054560211D+00 0.100000000000D+01
-.621115900419D-04 0.000000000000D+00 0.000000000000D+00 0.698900350059D-06 0.000000000000D+00  6 21 2 25 23 2 21 4 0.43123327D-02 0.22226980D+00 0.24335627D+05 0.24335627D+05 0.24335627D+05 0.12245537D+01  1  2  4  1  6  1       21 -.909973383357D+00 0.100000000000D+01
-.924766848395D-04 0.000000000000D+00 -.402771464351D-06 0.698900350059D-06 0.000000000000D+00  6 21 2 25 23 2 21 4 0.59033664D-02 0.22226980D+00 0.24335627D+05 0.24335627D+05 0.24335627D+05 0.12245537D+01  1  2  5  1  6  1       21 -.797351767081D+00 0.100000000000D+01
0.698801855143D-04 0.000000000000D+00 0.333210156456D-06 0.698900350059D-06 0.000000000000D+00  6 21 2 25 23 2 21 4 0.43123327D-02 0.22226980D+00 0.24335627D+05 0.24335627D+05 0.24335627D+05 0.12245537D+01  1  2  6  1  6  1       21 0.102378813357D+01 0.100000000000D+01
0.127115761540D-04 0.000000000000D+00 0.000000000000D+00 0.698900350059D-06 0.398193707512D-06  6 21 2 25 23 2 21 4 0.59011099D-02 0.22244038D+00 0.25369671D+05 0.25369671D+05 0.25369671D+05 0.12226148D+01  1  2 11  1  6  1       21 0.108771858576D+00 0.100000000000D+01
0.502378793959D-05 0.000000000000D+00 0.000000000000D+00 0.696688807187D-06 0.000000000000D+00  6 -1 2 25 23 2 -1 4 0.59023174D-02 0.22226980D+00 0.25369671D+05 0.25369671D+05 0.25369671D+05 0.12226148D+01  1  2 12  4  6  1       21 0.255718687661D-02 0.100000000000D+01
0.502378793959D-05 0.000000000000D+00 0.000000000000D+00 0.696688807187D-06 0.000000000000D+00  6 -3 2 25 23 2 -3 4 0.59023174D-02 0.22226980D+00 0.25369671D+05 0.25369671D+05 0.25369671D+05 0.12226148D+01  1  2 12  4  6  1       21 0.179833244745D-02 0.100000000000D+01
0.515585414972D-05 0.000000000000D+00 0.000000000000D+00 0.696688807187D-06 0.000000000000D+00  6 -1 2 25 23 2 -1 4 0.60457201D-02 0.22226980D+00 0.25369671D+05 0.25369671D+05 0.25369671D+05 0.12226148D+01  1  2 12  4  6  1       21 0.253187822976D-02 0.100000000000D+01
0.515585414972D-05 0.000000000000D+00 0.000000000000D+00 0.696688807187D-06 0.000000000000D+00  6 -3 2 25 23 2 -3 4 0.60457201D-02 0.22226980D+00 0.25369671D+05 0.25369671D+05 0.25369671D+05 0.12226148D+01  1  2 12  4  6  1       21 0.177594968160D-02 0.100000000000D+01
-.119958416562D-04 0.000000000000D+00 -.401155872334D-07 0.698900350059D-06 0.000000000000D+00  6 -1 2 25 23 2 -1 4 0.59033664D-02 0.22226980D+00 0.24335627D+05 0.24335627D+05 0.24335627D+05 0.12245537D+01  1  2  5  4  6  1       21 -.614291263796D-02 0.100000000000D+01
-.119958416562D-04 0.000000000000D+00 -.401155872334D-07 0.698900350059D-06 0.000000000000D+00  6 -3 2 25 23 2 -3 4 0.59033664D-02 0.22226980D+00 0.24335627D+05 0.24335627D+05 0.24335627D+05 0.12245537D+01  1  2  5  4  6  1       21 -.431593984024D-02 0.100000000000D+01
0.180961732489D-05 0.000000000000D+00 0.000000000000D+00 0.698900350059D-06 0.523560050446D-07  6 -1 2 25 23 2 -1 4 0.59011099D-02 0.22244038D+00 0.25369671D+05 0.25369671D+05 0.25369671D+05 0.12226148D+01  1  2 11  4  6  1       21 0.920162953952D-03 0.100000000000D+01
0.180961732489D-05 0.000000000000D+00 0.000000000000D+00 0.698900350059D-06 0.523560050446D-07  6 -3 2 25 23 2 -3 4 0.59011099D-02 0.22244038D+00 0.25369671D+05 0.25369671D+05 0.25369671D+05 0.12226148D+01  1  2 11  4  6  1       21 0.647115447187D-03 0.100000000000D+01
0.502378793959D-05 0.000000000000D+00 0.000000000000D+00 0.696688807187D-06 0.000000000000D+00  6 1 2 25 23 2 1 4 0.59023174D-02 0.22226980D+00 0.25369671D+05 0.25369671D+05 0.25369671D+05 0.12226148D+01  1  2 12  5  6  1       21 0.293951068999D-02 0.100000000000D+01
0.502378793959D-05 0.000000000000D+00 0.000000000000D+00 0.696688807187D-06 0.000000000000D+00  6 3 2 25 23 2 3 4 0.59023174D-02 0.22226980D+00 0.25369671D+05 0.25369671D+05 0.25369671D+05 0.12226148D+01  1  2 12  5  6  1       21 0.179814415988D-02 0.100000000000D+01
0.515585414972D-05 0.000000000000D+00 0.000000000000D+00 0.696688807187D-06 0.000000000000D+00  6 1 2 25 23 2 1 4 0.60457201D-02 0.22226980D+00 0.25369671D+05 0.25369671D+05 0.25369671D+05 0.12226148D+01  1  2 12  5  6  1       21 0.291959398389D-02 0.100000000000D+01
0.515585414972D-05 0.000000000000D+00 0.000000000000D+00 0.696688807187D-06 0.000000000000D+00  6 3 2 25 23 2 3 4 0.60457201D-02 0.22226980D+00 0.25369671D+05 0.25369671D+05 0.25369671D+05 0.12226148D+01  1  2 12  5  6  1       21 0.177576175922D-02 0.100000000000D+01
-.119958416562D-04 0.000000000000D+00 -.401155872334D-07 0.698900350059D-06 0.000000000000D+00  6 1 2 25 23 2 1 4 0.59033664D-02 0.22226980D+00 0.24335627D+05 0.24335627D+05 0.24335627D+05 0.12245537D+01  1  2  5  5  6  1       21 -.706196032658D-02 0.100000000000D+01
-.119958416562D-04 0.000000000000D+00 -.401155872334D-07 0.698900350059D-06 0.000000000000D+00  6 3 2 25 23 2 3 4 0.59033664D-02 0.22226980D+00 0.24335627D+05 0.24335627D+05 0.24335627D+05 0.12245537D+01  1  2  5  5  6  1       21 -.431548633399D-02 0.100000000000D+01
0.181131594629D-05 0.000000000000D+00 0.000000000000D+00 0.698900350059D-06 0.524051497059D-07  6 1 2 25 23 2 1 4 0.59011099D-02 0.22244038D+00 0.25369671D+05 0.25369671D+05 0.25369671D+05 0.12226148D+01  1  2 11  5  6  1       21 0.105870083400D-02 0.100000000000D+01
0.181131594629D-05 0.000000000000D+00 0.000000000000D+00 0.698900350059D-06 0.524051497059D-07  6 3 2 25 23 2 3 4 0.59011099D-02 0.22244038D+00 0.25369671D+05 0.25369671D+05 0.25369671D+05 0.12226148D+01  1  2 11  5  6  1       21 0.647655059534D-03 0.100000000000D+01
0.502378793959D-05 0.000000000000D+00 0.000000000000D+00 0.696688807187D-06 0.000000000000D+00  6 -2 2 25 23 2 -2 4 0.59023174D-02 0.22226980D+00 0.25369671D+05 0.25369671D+05 0.25369671D+05 0.12226148D+01  1  2 12  6  6  1       21 0.249013374580D-02 0.100000000000D+01
0.515585414972D-05 0.000000000000D+00 0.000000000000D+00 0.696688807187D-06 0.000000000000D+00  6 -2 2 25 23 2 -2 4 0.60457201D-02 0.22226980D+00 0.25369671D+05 0.25369671D+05 0.25369671D+05 0.12226148D+01  1  2 12  6  6  1       21 0.246392515457D-02 0.100000000000D+01
-.119958416562D-04 0.000000000000D+00 -.401155872334D-07 0.698900350059D-06 0.000000000000D+00  6 -2 2 25 23 2 -2 4 0.59033664D-02 0.22226980D+00 0.24335627D+05 0.24335627D+05 0.24335627D+05 0.12245537D+01  1  2  5  6  6  1       21 -.598170745034D-02 0.100000000000D+01
0.205006259432D-05 0.000000000000D+00 0.000000000000D+00 0.698900350059D-06 0.635507224496D-07  6 -2 2 25 23 2 -2 4 0.59011099D-02 0.22244038D+00 0.25369671D+05 0.25369671D+05 0.25369671D+05 0.12226148D+01  1  2 11  6  6  1       21 0.101509723972D-02 0.100000000000D+01
0.502378793959D-05 0.000000000000D+00 0.000000000000D+00 0.696688807187D-06 0.000000000000D+00  6 2 2 25 23 2 2 4 0.59023174D-02 0.22226980D+00 0.25369671D+05 0.25369671D+05 0.25369671D+05 0.12226148D+01  1  2 12  7  6  1       21 0.319634993342D-02 0.100000000000D+01
0.515585414972D-05 0.000000000000D+00 0.000000000000D+00 0.696688807187D-06 0.000000000000D+00  6 2 2 25 23 2 2 4 0.60457201D-02 0.22226980D+00 0.25369671D+05 0.25369671D+05 0.25369671D+05 0.12226148D+01  1  2 12  7  6  1       21 0.318004649805D-02 0.100000000000D+01
-.119958416562D-04 0.000000000000D+00 -.401155872334D-07 0.698900350059D-06 0.000000000000D+00  6 2 2 25 23 2 2 4 0.59033664D-02 0.22226980D+00 0.24335627D+05 0.24335627D+05 0.24335627D+05 0.12245537D+01  1  2  5  7  6  1       21 -.767923585467D-02 0.100000000000D+01
0.183281957333D-05 0.000000000000D+00 0.000000000000D+00 0.698900350059D-06 0.268153525127D-07  6 2 2 25 23 2 2 4 0.59011099D-02 0.22244038D+00 0.25369671D+05 0.25369671D+05 0.25369671D+05 0.12226148D+01  1  2 11  7  6  1       21 0.116485495779D-02 0.100000000000D+01
0.502378793959D-05 0.000000000000D+00 0.000000000000D+00 0.696688807187D-06 0.000000000000D+00  6 -4 2 25 23 2 -4 4 0.59023174D-02 0.22226980D+00 0.25369671D+05 0.25369671D+05 0.25369671D+05 0.12226148D+01  1  2 12  8  6  1       21 0.159949672898D-02 0.100000000000D+01
0.515585414972D-05 0.000000000000D+00 0.000000000000D+00 0.696688807187D-06 0.000000000000D+00  6 -4 2 25 23 2 -4 4 0.60457201D-02 0.22226980D+00 0.25369671D+05 0.25369671D+05 0.25369671D+05 0.12226148D+01  1  2 12  8  6  1       21 0.157855329718D-02 0.100000000000D+01
-.119958416562D-04 0.000000000000D+00 -.401155872334D-07 0.698900350059D-06 0.000000000000D+00  6 -4 2 25 23 2 -4 4 0.59033664D-02 0.22226980D+00 0.24335627D+05 0.24335627D+05 0.24335627D+05 0.12245537D+01  1  2  5  8  6  1       21 -.383715853349D-02 0.100000000000D+01
0.181229965548D-05 0.000000000000D+00 0.000000000000D+00 0.698900350059D-06 0.524336104651D-07  6 -4 2 25 23 2 -4 4 0.59011099D-02 0.22244038D+00 0.25369671D+05 0.25369671D+05 0.25369671D+05 0.12226148D+01  1  2 11  8  6  1       21 0.576422364086D-03 0.100000000000D+01
0.502378793959D-05 0.000000000000D+00 0.000000000000D+00 0.696688807187D-06 0.000000000000D+00  6 4 2 25 23 2 4 4 0.59023174D-02 0.22226980D+00 0.25369671D+05 0.25369671D+05 0.25369671D+05 0.12226148D+01  1  2 12  9  6  1       21 0.159949672898D-02 0.100000000000D+01
0.515585414972D-05 0.000000000000D+00 0.000000000000D+00 0.696688807187D-06 0.000000000000D+00  6 4 2 25 23 2 4 4 0.60457201D-02 0.22226980D+00 0.25369671D+05 0.25369671D+05 0.25369671D+05 0.12226148D+01  1  2 12  9  6  1       21 0.157855329718D-02 0.100000000000D+01
-.119958416562D-04 0.000000000000D+00 -.401155872334D-07 0.698900350059D-06 0.000000000000D+00  6 4 2 25 23 2 4 4 0.59033664D-02 0.22226980D+00 0.24335627D+05 0.24335627D+05 0.24335627D+05 0.12245537D+01  1  2  5  9  6  1       21 -.383715853349D-02 0.100000000000D+01
0.181131635406D-05 0.000000000000D+00 0.000000000000D+00 0.698900350059D-06 0.524051615036D-07  6 4 2 25 23 2 4 4 0.59011099D-02 0.22244038D+00 0.25369671D+05 0.25369671D+05 0.25369671D+05 0.12226148D+01  1  2 11  9  6  1       21 0.576109613972D-03 0.100000000000D+01
  </mgrwgt>
  </event>
  <event>
  5     66 0.41063134E-03 0.11142964E+03 0.75467711E-02 0.11285329E+00
       21 -1    0    0  501  502 0.00000000E+00 0.00000000E+00 0.22537683E+02 0.22550159E+02 0.75000000E+00 0.0000E+00 0.9000E+01
        2 -1    0    0  502    0 0.00000000E+00 0.00000000E+00 -.20022379E+04 0.20022380E+04 0.32000000E+00 0.0000E+00 0.9000E+01
       25  1    1    2    0    0 0.22217142E+02 -.44515166E+02 -.41805535E+03 0.43917021E+03 0.12500000E+03 0.0000E+00 0.9000E+01
       23  1    1    2    0    0 0.61301596E+02 0.11827911E+03 -.83270463E+03 0.84820993E+03 0.91188000E+02 0.0000E+00 0.9000E+01
        2  1    1    2  501    0 -.83518737E+02 -.73763947E+02 -.72894027E+03 0.73740797E+03 0.32000000E+00 0.0000E+00 0.9000E+01
#aMCatNLO 1  0  0  1  1 0.44616684D+02 0.00000000D+00  -5  6  0 0.00000000D+00 0.00000000D+00 0.00000000D+00 0.00000000D+00 0.00000000D+00
  <mgrwgt>
 0.1935652404D-01    4    2    0
 0.212458138682185D+03 0.000000000000000D+00 0.000000000000000D+00 0.212458138682185D+03
 0.212458138682185D+03 0.000000000000000D+00 0.000000000000000D+00 -.212458138682185D+03
 0.144975271861253D+03 0.222172468517696D+02 -.445150731693982D+02 0.540151057973132D+02
 0.162243428692923D+03 0.613017134136833D+02 0.118279217146630D+03 -.161184842265796D+02
 0.117697576810194D+03 -.835189602654529D+02 -.737641439772316D+02 -.378966215707336D+02
 0.000000000000000D+00 -.000000000000000D+00 0.000000000000000D+00 -.000000000000000D+00
 0.220120162366533D+03 0.000000000000000D+00 0.000000000000000D+00 0.220120162366533D+03
 0.290259874718396D+03 0.000000000000000D+00 0.000000000000000D+00 -.290259874718396D+03
 0.150440736085291D+03 0.345998936219829D+02 -.537831830681005D+02 0.540151057973132D+02
 0.160846563115195D+03 0.748443418966834D+02 0.108142889152548D+03 -.161184842265796D+02
 0.115964958025469D+03 -.737247698543962D+02 -.810948572554984D+02 -.378966215707336D+02
 0.831277798589734D+02 -.357194656642700D+02 0.267351511710510D+02 -.701397123518627D+02
0.321884414509D-05 0.000000000000D+00 0.000000000000D+00 0.638958559112D-07 0.000000000000D+00  6 21 2 25 23 2 21 2 0.34682975D-02 0.30803757D+00 0.41495197D+05 0.41495197D+05 0.41495197D+05 0.12003851D+01  1  2  2  1  6  1       21 0.221048045367D-01 0.100000000000D+01
-.322282953442D-06 0.169863072261D-06 -.649791893883D-08 0.638958559112D-07 0.000000000000D+00  6 21 2 25 23 2 21 4 0.34682975D-02 0.30803757D+00 0.41495197D+05 0.41495197D+05 0.41495197D+05 0.12003851D+01  1  2  3  1  6  1       21 -.318907904904D-02 0.100000000000D+01
0.242002415686D-06 0.000000000000D+00 0.000000000000D+00 0.638958559112D-07 0.000000000000D+00  6 21 2 25 23 2 21 4 0.34682975D-02 0.30803757D+00 0.41495197D+05 0.41495197D+05 0.41495197D+05 0.12003851D+01  1  2 15  1  6  1       21 0.239468090210D-02 0.100000000000D+01
-.197456057280D-06 0.000000000000D+00 0.000000000000D+00 0.638958559112D-07 0.000000000000D+00  6 21 2 25 23 2 21 4 0.34682975D-02 0.30803757D+00 0.41495197D+05 0.41495197D+05 0.41495197D+05 0.12003851D+01  1  2  4  1  6  1       21 -.195388235292D-02 0.100000000000D+01
  </mgrwgt>
  </event>
  <event>
  5     66 -.41063134E-03 0.81844085E+02 0.75467711E-02 0.11887817E+00
       21 -1    0    0  501  502 0.00000000E+00 0.00000000E+00 0.63344517E+02 0.63348957E+02 0.75000000E+00 0.0000E+00 0.9000E+01
        2 -1    0    0  502    0 -.00000000E+00 -.00000000E+00 -.61271551E+03 0.61271559E+03 0.32000000E+00 0.0000E+00 0.9000E+01
       25  1    1    2    0    0 -.59944013E+02 0.22438217E+02 -.43656672E+03 0.45859814E+03 0.12500000E+03 0.0000E+00 0.9000E+01
       23  1    1    2    0    0 -.21659454E+02 -.28706373E+02 -.88568136E+02 0.13210887E+03 0.91188000E+02 0.0000E+00 0.9000E+01
        2  1    1    2  501    0 0.81603467E+02 0.62681554E+01 -.24236136E+02 0.85357532E+02 0.32000000E+00 0.0000E+00 0.9000E+01
#aMCatNLO 1  0  0  5  1 0.54121859D+01 0.00000000D+00  -5  6  0 0.00000000D+00 0.00000000D+00 0.00000000D+00 0.00000000D+00 0.00000000D+00
  <mgrwgt>
 -.8271321359D-01    8    2    0
 0.197011921017343D+03 0.000000000000000D+00 0.000000000000000D+00 0.197011921017343D+03
 0.197011921017343D+03 -.000000000000000D+00 -.000000000000000D+00 -.197011921017343D+03
 0.178174269301120D+03 -.599441620898045D+02 0.224382056848473D+02 -.109655344593795D+03
 0.103185018663515D+03 -.216595403802652D+02 -.287063791389066D+02 0.322289441316182D+02
 0.112664554070050D+03 0.816037024700697D+02 0.626817345405934D+01 0.774264004621766D+02
 0.000000000000000D+00 0.000000000000000D+00 0.000000000000000D+00 0.000000000000000D+00
 0.197011921017343D+03 0.000000000000000D+00 0.000000000000000D+00 0.197011921017343D+03
 0.197011921017343D+03 -.000000000000000D+00 -.000000000000000D+00 -.197011921017343D+03
 0.177820531793722D+03 -.595552340092203D+02 0.224680801708873D+02 -.109286325782065D+03
 0.103200159750366D+03 -.214340623927927D+02 -.286890596412274D+02 0.324428798774854D+02
 0.983727365168273D+02 0.747114371185845D+02 0.357939933040560D+01 0.638951043032126D+02
 0.146304139737708D+02 0.627785928342854D+01 0.264158013993446D+01 0.129483416013666D+02
0.348427766548D-06 0.000000000000D+00 0.000000000000D+00 0.200263255841D-06 0.000000000000D+00  6 21 2 25 23 2 21 2 0.97456583D-02 0.94264272D-01 0.25648181D+05 0.25648181D+05 0.25648181D+05 0.12221076D+01  1  2  2  3  6  5        2 0.273881405797D-02 0.100000000000D+01
-.116988948559D-07 0.183870383961D-07 -.703375274171D-09 0.200263255841D-06 0.000000000000D+00  6 21 2 25 23 2 21 4 0.97456583D-02 0.94264272D-01 0.25648181D+05 0.25648181D+05 0.25648181D+05 0.12221076D+01  1  2  3  3  6  5        2 -.137345210595D-03 0.100000000000D+01
0.559624010400D-08 0.000000000000D+00 0.000000000000D+00 0.200263255841D-06 0.000000000000D+00  6 21 2 25 23 2 21 4 0.97456583D-02 0.94264272D-01 0.25648181D+05 0.25648181D+05 0.25648181D+05 0.12221076D+01  1  2 15  3  6  5        2 0.656999473103D-04 0.100000000000D+01
0.238971008018D-05 0.000000000000D+00 0.000000000000D+00 0.200306178873D-06 0.000000000000D+00  6 21 2 25 23 2 21 4 0.97456583D-02 0.94264272D-01 0.25575938D+05 0.25575938D+05 0.25575938D+05 0.12222386D+01  1  2 12  3  6  5        2 0.280673939813D-01 0.100000000000D+01
-.172721906441D-04 0.000000000000D+00 0.000000000000D+00 0.200263255841D-06 0.000000000000D+00  6 21 2 25 23 2 21 4 0.97456583D-02 0.94264272D-01 0.25648181D+05 0.25648181D+05 0.25648181D+05 0.12221076D+01  1  2  4  3  6  5        2 -.202775791274D+00 0.100000000000D+01
-.487436160960D-05 0.000000000000D+00 0.000000000000D+00 0.200263255841D-06 0.000000000000D+00  6 21 2 25 23 2 21 4 0.97456583D-02 0.94264272D-01 0.25648181D+05 0.25648181D+05 0.25648181D+05 0.12221076D+01  1  2  5  3  6  5        2 -.572250823716D-01 0.100000000000D+01
0.554804145819D-05 0.000000000000D+00 -.000000000000D+00 0.200263255841D-06 0.000000000000D+00  6 21 2 25 23 2 21 4 0.97456583D-02 0.94264272D-01 0.25648181D+05 0.25648181D+05 0.25648181D+05 0.12221076D+01  1  2  6  3  6  5        2 0.651340944464D-01 0.100000000000D+01
0.693216519954D-05 0.000000000000D+00 0.000000000000D+00 0.200263255841D-06 0.167438184057D-06  6 21 2 25 23 2 21 4 0.97456583D-02 0.94264272D-01 0.25575938D+05 0.25575938D+05 0.25575938D+05 0.12222386D+01  1  2 11  3  6  5        2 0.814190028378D-01 0.100000000000D+01
  </mgrwgt>
  </event>
  <event>
  5     66 0.41063134E-03 0.16093966E+03 0.75467711E-02 0.10898668E+00
       21 -1    0    0  501  502 0.00000000E+00 0.00000000E+00 0.11025789E+03 0.11026044E+03 0.75000000E+00 0.0000E+00 0.9000E+01
        2 -1    0    0  502    0 -.00000000E+00 -.00000000E+00 -.81513803E+03 0.81513809E+03 0.32000000E+00 0.0000E+00 0.9000E+01
       25  1    1    2    0    0 0.22105407E+03 0.14083160E+03 -.43930281E+03 0.52660269E+03 0.12500000E+03 0.0000E+00 0.9000E+01
       23  1    1    2    0    0 -.87563089E+02 -.50933561E+02 -.11342094E+03 0.17731634E+03 0.91188000E+02 0.0000E+00 0.9000E+01
        2  1    1    2  501    0 -.13349098E+03 -.89898038E+02 -.15215639E+03 0.22147950E+03 0.32000000E+00 0.0000E+00 0.9000E+01
#aMCatNLO 1  0  0  5  5 0.65071957D+02 0.00000000D+00  -5  6  0 0.00000000D+00 0.00000000D+00 0.00000000D+00 0.00000000D+00 0.00000000D+00
  <mgrwgt>
 0.1491694211D-01    4    2    0
 0.299794277885084D+03 0.000000000000000D+00 0.000000000000000D+00 0.299794277885084D+03
 0.299794277885084D+03 -.000000000000000D+00 -.000000000000000D+00 -.299794277885084D+03
 0.296305893117208D+03 0.221054199979411D+03 0.140831684259428D+03 -.589377610373992D+02
 0.140329691020206D+03 -.875630283842994D+02 -.509335202036898D+02 0.334015481326406D+02
 0.162952971632754D+03 -.133491171595112D+03 -.898981640557379D+02 0.255362129047586D+02
 0.000000000000000D+00 0.000000000000000D+00 0.000000000000000D+00 0.000000000000000D+00
 0.299794277885084D+03 0.000000000000000D+00 0.000000000000000D+00 0.299794277885084D+03
 0.299794277885084D+03 -.000000000000000D+00 -.000000000000000D+00 -.299794277885084D+03
 0.240499356264752D+03 0.169132674527486D+03 0.105865702934021D+03 -.490054253448061D+02
 0.169458439575093D+03 -.117526729979854D+03 -.711122461041892D+02 0.391334587467710D+02
 0.732086919190780D+02 -.980703224542091D+01 0.689842343189781D+02 -.224613024213663D+02
 0.116422068011245D+03 -.417989123022119D+02 -.103737691148810D+03 0.323332690194013D+02
0.112178963559D-04 0.000000000000D+00 0.000000000000D+00 0.236376868899D-07 0.000000000000D+00  6 21 2 25 23 2 21 2 0.16962953D-01 0.12540605D+00 0.86324718D+05 0.86324718D+05 0.86324718D+05 0.11694844D+01  1  2  2  3  6  5        2 0.206066225364D-01 0.100000000000D+01
-.807125025965D-06 0.591984654560D-06 -.226457007233D-07 0.236376868899D-07 0.000000000000D+00  6 21 2 25 23 2 21 4 0.16962953D-01 0.12540605D+00 0.86324718D+05 0.86324718D+05 0.86324718D+05 0.11694844D+01  1  2  3  3  6  5        2 -.202779983895D-02 0.100000000000D+01
0.117133170126D-05 0.000000000000D+00 0.000000000000D+00 0.236376868899D-07 0.000000000000D+00  6 21 2 25 23 2 21 4 0.16962953D-01 0.12540605D+00 0.86324718D+05 0.86324718D+05 0.86324718D+05 0.11694844D+01  1  2 15  3  6  5        2 0.294282317951D-02 0.100000000000D+01
-.262886977006D-05 0.000000000000D+00 0.000000000000D+00 0.236376868899D-07 0.000000000000D+00  6 21 2 25 23 2 21 4 0.16962953D-01 0.12540605D+00 0.86324718D+05 0.86324718D+05 0.86324718D+05 0.11694844D+01  1  2  4  3  6  5        2 -.660470376319D-02 0.100000000000D+01
  </mgrwgt>
  </event>
  <event>
  5     66 -.41063134E-03 0.69633502E+02 0.75467711E-02 0.11586486E+00
       21 -1    0    0  501  502 0.00000000E+00 0.00000000E+00 0.32679065E+02 0.32687670E+02 0.75000000E+00 0.0000E+00 0.9000E+01
        2 -1    0    0  502    0 0.00000000E+00 0.00000000E+00 -.99205374E+03 0.99205379E+03 0.32000000E+00 0.0000E+00 0.9000E+01
       25  1    1    2    0    0 -.50712609E+02 0.54487615E+02 -.21306426E+03 0.25799622E+03 0.12500000E+03 0.0000E+00 0.9000E+01
       23  1    1    2    0    0 0.49264084E+01 -.24343446E+00 -.26650009E+03 0.28171240E+03 0.91188000E+02 0.0000E+00 0.9000E+01
        2  1    1    2  501    0 0.45786200E+02 -.54244180E+02 -.47981032E+03 0.48503284E+03 0.32000000E+00 0.0000E+00 0.9000E+01
#aMCatNLO 1  0  0  1  5 0.63389488D+02 0.00000000D+00  -5  6  0 0.00000000D+00 0.00000000D+00 0.00000000D+00 0.00000000D+00 0.00000000D+00
  <mgrwgt>
 -.2651334700D-01   30    2    0
 0.180066165470182D+03 0.000000000000000D+00 0.000000000000000D+00 0.180066165470182D+03
 0.180066165470182D+03 0.000000000000000D+00 0.000000000000000D+00 -.180066165470182D+03
 0.166524954587734D+03 -.507127130221763D+02 0.544877383625627D+02 0.810238705969428D+02
 0.916578036371999D+02 0.492635104176648D+01 -.243366449729436D+00 -.784687592484640D+01
 0.101949572715431D+03 0.457863619804098D+02 -.542443719128333D+02 -.731769946720964D+02
 0.000000000000000D+00 0.000000000000000D+00 0.000000000000000D+00 0.000000000000000D+00
 0.644876461139032D+03 0.000000000000000D+00 0.000000000000000D+00 0.644876461139032D+03
 0.185008465479555D+03 0.000000000000000D+00 0.000000000000000D+00 -.185008465479555D+03
 0.160694985289104D+03 -.543127400169524D+02 0.261368889198012D+02 0.810238705969428D+02
 0.930001110367589D+02 0.289477106569432D+01 -.162424181557660D+02 -.784687592484640D+01
 0.111973500800227D+03 0.434328109109007D+02 -.727790029376357D+02 -.731769946720964D+02
 0.464216329492498D+03 0.798515804035743D+01 0.628845321736006D+02 0.459867995659477D+03
0.485879556926D-06 0.000000000000D+00 0.000000000000D+00 0.973498599865D-07 0.000000000000D+00  6 21 2 25 23 2 21 2 0.50282144D-02 0.15262432D+00 0.23683739D+05 0.23683739D+05 0.23683739D+05 0.12258241D+01  1  2  2  1  6  1       21 0.657134711307D-02 0.100000000000D+01
-.583081608594D-07 0.256405686538D-07 -.980850837327D-09 0.973498599865D-07 0.000000000000D+00  6 21 2 25 23 2 21 4 0.50282144D-02 0.15262432D+00 0.23683739D+05 0.23683739D+05 0.23683739D+05 0.12258241D+01  1  2  3  1  6  1       21 -.118498108537D-02 0.100000000000D+01
0.732492757232D-07 0.000000000000D+00 0.000000000000D+00 0.973498599865D-07 0.000000000000D+00  6 21 2 25 23 2 21 4 0.50282144D-02 0.15262432D+00 0.23683739D+05 0.23683739D+05 0.23683739D+05 0.12258241D+01  1  2 15  1  6  1       21 0.148862534797D-02 0.100000000000D+01
0.204549526757D-04 0.000000000000D+00 0.000000000000D+00 0.943280064836D-07 0.000000000000D+00  6 21 2 25 23 2 21 4 0.17843116D-01 0.15262432D+00 0.36021178D+05 0.36021178D+05 0.36021178D+05 0.12066486D+01  1  2 12  1  6  1       21 0.418122819888D-01 0.100000000000D+01
0.204467813316D-04 0.000000000000D+00 0.000000000000D+00 0.943280064836D-07 0.000000000000D+00  6 21 2 25 23 2 21 4 0.17955872D-01 0.15262432D+00 0.36021178D+05 0.36021178D+05 0.36021178D+05 0.12066486D+01  1  2 12  1  6  1       21 0.413120237113D-01 0.100000000000D+01
-.526813106044D-04 0.000000000000D+00 -.179370294771D-05 0.973498599865D-07 0.000000000000D+00  6 21 2 25 23 2 21 4 0.18324472D-01 0.15262432D+00 0.23683739D+05 0.23683739D+05 0.23683739D+05 0.12258241D+01  1  2  5  1  6  1       21 -.110490904754D+00 0.100000000000D+01
0.777998310566D-05 0.000000000000D+00 0.000000000000D+00 0.943280064836D-07 0.000000000000D+00  6 -1 2 25 23 2 -1 4 0.17843116D-01 0.15262432D+00 0.36021178D+05 0.36021178D+05 0.36021178D+05 0.12066486D+01  1  2 12  4  6  1       21 0.122324871577D-02 0.100000000000D+01
0.777998310566D-05 0.000000000000D+00 0.000000000000D+00 0.943280064836D-07 0.000000000000D+00  6 -3 2 25 23 2 -3 4 0.17843116D-01 0.15262432D+00 0.36021178D+05 0.36021178D+05 0.36021178D+05 0.12066486D+01  1  2 12  4  6  1       21 0.752814385075D-03 0.100000000000D+01
0.779394668657D-05 0.000000000000D+00 0.000000000000D+00 0.943280064836D-07 0.000000000000D+00  6 -1 2 25 23 2 -1 4 0.17955872D-01 0.15262432D+00 0.36021178D+05 0.36021178D+05 0.36021178D+05 0.12066486D+01  1  2 12  4  6  1       21 0.121313515047D-02 0.100000000000D+01
0.779394668657D-05 0.000000000000D+00 0.000000000000D+00 0.943280064836D-07 0.000000000000D+00  6 -3 2 25 23 2 -3 4 0.17955872D-01 0.15262432D+00 0.36021178D+05 0.36021178D+05 0.36021178D+05 0.12066486D+01  1  2 12  4  6  1       21 0.745885358024D-03 0.100000000000D+01
-.201865054309D-04 0.000000000000D+00 -.688303227426D-06 0.973498599865D-07 0.000000000000D+00  6 -1 2 25 23 2 -1 4 0.18324472D-01 0.15262432D+00 0.23683739D+05 0.23683739D+05 0.23683739D+05 0.12258241D+01  1  2  5  4  6  1       21 -.325002810242D-02 0.100000000000D+01
-.201865054309D-04 0.000000000000D+00 -.688303227426D-06 0.973498599865D-07 0.000000000000D+00  6 -3 2 25 23 2 -3 4 0.18324472D-01 0.15262432D+00 0.23683739D+05 0.23683739D+05 0.23683739D+05 0.12258241D+01  1  2  5  4  6  1       21 -.197350081421D-02 0.100000000000D+01
0.777998310566D-05 0.000000000000D+00 0.000000000000D+00 0.943280064836D-07 0.000000000000D+00  6 1 2 25 23 2 1 4 0.17843116D-01 0.15262432D+00 0.36021178D+05 0.36021178D+05 0.36021178D+05 0.12066486D+01  1  2 12  5  6  1       21 0.177267887096D-02 0.100000000000D+01
0.777998310566D-05 0.000000000000D+00 0.000000000000D+00 0.943280064836D-07 0.000000000000D+00  6 3 2 25 23 2 3 4 0.17843116D-01 0.15262432D+00 0.36021178D+05 0.36021178D+05 0.36021178D+05 0.12066486D+01  1  2 12  5  6  1       21 0.752739662613D-03 0.100000000000D+01
0.779394668657D-05 0.000000000000D+00 0.000000000000D+00 0.943280064836D-07 0.000000000000D+00  6 1 2 25 23 2 1 4 0.17955872D-01 0.15262432D+00 0.36021178D+05 0.36021178D+05 0.36021178D+05 0.12066486D+01  1  2 12  5  6  1       21 0.176146116012D-02 0.100000000000D+01
0.779394668657D-05 0.000000000000D+00 0.000000000000D+00 0.943280064836D-07 0.000000000000D+00  6 3 2 25 23 2 3 4 0.17955872D-01 0.15262432D+00 0.36021178D+05 0.36021178D+05 0.36021178D+05 0.12066486D+01  1  2 12  5  6  1       21 0.745811851752D-03 0.100000000000D+01
-.201865054309D-04 0.000000000000D+00 -.688303227426D-06 0.973498599865D-07 0.000000000000D+00  6 1 2 25 23 2 1 4 0.18324472D-01 0.15262432D+00 0.23683739D+05 0.23683739D+05 0.23683739D+05 0.12258241D+01  1  2  5  5  6  1       21 -.475069847986D-02 0.100000000000D+01
-.201865054309D-04 0.000000000000D+00 -.688303227426D-06 0.973498599865D-07 0.000000000000D+00  6 3 2 25 23 2 3 4 0.18324472D-01 0.15262432D+00 0.23683739D+05 0.23683739D+05 0.23683739D+05 0.12258241D+01  1  2  5  5  6  1       21 -.197329820357D-02 0.100000000000D+01
0.777998310566D-05 0.000000000000D+00 0.000000000000D+00 0.943280064836D-07 0.000000000000D+00  6 -2 2 25 23 2 -2 4 0.17843116D-01 0.15262432D+00 0.36021178D+05 0.36021178D+05 0.36021178D+05 0.12066486D+01  1  2 12  6  6  1       21 0.112983272186D-02 0.100000000000D+01
0.779394668657D-05 0.000000000000D+00 0.000000000000D+00 0.943280064836D-07 0.000000000000D+00  6 -2 2 25 23 2 -2 4 0.17955872D-01 0.15262432D+00 0.36021178D+05 0.36021178D+05 0.36021178D+05 0.12066486D+01  1  2 12  6  6  1       21 0.111994329613D-02 0.100000000000D+01
-.201865054309D-04 0.000000000000D+00 -.688303227426D-06 0.973498599865D-07 0.000000000000D+00  6 -2 2 25 23 2 -2 4 0.18324472D-01 0.15262432D+00 0.23683739D+05 0.23683739D+05 0.23683739D+05 0.12258241D+01  1  2  5  6  6  1       21 -.299446293801D-02 0.100000000000D+01
0.777998310566D-05 0.000000000000D+00 0.000000000000D+00 0.943280064836D-07 0.000000000000D+00  6 2 2 25 23 2 2 4 0.17843116D-01 0.15262432D+00 0.36021178D+05 0.36021178D+05 0.36021178D+05 0.12066486D+01  1  2 12  7  6  1       21 0.215703640165D-02 0.100000000000D+01
0.779394668657D-05 0.000000000000D+00 0.000000000000D+00 0.943280064836D-07 0.000000000000D+00  6 2 2 25 23 2 2 4 0.17955872D-01 0.15262432D+00 0.36021178D+05 0.36021178D+05 0.36021178D+05 0.12066486D+01  1  2 12  7  6  1       21 0.214521407638D-02 0.100000000000D+01
-.201865054309D-04 0.000000000000D+00 -.688303227426D-06 0.973498599865D-07 0.000000000000D+00  6 2 2 25 23 2 2 4 0.18324472D-01 0.15262432D+00 0.23683739D+05 0.23683739D+05 0.23683739D+05 0.12258241D+01  1  2  5  7  6  1       21 -.579907337456D-02 0.100000000000D+01
0.777998310566D-05 0.000000000000D+00 0.000000000000D+00 0.943280064836D-07 0.000000000000D+00  6 -4 2 25 23 2 -4 4 0.17843116D-01 0.15262432D+00 0.36021178D+05 0.36021178D+05 0.36021178D+05 0.12066486D+01  1  2 12  8  6  1       21 0.648380594382D-03 0.100000000000D+01
0.779394668657D-05 0.000000000000D+00 0.000000000000D+00 0.943280064836D-07 0.000000000000D+00  6 -4 2 25 23 2 -4 4 0.17955872D-01 0.15262432D+00 0.36021178D+05 0.36021178D+05 0.36021178D+05 0.12066486D+01  1  2 12  8  6  1       21 0.642263849030D-03 0.100000000000D+01
-.201865054309D-04 0.000000000000D+00 -.688303227426D-06 0.973498599865D-07 0.000000000000D+00  6 -4 2 25 23 2 -4 4 0.18324472D-01 0.15262432D+00 0.23683739D+05 0.23683739D+05 0.23683739D+05 0.12258241D+01  1  2  5  8  6  1       21 -.169088397523D-02 0.100000000000D+01
0.777998310566D-05 0.000000000000D+00 0.000000000000D+00 0.943280064836D-07 0.000000000000D+00  6 4 2 25 23 2 4 4 0.17843116D-01 0.15262432D+00 0.36021178D+05 0.36021178D+05 0.36021178D+05 0.12066486D+01  1  2 12  9  6  1       21 0.648380594382D-03 0.100000000000D+01
0.779394668657D-05 0.000000000000D+00 0.000000000000D+00 0.943280064836D-07 0.000000000000D+00  6 4 2 25 23 2 4 4 0.17955872D-01 0.15262432D+00 0.36021178D+05 0.36021178D+05 0.36021178D+05 0.12066486D+01  1  2 12  9  6  1       21 0.642263849030D-03 0.100000000000D+01
-.201865054309D-04 0.000000000000D+00 -.688303227426D-06 0.973498599865D-07 0.000000000000D+00  6 4 2 25 23 2 4 4 0.18324472D-01 0.15262432D+00 0.23683739D+05 0.23683739D+05 0.23683739D+05 0.12258241D+01  1  2  5  9  6  1       21 -.169088397523D-02 0.100000000000D+01
  </mgrwgt>
  </event>
  <event>
  5     66 0.41063134E-03 0.77522063E+02 0.75467711E-02 0.11076235E+00
       21 -1    0    0  501  502 0.00000000E+00 0.00000000E+00 0.52737622E+02 0.52742955E+02 0.75000000E+00 0.0000E+00 0.9000E+01
        2 -1    0    0  502    0 0.00000000E+00 0.00000000E+00 -.20633707E+04 0.20633707E+04 0.32000000E+00 0.0000E+00 0.9000E+01
       25  1    1    2    0    0 -.92661465E+02 -.11485342E+03 -.92986143E+03 0.94976036E+03 0.12500000E+03 0.0000E+00 0.9000E+01
       23  1    1    2    0    0 0.16986088E+03 0.12191814E+03 -.10624955E+04 0.10867055E+04 0.91188000E+02 0.0000E+00 0.9000E+01
        2  1    1    2  501    0 -.77199412E+02 -.70647218E+01 -.18276085E+02 0.79647833E+02 0.32000000E+00 0.0000E+00 0.9000E+01
#aMCatNLO 1  0  0  1  2 0.21545626D+02 0.00000000D+00  -5  6  0 0.00000000D+00 0.00000000D+00 0.00000000D+00 0.00000000D+00 0.00000000D+00
  <mgrwgt>
 0.5653367054D-01   23    2    0
 0.329883208460140D+03 0.000000000000000D+00 0.000000000000000D+00 0.329883208460140D+03
 0.329883208460140D+03 0.000000000000000D+00 0.000000000000000D+00 -.329883208460140D+03
 0.212485417741951D+03 -.926614330404400D+02 -.114853414168485D+03 -.880204796266523D+02
 0.247517399439365D+03 0.169860914495623D+03 0.121918142246456D+03 -.960877099274901D+02
 0.199763599738964D+03 -.771994814551831D+02 -.706472807797065D+01 0.184108189554142D+03
 0.000000000000000D+00 -.000000000000000D+00 -.000000000000000D+00 0.000000000000000D+00
 0.356316484000596D+03 0.000000000000000D+00 0.000000000000000D+00 0.356316484000596D+03
 0.334478898611601D+03 0.000000000000000D+00 0.000000000000000D+00 -.334478898611601D+03
 0.207783467295112D+03 -.885733862325050D+02 -.109344042813408D+03 -.880204796266523D+02
 0.254152115251546D+03 0.174740762924063D+03 0.128494607343818D+03 -.960877099274901D+02
 0.198182542410849D+03 -.733285728201027D+02 -.184798909376007D+01 0.184108189554142D+03
 0.306772576546908D+02 -.128388038714558D+02 -.173025754366495D+02 0.218375853889947D+02
0.340934344212D-05 0.000000000000D+00 0.000000000000D+00 0.197790468309D-06 0.000000000000D+00  6 21 2 25 23 2 21 2 0.81138925D-02 0.31744205D+00 0.62256353D+05 0.62256353D+05 0.62256353D+05 0.11829657D+01  1  2  2  1  6  1       21 0.487955217967D-02 0.100000000000D+01
0.247149582491D-06 0.179915996353D-06 -.688248213425D-08 0.197790468309D-06 0.000000000000D+00  6 21 2 25 23 2 21 4 0.81138925D-02 0.31744205D+00 0.62256353D+05 0.62256353D+05 0.62256353D+05 0.11829657D+01  1  2  3  1  6  1       21 0.495009377509D-03 0.100000000000D+01
0.270183089633D-06 0.000000000000D+00 0.000000000000D+00 0.197790468309D-06 0.000000000000D+00  6 21 2 25 23 2 21 4 0.81138925D-02 0.31744205D+00 0.62256353D+05 0.62256353D+05 0.62256353D+05 0.11829657D+01  1  2 15  1  6  1       21 0.541142581206D-03 0.100000000000D+01
0.212793098337D-04 0.000000000000D+00 0.000000000000D+00 0.196726582783D-06 0.000000000000D+00  6 21 2 25 23 2 21 4 0.88177055D-02 0.31744205D+00 0.67185786D+05 0.67185786D+05 0.67185786D+05 0.11797799D+01  1  2 12  1  6  1       21 0.363054477871D-01 0.100000000000D+01
-.457326856570D-05 0.000000000000D+00 0.000000000000D+00 0.197790468309D-06 0.000000000000D+00  6 21 2 25 23 2 21 4 0.81138925D-02 0.31744205D+00 0.62256353D+05 0.62256353D+05 0.62256353D+05 0.11829657D+01  1  2  4  1  6  1       21 -.915967894049D-02 0.100000000000D+01
-.841496056148D-04 0.000000000000D+00 -.123567038078D-04 0.197790468309D-06 0.000000000000D+00  6 21 2 25 23 2 21 4 0.88964291D-02 0.31744205D+00 0.62256353D+05 0.62256353D+05 0.62256353D+05 0.11829657D+01  1  2  5  1  6  1       21 -.143362126794D+00 0.100000000000D+01
0.838143939857D-04 0.000000000000D+00 0.121496907193D-04 0.197790468309D-06 0.000000000000D+00  6 21 2 25 23 2 21 4 0.81138925D-02 0.31744205D+00 0.62256353D+05 0.62256353D+05 0.62256353D+05 0.11829657D+01  1  2  6  1  6  1       21 0.167869638197D+00 0.100000000000D+01
0.452495487885D-06 0.000000000000D+00 0.000000000000D+00 0.196726582783D-06 0.000000000000D+00  6 -1 2 25 23 2 -1 4 0.88177055D-02 0.31744205D+00 0.67185786D+05 0.67185786D+05 0.67185786D+05 0.11797799D+01  1  2 12  4  6  1       21 0.510255537519D-04 0.100000000000D+01
0.452495487885D-06 0.000000000000D+00 0.000000000000D+00 0.196726582783D-06 0.000000000000D+00  6 -3 2 25 23 2 -3 4 0.88177055D-02 0.31744205D+00 0.67185786D+05 0.67185786D+05 0.67185786D+05 0.11797799D+01  1  2 12  4  6  1       21 0.349669985756D-04 0.100000000000D+01
-.174074593115D-05 0.000000000000D+00 -.287714561883D-06 0.197790468309D-06 0.000000000000D+00  6 -1 2 25 23 2 -1 4 0.88964291D-02 0.31744205D+00 0.62256353D+05 0.62256353D+05 0.62256353D+05 0.11829657D+01  1  2  5  4  6  1       21 -.196079237039D-03 0.100000000000D+01
-.174074593115D-05 0.000000000000D+00 -.287714561883D-06 0.197790468309D-06 0.000000000000D+00  6 -3 2 25 23 2 -3 4 0.88964291D-02 0.31744205D+00 0.62256353D+05 0.62256353D+05 0.62256353D+05 0.11829657D+01  1  2  5  4  6  1       21 -.134033808501D-03 0.100000000000D+01
0.452495487885D-06 0.000000000000D+00 0.000000000000D+00 0.196726582783D-06 0.000000000000D+00  6 1 2 25 23 2 1 4 0.88177055D-02 0.31744205D+00 0.67185786D+05 0.67185786D+05 0.67185786D+05 0.11797799D+01  1  2 12  5  6  1       21 0.623231464046D-04 0.100000000000D+01
0.452495487885D-06 0.000000000000D+00 0.000000000000D+00 0.196726582783D-06 0.000000000000D+00  6 3 2 25 23 2 3 4 0.88177055D-02 0.31744205D+00 0.67185786D+05 0.67185786D+05 0.67185786D+05 0.11797799D+01  1  2 12  5  6  1       21 0.349631197672D-04 0.100000000000D+01
-.174074593115D-05 0.000000000000D+00 -.287714561883D-06 0.197790468309D-06 0.000000000000D+00  6 1 2 25 23 2 1 4 0.88964291D-02 0.31744205D+00 0.62256353D+05 0.62256353D+05 0.62256353D+05 0.11829657D+01  1  2  5  5  6  1       21 -.239903647209D-03 0.100000000000D+01
-.174074593115D-05 0.000000000000D+00 -.287714561883D-06 0.197790468309D-06 0.000000000000D+00  6 3 2 25 23 2 3 4 0.88964291D-02 0.31744205D+00 0.62256353D+05 0.62256353D+05 0.62256353D+05 0.11829657D+01  1  2  5  5  6  1       21 -.134018817279D-03 0.100000000000D+01
0.452495487885D-06 0.000000000000D+00 0.000000000000D+00 0.196726582783D-06 0.000000000000D+00  6 -2 2 25 23 2 -2 4 0.88177055D-02 0.31744205D+00 0.67185786D+05 0.67185786D+05 0.67185786D+05 0.11797799D+01  1  2 12  6  6  1       21 0.490682278740D-04 0.100000000000D+01
-.174074593115D-05 0.000000000000D+00 -.287714561883D-06 0.197790468309D-06 0.000000000000D+00  6 -2 2 25 23 2 -2 4 0.88964291D-02 0.31744205D+00 0.62256353D+05 0.62256353D+05 0.62256353D+05 0.11829657D+01  1  2  5  6  6  1       21 -.188485843827D-03 0.100000000000D+01
0.452495487885D-06 0.000000000000D+00 0.000000000000D+00 0.196726582783D-06 0.000000000000D+00  6 2 2 25 23 2 2 4 0.88177055D-02 0.31744205D+00 0.67185786D+05 0.67185786D+05 0.67185786D+05 0.11797799D+01  1  2 12  7  6  1       21 0.699914956726D-04 0.100000000000D+01
-.174074593115D-05 0.000000000000D+00 -.287714561883D-06 0.197790468309D-06 0.000000000000D+00  6 2 2 25 23 2 2 4 0.88964291D-02 0.31744205D+00 0.62256353D+05 0.62256353D+05 0.62256353D+05 0.11829657D+01  1  2  5  7  6  1       21 -.269643747832D-03 0.100000000000D+01
0.452495487885D-06 0.000000000000D+00 0.000000000000D+00 0.196726582783D-06 0.000000000000D+00  6 -4 2 25 23 2 -4 4 0.88177055D-02 0.31744205D+00 0.67185786D+05 0.67185786D+05 0.67185786D+05 0.11797799D+01  1  2 12  8  6  1       21 0.310075828164D-04 0.100000000000D+01
-.174074593115D-05 0.000000000000D+00 -.287714561883D-06 0.197790468309D-06 0.000000000000D+00  6 -4 2 25 23 2 -4 4 0.88964291D-02 0.31744205D+00 0.62256353D+05 0.62256353D+05 0.62256353D+05 0.11829657D+01  1  2  5  8  6  1       21 -.118751226361D-03 0.100000000000D+01
0.452495487885D-06 0.000000000000D+00 0.000000000000D+00 0.196726582783D-06 0.000000000000D+00  6 4 2 25 23 2 4 4 0.88177055D-02 0.31744205D+00 0.67185786D+05 0.67185786D+05 0.67185786D+05 0.11797799D+01  1  2 12  9  6  1       21 0.310075828164D-04 0.100000000000D+01
-.174074593115D-05 0.000000000000D+00 -.287714561883D-06 0.197790468309D-06 0.000000000000D+00  6 4 2 25 23 2 4 4 0.88964291D-02 0.31744205D+00 0.62256353D+05 0.62256353D+05 0.62256353D+05 0.11829657D+01  1  2  5  9  6  1       21 -.118751226361D-03 0.100000000000D+01
  </mgrwgt>
  </event>
  <event>
  5     66 0.41063134E-03 0.24037375E+02 0.75467711E-02 0.12220792E+00
       21 -1    0    0  501  502 0.00000000E+00 0.00000000E+00 0.19845141E+02 0.19859308E+02 0.75000000E+00 0.0000E+00 0.9000E+01
        2 -1    0    0  502    0 0.00000000E+00 0.00000000E+00 -.17894307E+04 0.17894308E+04 0.32000000E+00 0.0000E+00 0.9000E+01
       25  1    1    2    0    0 -.13988034E+02 -.32202234E+02 -.15604371E+04 0.15658293E+04 0.12500000E+03 0.0000E+00 0.9000E+01
       23  1    1    2    0    0 0.35926670E+02 0.22381508E+02 -.16607761E+03 0.19413573E+03 0.91188000E+02 0.0000E+00 0.9000E+01
        2  1    1    2  501    0 -.21938636E+02 0.98207260E+01 -.43070906E+02 0.49325001E+02 0.32000000E+00 0.0000E+00 0.9000E+01
#aMCatNLO 1  0  0  1  2 0.12648731D+02 0.00000000D+00  -5  6  0 0.00000000D+00 0.00000000D+00 0.00000000D+00 0.00000000D+00 0.00000000D+00
  <mgrwgt>
 0.5829124060D-01   23    2    0
 0.188479034676147D+03 0.000000000000000D+00 0.000000000000000D+00 0.188479034676147D+03
 0.188479034676147D+03 0.000000000000000D+00 0.000000000000000D+00 -.188479034676147D+03
 0.190240398079883D+03 -.139875596724158D+02 -.322024468934552D+02 -.139045890446561D+03
 0.152163353848760D+03 0.359270497866181D+02 0.223813383169321D+02 0.114222404541648D+03
 0.345543174236514D+02 -.219394901142024D+02 0.982110857652313D+01 0.248234859049131D+02
 0.000000000000000D+00 -.000000000000000D+00 0.000000000000000D+00 0.000000000000000D+00
 0.196170230151531D+03 0.000000000000000D+00 0.000000000000000D+00 0.196170230151531D+03
 0.193858278177175D+03 0.000000000000000D+00 0.000000000000000D+00 -.193858278177175D+03
 0.190940055410424D+03 -.102005987139192D+02 -.373536195827963D+02 -.139045890446561D+03
 0.152357969155033D+03 0.389524157273049D+02 0.182661170142242D+02 0.114222404541648D+03
 0.338721975520462D+02 -.212596846877535D+02 0.889641059701730D+01 0.248234859049131D+02
 0.128582862112025D+02 -.749213232563224D+01 0.101910919715548D+02 0.231195197435594D+01
0.560228519824D-06 0.000000000000D+00 0.000000000000D+00 0.256862640324D-06 0.000000000000D+00  6 21 2 25 23 2 21 2 0.30541905D-02 0.27529813D+00 0.16180808D+05 0.16180808D+05 0.16180808D+05 0.12440882D+01  1  2  2  1  6  1       21 0.666202472625D-02 0.100000000000D+01
0.235363672320D-07 0.295640712181D-07 -.113093997253D-08 0.256862640324D-06 0.000000000000D+00  6 21 2 25 23 2 21 4 0.30541905D-02 0.27529813D+00 0.16180808D+05 0.16180808D+05 0.16180808D+05 0.12440882D+01  1  2  3  1  6  1       21 0.433194397733D-03 0.100000000000D+01
0.324581617694D-07 0.000000000000D+00 0.000000000000D+00 0.256862640324D-06 0.000000000000D+00  6 21 2 25 23 2 21 4 0.30541905D-02 0.27529813D+00 0.16180808D+05 0.16180808D+05 0.16180808D+05 0.12440882D+01  1  2 15  1  6  1       21 0.597402891474D-03 0.100000000000D+01
0.150911025431D-05 0.000000000000D+00 0.000000000000D+00 0.254863588751D-06 0.000000000000D+00  6 21 2 25 23 2 21 4 0.32208959D-02 0.27529813D+00 0.17873329D+05 0.17873329D+05 0.17873329D+05 0.12392377D+01  1  2 12  1  6  1       21 0.250356850616D-01 0.100000000000D+01
-.406938274185D-07 0.000000000000D+00 0.000000000000D+00 0.256862640324D-06 0.000000000000D+00  6 21 2 25 23 2 21 4 0.30541905D-02 0.27529813D+00 0.16180808D+05 0.16180808D+05 0.16180808D+05 0.12440882D+01  1  2  4  1  6  1       21 -.748982962674D-03 0.100000000000D+01
-.128043587653D-04 0.000000000000D+00 -.256557646773D-05 0.256862640324D-06 0.000000000000D+00  6 21 2 25 23 2 21 4 0.32823607D-02 0.27529813D+00 0.16180808D+05 0.16180808D+05 0.16180808D+05 0.12440882D+01  1  2  5  1  6  1       21 -.209352856577D+00 0.100000000000D+01
0.128573083051D-04 0.000000000000D+00 0.253913550514D-05 0.256862640324D-06 0.000000000000D+00  6 21 2 25 23 2 21 4 0.30541905D-02 0.27529813D+00 0.16180808D+05 0.16180808D+05 0.16180808D+05 0.12440882D+01  1  2  6  1  6  1       21 0.236642888547D+00 0.100000000000D+01
0.244150560667D-07 0.000000000000D+00 0.000000000000D+00 0.254863588751D-06 0.000000000000D+00  6 -1 2 25 23 2 -1 4 0.32208959D-02 0.27529813D+00 0.17873329D+05 0.17873329D+05 0.17873329D+05 0.12392377D+01  1  2 12  4  6  1       21 0.212398634008D-04 0.100000000000D+01
0.244150560667D-07 0.000000000000D+00 0.000000000000D+00 0.254863588751D-06 0.000000000000D+00  6 -3 2 25 23 2 -3 4 0.32208959D-02 0.27529813D+00 0.17873329D+05 0.17873329D+05 0.17873329D+05 0.12392377D+01  1  2 12  4  6  1       21 0.157356476125D-04 0.100000000000D+01
-.187118299833D-06 0.000000000000D+00 -.455218336989D-07 0.256862640324D-06 0.000000000000D+00  6 -1 2 25 23 2 -1 4 0.32823607D-02 0.27529813D+00 0.16180808D+05 0.16180808D+05 0.16180808D+05 0.12440882D+01  1  2  5  4  6  1       21 -.160777436311D-03 0.100000000000D+01
-.187118299833D-06 0.000000000000D+00 -.455218336989D-07 0.256862640324D-06 0.000000000000D+00  6 -3 2 25 23 2 -3 4 0.32823607D-02 0.27529813D+00 0.16180808D+05 0.16180808D+05 0.16180808D+05 0.12440882D+01  1  2  5  4  6  1       21 -.118642469151D-03 0.100000000000D+01
0.244150560667D-07 0.000000000000D+00 0.000000000000D+00 0.254863588751D-06 0.000000000000D+00  6 1 2 25 23 2 1 4 0.32208959D-02 0.27529813D+00 0.17873329D+05 0.17873329D+05 0.17873329D+05 0.12392377D+01  1  2 12  5  6  1       21 0.229837151355D-04 0.100000000000D+01
0.244150560667D-07 0.000000000000D+00 0.000000000000D+00 0.254863588751D-06 0.000000000000D+00  6 3 2 25 23 2 3 4 0.32208959D-02 0.27529813D+00 0.17873329D+05 0.17873329D+05 0.17873329D+05 0.12392377D+01  1  2 12  5  6  1       21 0.157344199867D-04 0.100000000000D+01
-.187118299833D-06 0.000000000000D+00 -.455218336989D-07 0.256862640324D-06 0.000000000000D+00  6 1 2 25 23 2 1 4 0.32823607D-02 0.27529813D+00 0.16180808D+05 0.16180808D+05 0.16180808D+05 0.12440882D+01  1  2  5  5  6  1       21 -.174253868267D-03 0.100000000000D+01
-.187118299833D-06 0.000000000000D+00 -.455218336989D-07 0.256862640324D-06 0.000000000000D+00  6 3 2 25 23 2 3 4 0.32823607D-02 0.27529813D+00 0.16180808D+05 0.16180808D+05 0.16180808D+05 0.12440882D+01  1  2  5  5  6  1       21 -.118633028794D-03 0.100000000000D+01
0.244150560667D-07 0.000000000000D+00 0.000000000000D+00 0.254863588751D-06 0.000000000000D+00  6 -2 2 25 23 2 -2 4 0.32208959D-02 0.27529813D+00 0.17873329D+05 0.17873329D+05 0.17873329D+05 0.12392377D+01  1  2 12  6  6  1       21 0.209279713283D-04 0.100000000000D+01
-.187118299833D-06 0.000000000000D+00 -.455218336989D-07 0.256862640324D-06 0.000000000000D+00  6 -2 2 25 23 2 -2 4 0.32823607D-02 0.27529813D+00 0.16180808D+05 0.16180808D+05 0.16180808D+05 0.12440882D+01  1  2  5  6  6  1       21 -.158367639719D-03 0.100000000000D+01
0.244150560667D-07 0.000000000000D+00 0.000000000000D+00 0.254863588751D-06 0.000000000000D+00  6 2 2 25 23 2 2 4 0.32208959D-02 0.27529813D+00 0.17873329D+05 0.17873329D+05 0.17873329D+05 0.12392377D+01  1  2 12  7  6  1       21 0.241663881301D-04 0.100000000000D+01
-.187118299833D-06 0.000000000000D+00 -.455218336989D-07 0.256862640324D-06 0.000000000000D+00  6 2 2 25 23 2 2 4 0.32823607D-02 0.27529813D+00 0.16180808D+05 0.16180808D+05 0.16180808D+05 0.12440882D+01  1  2  5  7  6  1       21 -.183386070647D-03 0.100000000000D+01
0.244150560667D-07 0.000000000000D+00 0.000000000000D+00 0.254863588751D-06 0.000000000000D+00  6 -4 2 25 23 2 -4 4 0.32208959D-02 0.27529813D+00 0.17873329D+05 0.17873329D+05 0.17873329D+05 0.12392377D+01  1  2 12  8  6  1       21 0.141556299793D-04 0.100000000000D+01
-.187118299833D-06 0.000000000000D+00 -.455218336989D-07 0.256862640324D-06 0.000000000000D+00  6 -4 2 25 23 2 -4 4 0.32823607D-02 0.27529813D+00 0.16180808D+05 0.16180808D+05 0.16180808D+05 0.12440882D+01  1  2  5  8  6  1       21 -.106577118185D-03 0.100000000000D+01
0.244150560667D-07 0.000000000000D+00 0.000000000000D+00 0.254863588751D-06 0.000000000000D+00  6 4 2 25 23 2 4 4 0.32208959D-02 0.27529813D+00 0.17873329D+05 0.17873329D+05 0.17873329D+05 0.12392377D+01  1  2 12  9  6  1       21 0.141556299793D-04 0.100000000000D+01
-.187118299833D-06 0.000000000000D+00 -.455218336989D-07 0.256862640324D-06 0.000000000000D+00  6 4 2 25 23 2 4 4 0.32823607D-02 0.27529813D+00 0.16180808D+05 0.16180808D+05 0.16180808D+05 0.12440882D+01  1  2  5  9  6  1       21 -.106577118185D-03 0.100000000000D+01
  </mgrwgt>
  </event>
  <event>
  5     66 -.41063134E-03 0.15988671E+03 0.75467711E-02 0.10543039E+00
       21 -1    0    0  501  502 0.00000000E+00 0.00000000E+00 0.13885935E+03 0.13886138E+03 0.75000000E+00 0.0000E+00 0.9000E+01
        2 -1    0    0  502    0 0.00000000E+00 0.00000000E+00 -.79883729E+03 0.79883735E+03 0.32000000E+00 0.0000E+00 0.9000E+01
       25  1    1    2    0    0 0.12023488E+03 0.12925346E+03 -.52787404E+03 0.57047251E+03 0.12500000E+03 0.0000E+00 0.9000E+01
       23  1    1    2    0    0 0.61625880E+01 -.31338088E+02 -.17656526E+03 0.20127244E+03 0.91188000E+02 0.0000E+00 0.9000E+01
        2  1    1    2  501    0 -.12639747E+03 -.97915375E+02 0.44461362E+02 0.16595377E+03 0.32000000E+00 0.0000E+00 0.9000E+01
#aMCatNLO 1  0  0  1  5 0.22829959D+03 0.00000000D+00  -5  6  0 0.00000000D+00 0.00000000D+00 0.00000000D+00 0.00000000D+00 0.00000000D+00
  <mgrwgt>
 -.3644413547D-01   12    2    0
 0.333057061860513D+03 0.000000000000000D+00 0.000000000000000D+00 0.333057061860513D+03
 0.333057061860513D+03 0.000000000000000D+00 0.000000000000000D+00 -.333057061860513D+03
 0.280051370750996D+03 0.120234913884109D+03 0.129253491078158D+03 -.177878809268843D+03
 0.108395452153919D+03 0.616260161041320D+01 -.313380777885435D+02 -.491352208254227D+02
 0.277667300816110D+03 -.126397515494522D+03 -.979154132896144D+02 0.227014030094266D+03
 0.000000000000000D+00 -.000000000000000D+00 0.000000000000000D+00 0.000000000000000D+00
 0.372003735121789D+04 0.000000000000000D+00 0.000000000000000D+00 0.372003735121789D+04
 0.355944395769162D+03 0.000000000000000D+00 0.000000000000000D+00 -.355944395769162D+03
 0.314143130292603D+03 0.209572823207804D+03 0.865983100057049D+02 -.177878809268843D+03
 0.121118916386150D+03 0.406703828320595D+02 -.478141254995404D+02 -.491352208254227D+02
 0.268889023052562D+03 -.442220675287243D+02 -.137150813347956D+03 0.227014030094266D+03
 0.337183067725574D+04 -.206021138511140D+03 0.983666288417919D+02 0.336409295544873D+04
0.133128796435D-05 0.000000000000D+00 0.000000000000D+00 0.230490419313D-06 0.000000000000D+00  6 21 2 25 23 2 21 2 0.21363138D-01 0.12289821D+00 0.55887607D+05 0.55887607D+05 0.55887607D+05 0.11875233D+01  1  2  2  1  6  1       21 0.170086018789D-02 0.100000000000D+01
-.304536100194D-07 0.702539959981D-07 -.268748683895D-08 0.230490419313D-06 0.000000000000D+00  6 21 2 25 23 2 21 4 0.21363138D-01 0.12289821D+00 0.55887607D+05 0.55887607D+05 0.55887607D+05 0.11875233D+01  1  2  3  1  6  1       21 -.548680675695D-04 0.100000000000D+01
0.854756532751D-07 0.000000000000D+00 0.000000000000D+00 0.230490419313D-06 0.000000000000D+00  6 21 2 25 23 2 21 4 0.21363138D-01 0.12289821D+00 0.55887607D+05 0.55887607D+05 0.55887607D+05 0.11875233D+01  1  2 15  1  6  1       21 0.154000918658D-03 0.100000000000D+01
-.230143352051D-02 0.000000000000D+00 -.486395069649D-04 0.230490419313D-06 0.000000000000D+00  6 21 2 25 23 2 21 4 0.24114135D+00 0.12289821D+00 0.55887607D+05 0.55887607D+05 0.55887607D+05 0.11875233D+01  1  2  5  1  6  1       21 -.146893762090D-01 0.100000000000D+01
-.101213091911D-02 0.000000000000D+00 -.213414944778D-04 0.230490419313D-06 0.000000000000D+00  6 -1 2 25 23 2 -1 4 0.24114135D+00 0.12289821D+00 0.55887607D+05 0.55887607D+05 0.55887607D+05 0.11875233D+01  1  2  5  4  6  1       21 -.761330734310D-03 0.100000000000D+01
-.101213091911D-02 0.000000000000D+00 -.213414944778D-04 0.230490419313D-06 0.000000000000D+00  6 -3 2 25 23 2 -3 4 0.24114135D+00 0.12289821D+00 0.55887607D+05 0.55887607D+05 0.55887607D+05 0.11875233D+01  1  2  5  4  6  1       21 -.406674414693D-03 0.100000000000D+01
-.101213091911D-02 0.000000000000D+00 -.213414944778D-04 0.230490419313D-06 0.000000000000D+00  6 1 2 25 23 2 1 4 0.24114135D+00 0.12289821D+00 0.55887607D+05 0.55887607D+05 0.55887607D+05 0.11875233D+01  1  2  5  5  6  1       21 -.647391170196D-02 0.100000000000D+01
-.101213091911D-02 0.000000000000D+00 -.213414944778D-04 0.230490419313D-06 0.000000000000D+00  6 3 2 25 23 2 3 4 0.24114135D+00 0.12289821D+00 0.55887607D+05 0.55887607D+05 0.55887607D+05 0.11875233D+01  1  2  5  5  6  1       21 -.410485372810D-03 0.100000000000D+01
-.101213091911D-02 0.000000000000D+00 -.213414944778D-04 0.230490419313D-06 0.000000000000D+00  6 -2 2 25 23 2 -2 4 0.24114135D+00 0.12289821D+00 0.55887607D+05 0.55887607D+05 0.55887607D+05 0.11875233D+01  1  2  5  6  6  1       21 -.597140484089D-03 0.100000000000D+01
-.101213091911D-02 0.000000000000D+00 -.213414944778D-04 0.230490419313D-06 0.000000000000D+00  6 2 2 25 23 2 2 4 0.24114135D+00 0.12289821D+00 0.55887607D+05 0.55887607D+05 0.55887607D+05 0.11875233D+01  1  2  5  7  6  1       21 -.142934906231D-01 0.100000000000D+01
-.101213091911D-02 0.000000000000D+00 -.213414944778D-04 0.230490419313D-06 0.000000000000D+00  6 -4 2 25 23 2 -4 4 0.24114135D+00 0.12289821D+00 0.55887607D+05 0.55887607D+05 0.55887607D+05 0.11875233D+01  1  2  5  8  6  1       21 -.305859485255D-03 0.100000000000D+01
-.101213091911D-02 0.000000000000D+00 -.213414944778D-04 0.230490419313D-06 0.000000000000D+00  6 4 2 25 23 2 4 4 0.24114135D+00 0.12289821D+00 0.55887607D+05 0.55887607D+05 0.55887607D+05 0.11875233D+01  1  2  5  9  6  1       21 -.305859485255D-03 0.100000000000D+01
  </mgrwgt>
  </event>
  <event>
  5     66 0.41063134E-03 0.26716173E+02 0.75467711E-02 0.12139416E+00
       21 -1    0    0  501  502 0.00000000E+00 0.00000000E+00 0.14969715E+03 0.14969903E+03 0.75000000E+00 0.0000E+00 0.9000E+01
        2 -1    0    0  502    0 0.00000000E+00 0.00000000E+00 -.13366370E+03 0.13366408E+03 0.32000000E+00 0.0000E+00 0.9000E+01
       25  1    1    2    0    0 0.40256148E+02 -.18537593E+02 0.25776359E+02 0.13510596E+03 0.12500000E+03 0.0000E+00 0.9000E+01
       23  1    1    2    0    0 -.34375583E+02 -.75226041E+01 -.41990128E+02 0.10637994E+03 0.91188000E+02 0.0000E+00 0.9000E+01
        2  1    1    2  501    0 -.58805647E+01 0.26060197E+02 0.32247222E+02 0.41877209E+02 0.32000000E+00 0.0000E+00 0.9000E+01
#aMCatNLO 1  0  0  2  1 0.20949954D+02 0.00000000D+00  -5  6  0 0.00000000D+00 0.00000000D+00 0.00000000D+00 0.00000000D+00 0.00000000D+00
  <mgrwgt>
 0.2157311844D-01    9    2    0
 0.141454570677733D+03 0.000000000000000D+00 0.000000000000000D+00 0.141454570677733D+03
 0.141454570677733D+03 0.000000000000000D+00 0.000000000000000D+00 -.141454570677733D+03
 0.133861941896636D+03 0.402562362302162D+02 -.185379851183866D+02 0.181603425261125D+02
 0.108930536173384D+03 -.343755109858529D+02 -.752292330129079D+01 -.480867989835594D+02
 0.401166632854475D+02 -.588072524436329D+01 0.260609084196774D+02 0.299264564574469D+02
 0.000000000000000D+00 -.000000000000000D+00 -.000000000000000D+00 -.000000000000000D+00
 0.147426131967897D+03 0.000000000000000D+00 0.000000000000000D+00 0.147426131967897D+03
 0.161490940494791D+03 0.000000000000000D+00 0.000000000000000D+00 -.161490940494791D+03
 0.135578077674941D+03 0.477760081893023D+02 -.120029224300758D+02 0.181603425261125D+02
 0.106941981231337D+03 -.283507485704608D+02 -.228709962459096D+01 -.480867989835594D+02
 0.411637137082584D+02 -.361228011615600D+01 0.280323021266256D+02 0.299264564574469D+02
 0.252332998481510D+02 -.158129795026856D+02 -.137422800719589D+02 -.140648085268938D+02
0.387699599943D-06 0.000000000000D+00 0.000000000000D+00 0.761643503730D-06 0.000000000000D+00  6 21 2 25 23 2 21 2 0.23030505D-01 0.20563820D-01 0.16522872D+05 0.16522872D+05 0.16522872D+05 0.12430634D+01  1  2  2  2  6  2        2 0.346919615585D-02 0.100000000000D+01
0.217410100623D-07 0.204594699812D-07 -.782653791078D-09 0.761643503730D-06 0.000000000000D+00  6 21 2 25 23 2 21 4 0.23030505D-01 0.20563820D-01 0.16522872D+05 0.16522872D+05 0.16522872D+05 0.12430634D+01  1  2  3  2  6  2        2 0.300607465898D-03 0.100000000000D+01
0.552844564165D-07 0.000000000000D+00 0.000000000000D+00 0.761643503730D-06 0.000000000000D+00  6 21 2 25 23 2 21 4 0.23030505D-01 0.20563820D-01 0.16522872D+05 0.16522872D+05 0.16522872D+05 0.12430634D+01  1  2 15  2  6  2        2 0.764404243377D-03 0.100000000000D+01
0.230903189511D-05 0.000000000000D+00 0.000000000000D+00 0.751922136501D-06 0.000000000000D+00  6 21 2 25 23 2 21 4 0.23030505D-01 0.23867053D-01 0.19472984D+05 0.19472984D+05 0.19472984D+05 0.12351049D+01  1  2 12  2  6  2        2 0.263856763836D-01 0.100000000000D+01
-.132268247565D-05 0.000000000000D+00 0.000000000000D+00 0.761643503730D-06 0.000000000000D+00  6 21 2 25 23 2 21 4 0.23030505D-01 0.20563820D-01 0.16522872D+05 0.16522872D+05 0.16522872D+05 0.12430634D+01  1  2  4  2  6  2        2 -.182883971837D-01 0.100000000000D+01
-.473186799017D-05 0.000000000000D+00 -.996885779980D-06 0.761643503730D-06 0.000000000000D+00  6 21 2 25 23 2 21 4 0.23030505D-01 0.24378632D-01 0.16522872D+05 0.16522872D+05 0.16522872D+05 0.12430634D+01  1  2  5  2  6  2        2 -.541238804620D-01 0.100000000000D+01
0.484544476747D-05 0.000000000000D+00 0.982623453755D-06 0.761643503730D-06 0.000000000000D+00  6 21 2 25 23 2 21 4 0.23030505D-01 0.20563820D-01 0.16522872D+05 0.16522872D+05 0.16522872D+05 0.12430634D+01  1  2  6  2  6  2        2 0.669967434138D-01 0.100000000000D+01
0.523768767024D-07 0.000000000000D+00 0.000000000000D+00 0.751922136501D-06 0.000000000000D+00  6 21 21 25 23 2 -2 4 0.23030505D-01 0.23867053D-01 0.19472984D+05 0.19472984D+05 0.19472984D+05 0.12351049D+01  1  2 12 10  6  2        2 0.361112909728D-02 0.100000000000D+01
-.110743631146D-06 0.000000000000D+00 -.251559781596D-07 0.761643503730D-06 0.000000000000D+00  6 21 21 25 23 2 -2 4 0.23030505D-01 0.24378632D-01 0.16522872D+05 0.16522872D+05 0.16522872D+05 0.12430634D+01  1  2  5 10  6  2        2 -.754236067863D-02 0.100000000000D+01
  </mgrwgt>
  </event>
  <event>
  6     66 -.41063134E-03 0.23926731E+02 0.75467711E-02 0.12075479E+00
       21 -1    0    0  501  502 0.00000000E+00 0.00000000E+00 0.35484258E+02 0.35492183E+02 0.75000000E+00 0.0000E+00 0.9000E+01
        2 -1    0    0  503    0 0.00000000E+00 0.00000000E+00 -.19325796E+04 0.19325796E+04 0.32000000E+00 0.0000E+00 0.9000E+01
       25  1    1    2    0    0 -.12277177E+02 0.78546314E+01 -.40273016E+03 0.42193483E+03 0.12500000E+03 0.0000E+00 0.9000E+01
       23  1    1    2    0    0 0.37761353E+02 0.18616687E+02 -.12311460E+04 0.12352361E+04 0.91188000E+02 0.0000E+00 0.9000E+01
        2  1    1    2  501    0 -.19144057E+01 -.36729500E+02 0.86777059E+01 0.37790556E+02 0.32000000E+00 0.0000E+00 0.9000E+01
       21  1    1    2  503  502 -.23569770E+02 0.10258182E+02 -.27189693E+03 0.27311035E+03 0.75000000E+00 0.0000E+00 0.9000E+01
#aMCatNLO 2  0  0  2  1 0.25705337D+02 0.00000000D+00  -5  6  0 0.00000000D+00 0.00000000D+00 0.00000000D+00 0.00000000D+00 0.00000000D+00
  <mgrwgt>
 -.6038834882D-01    2    2    0
 0.240293405097929D+03 0.000000000000000D+00 0.000000000000000D+00 0.240293405097929D+03
 0.240293405097929D+03 0.000000000000000D+00 0.000000000000000D+00 -.240293405097929D+03
 0.126963137616616D+03 -.184761945433458D+02 0.105526254819350D+02 0.647384306963778D+01
 0.191686595329248D+03 0.283381667903258D+02 0.227179340090098D+02 -.164649152024069D+03
 0.161937077249994D+03 -.986197224698004D+01 -.332705594909448D+02 0.158175308954431D+03
 0.000000000000000D+00 -.000000000000000D+00 0.000000000000000D+00 -.000000000000000D+00
 0.244819244121400D+03 0.000000000000000D+00 0.000000000000000D+00 0.244819244121400D+03
 0.280134018931074D+03 0.000000000000000D+00 0.000000000000000D+00 -.280134018931074D+03
 0.126013233886791D+03 -.122771725566410D+02 0.785464859375486D+01 0.647384306963778D+01
 0.192865490187655D+03 0.377613663523463D+02 0.186167105118892D+02 -.164649152024069D+03
 0.162395050914264D+03 -.191442370109585D+01 -.367295409787462D+02 0.158175308954431D+03
 0.436794880637625D+02 -.235697700946094D+02 0.102581818731022D+02 -.353147748096740D+02
-.132847622910D-04 0.000000000000D+00 0.000000000000D+00 0.153641587765D-05 0.000000000000D+00  6 21 2 25 23 2 21 4 0.53587277D-02 0.29945758D+00 0.20846938D+05 0.20846938D+05 0.20846938D+05 0.12318480D+01  1  2 13  2  6  2        2 -.763333790151D-01 0.100000000000D+01
0.281732253711D-05 0.000000000000D+00 0.000000000000D+00 0.156207199341D-05 0.168736600980D-07  6 21 2 25 23 2 21 4 0.54596574D-02 0.29731670D+00 0.20846938D+05 0.20846938D+05 0.20846938D+05 0.12318480D+01  1  2  1  2  6  2        2 0.159450302000D-01 0.100000000000D+01
  </mgrwgt>
  </event>
  <event>
  5     66 0.41063134E-03 0.55596622E+02 0.75467711E-02 0.10803870E+00
       21 -1    0    0  501  502 0.00000000E+00 0.00000000E+00 0.19676970E+03 0.19677113E+03 0.75000000E+00 0.0000E+00 0.9000E+01
        2 -1    0    0  502    0 0.00000000E+00 0.00000000E+00 -.15177256E+03 0.15177289E+03 0.32000000E+00 0.0000E+00 0.9000E+01
       25  1    1    2    0    0 0.68053446E+02 -.27463998E+02 -.52663044E+02 0.15422042E+03 0.12500000E+03 0.0000E+00 0.9000E+01
       23  1    1    2    0    0 -.57830355E+02 -.27183904E+02 0.75187422E+02 0.13435667E+03 0.91188000E+02 0.0000E+00 0.9000E+01
        2  1    1    2  501    0 -.10223091E+02 0.54647902E+02 0.22472763E+02 0.59966926E+02 0.32000000E+00 0.0000E+00 0.9000E+01
#aMCatNLO 1  0  0  2  1 0.23224286D+03 0.00000000D+00  -5  6  0 0.00000000D+00 0.00000000D+00 0.00000000D+00 0.00000000D+00 0.00000000D+00
  <mgrwgt>
 0.3730764725D-01    3    2    0
 0.172813620433240D+03 0.000000000000000D+00 0.000000000000000D+00 0.172813620433240D+03
 0.172813620433240D+03 0.000000000000000D+00 0.000000000000000D+00 -.172813620433240D+03
 0.162378240088852D+03 0.680535202889037D+02 -.274643946935323D+02 -.731855057696446D+02
 0.125701881427924D+03 -.578302976378697D+02 -.271842111927848D+02 0.583299836058731D+02
 0.575471193497027D+02 -.102232226510340D+02 0.546486058863171D+02 0.148555221637716D+02
 0.000000000000000D+00 -.000000000000000D+00 0.000000000000000D+00 0.000000000000000D+00
 0.390703588568353D+03 0.000000000000000D+00 0.000000000000000D+00 0.390703588568353D+03
 0.282089539859181D+03 0.000000000000000D+00 0.000000000000000D+00 -.282089539859181D+03
 0.244167517031660D+03 0.189335350192624D+03 -.528089318778901D+02 -.731855057696446D+02
 0.117143239469133D+03 0.146159156843239D+02 -.423234595770469D+02 0.583299836058731D+02
 0.550964183323222D+02 0.233809021925442D+02 0.476262762238938D+02 0.148555221637716D+02
 0.256385953594418D+03 -.227332168069492D+03 0.475061152310432D+02 0.108614048709172D+03
0.794480813309D-05 0.000000000000D+00 0.000000000000D+00 0.137195861206D-06 0.000000000000D+00  6 21 2 25 23 2 21 2 0.30272397D-01 0.23349760D-01 0.24319742D+05 0.24319742D+05 0.24319742D+05 0.12245842D+01  1  2  2  2  6  2        2 0.356088270310D-01 0.100000000000D+01
-.271347872804D-06 0.419259043675D-06 -.160382786200D-07 0.137195861206D-06 0.000000000000D+00  6 21 2 25 23 2 21 4 0.30272397D-01 0.23349760D-01 0.24319742D+05 0.24319742D+05 0.24319742D+05 0.12245842D+01  1  2  3  2  6  2        2 -.182380336817D-02 0.100000000000D+01
0.524100588238D-06 0.000000000000D+00 0.000000000000D+00 0.137195861206D-06 0.000000000000D+00  6 21 2 25 23 2 21 4 0.30272397D-01 0.23349760D-01 0.24319742D+05 0.24319742D+05 0.24319742D+05 0.12245842D+01  1  2 15  2  6  2        2 0.352262359092D-02 0.100000000000D+01
  </mgrwgt>
  </event>
  <event>
  5     66 0.41063134E-03 0.28138325E+02 0.75467711E-02 0.12168958E+00
       21 -1    0    0  501  502 0.00000000E+00 0.00000000E+00 0.24250889E+02 0.24262483E+02 0.75000000E+00 0.0000E+00 0.9000E+01
        2 -1    0    0  502    0 -.00000000E+00 -.00000000E+00 -.83162038E+03 0.83162045E+03 0.32000000E+00 0.0000E+00 0.9000E+01
       25  1    1    2    0    0 -.34873575E+02 -.49002963E+02 -.51356170E+03 0.53196624E+03 0.12500000E+03 0.0000E+00 0.9000E+01
       23  1    1    2    0    0 0.81290315E+01 0.57744176E+02 -.23348502E+03 0.25735380E+03 0.91188000E+02 0.0000E+00 0.9000E+01
        2  1    1    2  501    0 0.26744543E+02 -.87412133E+01 -.60322773E+02 0.66562894E+02 0.32000000E+00 0.0000E+00 0.9000E+01
#aMCatNLO 1  0  0  5  1 0.22236735D+01 0.00000000D+00  -5  6  0 0.00000000D+00 0.00000000D+00 0.00000000D+00 0.00000000D+00 0.00000000D+00
  <mgrwgt>
 0.7360381719D-01    8    2    0
 0.142030001824161D+03 0.000000000000000D+00 0.000000000000000D+00 0.142030001824161D+03
 0.142030001824161D+03 -.000000000000000D+00 -.000000000000000D+00 -.142030001824161D+03
 0.143162766478751D+03 -.348743897942462D+02 -.490026966165153D+02 -.353990164642779D+02
 0.111793435500856D+03 0.812839523070682D+01 0.577443841523548D+02 0.279649095639993D+02
 0.291038016687150D+02 0.267459945635394D+02 -.874168753583950D+01 0.743410690027857D+01
 0.000000000000000D+00 0.000000000000000D+00 -.000000000000000D+00 0.000000000000000D+00
 0.142030001824161D+03 0.000000000000000D+00 0.000000000000000D+00 0.142030001824161D+03
 0.142030001824161D+03 -.000000000000000D+00 -.000000000000000D+00 -.142030001824161D+03
 0.143120384736765D+03 -.346620621201413D+02 -.490720940052655D+02 -.353399995291090D+02
 0.111789172744202D+03 0.829421978229996D+01 0.576901858905421D+02 0.280110008559236D+02
 0.218000104758972D+02 0.198009111892785D+02 -.531689492888844D+01 0.740911608349430D+01
 0.735043569145836D+01 0.656693114856281D+01 -.330119695638807D+01 -.801174103089186D-01
0.779521467582D-06 0.000000000000D+00 0.000000000000D+00 0.376624752787D-06 0.000000000000D+00  6 21 2 25 23 2 21 2 0.37318026D-02 0.12794249D+00 0.18919297D+05 0.18919297D+05 0.18919297D+05 0.12364909D+01  1  2  2  3  6  5        2 0.222415724785D-01 0.100000000000D+01
0.241887982587D-07 0.411364780052D-07 -.157362925296D-08 0.376624752787D-06 0.000000000000D+00  6 21 2 25 23 2 21 4 0.37318026D-02 0.12794249D+00 0.18919297D+05 0.18919297D+05 0.18919297D+05 0.12364909D+01  1  2  3  3  6  5        2 0.105519695457D-02 0.100000000000D+01
0.953362903239D-07 0.000000000000D+00 0.000000000000D+00 0.376624752787D-06 0.000000000000D+00  6 21 2 25 23 2 21 4 0.37318026D-02 0.12794249D+00 0.18919297D+05 0.18919297D+05 0.18919297D+05 0.12364909D+01  1  2 15  3  6  5        2 0.415889049691D-02 0.100000000000D+01
0.739244834007D-08 0.000000000000D+00 0.000000000000D+00 0.376695370551D-06 0.000000000000D+00  6 21 2 25 23 2 21 4 0.37318026D-02 0.12794249D+00 0.18873795D+05 0.18873795D+05 0.18873795D+05 0.12366068D+01  1  2 12  3  6  5        2 0.322593502844D-03 0.100000000000D+01
-.675701094518D-05 0.000000000000D+00 0.000000000000D+00 0.376624752787D-06 0.000000000000D+00  6 21 2 25 23 2 21 4 0.37318026D-02 0.12794249D+00 0.18919297D+05 0.18919297D+05 0.18919297D+05 0.12364909D+01  1  2  4  3  6  5        2 -.294763604834D+00 0.100000000000D+01
-.557776142784D-05 0.000000000000D+00 0.000000000000D+00 0.376624752787D-06 0.000000000000D+00  6 21 2 25 23 2 21 4 0.37318026D-02 0.12794249D+00 0.18919297D+05 0.18919297D+05 0.18919297D+05 0.12364909D+01  1  2  5  3  6  5        2 -.243320763976D+00 0.100000000000D+01
0.876957497033D-05 0.000000000000D+00 -.000000000000D+00 0.376624752787D-06 0.000000000000D+00  6 21 2 25 23 2 21 4 0.37318026D-02 0.12794249D+00 0.18919297D+05 0.18919297D+05 0.18919297D+05 0.12364909D+01  1  2  6  3  6  5        2 0.382558434801D+00 0.100000000000D+01
0.461410577818D-05 0.000000000000D+00 0.000000000000D+00 0.376624752787D-06 0.297004017173D-06  6 21 2 25 23 2 21 4 0.37318026D-02 0.12794249D+00 0.18873795D+05 0.18873795D+05 0.18873795D+05 0.12366068D+01  1  2 11  3  6  5        2 0.201351497772D+00 0.100000000000D+01
  </mgrwgt>
  </event>
  <event>
  6     66 0.41063134E-03 0.21249248E+02 0.75467711E-02 0.11557531E+00
       21 -1    0    0  503  502 0.00000000E+00 0.00000000E+00 0.27702356E+03 0.27702458E+03 0.75000000E+00 0.0000E+00 0.9000E+01
        2 -1    0    0  502    0 0.00000000E+00 0.00000000E+00 -.23086151E+04 0.23086151E+04 0.32000000E+00 0.0000E+00 0.9000E+01
       25  1    1    2    0    0 0.34916083E+02 -.87844790E+02 -.10662101E+04 0.10776664E+04 0.12500000E+03 0.0000E+00 0.9000E+01
       23  1    1    2    0    0 -.42492017E+02 0.10528844E+03 -.12205108E+04 0.12291676E+04 0.91188000E+02 0.0000E+00 0.9000E+01
        2  1    1    2  501    0 -.33224147E+02 -.25814664E+02 0.34884439E+02 0.54655899E+02 0.32000000E+00 0.0000E+00 0.9000E+01
       21  1    1    2  503  501 0.40800081E+02 0.83710118E+01 0.22024494E+03 0.22414977E+03 0.75000000E+00 0.0000E+00 0.9000E+01
#aMCatNLO 2  0  0  1  2 0.60818384D+02 0.00000000D+00  -5  6  0 0.00000000D+00 0.00000000D+00 0.00000000D+00 0.00000000D+00 0.00000000D+00
  <mgrwgt>
 0.1638213378D+01    1    2    0
 0.355011429934498D+03 0.000000000000000D+00 0.000000000000000D+00 0.355011429934498D+03
 0.355011429934498D+03 0.000000000000000D+00 0.000000000000000D+00 -.355011429934498D+03
 0.203735349080777D+03 0.465754303659649D+02 -.854526218966069D+02 -.128108044877310D+03
 0.216083173411220D+03 -.300621251158027D+02 0.107838705344066D+03 -.160759972476674D+03
 0.290204337376999D+03 -.165133052501622D+02 -.223860834474592D+02 0.288868017353984D+03
 0.000000000000000D+00 0.000000000000000D+00 0.000000000000000D+00 0.000000000000000D+00
 0.179685623835738D+04 0.000000000000000D+00 0.000000000000000D+00 0.179685623835738D+04
 0.355922611547479D+03 0.000000000000000D+00 0.000000000000000D+00 -.355922611547479D+03
 0.202416675900479D+03 0.349160842027401D+02 -.878447868929045D+02 -.128108044877310D+03
 0.216910692453549D+03 -.424920160387970D+02 0.105288446559610D+03 -.160759972476674D+03
 0.291916037209447D+03 -.332241488223017D+02 -.258146715082515D+02 0.288868017353984D+03
 0.144153544434138D+04 0.408000806583586D+02 0.837101184154642D+01 0.144093362680990D+04
0.220912416061D-01 0.000000000000D+00 0.000000000000D+00 0.788777526101D-05 0.148726300555D-05  6 21 2 25 23 2 21 4 0.42619078D-01 0.35517153D+00 0.37262056D+05 0.37262056D+05 0.37262056D+05 0.12051399D+01  1  2  1  1  6  1       21 0.163821337832D+01 0.100000000000D+01
  </mgrwgt>
  </event>
  <event>
  6     66 0.41063134E-03 0.17094620E+03 0.75467711E-02 0.10514485E+00
       21 -1    0    0  501  502 0.00000000E+00 0.00000000E+00 0.74693838E+02 0.74697604E+02 0.75000000E+00 0.0000E+00 0.9000E+01
        2 -1    0    0  503    0 0.00000000E+00 0.00000000E+00 -.20771317E+04 0.20771317E+04 0.32000000E+00 0.0000E+00 0.9000E+01
       25  1    1    2    0    0 0.25189091E+03 -.62641502E+01 -.10247899E+04 0.10626888E+04 0.12500000E+03 0.0000E+00 0.9000E+01
       23  1    1    2    0    0 -.21249056E+03 0.16868153E+03 -.65072775E+03 0.71089208E+03 0.91188000E+02 0.0000E+00 0.9000E+01
        2  1    1    2  501    0 -.49173410E+02 -.17024858E+03 -.31140130E+03 0.35829245E+03 0.32000000E+00 0.0000E+00 0.9000E+01
       21  1    1    2  503  502 0.97730578E+01 0.78312058E+01 -.15518908E+02 0.19955937E+02 0.75000000E+00 0.0000E+00 0.9000E+01
#aMCatNLO 2  0  0  2  1 0.12523595D+02 0.00000000D+00  -5  6  0 0.00000000D+00 0.00000000D+00 0.00000000D+00 0.00000000D+00 0.00000000D+00
  <mgrwgt>
 0.1874423866D-01    2    2    0
 0.386290169567939D+03 0.000000000000000D+00 0.000000000000000D+00 0.386290169567939D+03
 0.386290169567939D+03 0.000000000000000D+00 0.000000000000000D+00 -.386290169567939D+03
 0.299977006960924D+03 0.255665369374860D+03 -.323958137971411D+01 -.947941386380780D+02
 0.287132514150480D+03 -.208852631557407D+03 0.171596693866641D+03 0.326340663105322D+02
 0.185470818024473D+03 -.468127378174531D+02 -.168357112486927D+03 0.621600723275458D+02
 0.000000000000000D+00 0.000000000000000D+00 0.000000000000000D+00 0.000000000000000D+00
 0.398157302493273D+03 0.000000000000000D+00 0.000000000000000D+00 0.398157302493273D+03
 0.389659201709210D+03 0.000000000000000D+00 0.000000000000000D+00 -.389659201709210D+03
 0.296815114900298D+03 0.251890939397788D+03 -.626405319594068D+01 -.947941386380780D+02
 0.288072821645993D+03 -.212490535247608D+03 0.168681621326417D+03 0.326340663105322D+02
 0.187793900215080D+03 -.491734619126586D+02 -.170248773886187D+03 0.621600723275458D+02
 0.151346674411135D+02 0.977305776247812D+01 0.783120575571033D+01 0.849810078406325D+01
-.724064261419D-04 0.000000000000D+00 0.000000000000D+00 0.182468351895D-07 0.000000000000D+00  6 21 2 25 23 2 21 4 0.11148877D-01 0.31678856D+00 0.13861536D+06 0.13861536D+06 0.13861536D+06 0.11507651D+01  1  2  8  2  6  2        2 -.714751130717D-01 0.100000000000D+01
0.993010804547D-04 0.000000000000D+00 0.000000000000D+00 0.182468351895D-07 0.122654500561D-08  6 21 2 25 23 2 21 4 0.11491379D-01 0.31955143D+00 0.14334584D+06 0.14334584D+06 0.14334584D+06 0.11494734D+01  1  2  1  2  6  2        2 0.902193517333D-01 0.100000000000D+01
  </mgrwgt>
  </event>
  <event>
  6     66 -.41063134E-03 0.11801599E+03 0.75467711E-02 0.10659432E+00
       21 -1    0    0  503  502 0.00000000E+00 0.00000000E+00 0.60702291E+02 0.60706924E+02 0.75000000E+00 0.0000E+00 0.9000E+01
        2 -1    0    0  502    0 0.00000000E+00 0.00000000E+00 -.25541115E+04 0.25541115E+04 0.32000000E+00 0.0000E+00 0.9000E+01
       25  1    1    2    0    0 0.52269560E+02 0.72522153E+02 -.70952723E+03 0.72597897E+03 0.12500000E+03 0.0000E+00 0.9000E+01
       23  1    1    2    0    0 -.26293986E+03 0.81682712E+01 -.13087804E+04 0.13380679E+04 0.91188000E+02 0.0000E+00 0.9000E+01
        2  1    1    2  501    0 0.12463602E+03 -.10450357E+03 -.40759356E+03 0.43884820E+03 0.32000000E+00 0.0000E+00 0.9000E+01
       21  1    1    2  503  501 0.86034282E+02 0.23813151E+02 -.67507997E+02 0.11192344E+03 0.75000000E+00 0.0000E+00 0.9000E+01
#aMCatNLO 2  0  0  1  2 0.89269053D+02 0.00000000D+00  -5  6  0 0.00000000D+00 0.00000000D+00 0.00000000D+00 0.00000000D+00 0.00000000D+00
  <mgrwgt>
 -.7719334978D-02    3    2    0
 0.304761285051943D+03 0.000000000000000D+00 0.000000000000000D+00 0.304761285051943D+03
 0.304761285051943D+03 0.000000000000000D+00 0.000000000000000D+00 -.304761285051943D+03
 0.167393498836550D+03 0.749384783814021D+02 0.787966618505537D+02 -.238933880358487D+02
 0.248791475077270D+03 -.225637878502479D+03 0.184930434532787D+02 -.482441898663379D+02
 0.193337596190066D+03 0.150699400121077D+03 -.972897053038324D+02 0.721375779021866D+02
 0.000000000000000D+00 0.000000000000000D+00 0.000000000000000D+00 0.000000000000000D+00
 0.485694646393433D+03 0.000000000000000D+00 0.000000000000000D+00 0.485694646393433D+03
 0.319224855028027D+03 0.000000000000000D+00 0.000000000000000D+00 -.319224855028027D+03
 0.155523191228731D+03 0.522695037410069D+02 0.725221896856786D+02 -.238933880358487D+02
 0.282571929575192D+03 -.262939956454739D+03 0.816832195544855D+01 -.482441898663379D+02
 0.177929819606930D+03 0.124636171144570D+03 -.104503662147229D+03 0.721375779021866D+02
 0.188894561010608D+03 0.860342815691618D+02 0.238131505061018D+02 0.166469791365407D+03
-.121741392351D-04 0.000000000000D+00 0.000000000000D+00 0.355262149783D-07 0.000000000000D+00  6 21 2 25 23 2 21 4 0.94092892D-02 0.37513623D+00 0.11697065D+06 0.11697065D+06 0.11697065D+06 0.11573693D+01  1  2 13  1  6  1       21 -.104917677307D-01 0.100000000000D+01
-.108702392425D-04 0.000000000000D+00 0.000000000000D+00 0.355262149783D-07 0.000000000000D+00  6 21 2 25 23 2 21 4 0.10036069D-01 0.37513623D+00 0.11697065D+06 0.11697065D+06 0.11697065D+06 0.11573693D+01  1  2 13  1  6  1       21 -.834905604379D-02 0.100000000000D+01
0.147536208716D-04 0.000000000000D+00 0.000000000000D+00 0.362610349743D-07 0.105280388512D-09  6 21 2 25 23 2 21 4 0.93391508D-02 0.39293970D+00 0.11697065D+06 0.11697065D+06 0.11697065D+06 0.11573693D+01  1  2  1  1  6  1       21 0.111214887963D-01 0.100000000000D+01
  </mgrwgt>
  </event>
  <event>
  5     66 0.41063134E-03 0.33222868E+02 0.75467711E-02 0.12242377E+00
       21 -1    0    0  501  502 0.00000000E+00 0.00000000E+00 0.19725132E+02 0.19739386E+02 0.75000000E+00 0.0000E+00 0.9000E+01
        2 -1    0    0  502    0 -.00000000E+00 -.00000000E+00 -.17142698E+04 0.17142698E+04 0.32000000E+00 0.0000E+00 0.9000E+01
       25  1    1    2    0    0 -.35988532E+02 0.18528083E+02 -.26266371E+03 0.29369318E+03 0.12500000E+03 0.0000E+00 0.9000E+01
       23  1    1    2    0    0 0.10759869E+02 -.40142585E+02 -.13147749E+04 0.13185885E+04 0.91188000E+02 0.0000E+00 0.9000E+01
        2  1    1    2  501    0 0.25228662E+02 0.21614502E+02 -.11710599E+03 0.12172751E+03 0.32000000E+00 0.0000E+00 0.9000E+01
#aMCatNLO 1  0  0  5  5 0.31409552D+01 0.00000000D+00  -5  6  0 0.00000000D+00 0.00000000D+00 0.00000000D+00 0.00000000D+00 0.00000000D+00
  <mgrwgt>
 0.3193551728D-01    5    2    0
 0.183920040993452D+03 0.000000000000000D+00 0.000000000000000D+00 0.183920040993452D+03
 0.183920040993452D+03 -.000000000000000D+00 -.000000000000000D+00 -.183920040993452D+03
 0.174454299068258D+03 -.359890508052305D+02 0.185276384697774D+02 0.114764181251246D+03
 0.159035945793734D+03 0.107593958937271D+02 -.401429907066834D+02 -.123490713851822D+03
 0.343498371249119D+02 0.252296549115034D+02 0.216153522369059D+02 0.872653260057615D+01
 0.000000000000000D+00 0.000000000000000D+00 -.000000000000000D+00 0.000000000000000D+00
 0.183920040993452D+03 0.000000000000000D+00 0.000000000000000D+00 0.183920040993452D+03
 0.183920040993452D+03 -.000000000000000D+00 -.000000000000000D+00 -.183920040993452D+03
 0.174768594380318D+03 -.334833436213427D+02 0.206743877444806D+02 0.115630865139884D+03
 0.158114129005880D+03 0.130349775801064D+02 -.381934000417507D+02 -.122703626678370D+03
 0.418732252111976D+01 -.393465962449086D+01 0.697248438881227D+00 -.125138649095954D+01
 0.307700360795862D+02 0.243830256657272D+02 0.168217638583889D+02 0.832414802944585D+01
0.521068951402D-05 0.000000000000D+00 0.000000000000D+00 0.119418246502D-06 0.000000000000D+00  6 21 2 25 23 2 21 2 0.30357345D-02 0.26373491D+00 0.17533150D+05 0.17533150D+05 0.17533150D+05 0.12401701D+01  1  2  2  3  6  5        2 0.678926769128D-01 0.100000000000D+01
0.157146774088D-07 0.274975640184D-06 -.105188808626D-07 0.119418246502D-06 0.000000000000D+00  6 21 2 25 23 2 21 4 0.30357345D-02 0.26373491D+00 0.17533150D+05 0.17533150D+05 0.17533150D+05 0.12401701D+01  1  2  3  3  6  5        2 0.314916699877D-03 0.100000000000D+01
0.273813304868D-06 0.000000000000D+00 0.000000000000D+00 0.119418246502D-06 0.000000000000D+00  6 21 2 25 23 2 21 4 0.30357345D-02 0.26373491D+00 0.17533150D+05 0.17533150D+05 0.17533150D+05 0.12401701D+01  1  2 15  3  6  5        2 0.548712392296D-02 0.100000000000D+01
-.400357563924D-05 0.000000000000D+00 0.000000000000D+00 0.119418246502D-06 0.000000000000D+00  6 21 2 25 23 2 21 4 0.30357345D-02 0.26373491D+00 0.17533150D+05 0.17533150D+05 0.17533150D+05 0.12401701D+01  1  2  4  3  6  5        2 -.802302710529D-01 0.100000000000D+01
0.191870779620D-05 0.000000000000D+00 0.000000000000D+00 0.119418246502D-06 0.717045891684D-08  6 21 2 25 23 2 21 4 0.30357345D-02 0.26373491D+00 0.17474948D+05 0.17474948D+05 0.17474948D+05 0.12403316D+01  1  2 11  3  6  5        2 0.384710707975D-01 0.100000000000D+01
  </mgrwgt>
  </event>
  <event>
  6     66 -.41063134E-03 0.49548273E+02 0.75467711E-02 0.11665299E+00
       21 -1    0    0  501  503 0.00000000E+00 0.00000000E+00 0.92390106E+02 0.92393150E+02 0.75000000E+00 0.0000E+00 0.9000E+01
        2 -1    0    0  502    0 0.00000000E+00 0.00000000E+00 -.55015975E+03 0.55015985E+03 0.32000000E+00 0.0000E+00 0.9000E+01
       25  1    1    2    0    0 -.40889425E+02 -.40238379E+02 -.18551421E+03 0.23093634E+03 0.12500000E+03 0.0000E+00 0.9000E+01
       23  1    1    2    0    0 0.36033714E+02 0.15224173E+02 -.26503156E+03 0.28299679E+03 0.91188000E+02 0.0000E+00 0.9000E+01
        2  1    1    2  501    0 -.58564363E+01 0.74764204E+02 0.81937082E+01 0.75440196E+02 0.32000000E+00 0.0000E+00 0.9000E+01
       21  1    1    2  502  503 0.10712147E+02 -.49749998E+02 -.15417583E+02 0.53179665E+02 0.75000000E+00 0.0000E+00 0.9000E+01
#aMCatNLO 2  0  0  1  2 0.50890199D+02 0.00000000D+00  -5  6  0 0.00000000D+00 0.00000000D+00 0.00000000D+00 0.00000000D+00 0.00000000D+00
  <mgrwgt>
 -.6065297776D-02    2    2    0
 0.193064602281370D+03 0.000000000000000D+00 0.000000000000000D+00 0.193064602281370D+03
 0.193064602281370D+03 0.000000000000000D+00 0.000000000000000D+00 -.193064602281370D+03
 0.144016544407389D+03 -.369837715360925D+02 -.583773183834824D+02 -.184405641010518D+02
 0.127372210626435D+03 0.395502000865666D+02 -.110736361825105D+01 -.796428535073577D+02
 0.114740449528916D+03 -.256642855047410D+01 0.594846820017335D+02 0.980834176084096D+02
 0.000000000000000D+00 0.000000000000000D+00 -.000000000000000D+00 0.000000000000000D+00
 0.244748654770349D+03 0.000000000000000D+00 0.000000000000000D+00 0.244748654770349D+03
 0.207679471376108D+03 0.000000000000000D+00 0.000000000000000D+00 -.207679471376108D+03
 0.138766468888276D+03 -.408894226116560D+02 -.402384592379132D+02 -.184405641010518D+02
 0.127233790766931D+03 0.360337151619675D+02 0.152241067309323D+02 -.796428535073577D+02
 0.123468063842714D+03 -.585643994689964D+01 0.747643503982429D+02 0.980834176084096D+02
 0.629598026485365D+02 0.107121473965882D+02 -.497499978912621D+02 0.370691833942407D+02
-.146904886571D-05 0.000000000000D+00 0.000000000000D+00 0.486554532491D-06 0.000000000000D+00  6 21 2 25 23 2 21 4 0.14553519D-01 0.78683067D-01 0.32877589D+05 0.32877589D+05 0.32877589D+05 0.12107455D+01  1  2 13  1  6  1       21 -.995473387952D-02 0.100000000000D+01
0.596829652545D-06 0.000000000000D+00 0.000000000000D+00 0.500259511324D-06 0.165366352934D-08  6 21 2 25 23 2 21 4 0.14213956D-01 0.84639326D-01 0.32877589D+05 0.32877589D+05 0.32877589D+05 0.12107455D+01  1  2  1  1  6  1       21 0.388943610320D-02 0.100000000000D+01
  </mgrwgt>
  </event>
  <event>
  5     66 0.41063134E-03 0.25283092E+02 0.75467711E-02 0.11173006E+00
       21 -1    0    0  501  502 0.00000000E+00 0.00000000E+00 0.34127418E+02 0.34135658E+02 0.75000000E+00 0.0000E+00 0.9000E+01
        2 -1    0    0  502    0 0.00000000E+00 0.00000000E+00 -.97112281E+03 0.97112287E+03 0.32000000E+00 0.0000E+00 0.9000E+01
       25  1    1    2    0    0 -.50498272E+01 -.10858930E+03 -.27440228E+03 0.32052885E+03 0.12500000E+03 0.0000E+00 0.9000E+01
       23  1    1    2    0    0 -.20177187E+02 0.10691826E+03 -.48515104E+03 0.50549522E+03 0.91188000E+02 0.0000E+00 0.9000E+01
        2  1    1    2  501    0 0.25227014E+02 0.16710366E+01 -.17744208E+03 0.17923445E+03 0.32000000E+00 0.0000E+00 0.9000E+01
#aMCatNLO 1  0  0  2  5 0.13276116D+03 0.00000000D+00  -5  6  0 0.00000000D+00 0.00000000D+00 0.00000000D+00 0.00000000D+00 0.00000000D+00
  <mgrwgt>
 0.4320838398D-02    5    2    0
 0.182060654954483D+03 0.000000000000000D+00 0.000000000000000D+00 0.182060654954483D+03
 0.182060654954483D+03 0.000000000000000D+00 0.000000000000000D+00 -.182060654954483D+03
 0.178788687016959D+03 -.505026153018170D+01 -.108589327893272D+03 0.672550914906247D+02
 0.147118717275671D+03 -.201775444874137D+02 0.106918238828003D+03 -.386008100072453D+02
 0.382139056163358D+02 0.252278060175954D+02 0.167108906526891D+01 -.286542814833794D+02
 0.000000000000000D+00 0.000000000000000D+00 -.000000000000000D+00 -.000000000000000D+00
 0.198506362768185D+03 0.000000000000000D+00 0.000000000000000D+00 0.198506362768185D+03
 0.112698733800861D+04 0.000000000000000D+00 0.000000000000000D+00 -.112698733800861D+04
 0.156407365476605D+03 -.333527065153157D+02 -.565916390646462D+02 0.672550914906247D+02
 0.194349339153220D+03 -.490095692364072D+02 0.159888879773860D+03 -.386008100072453D+02
 0.368124543723070D+02 0.188929180909120D+02 0.133096429551863D+02 -.286542814833794D+02
 0.937924541774664D+03 0.634693576608109D+02 -.116606883664400D+03 -.928480975240427D+03
0.309388691372D-06 0.000000000000D+00 0.000000000000D+00 0.894996210795D-07 0.000000000000D+00  6 21 2 25 23 2 21 2 0.52510099D-02 0.14940415D+00 0.27706305D+05 0.27706305D+05 0.27706305D+05 0.12185406D+01  1  2  2  2  6  2        2 0.395689710160D-02 0.100000000000D+01
-.902938003635D-08 0.163268897997D-07 -.624566629048D-09 0.894996210795D-07 0.000000000000D+00  6 21 2 25 23 2 21 4 0.52510099D-02 0.14940415D+00 0.27706305D+05 0.27706305D+05 0.27706305D+05 0.12185406D+01  1  2  3  2  6  2        2 -.171470037670D-03 0.100000000000D+01
0.283338000799D-07 0.000000000000D+00 0.000000000000D+00 0.894996210795D-07 0.000000000000D+00  6 21 2 25 23 2 21 4 0.52510099D-02 0.14940415D+00 0.27706305D+05 0.27706305D+05 0.27706305D+05 0.12185406D+01  1  2 15  2  6  2        2 0.538065487052D-03 0.100000000000D+01
-.600968727790D-05 0.000000000000D+00 -.403991187091D-06 0.894996210795D-07 0.000000000000D+00  6 21 2 25 23 2 21 4 0.52510099D-02 0.92591454D+00 0.27706305D+05 0.27706305D+05 0.27706305D+05 0.12185406D+01  1  2  5  2  6  2        2 -.265257553508D-05 0.100000000000D+01
-.137189070644D-05 0.000000000000D+00 -.903142670017D-07 0.894996210795D-07 0.000000000000D+00  6 21 21 25 23 2 -2 4 0.52510099D-02 0.92591454D+00 0.27706305D+05 0.27706305D+05 0.27706305D+05 0.12185406D+01  1  2  5 10  6  2        2 -.157719473226D-08 0.100000000000D+01
  </mgrwgt>
  </event>
  <event>
  5     66 0.41063134E-03 0.33805904E+03 0.75467711E-02 0.97641158E-01
       21 -1    0    0  501  502 0.00000000E+00 0.00000000E+00 0.38318656E+03 0.38318730E+03 0.75000000E+00 0.0000E+00 0.9000E+01
        2 -1    0    0  502    0 0.00000000E+00 0.00000000E+00 -.11084376E+04 0.11084376E+04 0.32000000E+00 0.0000E+00 0.9000E+01
       25  1    1    2    0    0 -.52311613E+03 0.11636037E+03 -.30277209E+03 0.62808134E+03 0.12500000E+03 0.0000E+00 0.9000E+01
       23  1    1    2    0    0 -.55346427E+02 0.28586905E+02 0.30611093E+02 0.11459812E+03 0.91188000E+02 0.0000E+00 0.9000E+01
        2  1    1    2  501    0 0.57846256E+03 -.14494727E+03 -.45309000E+03 0.74894546E+03 0.32000000E+00 0.0000E+00 0.9000E+01
#aMCatNLO 1  0  0  1  2 0.86753502D+02 0.00000000D+00  -5  6  0 0.00000000D+00 0.00000000D+00 0.00000000D+00 0.00000000D+00 0.00000000D+00
  <mgrwgt>
 0.3800017139D-02   13    2    0
 0.651720004402308D+03 0.000000000000000D+00 0.000000000000000D+00 0.651720004402308D+03
 0.651720004402308D+03 0.000000000000000D+00 0.000000000000000D+00 -.651720004402308D+03
 0.550294637628847D+03 -.523116167876697D+03 0.116360375701329D+03 0.298765388039489D+01
 0.148175702091172D+03 -.553464360656351D+02 0.285869070755454D+02 0.987944740605391D+02
 0.604969669084597D+03 0.578462603942332D+03 -.144947282776875D+03 -.101782127940934D+03
 0.000000000000000D+00 -.000000000000000D+00 -.000000000000000D+00 -.000000000000000D+00
 0.695249538555214D+03 0.000000000000000D+00 0.000000000000000D+00 0.695249538555214D+03
 0.697867309342085D+03 0.000000000000000D+00 0.000000000000000D+00 -.697867309342085D+03
 0.526316467849502D+03 -.492938211946368D+03 0.135598736929900D+03 0.298765388039489D+01
 0.146420120040222D+03 -.470887655917734D+02 0.338511485586141D+02 0.987944740605391D+02
 0.633587271884713D+03 0.613179983868641D+03 -.122815051638562D+03 -.101782127940934D+03
 0.867929881228622D+02 -.731530063304989D+02 -.466348338499526D+02 -.261777078687089D+01
0.445578241860D-04 0.000000000000D+00 0.000000000000D+00 0.214441462166D-07 0.000000000000D+00  6 21 2 25 23 2 21 2 0.58951839D-01 0.17052892D+00 0.39505420D+06 0.39505420D+06 0.39505420D+06 0.11124412D+01  1  2  2  1  6  1       21 0.368780155043D-02 0.100000000000D+01
-.522869472155D-05 0.235138098284D-05 -.899494093534D-07 0.214441462166D-07 0.000000000000D+00  6 21 2 25 23 2 21 4 0.58951839D-01 0.17052892D+00 0.39505420D+06 0.39505420D+06 0.39505420D+06 0.11124412D+01  1  2  3  1  6  1       21 -.535538873654D-03 0.100000000000D+01
0.447295677735D-05 0.000000000000D+00 0.000000000000D+00 0.214441462166D-07 0.000000000000D+00  6 21 2 25 23 2 21 4 0.58951839D-01 0.17052892D+00 0.39505420D+06 0.39505420D+06 0.39505420D+06 0.11124412D+01  1  2 15  1  6  1       21 0.458133886565D-03 0.100000000000D+01
0.696607919757D-04 0.000000000000D+00 0.000000000000D+00 0.212616712749D-07 0.000000000000D+00  6 21 2 25 23 2 21 4 0.64838034D-01 0.17052892D+00 0.45325687D+06 0.45325687D+06 0.45325687D+06 0.11076981D+01  1  2 12  1  6  1       21 0.562986553033D-02 0.100000000000D+01
-.547003447422D-04 0.000000000000D+00 0.000000000000D+00 0.214441462166D-07 0.000000000000D+00  6 21 2 25 23 2 21 4 0.58951839D-01 0.17052892D+00 0.39505420D+06 0.39505420D+06 0.39505420D+06 0.11124412D+01  1  2  4  1  6  1       21 -.560257627797D-02 0.100000000000D+01
0.168334220539D-05 0.000000000000D+00 0.000000000000D+00 0.212616712749D-07 0.000000000000D+00  6 -1 2 25 23 2 -1 4 0.64838034D-01 0.17052892D+00 0.45325687D+06 0.45325687D+06 0.45325687D+06 0.11076981D+01  1  2 12  4  6  1       21 0.154279731053D-04 0.100000000000D+01
0.168334220539D-05 0.000000000000D+00 0.000000000000D+00 0.212616712749D-07 0.000000000000D+00  6 -3 2 25 23 2 -3 4 0.64838034D-01 0.17052892D+00 0.45325687D+06 0.45325687D+06 0.45325687D+06 0.11076981D+01  1  2 12  4  6  1       21 0.805381510120D-05 0.100000000000D+01
0.168334220539D-05 0.000000000000D+00 0.000000000000D+00 0.212616712749D-07 0.000000000000D+00  6 1 2 25 23 2 1 4 0.64838034D-01 0.17052892D+00 0.45325687D+06 0.45325687D+06 0.45325687D+06 0.11076981D+01  1  2 12  5  6  1       21 0.416535802543D-04 0.100000000000D+01
0.168334220539D-05 0.000000000000D+00 0.000000000000D+00 0.212616712749D-07 0.000000000000D+00  6 3 2 25 23 2 3 4 0.64838034D-01 0.17052892D+00 0.45325687D+06 0.45325687D+06 0.45325687D+06 0.11076981D+01  1  2 12  5  6  1       21 0.806073599944D-05 0.100000000000D+01
0.168334220539D-05 0.000000000000D+00 0.000000000000D+00 0.212616712749D-07 0.000000000000D+00  6 -2 2 25 23 2 -2 4 0.64838034D-01 0.17052892D+00 0.45325687D+06 0.45325687D+06 0.45325687D+06 0.11076981D+01  1  2 12  6  6  1       21 0.122652554803D-04 0.100000000000D+01
0.168334220539D-05 0.000000000000D+00 0.000000000000D+00 0.212616712749D-07 0.000000000000D+00  6 2 2 25 23 2 2 4 0.64838034D-01 0.17052892D+00 0.45325687D+06 0.45325687D+06 0.45325687D+06 0.11076981D+01  1  2 12  7  6  1       21 0.634257740050D-04 0.100000000000D+01
0.168334220539D-05 0.000000000000D+00 0.000000000000D+00 0.212616712749D-07 0.000000000000D+00  6 -4 2 25 23 2 -4 4 0.64838034D-01 0.17052892D+00 0.45325687D+06 0.45325687D+06 0.45325687D+06 0.11076981D+01  1  2 12  8  6  1       21 0.672209460535D-05 0.100000000000D+01
0.168334220539D-05 0.000000000000D+00 0.000000000000D+00 0.212616712749D-07 0.000000000000D+00  6 4 2 25 23 2 4 4 0.64838034D-01 0.17052892D+00 0.45325687D+06 0.45325687D+06 0.45325687D+06 0.11076981D+01  1  2 12  9  6  1       21 0.672209460535D-05 0.100000000000D+01
  </mgrwgt>
  </event>
  <event>
  5     66 0.41063134E-03 0.25638106E+03 0.75467711E-02 0.98043874E-01
       21 -1    0    0  501  502 0.00000000E+00 0.00000000E+00 0.12731828E+03 0.12732049E+03 0.75000000E+00 0.0000E+00 0.9000E+01
        2 -1    0    0  502    0 0.00000000E+00 0.00000000E+00 -.41242528E+04 0.41242528E+04 0.32000000E+00 0.0000E+00 0.9000E+01
       25  1    1    2    0    0 0.25051890E+03 0.12339518E+03 -.30562572E+03 0.43245597E+03 0.12500000E+03 0.0000E+00 0.9000E+01
       23  1    1    2    0    0 -.33865554E+03 0.23684438E+03 -.80860789E+03 0.91265810E+03 0.91188000E+02 0.0000E+00 0.9000E+01
        2  1    1    2  501    0 0.88136639E+02 -.36023957E+03 -.28827009E+04 0.29064592E+04 0.32000000E+00 0.0000E+00 0.9000E+01
#aMCatNLO 1  0  0  2  1 0.19381570D+03 0.00000000D+00  -5  6  0 0.00000000D+00 0.00000000D+00 0.00000000D+00 0.00000000D+00 0.00000000D+00
  <mgrwgt>
 0.1666230450D-01    9    2    0
 0.724636120201523D+03 0.000000000000000D+00 0.000000000000000D+00 0.724636120201523D+03
 0.724636120201523D+03 0.000000000000000D+00 0.000000000000000D+00 -.724636120201523D+03
 0.425767020437183D+03 0.250518897551703D+03 0.123395200780843D+03 0.296085227739736D+03
 0.447314202321888D+03 -.338655544991396D+03 0.236844401226563D+03 0.144885802303325D+03
 0.576191017643976D+03 0.881366474396931D+02 -.360239602007406D+03 -.440971030043061D+03
 0.000000000000000D+00 -.000000000000000D+00 -.000000000000000D+00 -.000000000000000D+00
 0.768261027665494D+03 0.000000000000000D+00 0.000000000000000D+00 0.768261027665494D+03
 0.983715467678728D+03 0.000000000000000D+00 0.000000000000000D+00 -.983715467678728D+03
 0.462258005425163D+03 0.284336379103447D+03 0.171883172568754D+03 0.296085227739736D+03
 0.451368028946773D+03 -.304432219193460D+03 0.285914278096009D+03 0.144885802303325D+03
 0.548548562414948D+03 0.130968616012001D+03 -.298826534314088D+03 -.440971030043061D+03
 0.289801898557337D+03 -.110872775921988D+03 -.158970916350676D+03 -.215454440013234D+03
0.515731476439D-03 0.000000000000D+00 0.000000000000D+00 0.597948896882D-08 0.000000000000D+00  6 21 2 25 23 2 21 2 0.19587599D-01 0.63450060D+00 0.30251312D+06 0.30251312D+06 0.30251312D+06 0.11218337D+01  1  2  2  2  6  2        2 0.596593081318D-02 0.100000000000D+01
-.676041879992D-04 0.272158977263D-04 -.104111326211D-05 0.597948896882D-08 0.000000000000D+00  6 21 2 25 23 2 21 4 0.19587599D-01 0.63450060D+00 0.30251312D+06 0.30251312D+06 0.30251312D+06 0.11218337D+01  1  2  3  2  6  2        2 -.984204066558D-03 0.100000000000D+01
-.386324963681D-05 0.000000000000D+00 0.000000000000D+00 0.597948896882D-08 0.000000000000D+00  6 21 2 25 23 2 21 4 0.19587599D-01 0.63450060D+00 0.30251312D+06 0.30251312D+06 0.30251312D+06 0.11218337D+01  1  2 15  2  6  2        2 -.562424624156D-04 0.100000000000D+01
0.872854928899D-03 0.000000000000D+00 0.000000000000D+00 0.585379371447D-08 0.000000000000D+00  6 21 2 25 23 2 21 4 0.19587599D-01 0.87530283D+00 0.42416062D+06 0.42416062D+06 0.42416062D+06 0.11099800D+01  1  2 12  2  6  2        2 0.124094936526D-03 0.100000000000D+01
-.726940227019D-03 0.000000000000D+00 0.000000000000D+00 0.597948896882D-08 0.000000000000D+00  6 21 2 25 23 2 21 4 0.19587599D-01 0.63450060D+00 0.30251312D+06 0.30251312D+06 0.30251312D+06 0.11218337D+01  1  2  4  2  6  2        2 -.105830355892D-01 0.100000000000D+01
-.126369576454D-02 0.000000000000D+00 -.300737373185D-03 0.597948896882D-08 0.000000000000D+00  6 21 2 25 23 2 21 4 0.19587599D-01 0.86449440D+00 0.30251312D+06 0.30251312D+06 0.30251312D+06 0.11218337D+01  1  2  5  2  6  2        2 -.277187049284D-03 0.100000000000D+01
0.154365059945D-02 0.000000000000D+00 0.352340551222D-03 0.597948896882D-08 0.000000000000D+00  6 21 2 25 23 2 21 4 0.19587599D-01 0.63450060D+00 0.30251312D+06 0.30251312D+06 0.30251312D+06 0.11218337D+01  1  2  6  2  6  2        2 0.224729745639D-01 0.100000000000D+01
0.354860238596D-04 0.000000000000D+00 0.000000000000D+00 0.585379371447D-08 0.000000000000D+00  6 21 21 25 23 2 -2 4 0.19587599D-01 0.87530283D+00 0.42416062D+06 0.42416062D+06 0.42416062D+06 0.11099800D+01  1  2 12 10  6  2        2 0.235622202372D-07 0.100000000000D+01
-.428693470593D-04 0.000000000000D+00 -.118843088077D-04 0.597948896882D-08 0.000000000000D+00  6 21 21 25 23 2 -2 4 0.19587599D-01 0.86449440D+00 0.30251312D+06 0.30251312D+06 0.30251312D+06 0.11218337D+01  1  2  5 10  6  2        2 -.502127047171D-07 0.100000000000D+01
  </mgrwgt>
  </event>
  <event>
  5     66 -.41063134E-03 0.73687716E+02 0.75467711E-02 0.11454191E+00
       21 -1    0    0  501  502 0.00000000E+00 0.00000000E+00 0.12564449E+03 0.12564673E+03 0.75000000E+00 0.0000E+00 0.9000E+01
        2 -1    0    0  502    0 -.00000000E+00 -.00000000E+00 -.46555146E+03 0.46555157E+03 0.32000000E+00 0.0000E+00 0.9000E+01
       25  1    1    2    0    0 -.95798844E+02 -.73459053E+02 -.24797662E+03 0.30280531E+03 0.12500000E+03 0.0000E+00 0.9000E+01
       23  1    1    2    0    0 0.13486369E+03 0.10978732E+02 -.12701647E+03 0.20677810E+03 0.91188000E+02 0.0000E+00 0.9000E+01
        2  1    1    2  501    0 -.39064848E+02 0.62480321E+02 0.35086116E+02 0.81614893E+02 0.32000000E+00 0.0000E+00 0.9000E+01
#aMCatNLO 1  0  0  5  1 0.42194534D+01 0.00000000D+00  -5  6  0 0.00000000D+00 0.00000000D+00 0.00000000D+00 0.00000000D+00 0.00000000D+00
  <mgrwgt>
 -.2447504983D-01    8    2    0
 0.241856714317118D+03 0.000000000000000D+00 0.000000000000000D+00 0.241856714317118D+03
 0.241856714317118D+03 -.000000000000000D+00 -.000000000000000D+00 -.241856714317118D+03
 0.195837099024976D+03 -.957987919918515D+02 -.734591366682997D+02 -.902968219117832D+02
 0.163470955634166D+03 0.134863735506481D+03 0.109786619519375D+02 -.993699244894029D+01
 0.124405373975095D+03 -.390649435146298D+02 0.624804747163622D+02 0.100233814360723D+03
 0.000000000000000D+00 0.000000000000000D+00 0.000000000000000D+00 0.000000000000000D+00
 0.241856714317118D+03 0.000000000000000D+00 0.000000000000000D+00 0.241856714317118D+03
 0.241856714317118D+03 -.000000000000000D+00 -.000000000000000D+00 -.241856714317118D+03
 0.195692667598182D+03 -.959106330823798D+02 -.732802580164878D+02 -.900098572294532D+02
 0.163389643431590D+03 0.134770367264864D+03 0.111279951272809D+02 -.969742586684850D+01
 0.115203891642835D+02 -.665934536643137D+01 0.684662042340429D+01 0.644176020703609D+01
 0.113110728440181D+03 -.322003888160533D+02 0.553056424658026D+02 0.932655228892656D+02
0.130817163422D-05 0.000000000000D+00 0.000000000000D+00 0.168527535337D-06 0.000000000000D+00  6 21 2 25 23 2 21 2 0.19330102D-01 0.71623482D-01 0.42155064D+05 0.42155064D+05 0.42155064D+05 0.11996928D+01  1  2  2  3  6  5        2 0.389905367827D-02 0.100000000000D+01
0.203573945709D-07 0.690341137431D-07 -.264082162854D-08 0.168527535337D-06 0.000000000000D+00  6 21 2 25 23 2 21 4 0.19330102D-01 0.71623482D-01 0.42155064D+05 0.42155064D+05 0.42155064D+05 0.11996928D+01  1  2  3  3  6  5        2 0.873286619950D-04 0.100000000000D+01
0.126253472236D-06 0.000000000000D+00 0.000000000000D+00 0.168527535337D-06 0.000000000000D+00  6 21 2 25 23 2 21 4 0.19330102D-01 0.71623482D-01 0.42155064D+05 0.42155064D+05 0.42155064D+05 0.11996928D+01  1  2 15  3  6  5        2 0.541599111035D-03 0.100000000000D+01
0.246387224296D-06 0.000000000000D+00 0.000000000000D+00 0.168540786252D-06 0.000000000000D+00  6 21 2 25 23 2 21 4 0.19330102D-01 0.71623482D-01 0.42109742D+05 0.42109742D+05 0.42109742D+05 0.11997400D+01  1  2 12  3  6  5        2 0.105713048585D-02 0.100000000000D+01
-.110361384119D-04 0.000000000000D+00 0.000000000000D+00 0.168527535337D-06 0.000000000000D+00  6 21 2 25 23 2 21 4 0.19330102D-01 0.71623482D-01 0.42155064D+05 0.42155064D+05 0.42155064D+05 0.11996928D+01  1  2  4  3  6  5        2 -.473425613353D-01 0.100000000000D+01
-.165972180015D-05 0.000000000000D+00 0.000000000000D+00 0.168527535337D-06 0.000000000000D+00  6 21 2 25 23 2 21 4 0.19330102D-01 0.71623482D-01 0.42155064D+05 0.42155064D+05 0.42155064D+05 0.11996928D+01  1  2  5  3  6  5        2 -.711983469134D-02 0.100000000000D+01
0.329230626766D-05 0.000000000000D+00 -.000000000000D+00 0.168527535337D-06 0.000000000000D+00  6 21 2 25 23 2 21 4 0.19330102D-01 0.71623482D-01 0.42155064D+05 0.42155064D+05 0.42155064D+05 0.11996928D+01  1  2  6  3  6  5        2 0.141232563053D-01 0.100000000000D+01
0.239573910703D-05 0.000000000000D+00 0.000000000000D+00 0.168527535337D-06 0.560903580921D-08  6 21 2 25 23 2 21 4 0.19330102D-01 0.71623482D-01 0.42109742D+05 0.42109742D+05 0.42109742D+05 0.11997400D+01  1  2 11  3  6  5        2 0.102789779519D-01 0.100000000000D+01
  </mgrwgt>
  </event>
  <event>
  6     66 0.41063134E-03 0.19544636E+02 0.75467711E-02 0.12198795E+00
       21 -1    0    0  501  502 0.00000000E+00 0.00000000E+00 0.25889742E+02 0.25900603E+02 0.75000000E+00 0.0000E+00 0.9000E+01
        2 -1    0    0  503    0 0.00000000E+00 0.00000000E+00 -.11886561E+04 0.11886561E+04 0.32000000E+00 0.0000E+00 0.9000E+01
       25  1    1    2    0    0 0.12712189E+02 0.11779194E+02 -.77485921E+03 0.78506825E+03 0.12500000E+03 0.0000E+00 0.9000E+01
       23  1    1    2    0    0 0.16006975E+02 0.20933222E+02 -.22163824E+03 0.24110824E+03 0.91188000E+02 0.0000E+00 0.9000E+01
        2  1    1    2  501    0 -.22327558E+01 -.19755926E+02 -.37820749E+00 0.19887867E+02 0.32000000E+00 0.0000E+00 0.9000E+01
       21  1    1    2  503  502 -.26486408E+02 -.12956490E+02 -.16589067E+03 0.16849237E+03 0.75000000E+00 0.0000E+00 0.9000E+01
#aMCatNLO 2  0  0  2  1 0.29485597D+02 0.00000000D+00  -5  6  0 0.00000000D+00 0.00000000D+00 0.00000000D+00 0.00000000D+00 0.00000000D+00
  <mgrwgt>
 0.3647126501D-02    1    2    0
 0.157813297883706D+03 0.000000000000000D+00 0.000000000000000D+00 0.157813297883706D+03
 0.157813297883706D+03 0.000000000000000D+00 0.000000000000000D+00 -.157813297883706D+03
 0.153042756839320D+03 -.139573544927027D+00 0.549254007700823D+01 -.881300059214068D+02
 0.968668894430340D+02 0.782165352468945D+01 0.169292349112509D+02 0.268359025901564D+02
 0.657169494850574D+02 -.768207997976243D+01 -.224217749882591D+02 0.612941033312504D+02
 0.000000000000000D+00 -.000000000000000D+00 -.000000000000000D+00 -.000000000000000D+00
 0.166879866738818D+03 0.000000000000000D+00 0.000000000000000D+00 0.166879866738818D+03
 0.184438950782126D+03 0.000000000000000D+00 0.000000000000000D+00 -.184438950782126D+03
 0.153922876546704D+03 0.127122506955448D+02 0.117793320251379D+02 -.881300059214068D+02
 0.986399724513228D+02 0.160069992233486D+02 0.209333019190252D+02 0.268359025901564D+02
 0.644380159703298D+02 -.223284215595113D+01 -.197561437258663D+02 0.612941033312504D+02
 0.343179525525871D+02 -.264864077629422D+02 -.129564902182968D+02 -.175590840433080D+02
0.151696173841D-06 0.000000000000D+00 0.000000000000D+00 0.146834883936D-05 0.175251465204D-07  6 21 2 25 23 2 21 4 0.39837807D-02 0.18286663D+00 0.18290201D+05 0.18290201D+05 0.18290201D+05 0.12381219D+01  1  2  1  2  6  2        2 0.364712650142D-02 0.100000000000D+01
  </mgrwgt>
  </event>
  <event>
  6     66 0.41063134E-03 0.21286485E+03 0.75467711E-02 0.10537996E+00
        1 -1    0    0  501    0 0.00000000E+00 0.00000000E+00 0.25841770E+03 0.25841790E+03 0.32000000E+00 0.0000E+00 0.9000E+01
        2 -1    0    0  502    0 0.00000000E+00 0.00000000E+00 -.18287686E+04 0.18287687E+04 0.32000000E+00 0.0000E+00 0.9000E+01
       25  1    1    2    0    0 -.56545271E+02 -.36975817E+02 0.35720331E+01 0.14213493E+03 0.12500000E+03 0.0000E+00 0.9000E+01
       23  1    1    2    0    0 -.16817271E+03 -.12960818E+03 -.75681561E+02 0.24315282E+03 0.91188000E+02 0.0000E+00 0.9000E+01
        2  1    1    2  501    0 0.25742749E+03 0.65994159E+02 -.15579377E+04 0.15804411E+04 0.32000000E+00 0.0000E+00 0.9000E+01
        1  1    1    2  502    0 -.32709508E+02 0.10058984E+03 0.59696281E+02 0.12145772E+03 0.32000000E+00 0.0000E+00 0.9000E+01
#aMCatNLO 2  0  0  1  2 0.10577442D+03 0.00000000D+00  -5  6  0 0.00000000D+00 0.00000000D+00 0.00000000D+00 0.00000000D+00 0.00000000D+00
  <mgrwgt>
 0.4610158765D-02    3    2    0
 0.546774119439850D+03 0.000000000000000D+00 0.000000000000000D+00 0.546774119439850D+03
 0.546774119439850D+03 0.000000000000000D+00 0.000000000000000D+00 -.546774119439850D+03
 0.259112034992229D+03 -.642850636099042D+02 -.131740751250274D+02 0.217273838782042D+03
 0.317381149424850D+03 -.177724277093421D+03 -.100234802874236D+03 0.225349968472647D+03
 0.517055054462622D+03 0.242009340703325D+03 0.113408877999264D+03 -.442623807254688D+03
 0.000000000000000D+00 -.000000000000000D+00 0.000000000000000D+00 0.000000000000000D+00
 0.845775135861937D+03 0.000000000000000D+00 0.000000000000000D+00 0.845775135861937D+03
 0.558761144678892D+03 0.000000000000000D+00 0.000000000000000D+00 -.558761144678892D+03
 0.259610287526342D+03 -.565452812082119D+02 -.369758237705368D+02 0.217273838782042D+03
 0.322766492551726D+03 -.168172724675551D+03 -.129608193239168D+03 0.225349968472647D+03
 0.516275111558784D+03 0.257427513947303D+03 0.659941749649955D+02 -.442623807254688D+03
 0.305884388903977D+03 -.327095080635402D+02 0.100589842044709D+03 0.287013991183044D+03
-.803560091511D-05 0.000000000000D+00 0.000000000000D+00 0.617284913505D-07 0.000000000000D+00  6 1 2 25 23 2 1 4 0.39911996D-01 0.27531325D+00 0.13864132D+06 0.13864132D+06 0.13864132D+06 0.11507579D+01  1  2 13  5  6  1       21 -.189301320581D-03 0.100000000000D+01
-.803961254394D-05 0.000000000000D+00 0.000000000000D+00 0.617284913505D-07 0.000000000000D+00  6 1 2 25 23 2 1 4 0.39958982D-01 0.27531325D+00 0.13864132D+06 0.13864132D+06 0.13864132D+06 0.11507579D+01  1  2 13  5  6  1       21 -.189112714814D-03 0.100000000000D+01
0.221084643180D-03 0.000000000000D+00 0.000000000000D+00 0.631180091711D-07 0.276873437898D-09  6 1 2 25 23 2 1 4 0.39756581D-01 0.28134899D+00 0.13864132D+06 0.13864132D+06 0.13864132D+06 0.11507579D+01  1  2  1  5  6  1       21 0.498857280060D-02 0.100000000000D+01
  </mgrwgt>
  </event>
  <event>
  5     66 0.41063134E-03 0.61356528E+02 0.75467711E-02 0.11973298E+00
       21 -1    0    0  501  502 0.00000000E+00 0.00000000E+00 0.14707960E+02 0.14727070E+02 0.75000000E+00 0.0000E+00 0.9000E+01
        2 -1    0    0  502    0 -.00000000E+00 -.00000000E+00 -.17830545E+04 0.17830545E+04 0.32000000E+00 0.0000E+00 0.9000E+01
       25  1    1    2    0    0 -.47664321E+02 -.14065506E+02 -.10462212E+04 0.10548335E+04 0.12500000E+03 0.0000E+00 0.9000E+01
       23  1    1    2    0    0 0.38878419E+02 -.46658036E+02 -.38504337E+03 0.40032755E+03 0.91188000E+02 0.0000E+00 0.9000E+01
        2  1    1    2  501    0 0.87859025E+01 0.60723541E+02 -.33708193E+03 0.34262059E+03 0.32000000E+00 0.0000E+00 0.9000E+01
#aMCatNLO 1  0  0  5  1 0.17957802D+01 0.00000000D+00  -5  6  0 0.00000000D+00 0.00000000D+00 0.00000000D+00 0.00000000D+00 0.00000000D+00
  <mgrwgt>
 0.1238412602D+00    6    2    0
 0.161994747547948D+03 0.000000000000000D+00 0.000000000000000D+00 0.161994747547948D+03
 0.161994747547948D+03 -.000000000000000D+00 -.000000000000000D+00 -.161994747547948D+03
 0.142839431869702D+03 -.476643740895332D+02 -.140658696120417D+02 -.480454165511054D+02
 0.119792268231670D+03 0.388783747282943D+02 -.466583408739745D+02 0.484397294528220D+02
 0.613577949945249D+02 0.878599936123889D+01 0.607242104860162D+02 -.394312901716500D+00
 0.000000000000000D+00 -.000000000000000D+00 0.000000000000000D+00 0.000000000000000D+00
 0.161994747547948D+03 0.000000000000000D+00 0.000000000000000D+00 0.161994747547948D+03
 0.161994747547948D+03 -.000000000000000D+00 -.000000000000000D+00 -.161994747547948D+03
 0.142712244530321D+03 -.475342474706690D+02 -.131665028048225D+02 -.480512565930364D+02
 0.119534236684679D+03 0.389874364199713D+02 -.459045637737203D+02 0.484348347982308D+02
 0.180915147949279D+01 0.153020500386064D+01 -.437656282162658D+00 0.860208521577166D+00
 0.599338624014042D+02 0.701660604683707D+01 0.595087228607055D+02 -.124378672677158D+01
0.534018026813D-05 0.000000000000D+00 0.000000000000D+00 0.136540478235D-06 0.000000000000D+00  6 21 2 25 23 2 21 2 0.22642353D-02 0.27431755D+00 0.23322633D+05 0.23322633D+05 0.23322633D+05 0.12265447D+01  1  2  2  3  6  5        2 0.101187471529D+00 0.100000000000D+01
-.307550724665D-06 0.281809055016D-06 -.107802853872D-07 0.136540478235D-06 0.000000000000D+00  6 21 2 25 23 2 21 4 0.22642353D-02 0.27431755D+00 0.23322633D+05 0.23322633D+05 0.23322633D+05 0.12265447D+01  1  2  3  3  6  5        2 -.876706736131D-02 0.100000000000D+01
0.642905945829D-06 0.000000000000D+00 0.000000000000D+00 0.136540478235D-06 0.000000000000D+00  6 21 2 25 23 2 21 4 0.22642353D-02 0.27431755D+00 0.23322633D+05 0.23322633D+05 0.23322633D+05 0.12265447D+01  1  2 15  3  6  5        2 0.183267320869D-01 0.100000000000D+01
0.363865060212D-09 0.000000000000D+00 0.000000000000D+00 0.136558363250D-06 0.000000000000D+00  6 21 2 25 23 2 21 4 0.22642353D-02 0.27431755D+00 0.23282763D+05 0.23282763D+05 0.23282763D+05 0.12266250D+01  1  2 12  3  6  5        2 0.103751566141D-04 0.100000000000D+01
-.234183470094D-05 0.000000000000D+00 0.000000000000D+00 0.136540478235D-06 0.000000000000D+00  6 21 2 25 23 2 21 4 0.22642353D-02 0.27431755D+00 0.23322633D+05 0.23322633D+05 0.23322633D+05 0.12265447D+01  1  2  4  3  6  5        2 -.667565410376D-01 0.100000000000D+01
0.280006297367D-05 0.000000000000D+00 0.000000000000D+00 0.136540478235D-06 0.188753145834D-07  6 21 2 25 23 2 21 4 0.22642353D-02 0.27431755D+00 0.23282763D+05 0.23282763D+05 0.23282763D+05 0.12266250D+01  1  2 11  3  6  5        2 0.798402898706D-01 0.100000000000D+01
  </mgrwgt>
  </event>
  <event>
  5     66 0.41063134E-03 0.13488954E+03 0.75467711E-02 0.11207665E+00
       21 -1    0    0  501  502 0.00000000E+00 0.00000000E+00 0.37636055E+02 0.37643527E+02 0.75000000E+00 0.0000E+00 0.9000E+01
        2 -1    0    0  502    0 0.00000000E+00 0.00000000E+00 -.12025323E+04 0.12025324E+04 0.32000000E+00 0.0000E+00 0.9000E+01
       25  1    1    2    0    0 0.50462607E+01 0.13444954E+03 -.59383472E+03 0.62158412E+03 0.12500000E+03 0.0000E+00 0.9000E+01
       23  1    1    2    0    0 0.23669715E+02 0.59128971E+01 -.23670617E+03 0.25483383E+03 0.91188000E+02 0.0000E+00 0.9000E+01
        2  1    1    2  501    0 -.28715976E+02 -.14036244E+03 -.33435540E+03 0.36375797E+03 0.32000000E+00 0.0000E+00 0.9000E+01
#aMCatNLO 1  0  0  1  2 0.52504809D+02 0.00000000D+00  -5  6  0 0.00000000D+00 0.00000000D+00 0.00000000D+00 0.00000000D+00 0.00000000D+00
  <mgrwgt>
 0.2626181887D-01   23    2    0
 0.212751576241404D+03 0.000000000000000D+00 0.000000000000000D+00 0.212751576241404D+03
 0.212751576241404D+03 0.000000000000000D+00 0.000000000000000D+00 -.212751576241404D+03
 0.185939494250536D+03 0.504629135412131D+01 0.134449692471375D+03 -.290914190108930D+02
 0.947129059008915D+02 0.236697306113765D+02 0.591297331493284D+01 0.775008384166829D+01
 0.144850752331380D+03 -.287160219654978D+02 -.140362665786307D+03 0.213413351692247D+02
 0.000000000000000D+00 0.000000000000000D+00 -.000000000000000D+00 0.000000000000000D+00
 0.251734014310887D+03 0.000000000000000D+00 0.000000000000000D+00 0.251734014310887D+03
 0.232808025694764D+03 0.000000000000000D+00 0.000000000000000D+00 -.232808025694764D+03
 0.199300721615163D+03 -.107387810504813D+02 0.152099130693791D+03 -.290914190108930D+02
 0.940280199667781D+02 0.159361424296807D+02 0.145599711462923D+02 0.775008384166829D+01
 0.135401578965377D+03 -.401992554361700D+02 -.127523154218713D+03 0.213413351692247D+02
 0.558117194583332D+02 0.350018940569706D+02 -.391359476213710D+02 0.189259886161226D+02
0.101577970526D-05 0.000000000000D+00 0.000000000000D+00 0.111562083475D-06 0.000000000000D+00  6 21 2 25 23 2 21 2 0.57907404D-02 0.18500555D+00 0.44376561D+05 0.44376561D+05 0.44376561D+05 0.11974478D+01  1  2  2  1  6  1       21 0.774743888485D-02 0.100000000000D+01
-.864577140693D-07 0.536041677378D-07 -.205056656581D-08 0.111562083475D-06 0.000000000000D+00  6 21 2 25 23 2 21 4 0.57907404D-02 0.18500555D+00 0.44376561D+05 0.44376561D+05 0.44376561D+05 0.11974478D+01  1  2  3  1  6  1       21 -.945530502850D-03 0.100000000000D+01
0.560805335260D-07 0.000000000000D+00 0.000000000000D+00 0.111562083475D-06 0.000000000000D+00  6 21 2 25 23 2 21 4 0.57907404D-02 0.18500555D+00 0.44376561D+05 0.44376561D+05 0.44376561D+05 0.11974478D+01  1  2 15  1  6  1       21 0.613315487643D-03 0.100000000000D+01
0.119110737277D-05 0.000000000000D+00 0.000000000000D+00 0.109579284715D-06 0.000000000000D+00  6 21 2 25 23 2 21 4 0.70852354D-02 0.18500555D+00 0.56903270D+05 0.56903270D+05 0.56903270D+05 0.11867589D+01  1  2 12  1  6  1       21 0.883765405932D-02 0.100000000000D+01
-.628429403095D-06 0.000000000000D+00 0.000000000000D+00 0.111562083475D-06 0.000000000000D+00  6 21 2 25 23 2 21 4 0.57907404D-02 0.18500555D+00 0.44376561D+05 0.44376561D+05 0.44376561D+05 0.11974478D+01  1  2  4  1  6  1       21 -.687271431948D-02 0.100000000000D+01
-.539588002509D-05 0.000000000000D+00 -.158162088406D-05 0.111562083475D-06 0.000000000000D+00  6 21 2 25 23 2 21 4 0.75269377D-02 0.18500555D+00 0.44376561D+05 0.44376561D+05 0.44376561D+05 0.11974478D+01  1  2  5  1  6  1       21 -.375409221605D-01 0.100000000000D+01
0.506071906437D-05 0.000000000000D+00 0.138362430199D-05 0.111562083475D-06 0.000000000000D+00  6 21 2 25 23 2 21 4 0.57907404D-02 0.18500555D+00 0.44376561D+05 0.44376561D+05 0.44376561D+05 0.11974478D+01  1  2  6  1  6  1       21 0.553457177676D-01 0.100000000000D+01
0.690581753032D-07 0.000000000000D+00 0.000000000000D+00 0.109579284715D-06 0.000000000000D+00  6 -1 2 25 23 2 -1 4 0.70852354D-02 0.18500555D+00 0.56903270D+05 0.56903270D+05 0.56903270D+05 0.11867589D+01  1  2 12  4  6  1       21 0.321642864471D-04 0.100000000000D+01
0.690581753032D-07 0.000000000000D+00 0.000000000000D+00 0.109579284715D-06 0.000000000000D+00  6 -3 2 25 23 2 -3 4 0.70852354D-02 0.18500555D+00 0.56903270D+05 0.56903270D+05 0.56903270D+05 0.11867589D+01  1  2 12  4  6  1       21 0.225373465306D-04 0.100000000000D+01
-.369009629067D-06 0.000000000000D+00 -.126202585325D-06 0.111562083475D-06 0.000000000000D+00  6 -1 2 25 23 2 -1 4 0.75269377D-02 0.18500555D+00 0.44376561D+05 0.44376561D+05 0.44376561D+05 0.11974478D+01  1  2  5  4  6  1       21 -.162420324704D-03 0.100000000000D+01
-.369009629067D-06 0.000000000000D+00 -.126202585325D-06 0.111562083475D-06 0.000000000000D+00  6 -3 2 25 23 2 -3 4 0.75269377D-02 0.18500555D+00 0.44376561D+05 0.44376561D+05 0.44376561D+05 0.11974478D+01  1  2  5  4  6  1       21 -.112481620178D-03 0.100000000000D+01
0.690581753032D-07 0.000000000000D+00 0.000000000000D+00 0.109579284715D-06 0.000000000000D+00  6 1 2 25 23 2 1 4 0.70852354D-02 0.18500555D+00 0.56903270D+05 0.56903270D+05 0.56903270D+05 0.11867589D+01  1  2 12  5  6  1       21 0.378906708110D-04 0.100000000000D+01
0.690581753032D-07 0.000000000000D+00 0.000000000000D+00 0.109579284715D-06 0.000000000000D+00  6 3 2 25 23 2 3 4 0.70852354D-02 0.18500555D+00 0.56903270D+05 0.56903270D+05 0.56903270D+05 0.11867589D+01  1  2 12  5  6  1       21 0.225349678410D-04 0.100000000000D+01
-.369009629067D-06 0.000000000000D+00 -.126202585325D-06 0.111562083475D-06 0.000000000000D+00  6 1 2 25 23 2 1 4 0.75269377D-02 0.18500555D+00 0.44376561D+05 0.44376561D+05 0.44376561D+05 0.11974478D+01  1  2  5  5  6  1       21 -.193209541679D-03 0.100000000000D+01
-.369009629067D-06 0.000000000000D+00 -.126202585325D-06 0.111562083475D-06 0.000000000000D+00  6 3 2 25 23 2 3 4 0.75269377D-02 0.18500555D+00 0.44376561D+05 0.44376561D+05 0.44376561D+05 0.11974478D+01  1  2  5  5  6  1       21 -.112469253652D-03 0.100000000000D+01
0.690581753032D-07 0.000000000000D+00 0.000000000000D+00 0.109579284715D-06 0.000000000000D+00  6 -2 2 25 23 2 -2 4 0.70852354D-02 0.18500555D+00 0.56903270D+05 0.56903270D+05 0.56903270D+05 0.11867589D+01  1  2 12  6  6  1       21 0.311669061091D-04 0.100000000000D+01
-.369009629067D-06 0.000000000000D+00 -.126202585325D-06 0.111562083475D-06 0.000000000000D+00  6 -2 2 25 23 2 -2 4 0.75269377D-02 0.18500555D+00 0.44376561D+05 0.44376561D+05 0.44376561D+05 0.11974478D+01  1  2  5  6  6  1       21 -.157060251389D-03 0.100000000000D+01
0.690581753032D-07 0.000000000000D+00 0.000000000000D+00 0.109579284715D-06 0.000000000000D+00  6 2 2 25 23 2 2 4 0.70852354D-02 0.18500555D+00 0.56903270D+05 0.56903270D+05 0.56903270D+05 0.11867589D+01  1  2 12  7  6  1       21 0.417571309780D-04 0.100000000000D+01
-.369009629067D-06 0.000000000000D+00 -.126202585325D-06 0.111562083475D-06 0.000000000000D+00  6 2 2 25 23 2 2 4 0.75269377D-02 0.18500555D+00 0.44376561D+05 0.44376561D+05 0.44376561D+05 0.11974478D+01  1  2  5  7  6  1       21 -.213987705372D-03 0.100000000000D+01
0.690581753032D-07 0.000000000000D+00 0.000000000000D+00 0.109579284715D-06 0.000000000000D+00  6 -4 2 25 23 2 -4 4 0.70852354D-02 0.18500555D+00 0.56903270D+05 0.56903270D+05 0.56903270D+05 0.11867589D+01  1  2 12  8  6  1       21 0.200871460226D-04 0.100000000000D+01
-.369009629067D-06 0.000000000000D+00 -.126202585325D-06 0.111562083475D-06 0.000000000000D+00  6 -4 2 25 23 2 -4 4 0.75269377D-02 0.18500555D+00 0.44376561D+05 0.44376561D+05 0.44376561D+05 0.11974478D+01  1  2  5  8  6  1       21 -.998686232969D-04 0.100000000000D+01
0.690581753032D-07 0.000000000000D+00 0.000000000000D+00 0.109579284715D-06 0.000000000000D+00  6 4 2 25 23 2 4 4 0.70852354D-02 0.18500555D+00 0.56903270D+05 0.56903270D+05 0.56903270D+05 0.11867589D+01  1  2 12  9  6  1       21 0.200871460226D-04 0.100000000000D+01
-.369009629067D-06 0.000000000000D+00 -.126202585325D-06 0.111562083475D-06 0.000000000000D+00  6 4 2 25 23 2 4 4 0.75269377D-02 0.18500555D+00 0.44376561D+05 0.44376561D+05 0.44376561D+05 0.11974478D+01  1  2  5  9  6  1       21 -.998686232969D-04 0.100000000000D+01
  </mgrwgt>
  </event>
  <event>
  5     66 0.41063134E-03 0.12024156E+03 0.75467711E-02 0.11062883E+00
       21 -1    0    0  501  502 0.00000000E+00 0.00000000E+00 0.16701549E+03 0.16701718E+03 0.75000000E+00 0.0000E+00 0.9000E+01
        2 -1    0    0  502    0 0.00000000E+00 0.00000000E+00 -.78483747E+03 0.78483753E+03 0.32000000E+00 0.0000E+00 0.9000E+01
       25  1    1    2    0    0 -.10623427E+03 0.78717863E+02 -.51477943E+03 0.54599000E+03 0.12500000E+03 0.0000E+00 0.9000E+01
       23  1    1    2    0    0 -.25792694E+02 -.14523174E+03 -.17065457E+03 0.24330178E+03 0.91188000E+02 0.0000E+00 0.9000E+01
        2  1    1    2  501    0 0.13202697E+03 0.66513880E+02 0.67612025E+02 0.16256293E+03 0.32000000E+00 0.0000E+00 0.9000E+01
#aMCatNLO 1  0  0  2  1 0.22025848D+02 0.00000000D+00  -5  6  0 0.00000000D+00 0.00000000D+00 0.00000000D+00 0.00000000D+00 0.00000000D+00
  <mgrwgt>
 0.4412811135D-01    9    2    0
 0.362050892254667D+03 0.000000000000000D+00 0.000000000000000D+00 0.362050892254667D+03
 0.362050892254667D+03 0.000000000000000D+00 0.000000000000000D+00 -.362050892254667D+03
 0.278498349454783D+03 -.106234309911474D+03 0.787178449050165D+02 -.210841416567480D+03
 0.174221104183304D+03 -.257927156259399D+02 -.145231753823504D+03 -.167396326374939D+02
 0.271382330871246D+03 0.132027025537413D+03 0.665139089184875D+02 0.227581049204973D+03
 0.000000000000000D+00 0.000000000000000D+00 0.000000000000000D+00 -.000000000000000D+00
 0.369097279021256D+03 0.000000000000000D+00 0.000000000000000D+00 0.369097279021256D+03
 0.379849655313821D+03 0.000000000000000D+00 0.000000000000000D+00 -.379849655313821D+03
 0.280583511785497D+03 -.113978847048778D+03 0.752118778593654D+02 -.210841416567480D+03
 0.176838324552868D+03 -.306556757248719D+02 -.147433225331601D+03 -.167396326374939D+02
 0.267014863670938D+03 0.124569017405112D+03 0.631376541114572D+02 0.227581049204973D+03
 0.245102343257745D+02 0.200655053685381D+02 0.908369336077813D+01 -.107523762925642D+02
0.523592500935D-05 0.000000000000D+00 0.000000000000D+00 0.125825594425D-06 0.000000000000D+00  6 21 2 25 23 2 21 2 0.25694826D-01 0.12074436D+00 0.63303598D+05 0.63303598D+05 0.63303598D+05 0.11822660D+01  1  2  2  2  6  2        2 0.474901242198D-02 0.100000000000D+01
-.722816046444D-07 0.276307353859D-06 -.105698240570D-07 0.125825594425D-06 0.000000000000D+00  6 21 2 25 23 2 21 4 0.25694826D-01 0.12074436D+00 0.63303598D+05 0.63303598D+05 0.63303598D+05 0.11822660D+01  1  2  3  2  6  2        2 -.916364190254D-04 0.100000000000D+01
0.243267797569D-07 0.000000000000D+00 0.000000000000D+00 0.125825594425D-06 0.000000000000D+00  6 21 2 25 23 2 21 4 0.25694826D-01 0.12074436D+00 0.63303598D+05 0.63303598D+05 0.63303598D+05 0.11822660D+01  1  2 15  2  6  2        2 0.308407511746D-04 0.100000000000D+01
0.493079057367D-04 0.000000000000D+00 0.000000000000D+00 0.125145934933D-06 0.000000000000D+00  6 21 2 25 23 2 21 4 0.25694826D-01 0.12781393D+00 0.68344550D+05 0.68344550D+05 0.68344550D+05 0.11790687D+01  1  2 12  2  6  2        2 0.573377953367D-01 0.100000000000D+01
-.285581648602D-04 0.000000000000D+00 0.000000000000D+00 0.125825594425D-06 0.000000000000D+00  6 21 2 25 23 2 21 4 0.25694826D-01 0.12074436D+00 0.63303598D+05 0.63303598D+05 0.63303598D+05 0.11822660D+01  1  2  4  2  6  2        2 -.362051724585D-01 0.100000000000D+01
-.186573999732D-03 0.000000000000D+00 -.315438658648D-04 0.125825594425D-06 0.000000000000D+00  6 21 2 25 23 2 21 4 0.25694826D-01 0.12834333D+00 0.63303598D+05 0.63303598D+05 0.63303598D+05 0.11822660D+01  1  2  5  2  6  2        2 -.218742408678D+00 0.100000000000D+01
0.188207237094D-03 0.000000000000D+00 0.314852053267D-04 0.125825594425D-06 0.000000000000D+00  6 21 2 25 23 2 21 4 0.25694826D-01 0.12074436D+00 0.63303598D+05 0.63303598D+05 0.63303598D+05 0.11822660D+01  1  2  6  2  6  2        2 0.238603408527D+00 0.100000000000D+01
0.623612093010D-06 0.000000000000D+00 0.000000000000D+00 0.125145934933D-06 0.000000000000D+00  6 21 21 25 23 2 -2 4 0.25694826D-01 0.12781393D+00 0.68344550D+05 0.68344550D+05 0.68344550D+05 0.11790687D+01  1  2 12 10  6  2        2 0.745082419572D-03 0.100000000000D+01
-.191192468700D-05 0.000000000000D+00 -.330141105506D-06 0.125825594425D-06 0.000000000000D+00  6 21 21 25 23 2 -2 4 0.25694826D-01 0.12834333D+00 0.63303598D+05 0.63303598D+05 0.63303598D+05 0.11822660D+01  1  2  5 10  6  2        2 -.229881055452D-02 0.100000000000D+01
  </mgrwgt>
  </event>
  <event>
  5     66 0.41063134E-03 0.22248552E+02 0.75467711E-02 0.11825045E+00
       21 -1    0    0  501  502 0.00000000E+00 0.00000000E+00 0.40090699E+02 0.40097713E+02 0.75000000E+00 0.0000E+00 0.9000E+01
        2 -1    0    0  502    0 0.00000000E+00 0.00000000E+00 -.11345786E+04 0.11345786E+04 0.32000000E+00 0.0000E+00 0.9000E+01
       25  1    1    2    0    0 0.17635497E+02 0.96351657E+02 -.55365702E+03 0.57598242E+03 0.12500000E+03 0.0000E+00 0.9000E+01
       23  1    1    2    0    0 0.45896998E+01 -.95333909E+02 -.55620103E+03 0.57165064E+03 0.91188000E+02 0.0000E+00 0.9000E+01
        2  1    1    2  501    0 -.22225197E+02 -.10177477E+01 0.15370158E+02 0.27043287E+02 0.32000000E+00 0.0000E+00 0.9000E+01
#aMCatNLO 1  0  0  1  2 0.16906930D+02 0.00000000D+00  -5  6  0 0.00000000D+00 0.00000000D+00 0.00000000D+00 0.00000000D+00 0.00000000D+00
  <mgrwgt>
 0.5948730520D-01   23    2    0
 0.213284305115360D+03 0.000000000000000D+00 0.000000000000000D+00 0.213284305115360D+03
 0.213284305115360D+03 0.000000000000000D+00 0.000000000000000D+00 -.213284305115360D+03
 0.165558464677282D+03 0.176355312165509D+02 0.963516583284457D+02 -.467969144534905D+02
 0.147102303419956D+03 0.458973004576829D+01 -.953339076856327D+02 -.649169989367264D+02
 0.113907842133482D+03 -.222252612623192D+02 -.101775064281296D+01 0.111713913390217D+03
 0.000000000000000D+00 0.000000000000000D+00 -.000000000000000D+00 0.000000000000000D+00
 0.224619969710860D+03 0.000000000000000D+00 0.000000000000000D+00 0.224619969710860D+03
 0.219850382233784D+03 0.000000000000000D+00 0.000000000000000D+00 -.219850382233784D+03
 0.169152727245803D+03 0.157566709049001D+02 0.102710375592344D+03 -.467969144534905D+02
 0.143542595028641D+03 0.295823047940677D+01 -.898123452819057D+02 -.649169989367264D+02
 0.114208207248853D+03 -.235057627871488D+02 0.331591221753479D+01 0.111713913390217D+03
 0.175668224213472D+02 0.479086140284199D+01 -.162139425279734D+02 0.476958747707622D+01
0.957921210393D-06 0.000000000000D+00 0.000000000000D+00 0.238961294796D-05 0.000000000000D+00  6 21 2 25 23 2 21 2 0.61683428D-02 0.17455110D+00 0.24501456D+05 0.24501456D+05 0.24501456D+05 0.12242367D+01  1  2  2  1  6  1       21 0.754055938822D-02 0.100000000000D+01
0.242961544336D-06 0.505508910798D-07 -.193376693445D-08 0.238961294796D-05 0.000000000000D+00  6 21 2 25 23 2 21 4 0.61683428D-02 0.17455110D+00 0.24501456D+05 0.24501456D+05 0.24501456D+05 0.12242367D+01  1  2  3  1  6  1       21 0.286643485629D-02 0.100000000000D+01
0.814819324346D-07 0.000000000000D+00 0.000000000000D+00 0.238961294796D-05 0.000000000000D+00  6 21 2 25 23 2 21 4 0.61683428D-02 0.17455110D+00 0.24501456D+05 0.24501456D+05 0.24501456D+05 0.12242367D+01  1  2 15  1  6  1       21 0.961315305790D-03 0.100000000000D+01
0.289220047465D-05 0.000000000000D+00 0.000000000000D+00 0.236924230692D-05 0.000000000000D+00  6 21 2 25 23 2 21 4 0.65871059D-02 0.17455110D+00 0.27426749D+05 0.27426749D+05 0.27426749D+05 0.12190074D+01  1  2 12  1  6  1       21 0.299470854219D-01 0.100000000000D+01
-.913676213824D-06 0.000000000000D+00 0.000000000000D+00 0.238961294796D-05 0.000000000000D+00  6 21 2 25 23 2 21 4 0.61683428D-02 0.17455110D+00 0.24501456D+05 0.24501456D+05 0.24501456D+05 0.12242367D+01  1  2  4  1  6  1       21 -.107794562873D-01 0.100000000000D+01
-.192088456564D-04 0.000000000000D+00 -.382297896638D-05 0.238961294796D-05 0.000000000000D+00  6 21 2 25 23 2 21 4 0.67031938D-02 0.17455110D+00 0.24501456D+05 0.24501456D+05 0.24501456D+05 0.12242367D+01  1  2  5  1  6  1       21 -.196576285456D+00 0.100000000000D+01
0.192262780637D-04 0.000000000000D+00 0.377062395716D-05 0.238961294796D-05 0.000000000000D+00  6 21 2 25 23 2 21 4 0.61683428D-02 0.17455110D+00 0.24501456D+05 0.24501456D+05 0.24501456D+05 0.12242367D+01  1  2  6  1  6  1       21 0.226829615152D+00 0.100000000000D+01
0.497295389121D-07 0.000000000000D+00 0.000000000000D+00 0.236924230692D-05 0.000000000000D+00  6 -1 2 25 23 2 -1 4 0.65871059D-02 0.17455110D+00 0.27426749D+05 0.27426749D+05 0.27426749D+05 0.12190074D+01  1  2 12  4  6  1       21 0.313585095384D-04 0.100000000000D+01
0.497295389121D-07 0.000000000000D+00 0.000000000000D+00 0.236924230692D-05 0.000000000000D+00  6 -3 2 25 23 2 -3 4 0.65871059D-02 0.17455110D+00 0.27426749D+05 0.27426749D+05 0.27426749D+05 0.12190074D+01  1  2 12  4  6  1       21 0.218271523734D-04 0.100000000000D+01
-.346577515630D-06 0.000000000000D+00 -.794574146612D-07 0.238961294796D-05 0.000000000000D+00  6 -1 2 25 23 2 -1 4 0.67031938D-02 0.17455110D+00 0.24501456D+05 0.24501456D+05 0.24501456D+05 0.12242367D+01  1  2  5  4  6  1       21 -.216375834251D-03 0.100000000000D+01
-.346577515630D-06 0.000000000000D+00 -.794574146612D-07 0.238961294796D-05 0.000000000000D+00  6 -3 2 25 23 2 -3 4 0.67031938D-02 0.17455110D+00 0.24501456D+05 0.24501456D+05 0.24501456D+05 0.12242367D+01  1  2  5  4  6  1       21 -.149949601733D-03 0.100000000000D+01
0.497295389121D-07 0.000000000000D+00 0.000000000000D+00 0.236924230692D-05 0.000000000000D+00  6 1 2 25 23 2 1 4 0.65871059D-02 0.17455110D+00 0.27426749D+05 0.27426749D+05 0.27426749D+05 0.12190074D+01  1  2 12  5  6  1       21 0.365853068921D-04 0.100000000000D+01
0.497295389121D-07 0.000000000000D+00 0.000000000000D+00 0.236924230692D-05 0.000000000000D+00  6 3 2 25 23 2 3 4 0.65871059D-02 0.17455110D+00 0.27426749D+05 0.27426749D+05 0.27426749D+05 0.12190074D+01  1  2 12  5  6  1       21 0.218247735958D-04 0.100000000000D+01
-.346577515630D-06 0.000000000000D+00 -.794574146612D-07 0.238961294796D-05 0.000000000000D+00  6 1 2 25 23 2 1 4 0.67031938D-02 0.17455110D+00 0.24501456D+05 0.24501456D+05 0.24501456D+05 0.12242367D+01  1  2  5  5  6  1       21 -.253119354777D-03 0.100000000000D+01
-.346577515630D-06 0.000000000000D+00 -.794574146612D-07 0.238961294796D-05 0.000000000000D+00  6 3 2 25 23 2 3 4 0.67031938D-02 0.17455110D+00 0.24501456D+05 0.24501456D+05 0.24501456D+05 0.12242367D+01  1  2  5  5  6  1       21 -.149932987842D-03 0.100000000000D+01
0.497295389121D-07 0.000000000000D+00 0.000000000000D+00 0.236924230692D-05 0.000000000000D+00  6 -2 2 25 23 2 -2 4 0.65871059D-02 0.17455110D+00 0.27426749D+05 0.27426749D+05 0.27426749D+05 0.12190074D+01  1  2 12  6  6  1       21 0.304445252822D-04 0.100000000000D+01
-.346577515630D-06 0.000000000000D+00 -.794574146612D-07 0.238961294796D-05 0.000000000000D+00  6 -2 2 25 23 2 -2 4 0.67031938D-02 0.17455110D+00 0.24501456D+05 0.24501456D+05 0.24501456D+05 0.12242367D+01  1  2  5  6  6  1       21 -.209950815692D-03 0.100000000000D+01
0.497295389121D-07 0.000000000000D+00 0.000000000000D+00 0.236924230692D-05 0.000000000000D+00  6 2 2 25 23 2 2 4 0.65871059D-02 0.17455110D+00 0.27426749D+05 0.27426749D+05 0.27426749D+05 0.12190074D+01  1  2 12  7  6  1       21 0.400985376671D-04 0.100000000000D+01
-.346577515630D-06 0.000000000000D+00 -.794574146612D-07 0.238961294796D-05 0.000000000000D+00  6 2 2 25 23 2 2 4 0.67031938D-02 0.17455110D+00 0.24501456D+05 0.24501456D+05 0.24501456D+05 0.12242367D+01  1  2  5  7  6  1       21 -.277804287186D-03 0.100000000000D+01
0.497295389121D-07 0.000000000000D+00 0.000000000000D+00 0.236924230692D-05 0.000000000000D+00  6 -4 2 25 23 2 -4 4 0.65871059D-02 0.17455110D+00 0.27426749D+05 0.27426749D+05 0.27426749D+05 0.12190074D+01  1  2 12  8  6  1       21 0.193691560550D-04 0.100000000000D+01
-.346577515630D-06 0.000000000000D+00 -.794574146612D-07 0.238961294796D-05 0.000000000000D+00  6 -4 2 25 23 2 -4 4 0.67031938D-02 0.17455110D+00 0.24501456D+05 0.24501456D+05 0.24501456D+05 0.12242367D+01  1  2  5  8  6  1       21 -.132853707785D-03 0.100000000000D+01
0.497295389121D-07 0.000000000000D+00 0.000000000000D+00 0.236924230692D-05 0.000000000000D+00  6 4 2 25 23 2 4 4 0.65871059D-02 0.17455110D+00 0.27426749D+05 0.27426749D+05 0.27426749D+05 0.12190074D+01  1  2 12  9  6  1       21 0.193691560550D-04 0.100000000000D+01
-.346577515630D-06 0.000000000000D+00 -.794574146612D-07 0.238961294796D-05 0.000000000000D+00  6 4 2 25 23 2 4 4 0.67031938D-02 0.17455110D+00 0.24501456D+05 0.24501456D+05 0.24501456D+05 0.12242367D+01  1  2  5  9  6  1       21 -.132853707785D-03 0.100000000000D+01
  </mgrwgt>
  </event>
  <event>
  5     66 0.41063134E-03 0.11138400E+03 0.75467711E-02 0.10653787E+00
       21 -1    0    0  501  502 0.00000000E+00 0.00000000E+00 0.33565658E+02 0.33574036E+02 0.75000000E+00 0.0000E+00 0.9000E+01
        2 -1    0    0  502    0 0.00000000E+00 0.00000000E+00 -.27058752E+04 0.27058752E+04 0.32000000E+00 0.0000E+00 0.9000E+01
       25  1    1    2    0    0 0.14295413E+03 0.82864410E+01 -.16892972E+04 0.16999572E+04 0.12500000E+03 0.0000E+00 0.9000E+01
       23  1    1    2    0    0 -.15458539E+03 -.11906128E+03 -.76407250E+03 0.79384776E+03 0.91188000E+02 0.0000E+00 0.9000E+01
        2  1    1    2  501    0 0.11631259E+02 0.11077484E+03 -.21893987E+03 0.24564430E+03 0.32000000E+00 0.0000E+00 0.9000E+01
#aMCatNLO 1  0  0  1  2 0.16013413D+03 0.00000000D+00  -5  6  0 0.00000000D+00 0.00000000D+00 0.00000000D+00 0.00000000D+00 0.00000000D+00
  <mgrwgt>
 0.3220517213D-01    4    2    0
 0.301390086278866D+03 0.000000000000000D+00 0.000000000000000D+00 0.301390086278866D+03
 0.301390086278866D+03 0.000000000000000D+00 0.000000000000000D+00 -.301390086278866D+03
 0.236606260045673D+03 0.142954121487943D+03 0.828633615852675D+01 -.140900596434077D+03
 0.220424387772116D+03 -.154585401508540D+03 -.119061373613212D+03 0.468977860297353D+02
 0.145749524739942D+03 0.116312800205966D+02 0.110775037454685D+03 0.940028104043416D+02
 0.000000000000000D+00 0.000000000000000D+00 0.000000000000000D+00 -.000000000000000D+00
 0.347953118198080D+03 0.000000000000000D+00 0.000000000000000D+00 0.347953118198080D+03
 0.489382220694052D+03 0.000000000000000D+00 0.000000000000000D+00 -.489382220694052D+03
 0.224317806358128D+03 0.113518640810771D+03 -.442042799095214D+02 -.140900596434077D+03
 0.275744673065687D+03 -.186271694040090D+03 -.175565734256565D+03 0.468977860297353D+02
 0.123625645656062D+03 -.557152669107378D+01 0.800982521051125D+02 0.940028104043416D+02
 0.213647213812256D+03 0.783245799203928D+02 0.139671762060974D+03 -.141429102495973D+03
0.220536124688D-04 0.000000000000D+00 0.000000000000D+00 0.485952842858D-07 0.000000000000D+00  6 21 2 25 23 2 21 2 0.51645933D-02 0.41628914D+00 0.66780723D+05 0.66780723D+05 0.66780723D+05 0.11800318D+01  1  2  2  1  6  1       21 0.307079850563D-01 0.100000000000D+01
-.563086578356D-06 0.116380110361D-05 -.445198896471D-07 0.485952842858D-07 0.000000000000D+00  6 21 2 25 23 2 21 4 0.51645933D-02 0.41628914D+00 0.66780723D+05 0.66780723D+05 0.66780723D+05 0.11800318D+01  1  2  3  1  6  1       21 -.109177760410D-02 0.100000000000D+01
0.218479948592D-05 0.000000000000D+00 0.000000000000D+00 0.485952842858D-07 0.000000000000D+00  6 21 2 25 23 2 21 4 0.51645933D-02 0.41628914D+00 0.66780723D+05 0.66780723D+05 0.66780723D+05 0.11800318D+01  1  2 15  1  6  1       21 0.423614278846D-02 0.100000000000D+01
-.849535548636D-06 0.000000000000D+00 0.000000000000D+00 0.485952842858D-07 0.000000000000D+00  6 21 2 25 23 2 21 4 0.51645933D-02 0.41628914D+00 0.66780723D+05 0.66780723D+05 0.66780723D+05 0.11800318D+01  1  2  4  1  6  1       21 -.164717810998D-02 0.100000000000D+01
  </mgrwgt>
  </event>
  <event>
  5     66 0.41063134E-03 0.56868596E+02 0.75467711E-02 0.11915925E+00
       21 -1    0    0  501  502 0.00000000E+00 0.00000000E+00 0.37043054E+03 0.37043130E+03 0.75000000E+00 0.0000E+00 0.9000E+01
        4 -1    0    0  502    0 0.00000000E+00 0.00000000E+00 -.13875332E+03 0.13876198E+03 0.15500000E+01 0.0000E+00 0.9000E+01
       25  1    1    2    0    0 -.65028344E+02 0.48105334E+02 -.53442233E+02 0.15818938E+03 0.12500000E+03 0.0000E+00 0.9000E+01
       23  1    1    2    0    0 0.55707707E+02 0.79918320E+01 0.68828805E+02 0.12735727E+03 0.91188000E+02 0.0000E+00 0.9000E+01
        4  1    1    2  501    0 0.93206369E+01 -.56097166E+02 0.21629065E+03 0.22364663E+03 0.15500000E+01 0.0000E+00 0.9000E+01
#aMCatNLO 1  0  0  5  2 0.43040620D+02 0.00000000D+00  -5  6  0 0.00000000D+00 0.00000000D+00 0.00000000D+00 0.00000000D+00 0.00000000D+00
  <mgrwgt>
 0.2451116957D-02    4    2    0
 0.226717589341564D+03 0.000000000000000D+00 0.000000000000000D+00 0.226717589341564D+03
 0.226717589341564D+03 -.000000000000000D+00 -.000000000000000D+00 -.226717589341564D+03
 0.204950177306656D+03 -.650285997133152D+02 0.481068736040818D+02 -.140842412324541D+03
 0.107850694505562D+03 0.557075722367217D+02 0.799264245216627D+01 0.122190434754208D+02
 0.140634306870910D+03 0.932102747659352D+01 -.560995160562481D+02 0.128623368849120D+03
 0.000000000000000D+00 0.000000000000000D+00 0.000000000000000D+00 -.000000000000000D+00
 0.226717589341564D+03 0.000000000000000D+00 0.000000000000000D+00 0.226717589341564D+03
 0.226717589341564D+03 -.000000000000000D+00 -.000000000000000D+00 -.226717589341564D+03
 0.190675774527788D+03 -.637143496076611D+02 0.401969307260879D+02 -.122706721111954D+03
 0.109567645014870D+03 0.564298253507071D+02 0.364569140342780D+01 0.221856087404466D+02
 0.109075263803133D+03 0.180530431993242D+02 -.164331717481902D+01 0.107558357711660D+03
 0.441164953373359D+02 -.107685189423701D+02 -.421993049546967D+02 -.703724534015286D+01
0.137387321497D-04 0.000000000000D+00 0.000000000000D+00 0.473279547941D-06 0.000000000000D+00  6 21 4 25 23 4 21 2 0.56990039D-01 0.21347389D-01 0.24478802D+05 0.24478802D+05 0.24478802D+05 0.12242798D+01  1  2  2  3  6  5        4 0.499242794041D-02 0.100000000000D+01
0.628304301165D-06 0.725012814143D-06 -.277345419061D-07 0.473279547941D-06 0.000000000000D+00  6 21 4 25 23 4 21 4 0.56990039D-01 0.21347389D-01 0.24478802D+05 0.24478802D+05 0.24478802D+05 0.12242798D+01  1  2  3  3  6  5        4 0.342213056868D-03 0.100000000000D+01
0.174046755305D-05 0.000000000000D+00 0.000000000000D+00 0.473279547941D-06 0.000000000000D+00  6 21 4 25 23 4 21 4 0.56990039D-01 0.21347389D-01 0.24478802D+05 0.24478802D+05 0.24478802D+05 0.12242798D+01  1  2 15  3  6  5        4 0.947965373791D-03 0.100000000000D+01
-.703462720192D-05 0.000000000000D+00 0.000000000000D+00 0.473279547941D-06 0.000000000000D+00  6 21 4 25 23 4 21 4 0.56990039D-01 0.21347389D-01 0.24478802D+05 0.24478802D+05 0.24478802D+05 0.12242798D+01  1  2  4  3  6  5        4 -.383148941401D-02 0.100000000000D+01
  </mgrwgt>
  </event>
  <event>
  5     66 0.41063134E-03 0.80758089E+02 0.75467711E-02 0.11594717E+00
       21 -1    0    0  501  502 0.00000000E+00 0.00000000E+00 0.47234609E+02 0.47240563E+02 0.75000000E+00 0.0000E+00 0.9000E+01
        2 -1    0    0  502    0 -.00000000E+00 -.00000000E+00 -.82693427E+03 0.82693433E+03 0.32000000E+00 0.0000E+00 0.9000E+01
       25  1    1    2    0    0 0.16434250E+02 0.71126808E+02 -.27588466E+03 0.31155489E+03 0.12500000E+03 0.0000E+00 0.9000E+01
       23  1    1    2    0    0 0.56880925E+02 -.10498968E+03 -.42073746E+03 0.44675892E+03 0.91188000E+02 0.0000E+00 0.9000E+01
        2  1    1    2  501    0 -.73315174E+02 0.33862873E+02 -.83077539E+02 0.11586108E+03 0.32000000E+00 0.0000E+00 0.9000E+01
#aMCatNLO 1  0  0  5  1 0.20681005D+02 0.00000000D+00  -5  6  0 0.00000000D+00 0.00000000D+00 0.00000000D+00 0.00000000D+00 0.00000000D+00
  <mgrwgt>
 0.2360139303D-01    7    2    0
 0.197642470899799D+03 0.000000000000000D+00 0.000000000000000D+00 0.197642470899799D+03
 0.197642470899799D+03 -.000000000000000D+00 -.000000000000000D+00 -.197642470899799D+03
 0.144822829711810D+03 0.164344107847297D+02 0.711267335491145D+02 0.442152943311847D+01
 0.158105284580582D+03 0.568811008152003D+02 -.104989761923043D+03 -.492312901486487D+02
 0.923568275072074D+02 -.733155115999300D+02 0.338630283739287D+02 0.448097607155302D+02
 0.000000000000000D+00 0.000000000000000D+00 0.000000000000000D+00 0.000000000000000D+00
 0.197642470899799D+03 0.000000000000000D+00 0.000000000000000D+00 0.197642470899799D+03
 0.197642470899799D+03 -.000000000000000D+00 -.000000000000000D+00 -.197642470899799D+03
 0.145599054312317D+03 0.115352504416039D+02 0.733895617294999D+02 0.741585079693054D+01
 0.153675776333644D+03 0.516216300473508D+02 -.102560513269424D+03 -.460167503949919D+02
 0.226066377474813D+02 -.174080932239712D+02 -.143730676409064D+02 0.119719970819617D+01
 0.734034734061568D+02 -.457487872649837D+02 0.435440191808305D+02 0.374036998898653D+02
0.314265621950D-05 0.000000000000D+00 0.000000000000D+00 0.123454732435D-06 0.000000000000D+00  6 21 2 25 23 2 21 2 0.72673257D-02 0.12722112D+00 0.35298596D+05 0.35298596D+05 0.35298596D+05 0.12075540D+01  1  2  2  3  6  5        2 0.279602399971D-01 0.100000000000D+01
-.106569702567D-06 0.165842524969D-06 -.634411746779D-08 0.123454732435D-06 0.000000000000D+00  6 21 2 25 23 2 21 4 0.72673257D-02 0.12722112D+00 0.35298596D+05 0.35298596D+05 0.35298596D+05 0.12075540D+01  1  2  3  3  6  5        2 -.138258207656D-02 0.100000000000D+01
0.305873499426D-06 0.000000000000D+00 0.000000000000D+00 0.123454732435D-06 0.000000000000D+00  6 21 2 25 23 2 21 4 0.72673257D-02 0.12722112D+00 0.35298596D+05 0.35298596D+05 0.35298596D+05 0.12075540D+01  1  2 15  3  6  5        2 0.396824996047D-02 0.100000000000D+01
0.549601542392D-06 0.000000000000D+00 0.000000000000D+00 0.123357227494D-06 0.000000000000D+00  6 21 2 25 23 2 21 4 0.72673257D-02 0.12722112D+00 0.35677192D+05 0.35677192D+05 0.35677192D+05 0.12070771D+01  1  2 12  3  6  5        2 0.711867203074D-02 0.100000000000D+01
-.154811660967D-05 0.000000000000D+00 0.000000000000D+00 0.123454732435D-06 0.000000000000D+00  6 21 2 25 23 2 21 4 0.72673257D-02 0.12722112D+00 0.35298596D+05 0.35298596D+05 0.35298596D+05 0.12075540D+01  1  2  4  3  6  5        2 -.200844914210D-01 0.100000000000D+01
-.453969415170D-06 0.000000000000D+00 0.000000000000D+00 0.123454732435D-06 0.000000000000D+00  6 21 2 25 23 2 21 4 0.72673257D-02 0.12722112D+00 0.35298596D+05 0.35298596D+05 0.35298596D+05 0.12075540D+01  1  2  5  3  6  5        2 -.588957237936D-02 0.100000000000D+01
0.918092771414D-06 0.000000000000D+00 -.000000000000D+00 0.123454732435D-06 0.000000000000D+00  6 21 2 25 23 2 21 4 0.72673257D-02 0.12722112D+00 0.35298596D+05 0.35298596D+05 0.35298596D+05 0.12075540D+01  1  2  6  3  6  5        2 0.119108769171D-01 0.100000000000D+01
  </mgrwgt>
  </event>
  <event>
  5     66 0.41063134E-03 0.40014607E+02 0.75467711E-02 0.12013691E+00
       21 -1    0    0  501  502 0.00000000E+00 0.00000000E+00 0.12049941E+02 0.12073259E+02 0.75000000E+00 0.0000E+00 0.9000E+01
        2 -1    0    0  502    0 0.00000000E+00 0.00000000E+00 -.17737711E+04 0.17737712E+04 0.32000000E+00 0.0000E+00 0.9000E+01
       25  1    1    2    0    0 -.52902040E+02 0.28626142E+02 -.64640860E+03 0.66112567E+03 0.12500000E+03 0.0000E+00 0.9000E+01
       23  1    1    2    0    0 0.50761510E+02 0.11330097E+02 -.83075238E+03 0.83735886E+03 0.91188000E+02 0.0000E+00 0.9000E+01
        2  1    1    2  501    0 0.21405302E+01 -.39956239E+02 -.28456021E+03 0.28735988E+03 0.32000000E+00 0.0000E+00 0.9000E+01
#aMCatNLO 1  0  0  2  1 0.14429309D+02 0.00000000D+00  -5  6  0 0.00000000D+00 0.00000000D+00 0.00000000D+00 0.00000000D+00 0.00000000D+00
  <mgrwgt>
 0.1045016344D+00    9    2    0
 0.146269217484610D+03 0.000000000000000D+00 0.000000000000000D+00 0.146269217484610D+03
 0.146269217484610D+03 0.000000000000000D+00 0.000000000000000D+00 -.146269217484610D+03
 0.143146720741038D+03 -.529020729453687D+02 0.286267508925717D+02 0.353251110448407D+02
 0.108835579909470D+03 0.507614853244807D+02 0.113305598525226D+02 -.287197167693491D+02
 0.405561343187123D+02 0.214058762088802D+01 -.399573107450944D+02 -.660539427549158D+01
 0.000000000000000D+00 -.000000000000000D+00 -.000000000000000D+00 -.000000000000000D+00
 0.150901121039952D+03 0.000000000000000D+00 0.000000000000000D+00 0.150901121039952D+03
 0.158133226496719D+03 0.000000000000000D+00 0.000000000000000D+00 -.158133226496719D+03
 0.144370773443380D+03 -.519535348273136D+02 0.356495017252193D+02 0.353251110448407D+02
 0.109856872024480D+03 0.514829653421704D+02 0.166722264640430D+02 -.287197167693491D+02
 0.386664324644283D+02 0.240194780217762D+01 -.380222620677296D+02 -.660539427549158D+01
 0.161402696043826D+02 -.193137831703437D+01 -.142994661215326D+02 -.723210545676622D+01
0.265530571632D-06 0.000000000000D+00 0.000000000000D+00 0.199976892556D-06 0.000000000000D+00  6 21 2 25 23 2 21 2 0.18556330D-02 0.27288966D+00 0.20123137D+05 0.20123137D+05 0.20123137D+05 0.12335327D+01  1  2  2  2  6  2        2 0.710402268835D-02 0.100000000000D+01
-.825658416912D-08 0.140124332349D-07 -.536029721376D-09 0.199976892556D-06 0.000000000000D+00  6 21 2 25 23 2 21 4 0.18556330D-02 0.27288966D+00 0.20123137D+05 0.20123137D+05 0.20123137D+05 0.12335327D+01  1  2  3  2  6  2        2 -.336117824393D-03 0.100000000000D+01
0.302583734374D-07 0.000000000000D+00 0.000000000000D+00 0.199976892556D-06 0.000000000000D+00  6 21 2 25 23 2 21 4 0.18556330D-02 0.27288966D+00 0.20123137D+05 0.20123137D+05 0.20123137D+05 0.12335327D+01  1  2 15  2  6  2        2 0.123179010123D-02 0.100000000000D+01
0.179277090363D-05 0.000000000000D+00 0.000000000000D+00 0.198410578753D-06 0.000000000000D+00  6 21 2 25 23 2 21 4 0.18556330D-02 0.29909119D+00 0.22282439D+05 0.22282439D+05 0.22282439D+05 0.12286924D+01  1  2 12  2  6  2        2 0.587572952989D-01 0.100000000000D+01
-.617520247742D-07 0.000000000000D+00 0.000000000000D+00 0.199976892556D-06 0.000000000000D+00  6 21 2 25 23 2 21 4 0.18556330D-02 0.27288966D+00 0.20123137D+05 0.20123137D+05 0.20123137D+05 0.12335327D+01  1  2  4  2  6  2        2 -.251386721117D-02 0.100000000000D+01
-.514670697920D-05 0.000000000000D+00 -.892943912409D-06 0.199976892556D-06 0.000000000000D+00  6 21 2 25 23 2 21 4 0.18556330D-02 0.29919614D+00 0.20123137D+05 0.20123137D+05 0.20123137D+05 0.12335327D+01  1  2  5  2  6  2        2 -.171288473086D+00 0.100000000000D+01
0.521057250198D-05 0.000000000000D+00 0.889175659904D-06 0.199976892556D-06 0.000000000000D+00  6 21 2 25 23 2 21 4 0.18556330D-02 0.27288966D+00 0.20123137D+05 0.20123137D+05 0.20123137D+05 0.12335327D+01  1  2  6  2  6  2        2 0.212117536422D+00 0.100000000000D+01
0.270019531318D-07 0.000000000000D+00 0.000000000000D+00 0.198410578753D-06 0.000000000000D+00  6 21 21 25 23 2 -2 4 0.18556330D-02 0.29909119D+00 0.22282439D+05 0.22282439D+05 0.22282439D+05 0.12286924D+01  1  2 12 10  6  2        2 0.308409512294D-03 0.100000000000D+01
-.752558846994D-07 0.000000000000D+00 -.134940995568D-07 0.199976892556D-06 0.000000000000D+00  6 21 21 25 23 2 -2 4 0.18556330D-02 0.29919614D+00 0.20123137D+05 0.20123137D+05 0.20123137D+05 0.12335327D+01  1  2  5 10  6  2        2 -.878961528460D-03 0.100000000000D+01
  </mgrwgt>
  </event>
  <event>
  5     66 0.41063134E-03 0.55746811E+02 0.75467711E-02 0.11515797E+00
       21 -1    0    0  501  502 0.00000000E+00 0.00000000E+00 0.79986513E+02 0.79990029E+02 0.75000000E+00 0.0000E+00 0.9000E+01
        2 -1    0    0  502    0 0.00000000E+00 0.00000000E+00 -.49132503E+03 0.49132514E+03 0.32000000E+00 0.0000E+00 0.9000E+01
       25  1    1    2    0    0 0.10758076E+03 0.25062638E+02 -.16440059E+03 0.23420997E+03 0.12500000E+03 0.0000E+00 0.9000E+01
       23  1    1    2    0    0 -.14086395E+03 0.19657128E+02 -.21288668E+03 0.27178124E+03 0.91188000E+02 0.0000E+00 0.9000E+01
        2  1    1    2  501    0 0.33283194E+02 -.44719766E+02 -.34051256E+02 0.65323954E+02 0.32000000E+00 0.0000E+00 0.9000E+01
#aMCatNLO 1  0  0  1  5 0.41114509D+01 0.00000000D+00  -5  6  0 0.00000000D+00 0.00000000D+00 0.00000000D+00 0.00000000D+00 0.00000000D+00
  <mgrwgt>
 0.4967663086D-01   41    2    0
 0.198243310533431D+03 0.000000000000000D+00 0.000000000000000D+00 0.198243310533431D+03
 0.198243310533431D+03 0.000000000000000D+00 0.000000000000000D+00 -.198243310533431D+03
 0.166924608672741D+03 0.107580552643854D+03 0.250629170785890D+02 0.609096551479093D+01
 0.170760731752411D+03 -.140864166914540D+03 0.196574130159214D+02 -.247961440069442D+02
 0.588012806417092D+02 0.332836142706854D+02 -.447203300945103D+02 0.187051784921532D+02
 0.000000000000000D+00 -.000000000000000D+00 0.000000000000000D+00 0.000000000000000D+00
 0.203226009303184D+03 0.000000000000000D+00 0.000000000000000D+00 0.203226009303184D+03
 0.199103923187721D+03 0.000000000000000D+00 0.000000000000000D+00 -.199103923187721D+03
 0.166897152016662D+03 0.107919442040841D+03 0.233656482889727D+02 0.609096551479093D+01
 0.170284003725716D+03 -.140517944893204D+03 0.179234200485530D+02 -.247961440069442D+02
 0.593267820263618D+02 0.334035355958924D+02 -.453209352603638D+02 0.187051784921532D+02
 0.582199472216523D+01 -.805032743529552D+00 0.403186692283807D+01 0.412208611546258D+01
0.958165018176D-06 0.000000000000D+00 0.000000000000D+00 0.117007418066D-06 0.000000000000D+00  6 21 2 25 23 2 21 2 0.12305896D-01 0.75588745D-01 0.38320230D+05 0.38320230D+05 0.38320230D+05 0.12038969D+01  1  2  2  1  6  1       21 0.619083494967D-02 0.100000000000D+01
-.457688113354D-08 0.505637571700D-07 -.193425911212D-08 0.117007418066D-06 0.000000000000D+00  6 21 2 25 23 2 21 4 0.12305896D-01 0.75588745D-01 0.38320230D+05 0.38320230D+05 0.38320230D+05 0.12038969D+01  1  2  3  1  6  1       21 -.428604930599D-04 0.100000000000D+01
0.126476945322D-06 0.000000000000D+00 0.000000000000D+00 0.117007418066D-06 0.000000000000D+00  6 21 2 25 23 2 21 4 0.12305896D-01 0.75588745D-01 0.38320230D+05 0.38320230D+05 0.38320230D+05 0.12038969D+01  1  2 15  1  6  1       21 0.118440135958D-02 0.100000000000D+01
0.331397056800D-06 0.000000000000D+00 0.000000000000D+00 0.116825773269D-06 0.000000000000D+00  6 21 2 25 23 2 21 4 0.12641503D-01 0.75588745D-01 0.39138137D+05 0.39138137D+05 0.39138137D+05 0.12029621D+01  1  2 12  1  6  1       21 0.294741210226D-02 0.100000000000D+01
0.191947988420D-06 0.000000000000D+00 0.000000000000D+00 0.116825773269D-06 0.000000000000D+00  6 21 2 25 23 2 21 4 0.12876493D-01 0.75588745D-01 0.39138137D+05 0.39138137D+05 0.39138137D+05 0.12029621D+01  1  2 12  1  6  1       21 0.165155145514D-02 0.100000000000D+01
-.154573625259D-04 0.000000000000D+00 0.000000000000D+00 0.117007418066D-06 0.000000000000D+00  6 21 2 25 23 2 21 4 0.12305896D-01 0.75588745D-01 0.38320230D+05 0.38320230D+05 0.38320230D+05 0.12038969D+01  1  2  4  1  6  1       21 -.144751449718D+00 0.100000000000D+01
-.102700876381D-03 0.000000000000D+00 -.105449461725D-04 0.117007418066D-06 0.000000000000D+00  6 21 2 25 23 2 21 4 0.12665721D-01 0.75588745D-01 0.38320230D+05 0.38320230D+05 0.38320230D+05 0.12038969D+01  1  2  5  1  6  1       21 -.913262752352D+00 0.100000000000D+01
0.102845075724D-03 0.000000000000D+00 0.105274488084D-04 0.117007418066D-06 0.000000000000D+00  6 21 2 25 23 2 21 4 0.12305896D-01 0.75588745D-01 0.38320230D+05 0.38320230D+05 0.38320230D+05 0.12038969D+01  1  2  6  1  6  1       21 0.963099221000D+00 0.100000000000D+01
0.150712013730D-04 0.000000000000D+00 0.000000000000D+00 0.117007418066D-06 0.841501432122D-07  6 21 2 25 23 2 21 4 0.12615195D-01 0.75916890D-01 0.39138137D+05 0.39138137D+05 0.39138137D+05 0.12029621D+01  1  2 11  1  6  1       21 0.133898714126D+00 0.100000000000D+01
0.147431240040D-07 0.000000000000D+00 0.000000000000D+00 0.116825773269D-06 0.000000000000D+00  6 -1 2 25 23 2 -1 4 0.12641503D-01 0.75588745D-01 0.39138137D+05 0.39138137D+05 0.39138137D+05 0.12029621D+01  1  2 12  4  6  1       21 0.930182306872D-05 0.100000000000D+01
0.147431240040D-07 0.000000000000D+00 0.000000000000D+00 0.116825773269D-06 0.000000000000D+00  6 -3 2 25 23 2 -3 4 0.12641503D-01 0.75588745D-01 0.39138137D+05 0.39138137D+05 0.39138137D+05 0.12029621D+01  1  2 12  4  6  1       21 0.602341173789D-05 0.100000000000D+01
0.147677158152D-07 0.000000000000D+00 0.000000000000D+00 0.116825773269D-06 0.000000000000D+00  6 -1 2 25 23 2 -1 4 0.12876493D-01 0.75588745D-01 0.39138137D+05 0.39138137D+05 0.39138137D+05 0.12029621D+01  1  2 12  4  6  1       21 0.905286524641D-05 0.100000000000D+01
0.147677158152D-07 0.000000000000D+00 0.000000000000D+00 0.116825773269D-06 0.000000000000D+00  6 -3 2 25 23 2 -3 4 0.12876493D-01 0.75588745D-01 0.39138137D+05 0.39138137D+05 0.39138137D+05 0.12029621D+01  1  2 12  4  6  1       21 0.584759543443D-05 0.100000000000D+01
-.614880248506D-06 0.000000000000D+00 -.704620998304D-07 0.117007418066D-06 0.000000000000D+00  6 -1 2 25 23 2 -1 4 0.12665721D-01 0.75588745D-01 0.38320230D+05 0.38320230D+05 0.38320230D+05 0.12038969D+01  1  2  5  4  6  1       21 -.387870014947D-03 0.100000000000D+01
-.614880248506D-06 0.000000000000D+00 -.704620998304D-07 0.117007418066D-06 0.000000000000D+00  6 -3 2 25 23 2 -3 4 0.12665721D-01 0.75588745D-01 0.38320230D+05 0.38320230D+05 0.38320230D+05 0.12038969D+01  1  2  5  4  6  1       21 -.250991353786D-03 0.100000000000D+01
0.184859566186D-06 0.000000000000D+00 0.000000000000D+00 0.117007418066D-06 0.610594491069D-09  6 -1 2 25 23 2 -1 4 0.12615195D-01 0.75916890D-01 0.39138137D+05 0.39138137D+05 0.39138137D+05 0.12029621D+01  1  2 11  4  6  1       21 0.116451394039D-03 0.100000000000D+01
0.184859566186D-06 0.000000000000D+00 0.000000000000D+00 0.117007418066D-06 0.610594491069D-09  6 -3 2 25 23 2 -3 4 0.12615195D-01 0.75916890D-01 0.39138137D+05 0.39138137D+05 0.39138137D+05 0.12029621D+01  1  2 11  4  6  1       21 0.754295128099D-04 0.100000000000D+01
0.147431240040D-07 0.000000000000D+00 0.000000000000D+00 0.116825773269D-06 0.000000000000D+00  6 1 2 25 23 2 1 4 0.12641503D-01 0.75588745D-01 0.39138137D+05 0.39138137D+05 0.39138137D+05 0.12029621D+01  1  2 12  5  6  1       21 0.122629695078D-04 0.100000000000D+01
0.147431240040D-07 0.000000000000D+00 0.000000000000D+00 0.116825773269D-06 0.000000000000D+00  6 3 2 25 23 2 3 4 0.12641503D-01 0.75588745D-01 0.39138137D+05 0.39138137D+05 0.39138137D+05 0.12029621D+01  1  2 12  5  6  1       21 0.602269640661D-05 0.100000000000D+01
0.147677158152D-07 0.000000000000D+00 0.000000000000D+00 0.116825773269D-06 0.000000000000D+00  6 1 2 25 23 2 1 4 0.12876493D-01 0.75588745D-01 0.39138137D+05 0.39138137D+05 0.39138137D+05 0.12029621D+01  1  2 12  5  6  1       21 0.119881304216D-04 0.100000000000D+01
0.147677158152D-07 0.000000000000D+00 0.000000000000D+00 0.116825773269D-06 0.000000000000D+00  6 3 2 25 23 2 3 4 0.12876493D-01 0.75588745D-01 0.39138137D+05 0.39138137D+05 0.39138137D+05 0.12029621D+01  1  2 12  5  6  1       21 0.584690317301D-05 0.100000000000D+01
-.614880248506D-06 0.000000000000D+00 -.704620998304D-07 0.117007418066D-06 0.000000000000D+00  6 1 2 25 23 2 1 4 0.12665721D-01 0.75588745D-01 0.38320230D+05 0.38320230D+05 0.38320230D+05 0.12038969D+01  1  2  5  5  6  1       21 -.511592417068D-03 0.100000000000D+01
-.614880248506D-06 0.000000000000D+00 -.704620998304D-07 0.117007418066D-06 0.000000000000D+00  6 3 2 25 23 2 3 4 0.12665721D-01 0.75588745D-01 0.38320230D+05 0.38320230D+05 0.38320230D+05 0.12038969D+01  1  2  5  5  6  1       21 -.250961490289D-03 0.100000000000D+01
0.192092942665D-06 0.000000000000D+00 0.000000000000D+00 0.117007418066D-06 0.634486464426D-09  6 1 2 25 23 2 1 4 0.12615195D-01 0.75916890D-01 0.39138137D+05 0.39138137D+05 0.39138137D+05 0.12029621D+01  1  2 11  5  6  1       21 0.159449901350D-03 0.100000000000D+01
0.192092942665D-06 0.000000000000D+00 0.000000000000D+00 0.117007418066D-06 0.634486464426D-09  6 3 2 25 23 2 3 4 0.12615195D-01 0.75916890D-01 0.39138137D+05 0.39138137D+05 0.39138137D+05 0.12029621D+01  1  2 11  5  6  1       21 0.783716854580D-04 0.100000000000D+01
0.147431240040D-07 0.000000000000D+00 0.000000000000D+00 0.116825773269D-06 0.000000000000D+00  6 -2 2 25 23 2 -2 4 0.12641503D-01 0.75588745D-01 0.39138137D+05 0.39138137D+05 0.39138137D+05 0.12029621D+01  1  2 12  6  6  1       21 0.879145534091D-05 0.100000000000D+01
0.147677158152D-07 0.000000000000D+00 0.000000000000D+00 0.116825773269D-06 0.000000000000D+00  6 -2 2 25 23 2 -2 4 0.12876493D-01 0.75588745D-01 0.39138137D+05 0.39138137D+05 0.39138137D+05 0.12029621D+01  1  2 12  6  6  1       21 0.854722975393D-05 0.100000000000D+01
-.614880248506D-06 0.000000000000D+00 -.704620998304D-07 0.117007418066D-06 0.000000000000D+00  6 -2 2 25 23 2 -2 4 0.12665721D-01 0.75588745D-01 0.38320230D+05 0.38320230D+05 0.38320230D+05 0.12038969D+01  1  2  5  6  6  1       21 -.366544601558D-03 0.100000000000D+01
0.106875056091D-05 0.000000000000D+00 0.000000000000D+00 0.117007418066D-06 0.569247884563D-08  6 -2 2 25 23 2 -2 4 0.12615195D-01 0.75916890D-01 0.39138137D+05 0.39138137D+05 0.39138137D+05 0.12029621D+01  1  2 11  6  6  1       21 0.636388902376D-03 0.100000000000D+01
0.147431240040D-07 0.000000000000D+00 0.000000000000D+00 0.116825773269D-06 0.000000000000D+00  6 2 2 25 23 2 2 4 0.12641503D-01 0.75588745D-01 0.39138137D+05 0.39138137D+05 0.39138137D+05 0.12029621D+01  1  2 12  7  6  1       21 0.142938258908D-04 0.100000000000D+01
0.147677158152D-07 0.000000000000D+00 0.000000000000D+00 0.116825773269D-06 0.000000000000D+00  6 2 2 25 23 2 2 4 0.12876493D-01 0.75588745D-01 0.39138137D+05 0.39138137D+05 0.39138137D+05 0.12029621D+01  1  2 12  7  6  1       21 0.140030817649D-04 0.100000000000D+01
-.614880248506D-06 0.000000000000D+00 -.704620998304D-07 0.117007418066D-06 0.000000000000D+00  6 2 2 25 23 2 2 4 0.12665721D-01 0.75588745D-01 0.38320230D+05 0.38320230D+05 0.38320230D+05 0.12038969D+01  1  2  5  7  6  1       21 -.596441186680D-03 0.100000000000D+01
0.219631525646D-06 0.000000000000D+00 0.000000000000D+00 0.117007418066D-06 0.392168187659D-09  6 2 2 25 23 2 2 4 0.12615195D-01 0.75916890D-01 0.39138137D+05 0.39138137D+05 0.39138137D+05 0.12029621D+01  1  2 11  7  6  1       21 0.212450107029D-03 0.100000000000D+01
0.147431240040D-07 0.000000000000D+00 0.000000000000D+00 0.116825773269D-06 0.000000000000D+00  6 -4 2 25 23 2 -4 4 0.12641503D-01 0.75588745D-01 0.39138137D+05 0.39138137D+05 0.39138137D+05 0.12029621D+01  1  2 12  8  6  1       21 0.525547743283D-05 0.100000000000D+01
0.147677158152D-07 0.000000000000D+00 0.000000000000D+00 0.116825773269D-06 0.000000000000D+00  6 -4 2 25 23 2 -4 4 0.12876493D-01 0.75588745D-01 0.39138137D+05 0.39138137D+05 0.39138137D+05 0.12029621D+01  1  2 12  8  6  1       21 0.509888821894D-05 0.100000000000D+01
-.614880248506D-06 0.000000000000D+00 -.704620998304D-07 0.117007418066D-06 0.000000000000D+00  6 -4 2 25 23 2 -4 4 0.12665721D-01 0.75588745D-01 0.38320230D+05 0.38320230D+05 0.38320230D+05 0.12038969D+01  1  2  5  8  6  1       21 -.218935799841D-03 0.100000000000D+01
0.216393410164D-06 0.000000000000D+00 0.000000000000D+00 0.117007418066D-06 0.714751348151D-09  6 -4 2 25 23 2 -4 4 0.12615195D-01 0.75916890D-01 0.39138137D+05 0.39138137D+05 0.39138137D+05 0.12029621D+01  1  2 11  8  6  1       21 0.770448565693D-04 0.100000000000D+01
0.147431240040D-07 0.000000000000D+00 0.000000000000D+00 0.116825773269D-06 0.000000000000D+00  6 4 2 25 23 2 4 4 0.12641503D-01 0.75588745D-01 0.39138137D+05 0.39138137D+05 0.39138137D+05 0.12029621D+01  1  2 12  9  6  1       21 0.525547743283D-05 0.100000000000D+01
0.147677158152D-07 0.000000000000D+00 0.000000000000D+00 0.116825773269D-06 0.000000000000D+00  6 4 2 25 23 2 4 4 0.12876493D-01 0.75588745D-01 0.39138137D+05 0.39138137D+05 0.39138137D+05 0.12029621D+01  1  2 12  9  6  1       21 0.509888821894D-05 0.100000000000D+01
-.614880248506D-06 0.000000000000D+00 -.704620998304D-07 0.117007418066D-06 0.000000000000D+00  6 4 2 25 23 2 4 4 0.12665721D-01 0.75588745D-01 0.38320230D+05 0.38320230D+05 0.38320230D+05 0.12038969D+01  1  2  5  9  6  1       21 -.218935799841D-03 0.100000000000D+01
0.212206138466D-06 0.000000000000D+00 0.000000000000D+00 0.117007418066D-06 0.700920713988D-09  6 4 2 25 23 2 4 4 0.12615195D-01 0.75916890D-01 0.39138137D+05 0.39138137D+05 0.39138137D+05 0.12029621D+01  1  2 11  9  6  1       21 0.755540175130D-04 0.100000000000D+01
  </mgrwgt>
  </event>
  <event>
  6     66 0.41063134E-03 0.82036311E+02 0.75467711E-02 0.11263107E+00
       21 -1    0    0  501  502 0.00000000E+00 0.00000000E+00 0.21329613E+02 0.21342794E+02 0.75000000E+00 0.0000E+00 0.9000E+01
        2 -1    0    0  502    0 -.00000000E+00 -.00000000E+00 -.36239642E+04 0.36239643E+04 0.32000000E+00 0.0000E+00 0.9000E+01
       25  1    1    2    0    0 0.69321620E+02 0.87508606E+02 -.10745752E+04 0.10875662E+04 0.12500000E+03 0.0000E+00 0.9000E+01
       23  1    1    2    0    0 0.56525384E+02 -.12028852E+03 -.17204610E+04 0.17279947E+04 0.91188000E+02 0.0000E+00 0.9000E+01
        2  1    1    2  503    0 -.34030289E+02 -.39689710E+00 -.59308640E+03 0.59406211E+03 0.32000000E+00 0.0000E+00 0.9000E+01
       21  1    1    2  501  503 -.91816716E+02 0.33176810E+02 -.21451201E+03 0.23568405E+03 0.75000000E+00 0.0000E+00 0.9000E+01
#aMCatNLO 2  0  0  5  1 0.50720530D+02 0.00000000D+00  -5  6  0 0.00000000D+00 0.00000000D+00 0.00000000D+00 0.00000000D+00 0.00000000D+00
  <mgrwgt>
 0.1029380901D-01    1    2    0
 0.278067986112481D+03 0.000000000000000D+00 0.000000000000000D+00 0.278067986112481D+03
 0.278067986112481D+03 -.000000000000000D+00 -.000000000000000D+00 -.278067986112481D+03
 0.172253682630695D+03 0.834480306700925D+02 0.838290387965449D+02 -.744644959473702D+01
 0.194141253824473D+03 0.721346933266936D+02 -.124354343351907D+03 -.933175139012941D+02
 0.189741035769795D+03 -.155582723996786D+03 0.405253045553619D+02 0.100763963496031D+03
 0.000000000000000D+00 0.000000000000000D+00 0.000000000000000D+00 0.000000000000000D+00
 0.278067986112481D+03 0.000000000000000D+00 0.000000000000000D+00 0.278067986112481D+03
 0.278067986112481D+03 -.000000000000000D+00 -.000000000000000D+00 -.278067986112481D+03
 0.167651073070515D+03 0.694943870733586D+02 0.874636046524962D+02 0.159070053285023D+01
 0.181538849740637D+03 0.567124134568007D+02 -.120337235458370D+03 -.833291938236256D+02
 0.511488854872649D+02 -.333116043959078D+02 -.456909123508848D+00 -.388115541200391D+02
 0.155797163926545D+03 -.928951961342515D+02 0.333305399293827D+02 0.120550047410814D+03
0.865044439311D-05 0.000000000000D+00 0.000000000000D+00 0.777582274027D-07 0.178445270568D-09  6 21 2 25 23 2 21 4 0.32824939D-02 0.55753397D+00 0.53115537D+05 0.53115537D+05 0.53115537D+05 0.11896906D+01  1  2  1  3  6  5        2 0.102938090140D-01 0.100000000000D+01
  </mgrwgt>
  </event>
  <event>
  6     66 -.41063134E-03 0.56391141E+02 0.75467711E-02 0.11625729E+00
       21 -1    0    0  503  502 0.00000000E+00 0.00000000E+00 0.18382333E+02 0.18397627E+02 0.75000000E+00 0.0000E+00 0.9000E+01
        2 -1    0    0  502    0 0.00000000E+00 0.00000000E+00 -.33366018E+04 0.33366018E+04 0.32000000E+00 0.0000E+00 0.9000E+01
       25  1    1    2    0    0 -.67591507E+02 0.66418631E+02 -.10656196E+04 0.10771027E+04 0.12500000E+03 0.0000E+00 0.9000E+01
       23  1    1    2    0    0 0.14319005E+01 -.96485815E+02 -.21057005E+04 0.21098818E+04 0.91188000E+02 0.0000E+00 0.9000E+01
        2  1    1    2  501    0 0.32376133E+02 0.34513638E+02 -.90184193E+02 0.10184643E+03 0.32000000E+00 0.0000E+00 0.9000E+01
       21  1    1    2  503  501 0.33783474E+02 -.44464540E+01 -.56715140E+02 0.66168449E+02 0.75000000E+00 0.0000E+00 0.9000E+01
#aMCatNLO 2  0  0  1  2 0.34074830D+02 0.00000000D+00  -5  6  0 0.00000000D+00 0.00000000D+00 0.00000000D+00 0.00000000D+00 0.00000000D+00
  <mgrwgt>
 -.2449607154D-01    2    2    0
 0.210854056980008D+03 0.000000000000000D+00 0.000000000000000D+00 0.210854056980008D+03
 0.210854056980008D+03 0.000000000000000D+00 0.000000000000000D+00 -.210854056980008D+03
 0.152491543274641D+03 -.551712592393376D+02 0.647838518422478D+02 0.196940464280279D+02
 0.170191113814252D+03 0.149765752045523D+02 -.982685962707997D+02 -.103772583370775D+03
 0.990254568711229D+02 0.401946840347852D+02 0.334847444285519D+02 0.840785369427475D+02
 0.000000000000000D+00 0.000000000000000D+00 -.000000000000000D+00 0.000000000000000D+00
 0.284718878647034D+03 0.000000000000000D+00 0.000000000000000D+00 0.284718878647034D+03
 0.215507963382948D+03 0.000000000000000D+00 0.000000000000000D+00 -.215507963382948D+03
 0.158091440424175D+03 -.675915814979390D+02 0.664185680460563D+02 0.196940464280279D+02
 0.168509870174203D+03 0.143180426976897D+01 -.964858843521430D+02 -.103772583370775D+03
 0.964812196768972D+02 0.323763035893538D+02 0.345137703214055D+02 0.840785369427475D+02
 0.771443117547070D+02 0.337834736388162D+02 -.444645401531876D+01 0.692109152640860D+02
-.112330782044D-04 0.000000000000D+00 0.000000000000D+00 0.272353579369D-06 0.000000000000D+00  6 21 2 25 23 2 21 4 0.28463802D-02 0.50223508D+00 0.34414595D+05 0.34414595D+05 0.34414595D+05 0.12086903D+01  1  2 13  1  6  1       21 -.316220560054D-01 0.100000000000D+01
0.277925062206D-05 0.000000000000D+00 0.000000000000D+00 0.276125250933D-06 0.432321818581D-08  6 21 2 25 23 2 21 4 0.28292053D-02 0.51332026D+00 0.34414595D+05 0.34414595D+05 0.34414595D+05 0.12086903D+01  1  2  1  1  6  1       21 0.712598446054D-02 0.100000000000D+01
  </mgrwgt>
  </event>
  <event>
  5     66 0.41063134E-03 0.10309877E+03 0.75467711E-02 0.11037961E+00
       21 -1    0    0  501  502 0.00000000E+00 0.00000000E+00 0.29406805E+03 0.29406901E+03 0.75000000E+00 0.0000E+00 0.9000E+01
        2 -1    0    0  502    0 0.00000000E+00 0.00000000E+00 -.25879728E+03 0.25879748E+03 0.32000000E+00 0.0000E+00 0.9000E+01
       25  1    1    2    0    0 -.16178452E+03 0.98255303E+02 0.33365159E+01 0.22685781E+03 0.12500000E+03 0.0000E+00 0.9000E+01
       23  1    1    2    0    0 0.17958914E+03 0.32941203E+01 0.74076675E+02 0.21462925E+03 0.91188000E+02 0.0000E+00 0.9000E+01
        2  1    1    2  501    0 -.17804623E+02 -.10154942E+03 -.42142417E+02 0.11137942E+03 0.32000000E+00 0.0000E+00 0.9000E+01
#aMCatNLO 1  0  0  5  2 0.82113745D-01 0.00000000D+00  -5  6  0 0.00000000D+00 0.00000000D+00 0.00000000D+00 0.00000000D+00 0.00000000D+00
  <mgrwgt>
 0.8464414394D-02    5    2    0
 0.275870136085256D+03 0.000000000000000D+00 0.000000000000000D+00 0.275870136085256D+03
 0.275870136085256D+03 -.000000000000000D+00 -.000000000000000D+00 -.275870136085256D+03
 0.227107633102325D+03 -.161784490948453D+03 0.982554665308537D+02 -.111587991600598D+02
 0.210331947644317D+03 0.179589169370371D+03 0.329427202346801D+01 0.605074778233844D+02
 0.114300691423871D+03 -.178046784219180D+02 -.101549738554322D+03 -.493486786633246D+02
 0.000000000000000D+00 0.000000000000000D+00 0.000000000000000D+00 0.000000000000000D+00
 0.275870136085256D+03 0.000000000000000D+00 0.000000000000000D+00 0.275870136085256D+03
 0.275870136085256D+03 -.000000000000000D+00 -.000000000000000D+00 -.275870136085256D+03
 0.227098708350614D+03 -.161790004993318D+03 0.982240169420884D+02 -.111740822683393D+02
 0.210323061690327D+03 0.179584062637191D+03 0.326514555417802D+01 0.604933236483560D+02
 0.114236302185579D+03 -.177813034485901D+02 -.101458996759184D+03 -.493946349447382D+02
 0.821999439928692D-01 -.127541952826368D-01 -.301657370821815D-01 0.753935647214794D-01
0.281523754300D-05 0.000000000000D+00 0.000000000000D+00 0.272352080921D-07 0.000000000000D+00  6 21 2 25 23 2 21 2 0.45241328D-01 0.39815055D-01 0.70589273D+05 0.70589273D+05 0.70589273D+05 0.11777281D+01  1  2  2  3  6  5        2 0.285942488221D-02 0.100000000000D+01
-.233321933346D-06 0.148564166714D-06 -.568315349342D-08 0.272352080921D-07 0.000000000000D+00  6 21 2 25 23 2 21 4 0.45241328D-01 0.39815055D-01 0.70589273D+05 0.70589273D+05 0.70589273D+05 0.11777281D+01  1  2  3  3  6  5        2 -.328707227467D-03 0.100000000000D+01
0.387435580010D-06 0.000000000000D+00 0.000000000000D+00 0.272352080921D-07 0.000000000000D+00  6 21 2 25 23 2 21 4 0.45241328D-01 0.39815055D-01 0.70589273D+05 0.70589273D+05 0.70589273D+05 0.11777281D+01  1  2 15  3  6  5        2 0.545824704523D-03 0.100000000000D+01
-.187434094948D-02 0.000000000000D+00 0.000000000000D+00 0.272352080921D-07 0.000000000000D+00  6 21 2 25 23 2 21 4 0.45241328D-01 0.39815055D-01 0.70589273D+05 0.70589273D+05 0.70589273D+05 0.11777281D+01  1  2  4  3  6  5        2 -.264059794121D+01 0.100000000000D+01
0.187807624382D-02 0.000000000000D+00 0.000000000000D+00 0.272352080921D-07 0.488137691622D-03  6 21 2 25 23 2 21 4 0.45241328D-01 0.39815055D-01 0.70569248D+05 0.70569248D+05 0.70569248D+05 0.11777398D+01  1  2 11  3  6  5        2 0.264598581324D+01 0.100000000000D+01
  </mgrwgt>
  </event>
  <event>
  5     66 -.41063134E-03 0.19019446E+03 0.75467711E-02 0.10391719E+00
       21 -1    0    0  501  502 0.00000000E+00 0.00000000E+00 0.26393429E+03 0.26393536E+03 0.75000000E+00 0.0000E+00 0.9000E+01
        2 -1    0    0  502    0 -.00000000E+00 -.00000000E+00 -.11575991E+04 0.11575992E+04 0.32000000E+00 0.0000E+00 0.9000E+01
       25  1    1    2    0    0 0.67411757E+02 0.28402770E+03 -.27280090E+03 0.41864235E+03 0.12500000E+03 0.0000E+00 0.9000E+01
       23  1    1    2    0    0 -.19216706E+03 -.15177202E+02 0.90955646E+02 0.23183337E+03 0.91188000E+02 0.0000E+00 0.9000E+01
        2  1    1    2  501    0 0.12475531E+03 -.26885050E+03 -.71181960E+03 0.77105884E+03 0.32000000E+00 0.0000E+00 0.9000E+01
#aMCatNLO 1  0  0  5  2 0.82113745D-01 0.00000000D+00  -5  6  0 0.00000000D+00 0.00000000D+00 0.00000000D+00 0.00000000D+00 0.00000000D+00
  <mgrwgt>
 -.2676409479D-01    1    2    0
 0.552748493460533D+03 0.000000000000000D+00 0.000000000000000D+00 0.552748493460533D+03
 0.552748493460533D+03 -.000000000000000D+00 -.000000000000000D+00 -.552748493460533D+03
 0.317795526235356D+03 0.674117461717573D+02 0.284027726710726D+03 -.123654127637859D+02
 0.371636502952512D+03 -.192167077193113D+03 -.151771748620318D+02 0.304368044953861D+03
 0.416064957733198D+03 0.124755331021356D+03 -.268850551848694D+03 -.292002632190075D+03
 0.000000000000000D+00 0.000000000000000D+00 0.000000000000000D+00 0.000000000000000D+00
 0.552748493460533D+03 0.000000000000000D+00 0.000000000000000D+00 0.552748493460533D+03
 0.552748493460533D+03 -.000000000000000D+00 -.000000000000000D+00 -.552748493460533D+03
 0.315883126331809D+03 0.686019011141046D+02 0.281462915969446D+03 -.151510923258077D+02
 0.368390521879481D+03 -.190777182145353D+03 -.181724300350400D+02 0.301114853213747D+03
 0.628023600507248D+02 -.564617338160176D+00 -.121600804937232D+02 -.616112820641521D+02
 0.358420978659051D+03 0.122739898369409D+03 -.251130405440682D+03 -.224352478823787D+03
-.108259310183D-03 0.000000000000D+00 0.000000000000D+00 0.844711987928D-08 0.000000000000D+00  6 21 2 25 23 2 21 4 0.40605361D-01 0.17809226D+00 0.17105935D+06 0.17105935D+06 0.17105935D+06 0.11427431D+01  1  2 14  3  6  5        2 -.267640947883D-01 0.100000000000D+01
  </mgrwgt>
  </event>
  <event>
  6     66 -.41063134E-03 0.24413999E+02 0.75467711E-02 0.11948797E+00
       21 -1    0    0  501  502 0.00000000E+00 0.00000000E+00 0.11597406E+03 0.11597648E+03 0.75000000E+00 0.0000E+00 0.9000E+01
        2 -1    0    0  503    0 0.00000000E+00 0.00000000E+00 -.63698429E+03 0.63698437E+03 0.32000000E+00 0.0000E+00 0.9000E+01
       25  1    1    2    0    0 -.18744520E+02 0.29587449E+02 -.26011337E+03 0.29070731E+03 0.12500000E+03 0.0000E+00 0.9000E+01
       23  1    1    2    0    0 -.11471532E+02 -.51330514E+02 -.10517713E+03 0.14880826E+03 0.91188000E+02 0.0000E+00 0.9000E+01
        2  1    1    2  501    0 0.39760601E+02 -.10048719E+02 0.72245625E+02 0.83074755E+02 0.32000000E+00 0.0000E+00 0.9000E+01
       21  1    1    2  503  502 -.95445496E+01 0.31791784E+02 -.22796536E+03 0.23037053E+03 0.75000000E+00 0.0000E+00 0.9000E+01
#aMCatNLO 2  0  0  2  1 0.33193613D+02 0.00000000D+00  -5  6  0 0.00000000D+00 0.00000000D+00 0.00000000D+00 0.00000000D+00 0.00000000D+00
  <mgrwgt>
 -.5009267925D-01    2    2    0
 0.215710180932852D+03 0.000000000000000D+00 0.000000000000000D+00 0.215710180932852D+03
 0.215710180932852D+03 0.000000000000000D+00 0.000000000000000D+00 -.215710180932852D+03
 0.178052613074663D+03 -.226435217072938D+02 0.425744527616554D+02 -.117270712112839D+03
 0.105284201795059D+03 -.138328109188863D+02 -.434654381837154D+02 -.262473013699048D+02
 0.148083546995982D+03 0.364763326261801D+02 0.890985422059978D+00 0.143518013482744D+03
 0.000000000000000D+00 -.000000000000000D+00 0.000000000000000D+00 -.000000000000000D+00
 0.218613486298253D+03 0.000000000000000D+00 0.000000000000000D+00 0.218613486298253D+03
 0.337919851447308D+03 0.000000000000000D+00 0.000000000000000D+00 -.337919851447308D+03
 0.174940546576850D+03 -.187445527014172D+02 0.295874409366257D+02 -.117270712112839D+03
 0.108492352486229D+03 -.114715522470505D+02 -.513305159124342D+02 -.262473013699048D+02
 0.149262541825010D+03 0.397606545815296D+02 -.100487086373289D+02 0.143518013482744D+03
 0.123837896857473D+03 -.954454963306196D+01 0.317917836131374D+02 -.119306365149055D+03
-.193542250315D-04 0.000000000000D+00 0.000000000000D+00 0.221459987252D-05 0.000000000000D+00  6 21 2 25 23 2 21 4 0.17605309D-01 0.98220477D-01 0.23914815D+05 0.23914815D+05 0.23914815D+05 0.12253694D+01  1  2 13  2  6  2        2 -.758500773088D-01 0.100000000000D+01
0.671795015602D-05 0.000000000000D+00 0.000000000000D+00 0.225841028093D-05 0.137698701285D-07  6 21 2 25 23 2 21 4 0.17842264D-01 0.97997271D-01 0.23914815D+05 0.23914815D+05 0.23914815D+05 0.12253694D+01  1  2  1  2  6  2        2 0.257573980629D-01 0.100000000000D+01
  </mgrwgt>
  </event>
  <event>
  5     66 0.41063134E-03 0.14802831E+03 0.75467711E-02 0.11591277E+00
       21 -1    0    0  501  502 0.00000000E+00 0.00000000E+00 0.27967087E+03 0.27967187E+03 0.75000000E+00 0.0000E+00 0.9000E+01
        2 -1    0    0  502    0 0.00000000E+00 0.00000000E+00 -.27730918E+03 0.27730937E+03 0.32000000E+00 0.0000E+00 0.9000E+01
       25  1    1    2    0    0 0.16299158E+02 0.33541128E+02 -.13650548E+03 0.18881053E+03 0.12500000E+03 0.0000E+00 0.9000E+01
       23  1    1    2    0    0 0.30057510E+02 0.10704128E+03 -.26513717E+02 0.14621736E+03 0.91188000E+02 0.0000E+00 0.9000E+01
        2  1    1    2  501    0 -.46356667E+02 -.14058240E+03 0.16538088E+03 0.22195335E+03 0.32000000E+00 0.0000E+00 0.9000E+01
#aMCatNLO 1  0  0  5  1 0.56232795D+02 0.00000000D+00  -5  6  0 0.00000000D+00 0.00000000D+00 0.00000000D+00 0.00000000D+00 0.00000000D+00
  <mgrwgt>
 0.2011524975D-01    4    2    0
 0.278488117150792D+03 0.000000000000000D+00 0.000000000000000D+00 0.278488117150792D+03
 0.278488117150792D+03 -.000000000000000D+00 -.000000000000000D+00 -.278488117150792D+03
 0.189391085542713D+03 0.162991740862019D+02 0.335411782585527D+02 -.137307354384909D+03
 0.146331139595831D+03 0.300575225530884D+02 0.107041314187225D+03 -.271339909791575D+02
 0.221254009163040D+03 -.463566966392903D+02 -.140582492445778D+03 0.164441345364066D+03
 0.000000000000000D+00 0.000000000000000D+00 0.000000000000000D+00 -.000000000000000D+00
 0.278488117150792D+03 0.000000000000000D+00 0.000000000000000D+00 0.278488117150792D+03
 0.278488117150792D+03 -.000000000000000D+00 -.000000000000000D+00 -.278488117150792D+03
 0.173103860621829D+03 0.108645496651799D+02 0.170599985800505D+02 -.118029083581984D+03
 0.134246951509410D+03 0.258510182636958D+02 0.942845627282470D+02 -.122122369549255D+02
 0.192670120274475D+03 -.322161247568152D+02 -.755285541060002D+02 0.174296684038713D+03
 0.569553018958699D+02 -.449944317206052D+01 -.358160072022974D+02 -.440553635018038D+02
0.216557895153D-04 0.000000000000D+00 0.000000000000D+00 0.245891190506D-06 0.000000000000D+00  6 21 2 25 23 2 21 2 0.43026379D-01 0.42663043D-01 0.44577117D+05 0.44577117D+05 0.44577117D+05 0.11972513D+01  1  2  2  3  6  5        2 0.236777878159D-01 0.100000000000D+01
-.865089334227D-06 0.114280740958D-05 -.437167997219D-07 0.245891190506D-06 0.000000000000D+00  6 21 2 25 23 2 21 4 0.43026379D-01 0.42663043D-01 0.44577117D+05 0.44577117D+05 0.44577117D+05 0.11972513D+01  1  2  3  3  6  5        2 -.135580952397D-02 0.100000000000D+01
0.224880641845D-05 0.000000000000D+00 0.000000000000D+00 0.245891190506D-06 0.000000000000D+00  6 21 2 25 23 2 21 4 0.43026379D-01 0.42663043D-01 0.44577117D+05 0.44577117D+05 0.44577117D+05 0.11972513D+01  1  2 15  3  6  5        2 0.352443734892D-02 0.100000000000D+01
-.365683408616D-05 0.000000000000D+00 0.000000000000D+00 0.245891190506D-06 0.000000000000D+00  6 21 2 25 23 2 21 4 0.43026379D-01 0.42663043D-01 0.44577117D+05 0.44577117D+05 0.44577117D+05 0.11972513D+01  1  2  4  3  6  5        2 -.573116588709D-02 0.100000000000D+01
  </mgrwgt>
  </event>
  <event>
  5     66 0.41063134E-03 0.55628391E+02 0.75467711E-02 0.11543019E+00
       21 -1    0    0  501  502 0.00000000E+00 0.00000000E+00 0.62023965E+02 0.62028500E+02 0.75000000E+00 0.0000E+00 0.9000E+01
        4 -1    0    0  502    0 0.00000000E+00 0.00000000E+00 -.77845290E+03 0.77845445E+03 0.15500000E+01 0.0000E+00 0.9000E+01
       25  1    1    2    0    0 -.20262939E+02 0.12070603E+03 -.61382064E+03 0.63826429E+03 0.12500000E+03 0.0000E+00 0.9000E+01
       23  1    1    2    0    0 0.69489474E+01 -.64936949E+02 -.89219516E+02 0.14331946E+03 0.91188000E+02 0.0000E+00 0.9000E+01
        4  1    1    2  501    0 0.13313991E+02 -.55769080E+02 -.13388787E+02 0.58899192E+02 0.15500000E+01 0.0000E+00 0.9000E+01
#aMCatNLO 1  0  0  1  2 0.42147889D+02 0.00000000D+00  -5  6  0 0.00000000D+00 0.00000000D+00 0.00000000D+00 0.00000000D+00 0.00000000D+00
  <mgrwgt>
 0.1205111114D-02   23    2    0
 0.219739140412282D+03 0.000000000000000D+00 0.000000000000000D+00 0.219739140412282D+03
 0.219739140412282D+03 0.000000000000000D+00 0.000000000000000D+00 -.219739140412282D+03
 0.220019459914456D+03 -.202639096474363D+02 0.120710097098671D+03 -.133424170094023D+03
 0.128645571089375D+03 0.694837965869585D+01 -.649345708586950D+02 0.630051834726892D+02
 0.908132498207334D+02 0.133155299887405D+02 -.557755262399762D+02 0.704189866213340D+02
 0.000000000000000D+00 -.000000000000000D+00 -.000000000000000D+00 0.000000000000000D+00
 0.258460679221430D+03 0.000000000000000D+00 0.000000000000000D+00 0.258460679221430D+03
 0.232523347712286D+03 0.000000000000000D+00 0.000000000000000D+00 -.232523347712286D+03
 0.220888014882418D+03 0.579520618203407D+00 0.123952289649162D+03 -.133424170094023D+03
 0.128937119378122D+03 0.191253264180326D+02 -.630404485588773D+02 0.630051834726892D+02
 0.916696039310913D+02 0.219422121256296D+02 -.544336470865347D+02 0.704189866213340D+02
 0.494892887420846D+02 -.416470591618656D+02 -.647819400374993D+01 0.259373315091447D+02
0.876961721323D-06 0.000000000000D+00 0.000000000000D+00 0.146954744113D-06 0.000000000000D+00  6 21 4 25 23 4 21 2 0.95426160D-02 0.11976245D+00 0.29661616D+05 0.29661616D+05 0.29661616D+05 0.12154158D+01  1  2  2  1  6  1       21 0.266420245974D-03 0.100000000000D+01
0.423352046496D-08 0.462785414653D-07 -.177033305148D-08 0.146954744113D-06 0.000000000000D+00  6 21 4 25 23 4 21 4 0.95426160D-02 0.11976245D+00 0.29661616D+05 0.29661616D+05 0.29661616D+05 0.12154158D+01  1  2  3  1  6  1       21 0.189993173820D-05 0.100000000000D+01
0.607552838042D-07 0.000000000000D+00 0.000000000000D+00 0.146954744113D-06 0.000000000000D+00  6 21 4 25 23 4 21 4 0.95426160D-02 0.11976245D+00 0.29661616D+05 0.29661616D+05 0.29661616D+05 0.12154158D+01  1  2 15  1  6  1       21 0.272659345617D-04 0.100000000000D+01
0.156233791347D-05 0.000000000000D+00 0.000000000000D+00 0.144298941306D-06 0.000000000000D+00  6 21 4 25 23 4 21 4 0.11465981D-01 0.11976245D+00 0.37902440D+05 0.37902440D+05 0.37902440D+05 0.12043831D+01  1  2 12  1  6  1       21 0.490248765506D-03 0.100000000000D+01
-.573312745815D-06 0.000000000000D+00 0.000000000000D+00 0.146954744113D-06 0.000000000000D+00  6 21 4 25 23 4 21 4 0.95426160D-02 0.11976245D+00 0.29661616D+05 0.29661616D+05 0.29661616D+05 0.12154158D+01  1  2  4  1  6  1       21 -.257292976544D-03 0.100000000000D+01
-.594620701211D-05 0.000000000000D+00 -.153959012209D-05 0.146954744113D-06 0.000000000000D+00  6 21 4 25 23 4 21 4 0.11864058D-01 0.11976245D+00 0.29661616D+05 0.29661616D+05 0.29661616D+05 0.12154158D+01  1  2  5  1  6  1       21 -.181531446352D-02 0.100000000000D+01
0.564343698431D-05 0.000000000000D+00 0.140285697206D-05 0.146954744113D-06 0.000000000000D+00  6 21 4 25 23 4 21 4 0.95426160D-02 0.11976245D+00 0.29661616D+05 0.29661616D+05 0.29661616D+05 0.12154158D+01  1  2  6  1  6  1       21 0.253267821138D-02 0.100000000000D+01
0.808855000355D-07 0.000000000000D+00 0.000000000000D+00 0.144298941306D-06 0.000000000000D+00  6 -1 4 25 23 4 -1 4 0.11465981D-01 0.11976245D+00 0.37902440D+05 0.37902440D+05 0.37902440D+05 0.12043831D+01  1  2 12  4  6  1       21 0.175877937698D-05 0.100000000000D+01
0.808855000355D-07 0.000000000000D+00 0.000000000000D+00 0.144298941306D-06 0.000000000000D+00  6 -3 4 25 23 4 -3 4 0.11465981D-01 0.11976245D+00 0.37902440D+05 0.37902440D+05 0.37902440D+05 0.12043831D+01  1  2 12  4  6  1       21 0.115302326211D-05 0.100000000000D+01
-.350602054389D-06 0.000000000000D+00 -.978981584629D-07 0.146954744113D-06 0.000000000000D+00  6 -1 4 25 23 4 -1 4 0.11864058D-01 0.11976245D+00 0.29661616D+05 0.29661616D+05 0.29661616D+05 0.12154158D+01  1  2  5  4  6  1       21 -.743958419793D-05 0.100000000000D+01
-.350602054389D-06 0.000000000000D+00 -.978981584629D-07 0.146954744113D-06 0.000000000000D+00  6 -3 4 25 23 4 -3 4 0.11864058D-01 0.11976245D+00 0.29661616D+05 0.29661616D+05 0.29661616D+05 0.12154158D+01  1  2  5  4  6  1       21 -.482974466671D-05 0.100000000000D+01
0.808855000355D-07 0.000000000000D+00 0.000000000000D+00 0.144298941306D-06 0.000000000000D+00  6 1 4 25 23 4 1 4 0.11465981D-01 0.11976245D+00 0.37902440D+05 0.37902440D+05 0.37902440D+05 0.12043831D+01  1  2 12  5  6  1       21 0.226686925001D-05 0.100000000000D+01
0.808855000355D-07 0.000000000000D+00 0.000000000000D+00 0.144298941306D-06 0.000000000000D+00  6 3 4 25 23 4 3 4 0.11465981D-01 0.11976245D+00 0.37902440D+05 0.37902440D+05 0.37902440D+05 0.12043831D+01  1  2 12  5  6  1       21 0.115288474915D-05 0.100000000000D+01
-.350602054389D-06 0.000000000000D+00 -.978981584629D-07 0.146954744113D-06 0.000000000000D+00  6 1 4 25 23 4 1 4 0.11864058D-01 0.11976245D+00 0.29661616D+05 0.29661616D+05 0.29661616D+05 0.12154158D+01  1  2  5  5  6  1       21 -.966616098012D-05 0.100000000000D+01
-.350602054389D-06 0.000000000000D+00 -.978981584629D-07 0.146954744113D-06 0.000000000000D+00  6 3 4 25 23 4 3 4 0.11864058D-01 0.11976245D+00 0.29661616D+05 0.29661616D+05 0.29661616D+05 0.12154158D+01  1  2  5  5  6  1       21 -.482915068333D-05 0.100000000000D+01
0.808855000355D-07 0.000000000000D+00 0.000000000000D+00 0.144298941306D-06 0.000000000000D+00  6 -4 4 25 23 4 -4 4 0.11465981D-01 0.11976245D+00 0.37902440D+05 0.37902440D+05 0.37902440D+05 0.12043831D+01  1  2 12  6  6  1       21 0.100901732047D-05 0.100000000000D+01
-.350602054389D-06 0.000000000000D+00 -.978981584629D-07 0.146954744113D-06 0.000000000000D+00  6 -4 4 25 23 4 -4 4 0.11864058D-01 0.11976245D+00 0.29661616D+05 0.29661616D+05 0.29661616D+05 0.12154158D+01  1  2  5  6  6  1       21 -.421187616278D-05 0.100000000000D+01
0.808855000355D-07 0.000000000000D+00 0.000000000000D+00 0.144298941306D-06 0.000000000000D+00  6 4 4 25 23 4 4 4 0.11465981D-01 0.11976245D+00 0.37902440D+05 0.37902440D+05 0.37902440D+05 0.12043831D+01  1  2 12  7  6  1       21 0.100901732047D-05 0.100000000000D+01
-.350602054389D-06 0.000000000000D+00 -.978981584629D-07 0.146954744113D-06 0.000000000000D+00  6 4 4 25 23 4 4 4 0.11864058D-01 0.11976245D+00 0.29661616D+05 0.29661616D+05 0.29661616D+05 0.12154158D+01  1  2  5  7  6  1       21 -.421187616278D-05 0.100000000000D+01
0.808855000355D-07 0.000000000000D+00 0.000000000000D+00 0.144298941306D-06 0.000000000000D+00  6 -2 4 25 23 4 -2 4 0.11465981D-01 0.11976245D+00 0.37902440D+05 0.37902440D+05 0.37902440D+05 0.12043831D+01  1  2 12  8  6  1       21 0.167097536187D-05 0.100000000000D+01
-.350602054389D-06 0.000000000000D+00 -.978981584629D-07 0.146954744113D-06 0.000000000000D+00  6 -2 4 25 23 4 -2 4 0.11864058D-01 0.11976245D+00 0.29661616D+05 0.29661616D+05 0.29661616D+05 0.12154158D+01  1  2  5  8  6  1       21 -.705463364450D-05 0.100000000000D+01
0.808855000355D-07 0.000000000000D+00 0.000000000000D+00 0.144298941306D-06 0.000000000000D+00  6 2 4 25 23 4 2 4 0.11465981D-01 0.11976245D+00 0.37902440D+05 0.37902440D+05 0.37902440D+05 0.12043831D+01  1  2 12  9  6  1       21 0.261369399457D-05 0.100000000000D+01
-.350602054389D-06 0.000000000000D+00 -.978981584629D-07 0.146954744113D-06 0.000000000000D+00  6 2 4 25 23 4 2 4 0.11864058D-01 0.11976245D+00 0.29661616D+05 0.29661616D+05 0.29661616D+05 0.12154158D+01  1  2  5  9  6  1       21 -.111857695529D-04 0.100000000000D+01
  </mgrwgt>
  </event>
  <event>
  5     66 0.41063134E-03 0.83920669E+02 0.75467711E-02 0.10910879E+00
       21 -1    0    0  501  502 0.00000000E+00 0.00000000E+00 0.29002320E+02 0.29012016E+02 0.75000000E+00 0.0000E+00 0.9000E+01
        2 -1    0    0  502    0 0.00000000E+00 0.00000000E+00 -.31587881E+04 0.31587882E+04 0.32000000E+00 0.0000E+00 0.9000E+01
       25  1    1    2    0    0 -.11782862E+03 -.16552889E+03 -.15762961E+04 0.15942452E+04 0.12500000E+03 0.0000E+00 0.9000E+01
       23  1    1    2    0    0 0.56667033E+02 0.10806652E+03 -.14599954E+04 0.14679207E+04 0.91188000E+02 0.0000E+00 0.9000E+01
        2  1    1    2  501    0 0.61161585E+02 0.57462363E+02 -.93494308E+02 0.12563419E+03 0.32000000E+00 0.0000E+00 0.9000E+01
#aMCatNLO 1  0  0  1  2 0.42147889D+02 0.00000000D+00  -5  6  0 0.00000000D+00 0.00000000D+00 0.00000000D+00 0.00000000D+00 0.00000000D+00
  <mgrwgt>
 0.1612588616D-01   14    2    0
 0.302700617875067D+03 0.000000000000000D+00 0.000000000000000D+00 0.302700617875067D+03
 0.302700617875067D+03 0.000000000000000D+00 0.000000000000000D+00 -.302700617875067D+03
 0.245566092596458D+03 -.117828657367627D+03 -.165528925621781D+03 -.582605193809095D+02
 0.181640109187272D+03 0.566670032543252D+02 0.108066496916932D+03 -.989361456083735D+02
 0.178195033966404D+03 0.611616541133019D+02 0.574624287048495D+02 0.157196664989283D+03
 0.000000000000000D+00 0.000000000000000D+00 -.000000000000000D+00 0.000000000000000D+00
 0.407275101480924D+03 0.000000000000000D+00 0.000000000000000D+00 0.407275101480924D+03
 0.323748557030740D+03 0.000000000000000D+00 0.000000000000000D+00 -.323748557030740D+03
 0.226706749732435D+03 -.121704077994527D+03 -.132532183469577D+03 -.582605193809095D+02
 0.197688120502117D+03 0.535542762161694D+02 0.134569388178666D+03 -.989361456083735D+02
 0.187028270121661D+03 0.581646705918529D+02 0.829798375262896D+02 0.157196664989283D+03
 0.119600518155451D+03 0.998513118650494D+01 -.850170422353782D+02 0.835265444501834D+02
0.997337496990D-05 0.000000000000D+00 0.000000000000D+00 0.157559182413D-06 0.000000000000D+00  6 21 2 25 23 2 21 2 0.44626424D-02 0.48596815D+00 0.56360335D+05 0.56360335D+05 0.56360335D+05 0.11871656D+01  1  2  2  1  6  1       21 0.988568585696D-02 0.100000000000D+01
0.392969663567D-06 0.526309456698D-06 -.201333706075D-07 0.157559182413D-06 0.000000000000D+00  6 21 2 25 23 2 21 4 0.44626424D-02 0.48596815D+00 0.56360335D+05 0.56360335D+05 0.56360335D+05 0.11871656D+01  1  2  3  1  6  1       21 0.548967087233D-03 0.100000000000D+01
0.626311894259D-06 0.000000000000D+00 0.000000000000D+00 0.157559182413D-06 0.000000000000D+00  6 21 2 25 23 2 21 4 0.44626424D-02 0.48596815D+00 0.56360335D+05 0.56360335D+05 0.56360335D+05 0.11871656D+01  1  2 15  1  6  1       21 0.874939335445D-03 0.100000000000D+01
-.867479861562D-05 0.000000000000D+00 0.000000000000D+00 0.157559182413D-06 0.000000000000D+00  6 21 2 25 23 2 21 4 0.44626424D-02 0.48596815D+00 0.56360335D+05 0.56360335D+05 0.56360335D+05 0.11871656D+01  1  2  4  1  6  1       21 -.121184390803D-01 0.100000000000D+01
-.455453641392D-04 0.000000000000D+00 -.129023952028D-04 0.157559182413D-06 0.000000000000D+00  6 21 2 25 23 2 21 4 0.66190857D-02 0.48596815D+00 0.56360335D+05 0.56360335D+05 0.56360335D+05 0.11871656D+01  1  2  5  1  6  1       21 -.324127702805D-01 0.100000000000D+01
0.366169181122D-04 0.000000000000D+00 0.963121959137D-05 0.157559182413D-06 0.000000000000D+00  6 21 2 25 23 2 21 4 0.44626424D-02 0.48596815D+00 0.56360335D+05 0.56360335D+05 0.56360335D+05 0.11871656D+01  1  2  6  1  6  1       21 0.511527599792D-01 0.100000000000D+01
-.578625329276D-05 0.000000000000D+00 -.169680063016D-05 0.157559182413D-06 0.000000000000D+00  6 -1 2 25 23 2 -1 4 0.66190857D-02 0.48596815D+00 0.56360335D+05 0.56360335D+05 0.56360335D+05 0.11871656D+01  1  2  5  4  6  1       21 -.254690134785D-03 0.100000000000D+01
-.578625329276D-05 0.000000000000D+00 -.169680063016D-05 0.157559182413D-06 0.000000000000D+00  6 -3 2 25 23 2 -3 4 0.66190857D-02 0.48596815D+00 0.56360335D+05 0.56360335D+05 0.56360335D+05 0.11871656D+01  1  2  5  4  6  1       21 -.179780749591D-03 0.100000000000D+01
-.578625329276D-05 0.000000000000D+00 -.169680063016D-05 0.157559182413D-06 0.000000000000D+00  6 1 2 25 23 2 1 4 0.66190857D-02 0.48596815D+00 0.56360335D+05 0.56360335D+05 0.56360335D+05 0.11871656D+01  1  2  5  5  6  1       21 -.297043381012D-03 0.100000000000D+01
-.578625329276D-05 0.000000000000D+00 -.169680063016D-05 0.157559182413D-06 0.000000000000D+00  6 3 2 25 23 2 3 4 0.66190857D-02 0.48596815D+00 0.56360335D+05 0.56360335D+05 0.56360335D+05 0.11871656D+01  1  2  5  5  6  1       21 -.179762234950D-03 0.100000000000D+01
-.578625329276D-05 0.000000000000D+00 -.169680063016D-05 0.157559182413D-06 0.000000000000D+00  6 -2 2 25 23 2 -2 4 0.66190857D-02 0.48596815D+00 0.56360335D+05 0.56360335D+05 0.56360335D+05 0.11871656D+01  1  2  5  6  6  1       21 -.247301761409D-03 0.100000000000D+01
-.578625329276D-05 0.000000000000D+00 -.169680063016D-05 0.157559182413D-06 0.000000000000D+00  6 2 2 25 23 2 2 4 0.66190857D-02 0.48596815D+00 0.56360335D+05 0.56360335D+05 0.56360335D+05 0.11871656D+01  1  2  5  7  6  1       21 -.325619392439D-03 0.100000000000D+01
-.578625329276D-05 0.000000000000D+00 -.169680063016D-05 0.157559182413D-06 0.000000000000D+00  6 -4 2 25 23 2 -4 4 0.66190857D-02 0.48596815D+00 0.56360335D+05 0.56360335D+05 0.56360335D+05 0.11871656D+01  1  2  5  8  6  1       21 -.160529540462D-03 0.100000000000D+01
-.578625329276D-05 0.000000000000D+00 -.169680063016D-05 0.157559182413D-06 0.000000000000D+00  6 4 2 25 23 2 4 4 0.66190857D-02 0.48596815D+00 0.56360335D+05 0.56360335D+05 0.56360335D+05 0.11871656D+01  1  2  5  9  6  1       21 -.160529540462D-03 0.100000000000D+01
  </mgrwgt>
  </event>
  <event>
  6     66 -.41063134E-03 0.19650817E+03 0.75467711E-02 0.10850147E+00
       21 -1    0    0  501  503 0.00000000E+00 0.00000000E+00 0.35521340E+03 0.35521419E+03 0.75000000E+00 0.0000E+00 0.9000E+01
        2 -1    0    0  502    0 0.00000000E+00 0.00000000E+00 -.23718795E+04 0.23718795E+04 0.32000000E+00 0.0000E+00 0.9000E+01
       25  1    1    2    0    0 -.14768602E+02 -.49313113E+02 -.77080749E+03 0.78257210E+03 0.12500000E+03 0.0000E+00 0.9000E+01
       23  1    1    2    0    0 -.17714527E+03 -.93666910E+02 -.15397535E+04 0.15554132E+04 0.91188000E+02 0.0000E+00 0.9000E+01
        2  1    1    2  501    0 0.11479151E+03 0.51228394E+02 0.97741180E+02 0.15923216E+03 0.32000000E+00 0.0000E+00 0.9000E+01
       21  1    1    2  502  503 0.77122352E+02 0.91751629E+02 0.19615378E+03 0.22987625E+03 0.75000000E+00 0.0000E+00 0.9000E+01
#aMCatNLO 2  0  0  1  2 0.11985916D+03 0.00000000D+00  -5  6  0 0.00000000D+00 0.00000000D+00 0.00000000D+00 0.00000000D+00 0.00000000D+00
  <mgrwgt>
 -.7967184642D-02    2    2    0
 0.575577315214753D+03 0.000000000000000D+00 0.000000000000000D+00 0.575577315214753D+03
 0.575577315214753D+03 0.000000000000000D+00 0.000000000000000D+00 -.575577315214753D+03
 0.211032488294084D+03 -.542891290494815D+00 -.323889363910161D+02 -.166914268964933D+03
 0.395039700751521D+03 -.150179224891754D+03 -.615856976972799D+02 -.348417158125002D+03
 0.545082441383901D+03 0.150722116182249D+03 0.939746340882960D+02 0.515331427089935D+03
 0.000000000000000D+00 0.000000000000000D+00 0.000000000000000D+00 0.000000000000000D+00
 0.144556937400006D+04 0.000000000000000D+00 0.000000000000000D+00 0.144556937400006D+04
 0.582831942492316D+03 0.000000000000000D+00 0.000000000000000D+00 -.582831942492316D+03
 0.214791220668297D+03 -.147686074180714D+02 -.493131171901524D+02 -.166914268964933D+03
 0.412145250799762D+03 -.177145276197824D+03 -.936669176267294D+02 -.348417158125002D+03
 0.530441255021986D+03 0.114791531596355D+03 0.512284057580723D+02 0.515331427089935D+03
 0.871023590002334D+03 0.771223520195399D+02 0.917516290588095D+02 0.862737431507746D+03
-.567193474923D-03 0.000000000000D+00 0.000000000000D+00 0.855591931030D-06 0.000000000000D+00  6 21 2 25 23 2 21 4 0.54550401D-01 0.36036245D+00 0.90271654D+05 0.90271654D+05 0.90271654D+05 0.11676770D+01  1  2 13  1  6  1       21 -.196542400769D-01 0.100000000000D+01
0.351261440217D-03 0.000000000000D+00 0.000000000000D+00 0.879679450172D-06 0.445472697636D-08  6 21 2 25 23 2 21 4 0.54648263D-01 0.36490449D+00 0.90271654D+05 0.90271654D+05 0.90271654D+05 0.11676770D+01  1  2  1  1  6  1       21 0.116870554351D-01 0.100000000000D+01
  </mgrwgt>
  </event>
  <event>
  5     66 0.41063134E-03 0.35012752E+02 0.75467711E-02 0.11837434E+00
       21 -1    0    0  501  502 0.00000000E+00 0.00000000E+00 0.56958535E+03 0.56958585E+03 0.75000000E+00 0.0000E+00 0.9000E+01
        2 -1    0    0  502    0 0.00000000E+00 0.00000000E+00 -.57095860E+02 0.57096757E+02 0.32000000E+00 0.0000E+00 0.9000E+01
       25  1    1    2    0    0 -.22615022E+02 0.64485227E+02 0.17554080E+03 0.22607378E+03 0.12500000E+03 0.0000E+00 0.9000E+01
       23  1    1    2    0    0 0.55795001E+02 -.53306316E+02 0.85911882E+02 0.14714193E+03 0.91188000E+02 0.0000E+00 0.9000E+01
        2  1    1    2  501    0 -.33179979E+02 -.11178910E+02 0.25103682E+03 0.25346689E+03 0.32000000E+00 0.0000E+00 0.9000E+01
#aMCatNLO 1  0  0  1  2 0.29016338D+02 0.00000000D+00  -5  6  0 0.00000000D+00 0.00000000D+00 0.00000000D+00 0.00000000D+00 0.00000000D+00
  <mgrwgt>
 0.2337342383D-01   23    2    0
 0.180336910605881D+03 0.000000000000000D+00 0.000000000000000D+00 0.180336910605881D+03
 0.180336910605881D+03 0.000000000000000D+00 0.000000000000000D+00 -.180336910605881D+03
 0.143380800949789D+03 -.226149257327851D+02 0.644852590666656D+02 -.162256148792151D+02
 0.133589942424348D+03 0.557950910719032D+02 -.533062861827740D+02 -.598027510957391D+02
 0.837030778376254D+02 -.331801653391181D+02 -.111789728838916D+02 0.760283659749542D+02
 0.000000000000000D+00 -.000000000000000D+00 0.000000000000000D+00 0.000000000000000D+00
 0.251706026576325D+03 0.000000000000000D+00 0.000000000000000D+00 0.251706026576325D+03
 0.183893111434092D+03 0.000000000000000D+00 0.000000000000000D+00 -.183893111434092D+03
 0.138534075823580D+03 -.217636403673547D+02 0.531955218420229D+02 -.162256148792151D+02
 0.138635437729159D+03 0.566171175107906D+02 -.642079918429625D+02 -.598027510957391D+02
 0.846696125789646D+02 -.326717380828829D+02 -.179217296066506D+02 0.760283659749542D+02
 0.737600118787136D+02 -.218173906055299D+01 0.289341996075902D+02 0.678129151422334D+02
0.286879114092D-05 0.000000000000D+00 0.000000000000D+00 0.783563532257D-06 0.000000000000D+00  6 21 2 25 23 2 21 2 0.87628623D-01 0.87840854D-02 0.22041740D+05 0.22041740D+05 0.22041740D+05 0.12292053D+01  1  2  2  1  6  1       21 0.445161780863D-02 0.100000000000D+01
0.253966056572D-06 0.151390267719D-06 -.579126277815D-08 0.783563532257D-06 0.000000000000D+00  6 21 2 25 23 2 21 4 0.87628623D-01 0.87840854D-02 0.22041740D+05 0.22041740D+05 0.22041740D+05 0.12292053D+01  1  2  3  1  6  1       21 0.595447525453D-03 0.100000000000D+01
0.301769637825D-06 0.000000000000D+00 0.000000000000D+00 0.783563532257D-06 0.000000000000D+00  6 21 2 25 23 2 21 4 0.87628623D-01 0.87840854D-02 0.22041740D+05 0.22041740D+05 0.22041740D+05 0.12292053D+01  1  2 15  1  6  1       21 0.707527559095D-03 0.100000000000D+01
0.164179191878D-04 0.000000000000D+00 0.000000000000D+00 0.771423308833D-06 0.000000000000D+00  6 21 2 25 23 2 21 4 0.12291429D+00 0.87840854D-02 0.27049544D+05 0.27049544D+05 0.27049544D+05 0.12196458D+01  1  2 12  1  6  1       21 0.166298816801D-01 0.100000000000D+01
-.916298362653D-05 0.000000000000D+00 0.000000000000D+00 0.783563532257D-06 0.000000000000D+00  6 21 2 25 23 2 21 4 0.87628623D-01 0.87840854D-02 0.22041740D+05 0.22041740D+05 0.22041740D+05 0.12292053D+01  1  2  4  1  6  1       21 -.214834848397D-01 0.100000000000D+01
-.399882559080D-04 0.000000000000D+00 -.356939066414D-05 0.783563532257D-06 0.000000000000D+00  6 21 2 25 23 2 21 4 0.12338128D+00 0.87840854D-02 0.22041740D+05 0.22041740D+05 0.22041740D+05 0.12292053D+01  1  2  5  1  6  1       21 -.416332786592D-01 0.100000000000D+01
0.302326598638D-04 0.000000000000D+00 0.285452030739D-05 0.783563532257D-06 0.000000000000D+00  6 21 2 25 23 2 21 4 0.87628623D-01 0.87840854D-02 0.22041740D+05 0.22041740D+05 0.22041740D+05 0.12292053D+01  1  2  6  1  6  1       21 0.708833406586D-01 0.100000000000D+01
0.179222294661D-05 0.000000000000D+00 0.000000000000D+00 0.771423308833D-06 0.000000000000D+00  6 -1 2 25 23 2 -1 4 0.12291429D+00 0.87840854D-02 0.27049544D+05 0.27049544D+05 0.27049544D+05 0.12196458D+01  1  2 12  4  6  1       21 0.212511642242D-03 0.100000000000D+01
0.179222294661D-05 0.000000000000D+00 0.000000000000D+00 0.771423308833D-06 0.000000000000D+00  6 -3 2 25 23 2 -3 4 0.12291429D+00 0.87840854D-02 0.27049544D+05 0.27049544D+05 0.27049544D+05 0.12196458D+01  1  2 12  4  6  1       21 0.989529099713D-04 0.100000000000D+01
-.537820594287D-05 0.000000000000D+00 -.395005405557D-06 0.783563532257D-06 0.000000000000D+00  6 -1 2 25 23 2 -1 4 0.12338128D+00 0.87840854D-02 0.22041740D+05 0.22041740D+05 0.22041740D+05 0.12292053D+01  1  2  5  4  6  1       21 -.651594600216D-03 0.100000000000D+01
-.537820594287D-05 0.000000000000D+00 -.395005405557D-06 0.783563532257D-06 0.000000000000D+00  6 -3 2 25 23 2 -3 4 0.12338128D+00 0.87840854D-02 0.22041740D+05 0.22041740D+05 0.22041740D+05 0.12292053D+01  1  2  5  4  6  1       21 -.301864845187D-03 0.100000000000D+01
0.179222294661D-05 0.000000000000D+00 0.000000000000D+00 0.771423308833D-06 0.000000000000D+00  6 1 2 25 23 2 1 4 0.12291429D+00 0.87840854D-02 0.27049544D+05 0.27049544D+05 0.27049544D+05 0.12196458D+01  1  2 12  5  6  1       21 0.931110728524D-03 0.100000000000D+01
0.179222294661D-05 0.000000000000D+00 0.000000000000D+00 0.771423308833D-06 0.000000000000D+00  6 3 2 25 23 2 3 4 0.12291429D+00 0.87840854D-02 0.27049544D+05 0.27049544D+05 0.27049544D+05 0.12196458D+01  1  2 12  5  6  1       21 0.992313602446D-04 0.100000000000D+01
-.537820594287D-05 0.000000000000D+00 -.395005405557D-06 0.783563532257D-06 0.000000000000D+00  6 1 2 25 23 2 1 4 0.12338128D+00 0.87840854D-02 0.22041740D+05 0.22041740D+05 0.22041740D+05 0.12292053D+01  1  2  5  5  6  1       21 -.286293706326D-02 0.100000000000D+01
-.537820594287D-05 0.000000000000D+00 -.395005405557D-06 0.783563532257D-06 0.000000000000D+00  6 3 2 25 23 2 3 4 0.12338128D+00 0.87840854D-02 0.22041740D+05 0.22041740D+05 0.22041740D+05 0.12292053D+01  1  2  5  5  6  1       21 -.302719186499D-03 0.100000000000D+01
0.179222294661D-05 0.000000000000D+00 0.000000000000D+00 0.771423308833D-06 0.000000000000D+00  6 -2 2 25 23 2 -2 4 0.12291429D+00 0.87840854D-02 0.27049544D+05 0.27049544D+05 0.27049544D+05 0.12196458D+01  1  2 12  6  6  1       21 0.155484368379D-03 0.100000000000D+01
-.537820594287D-05 0.000000000000D+00 -.395005405557D-06 0.783563532257D-06 0.000000000000D+00  6 -2 2 25 23 2 -2 4 0.12338128D+00 0.87840854D-02 0.22041740D+05 0.22041740D+05 0.22041740D+05 0.12292053D+01  1  2  5  6  6  1       21 -.475927106959D-03 0.100000000000D+01
0.179222294661D-05 0.000000000000D+00 0.000000000000D+00 0.771423308833D-06 0.000000000000D+00  6 2 2 25 23 2 2 4 0.12291429D+00 0.87840854D-02 0.27049544D+05 0.27049544D+05 0.27049544D+05 0.12196458D+01  1  2 12  7  6  1       21 0.161918012705D-02 0.100000000000D+01
-.537820594287D-05 0.000000000000D+00 -.395005405557D-06 0.783563532257D-06 0.000000000000D+00  6 2 2 25 23 2 2 4 0.12338128D+00 0.87840854D-02 0.22041740D+05 0.22041740D+05 0.22041740D+05 0.12292053D+01  1  2  5  7  6  1       21 -.497788337087D-02 0.100000000000D+01
0.179222294661D-05 0.000000000000D+00 0.000000000000D+00 0.771423308833D-06 0.000000000000D+00  6 -4 2 25 23 2 -4 4 0.12291429D+00 0.87840854D-02 0.27049544D+05 0.27049544D+05 0.27049544D+05 0.12196458D+01  1  2 12  8  6  1       21 0.785731712664D-04 0.100000000000D+01
-.537820594287D-05 0.000000000000D+00 -.395005405557D-06 0.783563532257D-06 0.000000000000D+00  6 -4 2 25 23 2 -4 4 0.12338128D+00 0.87840854D-02 0.22041740D+05 0.22041740D+05 0.22041740D+05 0.12292053D+01  1  2  5  8  6  1       21 -.239159603230D-03 0.100000000000D+01
0.179222294661D-05 0.000000000000D+00 0.000000000000D+00 0.771423308833D-06 0.000000000000D+00  6 4 2 25 23 2 4 4 0.12291429D+00 0.87840854D-02 0.27049544D+05 0.27049544D+05 0.27049544D+05 0.12196458D+01  1  2 12  9  6  1       21 0.785731712664D-04 0.100000000000D+01
-.537820594287D-05 0.000000000000D+00 -.395005405557D-06 0.783563532257D-06 0.000000000000D+00  6 4 2 25 23 2 4 4 0.12338128D+00 0.87840854D-02 0.22041740D+05 0.22041740D+05 0.22041740D+05 0.12292053D+01  1  2  5  9  6  1       21 -.239159603230D-03 0.100000000000D+01
  </mgrwgt>
  </event>
  <event>
  5     66 0.41063134E-03 0.70452159E+02 0.75467711E-02 0.11850055E+00
       21 -1    0    0  501  502 0.00000000E+00 0.00000000E+00 0.31610543E+02 0.31619439E+02 0.75000000E+00 0.0000E+00 0.9000E+01
        2 -1    0    0  502    0 0.00000000E+00 0.00000000E+00 -.15653802E+04 0.15653802E+04 0.32000000E+00 0.0000E+00 0.9000E+01
       25  1    1    2    0    0 0.39683514E+02 0.20276503E+02 -.94518035E+03 0.95445106E+03 0.12500000E+03 0.0000E+00 0.9000E+01
       23  1    1    2    0    0 0.39500028E+01 0.35037254E+02 -.55669130E+03 0.56521117E+03 0.91188000E+02 0.0000E+00 0.9000E+01
        2  1    1    2  501    0 -.43633517E+02 -.55313757E+02 -.31898003E+02 0.77337445E+02 0.32000000E+00 0.0000E+00 0.9000E+01
#aMCatNLO 1  0  0  2  1 0.24568024D+02 0.00000000D+00  -5  6  0 0.00000000D+00 0.00000000D+00 0.00000000D+00 0.00000000D+00 0.00000000D+00
  <mgrwgt>
 0.1407138075D-01    9    2    0
 0.222462687999135D+03 0.000000000000000D+00 0.000000000000000D+00 0.222462687999135D+03
 0.222462687999135D+03 0.000000000000000D+00 0.000000000000000D+00 -.222462687999135D+03
 0.167599139217303D+03 0.396835440061355D+02 0.202765407541425D+02 -.102364787385798D+03
 0.109694453611336D+03 0.395002236469685D+01 0.350372785719798D+02 -.497434241149268D+02
 0.167631783169631D+03 -.436335663708323D+02 -.553138193261223D+02 0.152108211500725D+03
 0.000000000000000D+00 0.000000000000000D+00 -.000000000000000D+00 -.000000000000000D+00
 0.226496374847382D+03 0.000000000000000D+00 0.000000000000000D+00 0.226496374847382D+03
 0.263642005463579D+03 0.000000000000000D+00 0.000000000000000D+00 -.263642005463579D+03
 0.166745381616097D+03 0.322350384155518D+02 0.257172100373661D+02 -.102364787385798D+03
 0.110826594978378D+03 -.962731279859901D+00 0.386257390389726D+02 -.497434241149268D+02
 0.168031185424840D+03 -.511114442552845D+02 -.498516954121565D+02 0.152108211500725D+03
 0.445352182916462D+02 0.198391371195926D+02 -.144912536641822D+02 -.371456306161964D+02
0.656079911210D-06 0.000000000000D+00 0.000000000000D+00 0.106142303783D-05 0.000000000000D+00  6 21 2 25 23 2 21 2 0.48638473D-02 0.24082841D+00 0.22639071D+05 0.22639071D+05 0.22639071D+05 0.12279436D+01  1  2  2  2  6  2        2 0.455675941960D-02 0.100000000000D+01
0.194299620236D-07 0.346222881082D-07 -.132443631573D-08 0.106142303783D-05 0.000000000000D+00  6 21 2 25 23 2 21 4 0.48638473D-02 0.24082841D+00 0.22639071D+05 0.22639071D+05 0.22639071D+05 0.12279436D+01  1  2  3  2  6  2        2 0.203483021680D-03 0.100000000000D+01
0.647299423015D-07 0.000000000000D+00 0.000000000000D+00 0.106142303783D-05 0.000000000000D+00  6 21 2 25 23 2 21 4 0.48638473D-02 0.24082841D+00 0.22639071D+05 0.22639071D+05 0.22639071D+05 0.12279436D+01  1  2 15  2  6  2        2 0.677893463541D-03 0.100000000000D+01
0.687934227599D-05 0.000000000000D+00 0.000000000000D+00 0.104824276453D-05 0.000000000000D+00  6 21 2 25 23 2 21 4 0.48638473D-02 0.28732394D+00 0.26671388D+05 0.26671388D+05 0.26671388D+05 0.12202958D+01  1  2 12  2  6  2        2 0.489320287741D-01 0.100000000000D+01
-.668644427435D-05 0.000000000000D+00 0.000000000000D+00 0.106142303783D-05 0.000000000000D+00  6 21 2 25 23 2 21 4 0.48638473D-02 0.24082841D+00 0.22639071D+05 0.22639071D+05 0.22639071D+05 0.12279436D+01  1  2  4  2  6  2        2 -.700247320908D-01 0.100000000000D+01
-.915004473335D-05 0.000000000000D+00 -.126649746620D-05 0.106142303783D-05 0.000000000000D+00  6 21 2 25 23 2 21 4 0.48638473D-02 0.28729278D+00 0.22639071D+05 0.22639071D+05 0.22639071D+05 0.12279436D+01  1  2  5  2  6  2        2 -.669843266388D-01 0.100000000000D+01
0.924863645957D-05 0.000000000000D+00 0.124704124445D-05 0.106142303783D-05 0.000000000000D+00  6 21 2 25 23 2 21 4 0.48638473D-02 0.24082841D+00 0.22639071D+05 0.22639071D+05 0.22639071D+05 0.12279436D+01  1  2  6  2  6  2        2 0.968576516478D-01 0.100000000000D+01
0.178683845482D-06 0.000000000000D+00 0.000000000000D+00 0.104824276453D-05 0.000000000000D+00  6 21 21 25 23 2 -2 4 0.48638473D-02 0.28732394D+00 0.26671388D+05 0.26671388D+05 0.26671388D+05 0.12202958D+01  1  2 12 10  6  2        2 0.465757002835D-03 0.100000000000D+01
-.225821274258D-06 0.000000000000D+00 -.328800944946D-07 0.106142303783D-05 0.000000000000D+00  6 21 21 25 23 2 -2 4 0.48638473D-02 0.28729278D+00 0.22639071D+05 0.22639071D+05 0.22639071D+05 0.12279436D+01  1  2  5 10  6  2        2 -.613133849941D-03 0.100000000000D+01
  </mgrwgt>
  </event>
  <event>
  6     66 0.41063134E-03 0.30012575E+02 0.75467711E-02 0.11821546E+00
       21 -1    0    0  501  502 0.00000000E+00 0.00000000E+00 0.75113498E+02 0.75117243E+02 0.75000000E+00 0.0000E+00 0.9000E+01
        2 -1    0    0  502    0 -.00000000E+00 -.00000000E+00 -.74269357E+03 0.74269364E+03 0.32000000E+00 0.0000E+00 0.9000E+01
       25  1    1    2    0    0 -.31992671E+02 0.46773843E+02 -.89969612E+02 0.16410623E+03 0.12500000E+03 0.0000E+00 0.9000E+01
       23  1    1    2    0    0 0.74461621E+02 -.32696044E+02 -.56714933E+03 0.58016134E+03 0.91188000E+02 0.0000E+00 0.9000E+01
        2  1    1    2  503    0 -.25213484E+02 -.36309069E+02 -.24514893E+01 0.44273926E+02 0.32000000E+00 0.0000E+00 0.9000E+01
       21  1    1    2  501  503 -.17255466E+02 0.22231270E+02 -.80096448E+01 0.29269393E+02 0.75000000E+00 0.0000E+00 0.9000E+01
#aMCatNLO 2  0  0  5  2 0.27004804D+02 0.00000000D+00  -5  6  0 0.00000000D+00 0.00000000D+00 0.00000000D+00 0.00000000D+00 0.00000000D+00
  <mgrwgt>
 0.1675480957D-01    1    2    0
 0.236194563645290D+03 0.000000000000000D+00 0.000000000000000D+00 0.236194563645290D+03
 0.236194563645290D+03 -.000000000000000D+00 -.000000000000000D+00 -.236194563645290D+03
 0.154513487259568D+03 -.296751478332160D+02 0.475420664679001D+02 0.714741580023950D+02
 0.208829548935462D+03 0.775250579700365D+02 -.316805620052960D+02 -.168168773981258D+03
 0.109046091095549D+03 -.478499101368205D+02 -.158615044626041D+02 0.966946159788632D+02
 0.000000000000000D+00 0.000000000000000D+00 0.000000000000000D+00 0.000000000000000D+00
 0.236194563645290D+03 0.000000000000000D+00 0.000000000000000D+00 0.236194563645290D+03
 0.236194563645290D+03 -.000000000000000D+00 -.000000000000000D+00 -.236194563645290D+03
 0.156968124732092D+03 -.320006560082281D+02 0.467711965082637D+02 0.761735214765484D+02
 0.202873575168859D+03 0.744513003422244D+02 -.326994650751472D+02 -.161957355556782D+03
 0.729025264338443D+02 -.250420599020883D+02 -.363691765857679D+02 0.580082458860016D+02
 0.396449009557838D+02 -.174085844319080D+02 0.222974451526513D+02 0.277755881942316D+02
0.244910084494D-05 0.000000000000D+00 0.000000000000D+00 0.193184740843D-06 0.232681960480D-08  6 21 2 25 23 2 21 4 0.11556216D-01 0.11426084D+00 0.27534393D+05 0.27534393D+05 0.27534393D+05 0.12188270D+01  1  2  1  3  6  5        2 0.167548095720D-01 0.100000000000D+01
  </mgrwgt>
  </event>
  <event>
  6     66 0.41063134E-03 0.21708736E+02 0.75467711E-02 0.11549253E+00
       21 -1    0    0  501  503 0.00000000E+00 0.00000000E+00 0.17618813E+03 0.17618972E+03 0.75000000E+00 0.0000E+00 0.9000E+01
        2 -1    0    0  502    0 0.00000000E+00 0.00000000E+00 -.58632206E+03 0.58632215E+03 0.32000000E+00 0.0000E+00 0.9000E+01
       25  1    1    2    0    0 -.11688546E+02 -.10514523E+03 -.17543517E+03 0.23998883E+03 0.12500000E+03 0.0000E+00 0.9000E+01
       23  1    1    2    0    0 0.39820825E+02 0.98031288E+02 -.35138959E+03 0.37813454E+03 0.91188000E+02 0.0000E+00 0.9000E+01
        2  1    1    2  501    0 -.24887251E+02 -.34624991E+02 0.50876157E+02 0.66383364E+02 0.32000000E+00 0.0000E+00 0.9000E+01
       21  1    1    2  502  503 -.32450278E+01 0.41738932E+02 0.65814669E+02 0.78005139E+02 0.75000000E+00 0.0000E+00 0.9000E+01
#aMCatNLO 2  0  0  1  5 0.51781518D+02 0.00000000D+00  -5  6  0 0.00000000D+00 0.00000000D+00 0.00000000D+00 0.00000000D+00 0.00000000D+00
  <mgrwgt>
 0.3427279860D-01    1    2    0
 0.245086579476671D+03 0.000000000000000D+00 0.000000000000000D+00 0.245086579476671D+03
 0.245086579476671D+03 0.000000000000000D+00 0.000000000000000D+00 -.245086579476671D+03
 0.155914547068945D+03 -.127461805680366D+02 -.915411845265454D+02 -.119202518479341D+02
 0.194940919065412D+03 0.385616054913448D+02 0.114228276056699D+03 -.123091892962584D+03
 0.139317692818984D+03 -.258154249233082D+02 -.226870915301537D+02 0.135012144810518D+03
 0.000000000000000D+00 -.000000000000000D+00 0.000000000000000D+00 0.000000000000000D+00
 0.415602310601439D+03 0.000000000000000D+00 0.000000000000000D+00 0.415602310601439D+03
 0.248562033550947D+03 0.000000000000000D+00 0.000000000000000D+00 -.248562033550947D+03
 0.164192658297517D+03 -.116885243937525D+02 -.105145209268819D+03 -.119202518479341D+02
 0.186179220402016D+03 0.398208525869867D+02 0.980313029171595D+02 -.123091892962584D+03
 0.141585837337257D+03 -.248873003823193D+02 -.346250251673009D+02 0.135012144810518D+03
 0.172206628115596D+03 -.324502781091484D+01 0.417389315189603D+02 0.167040277050492D+03
0.192667120943D-04 0.000000000000D+00 0.000000000000D+00 0.932461604047D-06 0.922492373844D-08  6 21 2 25 23 2 21 4 0.27105907D-01 0.90203230D-01 0.37625825D+05 0.37625825D+05 0.37625825D+05 0.12047082D+01  1  2  1  1  6  1       21 0.342727985962D-01 0.100000000000D+01
  </mgrwgt>
  </event>
  <event>
  6     66 0.41063134E-03 0.86600629E+02 0.75467711E-02 0.11536438E+00
       21 -1    0    0  501  502 0.00000000E+00 0.00000000E+00 0.60446378E+02 0.60451030E+02 0.75000000E+00 0.0000E+00 0.9000E+01
        2 -1    0    0  502    0 -.00000000E+00 -.00000000E+00 -.37294536E+04 0.37294536E+04 0.32000000E+00 0.0000E+00 0.9000E+01
       25  1    1    2    0    0 -.12419183E+01 0.66718171E+00 -.19887224E+04 0.19926475E+04 0.12500000E+03 0.0000E+00 0.9000E+01
       23  1    1    2    0    0 0.42035961E+02 0.95244782E+02 -.16580978E+04 0.16638637E+04 0.91188000E+02 0.0000E+00 0.9000E+01
        2  1    1    2  503    0 0.21197977E+02 -.17202251E+02 0.85196258E+01 0.28599966E+02 0.32000000E+00 0.0000E+00 0.9000E+01
       21  1    1    2  501  503 -.61992019E+02 -.78709713E+02 -.30706552E+02 0.10479353E+03 0.75000000E+00 0.0000E+00 0.9000E+01
#aMCatNLO 2  0  0  5  5 0.37565045D+02 0.00000000D+00  -5  6  0 0.00000000D+00 0.00000000D+00 0.00000000D+00 0.00000000D+00 0.00000000D+00
  <mgrwgt>
 0.1044795310D-01    1    2    0
 0.474806068941184D+03 0.000000000000000D+00 0.000000000000000D+00 0.474806068941184D+03
 0.474806068941184D+03 -.000000000000000D+00 -.000000000000000D+00 -.474806068941184D+03
 0.270638230167381D+03 -.104954393709158D+01 0.111947828994120D+01 -.240036865614461D+03
 0.235713473872651D+03 0.422034919535674D+02 0.956386687272565D+02 -.190572035545922D+03
 0.443260433842337D+03 -.411539480164759D+02 -.967581470171978D+02 0.430608901160383D+03
 0.000000000000000D+00 -.000000000000000D+00 0.000000000000000D+00 0.000000000000000D+00
 0.474806068941184D+03 0.000000000000000D+00 0.000000000000000D+00 0.474806068941184D+03
 0.474806068941184D+03 -.000000000000000D+00 -.000000000000000D+00 -.474806068941184D+03
 0.268857252338866D+03 -.124155322871164D+01 0.668040112981739D+00 -.238027801744234D+03
 0.234110911916466D+03 0.420362789732434D+02 0.952455298204645D+02 -.188822424604871D+03
 0.146703818843693D+03 0.211794196920180D+02 -.171458423740819D+02 0.144150833275828D+03
 0.299940154783343D+03 -.619741454365498D+02 -.787677275593644D+02 0.282699393073277D+03
0.572726142940D-04 0.000000000000D+00 0.000000000000D+00 0.261917219616D-05 0.720189037851D-08  6 21 2 25 23 2 21 4 0.92998017D-02 0.57376245D+00 0.38197026D+05 0.38197026D+05 0.38197026D+05 0.12040397D+01  1  2  1  3  6  5        2 0.104479530999D-01 0.100000000000D+01
  </mgrwgt>
  </event>
  <event>
  5     66 0.41063134E-03 0.16133220E+03 0.75467711E-02 0.92554690E-01
       21 -1    0    0  501  502 0.00000000E+00 0.00000000E+00 0.12113589E+04 0.12113591E+04 0.75000000E+00 0.0000E+00 0.9000E+01
        2 -1    0    0  502    0 0.00000000E+00 0.00000000E+00 -.36766778E+03 0.36766792E+03 0.32000000E+00 0.0000E+00 0.9000E+01
       25  1    1    2    0    0 0.20757582E+03 -.37032585E+02 -.60212318E+02 0.25240772E+03 0.12500000E+03 0.0000E+00 0.9000E+01
       23  1    1    2    0    0 -.28646765E+03 -.10369464E+03 -.81343857E+02 0.32825047E+03 0.91188000E+02 0.0000E+00 0.9000E+01
        2  1    1    2  501    0 0.78891839E+02 0.14072723E+03 0.98524730E+03 0.99836888E+03 0.32000000E+00 0.0000E+00 0.9000E+01
#aMCatNLO 1  0  0  1  2 0.40863377D+01 0.00000000D+00  -5  6  0 0.00000000D+00 0.00000000D+00 0.00000000D+00 0.00000000D+00 0.00000000D+00
  <mgrwgt>
 0.6830870048D-01    3    2    0
 0.667366419992942D+03 0.000000000000000D+00 0.000000000000000D+00 0.667366419992942D+03
 0.667366419992942D+03 0.000000000000000D+00 0.000000000000000D+00 -.667366419992942D+03
 0.336666048350974D+03 0.207575812046449D+03 -.370325909534682D+02 -.230781059822488D+03
 0.439747550300649D+03 -.286467658500983D+03 -.103694648514231D+03 -.303720853999024D+03
 0.558319241334260D+03 0.788918464545339D+02 0.140727239467700D+03 0.534501913821512D+03
 0.000000000000000D+00 -.000000000000000D+00 0.000000000000000D+00 -.000000000000000D+00
 0.897397270633022D+03 0.000000000000000D+00 0.000000000000000D+00 0.897397270633022D+03
 0.354182826047014D+04 0.000000000000000D+00 0.000000000000000D+00 -.354182826047014D+04
 0.479722327051252D+03 0.283615515746842D+03 -.284272497309061D+03 -.230781059822488D+03
 0.548390657267208D+03 -.194430903958174D+03 -.402948294531782D+03 -.303720853999024D+03
 0.604516368320209D+03 0.187200193161244D+03 -.211432805800304D+03 0.534501913821512D+03
 0.280659617846450D+04 -.276384804949912D+03 0.898653597641148D+03 -.264443098983712D+04
0.255330863118D-02 0.000000000000D+00 0.000000000000D+00 0.184790940261D-06 0.000000000000D+00  6 21 2 25 23 2 21 2 0.18636294D+00 0.56564303D-01 0.13121228D+06 0.13121228D+06 0.13121228D+06 0.11528874D+01  1  2  2  1  6  1       21 0.548994147002D-01 0.100000000000D+01
0.188951719605D-03 0.134741798289D-03 -.515439448552D-05 0.184790940261D-06 0.000000000000D+00  6 21 2 25 23 2 21 4 0.18636294D+00 0.56564303D-01 0.13121228D+06 0.13121228D+06 0.13121228D+06 0.11528874D+01  1  2  3  1  6  1       21 0.539994104113D-02 0.100000000000D+01
0.280258515682D-03 0.000000000000D+00 0.000000000000D+00 0.184790940261D-06 0.000000000000D+00  6 21 2 25 23 2 21 4 0.18636294D+00 0.56564303D-01 0.13121228D+06 0.13121228D+06 0.13121228D+06 0.11528874D+01  1  2 15  1  6  1       21 0.800934473695D-02 0.100000000000D+01
  </mgrwgt>
  </event>
  <event>
  5     66 0.41063134E-03 0.17650555E+03 0.75467711E-02 0.10901421E+00
       21 -1    0    0  501  502 0.00000000E+00 0.00000000E+00 0.45510341E+02 0.45516520E+02 0.75000000E+00 0.0000E+00 0.9000E+01
        2 -1    0    0  502    0 0.00000000E+00 0.00000000E+00 -.12253758E+04 0.12253758E+04 0.32000000E+00 0.0000E+00 0.9000E+01
       25  1    1    2    0    0 -.10376047E+01 0.42787413E+02 -.35066795E+03 0.37473304E+03 0.12500000E+03 0.0000E+00 0.9000E+01
       23  1    1    2    0    0 0.36169207E+02 0.13018633E+03 -.37680125E+03 0.41054978E+03 0.91188000E+02 0.0000E+00 0.9000E+01
        2  1    1    2  501    0 -.35131602E+02 -.17297374E+03 -.45239626E+03 0.48560954E+03 0.32000000E+00 0.0000E+00 0.9000E+01
#aMCatNLO 1  0  0  1  2 0.98897418D+02 0.00000000D+00  -5  6  0 0.00000000D+00 0.00000000D+00 0.00000000D+00 0.00000000D+00 0.00000000D+00
  <mgrwgt>
 0.4527160350D-01    3    2    0
 0.236159317825405D+03 0.000000000000000D+00 0.000000000000000D+00 0.236159317825405D+03
 0.236159317825405D+03 0.000000000000000D+00 0.000000000000000D+00 -.236159317825405D+03
 0.132335170551405D+03 -.103758856331804D+01 0.427874929689198D+02 -.746667397690764D+01
 0.163427480952760D+03 0.361692267413017D+02 0.130186429536658D+03 0.116863504995289D+02
 0.176555984146644D+03 -.351316381779837D+02 -.172973922505578D+03 -.421967652262124D+01
 0.000000000000000D+00 0.000000000000000D+00 -.000000000000000D+00 -.000000000000000D+00
 0.247986810994443D+03 0.000000000000000D+00 0.000000000000000D+00 0.247986810994443D+03
 0.605902127447286D+03 0.000000000000000D+00 0.000000000000000D+00 -.605902127447286D+03
 0.137417191606169D+03 -.282706644027862D+02 0.490255327648160D+02 -.746667397690764D+01
 0.165675872170240D+03 0.294432185840556D+01 0.137796964611583D+03 0.116863504995289D+02
 0.179468427492333D+03 -.710743810897312D+02 -.164740836313668D+03 -.421967652262124D+01
 0.371327447172989D+03 0.964007236341119D+02 -.220816610627311D+02 -.357915316452843D+03
0.853786550030D-05 0.000000000000D+00 0.000000000000D+00 0.967652845266D-07 0.000000000000D+00  6 21 2 25 23 2 21 2 0.70020694D-02 0.18851983D+00 0.55610842D+05 0.55610842D+05 0.55610842D+05 0.11877343D+01  1  2  2  1  6  1       21 0.446603991542D-01 0.100000000000D+01
-.852729265539D-06 0.450555540765D-06 -.172354905770D-07 0.967652845266D-07 0.000000000000D+00  6 21 2 25 23 2 21 4 0.70020694D-02 0.18851983D+00 0.55610842D+05 0.55610842D+05 0.55610842D+05 0.11877343D+01  1  2  3  1  6  1       21 -.629249709231D-02 0.100000000000D+01
0.935556770468D-06 0.000000000000D+00 0.000000000000D+00 0.967652845266D-07 0.000000000000D+00  6 21 2 25 23 2 21 4 0.70020694D-02 0.18851983D+00 0.55610842D+05 0.55610842D+05 0.55610842D+05 0.11877343D+01  1  2 15  1  6  1       21 0.690370143933D-02 0.100000000000D+01
  </mgrwgt>
  </event>
  <event>
  5     66 0.41063134E-03 0.22426183E+02 0.75467711E-02 0.11557650E+00
       21 -1    0    0  501  502 0.00000000E+00 0.00000000E+00 0.15547372E+03 0.15547553E+03 0.75000000E+00 0.0000E+00 0.9000E+01
        2 -1    0    0  502    0 0.00000000E+00 0.00000000E+00 -.29724400E+03 0.29724418E+03 0.32000000E+00 0.0000E+00 0.9000E+01
       25  1    1    2    0    0 0.38996628E+02 -.10900815E+03 0.24389523E+02 0.17211439E+03 0.12500000E+03 0.0000E+00 0.9000E+01
       23  1    1    2    0    0 -.61263570E+02 0.11167134E+03 -.19107653E+03 0.24708137E+03 0.91188000E+02 0.0000E+00 0.9000E+01
        2  1    1    2  501    0 0.22266941E+02 -.26631888E+01 0.24916719E+02 0.33523939E+02 0.32000000E+00 0.0000E+00 0.9000E+01
#aMCatNLO 1  0  0  2  1 0.35903064D+02 0.00000000D+00  -5  6  0 0.00000000D+00 0.00000000D+00 0.00000000D+00 0.00000000D+00 0.00000000D+00
  <mgrwgt>
 0.1188530218D-01    7    2    0
 0.214974599921951D+03 0.000000000000000D+00 0.000000000000000D+00 0.214974599921951D+03
 0.214974599921951D+03 0.000000000000000D+00 0.000000000000000D+00 -.214974599921951D+03
 0.189271594549007D+03 0.389963633412187D+02 -.109008120718501D+03 0.824333049604602D+02
 0.197162355038286D+03 -.612638456311757D+02 0.111671374229340D+03 -.119724635294718D+03
 0.435152502566091D+02 0.222674822899570D+02 -.266325351083867D+01 0.372913303342583D+02
 0.000000000000000D+00 0.000000000000000D+00 0.000000000000000D+00 -.000000000000000D+00
 0.224245894162237D+03 0.000000000000000D+00 0.000000000000000D+00 0.224245894162237D+03
 0.253532840974090D+03 0.000000000000000D+00 0.000000000000000D+00 -.253532840974090D+03
 0.188268685899186D+03 0.234894420358178D+02 -.111683008718193D+03 0.824333049604602D+02
 0.201304841567810D+03 -.776303097690396D+02 0.108848218190977D+03 -.119724635294718D+03
 0.418721173707609D+02 0.187603195874738D+02 -.326822642848491D+01 0.372913303342583D+02
 0.463330902985705D+02 0.353805481457479D+02 0.610301695570076D+01 -.292869468118534D+02
0.360176557388D-05 0.000000000000D+00 0.000000000000D+00 0.429230263390D-06 0.000000000000D+00  6 21 2 25 23 2 21 2 0.23919186D-01 0.45729999D-01 0.30529345D+05 0.30529345D+05 0.30529345D+05 0.12141020D+01  1  2  2  2  6  2        2 0.120029717047D-01 0.100000000000D+01
0.426811119681D-06 0.190070391223D-06 -.727092697900D-08 0.429230263390D-06 0.000000000000D+00  6 21 2 25 23 2 21 4 0.23919186D-01 0.45729999D-01 0.30529345D+05 0.30529345D+05 0.30529345D+05 0.12141020D+01  1  2  3  2  6  2        2 0.209661834332D-02 0.100000000000D+01
0.396178375905D-06 0.000000000000D+00 0.000000000000D+00 0.429230263390D-06 0.000000000000D+00  6 21 2 25 23 2 21 4 0.23919186D-01 0.45729999D-01 0.30529345D+05 0.30529345D+05 0.30529345D+05 0.12141020D+01  1  2 15  2  6  2        2 0.194614154095D-02 0.100000000000D+01
-.663877131788D-05 0.000000000000D+00 0.000000000000D+00 0.429230263390D-06 0.000000000000D+00  6 21 2 25 23 2 21 4 0.23919186D-01 0.45729999D-01 0.30529345D+05 0.30529345D+05 0.30529345D+05 0.12141020D+01  1  2  4  2  6  2        2 -.326115442648D-01 0.100000000000D+01
-.359960517156D-04 0.000000000000D+00 -.788404827440D-05 0.429230263390D-06 0.000000000000D+00  6 21 2 25 23 2 21 4 0.23919186D-01 0.55769491D-01 0.30529345D+05 0.30529345D+05 0.30529345D+05 0.12141020D+01  1  2  5  2  6  2        2 -.142999463655D+00 0.100000000000D+01
0.369827964778D-04 0.000000000000D+00 0.773127522823D-05 0.429230263390D-06 0.000000000000D+00  6 21 2 25 23 2 21 4 0.23919186D-01 0.45729999D-01 0.30529345D+05 0.30529345D+05 0.30529345D+05 0.12141020D+01  1  2  6  2  6  2        2 0.181670078185D+00 0.100000000000D+01
-.934441328832D-06 0.000000000000D+00 -.224292594882D-06 0.429230263390D-06 0.000000000000D+00  6 21 21 25 23 2 -2 4 0.23919186D-01 0.55769491D-01 0.30529345D+05 0.30529345D+05 0.30529345D+05 0.12141020D+01  1  2  5 10  6  2        2 -.102194996701D-01 0.100000000000D+01
  </mgrwgt>
  </event>
  <event>
  5     66 0.41063134E-03 0.17868077E+03 0.75467711E-02 0.10591416E+00
       21 -1    0    0  501  502 0.00000000E+00 0.00000000E+00 0.34463598E+03 0.34463679E+03 0.75000000E+00 0.0000E+00 0.9000E+01
        2 -1    0    0  502    0 -.00000000E+00 -.00000000E+00 -.47216006E+03 0.47216017E+03 0.32000000E+00 0.0000E+00 0.9000E+01
       25  1    1    2    0    0 0.24145720E+03 0.43777791E+02 0.13080793E+03 0.30488324E+03 0.12500000E+03 0.0000E+00 0.9000E+01
       23  1    1    2    0    0 -.10409470E+03 -.19395917E+03 -.14612019E+03 0.27950354E+03 0.91188000E+02 0.0000E+00 0.9000E+01
        2  1    1    2  501    0 -.13736249E+03 0.15018138E+03 -.11221182E+03 0.23241019E+03 0.32000000E+00 0.0000E+00 0.9000E+01
#aMCatNLO 1  0  0  5  1 0.80088856D+01 0.00000000D+00  -5  6  0 0.00000000D+00 0.00000000D+00 0.00000000D+00 0.00000000D+00 0.00000000D+00
  <mgrwgt>
 0.2067617406D-02    1    2    0
 0.403390284829789D+03 0.000000000000000D+00 0.000000000000000D+00 0.403390284829789D+03
 0.403390284829789D+03 -.000000000000000D+00 -.000000000000000D+00 -.403390284829789D+03
 0.329344701800502D+03 0.241457259504374D+03 0.437777248443256D+02 0.180623462607030D+03
 0.259877112965305D+03 -.104094656294172D+03 -.193959220964885D+03 -.103754448737752D+03
 0.217558754893772D+03 -.137362603210202D+03 0.150181496120560D+03 -.768690138692786D+02
 0.000000000000000D+00 -.000000000000000D+00 0.000000000000000D+00 0.000000000000000D+00
 0.403390284829789D+03 0.000000000000000D+00 0.000000000000000D+00 0.403390284829789D+03
 0.403390284829789D+03 -.000000000000000D+00 -.000000000000000D+00 -.403390284829789D+03
 0.328496825944699D+03 0.240506994880267D+03 0.448166696489784D+02 0.180091688289546D+03
 0.259735659766190D+03 -.104845246847269D+03 -.193138584127757D+03 -.104174484135217D+03
 0.198292060282614D+03 -.116597846603881D+03 0.144018985883853D+03 -.705918907768309D+02
 0.202560236660764D+02 -.190639014291162D+02 0.430292859492510D+01 -.532531337749860D+01
0.438514948614D-05 0.000000000000D+00 0.000000000000D+00 0.987547499643D-08 0.000000000000D+00  6 21 2 25 23 2 21 4 0.53020991D-01 0.72640081D-01 0.12859020D+06 0.12859020D+06 0.12859020D+06 0.11536709D+01  1  2 14  3  6  5        2 0.206761740595D-02 0.100000000000D+01
  </mgrwgt>
  </event>
  <event>
  5     66 0.41063134E-03 0.16845691E+03 0.75467711E-02 0.96347589E-01
       21 -1    0    0  501  502 0.00000000E+00 0.00000000E+00 0.69754588E+02 0.69758620E+02 0.75000000E+00 0.0000E+00 0.9000E+01
        2 -1    0    0  502    0 0.00000000E+00 0.00000000E+00 -.11492203E+04 0.11492203E+04 0.32000000E+00 0.0000E+00 0.9000E+01
       25  1    1    2    0    0 -.26944788E+02 -.11124617E+03 -.44674537E+03 0.47781603E+03 0.12500000E+03 0.0000E+00 0.9000E+01
       23  1    1    2    0    0 -.52094823E+02 -.37516800E+02 -.30200061E+02 0.11553647E+03 0.91188000E+02 0.0000E+00 0.9000E+01
        2  1    1    2  501    0 0.79039611E+02 0.14876297E+03 -.60252028E+03 0.62562646E+03 0.32000000E+00 0.0000E+00 0.9000E+01
#aMCatNLO 1  0  0  1  1 0.66549520D+01 0.00000000D+00  -5  6  0 0.00000000D+00 0.00000000D+00 0.00000000D+00 0.00000000D+00 0.00000000D+00
  <mgrwgt>
 0.1894372075D-01   12    2    0
 0.283135785371215D+03 0.000000000000000D+00 0.000000000000000D+00 0.283135785371215D+03
 0.283135785371215D+03 0.000000000000000D+00 0.000000000000000D+00 -.283135785371215D+03
 0.176949369531670D+03 -.269448198873193D+02 -.111246233061418D+03 -.508363225316340D+02
 0.191139085059285D+03 -.520948577987434D+02 -.375168652496509D+02 0.155233724126135D+03
 0.198183116151474D+03 0.790396776860627D+02 0.148763098311069D+03 -.104397401594501D+03
 0.000000000000000D+00 0.000000000000000D+00 -.000000000000000D+00 0.000000000000000D+00
 0.112505864548637D+04 0.000000000000000D+00 0.000000000000000D+00 0.112505864548637D+04
 0.613058464749369D+03 0.000000000000000D+00 0.000000000000000D+00 -.613058464749369D+03
 0.170888066409953D+03 -.987264197806456D+02 0.353057161106812D+02 -.508363225316340D+02
 0.286057723335227D+03 -.150571751977252D+03 0.163537176617933D+03 0.155233724126135D+03
 0.428946874654439D+03 -.503782326066364D+02 0.412987454404561D+03 -.104397401594501D+03
 0.852224445836118D+03 0.299676404364534D+03 -.611830347133176D+03 0.512000180737000D+03
0.373984982017D-05 0.000000000000D+00 0.000000000000D+00 0.361880378778D-07 0.000000000000D+00  6 21 2 25 23 2 21 2 0.10731789D-01 0.17680344D+00 0.50504981D+05 0.50504981D+05 0.50504981D+05 0.11918498D+01  1  2  2  1  6  1       21 0.102987907849D-01 0.100000000000D+01
-.453689449726D-06 0.197357297096D-06 -.754967928843D-08 0.361880378778D-07 0.000000000000D+00  6 21 2 25 23 2 21 4 0.10731789D-01 0.17680344D+00 0.50504981D+05 0.50504981D+05 0.50504981D+05 0.11918498D+01  1  2  3  1  6  1       21 -.177473616693D-02 0.100000000000D+01
0.369347829215D-06 0.000000000000D+00 0.000000000000D+00 0.361880378778D-07 0.000000000000D+00  6 21 2 25 23 2 21 4 0.10731789D-01 0.17680344D+00 0.50504981D+05 0.50504981D+05 0.50504981D+05 0.11918498D+01  1  2 15  1  6  1       21 0.144480977259D-02 0.100000000000D+01
0.110093590419D-03 0.000000000000D+00 -.840356504657D-04 0.361880378778D-07 0.000000000000D+00  6 21 2 25 23 2 21 4 0.95225003D-01 0.17680344D+00 0.50504981D+05 0.50504981D+05 0.50504981D+05 0.11918498D+01  1  2  5  1  6  1       21 0.544911830806D-02 0.100000000000D+01
0.480047747003D-04 0.000000000000D+00 -.365622711092D-04 0.361880378778D-07 0.000000000000D+00  6 -1 2 25 23 2 -1 4 0.95225003D-01 0.17680344D+00 0.50504981D+05 0.50504981D+05 0.50504981D+05 0.11918498D+01  1  2  5  4  6  1       21 0.274347580695D-03 0.100000000000D+01
0.480047747003D-04 0.000000000000D+00 -.365622711092D-04 0.361880378778D-07 0.000000000000D+00  6 -3 2 25 23 2 -3 4 0.95225003D-01 0.17680344D+00 0.50504981D+05 0.50504981D+05 0.50504981D+05 0.11918498D+01  1  2  5  4  6  1       21 0.131117623305D-03 0.100000000000D+01
0.480047747003D-04 0.000000000000D+00 -.365622711092D-04 0.361880378778D-07 0.000000000000D+00  6 1 2 25 23 2 1 4 0.95225003D-01 0.17680344D+00 0.50504981D+05 0.50504981D+05 0.50504981D+05 0.11918498D+01  1  2  5  5  6  1       21 0.974517346065D-03 0.100000000000D+01
0.480047747003D-04 0.000000000000D+00 -.365622711092D-04 0.361880378778D-07 0.000000000000D+00  6 3 2 25 23 2 3 4 0.95225003D-01 0.17680344D+00 0.50504981D+05 0.50504981D+05 0.50504981D+05 0.11918498D+01  1  2  5  5  6  1       21 0.131353492221D-03 0.100000000000D+01
0.480047747003D-04 0.000000000000D+00 -.365622711092D-04 0.361880378778D-07 0.000000000000D+00  6 -2 2 25 23 2 -2 4 0.95225003D-01 0.17680344D+00 0.50504981D+05 0.50504981D+05 0.50504981D+05 0.11918498D+01  1  2  5  6  6  1       21 0.205641751254D-03 0.100000000000D+01
0.480047747003D-04 0.000000000000D+00 -.365622711092D-04 0.361880378778D-07 0.000000000000D+00  6 2 2 25 23 2 2 4 0.95225003D-01 0.17680344D+00 0.50504981D+05 0.50504981D+05 0.50504981D+05 0.11918498D+01  1  2  5  7  6  1       21 0.159694519708D-02 0.100000000000D+01
0.480047747003D-04 0.000000000000D+00 -.365622711092D-04 0.361880378778D-07 0.000000000000D+00  6 -4 2 25 23 2 -4 4 0.95225003D-01 0.17680344D+00 0.50504981D+05 0.50504981D+05 0.50504981D+05 0.11918498D+01  1  2  5  8  6  1       21 0.105907528563D-03 0.100000000000D+01
0.480047747003D-04 0.000000000000D+00 -.365622711092D-04 0.361880378778D-07 0.000000000000D+00  6 4 2 25 23 2 4 4 0.95225003D-01 0.17680344D+00 0.50504981D+05 0.50504981D+05 0.50504981D+05 0.11918498D+01  1  2  5  9  6  1       21 0.105907528563D-03 0.100000000000D+01
  </mgrwgt>
  </event>
  <event>
  6     66 0.41063134E-03 0.24686077E+03 0.75467711E-02 0.10827958E+00
       21 -1    0    0  501  502 0.00000000E+00 0.00000000E+00 0.60853850E+02 0.60858471E+02 0.75000000E+00 0.0000E+00 0.9000E+01
        2 -1    0    0  502    0 -.00000000E+00 -.00000000E+00 -.27317703E+04 0.27317703E+04 0.32000000E+00 0.0000E+00 0.9000E+01
       25  1    1    2    0    0 0.16270129E+03 -.12955490E+03 -.19108367E+04 0.19261823E+04 0.12500000E+03 0.0000E+00 0.9000E+01
       23  1    1    2    0    0 0.60664106E+02 0.82270592E+01 -.44786409E+03 0.46113481E+03 0.91188000E+02 0.0000E+00 0.9000E+01
        2  1    1    2  503    0 -.66853265E+01 -.33888039E+01 -.16147056E+02 0.17804702E+02 0.32000000E+00 0.0000E+00 0.9000E+01
       21  1    1    2  501  503 -.21668007E+03 0.12471665E+03 -.29606852E+03 0.38750694E+03 0.75000000E+00 0.0000E+00 0.9000E+01
#aMCatNLO 2  0  0  5  1 0.57494013D+01 0.00000000D+00  -5  6  0 0.00000000D+00 0.00000000D+00 0.00000000D+00 0.00000000D+00 0.00000000D+00
  <mgrwgt>
 0.2662694758D-03    2    2    0
 0.407731793145707D+03 0.000000000000000D+00 0.000000000000000D+00 0.407731793145707D+03
 0.407731793145707D+03 -.000000000000000D+00 -.000000000000000D+00 -.407731793145707D+03
 0.338905430155614D+03 0.163470874255017D+03 -.129972926050846D+03 -.235830876589652D+03
 0.112483004141756D+03 0.609197490160153D+02 0.808819898942275D+01 -.236757279441937D+02
 0.364075151994043D+03 -.224390623271032D+03 0.121884727061423D+03 0.259506604533846D+03
 0.000000000000000D+00 0.000000000000000D+00 0.000000000000000D+00 0.000000000000000D+00
 0.407731793145707D+03 0.000000000000000D+00 0.000000000000000D+00 0.407731793145707D+03
 0.407731793145707D+03 -.000000000000000D+00 -.000000000000000D+00 -.407731793145707D+03
 0.337868557511069D+03 0.162777321423307D+03 -.129596201318041D+03 -.235028786298185D+03
 0.112311650602515D+03 0.606893811647202D+02 0.821333043328399D+01 -.234093087061174D+02
 0.754146187754335D+01 -.625169010693427D+01 -.307595774876205D+01 0.288591441056924D+01
 0.357741916300286D+03 -.217215012481093D+03 0.124458828633519D+03 0.255552180593733D+03
-.212735157357D-05 0.000000000000D+00 0.000000000000D+00 0.155368815764D-06 0.000000000000D+00  6 21 2 25 23 2 21 4 0.93624876D-02 0.42027270D+00 0.92989729D+05 0.92989729D+05 0.92989729D+05 0.11664825D+01  1  2 13  3  6  5        2 -.132690099928D-02 0.100000000000D+01
0.255424761827D-05 0.000000000000D+00 0.000000000000D+00 0.155409973343D-06 0.478063497840D-09  6 21 2 25 23 2 21 4 0.93624876D-02 0.42027270D+00 0.92989729D+05 0.92989729D+05 0.92989729D+05 0.11664825D+01  1  2  1  3  6  5        2 0.159317047507D-02 0.100000000000D+01
  </mgrwgt>
  </event>
  <event>
  5     66 0.41063134E-03 0.42681198E+02 0.75467711E-02 0.11425236E+00
       21 -1    0    0  501  502 0.00000000E+00 0.00000000E+00 0.11478696E+03 0.11478941E+03 0.75000000E+00 0.0000E+00 0.9000E+01
        2 -1    0    0  502    0 0.00000000E+00 0.00000000E+00 -.36495026E+03 0.36495040E+03 0.32000000E+00 0.0000E+00 0.9000E+01
       25  1    1    2    0    0 0.45350694E+02 -.55227207E+02 -.28873072E+03 0.32264091E+03 0.12500000E+03 0.0000E+00 0.9000E+01
       23  1    1    2    0    0 -.58552128E+02 0.14639611E+02 0.31814144E+02 0.11388618E+03 0.91188000E+02 0.0000E+00 0.9000E+01
        2  1    1    2  501    0 0.13201433E+02 0.40587596E+02 0.67532732E+01 0.43212728E+02 0.32000000E+00 0.0000E+00 0.9000E+01
#aMCatNLO 1  0  0  1  1 0.10454949D+03 0.00000000D+00  -5  6  0 0.00000000D+00 0.00000000D+00 0.00000000D+00 0.00000000D+00 0.00000000D+00
  <mgrwgt>
 0.3002680002D-01   13    2    0
 0.204675727233535D+03 0.000000000000000D+00 0.000000000000000D+00 0.204675727233535D+03
 0.204675727233535D+03 0.000000000000000D+00 0.000000000000000D+00 -.204675727233535D+03
 0.201670157719824D+03 0.453505832961804D+02 -.552275483361883D+02 -.141205860410285D+03
 0.152911157215753D+03 -.585522118048502D+02 0.146393522751249D+02 0.106882638977458D+03
 0.547701395314926D+02 0.132016285086698D+02 0.405881960610634D+02 0.343232214328276D+02
 0.000000000000000D+00 -.000000000000000D+00 0.000000000000000D+00 0.000000000000000D+00
 0.368798605950743D+03 0.000000000000000D+00 0.000000000000000D+00 0.368798605950743D+03
 0.228590172739348D+03 0.000000000000000D+00 0.000000000000000D+00 -.228590172739348D+03
 0.226097371152168D+03 0.714364905729085D+02 -.102238711075301D+03 -.141205860410285D+03
 0.147294455944410D+03 -.402452220024690D+02 -.183529016546748D+02 0.106882638977458D+03
 0.490998395048614D+02 0.195357760516659D+02 0.291730040265891D+02 0.343232214328276D+02
 0.174897112088652D+03 -.507270446221054D+02 0.914186087033871D+02 0.140208433211396D+03
0.266775343359D-05 0.000000000000D+00 0.000000000000D+00 0.126306666100D-06 0.000000000000D+00  6 21 2 25 23 2 21 2 0.17659732D-01 0.56146394D-01 0.21906776D+05 0.21906776D+05 0.21906776D+05 0.12294957D+01  1  2  2  1  6  1       21 0.129177715077D-01 0.100000000000D+01
-.980591744453D-08 0.140781216436D-06 -.538542556857D-08 0.126306666100D-06 0.000000000000D+00  6 21 2 25 23 2 21 4 0.17659732D-01 0.56146394D-01 0.21906776D+05 0.21906776D+05 0.21906776D+05 0.12294957D+01  1  2  3  1  6  1       21 -.717768153836D-04 0.100000000000D+01
0.303344278662D-06 0.000000000000D+00 0.000000000000D+00 0.126306666100D-06 0.000000000000D+00  6 21 2 25 23 2 21 4 0.17659732D-01 0.56146394D-01 0.21906776D+05 0.21906776D+05 0.21906776D+05 0.12294957D+01  1  2 15  1  6  1       21 0.222040277316D-02 0.100000000000D+01
-.111422315515D-04 0.000000000000D+00 -.369097077618D-05 0.126306666100D-06 0.000000000000D+00  6 21 2 25 23 2 21 4 0.34973752D-01 0.56146394D-01 0.21906776D+05 0.21906776D+05 0.21906776D+05 0.12294957D+01  1  2  5  1  6  1       21 -.222930576034D-01 0.100000000000D+01
0.565427349869D-05 0.000000000000D+00 0.167291374110D-05 0.126306666100D-06 0.000000000000D+00  6 21 2 25 23 2 21 4 0.17659732D-01 0.56146394D-01 0.21906776D+05 0.21906776D+05 0.21906776D+05 0.12294957D+01  1  2  6  1  6  1       21 0.413878402852D-01 0.100000000000D+01
-.276800964312D-05 0.000000000000D+00 -.898733472071D-06 0.126306666100D-06 0.000000000000D+00  6 -1 2 25 23 2 -1 4 0.34973752D-01 0.56146394D-01 0.21906776D+05 0.21906776D+05 0.21906776D+05 0.12294957D+01  1  2  5  4  6  1       21 -.498945641143D-03 0.100000000000D+01
-.276800964312D-05 0.000000000000D+00 -.898733472071D-06 0.126306666100D-06 0.000000000000D+00  6 -3 2 25 23 2 -3 4 0.34973752D-01 0.56146394D-01 0.21906776D+05 0.21906776D+05 0.21906776D+05 0.12294957D+01  1  2  5  4  6  1       21 -.272090582121D-03 0.100000000000D+01
-.276800964312D-05 0.000000000000D+00 -.898733472071D-06 0.126306666100D-06 0.000000000000D+00  6 1 2 25 23 2 1 4 0.34973752D-01 0.56146394D-01 0.21906776D+05 0.21906776D+05 0.21906776D+05 0.12294957D+01  1  2  5  5  6  1       21 -.940493032781D-03 0.100000000000D+01
-.276800964312D-05 0.000000000000D+00 -.898733472071D-06 0.126306666100D-06 0.000000000000D+00  6 3 2 25 23 2 3 4 0.34973752D-01 0.56146394D-01 0.21906776D+05 0.21906776D+05 0.21906776D+05 0.12294957D+01  1  2  5  5  6  1       21 -.272118200385D-03 0.100000000000D+01
-.276800964312D-05 0.000000000000D+00 -.898733472071D-06 0.126306666100D-06 0.000000000000D+00  6 -2 2 25 23 2 -2 4 0.34973752D-01 0.56146394D-01 0.21906776D+05 0.21906776D+05 0.21906776D+05 0.12294957D+01  1  2  5  6  6  1       21 -.429623449817D-03 0.100000000000D+01
-.276800964312D-05 0.000000000000D+00 -.898733472071D-06 0.126306666100D-06 0.000000000000D+00  6 2 2 25 23 2 2 4 0.34973752D-01 0.56146394D-01 0.21906776D+05 0.21906776D+05 0.21906776D+05 0.12294957D+01  1  2  5  7  6  1       21 -.126697485234D-02 0.100000000000D+01
-.276800964312D-05 0.000000000000D+00 -.898733472071D-06 0.126306666100D-06 0.000000000000D+00  6 -4 2 25 23 2 -4 4 0.34973752D-01 0.56146394D-01 0.21906776D+05 0.21906776D+05 0.21906776D+05 0.12294957D+01  1  2  5  8  6  1       21 -.227067185548D-03 0.100000000000D+01
-.276800964312D-05 0.000000000000D+00 -.898733472071D-06 0.126306666100D-06 0.000000000000D+00  6 4 2 25 23 2 4 4 0.34973752D-01 0.56146394D-01 0.21906776D+05 0.21906776D+05 0.21906776D+05 0.12294957D+01  1  2  5  9  6  1       21 -.227067185548D-03 0.100000000000D+01
  </mgrwgt>
  </event>
  <event>
  5     66 0.41063134E-03 0.56791235E+02 0.75467711E-02 0.11673656E+00
       21 -1    0    0  501  502 0.00000000E+00 0.00000000E+00 0.19044134E+02 0.19058897E+02 0.75000000E+00 0.0000E+00 0.9000E+01
        2 -1    0    0  502    0 0.00000000E+00 0.00000000E+00 -.20078517E+04 0.20078518E+04 0.32000000E+00 0.0000E+00 0.9000E+01
       25  1    1    2    0    0 -.21103709E+02 0.51146091E+02 -.90814421E+03 0.91837475E+03 0.12500000E+03 0.0000E+00 0.9000E+01
       23  1    1    2    0    0 0.77558362E+02 -.44975013E+02 -.30404005E+03 0.32983883E+03 0.91188000E+02 0.0000E+00 0.9000E+01
        2  1    1    2  501    0 -.56454652E+02 -.61710778E+01 -.77662335E+03 0.77869708E+03 0.32000000E+00 0.0000E+00 0.9000E+01
#aMCatNLO 1  0  0  2  1 0.37850222D+02 0.00000000D+00  -5  6  0 0.00000000D+00 0.00000000D+00 0.00000000D+00 0.00000000D+00 0.00000000D+00
  <mgrwgt>
 0.5783804618D-01    9    2    0
 0.195583193715919D+03 0.000000000000000D+00 0.000000000000000D+00 0.195583193715919D+03
 0.195583193715919D+03 0.000000000000000D+00 0.000000000000000D+00 -.195583193715919D+03
 0.141472928301295D+03 -.211035693709821D+02 0.511461060420738D+02 -.364459138818136D+02
 0.163298165034591D+03 0.775585232054319D+02 -.449749952657953D+02 0.101552767754989D+03
 0.863952940959519D+02 -.564549538344498D+02 -.617111077627857D+01 -.651068538731757D+02
 0.000000000000000D+00 -.000000000000000D+00 0.000000000000000D+00 -.000000000000000D+00
 0.204685528541812D+03 0.000000000000000D+00 0.000000000000000D+00 0.204685528541812D+03
 0.240234190590612D+03 0.000000000000000D+00 0.000000000000000D+00 -.240234190590612D+03
 0.138092751377326D+03 -.903606513409000D+01 0.451071266117866D+02 -.364459138818136D+02
 0.172719727807776D+03 0.920627976578903D+02 -.522334153458860D+02 0.101552767754989D+03
 0.821808819967693D+02 -.491783320346047D+02 -.981257370917762D+01 -.651068538731757D+02
 0.519263579505534D+02 -.338484004891957D+02 0.169388624432771D+02 -.355486620487995D+02
0.798183444897D-06 0.000000000000D+00 0.000000000000D+00 0.524001023092D-07 0.000000000000D+00  6 21 2 25 23 2 21 2 0.29310044D-02 0.30890141D+00 0.25819532D+05 0.25819532D+05 0.25819532D+05 0.12217986D+01  1  2  2  2  6  2        2 0.753048834952D-02 0.100000000000D+01
-.846330168036D-07 0.421212976045D-07 -.161130240840D-08 0.524001023092D-07 0.000000000000D+00  6 21 2 25 23 2 21 4 0.29310044D-02 0.30890141D+00 0.25819532D+05 0.25819532D+05 0.25819532D+05 0.12217986D+01  1  2  3  2  6  2        2 -.119195402848D-02 0.100000000000D+01
-.169169593808D-07 0.000000000000D+00 0.000000000000D+00 0.524001023092D-07 0.000000000000D+00  6 21 2 25 23 2 21 4 0.29310044D-02 0.30890141D+00 0.25819532D+05 0.25819532D+05 0.25819532D+05 0.12217986D+01  1  2 15  2  6  2        2 -.238254981864D-03 0.100000000000D+01
0.333952152413D-05 0.000000000000D+00 0.000000000000D+00 0.514931722724D-07 0.000000000000D+00  6 21 2 25 23 2 21 4 0.29310044D-02 0.38544131D+00 0.32563168D+05 0.32563168D+05 0.32563168D+05 0.12111791D+01  1  2 12  2  6  2        2 0.247202609758D-01 0.100000000000D+01
-.660835234795D-06 0.000000000000D+00 0.000000000000D+00 0.524001023092D-07 0.000000000000D+00  6 21 2 25 23 2 21 4 0.29310044D-02 0.30890141D+00 0.25819532D+05 0.25819532D+05 0.25819532D+05 0.12217986D+01  1  2  4  2  6  2        2 -.930706773816D-02 0.100000000000D+01
-.541066176338D-05 0.000000000000D+00 -.115539053754D-05 0.524001023092D-07 0.000000000000D+00  6 21 2 25 23 2 21 4 0.29310044D-02 0.38519053D+00 0.25819532D+05 0.25819532D+05 0.25819532D+05 0.12217986D+01  1  2  5  2  6  2        2 -.418539599178D-01 0.100000000000D+01
0.555734259964D-05 0.000000000000D+00 0.112780795185D-05 0.524001023092D-07 0.000000000000D+00  6 21 2 25 23 2 21 4 0.29310044D-02 0.30890141D+00 0.25819532D+05 0.25819532D+05 0.25819532D+05 0.12217986D+01  1  2  6  2  6  2        2 0.782684719210D-01 0.100000000000D+01
0.103228323632D-06 0.000000000000D+00 0.000000000000D+00 0.514931722724D-07 0.000000000000D+00  6 21 21 25 23 2 -2 4 0.29310044D-02 0.38544131D+00 0.32563168D+05 0.32563168D+05 0.32563168D+05 0.12111791D+01  1  2 12 10  6  2        2 0.159102826685D-03 0.100000000000D+01
-.151140128677D-06 0.000000000000D+00 -.356353139163D-07 0.524001023092D-07 0.000000000000D+00  6 21 21 25 23 2 -2 4 0.29310044D-02 0.38519053D+00 0.25819532D+05 0.25819532D+05 0.25819532D+05 0.12217986D+01  1  2  5 10  6  2        2 -.249041222017D-03 0.100000000000D+01
  </mgrwgt>
  </event>
  <event>
  5     66 -.41063134E-03 0.36004789E+02 0.75467711E-02 0.11647018E+00
       21 -1    0    0  501  502 0.00000000E+00 0.00000000E+00 0.26292142E+02 0.26302837E+02 0.75000000E+00 0.0000E+00 0.9000E+01
        2 -1    0    0  502    0 0.00000000E+00 0.00000000E+00 -.10082132E+04 0.10082132E+04 0.32000000E+00 0.0000E+00 0.9000E+01
       25  1    1    2    0    0 -.51800693E+02 0.10567082E+02 -.59583202E+03 0.61109392E+03 0.12500000E+03 0.0000E+00 0.9000E+01
       23  1    1    2    0    0 0.86660113E+02 -.19574100E+02 -.35003338E+03 0.37246710E+03 0.91188000E+02 0.0000E+00 0.9000E+01
        2  1    1    2  501    0 -.34859420E+02 0.90070172E+01 -.36055610E+02 0.50955029E+02 0.32000000E+00 0.0000E+00 0.9000E+01
#aMCatNLO 1  0  0  1  1 0.25449716D+02 0.00000000D+00  -5  6  0 0.00000000D+00 0.00000000D+00 0.00000000D+00 0.00000000D+00 0.00000000D+00
  <mgrwgt>
 -.2802288965D+00   12    2    0
 0.162830101015241D+03 0.000000000000000D+00 0.000000000000000D+00 0.162830101015241D+03
 0.162830101015241D+03 0.000000000000000D+00 0.000000000000000D+00 -.162830101015241D+03
 0.144710583136968D+03 -.518004125906610D+02 0.105670098864256D+02 -.502116363937558D+02
 0.127796110890256D+03 0.866603612413175D+02 -.195741637222083D+02 0.111098388276000D+02
 0.531535080032588D+02 -.348599486506565D+02 0.900715383578278D+01 0.391017975661558D+02
 0.000000000000000D+00 0.000000000000000D+00 -.000000000000000D+00 0.000000000000000D+00
 0.774739543660585D+03 0.000000000000000D+00 0.000000000000000D+00 0.774739543660585D+03
 0.167093588449112D+03 0.000000000000000D+00 0.000000000000000D+00 -.167093588449112D+03
 0.149679849706826D+03 -.533596326491853D+02 0.375579363445748D+02 -.502116363937558D+02
 0.125424519223617D+03 0.853191944041628D+02 0.364214578577185D+01 0.111098388276000D+02
 0.560958128065129D+02 -.354385806759613D+02 0.190235811873602D+02 0.391017975661558D+02
 0.610632950372742D+03 0.347901892098379D+01 -.602236633177069D+02 0.607645955211473D+03
0.303569024117D-06 0.000000000000D+00 0.000000000000D+00 0.424223968355D-06 0.000000000000D+00  6 21 2 25 23 2 21 2 0.40457715D-02 0.15511054D+00 0.22355807D+05 0.22355807D+05 0.22355807D+05 0.12285373D+01  1  2  2  1  6  1       21 0.580575630871D-02 0.100000000000D+01
0.123572197603D-07 0.160197775212D-07 -.612818397580D-09 0.424223968355D-06 0.000000000000D+00  6 21 2 25 23 2 21 4 0.40457715D-02 0.15511054D+00 0.22355807D+05 0.22355807D+05 0.22355807D+05 0.12285373D+01  1  2  3  1  6  1       21 0.356696444600D-03 0.100000000000D+01
0.325005446146D-07 0.000000000000D+00 0.000000000000D+00 0.424223968355D-06 0.000000000000D+00  6 21 2 25 23 2 21 4 0.40457715D-02 0.15511054D+00 0.22355807D+05 0.22355807D+05 0.22355807D+05 0.12285373D+01  1  2 15  1  6  1       21 0.938142149809D-03 0.100000000000D+01
-.125378769934D-03 0.000000000000D+00 -.196447517828D-05 0.424223968355D-06 0.000000000000D+00  6 21 2 25 23 2 21 4 0.19544487D-01 0.15511054D+00 0.22355807D+05 0.22355807D+05 0.22355807D+05 0.12285373D+01  1  2  5  1  6  1       21 -.230667061438D+00 0.100000000000D+01
-.528974221740D-04 0.000000000000D+00 -.807107214501D-06 0.424223968355D-06 0.000000000000D+00  6 -1 2 25 23 2 -1 4 0.19544487D-01 0.15511054D+00 0.22355807D+05 0.22355807D+05 0.22355807D+05 0.12285373D+01  1  2  5  4  6  1       21 -.758167798389D-02 0.100000000000D+01
-.528974221740D-04 0.000000000000D+00 -.807107214501D-06 0.424223968355D-06 0.000000000000D+00  6 -3 2 25 23 2 -3 4 0.19544487D-01 0.15511054D+00 0.22355807D+05 0.22355807D+05 0.22355807D+05 0.12285373D+01  1  2  5  4  6  1       21 -.455247559284D-02 0.100000000000D+01
-.528974221740D-04 0.000000000000D+00 -.807107214501D-06 0.424223968355D-06 0.000000000000D+00  6 1 2 25 23 2 1 4 0.19544487D-01 0.15511054D+00 0.22355807D+05 0.22355807D+05 0.22355807D+05 0.12285373D+01  1  2  5  5  6  1       21 -.113156308979D-01 0.100000000000D+01
-.528974221740D-04 0.000000000000D+00 -.807107214501D-06 0.424223968355D-06 0.000000000000D+00  6 3 2 25 23 2 3 4 0.19544487D-01 0.15511054D+00 0.22355807D+05 0.22355807D+05 0.22355807D+05 0.12285373D+01  1  2  5  5  6  1       21 -.455204289466D-02 0.100000000000D+01
-.528974221740D-04 0.000000000000D+00 -.807107214501D-06 0.424223968355D-06 0.000000000000D+00  6 -2 2 25 23 2 -2 4 0.19544487D-01 0.15511054D+00 0.22355807D+05 0.22355807D+05 0.22355807D+05 0.12285373D+01  1  2  5  6  6  1       21 -.694816482252D-02 0.100000000000D+01
-.528974221740D-04 0.000000000000D+00 -.807107214501D-06 0.424223968355D-06 0.000000000000D+00  6 2 2 25 23 2 2 4 0.19544487D-01 0.15511054D+00 0.22355807D+05 0.22355807D+05 0.22355807D+05 0.12285373D+01  1  2  5  7  6  1       21 -.139350407695D-01 0.100000000000D+01
-.528974221740D-04 0.000000000000D+00 -.807107214501D-06 0.424223968355D-06 0.000000000000D+00  6 -4 2 25 23 2 -4 4 0.19544487D-01 0.15511054D+00 0.22355807D+05 0.22355807D+05 0.22355807D+05 0.12285373D+01  1  2  5  8  6  1       21 -.388869848393D-02 0.100000000000D+01
-.528974221740D-04 0.000000000000D+00 -.807107214501D-06 0.424223968355D-06 0.000000000000D+00  6 4 2 25 23 2 4 4 0.19544487D-01 0.15511054D+00 0.22355807D+05 0.22355807D+05 0.22355807D+05 0.12285373D+01  1  2  5  9  6  1       21 -.388869848393D-02 0.100000000000D+01
  </mgrwgt>
  </event>
  <event>
  6     66 -.41063134E-03 0.68263733E+02 0.75467711E-02 0.11393442E+00
       21 -1    0    0  503  502 0.00000000E+00 0.00000000E+00 0.38906953E+03 0.38907025E+03 0.75000000E+00 0.0000E+00 0.9000E+01
        2 -1    0    0  502    0 0.00000000E+00 0.00000000E+00 -.41842466E+03 0.41842478E+03 0.32000000E+00 0.0000E+00 0.9000E+01
       25  1    1    2    0    0 0.90973334E+02 0.83493959E+02 -.29079975E+03 0.33976003E+03 0.12500000E+03 0.0000E+00 0.9000E+01
       23  1    1    2    0    0 -.46074550E+02 0.14665927E+02 -.49481469E+02 0.11446231E+03 0.91188000E+02 0.0000E+00 0.9000E+01
        2  1    1    2  501    0 -.75972453E+02 -.56069740E+02 0.27238555E+03 0.28828739E+03 0.32000000E+00 0.0000E+00 0.9000E+01
       21  1    1    2  503  501 0.31073668E+02 -.42090146E+02 0.38540531E+02 0.64985293E+02 0.75000000E+00 0.0000E+00 0.9000E+01
#aMCatNLO 2  0  0  1  2 0.52317810D+02 0.00000000D+00  -5  6  0 0.00000000D+00 0.00000000D+00 0.00000000D+00 0.00000000D+00 0.00000000D+00
  <mgrwgt>
 -.1395102357D-01    2    2    0
 0.368772875313084D+03 0.000000000000000D+00 0.000000000000000D+00 0.368772875313084D+03
 0.368772875313084D+03 0.000000000000000D+00 0.000000000000000D+00 -.368772875313084D+03
 0.314344892906417D+03 0.104203429630636D+03 0.655734622534569D+02 -.260824611564275D+03
 0.107899492303004D+03 -.414817041818735D+02 0.844480241372206D+01 -.391791095560718D+02
 0.315301365416747D+03 -.627217254487624D+02 -.740182646671790D+02 0.300003721120346D+03
 0.000000000000000D+00 0.000000000000000D+00 -.000000000000000D+00 0.000000000000000D+00
 0.426431102442944D+03 0.000000000000000D+00 0.000000000000000D+00 0.426431102442944D+03
 0.381761356721829D+03 0.000000000000000D+00 0.000000000000000D+00 -.381761356721829D+03
 0.314486680178362D+03 0.909733452259040D+02 0.834939786473318D+02 -.260824611564275D+03
 0.110400214206361D+03 -.460745453594867D+02 0.146659332168214D+02 -.391791095560718D+02
 0.314512109888260D+03 -.759724682456724D+02 -.560697659079333D+02 0.300003721120346D+03
 0.687934548917907D+02 0.310736683792550D+02 -.420901459562199D+02 0.446697457211146D+02
-.356167960648D-04 0.000000000000D+00 0.000000000000D+00 0.736754909644D-06 0.000000000000D+00  6 21 2 25 23 2 21 4 0.60669928D-01 0.62182629D-01 0.45296658D+05 0.45296658D+05 0.45296658D+05 0.11965543D+01  1  2 13  1  6  1       21 -.180332675093D-01 0.100000000000D+01
0.813223983568D-05 0.000000000000D+00 0.000000000000D+00 0.751181385200D-06 0.213393147750D-08  6 21 2 25 23 2 21 4 0.59856601D-01 0.64372752D-01 0.45296658D+05 0.45296658D+05 0.45296658D+05 0.11965543D+01  1  2  1  1  6  1       21 0.408224393994D-02 0.100000000000D+01
  </mgrwgt>
  </event>
  <event>
  5     66 0.41063134E-03 0.50552219E+02 0.75467711E-02 0.11817840E+00
       21 -1    0    0  501  502 0.00000000E+00 0.00000000E+00 0.18797024E+03 0.18797173E+03 0.75000000E+00 0.0000E+00 0.9000E+01
        2 -1    0    0  502    0 0.00000000E+00 0.00000000E+00 -.17223558E+03 0.17223588E+03 0.32000000E+00 0.0000E+00 0.9000E+01
       25  1    1    2    0    0 0.41252226E+02 0.22144954E+02 -.25121037E+02 0.13582419E+03 0.12500000E+03 0.0000E+00 0.9000E+01
       23  1    1    2    0    0 -.33545782E+02 0.27816238E+02 -.55697006E+02 0.11539701E+03 0.91188000E+02 0.0000E+00 0.9000E+01
        2  1    1    2  501    0 -.77064440E+01 -.49961192E+02 0.96552702E+02 0.10898641E+03 0.32000000E+00 0.0000E+00 0.9000E+01
#aMCatNLO 1  0  0  5  1 0.46166108D+02 0.00000000D+00  -5  6  0 0.00000000D+00 0.00000000D+00 0.00000000D+00 0.00000000D+00 0.00000000D+00
  <mgrwgt>
 0.1940879666D-01    4    2    0
 0.179931893046568D+03 0.000000000000000D+00 0.000000000000000D+00 0.179931893046568D+03
 0.179931893046568D+03 -.000000000000000D+00 -.000000000000000D+00 -.179931893046568D+03
 0.137052410856589D+03 0.412522395772262D+02 0.221450426013558D+02 -.310839691746499D+02
 0.117942645460232D+03 -.335457701781247D+02 0.278163145119544D+02 -.607959721057772D+02
 0.104868729776315D+03 -.770646939910150D+01 -.499613571133102D+02 0.918799412804271D+02
 0.000000000000000D+00 0.000000000000000D+00 0.000000000000000D+00 -.000000000000000D+00
 0.179931893046568D+03 0.000000000000000D+00 0.000000000000000D+00 0.179931893046568D+03
 0.179931893046568D+03 -.000000000000000D+00 -.000000000000000D+00 -.179931893046568D+03
 0.132509560886913D+03 0.397966500742473D+02 0.127083961680106D+02 -.137297864567246D+02
 0.109758827459887D+03 -.347753199979737D+02 0.198450926129557D+02 -.461367346004346D+02
 0.498057826926800D+02 0.435650306612373D+02 -.166234950796588D+01 0.240819577117243D+02
 0.677896150536563D+02 -.485863607375110D+02 -.308911392730005D+02 0.357845633454349D+02
0.534447375312D-05 0.000000000000D+00 0.000000000000D+00 0.727082850062D-06 0.000000000000D+00  6 21 2 25 23 2 21 2 0.28918636D-01 0.26497920D-01 0.20320363D+05 0.20320363D+05 0.20320363D+05 0.12330670D+01  1  2  2  3  6  5        2 0.230659378962D-01 0.100000000000D+01
0.197619880356D-06 0.282035628444D-06 -.107889526964D-07 0.727082850062D-06 0.000000000000D+00  6 21 2 25 23 2 21 4 0.28918636D-01 0.26497920D-01 0.20320363D+05 0.20320363D+05 0.20320363D+05 0.12330670D+01  1  2  3  3  6  5        2 0.129679144151D-02 0.100000000000D+01
0.543126598122D-06 0.000000000000D+00 0.000000000000D+00 0.727082850062D-06 0.000000000000D+00  6 21 2 25 23 2 21 4 0.28918636D-01 0.26497920D-01 0.20320363D+05 0.20320363D+05 0.20320363D+05 0.12330670D+01  1  2 15  3  6  5        2 0.356402363380D-02 0.100000000000D+01
-.129806339982D-05 0.000000000000D+00 0.000000000000D+00 0.727082850062D-06 0.000000000000D+00  6 21 2 25 23 2 21 4 0.28918636D-01 0.26497920D-01 0.20320363D+05 0.20320363D+05 0.20320363D+05 0.12330670D+01  1  2  4  3  6  5        2 -.851795631284D-02 0.100000000000D+01
  </mgrwgt>
  </event>
  <event>
  5     66 0.41063134E-03 0.60979284E+02 0.75467711E-02 0.11221611E+00
       21 -1    0    0  501  502 0.00000000E+00 0.00000000E+00 0.15676019E+03 0.15676198E+03 0.75000000E+00 0.0000E+00 0.9000E+01
        2 -1    0    0  502    0 0.00000000E+00 0.00000000E+00 -.36039157E+03 0.36039171E+03 0.32000000E+00 0.0000E+00 0.9000E+01
       25  1    1    2    0    0 0.13302791E+03 -.12734826E+03 -.10230670E+03 0.24496053E+03 0.12500000E+03 0.0000E+00 0.9000E+01
       23  1    1    2    0    0 -.14599105E+03 0.67763389E+02 -.10192853E+03 0.21121065E+03 0.91188000E+02 0.0000E+00 0.9000E+01
        2  1    1    2  501    0 0.12963137E+02 0.59584867E+02 0.60384970E+00 0.60982508E+02 0.32000000E+00 0.0000E+00 0.9000E+01
#aMCatNLO 1  0  0  1  5 0.44091231D+01 0.00000000D+00  -5  6  0 0.00000000D+00 0.00000000D+00 0.00000000D+00 0.00000000D+00 0.00000000D+00
  <mgrwgt>
 0.1492520704D-01   41    2    0
 0.237687928162467D+03 0.000000000000000D+00 0.000000000000000D+00 0.237687928162467D+03
 0.237687928162467D+03 0.000000000000000D+00 0.000000000000000D+00 -.237687928162467D+03
 0.222664780891919D+03 0.133027839499173D+03 -.127348577817802D+03 -.636696910717211D+01
 0.186110635977809D+03 -.145991105048903D+03 0.677631196503857D+02 -.204126025266809D+02
 0.666004394552048D+02 0.129632655497303D+02 0.595854581674163D+02 0.267795716338530D+02
 0.000000000000000D+00 -.000000000000000D+00 0.000000000000000D+00 0.000000000000000D+00
 0.250877356712174D+03 0.000000000000000D+00 0.000000000000000D+00 0.250877356712174D+03
 0.238066921327764D+03 0.000000000000000D+00 0.000000000000000D+00 -.238066921327764D+03
 0.224208927308257D+03 0.135002052060601D+03 -.127978712013110D+03 -.636696910717211D+01
 0.184637576238481D+03 -.144353202070381D+03 0.672403296046082D+02 -.204126025266809D+02
 0.665497997023087D+02 0.135515008159324D+02 0.593977037364284D+02 0.267795716338530D+02
 0.135479747908911D+02 -.420035080615203D+01 0.134067867207314D+01 0.128104353844094D+02
0.747135241123D-06 0.000000000000D+00 0.000000000000D+00 0.839342918214D-07 0.000000000000D+00  6 21 2 25 23 2 21 2 0.24117101D-01 0.55445006D-01 0.54882629D+05 0.54882629D+05 0.54882629D+05 0.11882950D+01  1  2  2  1  6  1       21 0.189399568975D-02 0.100000000000D+01
0.727844995824D-08 0.394274098810D-07 -.150825079262D-08 0.839342918214D-07 0.000000000000D+00  6 21 2 25 23 2 21 4 0.24117101D-01 0.55445006D-01 0.54882629D+05 0.54882629D+05 0.54882629D+05 0.11882950D+01  1  2  3  1  6  1       21 0.260535657007D-04 0.100000000000D+01
0.439803578718D-07 0.000000000000D+00 0.000000000000D+00 0.839342918214D-07 0.000000000000D+00  6 21 2 25 23 2 21 4 0.24117101D-01 0.55445006D-01 0.54882629D+05 0.54882629D+05 0.54882629D+05 0.11882950D+01  1  2 15  1  6  1       21 0.157429830517D-03 0.100000000000D+01
0.429965771156D-05 0.000000000000D+00 0.000000000000D+00 0.838216086708D-07 0.000000000000D+00  6 21 2 25 23 2 21 4 0.25474008D-01 0.55445006D-01 0.55922164D+05 0.55922164D+05 0.55922164D+05 0.11874970D+01  1  2 12  1  6  1       21 0.138162323240D-01 0.100000000000D+01
0.369160850360D-05 0.000000000000D+00 0.000000000000D+00 0.838216086708D-07 0.000000000000D+00  6 21 2 25 23 2 21 4 0.25687868D-01 0.55445006D-01 0.55922164D+05 0.55922164D+05 0.55922164D+05 0.11874970D+01  1  2 12  1  6  1       21 0.116731797792D-01 0.100000000000D+01
-.581139958164D-04 0.000000000000D+00 0.000000000000D+00 0.839342918214D-07 0.000000000000D+00  6 21 2 25 23 2 21 4 0.24117101D-01 0.55445006D-01 0.54882629D+05 0.54882629D+05 0.54882629D+05 0.11882950D+01  1  2  4  1  6  1       21 -.208021875100D+00 0.100000000000D+01
-.955821230430D-04 0.000000000000D+00 -.433291436595D-05 0.839342918214D-07 0.000000000000D+00  6 21 2 25 23 2 21 4 0.25480322D-01 0.55445006D-01 0.54882629D+05 0.54882629D+05 0.54882629D+05 0.11882950D+01  1  2  5  1  6  1       21 -.307922686586D+00 0.100000000000D+01
0.951233319342D-04 0.000000000000D+00 0.430682606941D-05 0.839342918214D-07 0.000000000000D+00  6 21 2 25 23 2 21 4 0.24117101D-01 0.55445006D-01 0.54882629D+05 0.54882629D+05 0.54882629D+05 0.11882950D+01  1  2  6  1  6  1       21 0.340498594129D+00 0.100000000000D+01
0.507529298328D-04 0.000000000000D+00 0.000000000000D+00 0.839342918214D-07 0.717555406428D-07  6 21 2 25 23 2 21 4 0.25455372D-01 0.55533413D-01 0.55922164D+05 0.55922164D+05 0.55922164D+05 0.11874970D+01  1  2 11  1  6  1       21 0.163033982267D+00 0.100000000000D+01
0.992683444695D-07 0.000000000000D+00 0.000000000000D+00 0.838216086708D-07 0.000000000000D+00  6 -1 2 25 23 2 -1 4 0.25474008D-01 0.55445006D-01 0.55922164D+05 0.55922164D+05 0.55922164D+05 0.11874970D+01  1  2 12  4  6  1       21 0.271011963450D-04 0.100000000000D+01
0.992683444695D-07 0.000000000000D+00 0.000000000000D+00 0.838216086708D-07 0.000000000000D+00  6 -3 2 25 23 2 -3 4 0.25474008D-01 0.55445006D-01 0.55922164D+05 0.55922164D+05 0.55922164D+05 0.11874970D+01  1  2 12  4  6  1       21 0.159184701123D-04 0.100000000000D+01
0.996473235809D-07 0.000000000000D+00 0.000000000000D+00 0.838216086708D-07 0.000000000000D+00  6 -1 2 25 23 2 -1 4 0.25687868D-01 0.55445006D-01 0.55922164D+05 0.55922164D+05 0.55922164D+05 0.11874970D+01  1  2 12  4  6  1       21 0.268276764516D-04 0.100000000000D+01
0.996473235809D-07 0.000000000000D+00 0.000000000000D+00 0.838216086708D-07 0.000000000000D+00  6 -3 2 25 23 2 -3 4 0.25687868D-01 0.55445006D-01 0.55922164D+05 0.55922164D+05 0.55922164D+05 0.11874970D+01  1  2 12  4  6  1       21 0.157362708852D-04 0.100000000000D+01
-.129584693154D-05 0.000000000000D+00 -.573201013896D-07 0.839342918214D-07 0.000000000000D+00  6 -1 2 25 23 2 -1 4 0.25480322D-01 0.55445006D-01 0.54882629D+05 0.54882629D+05 0.54882629D+05 0.11882950D+01  1  2  5  4  6  1       21 -.354545170391D-03 0.100000000000D+01
-.129584693154D-05 0.000000000000D+00 -.573201013896D-07 0.839342918214D-07 0.000000000000D+00  6 -3 2 25 23 2 -3 4 0.25480322D-01 0.55445006D-01 0.54882629D+05 0.54882629D+05 0.54882629D+05 0.11882950D+01  1  2  5  4  6  1       21 -.208163086288D-03 0.100000000000D+01
0.833442776200D-06 0.000000000000D+00 0.000000000000D+00 0.839342918214D-07 0.974169004408D-09  6 -1 2 25 23 2 -1 4 0.25455372D-01 0.55533413D-01 0.55922164D+05 0.55922164D+05 0.55922164D+05 0.11874970D+01  1  2 11  4  6  1       21 0.227422827049D-03 0.100000000000D+01
0.833442776200D-06 0.000000000000D+00 0.000000000000D+00 0.839342918214D-07 0.974169004408D-09  6 -3 2 25 23 2 -3 4 0.25455372D-01 0.55533413D-01 0.55922164D+05 0.55922164D+05 0.55922164D+05 0.11874970D+01  1  2 11  4  6  1       21 0.133597667880D-03 0.100000000000D+01
0.992683444695D-07 0.000000000000D+00 0.000000000000D+00 0.838216086708D-07 0.000000000000D+00  6 1 2 25 23 2 1 4 0.25474008D-01 0.55445006D-01 0.55922164D+05 0.55922164D+05 0.55922164D+05 0.11874970D+01  1  2 12  5  6  1       21 0.445010891764D-04 0.100000000000D+01
0.992683444695D-07 0.000000000000D+00 0.000000000000D+00 0.838216086708D-07 0.000000000000D+00  6 3 2 25 23 2 3 4 0.25474008D-01 0.55445006D-01 0.55922164D+05 0.55922164D+05 0.55922164D+05 0.11874970D+01  1  2 12  5  6  1       21 0.159181219604D-04 0.100000000000D+01
0.996473235809D-07 0.000000000000D+00 0.000000000000D+00 0.838216086708D-07 0.000000000000D+00  6 1 2 25 23 2 1 4 0.25687868D-01 0.55445006D-01 0.55922164D+05 0.55922164D+05 0.55922164D+05 0.11874970D+01  1  2 12  5  6  1       21 0.441979255259D-04 0.100000000000D+01
0.996473235809D-07 0.000000000000D+00 0.000000000000D+00 0.838216086708D-07 0.000000000000D+00  6 3 2 25 23 2 3 4 0.25687868D-01 0.55445006D-01 0.55922164D+05 0.55922164D+05 0.55922164D+05 0.11874970D+01  1  2 12  5  6  1       21 0.157359670675D-04 0.100000000000D+01
-.129584693154D-05 0.000000000000D+00 -.573201013896D-07 0.839342918214D-07 0.000000000000D+00  6 1 2 25 23 2 1 4 0.25480322D-01 0.55445006D-01 0.54882629D+05 0.54882629D+05 0.54882629D+05 0.11882950D+01  1  2  5  5  6  1       21 -.582230761235D-03 0.100000000000D+01
-.129584693154D-05 0.000000000000D+00 -.573201013896D-07 0.839342918214D-07 0.000000000000D+00  6 3 2 25 23 2 3 4 0.25480322D-01 0.55445006D-01 0.54882629D+05 0.54882629D+05 0.54882629D+05 0.11882950D+01  1  2  5  5  6  1       21 -.208158487421D-03 0.100000000000D+01
0.832244820321D-06 0.000000000000D+00 0.000000000000D+00 0.839342918214D-07 0.972768774519D-09  6 1 2 25 23 2 1 4 0.25455372D-01 0.55533413D-01 0.55922164D+05 0.55922164D+05 0.55922164D+05 0.11874970D+01  1  2 11  5  6  1       21 0.372791621416D-03 0.100000000000D+01
0.832244820321D-06 0.000000000000D+00 0.000000000000D+00 0.839342918214D-07 0.972768774519D-09  6 3 2 25 23 2 3 4 0.25455372D-01 0.55533413D-01 0.55922164D+05 0.55922164D+05 0.55922164D+05 0.11874970D+01  1  2 11  5  6  1       21 0.133402692830D-03 0.100000000000D+01
0.992683444695D-07 0.000000000000D+00 0.000000000000D+00 0.838216086708D-07 0.000000000000D+00  6 -2 2 25 23 2 -2 4 0.25474008D-01 0.55445006D-01 0.55922164D+05 0.55922164D+05 0.55922164D+05 0.11874970D+01  1  2 12  6  6  1       21 0.242498269849D-04 0.100000000000D+01
0.996473235809D-07 0.000000000000D+00 0.000000000000D+00 0.838216086708D-07 0.000000000000D+00  6 -2 2 25 23 2 -2 4 0.25687868D-01 0.55445006D-01 0.55922164D+05 0.55922164D+05 0.55922164D+05 0.11874970D+01  1  2 12  6  6  1       21 0.239842945665D-04 0.100000000000D+01
-.129584693154D-05 0.000000000000D+00 -.573201013896D-07 0.839342918214D-07 0.000000000000D+00  6 -2 2 25 23 2 -2 4 0.25480322D-01 0.55445006D-01 0.54882629D+05 0.54882629D+05 0.54882629D+05 0.11882950D+01  1  2  5  6  6  1       21 -.317227854913D-03 0.100000000000D+01
0.225469214403D-05 0.000000000000D+00 0.000000000000D+00 0.839342918214D-07 0.316974714462D-08  6 -2 2 25 23 2 -2 4 0.25455372D-01 0.55533413D-01 0.55922164D+05 0.55922164D+05 0.55922164D+05 0.11874970D+01  1  2 11  6  6  1       21 0.550552237106D-03 0.100000000000D+01
0.992683444695D-07 0.000000000000D+00 0.000000000000D+00 0.838216086708D-07 0.000000000000D+00  6 2 2 25 23 2 2 4 0.25474008D-01 0.55445006D-01 0.55922164D+05 0.55922164D+05 0.55922164D+05 0.11874970D+01  1  2 12  7  6  1       21 0.570647850272D-04 0.100000000000D+01
0.996473235809D-07 0.000000000000D+00 0.000000000000D+00 0.838216086708D-07 0.000000000000D+00  6 2 2 25 23 2 2 4 0.25687868D-01 0.55445006D-01 0.55922164D+05 0.55922164D+05 0.55922164D+05 0.11874970D+01  1  2 12  7  6  1       21 0.567497341979D-04 0.100000000000D+01
-.129584693154D-05 0.000000000000D+00 -.573201013896D-07 0.839342918214D-07 0.000000000000D+00  6 2 2 25 23 2 2 4 0.25480322D-01 0.55445006D-01 0.54882629D+05 0.54882629D+05 0.54882629D+05 0.11882950D+01  1  2  5  7  6  1       21 -.746612359226D-03 0.100000000000D+01
0.829463005937D-06 0.000000000000D+00 0.000000000000D+00 0.839342918214D-07 0.488434601019D-09  6 2 2 25 23 2 2 4 0.25455372D-01 0.55533413D-01 0.55922164D+05 0.55922164D+05 0.55922164D+05 0.11874970D+01  1  2 11  7  6  1       21 0.476387404134D-03 0.100000000000D+01
0.992683444695D-07 0.000000000000D+00 0.000000000000D+00 0.838216086708D-07 0.000000000000D+00  6 -4 2 25 23 2 -4 4 0.25474008D-01 0.55445006D-01 0.55922164D+05 0.55922164D+05 0.55922164D+05 0.11874970D+01  1  2 12  8  6  1       21 0.135815824362D-04 0.100000000000D+01
0.996473235809D-07 0.000000000000D+00 0.000000000000D+00 0.838216086708D-07 0.000000000000D+00  6 -4 2 25 23 2 -4 4 0.25687868D-01 0.55445006D-01 0.55922164D+05 0.55922164D+05 0.55922164D+05 0.11874970D+01  1  2 12  8  6  1       21 0.134217417344D-04 0.100000000000D+01
-.129584693154D-05 0.000000000000D+00 -.573201013896D-07 0.839342918214D-07 0.000000000000D+00  6 -4 2 25 23 2 -4 4 0.25480322D-01 0.55445006D-01 0.54882629D+05 0.54882629D+05 0.54882629D+05 0.11882950D+01  1  2  5  8  6  1       21 -.177572832558D-03 0.100000000000D+01
0.826740145567D-06 0.000000000000D+00 0.000000000000D+00 0.839342918214D-07 0.966334639293D-09  6 -4 2 25 23 2 -4 4 0.25455372D-01 0.55533413D-01 0.55922164D+05 0.55922164D+05 0.55922164D+05 0.11874970D+01  1  2 11  8  6  1       21 0.113071612648D-03 0.100000000000D+01
0.992683444695D-07 0.000000000000D+00 0.000000000000D+00 0.838216086708D-07 0.000000000000D+00  6 4 2 25 23 2 4 4 0.25474008D-01 0.55445006D-01 0.55922164D+05 0.55922164D+05 0.55922164D+05 0.11874970D+01  1  2 12  9  6  1       21 0.135815824362D-04 0.100000000000D+01
0.996473235809D-07 0.000000000000D+00 0.000000000000D+00 0.838216086708D-07 0.000000000000D+00  6 4 2 25 23 2 4 4 0.25687868D-01 0.55445006D-01 0.55922164D+05 0.55922164D+05 0.55922164D+05 0.11874970D+01  1  2 12  9  6  1       21 0.134217417344D-04 0.100000000000D+01
-.129584693154D-05 0.000000000000D+00 -.573201013896D-07 0.839342918214D-07 0.000000000000D+00  6 4 2 25 23 2 4 4 0.25480322D-01 0.55445006D-01 0.54882629D+05 0.54882629D+05 0.54882629D+05 0.11882950D+01  1  2  5  9  6  1       21 -.177572832558D-03 0.100000000000D+01
0.827433620704D-06 0.000000000000D+00 0.000000000000D+00 0.839342918214D-07 0.967145207221D-09  6 4 2 25 23 2 4 4 0.25455372D-01 0.55533413D-01 0.55922164D+05 0.55922164D+05 0.55922164D+05 0.11874970D+01  1  2 11  9  6  1       21 0.113166457869D-03 0.100000000000D+01
  </mgrwgt>
  </event>
  <event>
  5     66 0.41063134E-03 0.10797433E+03 0.75467711E-02 0.92245740E-01
       21 -1    0    0  501  502 0.00000000E+00 0.00000000E+00 0.14647760E+03 0.14647952E+03 0.75000000E+00 0.0000E+00 0.9000E+01
        2 -1    0    0  502    0 0.00000000E+00 0.00000000E+00 -.26737603E+04 0.26737604E+04 0.32000000E+00 0.0000E+00 0.9000E+01
       25  1    1    2    0    0 -.18680565E+03 0.21028063E+03 -.17388256E+04 0.17658578E+04 0.12500000E+03 0.0000E+00 0.9000E+01
       23  1    1    2    0    0 0.84137647E+02 -.17684810E+03 -.88411686E+03 0.91012761E+03 0.91188000E+02 0.0000E+00 0.9000E+01
        2  1    1    2  501    0 0.10266800E+03 -.33432527E+02 0.95659749E+02 0.14425444E+03 0.32000000E+00 0.0000E+00 0.9000E+01
#aMCatNLO 1  0  0  1  1 0.73064525D+02 0.00000000D+00  -5  6  0 0.00000000D+00 0.00000000D+00 0.00000000D+00 0.00000000D+00 0.00000000D+00
  <mgrwgt>
 0.6947430268D-01   12    2    0
 0.625818444902077D+03 0.000000000000000D+00 0.000000000000000D+00 0.625818444902077D+03
 0.625818444902077D+03 0.000000000000000D+00 0.000000000000000D+00 -.625818444902077D+03
 0.467898236319300D+03 -.186805657979204D+03 0.210280630467798D+03 -.352405252724380D+03
 0.265544195661978D+03 0.841376429010807D+02 -.176848099845558D+03 -.154415268460837D+03
 0.518194457822875D+03 0.102668015078124D+03 -.334325306222393D+02 0.506820521185217D+03
 0.000000000000000D+00 0.000000000000000D+00 -.000000000000000D+00 0.000000000000000D+00
 0.216596605007115D+04 0.000000000000000D+00 0.000000000000000D+00 0.216596605007115D+04
 0.982615665581968D+03 0.000000000000000D+00 0.000000000000000D+00 -.982615665581968D+03
 0.810007730480982D+03 -.356504544121835D+03 0.623861019227601D+03 -.352405252724380D+03
 0.183705969384207D+03 0.244796910733579D+02 -.314531625518313D+02 -.154415268460837D+03
 0.606982185123484D+03 -.467492566009458D+02 0.330718671033377D+03 0.506820521185217D+03
 0.154788583066444D+04 0.378774109649423D+03 -.923126527709146D+03 0.118335038448918D+04
0.375227267774D-03 0.000000000000D+00 0.000000000000D+00 0.367951376755D-06 0.000000000000D+00  6 21 2 25 23 2 21 2 0.22535164D-01 0.41134789D+00 0.99793885D+05 0.99793885D+05 0.99793885D+05 0.11636540D+01  1  2  2  1  6  1       21 0.365467691594D-01 0.100000000000D+01
0.516755379341D-04 0.198012869301D-04 -.757475745868D-06 0.367951376755D-06 0.000000000000D+00  6 21 2 25 23 2 21 4 0.22535164D-01 0.41134789D+00 0.99793885D+05 0.99793885D+05 0.99793885D+05 0.11636540D+01  1  2  3  1  6  1       21 0.681533679948D-02 0.100000000000D+01
0.272098781796D-04 0.000000000000D+00 0.000000000000D+00 0.367951376755D-06 0.000000000000D+00  6 21 2 25 23 2 21 4 0.22535164D-01 0.41134789D+00 0.99793885D+05 0.99793885D+05 0.99793885D+05 0.11636540D+01  1  2 15  1  6  1       21 0.358863190362D-02 0.100000000000D+01
0.541775494631D-02 0.000000000000D+00 -.444879868349D-02 0.367951376755D-06 0.000000000000D+00  6 21 2 25 23 2 21 4 0.14760871D+00 0.41134789D+00 0.99793885D+05 0.99793885D+05 0.99793885D+05 0.11636540D+01  1  2  5  1  6  1       21 0.114391310818D-01 0.100000000000D+01
0.232276966138D-02 0.000000000000D+00 -.189855416748D-02 0.367951376755D-06 0.000000000000D+00  6 -1 2 25 23 2 -1 4 0.14760871D+00 0.41134789D+00 0.99793885D+05 0.99793885D+05 0.99793885D+05 0.11636540D+01  1  2  5  4  6  1       21 0.609009690842D-03 0.100000000000D+01
0.232276966138D-02 0.000000000000D+00 -.189855416748D-02 0.367951376755D-06 0.000000000000D+00  6 -3 2 25 23 2 -3 4 0.14760871D+00 0.41134789D+00 0.99793885D+05 0.99793885D+05 0.99793885D+05 0.11636540D+01  1  2  5  4  6  1       21 0.293964306820D-03 0.100000000000D+01
0.232276966138D-02 0.000000000000D+00 -.189855416748D-02 0.367951376755D-06 0.000000000000D+00  6 1 2 25 23 2 1 4 0.14760871D+00 0.41134789D+00 0.99793885D+05 0.99793885D+05 0.99793885D+05 0.11636540D+01  1  2  5  5  6  1       21 0.315350788028D-02 0.100000000000D+01
0.232276966138D-02 0.000000000000D+00 -.189855416748D-02 0.367951376755D-06 0.000000000000D+00  6 3 2 25 23 2 3 4 0.14760871D+00 0.41134789D+00 0.99793885D+05 0.99793885D+05 0.99793885D+05 0.11636540D+01  1  2  5  5  6  1       21 0.295093797307D-03 0.100000000000D+01
0.232276966138D-02 0.000000000000D+00 -.189855416748D-02 0.367951376755D-06 0.000000000000D+00  6 -2 2 25 23 2 -2 4 0.14760871D+00 0.41134789D+00 0.99793885D+05 0.99793885D+05 0.99793885D+05 0.11636540D+01  1  2  5  6  6  1       21 0.449112035026D-03 0.100000000000D+01
0.232276966138D-02 0.000000000000D+00 -.189855416748D-02 0.367951376755D-06 0.000000000000D+00  6 2 2 25 23 2 2 4 0.14760871D+00 0.41134789D+00 0.99793885D+05 0.99793885D+05 0.99793885D+05 0.11636540D+01  1  2  5  7  6  1       21 0.581645667361D-02 0.100000000000D+01
0.232276966138D-02 0.000000000000D+00 -.189855416748D-02 0.367951376755D-06 0.000000000000D+00  6 -4 2 25 23 2 -4 4 0.14760871D+00 0.41134789D+00 0.99793885D+05 0.99793885D+05 0.99793885D+05 0.11636540D+01  1  2  5  8  6  1       21 0.233644677631D-03 0.100000000000D+01
0.232276966138D-02 0.000000000000D+00 -.189855416748D-02 0.367951376755D-06 0.000000000000D+00  6 4 2 25 23 2 4 4 0.14760871D+00 0.41134789D+00 0.99793885D+05 0.99793885D+05 0.99793885D+05 0.11636540D+01  1  2  5  9  6  1       21 0.233644677631D-03 0.100000000000D+01
  </mgrwgt>
  </event>
  <event>
  5     66 0.41063134E-03 0.32567802E+02 0.75467711E-02 0.10661043E+00
       21 -1    0    0  501  502 0.00000000E+00 0.00000000E+00 0.83118893E+03 0.83118927E+03 0.75000000E+00 0.0000E+00 0.9000E+01
        2 -1    0    0  502    0 0.00000000E+00 0.00000000E+00 -.27644592E+02 0.27646444E+02 0.32000000E+00 0.0000E+00 0.9000E+01
       25  1    1    2    0    0 -.21256814E+01 -.76068946E+02 0.45345774E+03 0.47648707E+03 0.12500000E+03 0.0000E+00 0.9000E+01
       23  1    1    2    0    0 -.28097714E+02 0.63938393E+02 0.31063796E+03 0.33119299E+03 0.91188000E+02 0.0000E+00 0.9000E+01
        2  1    1    2  501    0 0.30223395E+02 0.12130553E+02 0.39448630E+02 0.51155652E+02 0.32000000E+00 0.0000E+00 0.9000E+01
#aMCatNLO 1  0  0  1  2 0.12422627D+03 0.00000000D+00  -5  6  0 0.00000000D+00 0.00000000D+00 0.00000000D+00 0.00000000D+00 0.00000000D+00
  <mgrwgt>
 0.3666009881D-01    3    2    0
 0.151587661356345D+03 0.000000000000000D+00 0.000000000000000D+00 0.151587661356345D+03
 0.151587661356345D+03 0.000000000000000D+00 0.000000000000000D+00 -.151587661356345D+03
 0.147936701036779D+03 -.212614504154822D+01 -.760691323249441D+02 0.216618126720248D+02
 0.114880698269813D+03 -.280980739004401D+02 0.639382485577997D+02 0.217304059010558D+01
 0.403579234060984D+02 0.302242189419884D+02 0.121308837671444D+02 -.238348532621304D+02
 0.000000000000000D+00 -.000000000000000D+00 -.000000000000000D+00 -.000000000000000D+00
 0.226947815430378D+03 0.000000000000000D+00 0.000000000000000D+00 0.226947815430378D+03
 0.109672180050762D+04 0.000000000000000D+00 0.000000000000000D+00 -.109672180050762D+04
 0.197849496538076D+03 0.132116807771241D+03 -.748019936664072D+02 0.216618126720248D+02
 0.130522770513835D+03 0.671737631800046D+02 0.648375332152433D+02 0.217304059010558D+01
 0.824212309055063D+02 0.778901938543585D+02 0.125808098023125D+02 -.238348532621304D+02
 0.912876117980576D+03 -.277180764805604D+03 -.261634935114860D+01 -.869773985077238D+03
0.214039051920D-04 0.000000000000D+00 0.000000000000D+00 0.155878931211D-06 0.000000000000D+00  6 21 2 25 23 2 21 2 0.12787539D+00 0.42531826D-02 0.21575222D+05 0.21575222D+05 0.21575222D+05 0.12302176D+01  1  2  2  1  6  1       21 0.344046830031D-01 0.100000000000D+01
-.968851063942D-06 0.112951510866D-05 -.432083178442D-07 0.155878931211D-06 0.000000000000D+00  6 21 2 25 23 2 21 4 0.12787539D+00 0.42531826D-02 0.21575222D+05 0.21575222D+05 0.21575222D+05 0.12302176D+01  1  2  3  1  6  1       21 -.235692339268D-02 0.100000000000D+01
0.189597580950D-05 0.000000000000D+00 0.000000000000D+00 0.155878931211D-06 0.000000000000D+00  6 21 2 25 23 2 21 4 0.12787539D+00 0.42531826D-02 0.21575222D+05 0.21575222D+05 0.21575222D+05 0.12302176D+01  1  2 15  1  6  1       21 0.461233919605D-02 0.100000000000D+01
  </mgrwgt>
  </event>
  <event>
  5     66 -.41063134E-03 0.24672321E+02 0.75467711E-02 0.11127806E+00
       21 -1    0    0  501  502 0.00000000E+00 0.00000000E+00 0.13158249E+03 0.13158463E+03 0.75000000E+00 0.0000E+00 0.9000E+01
        2 -1    0    0  502    0 -.00000000E+00 -.00000000E+00 -.78771456E+03 0.78771462E+03 0.32000000E+00 0.0000E+00 0.9000E+01
       25  1    1    2    0    0 0.80594052E+01 -.19955809E+03 -.11022137E+03 0.26011946E+03 0.12500000E+03 0.0000E+00 0.9000E+01
       23  1    1    2    0    0 -.20250946E+01 0.22348093E+03 -.57346421E+03 0.62219312E+03 0.91188000E+02 0.0000E+00 0.9000E+01
        2  1    1    2  501    0 -.60343106E+01 -.23922838E+02 0.27553521E+02 0.36986673E+02 0.32000000E+00 0.0000E+00 0.9000E+01
#aMCatNLO 1  0  0  5  1 0.19852541D+01 0.00000000D+00  -5  6  0 0.00000000D+00 0.00000000D+00 0.00000000D+00 0.00000000D+00 0.00000000D+00
  <mgrwgt>
 -.3132337146D-01    1    2    0
 0.321947913739365D+03 0.000000000000000D+00 0.000000000000000D+00 0.321947913739365D+03
 0.321947913739365D+03 -.000000000000000D+00 -.000000000000000D+00 -.321947913739365D+03
 0.259060150618890D+03 0.805942415093504D+01 -.199558011673419D+03 0.107697759020273D+03
 0.303952223220111D+03 -.202507227593310D+01 0.223481013467382D+03 -.184726387823497D+03
 0.808834536397285D+02 -.603435187500195D+01 -.239230017939624D+02 0.770286288032238D+02
 0.000000000000000D+00 0.000000000000000D+00 0.000000000000000D+00 -.000000000000000D+00
 0.321947913739365D+03 0.000000000000000D+00 0.000000000000000D+00 0.321947913739365D+03
 0.321947913739365D+03 -.000000000000000D+00 -.000000000000000D+00 -.321947913739365D+03
 0.270118534593498D+03 0.677242900340399D+01 -.204660264220334D+03 0.124126279190169D+03
 0.288812687823243D+03 -.346671304011709D+01 0.217765673145467D+03 -.166323813099283D+03
 0.362325430929118D+02 0.244851425655797D+02 0.192027757151433D+02 0.185614756244447D+02
 0.487320619690765D+02 -.277908585288666D+02 -.323081846402761D+02 0.236360582846689D+02
-.157485698207D-04 0.000000000000D+00 0.000000000000D+00 0.365970460184D-06 0.000000000000D+00  6 21 2 25 23 2 21 4 0.20243630D-01 0.12118702D+00 0.62916336D+05 0.62916336D+05 0.62916336D+05 0.11825233D+01  1  2 14  3  6  5        2 -.313233714572D-01 0.100000000000D+01
  </mgrwgt>
  </event>
  <event>
  6     66 0.41063134E-03 0.19573388E+03 0.75467711E-02 0.10741180E+00
        3 -1    0    0  501    0 0.00000000E+00 0.00000000E+00 0.10468769E+04 0.10468770E+04 0.50000000E+00 0.0000E+00 0.9000E+01
        2 -1    0    0  502    0 0.00000000E+00 0.00000000E+00 -.10389577E+04 0.10389578E+04 0.32000000E+00 0.0000E+00 0.9000E+01
       25  1    1    2    0    0 -.70553018E+02 0.70250929E+01 -.31539799E+03 0.34659483E+03 0.12500000E+03 0.0000E+00 0.9000E+01
       23  1    1    2    0    0 -.20094897E+02 -.17236508E+03 -.54249138E+03 0.57682378E+03 0.91188000E+02 0.0000E+00 0.9000E+01
        2  1    1    2  501    0 0.16479204E+03 0.16444881E+03 -.54518223E+02 0.23910702E+03 0.32000000E+00 0.0000E+00 0.9000E+01
        3  1    1    2  502    0 -.74144127E+02 0.89118015E+00 0.92032674E+03 0.92330911E+03 0.50000000E+00 0.0000E+00 0.9000E+01
#aMCatNLO 2  0  0  1  5 0.74149483D+02 0.00000000D+00  -5  6  0 0.00000000D+00 0.00000000D+00 0.00000000D+00 0.00000000D+00 0.00000000D+00
  <mgrwgt>
 0.3198148873D-03    3    2    0
 0.358287616181007D+03 0.000000000000000D+00 0.000000000000000D+00 0.358287616181007D+03
 0.358287616181007D+03 0.000000000000000D+00 0.000000000000000D+00 -.358287616181007D+03
 0.168009171361042D+03 -.874695190340335D+02 0.722839993893511D+01 -.699922505403389D+02
 0.246918271416918D+03 -.454121764944042D+02 -.172060808358565D+03 -.144866123950899D+03
 0.301647789584053D+03 0.132881695528438D+03 0.164832408419630D+03 0.214858374491238D+03
 0.000000000000000D+00 -.000000000000000D+00 0.000000000000000D+00 0.000000000000000D+00
 0.301526279597150D+04 0.000000000000000D+00 0.000000000000000D+00 0.301526279597150D+04
 0.360718415266292D+03 0.000000000000000D+00 0.000000000000000D+00 -.360718415266292D+03
 0.159846793363788D+03 -.705530338707084D+02 0.702507114716100D+01 -.699922505403389D+02
 0.243751886829771D+03 -.200949172551738D+02 -.172365110799790D+03 -.144866123950899D+03
 0.316802742204798D+03 0.164792078046680D+03 0.164448859505075D+03 0.214858374491238D+03
 0.265557978883943D+04 -.741441269207975D+02 0.891180147554315D+00 0.265454438070521D+04
-.107467841761D-02 0.000000000000D+00 0.000000000000D+00 0.135128087212D-06 0.000000000000D+00  6 3 2 25 23 2 3 4 0.16031885D+00 0.15876253D+00 0.10455492D+06 0.10455492D+06 0.10455492D+06 0.11617988D+01  1  2 13  5  6  1       21 -.864540595220D-03 0.100000000000D+01
-.107537934182D-02 0.000000000000D+00 0.000000000000D+00 0.135128087212D-06 0.000000000000D+00  6 3 2 25 23 2 3 4 0.16115760D+00 0.15876253D+00 0.10455492D+06 0.10455492D+06 0.10455492D+06 0.11617988D+01  1  2 13  5  6  1       21 -.853441878745D-03 0.100000000000D+01
0.258889924820D-02 0.000000000000D+00 0.000000000000D+00 0.137690836001D-06 0.112927707333D-07  6 3 2 25 23 2 3 4 0.16105798D+00 0.15983965D+00 0.10455492D+06 0.10455492D+06 0.10455492D+06 0.11617988D+01  1  2  1  5  6  1       21 0.203779736122D-02 0.100000000000D+01
  </mgrwgt>
  </event>
</LesHouchesEvents>
