<event>
 5    0  0.1283376E+001  0.4210298E+03  0.7546771E-02  0.1036732E+00
         21   -1    0    0  504  501  0.00000000000E+00  0.00000000000E+00  0.14925003275E+03  0.14925003275E+03  0.00000000000E+00 0.  1.
         21   -1    0    0  503  502 -0.00000000000E+00 -0.00000000000E+00 -0.14480110395E+04  0.14480110395E+04  0.00000000000E+00 0.  1.
         25    1    1    2    0    0  0.89147636935E+02 -0.40090550985E+03 -0.38242656436E+03  0.57493269704E+03  0.12500000000E+03 0.  0.
         21    1    1    2  503  501 -0.84944583437E+02  0.37964025733E+03 -0.66780666676E+03  0.77285707049E+03  0.00000000000E+00 0.  1.
         21    1    1    2  504  502 -0.42030534975E+01  0.21265252519E+02 -0.24852777563E+03  0.24947130473E+03  0.00000000000E+00 0. -1.
<mgrwt>
<rscale>  4 0.42102982E+03</rscale>
<asrwt>0</asrwt>
<pdfrwt beam="1">  1       21 0.22961544E-01 0.42102982E+03</pdfrwt>
<pdfrwt beam="2">  1       21 0.22277093E+00 0.42102982E+03</pdfrwt>
<totfact> 0.14572287E+03</totfact>
</mgrwt>
</event>
<event>
 5    0  0.1283376E+001  0.2420887E+03  0.7546771E-02  0.1118409E+00
         21   -1    0    0  504  501  0.00000000000E+00  0.00000000000E+00  0.26137009136E+03  0.26137009136E+03  0.00000000000E+00 0.  1.
         21   -1    0    0  501  502 -0.00000000000E+00 -0.00000000000E+00 -0.53201230130E+03  0.53201230130E+03  0.00000000000E+00 0.  1.
         25    1    1    2    0    0  0.20729702327E+03 -0.31434529234E+01  0.17469415719E+03  0.29853808084E+03  0.12500000000E+03 0.  0.
         21    1    1    2  503  502 -0.25788235823E+02 -0.21240793690E+01 -0.11513973039E+03  0.11801145002E+03  0.00000000000E+00 0.  1.
         21    1    1    2  504  503 -0.18150878745E+03  0.52675322925E+01 -0.33019663674E+03  0.37683286180E+03  0.00000000000E+00 0.  1.
<mgrwt>
<rscale>  4 0.24208870E+03</rscale>
<asrwt>0</asrwt>
<pdfrwt beam="1">  1       21 0.40210784E-01 0.24208870E+03</pdfrwt>
<pdfrwt beam="2">  1       21 0.81848045E-01 0.24208870E+03</pdfrwt>
<totfact> 0.75295168E+03</totfact>
</mgrwt>
</event>
<event>
 5    0  0.1283376E+001  0.2536440E+03  0.7546771E-02  0.1111023E+00
         21   -1    0    0  503  501  0.00000000000E+00  0.00000000000E+00  0.41933152309E+03  0.41933152309E+03  0.00000000000E+00 0. -1.
         21   -1    0    0  504  502 -0.00000000000E+00 -0.00000000000E+00 -0.42099363082E+03  0.42099363082E+03  0.00000000000E+00 0. -1.
         25    1    1    2    0    0 -0.16632384855E+03 -0.15308351497E+03  0.27344826515E+03  0.37616105442E+03  0.12500000000E+03 0.  0.
         21    1    1    2  503  502  0.22501443759E+03  0.30673830892E+02 -0.22436655313E+03  0.31923773460E+03  0.00000000000E+00 0. -1.
         21    1    1    2  504  501 -0.58690589039E+02  0.12240968408E+03 -0.50743819748E+02  0.14492636489E+03  0.00000000000E+00 0. -1.
<mgrwt>
<rscale>  4 0.25364400E+03</rscale>
<asrwt>0</asrwt>
<pdfrwt beam="1">  1       21 0.64512542E-01 0.25364400E+03</pdfrwt>
<pdfrwt beam="2">  1       21 0.64768250E-01 0.25364400E+03</pdfrwt>
<totfact> 0.46616820E+03</totfact>
</mgrwt>
</event>
<event>
 5    0  0.1283376E+001  0.3156101E+03  0.7546771E-02  0.1077688E+00
         21   -1    0    0  504  501  0.00000000000E+00  0.00000000000E+00  0.11716804586E+03  0.11716804586E+03  0.00000000000E+00 0.  1.
         21   -1    0    0  503  502 -0.00000000000E+00 -0.00000000000E+00 -0.81651866313E+03  0.81651866313E+03  0.00000000000E+00 0.  1.
         25    1    1    2    0    0 -0.13299853718E+03  0.25748033649E+03 -0.41364966148E+03  0.52030354315E+03  0.12500000000E+03 0.  0.
         21    1    1    2  503  501  0.14198827980E+03 -0.23681601739E+03 -0.26701462288E+03  0.38410845672E+03  0.00000000000E+00 0.  1.
         21    1    1    2  504  502 -0.89897426212E+01 -0.20664319102E+02 -0.18686332916E+02  0.29274709122E+02  0.00000000000E+00 0. -1.
<mgrwt>
<rscale>  4 0.31561010E+03</rscale>
<asrwt>0</asrwt>
<pdfrwt beam="1">  1       21 0.18025854E-01 0.31561010E+03</pdfrwt>
<pdfrwt beam="2">  1       21 0.12561825E+00 0.31561010E+03</pdfrwt>
<totfact> 0.12319125E+04</totfact>
</mgrwt>
</event>
<event>
 5    0  0.1283376E+001  0.6137858E+03  0.7546771E-02  0.9877211E-01
         21   -1    0    0  503  501  0.00000000000E+00  0.00000000000E+00  0.79172633033E+03  0.79172633033E+03  0.00000000000E+00 0. -1.
         21   -1    0    0  504  502 -0.00000000000E+00 -0.00000000000E+00 -0.13419499765E+04  0.13419499765E+04  0.00000000000E+00 0. -1.
         25    1    1    2    0    0  0.25837712747E+03 -0.55641084364E+03  0.24789162052E+03  0.67336990017E+03  0.12500000000E+03 0.  0.
         21    1    1    2  503  502 -0.24466991633E+03  0.53207555967E+03  0.71731660340E+02  0.59001118655E+03  0.00000000000E+00 0. -1.
         21    1    1    2  504  501 -0.13707211138E+02  0.24335283971E+02 -0.86984692703E+03  0.87029522011E+03  0.00000000000E+00 0. -1.
<mgrwt>
<rscale>  4 0.61378578E+03</rscale>
<asrwt>0</asrwt>
<pdfrwt beam="1">  1       21 0.12180405E+00 0.61378578E+03</pdfrwt>
<pdfrwt beam="2">  1       21 0.20645384E+00 0.61378578E+03</pdfrwt>
<totfact> 0.44547757E+01</totfact>
</mgrwt>
</event>
<event>
 5    0  0.1283376E+001  0.2564008E+03  0.7546771E-02  0.1109325E+00
         21   -1    0    0  504  501  0.00000000000E+00  0.00000000000E+00  0.10142460557E+04  0.10142460557E+04  0.00000000000E+00 0. -1.
         21   -1    0    0  501  502 -0.00000000000E+00 -0.00000000000E+00 -0.25838664294E+03  0.25838664294E+03  0.00000000000E+00 0. -1.
         25    1    1    2    0    0  0.94408454516E+02 -0.20732697055E+03  0.92531760624E+03  0.96111138867E+03  0.12500000000E+03 0.  0.
         21    1    1    2  503  502 -0.86876188939E+01  0.33713681653E+02 -0.99885083960E+02  0.10577862284E+03  0.00000000000E+00 0. -1.
         21    1    1    2  504  503 -0.85720835622E+02  0.17361328890E+03 -0.69573109513E+02  0.20574268713E+03  0.00000000000E+00 0. -1.
<mgrwt>
<rscale>  4 0.25640081E+03</rscale>
<asrwt>0</asrwt>
<pdfrwt beam="1">  1       21 0.15603785E+00 0.25640081E+03</pdfrwt>
<pdfrwt beam="2">  1       21 0.39751792E-01 0.25640081E+03</pdfrwt>
<totfact> 0.15528566E+03</totfact>
</mgrwt>
</event>
<event>
 5    0  0.1283376E+001  0.3330824E+03  0.7546771E-02  0.1069781E+00
         21   -1    0    0  503  501  0.00000000000E+00  0.00000000000E+00  0.21980969297E+04  0.21980969297E+04  0.00000000000E+00 0. -1.
         21   -1    0    0  504  502 -0.00000000000E+00 -0.00000000000E+00 -0.74659084465E+02  0.74659084465E+02  0.00000000000E+00 0. -1.
         25    1    1    2    0    0 -0.32373580251E+03  0.26011581435E+02  0.11244347491E+04  0.11770556390E+04  0.12500000000E+03 0.  0.
         21    1    1    2  503  502  0.28512860179E+02 -0.58710770932E+01 -0.19528786730E+02  0.35054618140E+02  0.00000000000E+00 0. -1.
         21    1    1    2  504  501  0.29522294233E+03 -0.20140504342E+02  0.10185318829E+04  0.10606457571E+04  0.00000000000E+00 0. -1.
<mgrwt>
<rscale>  4 0.33308239E+03</rscale>
<asrwt>0</asrwt>
<pdfrwt beam="1">  1       21 0.33816871E+00 0.33308239E+03</pdfrwt>
<pdfrwt beam="2">  1       21 0.11486015E-01 0.33308239E+03</pdfrwt>
<totfact> 0.11233294E+03</totfact>
</mgrwt>
</event>
<event>
 5    0  0.1283376E+001  0.3868265E+03  0.7546771E-02  0.1048919E+00
         21   -1    0    0  504  501  0.00000000000E+00  0.00000000000E+00  0.28969440727E+04  0.28969440727E+04  0.00000000000E+00 0.  1.
         21   -1    0    0  501  502 -0.00000000000E+00 -0.00000000000E+00 -0.23205873983E+03  0.23205873983E+03  0.00000000000E+00 0. -1.
         25    1    1    2    0    0  0.35733475107E+03  0.47616831943E+02  0.27125477896E+04  0.27392509922E+04  0.12500000000E+03 0.  0.
         21    1    1    2  503  502 -0.11134307176E+03  0.27697541955E+02 -0.65065030068E+02  0.13190106746E+03  0.00000000000E+00 0. -1.
         21    1    1    2  504  503 -0.24599167931E+03 -0.75314373897E+02  0.17402573268E+02  0.25785075288E+03  0.00000000000E+00 0. -1.
<mgrwt>
<rscale>  4 0.38550063E+03</rscale>
<asrwt>0</asrwt>
<pdfrwt beam="1">  1       21 0.44568368E+00 0.38682654E+03</pdfrwt>
<pdfrwt beam="2">  1       21 0.35701347E-01 0.38682654E+03</pdfrwt>
<totfact> 0.25874904E+01</totfact>
</mgrwt>
</event>
<event>
 5    0  0.1283376E+001  0.3025820E+03  0.7546771E-02  0.1083957E+00
         21   -1    0    0  504  501  0.00000000000E+00  0.00000000000E+00  0.11562316338E+04  0.11562316338E+04  0.00000000000E+00 0. -1.
         21   -1    0    0  503  502 -0.00000000000E+00 -0.00000000000E+00 -0.14994020180E+03  0.14994020180E+03  0.00000000000E+00 0. -1.
         25    1    1    2    0    0 -0.13050260471E+03 -0.24617644403E+03  0.91502588570E+03  0.96464042157E+03  0.12500000000E+03 0.  0.
         21    1    1    2  503  501  0.13876083070E+03  0.22661449465E+03  0.13116589023E+03  0.29633290077E+03  0.00000000000E+00 0. -1.
         21    1    1    2  504  502 -0.82582259916E+01  0.19561949376E+02 -0.39900343895E+02  0.45198513282E+02  0.00000000000E+00 0. -1.
<mgrwt>
<rscale>  4 0.30258203E+03</rscale>
<asrwt>0</asrwt>
<pdfrwt beam="1">  1       21 0.17788178E+00 0.30258203E+03</pdfrwt>
<pdfrwt beam="2">  1       21 0.23067724E-01 0.30258203E+03</pdfrwt>
<totfact> 0.30546455E+03</totfact>
</mgrwt>
</event>
<event>
 5    0  0.1283376E+001  0.2407351E+03  0.7546771E-02  0.1119304E+00
         21   -1    0    0  504  501  0.00000000000E+00  0.00000000000E+00  0.36494991596E+03  0.36494991596E+03  0.00000000000E+00 0.  1.
         21   -1    0    0  501  502 -0.00000000000E+00 -0.00000000000E+00 -0.26807274348E+04  0.26807274348E+04  0.00000000000E+00 0.  1.
         25    1    1    2    0    0  0.71710149999E+02 -0.23725442664E+03  0.85811205237E+02  0.29055218381E+03  0.12500000000E+03 0.  0.
         21    1    1    2  503  502 -0.56472370338E+02  0.50903883980E+02 -0.25281836727E+04  0.25293265936E+04  0.00000000000E+00 0.  1.
         21    1    1    2  504  503 -0.15237779660E+02  0.18635054266E+03  0.12659494868E+03  0.22579857332E+03  0.00000000000E+00 0.  1.
<mgrwt>
<rscale>  4 0.24073513E+03</rscale>
<asrwt>0</asrwt>
<pdfrwt beam="1">  1       21 0.56146142E-01 0.24073513E+03</pdfrwt>
<pdfrwt beam="2">  1       21 0.41241960E+00 0.24073513E+03</pdfrwt>
<totfact> 0.19917344E+01</totfact>
</mgrwt>
</event>
<event>
 5    0  0.1283376E+001  0.4221138E+03  0.7546771E-02  0.1036381E+00
         21   -1    0    0  503  501  0.00000000000E+00  0.00000000000E+00  0.18424758220E+03  0.18424758220E+03  0.00000000000E+00 0.  1.
         21   -1    0    0  504  502 -0.00000000000E+00 -0.00000000000E+00 -0.16678860718E+04  0.16678860718E+04  0.00000000000E+00 0.  1.
         25    1    1    2    0    0 -0.30487748014E+03  0.31989811511E+03 -0.85409672027E+03  0.96973774265E+03  0.12500000000E+03 0.  0.
         21    1    1    2  503  502  0.31282948719E+03 -0.23517844143E+03 -0.19066087424E+03  0.43534211413E+03  0.00000000000E+00 0.  1.
         21    1    1    2  504  501 -0.79520070555E+01 -0.84719673681E+02 -0.43888089507E+03  0.44705379719E+03  0.00000000000E+00 0.  1.
<mgrwt>
<rscale>  4 0.42211381E+03</rscale>
<asrwt>0</asrwt>
<pdfrwt beam="1">  1       21 0.28345781E-01 0.42211381E+03</pdfrwt>
<pdfrwt beam="2">  1       21 0.25659787E+00 0.42211381E+03</pdfrwt>
<totfact> 0.59611216E+02</totfact>
</mgrwt>
</event>
<event>
 5    0  0.1283376E+001  0.3036877E+03  0.7546771E-02  0.1083412E+00
         21   -1    0    0  502  501  0.00000000000E+00  0.00000000000E+00  0.42651587644E+03  0.42651587644E+03  0.00000000000E+00 0. -1.
         21   -1    0    0  503  502 -0.00000000000E+00 -0.00000000000E+00 -0.34718093406E+03  0.34718093406E+03  0.00000000000E+00 0. -1.
         25    1    1    2    0    0  0.28425655679E+03  0.16112685091E+02  0.26497255576E+03  0.40853012619E+03  0.12500000000E+03 0.  0.
         21    1    1    2  503  504 -0.25617157422E+03  0.22592270118E+01 -0.10324939428E+03  0.27620538910E+03  0.00000000000E+00 0. -1.
         21    1    1    2  504  501 -0.28084982571E+02 -0.18371912103E+02 -0.82388219101E+02  0.88961295219E+02  0.00000000000E+00 0. -1.
<mgrwt>
<rscale>  4 0.30368765E+03</rscale>
<asrwt>0</asrwt>
<pdfrwt beam="1">  1       21 0.65617827E-01 0.30368765E+03</pdfrwt>
<pdfrwt beam="2">  1       21 0.53412452E-01 0.30368765E+03</pdfrwt>
<totfact> 0.66278980E+03</totfact>
</mgrwt>
</event>
<event>
 5    0  0.1283376E+001  0.2871903E+03  0.7546771E-02  0.1091825E+00
         21   -1    0    0  504  501  0.00000000000E+00  0.00000000000E+00  0.87885514101E+02  0.87885514101E+02  0.00000000000E+00 0. -1.
         21   -1    0    0  501  502 -0.00000000000E+00 -0.00000000000E+00 -0.19905280023E+04  0.19905280023E+04  0.00000000000E+00 0. -1.
         25    1    1    2    0    0  0.24954027751E+03  0.32573720843E+02 -0.21602532186E+03  0.35443382608E+03  0.12500000000E+03 0.  0.
         21    1    1    2  503  502 -0.28719185437E+03 -0.75309112677E+02 -0.14893253767E+04  0.15186311934E+04  0.00000000000E+00 0. -1.
         21    1    1    2  504  503  0.37651576865E+02  0.42735391833E+02 -0.19729178965E+03  0.20534849699E+03  0.00000000000E+00 0. -1.
<mgrwt>
<rscale>  4 0.28719035E+03</rscale>
<asrwt>0</asrwt>
<pdfrwt beam="1">  1       21 0.13520849E-01 0.28719035E+03</pdfrwt>
<pdfrwt beam="2">  1       21 0.30623507E+00 0.28719035E+03</pdfrwt>
<totfact> 0.13437427E+03</totfact>
</mgrwt>
</event>
<event>
 5    0  0.1283376E+001  0.2629220E+03  0.7546771E-02  0.1105400E+00
         21   -1    0    0  504  501  0.00000000000E+00  0.00000000000E+00  0.86741750851E+03  0.86741750851E+03  0.00000000000E+00 0. -1.
         21   -1    0    0  503  502 -0.00000000000E+00 -0.00000000000E+00 -0.22214169513E+03  0.22214169513E+03  0.00000000000E+00 0.  1.
         25    1    1    2    0    0  0.61780651857E+02  0.23216852398E+03  0.74872425727E+03  0.79619852166E+03  0.12500000000E+03 0.  0.
         21    1    1    2  503  501 -0.80494628053E+02 -0.17489686793E+03 -0.24554442858E+02  0.19409075254E+03  0.00000000000E+00 0.  1.
         21    1    1    2  504  502  0.18713976195E+02 -0.57271656054E+02 -0.78894001034E+02  0.99269929442E+02  0.00000000000E+00 0.  1.
<mgrwt>
<rscale>  4 0.26292204E+03</rscale>
<asrwt>0</asrwt>
<pdfrwt beam="1">  1       21 0.13344885E+00 0.26292204E+03</pdfrwt>
<pdfrwt beam="2">  1       21 0.34175646E-01 0.26292204E+03</pdfrwt>
<totfact> 0.31624421E+03</totfact>
</mgrwt>
</event>
<event>
 5    0  0.1283376E+001  0.4252994E+03  0.7546771E-02  0.1035355E+00
         21   -1    0    0  503  501  0.00000000000E+00  0.00000000000E+00  0.10588849163E+04  0.10588849163E+04  0.00000000000E+00 0. -1.
         21   -1    0    0  504  502 -0.00000000000E+00 -0.00000000000E+00 -0.80334739926E+03  0.80334739926E+03  0.00000000000E+00 0.  1.
         25    1    1    2    0    0  0.66868238452E+02 -0.39806823999E+03  0.90652994129E+03  0.10001755943E+04  0.12500000000E+03 0.  0.
         21    1    1    2  503  502  0.14107709553E+02 -0.28503204856E+02 -0.30558499349E+03  0.30723549339E+03  0.00000000000E+00 0.  1.
         21    1    1    2  504  501 -0.80975948004E+02  0.42657144484E+03 -0.34540743074E+03  0.55482122789E+03  0.00000000000E+00 0.  1.
<mgrwt>
<rscale>  4 0.42529940E+03</rscale>
<asrwt>0</asrwt>
<pdfrwt beam="1">  1       21 0.16290537E+00 0.42529940E+03</pdfrwt>
<pdfrwt beam="2">  1       21 0.12359191E+00 0.42529940E+03</pdfrwt>
<totfact> 0.95446709E+01</totfact>
</mgrwt>
</event>
<event>
 5    0  0.1283376E+001  0.2722981E+03  0.7546771E-02  0.1099971E+00
         21   -1    0    0  503  501  0.00000000000E+00  0.00000000000E+00  0.49429546740E+03  0.49429546740E+03  0.00000000000E+00 0.  1.
         21   -1    0    0  504  502 -0.00000000000E+00 -0.00000000000E+00 -0.31167921716E+03  0.31167921716E+03  0.00000000000E+00 0.  1.
         25    1    1    2    0    0  0.21985337419E+03 -0.80599599530E+02  0.34715323207E+03  0.43700362484E+03  0.12500000000E+03 0.  0.
         21    1    1    2  503  502 -0.26604215756E+03  0.93429300353E+02 -0.14645585600E+03  0.31773696909E+03  0.00000000000E+00 0.  1.
         21    1    1    2  504  501  0.46188783370E+02 -0.12829700823E+02 -0.18081125826E+02  0.51234090638E+02  0.00000000000E+00 0. -1.
<mgrwt>
<rscale>  4 0.27229813E+03</rscale>
<asrwt>0</asrwt>
<pdfrwt beam="1">  1       21 0.76045457E-01 0.27229813E+03</pdfrwt>
<pdfrwt beam="2">  1       21 0.47950649E-01 0.27229813E+03</pdfrwt>
<totfact> 0.60843169E+03</totfact>
</mgrwt>
</event>
<event>
 5    0  0.1283376E+001  0.3225834E+03  0.7546771E-02  0.1074466E+00
         21   -1    0    0  503  501  0.00000000000E+00  0.00000000000E+00  0.99485350341E+03  0.99485350341E+03  0.00000000000E+00 0. -1.
         21   -1    0    0  504  502 -0.00000000000E+00 -0.00000000000E+00 -0.24442216355E+03  0.24442216355E+03  0.00000000000E+00 0. -1.
         25    1    1    2    0    0 -0.14316158610E+03 -0.22337241484E+03  0.73272055347E+03  0.78923690038E+03  0.12500000000E+03 0.  0.
         21    1    1    2  503  502  0.21698365164E+03  0.21149531795E+03 -0.92542872154E+02  0.31682228107E+03  0.00000000000E+00 0. -1.
         21    1    1    2  504  501 -0.73822065547E+02  0.11877096886E+02  0.11025365854E+03  0.13321648552E+03  0.00000000000E+00 0. -1.
<mgrwt>
<rscale>  4 0.32258337E+03</rscale>
<asrwt>0</asrwt>
<pdfrwt beam="1">  1       21 0.15305438E+00 0.32258337E+03</pdfrwt>
<pdfrwt beam="2">  1       21 0.37603410E-01 0.32258337E+03</pdfrwt>
<totfact> 0.17525796E+03</totfact>
</mgrwt>
</event>
<event>
 5    0  0.1283376E+001  0.3163937E+03  0.7546771E-02  0.1077321E+00
         21   -1    0    0  502  501  0.00000000000E+00  0.00000000000E+00  0.67503781943E+03  0.67503781943E+03  0.00000000000E+00 0. -1.
         21   -1    0    0  503  502 -0.00000000000E+00 -0.00000000000E+00 -0.56263513425E+03  0.56263513425E+03  0.00000000000E+00 0. -1.
         25    1    1    2    0    0  0.15759362334E+03  0.24422169333E+03  0.59264911894E+03  0.67181691240E+03  0.12500000000E+03 0.  0.
         21    1    1    2  503  504 -0.15208036922E+03 -0.18423389251E+03 -0.38996564742E+03  0.45732239396E+03  0.00000000000E+00 0. -1.
         21    1    1    2  504  501 -0.55132541256E+01 -0.59987800824E+02 -0.90280786341E+02  0.10853364732E+03  0.00000000000E+00 0.  1.
<mgrwt>
<rscale>  4 0.31639372E+03</rscale>
<asrwt>0</asrwt>
<pdfrwt beam="1">  1       21 0.10385197E+00 0.31639372E+03</pdfrwt>
<pdfrwt beam="2">  1       21 0.86559251E-01 0.31639372E+03</pdfrwt>
<totfact> 0.77989032E+02</totfact>
</mgrwt>
</event>
