<event>
 5    0  0.1911311E+001  0.6241780E+03  0.7546771E-02  0.9856476E-01
         21   -1    0    0  502  501  0.00000000000E+00  0.00000000000E+00  0.13748415996E+04  0.13748415996E+04  0.00000000000E+00 0.  1.
         21   -1    0    0  504  502 -0.00000000000E+00 -0.00000000000E+00 -0.46971939552E+03  0.46971939552E+03  0.00000000000E+00 0.  1.
         25    1    1    2    0    0  0.60302897218E+03 -0.11444032558E+03  0.53226525109E+03  0.82199259542E+03  0.12500000000E+03 0.  0.
         21    1    1    2  503  501 -0.59409697817E+03  0.13695238691E+03  0.56361291160E+03  0.83028109088E+03  0.00000000000E+00 0.  1.
         21    1    1    2  504  503 -0.89319940083E+01 -0.22512061325E+02 -0.19075595856E+03  0.19228730886E+03  0.00000000000E+00 0. -1.
<mgrwt>
<rscale>  4 0.62417799E+03</rscale>
<asrwt>0</asrwt>
<pdfrwt beam="1">  1       21 0.21151409E+00 0.62417799E+03</pdfrwt>
<pdfrwt beam="2">  1       21 0.72264523E-01 0.62417799E+03</pdfrwt>
<totfact> 0.14495686E+02</totfact>
</mgrwt>
</event>
<event>
 5    0  0.1911311E+001  0.2761786E+03  0.7546771E-02  0.1097795E+00
         21   -1    0    0  504  501  0.00000000000E+00  0.00000000000E+00  0.11288267582E+03  0.11288267582E+03  0.00000000000E+00 0.  1.
         21   -1    0    0  503  502 -0.00000000000E+00 -0.00000000000E+00 -0.12689791469E+04  0.12689791469E+04  0.00000000000E+00 0.  1.
         25    1    1    2    0    0 -0.59668648932E+02  0.26452875541E+03 -0.22563344866E+03  0.37426095610E+03  0.12500000000E+03 0.  0.
         21    1    1    2  503  501  0.66916571317E+02 -0.23178912171E+03 -0.94179569836E+03  0.97220530851E+03  0.00000000000E+00 0.  1.
         21    1    1    2  504  502 -0.72479223855E+01 -0.32739633706E+02  0.11332675888E+02  0.35395558152E+02  0.00000000000E+00 0. -1.
<mgrwt>
<rscale>  4 0.27617856E+03</rscale>
<asrwt>0</asrwt>
<pdfrwt beam="1">  1       21 0.17366565E-01 0.27617856E+03</pdfrwt>
<pdfrwt beam="2">  1       21 0.19522756E+00 0.27617856E+03</pdfrwt>
<totfact> 0.40449587E+03</totfact>
</mgrwt>
</event>
<event>
 5    0  0.1911311E+001  0.2661540E+03  0.7546771E-02  0.1103501E+00
         21   -1    0    0  504  501  0.00000000000E+00  0.00000000000E+00  0.34617679470E+02  0.34617679470E+02  0.00000000000E+00 0.  1.
         21   -1    0    0  503  502 -0.00000000000E+00 -0.00000000000E+00 -0.24392415564E+04  0.24392415564E+04  0.00000000000E+00 0.  1.
         25    1    1    2    0    0  0.14054975668E+03  0.18474903503E+03 -0.96131347174E+03  0.99681243521E+03  0.12500000000E+03 0.  0.
         21    1    1    2  503  501 -0.11065369124E+03 -0.21043762125E+03 -0.13929485646E+04  0.14130937462E+04  0.00000000000E+00 0.  1.
         21    1    1    2  504  502 -0.29896065443E+02  0.25688586215E+02 -0.50361840558E+02  0.63953054462E+02  0.00000000000E+00 0.  1.
<mgrwt>
<rscale>  4 0.26615402E+03</rscale>
<asrwt>0</asrwt>
<pdfrwt beam="1">  1       21 0.53257948E-02 0.26615402E+03</pdfrwt>
<pdfrwt beam="2">  1       21 0.37526807E+00 0.26615402E+03</pdfrwt>
<totfact> 0.27385483E+03</totfact>
</mgrwt>
</event>
<event>
 5    0  0.1911311E+001  0.2842917E+03  0.7546771E-02  0.1093368E+00
         21   -1    0    0  502  501  0.00000000000E+00  0.00000000000E+00  0.19271070486E+03  0.19271070486E+03  0.00000000000E+00 0.  1.
         21   -1    0    0  504  502 -0.00000000000E+00 -0.00000000000E+00 -0.72823314580E+03  0.72823314580E+03  0.00000000000E+00 0.  1.
         25    1    1    2    0    0 -0.98417343531E+02 -0.21071354497E+03 -0.24283258794E+02  0.26514307119E+03  0.12500000000E+03 0.  0.
         21    1    1    2  503  501  0.89666714432E+01 -0.34596673017E+02  0.35211466371E+02  0.50171489360E+02  0.00000000000E+00 0.  1.
         21    1    1    2  504  503  0.89450672088E+02  0.24531021799E+03 -0.54645064851E+03  0.60562929012E+03  0.00000000000E+00 0.  1.
<mgrwt>
<rscale>  4 0.28429166E+03</rscale>
<asrwt>0</asrwt>
<pdfrwt beam="1">  1       21 0.29647800E-01 0.28429166E+03</pdfrwt>
<pdfrwt beam="2">  1       21 0.11203587E+00 0.28429166E+03</pdfrwt>
<totfact> 0.64201238E+03</totfact>
</mgrwt>
</event>
<event>
 5    0  0.1911311E+001  0.2135697E+03  0.7546771E-02  0.1138770E+00
         21   -1    0    0  504  501  0.00000000000E+00  0.00000000000E+00  0.61646127898E+03  0.61646127898E+03  0.00000000000E+00 0.  1.
         21   -1    0    0  503  502 -0.00000000000E+00 -0.00000000000E+00 -0.21563498995E+03  0.21563498995E+03  0.00000000000E+00 0.  1.
         25    1    1    2    0    0  0.15432980832E+03  0.13809039489E+03  0.21115901560E+02  0.24281171347E+03  0.12500000000E+03 0.  0.
         21    1    1    2  503  501 -0.53442237763E+02 -0.24264640998E+01 -0.81823336338E+02  0.97760006519E+02  0.00000000000E+00 0.  1.
         21    1    1    2  504  502 -0.10088757056E+03 -0.13566393079E+03  0.46153372380E+03  0.49152454895E+03  0.00000000000E+00 0.  1.
<mgrwt>
<rscale>  4 0.21356972E+03</rscale>
<asrwt>0</asrwt>
<pdfrwt beam="1">  1       21 0.94840196E-01 0.21356972E+03</pdfrwt>
<pdfrwt beam="2">  1       21 0.33174614E-01 0.21356972E+03</pdfrwt>
<totfact> 0.80159886E+03</totfact>
</mgrwt>
</event>
