<LesHouchesEvents version="3.0">
  <!--
  <scalesfunctionalform>
    muR  H_T/2 := sum_i mT(i)/2, i=final state
    muF1 H_T/2 := sum_i mT(i)/2, i=final state
    muF2 H_T/2 := sum_i mT(i)/2, i=final state
    QES  H_T/2 := sum_i mT(i)/2, i=final state
  </scalesfunctionalform>
HERWIG6   
  -->
  <header>
      166
  </header>
  <init>
   2212   2212 0.65000000D+04 0.65000000D+04 -1 -1   247000   247000 -3   1
 0.32256380D-01 0.61505924D-03 0.45631637D-03     66
  </init>
  <event>
  5     66 0.45631637E-03 0.13335689E+03 0.75467711E-02 0.11294563E+00
       21 -1    0    0  501  502 0.00000000E+00 0.00000000E+00 0.11591976E+03 0.11592219E+03 0.75000000E+00 0.0000E+00 0.9000E+01
        1 -1    0    0  502    0 -.00000000E+00 -.00000000E+00 -.56299603E+03 0.56299612E+03 0.32000000E+00 0.0000E+00 0.9000E+01
       25  1    1    2    0    0 -.12938317E+02 -.85191753E+02 -.19228478E+03 0.24499688E+03 0.12500000E+03 0.0000E+00 0.9000E+01
      -24  1    1    2    0    0 0.13821814E+03 0.26764362E+02 -.24700868E+03 0.29546758E+03 0.80419002E+02 0.0000E+00 0.9000E+01
        2  1    1    2  501    0 -.12527983E+03 0.58427391E+02 -.77828104E+01 0.13845385E+03 0.32000000E+00 0.0000E+00 0.9000E+01
#aMCatNLO 1  0  0  5  1 0.57618167D+01 0.00000000D+00  -5  6  0 0.00000000D+00 0.00000000D+00 0.00000000D+00 0.00000000D+00 0.00000000D+00
  <mgrwgt>
 0.2416271047D-01    8    2    0
 0.255466670750092D+03 0.000000000000000D+00 0.000000000000000D+00 0.255466670750092D+03
 0.255466670750092D+03 -.000000000000000D+00 -.000000000000000D+00 -.255466670750092D+03
 0.157294331370132D+03 -.129382536258539D+02 -.851917818811608D+02 -.411274673934909D+02
 0.176474424730671D+03 0.138218212458257D+03 0.267643286556560D+02 -.696807224855403D+02
 0.177164585399381D+03 -.125279958832403D+03 0.584274532255049D+02 0.110808189879031D+03
 0.000000000000000D+00 -.000000000000000D+00 0.000000000000000D+00 0.000000000000000D+00
 0.255466670750092D+03 0.000000000000000D+00 0.000000000000000D+00 0.255466670750092D+03
 0.255466670750092D+03 -.000000000000000D+00 -.000000000000000D+00 -.255466670750092D+03
 0.157259760485563D+03 -.130244442565762D+02 -.851515847172095D+02 -.410512331109777D+02
 0.176371796962099D+03 0.138121529441939D+03 0.268094192069800D+02 -.695952078499189D+02
 0.108978739160427D+03 -.728817524814267D+02 0.378678527749488D+02 0.716284962179660D+02
 0.683230448920949D+02 -.522153327039361D+02 0.204743127352807D+02 0.390179447429306D+02
0.104447302356D-05 0.000000000000D+00 0.000000000000D+00 0.212197053499D-06 0.000000000000D+00  6 21 1 25 -24 2 21 2 0.17834003D-01 0.86614967D-01 0.51119467D+05 0.51119467D+05 0.51119467D+05 0.11913306D+01  1  2  2  3  6  5        2 0.179002368808D-02 0.100000000000D+01
-.469277767479D-07 0.551183557445D-07 -.210849010855D-08 0.212197053499D-06 0.000000000000D+00  6 21 1 25 -24 2 21 4 0.17834003D-01 0.86614967D-01 0.51119467D+05 0.51119467D+05 0.51119467D+05 0.11913306D+01  1  2  3  3  6  5        2 -.114144792649D-03 0.100000000000D+01
0.104646326538D-06 0.000000000000D+00 0.000000000000D+00 0.212197053499D-06 0.000000000000D+00  6 21 1 25 -24 2 21 4 0.17834003D-01 0.86614967D-01 0.51119467D+05 0.51119467D+05 0.51119467D+05 0.11913306D+01  1  2 15  3  6  5        2 0.254536525530D-03 0.100000000000D+01
0.268871582479D-04 0.000000000000D+00 0.000000000000D+00 0.212204254323D-06 0.000000000000D+00  6 21 1 25 -24 2 21 4 0.17834003D-01 0.86614967D-01 0.51095390D+05 0.51095390D+05 0.51095390D+05 0.11913508D+01  1  2 12  3  6  5        2 0.654041219838D-01 0.100000000000D+01
-.445253392776D-04 0.000000000000D+00 0.000000000000D+00 0.212197053499D-06 0.000000000000D+00  6 21 1 25 -24 2 21 4 0.17834003D-01 0.86614967D-01 0.51119467D+05 0.51119467D+05 0.51119467D+05 0.11913306D+01  1  2  4  3  6  5        2 -.108301223107D+00 0.100000000000D+01
-.382481262876D-04 0.000000000000D+00 0.000000000000D+00 0.212197053499D-06 0.000000000000D+00  6 21 1 25 -24 2 21 4 0.17834003D-01 0.86614967D-01 0.51119467D+05 0.51119467D+05 0.51119467D+05 0.11913306D+01  1  2  5  3  6  5        2 -.930328421009D-01 0.100000000000D+01
0.555355227636D-04 0.000000000000D+00 -.000000000000D+00 0.212197053499D-06 0.000000000000D+00  6 21 1 25 -24 2 21 4 0.17834003D-01 0.86614967D-01 0.51119467D+05 0.51119467D+05 0.51119467D+05 0.11913306D+01  1  2  6  3  6  5        2 0.135081846400D+00 0.100000000000D+01
0.948818101899D-05 0.000000000000D+00 0.000000000000D+00 0.212197053499D-06 0.171424085182D-07  6 21 1 25 -24 2 21 4 0.17834003D-01 0.86614967D-01 0.51095390D+05 0.51095390D+05 0.51095390D+05 0.11913508D+01  1  2 11  3  6  5        2 0.230803918751D-01 0.100000000000D+01
  </mgrwgt>
  </event>
  <event>
  6     66 0.45631637E-03 0.15619826E+02 0.75467711E-02 0.12208090E+00
       21 -1    0    0  501  502 0.00000000E+00 0.00000000E+00 0.73550163E+03 0.73550201E+03 0.75000000E+00 0.0000E+00 0.9000E+01
        1 -1    0    0  503    0 0.00000000E+00 0.00000000E+00 -.56294949E+02 0.56295858E+02 0.32000000E+00 0.0000E+00 0.9000E+01
       25  1    1    2    0    0 -.17945245E+02 0.13514873E+02 0.29176469E+03 0.31820798E+03 0.12500000E+03 0.0000E+00 0.9000E+01
      -24  1    1    2    0    0 0.35217848E+01 0.16916928E+01 0.40220544E+03 0.41018496E+03 0.80419002E+02 0.0000E+00 0.9000E+01
        2  1    1    2  501    0 -.14099031E+02 -.27256115E+02 -.71348329E+01 0.31506931E+02 0.32000000E+00 0.0000E+00 0.9000E+01
       21  1    1    2  503  502 0.28522492E+02 0.12049549E+02 -.76286204E+01 0.31898002E+02 0.75000000E+00 0.0000E+00 0.9000E+01
#aMCatNLO 2  0  0  2  1 0.14042363D+02 0.00000000D+00  -5  6  0 0.00000000D+00 0.00000000D+00 0.00000000D+00 0.00000000D+00 0.00000000D+00
  <mgrwgt>
 0.1284771096D+00    1    2    0
 0.161822708088992D+03 0.000000000000000D+00 0.000000000000000D+00 0.161822708088992D+03
 0.161822708088992D+03 0.000000000000000D+00 0.000000000000000D+00 -.161822708088992D+03
 0.126876278583637D+03 -.676740271668249D+01 0.182370965778734D+02 0.970570121692249D+01
 0.109908789490553D+03 0.131475554665671D+02 0.575822370469354D+01 0.735303386224247D+02
 0.868603481037937D+02 -.638015274988463D+01 -.239953202825670D+02 -.832360398393472D+02
 0.000000000000000D+00 0.000000000000000D+00 0.000000000000000D+00 -.000000000000000D+00
 0.165287076110750D+03 0.000000000000000D+00 0.000000000000000D+00 0.165287076110750D+03
 0.250502179737671D+03 0.000000000000000D+00 0.000000000000000D+00 -.250502179737671D+03
 0.127373016858563D+03 -.179452301656624D+02 0.135149362499782D+02 0.970570121692249D+01
 0.109037569842501D+03 0.352178788695311D+01 0.169174316565628D+01 0.735303386224247D+02
 0.887125892864622D+02 -.140990492583117D+02 -.272562282750722D+02 -.832360398393472D+02
 0.906660798608949D+02 0.285224915370210D+02 0.120495488594377D+02 -.852151036269203D+02
0.106298876179D-03 0.000000000000D+00 0.000000000000D+00 0.212703366254D-06 0.270397146319D-08  6 21 1 25 -24 2 21 4 0.11315315D+00 0.86607807D-02 0.18112680D+05 0.18112680D+05 0.18112680D+05 0.12385935D+01  1  2  1  2  6  2        1 0.128477109574D+00 0.100000000000D+01
  </mgrwgt>
  </event>
  <event>
  5     66 0.45631637E-03 0.28977248E+02 0.75467711E-02 0.12012223E+00
       21 -1    0    0  501  502 0.00000000E+00 0.00000000E+00 0.43106453E+03 0.43106518E+03 0.75000000E+00 0.0000E+00 0.9000E+01
        3 -1    0    0  502    0 0.00000000E+00 0.00000000E+00 -.71396355E+02 0.71398106E+02 0.50000000E+00 0.0000E+00 0.9000E+01
       25  1    1    2    0    0 -.51705879E+02 0.60529053E+02 0.26502011E+03 0.30364111E+03 0.12500000E+03 0.0000E+00 0.9000E+01
      -24  1    1    2    0    0 0.76294218E+02 -.45239110E+02 0.23526327E+02 0.12201676E+03 0.80419002E+02 0.0000E+00 0.9000E+01
        4  1    1    2  501    0 -.24588339E+02 -.15289943E+02 0.71121742E+02 0.76805426E+02 0.15500000E+01 0.0000E+00 0.9000E+01
#aMCatNLO 1  0  0  1  2 0.19063685D+01 0.00000000D+00  -5  6  0 0.00000000D+00 0.00000000D+00 0.00000000D+00 0.00000000D+00 0.00000000D+00
  <mgrwgt>
 0.8462991101D-01   32    2    0
 0.175433861869527D+03 0.000000000000000D+00 0.000000000000000D+00 0.175433861869527D+03
 0.175433861869527D+03 0.000000000000000D+00 0.000000000000000D+00 -.175433861869527D+03
 0.163159856858469D+03 -.516958783295088D+02 0.605352725568512D+02 0.682580092757202D+02
 0.150627002670598D+03 0.763034509566125D+02 -.452333692348453D+02 -.913947682251769D+02
 0.370808642099866D+02 -.246075726271038D+02 -.153019033220059D+02 0.231367589494567D+02
 0.000000000000000D+00 -.000000000000000D+00 -.000000000000000D+00 0.000000000000000D+00
 0.176582146486536D+03 0.000000000000000D+00 0.000000000000000D+00 0.176582146486536D+03
 0.176229472231755D+03 0.000000000000000D+00 0.000000000000000D+00 -.176229472231755D+03
 0.163351888179382D+03 -.513421764600805D+02 0.613487119492094D+02 0.682580092757202D+02
 0.150569160720522D+03 0.766297291002784D+02 -.444829986039172D+02 -.913947682251769D+02
 0.369518537340126D+02 -.245273748665834D+02 -.151174654571689D+02 0.231367589494567D+02
 0.193871608437395D+01 -.760177773614466D+00 -.174824788812340D+01 0.352674254780358D+00
0.917703107709D-05 0.000000000000D+00 0.000000000000D+00 0.523927708763D-06 0.000000000000D+00  6 21 3 25 -24 4 21 2 0.66317805D-01 0.10984239D-01 0.22037984D+05 0.22037984D+05 0.22037984D+05 0.12292134D+01  1  2  2  1  6  1       21 0.892619660289D-02 0.100000000000D+01
0.420129170792D-06 0.484285234924D-06 -.185257817248D-07 0.523927708763D-06 0.000000000000D+00  6 21 3 25 -24 4 21 4 0.66317805D-01 0.10984239D-01 0.22037984D+05 0.22037984D+05 0.22037984D+05 0.12292134D+01  1  2  3  1  6  1       21 0.617449798382D-03 0.100000000000D+01
0.100618801370D-05 0.000000000000D+00 0.000000000000D+00 0.523927708763D-06 0.000000000000D+00  6 21 3 25 -24 4 21 4 0.66317805D-01 0.10984239D-01 0.22037984D+05 0.22037984D+05 0.22037984D+05 0.12292134D+01  1  2 15  1  6  1       21 0.147876088923D-02 0.100000000000D+01
0.267148166684D-08 0.000000000000D+00 0.000000000000D+00 0.523419684247D-06 0.000000000000D+00  6 21 3 25 -24 4 21 4 0.66901427D-01 0.10984239D-01 0.22317914D+05 0.22317914D+05 0.22317914D+05 0.12286173D+01  1  2 12  1  6  1       21 0.384554093087D-05 0.100000000000D+01
-.684353673869D-05 0.000000000000D+00 0.000000000000D+00 0.523927708763D-06 0.000000000000D+00  6 21 3 25 -24 4 21 4 0.66317805D-01 0.10984239D-01 0.22037984D+05 0.22037984D+05 0.22037984D+05 0.12292134D+01  1  2  4  1  6  1       21 -.100577171815D-01 0.100000000000D+01
-.238185450866D-02 0.000000000000D+00 -.255294904606D-03 0.523927708763D-06 0.000000000000D+00  6 21 3 25 -24 4 21 4 0.67009650D-01 0.10984239D-01 0.22037984D+05 0.22037984D+05 0.22037984D+05 0.12292134D+01  1  2  5  1  6  1       21 -.342256356659D+01 0.100000000000D+01
0.238399929154D-02 0.000000000000D+00 0.255239918563D-03 0.523927708763D-06 0.000000000000D+00  6 21 3 25 -24 4 21 4 0.66317805D-01 0.10984239D-01 0.22037984D+05 0.22037984D+05 0.22037984D+05 0.12292134D+01  1  2  6  1  6  1       21 0.350368406728D+01 0.100000000000D+01
0.653331397218D-05 0.000000000000D+00 0.000000000000D+00 0.523927708763D-06 0.197104049404D-05  6 21 3 25 -24 4 21 4 0.66751881D-01 0.11034054D-01 0.22317914D+05 0.22317914D+05 0.22317914D+05 0.12286173D+01  1  2 11  1  6  1       21 0.937930593711D-02 0.100000000000D+01
0.351100803840D-09 0.000000000000D+00 0.000000000000D+00 0.523419684247D-06 0.000000000000D+00  6 -3 3 25 -24 4 -3 4 0.66901427D-01 0.10984239D-01 0.22317914D+05 0.22317914D+05 0.22317914D+05 0.12286173D+01  1  2 12  4  6  1       21 0.260510694732D-07 0.100000000000D+01
-.498928510240D-05 0.000000000000D+00 -.597954902725D-06 0.523927708763D-06 0.000000000000D+00  6 -3 3 25 -24 4 -3 4 0.67009650D-01 0.10984239D-01 0.22037984D+05 0.22037984D+05 0.22037984D+05 0.12292134D+01  1  2  5  4  6  1       21 -.369354380530D-03 0.100000000000D+01
0.625479246691D-06 0.000000000000D+00 0.000000000000D+00 0.523927708763D-06 0.309473666563D-08  6 -3 3 25 -24 4 -3 4 0.66751881D-01 0.11034054D-01 0.22317914D+05 0.22317914D+05 0.22317914D+05 0.12286173D+01  1  2 11  4  6  1       21 0.462777707588D-04 0.100000000000D+01
0.351100803840D-09 0.000000000000D+00 0.000000000000D+00 0.523419684247D-06 0.000000000000D+00  6 3 3 25 -24 4 3 4 0.66901427D-01 0.10984239D-01 0.22317914D+05 0.22317914D+05 0.22317914D+05 0.12286173D+01  1  2 12  5  6  1       21 0.260737478630D-07 0.100000000000D+01
-.498928510240D-05 0.000000000000D+00 -.597954902725D-06 0.523927708763D-06 0.000000000000D+00  6 3 3 25 -24 4 3 4 0.67009650D-01 0.10984239D-01 0.22037984D+05 0.22037984D+05 0.22037984D+05 0.12292134D+01  1  2  5  5  6  1       21 -.369677018685D-03 0.100000000000D+01
0.482174447006D-06 0.000000000000D+00 0.000000000000D+00 0.523927708763D-06 0.376366834856D-08  6 3 3 25 -24 4 3 4 0.66751881D-01 0.11034054D-01 0.22317914D+05 0.22317914D+05 0.22317914D+05 0.12286173D+01  1  2 11  5  6  1       21 0.357058775087D-04 0.100000000000D+01
0.351100803840D-09 0.000000000000D+00 0.000000000000D+00 0.523419684247D-06 0.000000000000D+00  6 -4 3 25 -24 4 -4 4 0.66901427D-01 0.10984239D-01 0.22317914D+05 0.22317914D+05 0.22317914D+05 0.12286173D+01  1  2 12  6  6  1       21 0.211724746968D-07 0.100000000000D+01
-.498928510240D-05 0.000000000000D+00 -.597954902725D-06 0.523927708763D-06 0.000000000000D+00  6 -4 3 25 -24 4 -4 4 0.67009650D-01 0.10984239D-01 0.22037984D+05 0.22037984D+05 0.22037984D+05 0.12292134D+01  1  2  5  6  6  1       21 -.300123034388D-03 0.100000000000D+01
0.192965768260D-05 0.000000000000D+00 0.000000000000D+00 0.523927708763D-06 0.576273876701D-06  6 -4 3 25 -24 4 -4 4 0.66751881D-01 0.11034054D-01 0.22317914D+05 0.22317914D+05 0.22317914D+05 0.12286173D+01  1  2 11  6  6  1       21 0.116044691349D-03 0.100000000000D+01
0.351100803840D-09 0.000000000000D+00 0.000000000000D+00 0.523419684247D-06 0.000000000000D+00  6 4 3 25 -24 4 4 4 0.66901427D-01 0.10984239D-01 0.22317914D+05 0.22317914D+05 0.22317914D+05 0.12286173D+01  1  2 12  7  6  1       21 0.211724746968D-07 0.100000000000D+01
-.498928510240D-05 0.000000000000D+00 -.597954902725D-06 0.523927708763D-06 0.000000000000D+00  6 4 3 25 -24 4 4 4 0.67009650D-01 0.10984239D-01 0.22037984D+05 0.22037984D+05 0.22037984D+05 0.12292134D+01  1  2  5  7  6  1       21 -.300123034388D-03 0.100000000000D+01
0.613151390848D-06 0.000000000000D+00 0.000000000000D+00 0.523927708763D-06 0.157587566059D-08  6 4 3 25 -24 4 4 4 0.66751881D-01 0.11034054D-01 0.22317914D+05 0.22317914D+05 0.22317914D+05 0.12286173D+01  1  2 11  7  6  1       21 0.368733607740D-04 0.100000000000D+01
0.351100803840D-09 0.000000000000D+00 0.000000000000D+00 0.523419684247D-06 0.000000000000D+00  6 -1 3 25 -24 4 -1 4 0.66901427D-01 0.10984239D-01 0.22317914D+05 0.22317914D+05 0.22317914D+05 0.12286173D+01  1  2 12  8  6  1       21 0.532355991612D-07 0.100000000000D+01
0.351100803840D-09 0.000000000000D+00 0.000000000000D+00 0.523419684247D-06 0.000000000000D+00  6 -2 3 25 -24 4 -2 4 0.66901427D-01 0.10984239D-01 0.22317914D+05 0.22317914D+05 0.22317914D+05 0.12286173D+01  1  2 12  8  6  1       21 0.416791830372D-07 0.100000000000D+01
-.498928510240D-05 0.000000000000D+00 -.597954902725D-06 0.523927708763D-06 0.000000000000D+00  6 -1 3 25 -24 4 -1 4 0.67009650D-01 0.10984239D-01 0.22037984D+05 0.22037984D+05 0.22037984D+05 0.12292134D+01  1  2  5  8  6  1       21 -.755199473974D-03 0.100000000000D+01
-.498928510240D-05 0.000000000000D+00 -.597954902725D-06 0.523927708763D-06 0.000000000000D+00  6 -2 3 25 -24 4 -2 4 0.67009650D-01 0.10984239D-01 0.22037984D+05 0.22037984D+05 0.22037984D+05 0.12292134D+01  1  2  5  8  6  1       21 -.591082296600D-03 0.100000000000D+01
0.625576470290D-06 0.000000000000D+00 0.000000000000D+00 0.523927708763D-06 0.309521770706D-08  6 -1 3 25 -24 4 -1 4 0.66751881D-01 0.11034054D-01 0.22317914D+05 0.22317914D+05 0.22317914D+05 0.12286173D+01  1  2 11  8  6  1       21 0.945521266927D-04 0.100000000000D+01
0.625576470290D-06 0.000000000000D+00 0.000000000000D+00 0.523927708763D-06 0.309521770706D-08  6 -2 3 25 -24 4 -2 4 0.66751881D-01 0.11034054D-01 0.22317914D+05 0.22317914D+05 0.22317914D+05 0.12286173D+01  1  2 11  8  6  1       21 0.740518229824D-04 0.100000000000D+01
0.351100803840D-09 0.000000000000D+00 0.000000000000D+00 0.523419684247D-06 0.000000000000D+00  6 1 3 25 -24 4 1 4 0.66901427D-01 0.10984239D-01 0.22317914D+05 0.22317914D+05 0.22317914D+05 0.12286173D+01  1  2 12  9  6  1       21 0.145740452994D-06 0.100000000000D+01
0.351100803840D-09 0.000000000000D+00 0.000000000000D+00 0.523419684247D-06 0.000000000000D+00  6 2 3 25 -24 4 2 4 0.66901427D-01 0.10984239D-01 0.22317914D+05 0.22317914D+05 0.22317914D+05 0.12286173D+01  1  2 12  9  6  1       21 0.220853250731D-06 0.100000000000D+01
-.498928510240D-05 0.000000000000D+00 -.597954902725D-06 0.523927708763D-06 0.000000000000D+00  6 1 3 25 -24 4 1 4 0.67009650D-01 0.10984239D-01 0.22037984D+05 0.22037984D+05 0.22037984D+05 0.12292134D+01  1  2  5  9  6  1       21 -.206967990468D-02 0.100000000000D+01
-.498928510240D-05 0.000000000000D+00 -.597954902725D-06 0.523927708763D-06 0.000000000000D+00  6 2 3 25 -24 4 2 4 0.67009650D-01 0.10984239D-01 0.22037984D+05 0.22037984D+05 0.22037984D+05 0.12292134D+01  1  2  5  9  6  1       21 -.313720621047D-02 0.100000000000D+01
0.625576470290D-06 0.000000000000D+00 0.000000000000D+00 0.523927708763D-06 0.309521770706D-08  6 1 3 25 -24 4 1 4 0.66751881D-01 0.11034054D-01 0.22317914D+05 0.22317914D+05 0.22317914D+05 0.12286173D+01  1  2 11  9  6  1       21 0.258459215715D-03 0.100000000000D+01
0.625576470290D-06 0.000000000000D+00 0.000000000000D+00 0.523927708763D-06 0.309521770706D-08  6 2 3 25 -24 4 2 4 0.66751881D-01 0.11034054D-01 0.22317914D+05 0.22317914D+05 0.22317914D+05 0.12286173D+01  1  2 11  9  6  1       21 0.391493243754D-03 0.100000000000D+01
  </mgrwgt>
  </event>
  <event>
  5     66 -.45631637E-03 0.22953878E+02 0.75467711E-02 0.11997355E+00
       21 -1    0    0  501  502 0.00000000E+00 0.00000000E+00 0.14521380E+02 0.14540735E+02 0.75000000E+00 0.0000E+00 0.9000E+01
        3 -1    0    0  502    0 -.00000000E+00 -.00000000E+00 -.17148618E+04 0.17148619E+04 0.50000000E+00 0.0000E+00 0.9000E+01
       25  1    1    2    0    0 0.66689937E+02 0.57628643E+02 -.60651526E+03 0.62550329E+03 0.12500000E+03 0.0000E+00 0.9000E+01
      -24  1    1    2    0    0 -.85284916E+02 -.44253055E+02 -.95585277E+03 0.96402986E+03 0.80419002E+02 0.0000E+00 0.9000E+01
        4  1    1    2  501    0 0.18594979E+02 -.13375588E+02 -.13797238E+03 0.13986944E+03 0.15500000E+01 0.0000E+00 0.9000E+01
#aMCatNLO 1  0  0  5  1 0.89158955D+01 0.00000000D+00  -5  6  0 0.00000000D+00 0.00000000D+00 0.00000000D+00 0.00000000D+00 0.00000000D+00
  <mgrwgt>
 -.2732838999D-01    5    2    0
 0.157857398769271D+03 0.000000000000000D+00 0.000000000000000D+00 0.157857398769271D+03
 0.157857398769271D+03 -.000000000000000D+00 -.000000000000000D+00 -.157857398769271D+03
 0.159839872963822D+03 0.666686555861784D+02 0.576439509131345D+02 0.464354420087324D+02
 0.132786506248337D+03 -.853025950697163D+02 -.442403387892356D+02 -.439465582890716D+02
 0.230884183263834D+02 0.186339394835379D+02 -.134036121238989D+02 -.248888371966077D+01
 0.000000000000000D+00 0.000000000000000D+00 0.000000000000000D+00 0.000000000000000D+00
 0.157857398769271D+03 0.000000000000000D+00 0.000000000000000D+00 0.157857398769271D+03
 0.157857398769271D+03 -.000000000000000D+00 -.000000000000000D+00 -.157857398769271D+03
 0.160508258579919D+03 0.713987529604101D+02 0.542415361651160D+02 0.458036559949624D+02
 0.131468981150231D+03 -.814007331139533D+02 -.470469940465551D+02 -.444677191904817D+02
 0.148030669939034D+02 0.661153986813713D+01 -.943826148898750D+01 -.929180031336884D+01
 0.893449081448912D+01 0.339044028540604D+01 0.224371937042666D+01 0.795586350888817D+01
0.259597115659D-04 0.000000000000D+00 0.000000000000D+00 0.442358770145D-06 0.000000000000D+00  6 21 3 25 -24 4 21 2 0.22355529D-02 0.26382638D+00 0.22680890D+05 0.22680890D+05 0.22680890D+05 0.12278567D+01  1  2  2  3  6  5        4 0.139566797514D-01 0.100000000000D+01
0.140942688518D-05 0.136993161608D-05 -.524051783271D-07 0.442358770145D-06 0.000000000000D+00  6 21 3 25 -24 4 21 4 0.22355529D-02 0.26382638D+00 0.22680890D+05 0.22680890D+05 0.22680890D+05 0.12278567D+01  1  2  3  3  6  5        4 0.114240520711D-02 0.100000000000D+01
0.267634964223D-05 0.000000000000D+00 0.000000000000D+00 0.442358770145D-06 0.000000000000D+00  6 21 3 25 -24 4 21 4 0.22355529D-02 0.26382638D+00 0.22680890D+05 0.22680890D+05 0.22680890D+05 0.12278567D+01  1  2 15  3  6  5        4 0.216930427500D-02 0.100000000000D+01
0.104034841053D-04 0.000000000000D+00 0.000000000000D+00 0.444207653749D-06 0.000000000000D+00  6 21 3 25 -24 4 21 4 0.22355529D-02 0.26382638D+00 0.21483296D+05 0.21483296D+05 0.21483296D+05 0.12304200D+01  1  2 12  3  6  5        4 0.849913618333D-02 0.100000000000D+01
-.655063634238D-04 0.000000000000D+00 0.000000000000D+00 0.442358770145D-06 0.000000000000D+00  6 21 3 25 -24 4 21 4 0.22355529D-02 0.26382638D+00 0.22680890D+05 0.22680890D+05 0.22680890D+05 0.12278567D+01  1  2  4  3  6  5        4 -.530959154112D-01 0.100000000000D+01
  </mgrwgt>
  </event>
  <event>
  5     66 0.45631637E-03 0.15582425E+03 0.75467711E-02 0.11159853E+00
       21 -1    0    0  501  502 0.00000000E+00 0.00000000E+00 0.10586489E+03 0.10586755E+03 0.75000000E+00 0.0000E+00 0.9000E+01
        3 -1    0    0  502    0 -.00000000E+00 -.00000000E+00 -.58251045E+03 0.58251067E+03 0.50000000E+00 0.0000E+00 0.9000E+01
       25  1    1    2    0    0 0.20097332E+03 -.38233786E+02 -.26725220E+03 0.35902762E+03 0.12500000E+03 0.0000E+00 0.9000E+01
      -24  1    1    2    0    0 -.45411845E+02 0.29279665E+02 -.63161315E+02 0.11565510E+03 0.80419002E+02 0.0000E+00 0.9000E+01
        4  1    1    2  501    0 -.15556147E+03 0.89541206E+01 -.14623205E+03 0.21369549E+03 0.15500000E+01 0.0000E+00 0.9000E+01
#aMCatNLO 1  0  0  5  2 0.17961059D+01 0.00000000D+00  -5  6  0 0.00000000D+00 0.00000000D+00 0.00000000D+00 0.00000000D+00 0.00000000D+00
  <mgrwgt>
 0.1614315981D-02    5    2    0
 0.248331216319390D+03 0.000000000000000D+00 0.000000000000000D+00 0.248331216319390D+03
 0.248331216319390D+03 -.000000000000000D+00 -.000000000000000D+00 -.248331216319390D+03
 0.241137194423516D+03 0.200977052933807D+03 -.382340009054173D+02 -.258559838963972D+02
 0.996824443322695D+02 -.454103008206696D+02 0.292795764114411D+02 0.234517534147951D+02
 0.155842793882994D+03 -.155566752113138D+03 0.895442449397625D+01 0.240423048160210D+01
 0.000000000000000D+00 0.000000000000000D+00 -.000000000000000D+00 0.000000000000000D+00
 0.248331216319390D+03 0.000000000000000D+00 0.000000000000000D+00 0.248331216319390D+03
 0.248331216319390D+03 -.000000000000000D+00 -.000000000000000D+00 -.248331216319390D+03
 0.240392400329765D+03 0.200094286856125D+03 -.381831888772617D+02 -.258423410512310D+02
 0.998571227374690D+02 -.457761075392677D+02 0.293006322514363D+02 0.234574068314235D+02
 0.154616746712003D+03 -.154302562951630D+03 0.981504709198470D+01 0.849871133918729D+00
 0.179616285954230D+01 -.156163652275896D-01 -.932490466159311D+00 0.153506308588874D+01
0.399158998259D-05 0.000000000000D+00 0.000000000000D+00 0.798002993772D-07 0.000000000000D+00  6 21 3 25 -24 4 21 2 0.16287127D-01 0.89617213D-01 0.60628159D+05 0.60628159D+05 0.60628159D+05 0.11840799D+01  1  2  2  3  6  5        4 0.108324402476D-02 0.100000000000D+01
-.355021252114D-06 0.210641990443D-06 -.805787014680D-08 0.798002993772D-07 0.000000000000D+00  6 21 3 25 -24 4 21 4 0.16287127D-01 0.89617213D-01 0.60628159D+05 0.60628159D+05 0.60628159D+05 0.11840799D+01  1  2  3  3  6  5        4 -.135081776399D-03 0.100000000000D+01
0.411668232998D-06 0.000000000000D+00 0.000000000000D+00 0.798002993772D-07 0.000000000000D+00  6 21 3 25 -24 4 21 4 0.16287127D-01 0.89617213D-01 0.60628159D+05 0.60628159D+05 0.60628159D+05 0.11840799D+01  1  2 15  3  6  5        4 0.156635344699D-03 0.100000000000D+01
-.100918222127D-03 0.000000000000D+00 0.000000000000D+00 0.798002993772D-07 0.000000000000D+00  6 21 3 25 -24 4 21 4 0.16287127D-01 0.89617213D-01 0.60628159D+05 0.60628159D+05 0.60628159D+05 0.11840799D+01  1  2  4  3  6  5        4 -.383983004815D-01 0.100000000000D+01
0.102206083784D-03 0.000000000000D+00 0.000000000000D+00 0.798002993772D-07 0.146771798633D-05  6 21 3 25 -24 4 21 4 0.16287127D-01 0.89617213D-01 0.60419902D+05 0.60419902D+05 0.60419902D+05 0.11842248D+01  1  2 11  3  6  5        4 0.389078188691D-01 0.100000000000D+01
  </mgrwgt>
  </event>
  <event>
  6     66 -.45631637E-03 0.33856237E+02 0.75467711E-02 0.11963393E+00
       21 -1    0    0  503  502 0.00000000E+00 0.00000000E+00 0.31598702E+03 0.31598791E+03 0.75000000E+00 0.0000E+00 0.9000E+01
        1 -1    0    0  502    0 0.00000000E+00 0.00000000E+00 -.87607028E+02 0.87607613E+02 0.32000000E+00 0.0000E+00 0.9000E+01
       25  1    1    2    0    0 0.21489146E+02 0.89979258E+02 0.17879160E+03 0.23695883E+03 0.12500000E+03 0.0000E+00 0.9000E+01
      -24  1    1    2    0    0 -.34371418E+02 -.36918405E+02 0.39596222E+02 0.10285640E+03 0.80419002E+02 0.0000E+00 0.9000E+01
        2  1    1    2  501    0 0.15644487E+02 -.38294506E+02 -.60287831E+01 0.41805117E+02 0.32000000E+00 0.0000E+00 0.9000E+01
       21  1    1    2  503  501 -.27622142E+01 -.14766347E+02 0.16020948E+02 0.21975170E+02 0.75000000E+00 0.0000E+00 0.9000E+01
#aMCatNLO 2  0  0  1  2 0.15022477D+02 0.00000000D+00  -5  6  0 0.00000000D+00 0.00000000D+00 0.00000000D+00 0.00000000D+00 0.00000000D+00
  <mgrwgt>
 -.3607339457D-01    3    2    0
 0.158360392196612D+03 0.000000000000000D+00 0.000000000000000D+00 0.158360392196612D+03
 0.158360392196612D+03 0.000000000000000D+00 0.000000000000000D+00 -.158360392196612D+03
 0.161253574775106D+03 0.200651837646283D+02 0.823680012710944D+02 0.564855392542853D+02
 0.994047212494329D+02 -.352286624830764D+02 -.415004704313820D+02 -.212305192101936D+02
 0.560624883686853D+02 0.151634787184481D+02 -.408675308397123D+02 -.352550200440917D+02
 0.000000000000000D+00 -.000000000000000D+00 -.000000000000000D+00 0.000000000000000D+00
 0.168670819719514D+03 0.000000000000000D+00 0.000000000000000D+00 0.168670819719514D+03
 0.164106577809264D+03 0.000000000000000D+00 0.000000000000000D+00 -.164106577809264D+03
 0.165450065978702D+03 0.214890222131685D+02 0.899796094225314D+02 0.564855392542853D+02
 0.972743759102122D+02 -.343714964597228D+02 -.369182006540894D+02 -.212305192101936D+02
 0.543524101383043D+02 0.156446884699622D+02 -.382950619820750D+02 -.352550200440917D+02
 0.157005455015591D+02 -.276221422340796D+01 -.147663467863670D+02 0.456424191024975D+01
-.137066863215D-04 0.000000000000D+00 0.000000000000D+00 0.191041763243D-06 0.000000000000D+00  6 21 1 25 -24 2 21 4 0.49396362D-01 0.13005480D-01 0.23535921D+05 0.23535921D+05 0.23535921D+05 0.12261176D+01  1  2 13  1  6  1       21 -.584125655111D-01 0.100000000000D+01
-.237423082106D-07 0.000000000000D+00 0.000000000000D+00 0.192527476731D-06 0.000000000000D+00  6 21 1 25 -24 2 21 4 0.45639413D-01 0.13005480D-01 0.21277738D+05 0.21277738D+05 0.21277738D+05 0.12308760D+01  1  2  8  1  6  1       21 -.120931405128D-03 0.100000000000D+01
0.534209417966D-05 0.000000000000D+00 0.000000000000D+00 0.192527476731D-06 0.204547695068D-07  6 21 1 25 -24 2 21 4 0.48610875D-01 0.13477390D-01 0.23535921D+05 0.23535921D+05 0.23535921D+05 0.12261176D+01  1  2  1  1  6  1       21 0.224601023478D-01 0.100000000000D+01
  </mgrwgt>
  </event>
  <event>
  6     66 0.45631637E-03 0.15802447E+02 0.75467711E-02 0.11440366E+00
       21 -1    0    0  501  502 0.00000000E+00 0.00000000E+00 0.53448670E+02 0.53453931E+02 0.75000000E+00 0.0000E+00 0.9000E+01
        1 -1    0    0  502    0 -.00000000E+00 -.00000000E+00 -.94641821E+03 0.94641826E+03 0.32000000E+00 0.0000E+00 0.9000E+01
       25  1    1    2    0    0 0.15304889E+03 -.52945348E+02 -.34340545E+03 0.39972425E+03 0.12500000E+03 0.0000E+00 0.9000E+01
      -24  1    1    2    0    0 -.13486417E+03 0.46090386E+01 -.40171879E+03 0.43134069E+03 0.80419002E+02 0.0000E+00 0.9000E+01
        2  1    1    2  503    0 -.52179075E+01 0.24385198E+02 -.77918241E+01 0.26128133E+02 0.32000000E+00 0.0000E+00 0.9000E+01
       21  1    1    2  501  503 -.12966808E+02 0.23951112E+02 -.14005347E+03 0.14267912E+03 0.75000000E+00 0.0000E+00 0.9000E+01
#aMCatNLO 2  0  0  5  1 0.31477197D+02 0.00000000D+00  -5  6  0 0.00000000D+00 0.00000000D+00 0.00000000D+00 0.00000000D+00 0.00000000D+00
  <mgrwgt>
 0.1563472287D+00    2    2    0
 0.224916543633502D+03 0.000000000000000D+00 0.000000000000000D+00 0.224916543633502D+03
 0.224916543633502D+03 -.000000000000000D+00 -.000000000000000D+00 -.224916543633502D+03
 0.214030453991204D+03 0.158064910056486D+03 -.662783074416444D+02 0.284025598703169D+02
 0.158487187193576D+03 -.131052329983610D+03 -.552311544493044D+01 -.380230791994820D+02
 0.773154460822228D+02 -.270125800728755D+02 0.718014228865748D+02 0.962051932916515D+01
 0.000000000000000D+00 0.000000000000000D+00 0.000000000000000D+00 -.000000000000000D+00
 0.224916543633502D+03 0.000000000000000D+00 0.000000000000000D+00 0.224916543633502D+03
 0.224916543633502D+03 -.000000000000000D+00 -.000000000000000D+00 -.224916543633502D+03
 0.206787954022409D+03 0.153044840343114D+03 -.529345932374665D+02 0.301904556426185D+02
 0.161313386312546D+03 -.134867327480880D+03 0.461742825262525D+01 -.366643694033727D+02
 0.421670727362755D+02 -.496252610683445D+01 0.237222659382881D+02 0.345063683475742D+02
 0.395646741957726D+02 -.132149867553988D+02 0.245948990465532D+02 -.280324545868201D+02
-.552789171711D-05 0.000000000000D+00 0.000000000000D+00 0.113435317406D-06 0.000000000000D+00  6 21 1 25 -24 2 21 4 0.82232812D-02 0.14560321D+00 0.42811707D+05 0.42811707D+05 0.42811707D+05 0.11990158D+01  1  2 13  3  6  5        2 -.256952855103D-01 0.100000000000D+01
0.391632661903D-04 0.000000000000D+00 0.000000000000D+00 0.112328764783D-06 0.776416688333D-08  6 21 1 25 -24 2 21 4 0.82232812D-02 0.14560321D+00 0.42811707D+05 0.42811707D+05 0.42811707D+05 0.11990158D+01  1  2  1  3  6  5        2 0.182042514176D+00 0.100000000000D+01
  </mgrwgt>
  </event>
  <event>
  5     66 0.45631637E-03 0.34900406E+02 0.75467711E-02 0.11592660E+00
       21 -1    0    0  501  502 0.00000000E+00 0.00000000E+00 0.78160677E+02 0.78164275E+02 0.75000000E+00 0.0000E+00 0.9000E+01
        1 -1    0    0  502    0 0.00000000E+00 0.00000000E+00 -.48866455E+03 0.48866466E+03 0.32000000E+00 0.0000E+00 0.9000E+01
       25  1    1    2    0    0 0.47529669E+02 -.12462338E+03 -.29605863E+03 0.34794507E+03 0.12500000E+03 0.0000E+00 0.9000E+01
      -24  1    1    2    0    0 -.73893542E+02 0.10175656E+03 -.77995146E+02 0.16841945E+03 0.80419002E+02 0.0000E+00 0.9000E+01
        2  1    1    2  501    0 0.26363873E+02 0.22866816E+02 -.36450097E+02 0.50464414E+02 0.32000000E+00 0.0000E+00 0.9000E+01
#aMCatNLO 1  0  0  1  2 0.11201627D+02 0.00000000D+00  -5  6  0 0.00000000D+00 0.00000000D+00 0.00000000D+00 0.00000000D+00 0.00000000D+00
  <mgrwgt>
 0.3654091191D+00   23    2    0
 0.195436439189700D+03 0.000000000000000D+00 0.000000000000000D+00 0.195436439189700D+03
 0.195436439189700D+03 0.000000000000000D+00 0.000000000000000D+00 -.195436439189700D+03
 0.193649102423963D+03 0.475291199158688D+02 -.124623852133257D+03 -.639128555855354D+02
 0.162323087655323D+03 -.738940026817969D+02 0.101756161070384D+03 0.637724774763211D+02
 0.349006883001137D+02 0.263648827659281D+02 0.228676910628733D+02 0.140378109214283D+00
 0.000000000000000D+00 -.000000000000000D+00 0.000000000000000D+00 0.000000000000000D+00
 0.203254062803092D+03 0.000000000000000D+00 0.000000000000000D+00 0.203254062803092D+03
 0.199570903052282D+03 0.000000000000000D+00 0.000000000000000D+00 -.199570903052282D+03
 0.196425456766465D+03 0.526343255809293D+02 -.126896551282757D+03 -.639128555855354D+02
 0.159269146725093D+03 -.696850778541798D+02 0.998824618497040D+02 0.637724774763211D+02
 0.353387499579626D+02 0.272841602980236D+02 0.224584536290817D+02 0.140378109214283D+00
 0.117916124058546D+02 -.102334080247730D+02 0.455563580397170D+01 0.368315975081022D+01
0.962783087781D-05 0.000000000000D+00 0.000000000000D+00 0.226221220100D-06 0.000000000000D+00  6 21 1 25 -24 2 21 2 0.12025004D-01 0.75179447D-01 0.33666658D+05 0.33666658D+05 0.33666658D+05 0.12096773D+01  1  2  2  1  6  1       21 0.423961422722D-01 0.100000000000D+01
0.271916463641D-06 0.508074593983D-06 -.194358166413D-07 0.226221220100D-06 0.000000000000D+00  6 21 1 25 -24 2 21 4 0.12025004D-01 0.75179447D-01 0.33666658D+05 0.33666658D+05 0.33666658D+05 0.12096773D+01  1  2  3  1  6  1       21 0.175215479044D-02 0.100000000000D+01
0.970375943496D-06 0.000000000000D+00 0.000000000000D+00 0.226221220100D-06 0.000000000000D+00  6 21 1 25 -24 2 21 4 0.12025004D-01 0.75179447D-01 0.33666658D+05 0.33666658D+05 0.33666658D+05 0.12096773D+01  1  2 15  1  6  1       21 0.625283528317D-02 0.100000000000D+01
0.289397133329D-04 0.000000000000D+00 0.000000000000D+00 0.225209772455D-06 0.000000000000D+00  6 21 1 25 -24 2 21 4 0.12629279D-01 0.75179447D-01 0.35762788D+05 0.35762788D+05 0.35762788D+05 0.12069700D+01  1  2 12  1  6  1       21 0.169202082413D+00 0.100000000000D+01
-.880560473729D-05 0.000000000000D+00 0.000000000000D+00 0.226221220100D-06 0.000000000000D+00  6 21 1 25 -24 2 21 4 0.12025004D-01 0.75179447D-01 0.33666658D+05 0.33666658D+05 0.33666658D+05 0.12096773D+01  1  2  4  1  6  1       21 -.567408913628D-01 0.100000000000D+01
-.318678752742D-03 0.000000000000D+00 -.509248361569D-04 0.226221220100D-06 0.000000000000D+00  6 21 1 25 -24 2 21 4 0.12763439D-01 0.75179447D-01 0.33666658D+05 0.33666658D+05 0.33666658D+05 0.12096773D+01  1  2  5  1  6  1       21 -.184557457179D+01 0.100000000000D+01
0.319428950236D-03 0.000000000000D+00 0.505649038856D-04 0.226221220100D-06 0.000000000000D+00  6 21 1 25 -24 2 21 4 0.12025004D-01 0.75179447D-01 0.33666658D+05 0.33666658D+05 0.33666658D+05 0.12096773D+01  1  2  6  1  6  1       21 0.205831216642D+01 0.100000000000D+01
0.510595304724D-06 0.000000000000D+00 0.000000000000D+00 0.225209772455D-06 0.000000000000D+00  6 -1 1 25 -24 2 -1 4 0.12629279D-01 0.75179447D-01 0.35762788D+05 0.35762788D+05 0.35762788D+05 0.12069700D+01  1  2 12  4  6  1       21 0.211320614156D-03 0.100000000000D+01
-.395316632537D-05 0.000000000000D+00 -.734847164345D-06 0.226221220100D-06 0.000000000000D+00  6 -1 1 25 -24 2 -1 4 0.12763439D-01 0.75179447D-01 0.33666658D+05 0.33666658D+05 0.33666658D+05 0.12096773D+01  1  2  5  4  6  1       21 -.162267854082D-02 0.100000000000D+01
0.510595304724D-06 0.000000000000D+00 0.000000000000D+00 0.225209772455D-06 0.000000000000D+00  6 1 1 25 -24 2 1 4 0.12629279D-01 0.75179447D-01 0.35762788D+05 0.35762788D+05 0.35762788D+05 0.12069700D+01  1  2 12  5  6  1       21 0.278557053558D-03 0.100000000000D+01
-.395316632537D-05 0.000000000000D+00 -.734847164345D-06 0.226221220100D-06 0.000000000000D+00  6 1 1 25 -24 2 1 4 0.12763439D-01 0.75179447D-01 0.33666658D+05 0.33666658D+05 0.33666658D+05 0.12096773D+01  1  2  5  5  6  1       21 -.214458957845D-02 0.100000000000D+01
0.510595304724D-06 0.000000000000D+00 0.000000000000D+00 0.225209772455D-06 0.000000000000D+00  6 -2 1 25 -24 2 -2 4 0.12629279D-01 0.75179447D-01 0.35762788D+05 0.35762788D+05 0.35762788D+05 0.12069700D+01  1  2 12  6  6  1       21 0.199726128852D-03 0.100000000000D+01
-.395316632537D-05 0.000000000000D+00 -.734847164345D-06 0.226221220100D-06 0.000000000000D+00  6 -2 1 25 -24 2 -2 4 0.12763439D-01 0.75179447D-01 0.33666658D+05 0.33666658D+05 0.33666658D+05 0.12096773D+01  1  2  5  6  6  1       21 -.153267555786D-02 0.100000000000D+01
0.510595304724D-06 0.000000000000D+00 0.000000000000D+00 0.225209772455D-06 0.000000000000D+00  6 2 1 25 -24 2 2 4 0.12629279D-01 0.75179447D-01 0.35762788D+05 0.35762788D+05 0.35762788D+05 0.12069700D+01  1  2 12  7  6  1       21 0.324639194602D-03 0.100000000000D+01
-.395316632537D-05 0.000000000000D+00 -.734847164345D-06 0.226221220100D-06 0.000000000000D+00  6 2 1 25 -24 2 2 4 0.12763439D-01 0.75179447D-01 0.33666658D+05 0.33666658D+05 0.33666658D+05 0.12096773D+01  1  2  5  7  6  1       21 -.250232921010D-02 0.100000000000D+01
0.510595304724D-06 0.000000000000D+00 0.000000000000D+00 0.225209772455D-06 0.000000000000D+00  6 -3 1 25 -24 2 -3 4 0.12629279D-01 0.75179447D-01 0.35762788D+05 0.35762788D+05 0.35762788D+05 0.12069700D+01  1  2 12  8  6  1       21 0.136598715110D-03 0.100000000000D+01
0.510595304724D-06 0.000000000000D+00 0.000000000000D+00 0.225209772455D-06 0.000000000000D+00  6 -4 1 25 -24 2 -4 4 0.12629279D-01 0.75179447D-01 0.35762788D+05 0.35762788D+05 0.35762788D+05 0.12069700D+01  1  2 12  8  6  1       21 0.119087397076D-03 0.100000000000D+01
-.395316632537D-05 0.000000000000D+00 -.734847164345D-06 0.226221220100D-06 0.000000000000D+00  6 -3 1 25 -24 2 -3 4 0.12763439D-01 0.75179447D-01 0.33666658D+05 0.33666658D+05 0.33666658D+05 0.12096773D+01  1  2  5  8  6  1       21 -.104603924857D-02 0.100000000000D+01
-.395316632537D-05 0.000000000000D+00 -.734847164345D-06 0.226221220100D-06 0.000000000000D+00  6 -4 1 25 -24 2 -4 4 0.12763439D-01 0.75179447D-01 0.33666658D+05 0.33666658D+05 0.33666658D+05 0.12096773D+01  1  2  5  8  6  1       21 -.911086190628D-03 0.100000000000D+01
0.510595304724D-06 0.000000000000D+00 0.000000000000D+00 0.225209772455D-06 0.000000000000D+00  6 3 1 25 -24 2 3 4 0.12629279D-01 0.75179447D-01 0.35762788D+05 0.35762788D+05 0.35762788D+05 0.12069700D+01  1  2 12  9  6  1       21 0.136582336973D-03 0.100000000000D+01
0.510595304724D-06 0.000000000000D+00 0.000000000000D+00 0.225209772455D-06 0.000000000000D+00  6 4 1 25 -24 2 4 4 0.12629279D-01 0.75179447D-01 0.35762788D+05 0.35762788D+05 0.35762788D+05 0.12069700D+01  1  2 12  9  6  1       21 0.119087397076D-03 0.100000000000D+01
-.395316632537D-05 0.000000000000D+00 -.734847164345D-06 0.226221220100D-06 0.000000000000D+00  6 3 1 25 -24 2 3 4 0.12763439D-01 0.75179447D-01 0.33666658D+05 0.33666658D+05 0.33666658D+05 0.12096773D+01  1  2  5  9  6  1       21 -.104591322990D-02 0.100000000000D+01
-.395316632537D-05 0.000000000000D+00 -.734847164345D-06 0.226221220100D-06 0.000000000000D+00  6 4 1 25 -24 2 4 4 0.12763439D-01 0.75179447D-01 0.33666658D+05 0.33666658D+05 0.33666658D+05 0.12096773D+01  1  2  5  9  6  1       21 -.911086190628D-03 0.100000000000D+01
  </mgrwgt>
  </event>
  <event>
  5     66 0.45631637E-03 0.25661962E+02 0.75467711E-02 0.11781249E+00
       21 -1    0    0  501  502 0.00000000E+00 0.00000000E+00 0.89291045E+02 0.89294195E+02 0.75000000E+00 0.0000E+00 0.9000E+01
        3 -1    0    0  502    0 0.00000000E+00 0.00000000E+00 -.27817231E+03 0.27817276E+03 0.50000000E+00 0.0000E+00 0.9000E+01
       25  1    1    2    0    0 0.39213900E+02 0.46086009E+02 -.14100113E+03 0.19790899E+03 0.12500000E+03 0.0000E+00 0.9000E+01
      -24  1    1    2    0    0 -.20741131E+02 -.28278917E+02 -.86474756E+02 0.12318681E+03 0.80419002E+02 0.0000E+00 0.9000E+01
        4  1    1    2  501    0 -.18472769E+02 -.17807092E+02 0.38594624E+02 0.46371147E+02 0.15500000E+01 0.0000E+00 0.9000E+01
#aMCatNLO 1  0  0  1  2 0.10549347D+02 0.00000000D+00  -5  6  0 0.00000000D+00 0.00000000D+00 0.00000000D+00 0.00000000D+00 0.00000000D+00
  <mgrwgt>
 0.4116125369D-01   14    2    0
 0.157603798843658D+03 0.000000000000000D+00 0.000000000000000D+00 0.157603798843658D+03
 0.157603798843658D+03 0.000000000000000D+00 0.000000000000000D+00 -.157603798843658D+03
 0.146232281786259D+03 0.392156281163981D+02 0.460876751184165D+02 -.457923678142057D+02
 0.917929626294854D+02 -.207400455208600D+02 -.282778707592925D+02 -.269989735182837D+02
 0.771823532715724D+02 -.184755825955380D+02 -.178098043591240D+02 0.727913413324894D+02
 0.000000000000000D+00 0.000000000000000D+00 0.000000000000000D+00 0.000000000000000D+00
 0.229748708595365D+03 0.000000000000000D+00 0.000000000000000D+00 0.229748708595365D+03
 0.179798780297162D+03 0.000000000000000D+00 0.000000000000000D+00 -.179798780297162D+03
 0.138999764580606D+03 0.372354453624126D+02 0.145779014983319D+02 -.457923678142057D+02
 0.100686939395936D+03 -.220763097567143D+02 -.495412533857885D+02 -.269989735182837D+02
 0.833405238017027D+02 -.195899897487644D+02 -.355428732125372D+02 0.727913413324894D+02
 0.865202611142832D+02 0.443085414306615D+01 0.705062250999938D+02 0.499499282982029D+02
0.971988003392D-05 0.000000000000D+00 0.000000000000D+00 0.329439212023D-05 0.000000000000D+00  6 21 3 25 -24 4 21 2 0.13737361D-01 0.42796017D-01 0.15910285D+05 0.15910285D+05 0.15910285D+05 0.12449161D+01  1  2  2  1  6  1       21 0.181932074354D-01 0.100000000000D+01
0.129430605601D-05 0.512932161405D-06 -.196216373669D-07 0.329439212023D-05 0.000000000000D+00  6 21 3 25 -24 4 21 4 0.13737361D-01 0.42796017D-01 0.15910285D+05 0.15910285D+05 0.15910285D+05 0.12449161D+01  1  2  3  1  6  1       21 0.375461611845D-02 0.100000000000D+01
0.945670301236D-06 0.000000000000D+00 0.000000000000D+00 0.329439212023D-05 0.000000000000D+00  6 21 3 25 -24 4 21 4 0.13737361D-01 0.42796017D-01 0.15910285D+05 0.15910285D+05 0.15910285D+05 0.12449161D+01  1  2 15  1  6  1       21 0.274326844047D-02 0.100000000000D+01
-.342345994493D-05 0.000000000000D+00 0.000000000000D+00 0.329439212023D-05 0.000000000000D+00  6 21 3 25 -24 4 21 4 0.13737361D-01 0.42796017D-01 0.15910285D+05 0.15910285D+05 0.15910285D+05 0.12449161D+01  1  2  4  1  6  1       21 -.993101888877D-02 0.100000000000D+01
-.253092637369D-04 0.000000000000D+00 -.118065533248D-04 0.329439212023D-05 0.000000000000D+00  6 21 3 25 -24 4 21 4 0.22648987D-01 0.42796017D-01 0.15910285D+05 0.15910285D+05 0.15910285D+05 0.12449161D+01  1  2  5  1  6  1       21 -.294422519922D-01 0.100000000000D+01
0.201350061843D-04 0.000000000000D+00 0.749314719308D-05 0.329439212023D-05 0.000000000000D+00  6 21 3 25 -24 4 21 4 0.13737361D-01 0.42796017D-01 0.15910285D+05 0.15910285D+05 0.15910285D+05 0.12449161D+01  1  2  6  1  6  1       21 0.584090744329D-01 0.100000000000D+01
-.361493666564D-05 0.000000000000D+00 -.205666590719D-05 0.329439212023D-05 0.000000000000D+00  6 -3 3 25 -24 4 -3 4 0.22648987D-01 0.42796017D-01 0.15910285D+05 0.15910285D+05 0.15910285D+05 0.12449161D+01  1  2  5  4  6  1       21 -.196468987835D-03 0.100000000000D+01
-.361493666564D-05 0.000000000000D+00 -.205666590719D-05 0.329439212023D-05 0.000000000000D+00  6 3 3 25 -24 4 3 4 0.22648987D-01 0.42796017D-01 0.15910285D+05 0.15910285D+05 0.15910285D+05 0.12449161D+01  1  2  5  5  6  1       21 -.196454405725D-03 0.100000000000D+01
-.361493666564D-05 0.000000000000D+00 -.205666590719D-05 0.329439212023D-05 0.000000000000D+00  6 -4 3 25 -24 4 -4 4 0.22648987D-01 0.42796017D-01 0.15910285D+05 0.15910285D+05 0.15910285D+05 0.12449161D+01  1  2  5  6  6  1       21 -.166241721565D-03 0.100000000000D+01
-.361493666564D-05 0.000000000000D+00 -.205666590719D-05 0.329439212023D-05 0.000000000000D+00  6 4 3 25 -24 4 4 4 0.22648987D-01 0.42796017D-01 0.15910285D+05 0.15910285D+05 0.15910285D+05 0.12449161D+01  1  2  5  7  6  1       21 -.166241721565D-03 0.100000000000D+01
-.361493666564D-05 0.000000000000D+00 -.205666590719D-05 0.329439212023D-05 0.000000000000D+00  6 -1 3 25 -24 4 -1 4 0.22648987D-01 0.42796017D-01 0.15910285D+05 0.15910285D+05 0.15910285D+05 0.12449161D+01  1  2  5  8  6  1       21 -.337650548376D-03 0.100000000000D+01
-.361493666564D-05 0.000000000000D+00 -.205666590719D-05 0.329439212023D-05 0.000000000000D+00  6 -2 3 25 -24 4 -2 4 0.22648987D-01 0.42796017D-01 0.15910285D+05 0.15910285D+05 0.15910285D+05 0.12449161D+01  1  2  5  8  6  1       21 -.305226298232D-03 0.100000000000D+01
-.361493666564D-05 0.000000000000D+00 -.205666590719D-05 0.329439212023D-05 0.000000000000D+00  6 1 3 25 -24 4 1 4 0.22648987D-01 0.42796017D-01 0.15910285D+05 0.15910285D+05 0.15910285D+05 0.12449161D+01  1  2  5  9  6  1       21 -.530464796036D-03 0.100000000000D+01
-.361493666564D-05 0.000000000000D+00 -.205666590719D-05 0.329439212023D-05 0.000000000000D+00  6 2 3 25 -24 4 2 4 0.22648987D-01 0.42796017D-01 0.15910285D+05 0.15910285D+05 0.15910285D+05 0.12449161D+01  1  2  5  9  6  1       21 -.666893374178D-03 0.100000000000D+01
  </mgrwgt>
  </event>
  <event>
  5     66 0.45631637E-03 0.72853417E+02 0.75467711E-02 0.11955796E+00
       21 -1    0    0  501  502 0.00000000E+00 0.00000000E+00 0.43063333E+02 0.43069864E+02 0.75000000E+00 0.0000E+00 0.9000E+01
        1 -1    0    0  502    0 0.00000000E+00 0.00000000E+00 -.60229852E+03 0.60229860E+03 0.32000000E+00 0.0000E+00 0.9000E+01
       25  1    1    2    0    0 -.11529873E+02 -.70441656E+02 -.34375524E+03 0.37267631E+03 0.12500000E+03 0.0000E+00 0.9000E+01
      -24  1    1    2    0    0 -.34563265E+01 -.54877013E+01 -.15398477E+03 0.17384069E+03 0.80419002E+02 0.0000E+00 0.9000E+01
        2  1    1    2  501    0 0.14986199E+02 0.75929357E+02 -.61495173E+02 0.98851465E+02 0.32000000E+00 0.0000E+00 0.9000E+01
#aMCatNLO 1  0  0  2  1 0.61087322D+01 0.00000000D+00  -5  6  0 0.00000000D+00 0.00000000D+00 0.00000000D+00 0.00000000D+00 0.00000000D+00
  <mgrwgt>
 0.4442714253D-01    8    2    0
 0.161056252618255D+03 0.000000000000000D+00 0.000000000000000D+00 0.161056252618255D+03
 0.161056252618255D+03 0.000000000000000D+00 0.000000000000000D+00 -.161056252618255D+03
 0.149865520543685D+03 -.115299157729749D+02 -.704418731327601D+02 -.417094449692873D+02
 0.809580639276469D+02 -.345634968885496D+01 -.548781850587100D+01 -.670295870622774D+01
 0.912889207651786D+02 0.149862654618299D+02 0.759296916386311D+02 0.484124036755150D+02
 0.000000000000000D+00 -.000000000000000D+00 0.000000000000000D+00 0.000000000000000D+00
 0.164670685229615D+03 0.000000000000000D+00 0.000000000000000D+00 0.164670685229615D+03
 0.163687143286966D+03 0.000000000000000D+00 0.000000000000000D+00 -.163687143286966D+03
 0.150485651226250D+03 -.920531562879599D+01 -.720868614209057D+02 -.417094449692873D+02
 0.809792324327098D+02 -.220301859562526D+01 -.637473016450371D+01 -.670295870622774D+01
 0.907055411774755D+02 0.163948311417258D+02 0.749329292266890D+02 0.484124036755150D+02
 0.618740368014634D+01 -.498649691730460D+01 0.352866235872037D+01 0.983541942649232D+00
0.107573263365D-05 0.000000000000D+00 0.000000000000D+00 0.494070058245D-06 0.000000000000D+00  6 21 1 25 -24 2 21 2 0.66256371D-02 0.92661819D-01 0.22803870D+05 0.22803870D+05 0.22803870D+05 0.12276021D+01  1  2  2  2  6  2        1 0.104601465442D-01 0.100000000000D+01
-.459818689569D-07 0.567679706896D-07 -.217159425503D-08 0.494070058245D-06 0.000000000000D+00  6 21 1 25 -24 2 21 4 0.66256371D-02 0.92661819D-01 0.22803870D+05 0.22803870D+05 0.22803870D+05 0.12276021D+01  1  2  3  2  6  2        1 -.673806633467D-03 0.100000000000D+01
0.101151403058D-06 0.000000000000D+00 0.000000000000D+00 0.494070058245D-06 0.000000000000D+00  6 21 1 25 -24 2 21 4 0.66256371D-02 0.92661819D-01 0.22803870D+05 0.22803870D+05 0.22803870D+05 0.12276021D+01  1  2 15  2  6  2        1 0.148224697932D-02 0.100000000000D+01
0.319956622167D-05 0.000000000000D+00 0.000000000000D+00 0.492562847624D-06 0.000000000000D+00  6 21 1 25 -24 2 21 4 0.66256371D-02 0.95195401D-01 0.23732254D+05 0.23732254D+05 0.23732254D+05 0.12257282D+01  1  2 12  2  6  2        1 0.449138979759D-01 0.100000000000D+01
-.166766127664D-05 0.000000000000D+00 0.000000000000D+00 0.494070058245D-06 0.000000000000D+00  6 21 1 25 -24 2 21 4 0.66256371D-02 0.92661819D-01 0.22803870D+05 0.22803870D+05 0.22803870D+05 0.12276021D+01  1  2  4  2  6  2        1 -.244374849493D-01 0.100000000000D+01
0.753511718820D-06 0.000000000000D+00 0.000000000000D+00 0.494070058245D-06 0.157236156174D-06  6 21 1 25 -24 2 21 4 0.67743300D-02 0.94175471D-01 0.23732254D+05 0.23732254D+05 0.23732254D+05 0.12257282D+01  1  2 11  2  6  2        1 0.103348550981D-01 0.100000000000D+01
0.581162204029D-07 0.000000000000D+00 0.000000000000D+00 0.492562847624D-06 0.000000000000D+00  6 21 21 25 -24 2 -1 4 0.66256371D-02 0.95195401D-01 0.23732254D+05 0.23732254D+05 0.23732254D+05 0.12257282D+01  1  2 12 10  6  2        1 0.203930147724D-02 0.100000000000D+01
0.889193058760D-08 0.000000000000D+00 0.000000000000D+00 0.492562847624D-06 0.532549368762D-09  6 21 21 25 -24 2 -1 4 0.67743300D-02 0.94175471D-01 0.23732254D+05 0.23732254D+05 0.23732254D+05 0.12257282D+01  1  2 11 10  6  2        1 0.307986035804D-03 0.100000000000D+01
  </mgrwgt>
  </event>
  <event>
  6     66 0.45631637E-03 0.18291648E+02 0.75467711E-02 0.12163200E+00
       21 -1    0    0  501  502 0.00000000E+00 0.00000000E+00 0.83837383E+02 0.83840738E+02 0.75000000E+00 0.0000E+00 0.9000E+01
        1 -1    0    0  503    0 0.00000000E+00 0.00000000E+00 -.87511246E+03 0.87511252E+03 0.32000000E+00 0.0000E+00 0.9000E+01
       25  1    1    2    0    0 0.29130531E+02 0.72639364E+02 -.26026228E+03 0.29914297E+03 0.12500000E+03 0.0000E+00 0.9000E+01
      -24  1    1    2    0    0 -.26315758E+02 -.56955957E+02 -.56713739E+03 0.57623652E+03 0.80419002E+02 0.0000E+00 0.9000E+01
        2  1    1    2  501    0 -.18709564E+01 -.20818070E+02 0.57696320E+02 0.61366605E+02 0.32000000E+00 0.0000E+00 0.9000E+01
       21  1    1    2  503  502 -.94381689E+00 0.51346630E+01 -.21571728E+02 0.22207150E+02 0.75000000E+00 0.0000E+00 0.9000E+01
#aMCatNLO 2  0  0  2  1 0.15705961D+03 0.00000000D+00  -5  6  0 0.00000000D+00 0.00000000D+00 0.00000000D+00 0.00000000D+00 0.00000000D+00
  <mgrwgt>
 0.1911481963D+01    1    2    0
 0.266937617347991D+03 0.000000000000000D+00 0.000000000000000D+00 0.266937617347991D+03
 0.266937617347991D+03 0.000000000000000D+00 0.000000000000000D+00 -.266937617347991D+03
 0.150300588786250D+03 0.288654065985309D+02 0.740817400572408D+02 -.253761912328540D+02
 0.192914369601191D+03 -.266572293919355D+02 -.550982299712101D+02 -.164323812088935D+03
 0.190660276308540D+03 -.220817720659543D+01 -.189835100860307D+02 0.189700003321789D+03
 0.000000000000000D+00 -.000000000000000D+00 0.000000000000000D+00 -.000000000000000D+00
 0.267947972011055D+03 0.000000000000000D+00 0.000000000000000D+00 0.267947972011055D+03
 0.273780716877871D+03 0.000000000000000D+00 0.000000000000000D+00 -.273780716877871D+03
 0.149646307439283D+03 0.291305323826443D+02 0.726393717747461D+02 -.253761912328540D+02
 0.193406386320719D+03 -.263157569692436D+02 -.569559481614066D+02 -.164323812088935D+03
 0.190848066471774D+03 -.187095851956038D+01 -.208180866062681D+02 0.189700003321789D+03
 0.782792865714933D+01 -.943816893840314D+00 0.513466299292865D+01 -.583274486681617D+01
0.698471629106D-03 0.000000000000D+00 0.000000000000D+00 0.123199144513D-04 0.328738703988D-05  6 21 1 25 -24 2 21 4 0.12897461D-01 0.13462397D+00 0.18988884D+05 0.18988884D+05 0.18988884D+05 0.12363142D+01  1  2  1  2  6  2        1 0.191148196340D+01 0.100000000000D+01
  </mgrwgt>
  </event>
  <event>
  5     66 -.45631637E-03 0.21586374E+02 0.75467711E-02 0.12202513E+00
       21 -1    0    0  501  502 0.00000000E+00 0.00000000E+00 0.91854337E+02 0.91857398E+02 0.75000000E+00 0.0000E+00 0.9000E+01
        1 -1    0    0  502    0 0.00000000E+00 0.00000000E+00 -.21001645E+03 0.21001669E+03 0.32000000E+00 0.0000E+00 0.9000E+01
       25  1    1    2    0    0 0.22759061E+02 -.34358416E+01 -.13730848E+02 0.12784098E+03 0.12500000E+03 0.0000E+00 0.9000E+01
      -24  1    1    2    0    0 -.31056553E+02 0.23362876E+02 -.11840683E+03 0.14831631E+03 0.80419002E+02 0.0000E+00 0.9000E+01
        2  1    1    2  501    0 0.82974923E+01 -.19927034E+02 0.13975568E+02 0.25716803E+02 0.32000000E+00 0.0000E+00 0.9000E+01
#aMCatNLO 1  0  0  2  1 0.83990662D+01 0.00000000D+00  -5  6  0 0.00000000D+00 0.00000000D+00 0.00000000D+00 0.00000000D+00 0.00000000D+00
  <mgrwgt>
 -.2171760577D+00    7    2    0
 0.138893558050351D+03 0.000000000000000D+00 0.000000000000000D+00 0.138893558050351D+03
 0.138893558050351D+03 0.000000000000000D+00 0.000000000000000D+00 -.138893558050351D+03
 0.133085207634833D+03 0.227588834079269D+02 -.343541599104927D+01 0.394576182023118D+02
 0.110810603257328D+03 -.310567004715181D+02 0.233632302145461D+02 -.655851711109078D+02
 0.338913052085415D+02 0.829781706359115D+01 -.199278142234969D+02 0.261275529085960D+02
 0.000000000000000D+00 -.000000000000000D+00 0.000000000000000D+00 -.000000000000000D+00
 0.143512622584125D+03 0.000000000000000D+00 0.000000000000000D+00 0.143512622584125D+03
 0.198024619778730D+03 0.000000000000000D+00 0.000000000000000D+00 -.198024619778730D+03
 0.135580015896895D+03 0.311687679833499D+02 -.151177041511899D+02 0.394576182023118D+02
 0.107461076403874D+03 -.242242581929675D+02 0.138721891877981D+02 -.655851711109078D+02
 0.363454405322612D+02 0.104964005529936D+02 -.229818972655385D+02 0.261275529085960D+02
 0.621507095298258D+02 -.174409103433760D+02 0.242274122289303D+02 -.545119971946046D+02
0.326508937961D-05 0.000000000000D+00 0.000000000000D+00 0.150140598958D-05 0.000000000000D+00  6 21 1 25 -24 2 21 2 0.14131691D-01 0.32310477D-01 0.14161602D+05 0.14161602D+05 0.14161602D+05 0.12506802D+01  1  2  2  2  6  2        1 0.330884022576D-01 0.100000000000D+01
0.222560374464D-06 0.172303500333D-06 -.659127474348D-08 0.150140598958D-05 0.000000000000D+00  6 21 1 25 -24 2 21 4 0.14131691D-01 0.32310477D-01 0.14161602D+05 0.14161602D+05 0.14161602D+05 0.12506802D+01  1  2  3  2  6  2        1 0.352793964049D-02 0.100000000000D+01
0.312849103687D-06 0.000000000000D+00 0.000000000000D+00 0.150140598958D-05 0.000000000000D+00  6 21 1 25 -24 2 21 4 0.14131691D-01 0.32310477D-01 0.14161602D+05 0.14161602D+05 0.14161602D+05 0.12506802D+01  1  2 15  2  6  2        1 0.495916111325D-02 0.100000000000D+01
-.241447591905D-04 0.000000000000D+00 0.000000000000D+00 0.150140598958D-05 0.000000000000D+00  6 21 1 25 -24 2 21 4 0.14131691D-01 0.32310477D-01 0.14161602D+05 0.14161602D+05 0.14161602D+05 0.12506802D+01  1  2  4  2  6  2        1 -.382733239300D+00 0.100000000000D+01
-.322509691006D-04 0.000000000000D+00 -.467120945660D-05 0.150140598958D-05 0.000000000000D+00  6 21 1 25 -24 2 21 4 0.14131691D-01 0.47103962D-01 0.14161602D+05 0.14161602D+05 0.14161602D+05 0.12506802D+01  1  2  5  2  6  2        1 -.321301392302D+00 0.100000000000D+01
0.320228307202D-04 0.000000000000D+00 0.435789061580D-05 0.150140598958D-05 0.000000000000D+00  6 21 1 25 -24 2 21 4 0.14131691D-01 0.32310477D-01 0.14161602D+05 0.14161602D+05 0.14161602D+05 0.12506802D+01  1  2  6  2  6  2        1 0.507613334901D+00 0.100000000000D+01
-.132317941720D-05 0.000000000000D+00 -.212926284838D-06 0.150140598958D-05 0.000000000000D+00  6 21 21 25 -24 2 -1 4 0.14131691D-01 0.47103962D-01 0.14161602D+05 0.14161602D+05 0.14161602D+05 0.12506802D+01  1  2  5 10  6  2        1 -.623302640554D-01 0.100000000000D+01
  </mgrwgt>
  </event>
  <event>
  5     66 0.45631637E-03 0.22776530E+02 0.75467711E-02 0.11770721E+00
       21 -1    0    0  501  502 0.00000000E+00 0.00000000E+00 0.34528050E+02 0.34536195E+02 0.75000000E+00 0.0000E+00 0.9000E+01
        3 -1    0    0  502    0 0.00000000E+00 0.00000000E+00 -.91443498E+03 0.91443511E+03 0.50000000E+00 0.0000E+00 0.9000E+01
       25  1    1    2    0    0 -.11115697E+03 -.42145630E+02 -.38831992E+03 0.42491115E+03 0.12500000E+03 0.0000E+00 0.9000E+01
      -24  1    1    2    0    0 0.88753008E+02 0.38107896E+02 -.48394122E+03 0.49999563E+03 0.80419002E+02 0.0000E+00 0.9000E+01
        4  1    1    2  501    0 0.22403966E+02 0.40377343E+01 -.76457870E+01 0.24064528E+02 0.15500000E+01 0.0000E+00 0.9000E+01
#aMCatNLO 1  0  0  1  2 0.18749079D+02 0.00000000D+00  -5  6  0 0.00000000D+00 0.00000000D+00 0.00000000D+00 0.00000000D+00 0.00000000D+00
  <mgrwgt>
 0.3974374725D-01   23    2    0
 0.177700834011612D+03 0.000000000000000D+00 0.000000000000000D+00 0.177700834011612D+03
 0.177700834011612D+03 0.000000000000000D+00 0.000000000000000D+00 -.177700834011612D+03
 0.173168335527445D+03 -.111163362161867D+03 -.421467816881447D+02 0.151204542110127D+02
 0.136910627742447D+03 0.887479570574459D+02 0.381069857338268D+02 -.543043441252349D+02
 0.453227047533321D+02 0.224154051044210D+02 0.403979595431782D+01 0.391838899142222D+02
 0.000000000000000D+00 -.000000000000000D+00 -.000000000000000D+00 0.000000000000000D+00
 0.193422128219750D+03 0.000000000000000D+00 0.000000000000000D+00 0.193422128219750D+03
 0.183627199462590D+03 0.000000000000000D+00 0.000000000000000D+00 -.183627199462590D+03
 0.168008892210818D+03 -.105544146660571D+03 -.351253872868409D+02 0.151204542110127D+02
 0.141595980685939D+03 0.933349825798369D+02 0.438386248414796D+02 -.543043441252349D+02
 0.462910017355199D+02 0.239242899823655D+02 0.592519718724240D+01 0.391838899142222D+02
 0.211534530500632D+02 -.117151259016310D+02 -.146384347418810D+02 0.979492875716078D+01
0.739779043102D-05 0.000000000000D+00 0.000000000000D+00 0.131200764066D-05 0.000000000000D+00  6 21 3 25 -24 4 21 2 0.53126448D-02 0.14068294D+00 0.25754448D+05 0.25754448D+05 0.25754448D+05 0.12219157D+01  1  2  2  1  6  1       21 0.532029396432D-02 0.100000000000D+01
0.919808420485D-06 0.390392126463D-06 -.149340074823D-07 0.131200764066D-05 0.000000000000D+00  6 21 3 25 -24 4 21 4 0.53126448D-02 0.14068294D+00 0.25754448D+05 0.25754448D+05 0.25754448D+05 0.12219157D+01  1  2  3  1  6  1       21 0.987673680638D-03 0.100000000000D+01
0.777490533352D-06 0.000000000000D+00 0.000000000000D+00 0.131200764066D-05 0.000000000000D+00  6 21 3 25 -24 4 21 4 0.53126448D-02 0.14068294D+00 0.25754448D+05 0.25754448D+05 0.25754448D+05 0.12219157D+01  1  2 15  1  6  1       21 0.834855302077D-03 0.100000000000D+01
0.212195857692D-04 0.000000000000D+00 0.000000000000D+00 0.129977086430D-05 0.000000000000D+00  6 21 3 25 -24 4 21 4 0.58656003D-02 0.14068294D+00 0.29154198D+05 0.29154198D+05 0.29154198D+05 0.12162041D+01  1  2 12  1  6  1       21 0.189316854602D-01 0.100000000000D+01
-.561657886557D-05 0.000000000000D+00 0.000000000000D+00 0.131200764066D-05 0.000000000000D+00  6 21 3 25 -24 4 21 4 0.53126448D-02 0.14068294D+00 0.25754448D+05 0.25754448D+05 0.25754448D+05 0.12219157D+01  1  2  4  1  6  1       21 -.603098101431D-02 0.100000000000D+01
-.108138424578D-03 0.000000000000D+00 -.209208825403D-04 0.131200764066D-05 0.000000000000D+00  6 21 3 25 -24 4 21 4 0.59773666D-02 0.14068294D+00 0.25754448D+05 0.25754448D+05 0.25754448D+05 0.12219157D+01  1  2  5  1  6  1       21 -.950435373718D-01 0.100000000000D+01
0.107636417987D-03 0.000000000000D+00 0.203506162869D-04 0.131200764066D-05 0.000000000000D+00  6 21 3 25 -24 4 21 4 0.53126448D-02 0.14068294D+00 0.25754448D+05 0.25754448D+05 0.25754448D+05 0.12219157D+01  1  2  6  1  6  1       21 0.115578042945D+00 0.100000000000D+01
0.536126146961D-06 0.000000000000D+00 0.000000000000D+00 0.129977086430D-05 0.000000000000D+00  6 -3 3 25 -24 4 -3 4 0.58656003D-02 0.14068294D+00 0.29154198D+05 0.29154198D+05 0.29154198D+05 0.12162041D+01  1  2 12  4  6  1       21 0.200870628149D-04 0.100000000000D+01
-.280873915843D-05 0.000000000000D+00 -.644512303791D-06 0.131200764066D-05 0.000000000000D+00  6 -3 3 25 -24 4 -3 4 0.59773666D-02 0.14068294D+00 0.25754448D+05 0.25754448D+05 0.25754448D+05 0.12219157D+01  1  2  5  4  6  1       21 -.103358048085D-03 0.100000000000D+01
0.536126146961D-06 0.000000000000D+00 0.000000000000D+00 0.129977086430D-05 0.000000000000D+00  6 3 3 25 -24 4 3 4 0.58656003D-02 0.14068294D+00 0.29154198D+05 0.29154198D+05 0.29154198D+05 0.12162041D+01  1  2 12  5  6  1       21 0.200849894552D-04 0.100000000000D+01
-.280873915843D-05 0.000000000000D+00 -.644512303791D-06 0.131200764066D-05 0.000000000000D+00  6 3 3 25 -24 4 3 4 0.59773666D-02 0.14068294D+00 0.25754448D+05 0.25754448D+05 0.25754448D+05 0.12219157D+01  1  2  5  5  6  1       21 -.103347179327D-03 0.100000000000D+01
0.536126146961D-06 0.000000000000D+00 0.000000000000D+00 0.129977086430D-05 0.000000000000D+00  6 -4 3 25 -24 4 -4 4 0.58656003D-02 0.14068294D+00 0.29154198D+05 0.29154198D+05 0.29154198D+05 0.12162041D+01  1  2 12  6  6  1       21 0.178924070368D-04 0.100000000000D+01
-.280873915843D-05 0.000000000000D+00 -.644512303791D-06 0.131200764066D-05 0.000000000000D+00  6 -4 3 25 -24 4 -4 4 0.59773666D-02 0.14068294D+00 0.25754448D+05 0.25754448D+05 0.25754448D+05 0.12219157D+01  1  2  5  6  6  1       21 -.919117407418D-04 0.100000000000D+01
0.536126146961D-06 0.000000000000D+00 0.000000000000D+00 0.129977086430D-05 0.000000000000D+00  6 4 3 25 -24 4 4 4 0.58656003D-02 0.14068294D+00 0.29154198D+05 0.29154198D+05 0.29154198D+05 0.12162041D+01  1  2 12  7  6  1       21 0.178924070368D-04 0.100000000000D+01
-.280873915843D-05 0.000000000000D+00 -.644512303791D-06 0.131200764066D-05 0.000000000000D+00  6 4 3 25 -24 4 4 4 0.59773666D-02 0.14068294D+00 0.25754448D+05 0.25754448D+05 0.25754448D+05 0.12219157D+01  1  2  5  7  6  1       21 -.919117407418D-04 0.100000000000D+01
0.536126146961D-06 0.000000000000D+00 0.000000000000D+00 0.129977086430D-05 0.000000000000D+00  6 -1 3 25 -24 4 -1 4 0.58656003D-02 0.14068294D+00 0.29154198D+05 0.29154198D+05 0.29154198D+05 0.12162041D+01  1  2 12  8  6  1       21 0.284602956577D-04 0.100000000000D+01
0.536126146961D-06 0.000000000000D+00 0.000000000000D+00 0.129977086430D-05 0.000000000000D+00  6 -2 3 25 -24 4 -2 4 0.58656003D-02 0.14068294D+00 0.29154198D+05 0.29154198D+05 0.29154198D+05 0.12162041D+01  1  2 12  8  6  1       21 0.277200377064D-04 0.100000000000D+01
-.280873915843D-05 0.000000000000D+00 -.644512303791D-06 0.131200764066D-05 0.000000000000D+00  6 -1 3 25 -24 4 -1 4 0.59773666D-02 0.14068294D+00 0.25754448D+05 0.25754448D+05 0.25754448D+05 0.12219157D+01  1  2  5  8  6  1       21 -.147123893259D-03 0.100000000000D+01
-.280873915843D-05 0.000000000000D+00 -.644512303791D-06 0.131200764066D-05 0.000000000000D+00  6 -2 3 25 -24 4 -2 4 0.59773666D-02 0.14068294D+00 0.25754448D+05 0.25754448D+05 0.25754448D+05 0.12219157D+01  1  2  5  8  6  1       21 -.143219409647D-03 0.100000000000D+01
0.536126146961D-06 0.000000000000D+00 0.000000000000D+00 0.129977086430D-05 0.000000000000D+00  6 1 3 25 -24 4 1 4 0.58656003D-02 0.14068294D+00 0.29154198D+05 0.29154198D+05 0.29154198D+05 0.12162041D+01  1  2 12  9  6  1       21 0.326821601136D-04 0.100000000000D+01
0.536126146961D-06 0.000000000000D+00 0.000000000000D+00 0.129977086430D-05 0.000000000000D+00  6 2 3 25 -24 4 2 4 0.58656003D-02 0.14068294D+00 0.29154198D+05 0.29154198D+05 0.29154198D+05 0.12162041D+01  1  2 12  9  6  1       21 0.355203163471D-04 0.100000000000D+01
-.280873915843D-05 0.000000000000D+00 -.644512303791D-06 0.131200764066D-05 0.000000000000D+00  6 1 3 25 -24 4 1 4 0.59773666D-02 0.14068294D+00 0.25754448D+05 0.25754448D+05 0.25754448D+05 0.12219157D+01  1  2  5  9  6  1       21 -.169395455576D-03 0.100000000000D+01
-.280873915843D-05 0.000000000000D+00 -.644512303791D-06 0.131200764066D-05 0.000000000000D+00  6 2 3 25 -24 4 2 4 0.59773666D-02 0.14068294D+00 0.25754448D+05 0.25754448D+05 0.25754448D+05 0.12219157D+01  1  2  5  9  6  1       21 -.184357926939D-03 0.100000000000D+01
  </mgrwgt>
  </event>
  <event>
  6     66 -.45631637E-03 0.16366435E+02 0.75467711E-02 0.12283064E+00
       21 -1    0    0  503  502 0.00000000E+00 0.00000000E+00 0.78131192E+02 0.78134791E+02 0.75000000E+00 0.0000E+00 0.9000E+01
        1 -1    0    0  502    0 0.00000000E+00 0.00000000E+00 -.94322390E+03 0.94322396E+03 0.32000000E+00 0.0000E+00 0.9000E+01
       25  1    1    2    0    0 -.84031291E+01 -.22730626E+02 -.64724079E+03 0.65964607E+03 0.12500000E+03 0.0000E+00 0.9000E+01
      -24  1    1    2    0    0 -.12954125E+02 0.18272663E+02 -.27254969E+03 0.28504780E+03 0.80419002E+02 0.0000E+00 0.9000E+01
        2  1    1    2  501    0 0.12720520E+02 0.23733311E+02 0.47006533E+02 0.54173778E+02 0.32000000E+00 0.0000E+00 0.9000E+01
       21  1    1    2  503  501 0.86367348E+01 -.19275348E+02 0.76912325E+01 0.22491104E+02 0.75000000E+00 0.0000E+00 0.9000E+01
#aMCatNLO 2  0  0  1  2 0.21121842D+02 0.00000000D+00  -5  6  0 0.00000000D+00 0.00000000D+00 0.00000000D+00 0.00000000D+00 0.00000000D+00
  <mgrwgt>
 -.7884863503D+00    2    2    0
 0.242661608682209D+03 0.000000000000000D+00 0.000000000000000D+00 0.242661608682209D+03
 0.242661608682209D+03 0.000000000000000D+00 0.000000000000000D+00 -.242661608682209D+03
 0.194434027480241D+03 -.495298724208768D+01 -.304306344042729D+02 -.145701871811313D+03
 0.955733202738397D+02 -.112464342191076D+02 0.144614471914388D+02 -.482848615642617D+02
 0.195315869610337D+03 0.161994214611953D+02 0.159691872128341D+02 0.193986733375574D+03
 0.000000000000000D+00 0.000000000000000D+00 -.000000000000000D+00 0.000000000000000D+00
 0.301032586368412D+03 0.000000000000000D+00 0.000000000000000D+00 0.301032586368412D+03
 0.244809622986152D+03 0.000000000000000D+00 0.000000000000000D+00 -.244809622986152D+03
 0.193497622275353D+03 -.840313926522016D+01 -.227306319178407D+02 -.145701871811313D+03
 0.964382879256056D+02 -.129541299920914D+02 0.182726594539367D+02 -.482848615642617D+02
 0.195846713537156D+03 0.127205344498615D+02 0.237333200561650D+02 0.193986733375574D+03
 0.600595856164499D+02 0.863673480745009D+01 -.192753475922610D+02 0.562229633822602D+02
-.324087539091D-03 0.000000000000D+00 0.000000000000D+00 0.251154223541D-04 0.000000000000D+00  6 21 1 25 -24 2 21 4 0.12056308D-01 0.14383704D+00 0.16751703D+05 0.16751703D+05 0.16751703D+05 0.12423910D+01  1  2 13  1  6  1       21 -.919686142432D+00 0.100000000000D+01
0.466526204665D-04 0.000000000000D+00 0.000000000000D+00 0.255212329050D-04 0.391867391828D-06  6 21 1 25 -24 2 21 4 0.12020350D-01 0.14511027D+00 0.16751703D+05 0.16751703D+05 0.16751703D+05 0.12423910D+01  1  2  1  1  6  1       21 0.131199792127D+00 0.100000000000D+01
  </mgrwgt>
  </event>
  <event>
  5     66 0.45631637E-03 0.20036632E+02 0.75467711E-02 0.11690934E+00
       21 -1    0    0  501  502 0.00000000E+00 0.00000000E+00 0.53370774E+03 0.53370827E+03 0.75000000E+00 0.0000E+00 0.9000E+01
        1 -1    0    0  502    0 0.00000000E+00 0.00000000E+00 -.76533574E+02 0.76534243E+02 0.32000000E+00 0.0000E+00 0.9000E+01
       25  1    1    2    0    0 0.12553722E+03 -.17471102E+02 0.12135373E+03 0.21544503E+03 0.12500000E+03 0.0000E+00 0.9000E+01
      -24  1    1    2    0    0 -.13749593E+03 0.13948781E+01 0.19149526E+03 0.24908779E+03 0.80419002E+02 0.0000E+00 0.9000E+01
        2  1    1    2  501    0 0.11958707E+02 0.16076224E+02 0.14432518E+03 0.14570970E+03 0.32000000E+00 0.0000E+00 0.9000E+01
#aMCatNLO 1  0  0  1  2 0.65692421D+01 0.00000000D+00  -5  6  0 0.00000000D+00 0.00000000D+00 0.00000000D+00 0.00000000D+00 0.00000000D+00
  <mgrwgt>
 0.3344728574D+00   23    2    0
 0.202106223657864D+03 0.000000000000000D+00 0.000000000000000D+00 0.202106223657864D+03
 0.202106223657864D+03 0.000000000000000D+00 0.000000000000000D+00 -.202106223657864D+03
 0.188004989084949D+03 0.125537129662129D+03 -.174712207311162D+02 -.604653739192138D+02
 0.159463892320457D+03 -.137496000326890D+03 0.139477727766358D+01 0.737709225055941D+01
 0.567435659103209D+02 0.119588706647613D+02 0.160764434534526D+02 0.530882816686544D+02
 0.000000000000000D+00 -.000000000000000D+00 0.000000000000000D+00 0.000000000000000D+00
 0.217336163028920D+03 0.000000000000000D+00 0.000000000000000D+00 0.217336163028920D+03
 0.202842546127844D+03 0.000000000000000D+00 0.000000000000000D+00 -.202842546127844D+03
 0.189444064408629D+03 0.127315312938018D+03 -.199700572849742D+02 -.604653739192138D+02
 0.158170893228816D+03 -.135999605361062D+03 -.708069200717845D+00 0.737709225055941D+01
 0.566508676640339D+02 0.124930780855894D+02 0.153257351048769D+02 0.530882816686544D+02
 0.159128838552850D+02 -.380878566254486D+01 0.535239138081512D+01 0.144936169010760D+02
0.115028648728D-04 0.000000000000D+00 0.000000000000D+00 0.184501488113D-05 0.000000000000D+00  6 21 1 25 -24 2 21 2 0.82108975D-01 0.11774488D-01 0.31924063D+05 0.31924063D+05 0.31924063D+05 0.12120751D+01  1  2  2  1  6  1       21 0.120586941468D-01 0.100000000000D+01
0.221111931252D-05 0.607022856349D-06 -.232209700559D-07 0.184501488113D-05 0.000000000000D+00  6 21 1 25 -24 2 21 4 0.82108975D-01 0.11774488D-01 0.31924063D+05 0.31924063D+05 0.31924063D+05 0.12120751D+01  1  2  3  1  6  1       21 0.340537960705D-02 0.100000000000D+01
0.106455730581D-05 0.000000000000D+00 0.000000000000D+00 0.184501488113D-05 0.000000000000D+00  6 21 1 25 -24 2 21 4 0.82108975D-01 0.11774488D-01 0.31924063D+05 0.31924063D+05 0.31924063D+05 0.12120751D+01  1  2 15  1  6  1       21 0.163954143914D-02 0.100000000000D+01
0.196971901519D-03 0.000000000000D+00 0.000000000000D+00 0.184003895608D-05 0.000000000000D+00  6 21 1 25 -24 2 21 4 0.88439471D-01 0.11774488D-01 0.33101451D+05 0.33101451D+05 0.33101451D+05 0.12104396D+01  1  2 12  1  6  1       21 0.254437629911D+00 0.100000000000D+01
-.496388479526D-04 0.000000000000D+00 0.000000000000D+00 0.184501488113D-05 0.000000000000D+00  6 21 1 25 -24 2 21 4 0.82108975D-01 0.11774488D-01 0.31924063D+05 0.31924063D+05 0.31924063D+05 0.12120751D+01  1  2  4  1  6  1       21 -.764495699433D-01 0.100000000000D+01
-.676073007412D-03 0.000000000000D+00 -.457327375104D-04 0.184501488113D-05 0.000000000000D+00  6 21 1 25 -24 2 21 4 0.88460035D-01 0.11774488D-01 0.31924063D+05 0.31924063D+05 0.31924063D+05 0.12120751D+01  1  2  5  1  6  1       21 -.878312110088D+00 0.100000000000D+01
0.670438679199D-03 0.000000000000D+00 0.452289981035D-04 0.184501488113D-05 0.000000000000D+00  6 21 1 25 -24 2 21 4 0.82108975D-01 0.11774488D-01 0.31924063D+05 0.31924063D+05 0.31924063D+05 0.12120751D+01  1  2  6  1  6  1       21 0.103255314763D+01 0.100000000000D+01
0.408640397431D-05 0.000000000000D+00 0.000000000000D+00 0.184003895608D-05 0.000000000000D+00  6 -1 1 25 -24 2 -1 4 0.88439471D-01 0.11774488D-01 0.33101451D+05 0.33101451D+05 0.33101451D+05 0.12104396D+01  1  2 12  4  6  1       21 0.594020618438D-03 0.100000000000D+01
-.123972718863D-04 0.000000000000D+00 -.841878507199D-06 0.184501488113D-05 0.000000000000D+00  6 -1 1 25 -24 2 -1 4 0.88460035D-01 0.11774488D-01 0.31924063D+05 0.31924063D+05 0.31924063D+05 0.12120751D+01  1  2  5  4  6  1       21 -.181062912426D-02 0.100000000000D+01
0.408640397431D-05 0.000000000000D+00 0.000000000000D+00 0.184003895608D-05 0.000000000000D+00  6 1 1 25 -24 2 1 4 0.88439471D-01 0.11774488D-01 0.33101451D+05 0.33101451D+05 0.33101451D+05 0.12104396D+01  1  2 12  5  6  1       21 0.199019744692D-02 0.100000000000D+01
-.123972718863D-04 0.000000000000D+00 -.841878507199D-06 0.184501488113D-05 0.000000000000D+00  6 1 1 25 -24 2 1 4 0.88460035D-01 0.11774488D-01 0.31924063D+05 0.31924063D+05 0.31924063D+05 0.12120751D+01  1  2  5  5  6  1       21 -.606682521586D-02 0.100000000000D+01
0.408640397431D-05 0.000000000000D+00 0.000000000000D+00 0.184003895608D-05 0.000000000000D+00  6 -2 1 25 -24 2 -2 4 0.88439471D-01 0.11774488D-01 0.33101451D+05 0.33101451D+05 0.33101451D+05 0.12104396D+01  1  2 12  6  6  1       21 0.448014700973D-03 0.100000000000D+01
-.123972718863D-04 0.000000000000D+00 -.841878507199D-06 0.184501488113D-05 0.000000000000D+00  6 -2 1 25 -24 2 -2 4 0.88460035D-01 0.11774488D-01 0.31924063D+05 0.31924063D+05 0.31924063D+05 0.12120751D+01  1  2  5  6  6  1       21 -.136527266580D-02 0.100000000000D+01
0.408640397431D-05 0.000000000000D+00 0.000000000000D+00 0.184003895608D-05 0.000000000000D+00  6 2 1 25 -24 2 2 4 0.88439471D-01 0.11774488D-01 0.33101451D+05 0.33101451D+05 0.33101451D+05 0.12104396D+01  1  2 12  7  6  1       21 0.320131867634D-02 0.100000000000D+01
-.123972718863D-04 0.000000000000D+00 -.841878507199D-06 0.184501488113D-05 0.000000000000D+00  6 2 1 25 -24 2 2 4 0.88460035D-01 0.11774488D-01 0.31924063D+05 0.31924063D+05 0.31924063D+05 0.12120751D+01  1  2  5  7  6  1       21 -.975761511634D-02 0.100000000000D+01
0.408640397431D-05 0.000000000000D+00 0.000000000000D+00 0.184003895608D-05 0.000000000000D+00  6 -3 1 25 -24 2 -3 4 0.88439471D-01 0.11774488D-01 0.33101451D+05 0.33101451D+05 0.33101451D+05 0.12104396D+01  1  2 12  8  6  1       21 0.283107524949D-03 0.100000000000D+01
0.408640397431D-05 0.000000000000D+00 0.000000000000D+00 0.184003895608D-05 0.000000000000D+00  6 -4 1 25 -24 2 -4 4 0.88439471D-01 0.11774488D-01 0.33101451D+05 0.33101451D+05 0.33101451D+05 0.12104396D+01  1  2 12  8  6  1       21 0.228454233033D-03 0.100000000000D+01
-.123972718863D-04 0.000000000000D+00 -.841878507199D-06 0.184501488113D-05 0.000000000000D+00  6 -3 1 25 -24 2 -3 4 0.88460035D-01 0.11774488D-01 0.31924063D+05 0.31924063D+05 0.31924063D+05 0.12120751D+01  1  2  5  8  6  1       21 -.862171915115D-03 0.100000000000D+01
-.123972718863D-04 0.000000000000D+00 -.841878507199D-06 0.184501488113D-05 0.000000000000D+00  6 -4 1 25 -24 2 -4 4 0.88460035D-01 0.11774488D-01 0.31924063D+05 0.31924063D+05 0.31924063D+05 0.12120751D+01  1  2  5  8  6  1       21 -.695470097288D-03 0.100000000000D+01
0.408640397431D-05 0.000000000000D+00 0.000000000000D+00 0.184003895608D-05 0.000000000000D+00  6 3 1 25 -24 2 3 4 0.88439471D-01 0.11774488D-01 0.33101451D+05 0.33101451D+05 0.33101451D+05 0.12104396D+01  1  2 12  9  6  1       21 0.283549444350D-03 0.100000000000D+01
0.408640397431D-05 0.000000000000D+00 0.000000000000D+00 0.184003895608D-05 0.000000000000D+00  6 4 1 25 -24 2 4 4 0.88439471D-01 0.11774488D-01 0.33101451D+05 0.33101451D+05 0.33101451D+05 0.12104396D+01  1  2 12  9  6  1       21 0.228454233033D-03 0.100000000000D+01
-.123972718863D-04 0.000000000000D+00 -.841878507199D-06 0.184501488113D-05 0.000000000000D+00  6 3 1 25 -24 2 3 4 0.88460035D-01 0.11774488D-01 0.31924063D+05 0.31924063D+05 0.31924063D+05 0.12120751D+01  1  2  5  9  6  1       21 -.863517953325D-03 0.100000000000D+01
-.123972718863D-04 0.000000000000D+00 -.841878507199D-06 0.184501488113D-05 0.000000000000D+00  6 4 1 25 -24 2 4 4 0.88460035D-01 0.11774488D-01 0.31924063D+05 0.31924063D+05 0.31924063D+05 0.12120751D+01  1  2  5  9  6  1       21 -.695470097288D-03 0.100000000000D+01
  </mgrwgt>
  </event>
  <event>
  5     66 0.45631637E-03 0.65555491E+02 0.75467711E-02 0.12105922E+00
       21 -1    0    0  501  502 0.00000000E+00 0.00000000E+00 0.11157744E+03 0.11157997E+03 0.75000000E+00 0.0000E+00 0.9000E+01
        3 -1    0    0  502    0 0.00000000E+00 0.00000000E+00 -.18191964E+03 0.18192032E+03 0.50000000E+00 0.0000E+00 0.9000E+01
       25  1    1    2    0    0 -.24741979E+02 0.28471195E+01 -.39633681E+02 0.13347697E+03 0.12500000E+03 0.0000E+00 0.9000E+01
      -24  1    1    2    0    0 -.34354836E+02 0.25495021E+02 -.23466363E+02 0.94064536E+02 0.80419002E+02 0.0000E+00 0.9000E+01
        4  1    1    2  501    0 0.59096815E+02 -.28342141E+02 -.72421479E+01 0.65958788E+02 0.15500000E+01 0.0000E+00 0.9000E+01
#aMCatNLO 1  0  0  2  2 0.17403679D+03 0.00000000D+00  -5  6  0 0.00000000D+00 0.00000000D+00 0.00000000D+00 0.00000000D+00 0.00000000D+00
  <mgrwgt>
 0.4276293478D-03    1    2    0
 0.142473151924435D+03 0.000000000000000D+00 0.000000000000000D+00 0.142473151924435D+03
 0.142473151924435D+03 0.000000000000000D+00 0.000000000000000D+00 -.142473151924435D+03
 0.127701431467900D+03 -.247492527948023D+02 0.285060779762201D+01 -.787426950478250D+01
 0.910980464879364D+02 -.343600245304356D+02 0.254975096162607D+02 -.950703520684257D+00
 0.661468258930342D+02 0.591092773252378D+02 -.283481174138827D+02 0.882497302546675D+01
 0.000000000000000D+00 -.000000000000000D+00 0.000000000000000D+00 0.000000000000000D+00
 0.523452368607434D+03 0.000000000000000D+00 0.000000000000000D+00 0.523452368607434D+03
 0.191566266405383D+03 0.000000000000000D+00 0.000000000000000D+00 -.191566266405383D+03
 0.144174958404743D+03 0.177662220292039D+01 -.713880811082891D+02 -.787426950478250D+01
 0.853003636404969D+02 -.171495481847121D+02 -.226699193361264D+02 -.950703520684257D+00
 0.107786978572428D+03 0.760792921076558D+02 -.758425600390100D+02 0.882497302546675D+01
 0.377756334395149D+03 -.607063661258641D+02 0.169900560483426D+03 0.331886102202050D+03
0.101944426291D-06 0.000000000000D+00 0.000000000000D+00 0.417166763876D-06 0.000000000000D+00  6 21 3 25 -24 4 21 4 0.17166007D-01 0.27987883D-01 0.20179198D+05 0.20179198D+05 0.20179198D+05 0.12333998D+01  1  2 14  2  6  2        3 0.427629347840D-03 0.100000000000D+01
  </mgrwgt>
  </event>
  <event>
  5     66 0.45631637E-03 0.72762460E+02 0.75467711E-02 0.11535238E+00
       21 -1    0    0  501  502 0.00000000E+00 0.00000000E+00 0.25409697E+03 0.25409808E+03 0.75000000E+00 0.0000E+00 0.9000E+01
        1 -1    0    0  502    0 0.00000000E+00 0.00000000E+00 -.21576253E+03 0.21576276E+03 0.32000000E+00 0.0000E+00 0.9000E+01
       25  1    1    2    0    0 -.51066062E+02 0.27709368E+02 -.34997992E+02 0.14221607E+03 0.12500000E+03 0.0000E+00 0.9000E+01
      -24  1    1    2    0    0 0.10944609E+03 -.71401049E+02 -.68599765E+02 0.16807647E+03 0.80419002E+02 0.0000E+00 0.9000E+01
        2  1    1    2  501    0 -.58380025E+02 0.43691681E+02 0.14193220E+03 0.15956830E+03 0.32000000E+00 0.0000E+00 0.9000E+01
#aMCatNLO 1  0  0  1  2 0.23416802D+02 0.00000000D+00  -5  6  0 0.00000000D+00 0.00000000D+00 0.00000000D+00 0.00000000D+00 0.00000000D+00
  <mgrwgt>
 0.7506340828D-01   32    2    0
 0.234147218371648D+03 0.000000000000000D+00 0.000000000000000D+00 0.234147218371648D+03
 0.234147218371648D+03 0.000000000000000D+00 0.000000000000000D+00 -.234147218371648D+03
 0.145556706745352D+03 -.510660196898251D+02 0.277093366192441D+02 -.467569158062458D+02
 0.174254326237629D+03 0.109446137408220D+03 -.714010868288211D+02 -.825880261553907D+02
 0.148483403760315D+03 -.583801177183951D+02 0.436917502095771D+02 0.129344941961637D+03
 0.000000000000000D+00 0.000000000000000D+00 -.000000000000000D+00 0.000000000000000D+00
 0.310607718444188D+03 0.000000000000000D+00 0.000000000000000D+00 0.310607718444188D+03
 0.236239566086576D+03 0.000000000000000D+00 0.000000000000000D+00 -.236239566086576D+03
 0.148577679837522D+03 -.566351458876057D+02 0.325050460771633D+02 -.467569158062458D+02
 0.167995191636776D+03 0.102966001650155D+03 -.658208849731088D+02 -.825880261553907D+02
 0.152306671777285D+03 -.640752624077660D+02 0.485959772428807D+02 0.129344941961637D+03
 0.779677412791809D+02 0.177444066452163D+02 -.152801383469353D+02 0.743681523576122D+02
0.478135835452D-05 0.000000000000D+00 0.000000000000D+00 0.551258339802D-06 0.000000000000D+00  6 21 1 25 -24 2 21 2 0.39091945D-01 0.33194338D-01 0.33160683D+05 0.33160683D+05 0.33160683D+05 0.12103590D+01  1  2  2  1  6  1       21 0.640500604009D-02 0.100000000000D+01
0.125289643847D-06 0.252319212447D-06 -.965218494736D-08 0.551258339802D-06 0.000000000000D+00  6 21 1 25 -24 2 21 4 0.39091945D-01 0.33194338D-01 0.33160683D+05 0.33160683D+05 0.33160683D+05 0.12103590D+01  1  2  3  1  6  1       21 0.245873570563D-03 0.100000000000D+01
0.464119973049D-06 0.000000000000D+00 0.000000000000D+00 0.551258339802D-06 0.000000000000D+00  6 21 1 25 -24 2 21 4 0.39091945D-01 0.33194338D-01 0.33160683D+05 0.33160683D+05 0.33160683D+05 0.12103590D+01  1  2 15  1  6  1       21 0.910808199617D-03 0.100000000000D+01
0.542415972083D-04 0.000000000000D+00 0.000000000000D+00 0.545460317336D-06 0.000000000000D+00  6 21 1 25 -24 2 21 4 0.51991204D-01 0.33194338D-01 0.38251029D+05 0.38251029D+05 0.38251029D+05 0.12039770D+01  1  2 12  1  6  1       21 0.578386352790D-01 0.100000000000D+01
0.409855561845D-04 0.000000000000D+00 0.000000000000D+00 0.545460317336D-06 0.000000000000D+00  6 21 1 25 -24 2 21 4 0.56280495D-01 0.33194338D-01 0.38251029D+05 0.38251029D+05 0.38251029D+05 0.12039770D+01  1  2 12  1  6  1       21 0.369690774776D-01 0.100000000000D+01
-.565662652955D-04 0.000000000000D+00 0.000000000000D+00 0.551258339802D-06 0.000000000000D+00  6 21 1 25 -24 2 21 4 0.39091945D-01 0.33194338D-01 0.33160683D+05 0.33160683D+05 0.33160683D+05 0.12103590D+01  1  2  4  1  6  1       21 -.111007974758D+00 0.100000000000D+01
-.110137718676D-03 0.000000000000D+00 -.664052394910D-05 0.551258339802D-06 0.000000000000D+00  6 21 1 25 -24 2 21 4 0.52093579D-01 0.33194338D-01 0.33160683D+05 0.33160683D+05 0.33160683D+05 0.12103590D+01  1  2  5  1  6  1       21 -.119910046407D+00 0.100000000000D+01
0.102892857383D-03 0.000000000000D+00 0.566158889683D-05 0.551258339802D-06 0.000000000000D+00  6 21 1 25 -24 2 21 4 0.39091945D-01 0.33194338D-01 0.33160683D+05 0.33160683D+05 0.33160683D+05 0.12103590D+01  1  2  6  1  6  1       21 0.201921191994D+00 0.100000000000D+01
0.433432184586D-05 0.000000000000D+00 0.000000000000D+00 0.545460317336D-06 0.000000000000D+00  6 -1 1 25 -24 2 -1 4 0.51991204D-01 0.33194338D-01 0.38251029D+05 0.38251029D+05 0.38251029D+05 0.12039770D+01  1  2 12  4  6  1       21 0.465582654462D-03 0.100000000000D+01
0.437524947996D-05 0.000000000000D+00 0.000000000000D+00 0.545460317336D-06 0.000000000000D+00  6 -1 1 25 -24 2 -1 4 0.56280495D-01 0.33194338D-01 0.38251029D+05 0.38251029D+05 0.38251029D+05 0.12039770D+01  1  2 12  4  6  1       21 0.405179124053D-03 0.100000000000D+01
-.644138544243D-05 0.000000000000D+00 -.592348164642D-06 0.551258339802D-06 0.000000000000D+00  6 -1 1 25 -24 2 -1 4 0.52093579D-01 0.33194338D-01 0.33160683D+05 0.33160683D+05 0.33160683D+05 0.12103590D+01  1  2  5  4  6  1       21 -.704212127470D-03 0.100000000000D+01
0.433432184586D-05 0.000000000000D+00 0.000000000000D+00 0.545460317336D-06 0.000000000000D+00  6 1 1 25 -24 2 1 4 0.51991204D-01 0.33194338D-01 0.38251029D+05 0.38251029D+05 0.38251029D+05 0.12039770D+01  1  2 12  5  6  1       21 0.108662359586D-02 0.100000000000D+01
0.437524947996D-05 0.000000000000D+00 0.000000000000D+00 0.545460317336D-06 0.000000000000D+00  6 1 1 25 -24 2 1 4 0.56280495D-01 0.33194338D-01 0.38251029D+05 0.38251029D+05 0.38251029D+05 0.12039770D+01  1  2 12  5  6  1       21 0.992410748753D-03 0.100000000000D+01
-.644138544243D-05 0.000000000000D+00 -.592348164642D-06 0.551258339802D-06 0.000000000000D+00  6 1 1 25 -24 2 1 4 0.52093579D-01 0.33194338D-01 0.33160683D+05 0.33160683D+05 0.33160683D+05 0.12103590D+01  1  2  5  5  6  1       21 -.164510037262D-02 0.100000000000D+01
0.433432184586D-05 0.000000000000D+00 0.000000000000D+00 0.545460317336D-06 0.000000000000D+00  6 -2 1 25 -24 2 -2 4 0.51991204D-01 0.33194338D-01 0.38251029D+05 0.38251029D+05 0.38251029D+05 0.12039770D+01  1  2 12  6  6  1       21 0.379532509763D-03 0.100000000000D+01
0.437524947996D-05 0.000000000000D+00 0.000000000000D+00 0.545460317336D-06 0.000000000000D+00  6 -2 1 25 -24 2 -2 4 0.56280495D-01 0.33194338D-01 0.38251029D+05 0.38251029D+05 0.38251029D+05 0.12039770D+01  1  2 12  6  6  1       21 0.326332013061D-03 0.100000000000D+01
-.644138544243D-05 0.000000000000D+00 -.592348164642D-06 0.551258339802D-06 0.000000000000D+00  6 -2 1 25 -24 2 -2 4 0.52093579D-01 0.33194338D-01 0.33160683D+05 0.33160683D+05 0.33160683D+05 0.12103590D+01  1  2  5  6  6  1       21 -.573632223619D-03 0.100000000000D+01
0.433432184586D-05 0.000000000000D+00 0.000000000000D+00 0.545460317336D-06 0.000000000000D+00  6 2 1 25 -24 2 2 4 0.51991204D-01 0.33194338D-01 0.38251029D+05 0.38251029D+05 0.38251029D+05 0.12039770D+01  1  2 12  7  6  1       21 0.157238508281D-02 0.100000000000D+01
0.437524947996D-05 0.000000000000D+00 0.000000000000D+00 0.545460317336D-06 0.000000000000D+00  6 2 1 25 -24 2 2 4 0.56280495D-01 0.33194338D-01 0.38251029D+05 0.38251029D+05 0.38251029D+05 0.12039770D+01  1  2 12  7  6  1       21 0.145748934731D-02 0.100000000000D+01
-.644138544243D-05 0.000000000000D+00 -.592348164642D-06 0.551258339802D-06 0.000000000000D+00  6 2 1 25 -24 2 2 4 0.52093579D-01 0.33194338D-01 0.33160683D+05 0.33160683D+05 0.33160683D+05 0.12103590D+01  1  2  5  7  6  1       21 -.238025714953D-02 0.100000000000D+01
0.433432184586D-05 0.000000000000D+00 0.000000000000D+00 0.545460317336D-06 0.000000000000D+00  6 -3 1 25 -24 2 -3 4 0.51991204D-01 0.33194338D-01 0.38251029D+05 0.38251029D+05 0.38251029D+05 0.12039770D+01  1  2 12  8  6  1       21 0.240257310569D-03 0.100000000000D+01
0.433432184586D-05 0.000000000000D+00 0.000000000000D+00 0.545460317336D-06 0.000000000000D+00  6 -4 1 25 -24 2 -4 4 0.51991204D-01 0.33194338D-01 0.38251029D+05 0.38251029D+05 0.38251029D+05 0.12039770D+01  1  2 12  8  6  1       21 0.198418636955D-03 0.100000000000D+01
0.437524947996D-05 0.000000000000D+00 0.000000000000D+00 0.545460317336D-06 0.000000000000D+00  6 -3 1 25 -24 2 -3 4 0.56280495D-01 0.33194338D-01 0.38251029D+05 0.38251029D+05 0.38251029D+05 0.12039770D+01  1  2 12  8  6  1       21 0.206347748350D-03 0.100000000000D+01
0.437524947996D-05 0.000000000000D+00 0.000000000000D+00 0.545460317336D-06 0.000000000000D+00  6 -4 1 25 -24 2 -4 4 0.56280495D-01 0.33194338D-01 0.38251029D+05 0.38251029D+05 0.38251029D+05 0.12039770D+01  1  2 12  8  6  1       21 0.169858730833D-03 0.100000000000D+01
-.644138544243D-05 0.000000000000D+00 -.592348164642D-06 0.551258339802D-06 0.000000000000D+00  6 -3 1 25 -24 2 -3 4 0.52093579D-01 0.33194338D-01 0.33160683D+05 0.33160683D+05 0.33160683D+05 0.12103590D+01  1  2  5  8  6  1       21 -.362088983294D-03 0.100000000000D+01
-.644138544243D-05 0.000000000000D+00 -.592348164642D-06 0.551258339802D-06 0.000000000000D+00  6 -4 1 25 -24 2 -4 4 0.52093579D-01 0.33194338D-01 0.33160683D+05 0.33160683D+05 0.33160683D+05 0.12103590D+01  1  2  5  8  6  1       21 -.298572909052D-03 0.100000000000D+01
0.433432184586D-05 0.000000000000D+00 0.000000000000D+00 0.545460317336D-06 0.000000000000D+00  6 3 1 25 -24 2 3 4 0.51991204D-01 0.33194338D-01 0.38251029D+05 0.38251029D+05 0.38251029D+05 0.12039770D+01  1  2 12  9  6  1       21 0.240371302659D-03 0.100000000000D+01
0.433432184586D-05 0.000000000000D+00 0.000000000000D+00 0.545460317336D-06 0.000000000000D+00  6 4 1 25 -24 2 4 4 0.51991204D-01 0.33194338D-01 0.38251029D+05 0.38251029D+05 0.38251029D+05 0.12039770D+01  1  2 12  9  6  1       21 0.198418636955D-03 0.100000000000D+01
0.437524947996D-05 0.000000000000D+00 0.000000000000D+00 0.545460317336D-06 0.000000000000D+00  6 3 1 25 -24 2 3 4 0.56280495D-01 0.33194338D-01 0.38251029D+05 0.38251029D+05 0.38251029D+05 0.12039770D+01  1  2 12  9  6  1       21 0.206468130904D-03 0.100000000000D+01
0.437524947996D-05 0.000000000000D+00 0.000000000000D+00 0.545460317336D-06 0.000000000000D+00  6 4 1 25 -24 2 4 4 0.56280495D-01 0.33194338D-01 0.38251029D+05 0.38251029D+05 0.38251029D+05 0.12039770D+01  1  2 12  9  6  1       21 0.169858730833D-03 0.100000000000D+01
-.644138544243D-05 0.000000000000D+00 -.592348164642D-06 0.551258339802D-06 0.000000000000D+00  6 3 1 25 -24 2 3 4 0.52093579D-01 0.33194338D-01 0.33160683D+05 0.33160683D+05 0.33160683D+05 0.12103590D+01  1  2  5  9  6  1       21 -.362260743884D-03 0.100000000000D+01
-.644138544243D-05 0.000000000000D+00 -.592348164642D-06 0.551258339802D-06 0.000000000000D+00  6 4 1 25 -24 2 4 4 0.52093579D-01 0.33194338D-01 0.33160683D+05 0.33160683D+05 0.33160683D+05 0.12103590D+01  1  2  5  9  6  1       21 -.298572909052D-03 0.100000000000D+01
  </mgrwgt>
  </event>
  <event>
  5     66 -.45631637E-03 0.40053670E+02 0.75467711E-02 0.11293598E+00
       21 -1    0    0  501  502 0.00000000E+00 0.00000000E+00 0.16241540E+03 0.16241714E+03 0.75000000E+00 0.0000E+00 0.9000E+01
        1 -1    0    0  502    0 0.00000000E+00 0.00000000E+00 -.40605209E+03 0.40605222E+03 0.32000000E+00 0.0000E+00 0.9000E+01
       25  1    1    2    0    0 -.88549652E+02 -.40395935E+02 0.27311254E+02 0.16076000E+03 0.12500000E+03 0.0000E+00 0.9000E+01
      -24  1    1    2    0    0 0.12383609E+03 0.21444801E+02 -.31476819E+03 0.34834105E+03 0.80419002E+02 0.0000E+00 0.9000E+01
        2  1    1    2  501    0 -.35286438E+02 0.18951134E+02 0.43820254E+02 0.59368302E+02 0.32000000E+00 0.0000E+00 0.9000E+01
#aMCatNLO 1  0  0  1  5 0.44873119D+01 0.00000000D+00  -5  6  0 0.00000000D+00 0.00000000D+00 0.00000000D+00 0.00000000D+00 0.00000000D+00
  <mgrwgt>
 -.3769013295D+00   12    2    0
 0.256806624731946D+03 0.000000000000000D+00 0.000000000000000D+00 0.256806624731946D+03
 0.256806624731946D+03 0.000000000000000D+00 0.000000000000000D+00 -.256806624731946D+03
 0.190885035477830D+03 -.885495624165687D+02 -.403959835032241D+02 0.106485850149276D+03
 0.236232721905275D+03 0.123836201636698D+03 0.214447411882824D+02 -.183148576800277D+03
 0.864954920807862D+02 -.352866392201290D+02 0.189512423149418D+02 0.766627266510014D+02
 0.000000000000000D+00 0.000000000000000D+00 0.000000000000000D+00 0.000000000000000D+00
 0.100804138398394D+04 0.000000000000000D+00 0.000000000000000D+00 0.100804138398394D+04
 0.264603553724314D+03 0.000000000000000D+00 0.000000000000000D+00 -.264603553724314D+03
 0.210300186046090D+03 -.110375854678132D+03 -.712678235466622D+02 0.106485850149276D+03
 0.223541244419469D+03 0.988224164201268D+02 -.139355958306081D+02 -.183148576800277D+03
 0.889767808866569D+02 -.448331252522915D+02 0.544837218794133D+01 0.766627266510014D+02
 0.749826726356039D+03 0.563865635102963D+02 0.797550471893289D+02 0.743437830259627D+03
0.109715486950D-04 0.000000000000D+00 0.000000000000D+00 0.308582451257D-06 0.000000000000D+00  6 21 1 25 -24 2 21 2 0.24987128D-01 0.62469695D-01 0.30220856D+05 0.30220856D+05 0.30220856D+05 0.12145642D+01  1  2  2  1  6  1       21 0.161057339358D-01 0.100000000000D+01
0.542315610054D-06 0.578984531335D-06 -.221483957718D-07 0.308582451257D-06 0.000000000000D+00  6 21 1 25 -24 2 21 4 0.24987128D-01 0.62469695D-01 0.30220856D+05 0.30220856D+05 0.30220856D+05 0.12145642D+01  1  2  3  1  6  1       21 0.117437189594D-02 0.100000000000D+01
0.114032183569D-05 0.000000000000D+00 0.000000000000D+00 0.308582451257D-06 0.000000000000D+00  6 21 1 25 -24 2 21 4 0.24987128D-01 0.62469695D-01 0.30220856D+05 0.30220856D+05 0.30220856D+05 0.12145642D+01  1  2 15  1  6  1       21 0.246934053039D-02 0.100000000000D+01
-.202458025170D-02 0.000000000000D+00 -.454326504167D-04 0.308582451257D-06 0.000000000000D+00  6 21 1 25 -24 2 21 4 0.98957615D-01 0.62469695D-01 0.30220856D+05 0.30220856D+05 0.30220856D+05 0.12145642D+01  1  2  5  1  6  1       21 -.245285196362D+00 0.100000000000D+01
-.832071403389D-03 0.000000000000D+00 -.178742279164D-04 0.308582451257D-06 0.000000000000D+00  6 -1 1 25 -24 2 -1 4 0.98957615D-01 0.62469695D-01 0.30220856D+05 0.30220856D+05 0.30220856D+05 0.12145642D+01  1  2  5  4  6  1       21 -.115267947069D-01 0.100000000000D+01
-.832071403389D-03 0.000000000000D+00 -.178742279164D-04 0.308582451257D-06 0.000000000000D+00  6 1 1 25 -24 2 1 4 0.98957615D-01 0.62469695D-01 0.30220856D+05 0.30220856D+05 0.30220856D+05 0.12145642D+01  1  2  5  5  6  1       21 -.421568270092D-01 0.100000000000D+01
-.832071403389D-03 0.000000000000D+00 -.178742279164D-04 0.308582451257D-06 0.000000000000D+00  6 -2 1 25 -24 2 -2 4 0.98957615D-01 0.62469695D-01 0.30220856D+05 0.30220856D+05 0.30220856D+05 0.12145642D+01  1  2  5  6  6  1       21 -.857892535556D-02 0.100000000000D+01
-.832071403389D-03 0.000000000000D+00 -.178742279164D-04 0.308582451257D-06 0.000000000000D+00  6 2 1 25 -24 2 2 4 0.98957615D-01 0.62469695D-01 0.30220856D+05 0.30220856D+05 0.30220856D+05 0.12145642D+01  1  2  5  7  6  1       21 -.695266853243D-01 0.100000000000D+01
-.832071403389D-03 0.000000000000D+00 -.178742279164D-04 0.308582451257D-06 0.000000000000D+00  6 -3 1 25 -24 2 -3 4 0.98957615D-01 0.62469695D-01 0.30220856D+05 0.30220856D+05 0.30220856D+05 0.12145642D+01  1  2  5  8  6  1       21 -.542743863906D-02 0.100000000000D+01
-.832071403389D-03 0.000000000000D+00 -.178742279164D-04 0.308582451257D-06 0.000000000000D+00  6 -4 1 25 -24 2 -4 4 0.98957615D-01 0.62469695D-01 0.30220856D+05 0.30220856D+05 0.30220856D+05 0.12145642D+01  1  2  5  8  6  1       21 -.435551268743D-02 0.100000000000D+01
-.832071403389D-03 0.000000000000D+00 -.178742279164D-04 0.308582451257D-06 0.000000000000D+00  6 3 1 25 -24 2 3 4 0.98957615D-01 0.62469695D-01 0.30220856D+05 0.30220856D+05 0.30220856D+05 0.12145642D+01  1  2  5  9  6  1       21 -.543788313086D-02 0.100000000000D+01
-.832071403389D-03 0.000000000000D+00 -.178742279164D-04 0.308582451257D-06 0.000000000000D+00  6 4 1 25 -24 2 4 4 0.98957615D-01 0.62469695D-01 0.30220856D+05 0.30220856D+05 0.30220856D+05 0.12145642D+01  1  2  5  9  6  1       21 -.435551268743D-02 0.100000000000D+01
  </mgrwgt>
  </event>
  <event>
  5     66 0.45631637E-03 0.71883674E+02 0.75467711E-02 0.11741540E+00
       21 -1    0    0  501  502 0.00000000E+00 0.00000000E+00 0.11707555E+03 0.11707795E+03 0.75000000E+00 0.0000E+00 0.9000E+01
        1 -1    0    0  502    0 0.00000000E+00 0.00000000E+00 -.36006097E+03 0.36006111E+03 0.32000000E+00 0.0000E+00 0.9000E+01
       25  1    1    2    0    0 -.79888885E+02 0.14225998E+02 0.83535165E+01 0.14926284E+03 0.12500000E+03 0.0000E+00 0.9000E+01
      -24  1    1    2    0    0 0.13604869E+02 0.49268274E+02 -.52310722E+02 0.10870181E+03 0.80419002E+02 0.0000E+00 0.9000E+01
        2  1    1    2  501    0 0.66284016E+02 -.63494272E+02 -.19902822E+03 0.21917442E+03 0.32000000E+00 0.0000E+00 0.9000E+01
#aMCatNLO 1  0  0  1  5 0.10283449D+02 0.00000000D+00  -5  6  0 0.00000000D+00 0.00000000D+00 0.00000000D+00 0.00000000D+00 0.00000000D+00
  <mgrwgt>
 0.7680316179D-01   32    2    0
 0.205316688973883D+03 0.000000000000000D+00 0.000000000000000D+00 0.205316688973883D+03
 0.205316688973883D+03 0.000000000000000D+00 0.000000000000000D+00 -.205316688973883D+03
 0.178380425902577D+03 -.798889641579748D+02 0.142260733497446D+02 0.980303452406367D+02
 0.953530441765230D+02 0.136048271124688D+02 0.492683138284367D+02 0.353963431754108D+01
 0.136899907868665D+03 0.662841370455060D+02 -.634943871781813D+02 -.101569979558178D+03
 0.000000000000000D+00 -.000000000000000D+00 0.000000000000000D+00 0.000000000000000D+00
 0.214467859208389D+03 0.000000000000000D+00 0.000000000000000D+00 0.214467859208389D+03
 0.208290482521819D+03 0.000000000000000D+00 0.000000000000000D+00 -.208290482521819D+03
 0.176458507710761D+03 -.758109890171052D+02 0.124639600351791D+02 0.980303452406367D+02
 0.952062898368218D+02 0.157948241881952D+02 0.483220052138202D+02 0.353963431754108D+01
 0.139097323884643D+03 0.694560264393155D+02 -.648649763407158D+02 -.101569979558178D+03
 0.119962202979828D+02 -.943986161040557D+01 0.407901109171653D+01 0.617737668657000D+01
0.293506658150D-05 0.000000000000D+00 0.000000000000D+00 0.150858838469D-06 0.000000000000D+00  6 21 1 25 -24 2 21 2 0.18011819D-01 0.55394191D-01 0.28241600D+05 0.28241600D+05 0.28241600D+05 0.12176612D+01  1  2  2  1  6  1       21 0.931717565731D-02 0.100000000000D+01
-.375998659686D-06 0.154887718805D-06 -.592505379788D-08 0.150858838469D-06 0.000000000000D+00  6 21 1 25 -24 2 21 4 0.18011819D-01 0.55394191D-01 0.28241600D+05 0.28241600D+05 0.28241600D+05 0.12176612D+01  1  2  3  1  6  1       21 -.176972411005D-02 0.100000000000D+01
0.319088436071D-06 0.000000000000D+00 0.000000000000D+00 0.150858838469D-06 0.000000000000D+00  6 21 1 25 -24 2 21 4 0.18011819D-01 0.55394191D-01 0.28241600D+05 0.28241600D+05 0.28241600D+05 0.12176612D+01  1  2 15  1  6  1       21 0.150186306255D-02 0.100000000000D+01
0.114756066101D-04 0.000000000000D+00 0.000000000000D+00 0.150124907383D-06 0.000000000000D+00  6 21 1 25 -24 2 21 4 0.18941100D-01 0.55394191D-01 0.30133789D+05 0.30133789D+05 0.30133789D+05 0.12146956D+01  1  2 12  1  6  1       21 0.487087355290D-01 0.100000000000D+01
0.103771517346D-04 0.000000000000D+00 0.000000000000D+00 0.150124907383D-06 0.000000000000D+00  6 21 1 25 -24 2 21 4 0.19035537D-01 0.55394191D-01 0.30133789D+05 0.30133789D+05 0.30133789D+05 0.12146956D+01  1  2 12  1  6  1       21 0.436419801052D-01 0.100000000000D+01
-.157383497674D-04 0.000000000000D+00 0.000000000000D+00 0.150858838469D-06 0.000000000000D+00  6 21 1 25 -24 2 21 4 0.18011819D-01 0.55394191D-01 0.28241600D+05 0.28241600D+05 0.28241600D+05 0.12176612D+01  1  2  4  1  6  1       21 -.740761604285D-01 0.100000000000D+01
-.107169220178D-03 0.000000000000D+00 -.161107849341D-04 0.150858838469D-06 0.000000000000D+00  6 21 1 25 -24 2 21 4 0.19067764D-01 0.55394191D-01 0.28241600D+05 0.28241600D+05 0.28241600D+05 0.12176612D+01  1  2  5  1  6  1       21 -.454014093654D+00 0.100000000000D+01
0.107405763723D-03 0.000000000000D+00 0.160066823168D-04 0.150858838469D-06 0.000000000000D+00  6 21 1 25 -24 2 21 4 0.18011819D-01 0.55394191D-01 0.28241600D+05 0.28241600D+05 0.28241600D+05 0.12176612D+01  1  2  6  1  6  1       21 0.505529912734D+00 0.100000000000D+01
0.220876834573D-06 0.000000000000D+00 0.000000000000D+00 0.150124907383D-06 0.000000000000D+00  6 -1 1 25 -24 2 -1 4 0.18941100D-01 0.55394191D-01 0.30133789D+05 0.30133789D+05 0.30133789D+05 0.12146956D+01  1  2 12  4  6  1       21 0.729036074451D-04 0.100000000000D+01
0.221004322562D-06 0.000000000000D+00 0.000000000000D+00 0.150124907383D-06 0.000000000000D+00  6 -1 1 25 -24 2 -1 4 0.19035537D-01 0.55394191D-01 0.30133789D+05 0.30133789D+05 0.30133789D+05 0.12146956D+01  1  2 12  4  6  1       21 0.723647036912D-04 0.100000000000D+01
-.126858020936D-05 0.000000000000D+00 -.221434322821D-06 0.150858838469D-06 0.000000000000D+00  6 -1 1 25 -24 2 -1 4 0.19067764D-01 0.55394191D-01 0.28241600D+05 0.28241600D+05 0.28241600D+05 0.12176612D+01  1  2  5  4  6  1       21 -.418026876068D-03 0.100000000000D+01
0.220876834573D-06 0.000000000000D+00 0.000000000000D+00 0.150124907383D-06 0.000000000000D+00  6 1 1 25 -24 2 1 4 0.18941100D-01 0.55394191D-01 0.30133789D+05 0.30133789D+05 0.30133789D+05 0.12146956D+01  1  2 12  5  6  1       21 0.107676187601D-03 0.100000000000D+01
0.221004322562D-06 0.000000000000D+00 0.000000000000D+00 0.150124907383D-06 0.000000000000D+00  6 1 1 25 -24 2 1 4 0.19035537D-01 0.55394191D-01 0.30133789D+05 0.30133789D+05 0.30133789D+05 0.12146956D+01  1  2 12  5  6  1       21 0.107052514580D-03 0.100000000000D+01
-.126858020936D-05 0.000000000000D+00 -.221434322821D-06 0.150858838469D-06 0.000000000000D+00  6 1 1 25 -24 2 1 4 0.19067764D-01 0.55394191D-01 0.28241600D+05 0.28241600D+05 0.28241600D+05 0.12176612D+01  1  2  5  5  6  1       21 -.618774591756D-03 0.100000000000D+01
0.220876834573D-06 0.000000000000D+00 0.000000000000D+00 0.150124907383D-06 0.000000000000D+00  6 -2 1 25 -24 2 -2 4 0.18941100D-01 0.55394191D-01 0.30133789D+05 0.30133789D+05 0.30133789D+05 0.12146956D+01  1  2 12  6  6  1       21 0.670060325847D-04 0.100000000000D+01
0.221004322562D-06 0.000000000000D+00 0.000000000000D+00 0.150124907383D-06 0.000000000000D+00  6 -2 1 25 -24 2 -2 4 0.19035537D-01 0.55394191D-01 0.30133789D+05 0.30133789D+05 0.30133789D+05 0.12146956D+01  1  2 12  6  6  1       21 0.664834790473D-04 0.100000000000D+01
-.126858020936D-05 0.000000000000D+00 -.221434322821D-06 0.150858838469D-06 0.000000000000D+00  6 -2 1 25 -24 2 -2 4 0.19067764D-01 0.55394191D-01 0.28241600D+05 0.28241600D+05 0.28241600D+05 0.12176612D+01  1  2  5  6  6  1       21 -.383976466004D-03 0.100000000000D+01
0.220876834573D-06 0.000000000000D+00 0.000000000000D+00 0.150124907383D-06 0.000000000000D+00  6 2 1 25 -24 2 2 4 0.18941100D-01 0.55394191D-01 0.30133789D+05 0.30133789D+05 0.30133789D+05 0.12146956D+01  1  2 12  7  6  1       21 0.132071218287D-03 0.100000000000D+01
0.221004322562D-06 0.000000000000D+00 0.000000000000D+00 0.150124907383D-06 0.000000000000D+00  6 2 1 25 -24 2 2 4 0.19035537D-01 0.55394191D-01 0.30133789D+05 0.30133789D+05 0.30133789D+05 0.12146956D+01  1  2 12  7  6  1       21 0.131396778937D-03 0.100000000000D+01
-.126858020936D-05 0.000000000000D+00 -.221434322821D-06 0.150858838469D-06 0.000000000000D+00  6 2 1 25 -24 2 2 4 0.19067764D-01 0.55394191D-01 0.28241600D+05 0.28241600D+05 0.28241600D+05 0.12176612D+01  1  2  5  7  6  1       21 -.759607989921D-03 0.100000000000D+01
0.220876834573D-06 0.000000000000D+00 0.000000000000D+00 0.150124907383D-06 0.000000000000D+00  6 -3 1 25 -24 2 -3 4 0.18941100D-01 0.55394191D-01 0.30133789D+05 0.30133789D+05 0.30133789D+05 0.12146956D+01  1  2 12  8  6  1       21 0.442882368853D-04 0.100000000000D+01
0.220876834573D-06 0.000000000000D+00 0.000000000000D+00 0.150124907383D-06 0.000000000000D+00  6 -4 1 25 -24 2 -4 4 0.18941100D-01 0.55394191D-01 0.30133789D+05 0.30133789D+05 0.30133789D+05 0.12146956D+01  1  2 12  8  6  1       21 0.379927908344D-04 0.100000000000D+01
0.221004322562D-06 0.000000000000D+00 0.000000000000D+00 0.150124907383D-06 0.000000000000D+00  6 -3 1 25 -24 2 -3 4 0.19035537D-01 0.55394191D-01 0.30133789D+05 0.30133789D+05 0.30133789D+05 0.12146956D+01  1  2 12  8  6  1       21 0.439274700294D-04 0.100000000000D+01
0.221004322562D-06 0.000000000000D+00 0.000000000000D+00 0.150124907383D-06 0.000000000000D+00  6 -4 1 25 -24 2 -4 4 0.19035537D-01 0.55394191D-01 0.30133789D+05 0.30133789D+05 0.30133789D+05 0.12146956D+01  1  2 12  8  6  1       21 0.376763015147D-04 0.100000000000D+01
-.126858020936D-05 0.000000000000D+00 -.221434322821D-06 0.150858838469D-06 0.000000000000D+00  6 -3 1 25 -24 2 -3 4 0.19067764D-01 0.55394191D-01 0.28241600D+05 0.28241600D+05 0.28241600D+05 0.12176612D+01  1  2  5  8  6  1       21 -.253322511789D-03 0.100000000000D+01
-.126858020936D-05 0.000000000000D+00 -.221434322821D-06 0.150858838469D-06 0.000000000000D+00  6 -4 1 25 -24 2 -4 4 0.19067764D-01 0.55394191D-01 0.28241600D+05 0.28241600D+05 0.28241600D+05 0.12176612D+01  1  2  5  8  6  1       21 -.217117981069D-03 0.100000000000D+01
0.220876834573D-06 0.000000000000D+00 0.000000000000D+00 0.150124907383D-06 0.000000000000D+00  6 3 1 25 -24 2 3 4 0.18941100D-01 0.55394191D-01 0.30133789D+05 0.30133789D+05 0.30133789D+05 0.12146956D+01  1  2 12  9  6  1       21 0.442840443632D-04 0.100000000000D+01
0.220876834573D-06 0.000000000000D+00 0.000000000000D+00 0.150124907383D-06 0.000000000000D+00  6 4 1 25 -24 2 4 4 0.18941100D-01 0.55394191D-01 0.30133789D+05 0.30133789D+05 0.30133789D+05 0.12146956D+01  1  2 12  9  6  1       21 0.379927908344D-04 0.100000000000D+01
0.221004322562D-06 0.000000000000D+00 0.000000000000D+00 0.150124907383D-06 0.000000000000D+00  6 3 1 25 -24 2 3 4 0.19035537D-01 0.55394191D-01 0.30133789D+05 0.30133789D+05 0.30133789D+05 0.12146956D+01  1  2 12  9  6  1       21 0.439233415291D-04 0.100000000000D+01
0.221004322562D-06 0.000000000000D+00 0.000000000000D+00 0.150124907383D-06 0.000000000000D+00  6 4 1 25 -24 2 4 4 0.19035537D-01 0.55394191D-01 0.30133789D+05 0.30133789D+05 0.30133789D+05 0.12146956D+01  1  2 12  9  6  1       21 0.376763015147D-04 0.100000000000D+01
-.126858020936D-05 0.000000000000D+00 -.221434322821D-06 0.150858838469D-06 0.000000000000D+00  6 3 1 25 -24 2 3 4 0.19067764D-01 0.55394191D-01 0.28241600D+05 0.28241600D+05 0.28241600D+05 0.12176612D+01  1  2  5  9  6  1       21 -.253298505132D-03 0.100000000000D+01
-.126858020936D-05 0.000000000000D+00 -.221434322821D-06 0.150858838469D-06 0.000000000000D+00  6 4 1 25 -24 2 4 4 0.19067764D-01 0.55394191D-01 0.28241600D+05 0.28241600D+05 0.28241600D+05 0.12176612D+01  1  2  5  9  6  1       21 -.217117981069D-03 0.100000000000D+01
  </mgrwgt>
  </event>
  <event>
  5     66 0.45631637E-03 0.49962836E+02 0.75467711E-02 0.12067940E+00
       21 -1    0    0  501  502 0.00000000E+00 0.00000000E+00 0.94075474E+02 0.94078463E+02 0.75000000E+00 0.0000E+00 0.9000E+01
        3 -1    0    0  502    0 0.00000000E+00 0.00000000E+00 -.21434937E+03 0.21434995E+03 0.50000000E+00 0.0000E+00 0.9000E+01
       25  1    1    2    0    0 0.34512452E+02 -.13390449E+02 -.15081475E+02 0.13123591E+03 0.12500000E+03 0.0000E+00 0.9000E+01
      -24  1    1    2    0    0 0.10211612E+02 -.15692771E+02 -.89035706E+02 0.12142946E+03 0.80419002E+02 0.0000E+00 0.9000E+01
        4  1    1    2  501    0 -.44724064E+02 0.29083220E+02 -.16156714E+02 0.55763048E+02 0.15500000E+01 0.0000E+00 0.9000E+01
#aMCatNLO 1  0  0  1  2 0.22592334D+02 0.00000000D+00  -5  6  0 0.00000000D+00 0.00000000D+00 0.00000000D+00 0.00000000D+00 0.00000000D+00
  <mgrwgt>
 0.2131320355D-01   32    2    0
 0.142005526061304D+03 0.000000000000000D+00 0.000000000000000D+00 0.142005526061304D+03
 0.142005526061304D+03 0.000000000000000D+00 0.000000000000000D+00 -.142005526061304D+03
 0.136134429961434D+03 0.345213830842545D+02 -.133962563119925D+02 0.391969060985451D+02
 0.941657675914216D+02 0.102177898255161D+02 -.156967883821584D+02 -.452679073657973D+02
 0.537108545697533D+02 -.447391729097706D+02 0.290930446941509D+02 0.607100126725216D+01
 0.000000000000000D+00 -.000000000000000D+00 -.000000000000000D+00 0.000000000000000D+00
 0.181401766266981D+03 0.000000000000000D+00 0.000000000000000D+00 0.181401766266981D+03
 0.145730386758949D+03 0.000000000000000D+00 0.000000000000000D+00 -.145730386758949D+03
 0.138433170106339D+03 0.440191222351242D+02 -.804126952923117D+01 0.391969060985451D+02
 0.945579977050906D+02 0.167460513316580D+02 -.120160435728425D+02 -.452679073657973D+02
 0.519170477689420D+02 -.410853322409559D+02 0.311531421738786D+02 0.607100126725216D+01
 0.422239374455586D+02 -.196798413258263D+02 -.110958290718049D+02 0.356713795080319D+02
0.166994137439D-05 0.000000000000D+00 0.000000000000D+00 0.372943936394D-06 0.000000000000D+00  6 21 3 25 -24 4 21 2 0.14473425D-01 0.32977101D-01 0.17729894D+05 0.17729894D+05 0.17729894D+05 0.12396284D+01  1  2  2  1  6  1       21 0.465600943401D-02 0.100000000000D+01
-.855021266854D-07 0.881252274304D-07 -.337113050345D-08 0.372943936394D-06 0.000000000000D+00  6 21 3 25 -24 4 21 4 0.14473425D-01 0.32977101D-01 0.17729894D+05 0.17729894D+05 0.17729894D+05 0.12396284D+01  1  2  3  1  6  1       21 -.366330061327D-03 0.100000000000D+01
0.160252387981D-06 0.000000000000D+00 0.000000000000D+00 0.372943936394D-06 0.000000000000D+00  6 21 3 25 -24 4 21 4 0.14473425D-01 0.32977101D-01 0.17729894D+05 0.17729894D+05 0.17729894D+05 0.12396284D+01  1  2 15  1  6  1       21 0.686594233295D-03 0.100000000000D+01
0.665034312014D-05 0.000000000000D+00 0.000000000000D+00 0.368047217488D-06 0.000000000000D+00  6 21 3 25 -24 4 21 4 0.18641399D-01 0.32977101D-01 0.21016224D+05 0.21016224D+05 0.21016224D+05 0.12314634D+01  1  2 12  1  6  1       21 0.176019793084D-01 0.100000000000D+01
0.541333997583D-05 0.000000000000D+00 0.000000000000D+00 0.368047217488D-06 0.000000000000D+00  6 21 3 25 -24 4 21 4 0.19624666D-01 0.32977101D-01 0.21016224D+05 0.21016224D+05 0.21016224D+05 0.12314634D+01  1  2 12  1  6  1       21 0.130302480493D-01 0.100000000000D+01
-.815338627215D-05 0.000000000000D+00 0.000000000000D+00 0.372943936394D-06 0.000000000000D+00  6 21 3 25 -24 4 21 4 0.14473425D-01 0.32977101D-01 0.17729894D+05 0.17729894D+05 0.17729894D+05 0.12396284D+01  1  2  4  1  6  1       21 -.349328210758D-01 0.100000000000D+01
-.177711618899D-04 0.000000000000D+00 -.248181890632D-05 0.372943936394D-06 0.000000000000D+00  6 21 3 25 -24 4 21 4 0.18900060D-01 0.32977101D-01 0.17729894D+05 0.17729894D+05 0.17729894D+05 0.12396284D+01  1  2  5  1  6  1       21 -.468601299101D-01 0.100000000000D+01
0.158976867245D-04 0.000000000000D+00 0.216111533320D-05 0.372943936394D-06 0.000000000000D+00  6 21 3 25 -24 4 21 4 0.14473425D-01 0.32977101D-01 0.17729894D+05 0.17729894D+05 0.17729894D+05 0.12396284D+01  1  2  6  1  6  1       21 0.681129321401D-01 0.100000000000D+01
0.508017636503D-06 0.000000000000D+00 0.000000000000D+00 0.368047217488D-06 0.000000000000D+00  6 -3 3 25 -24 4 -3 4 0.18641399D-01 0.32977101D-01 0.21016224D+05 0.21016224D+05 0.21016224D+05 0.12314634D+01  1  2 12  4  6  1       21 0.624656381904D-04 0.100000000000D+01
0.519021850345D-06 0.000000000000D+00 0.000000000000D+00 0.368047217488D-06 0.000000000000D+00  6 -3 3 25 -24 4 -3 4 0.19624666D-01 0.32977101D-01 0.21016224D+05 0.21016224D+05 0.21016224D+05 0.12314634D+01  1  2 12  4  6  1       21 0.583134217472D-04 0.100000000000D+01
-.140037056295D-05 0.000000000000D+00 -.202326512267D-06 0.372943936394D-06 0.000000000000D+00  6 -3 3 25 -24 4 -3 4 0.18900060D-01 0.32977101D-01 0.17729894D+05 0.17729894D+05 0.17729894D+05 0.12396284D+01  1  2  5  4  6  1       21 -.170547300116D-03 0.100000000000D+01
0.508017636503D-06 0.000000000000D+00 0.000000000000D+00 0.368047217488D-06 0.000000000000D+00  6 3 3 25 -24 4 3 4 0.18641399D-01 0.32977101D-01 0.21016224D+05 0.21016224D+05 0.21016224D+05 0.12314634D+01  1  2 12  5  6  1       21 0.624592333952D-04 0.100000000000D+01
0.519021850345D-06 0.000000000000D+00 0.000000000000D+00 0.368047217488D-06 0.000000000000D+00  6 3 3 25 -24 4 3 4 0.19624666D-01 0.32977101D-01 0.21016224D+05 0.21016224D+05 0.21016224D+05 0.12314634D+01  1  2 12  5  6  1       21 0.583078540009D-04 0.100000000000D+01
-.140037056295D-05 0.000000000000D+00 -.202326512267D-06 0.372943936394D-06 0.000000000000D+00  6 3 3 25 -24 4 3 4 0.18900060D-01 0.32977101D-01 0.17729894D+05 0.17729894D+05 0.17729894D+05 0.12396284D+01  1  2  5  5  6  1       21 -.170529631499D-03 0.100000000000D+01
0.508017636503D-06 0.000000000000D+00 0.000000000000D+00 0.368047217488D-06 0.000000000000D+00  6 -4 3 25 -24 4 -4 4 0.18641399D-01 0.32977101D-01 0.21016224D+05 0.21016224D+05 0.21016224D+05 0.12314634D+01  1  2 12  6  6  1       21 0.534172092796D-04 0.100000000000D+01
0.519021850345D-06 0.000000000000D+00 0.000000000000D+00 0.368047217488D-06 0.000000000000D+00  6 -4 3 25 -24 4 -4 4 0.19624666D-01 0.32977101D-01 0.21016224D+05 0.21016224D+05 0.21016224D+05 0.12314634D+01  1  2 12  6  6  1       21 0.497699811266D-04 0.100000000000D+01
-.140037056295D-05 0.000000000000D+00 -.202326512267D-06 0.372943936394D-06 0.000000000000D+00  6 -4 3 25 -24 4 -4 4 0.18900060D-01 0.32977101D-01 0.17729894D+05 0.17729894D+05 0.17729894D+05 0.12396284D+01  1  2  5  6  6  1       21 -.145497080779D-03 0.100000000000D+01
0.508017636503D-06 0.000000000000D+00 0.000000000000D+00 0.368047217488D-06 0.000000000000D+00  6 4 3 25 -24 4 4 4 0.18641399D-01 0.32977101D-01 0.21016224D+05 0.21016224D+05 0.21016224D+05 0.12314634D+01  1  2 12  7  6  1       21 0.534172092796D-04 0.100000000000D+01
0.519021850345D-06 0.000000000000D+00 0.000000000000D+00 0.368047217488D-06 0.000000000000D+00  6 4 3 25 -24 4 4 4 0.19624666D-01 0.32977101D-01 0.21016224D+05 0.21016224D+05 0.21016224D+05 0.12314634D+01  1  2 12  7  6  1       21 0.497699811266D-04 0.100000000000D+01
-.140037056295D-05 0.000000000000D+00 -.202326512267D-06 0.372943936394D-06 0.000000000000D+00  6 4 3 25 -24 4 4 4 0.18900060D-01 0.32977101D-01 0.17729894D+05 0.17729894D+05 0.17729894D+05 0.12396284D+01  1  2  5  7  6  1       21 -.145497080779D-03 0.100000000000D+01
0.508017636503D-06 0.000000000000D+00 0.000000000000D+00 0.368047217488D-06 0.000000000000D+00  6 -1 3 25 -24 4 -1 4 0.18641399D-01 0.32977101D-01 0.21016224D+05 0.21016224D+05 0.21016224D+05 0.12314634D+01  1  2 12  8  6  1       21 0.103429648194D-03 0.100000000000D+01
0.508017636503D-06 0.000000000000D+00 0.000000000000D+00 0.368047217488D-06 0.000000000000D+00  6 -2 3 25 -24 4 -2 4 0.18641399D-01 0.32977101D-01 0.21016224D+05 0.21016224D+05 0.21016224D+05 0.12314634D+01  1  2 12  8  6  1       21 0.951546630575D-04 0.100000000000D+01
0.519021850345D-06 0.000000000000D+00 0.000000000000D+00 0.368047217488D-06 0.000000000000D+00  6 -1 3 25 -24 4 -1 4 0.19624666D-01 0.32977101D-01 0.21016224D+05 0.21016224D+05 0.21016224D+05 0.12314634D+01  1  2 12  8  6  1       21 0.973186662658D-04 0.100000000000D+01
0.519021850345D-06 0.000000000000D+00 0.000000000000D+00 0.368047217488D-06 0.000000000000D+00  6 -2 3 25 -24 4 -2 4 0.19624666D-01 0.32977101D-01 0.21016224D+05 0.21016224D+05 0.21016224D+05 0.12314634D+01  1  2 12  8  6  1       21 0.891503569928D-04 0.100000000000D+01
-.140037056295D-05 0.000000000000D+00 -.202326512267D-06 0.372943936394D-06 0.000000000000D+00  6 -1 3 25 -24 4 -1 4 0.18900060D-01 0.32977101D-01 0.17729894D+05 0.17729894D+05 0.17729894D+05 0.12396284D+01  1  2  5  8  6  1       21 -.284131680678D-03 0.100000000000D+01
-.140037056295D-05 0.000000000000D+00 -.202326512267D-06 0.372943936394D-06 0.000000000000D+00  6 -2 3 25 -24 4 -2 4 0.18900060D-01 0.32977101D-01 0.17729894D+05 0.17729894D+05 0.17729894D+05 0.12396284D+01  1  2  5  8  6  1       21 -.261062315917D-03 0.100000000000D+01
0.508017636503D-06 0.000000000000D+00 0.000000000000D+00 0.368047217488D-06 0.000000000000D+00  6 1 3 25 -24 4 1 4 0.18641399D-01 0.32977101D-01 0.21016224D+05 0.21016224D+05 0.21016224D+05 0.12314634D+01  1  2 12  9  6  1       21 0.152025681924D-03 0.100000000000D+01
0.508017636503D-06 0.000000000000D+00 0.000000000000D+00 0.368047217488D-06 0.000000000000D+00  6 2 3 25 -24 4 2 4 0.18641399D-01 0.32977101D-01 0.21016224D+05 0.21016224D+05 0.21016224D+05 0.12314634D+01  1  2 12  9  6  1       21 0.185984121453D-03 0.100000000000D+01
0.519021850345D-06 0.000000000000D+00 0.000000000000D+00 0.368047217488D-06 0.000000000000D+00  6 1 3 25 -24 4 1 4 0.19624666D-01 0.32977101D-01 0.21016224D+05 0.21016224D+05 0.21016224D+05 0.12314634D+01  1  2 12  9  6  1       21 0.145451249551D-03 0.100000000000D+01
0.519021850345D-06 0.000000000000D+00 0.000000000000D+00 0.368047217488D-06 0.000000000000D+00  6 2 3 25 -24 4 2 4 0.19624666D-01 0.32977101D-01 0.21016224D+05 0.21016224D+05 0.21016224D+05 0.12314634D+01  1  2 12  9  6  1       21 0.179210235181D-03 0.100000000000D+01
-.140037056295D-05 0.000000000000D+00 -.202326512267D-06 0.372943936394D-06 0.000000000000D+00  6 1 3 25 -24 4 1 4 0.18900060D-01 0.32977101D-01 0.17729894D+05 0.17729894D+05 0.17729894D+05 0.12396284D+01  1  2  5  9  6  1       21 -.419537169537D-03 0.100000000000D+01
-.140037056295D-05 0.000000000000D+00 -.202326512267D-06 0.372943936394D-06 0.000000000000D+00  6 2 3 25 -24 4 2 4 0.18900060D-01 0.32977101D-01 0.17729894D+05 0.17729894D+05 0.17729894D+05 0.12396284D+01  1  2  5  9  6  1       21 -.514121458517D-03 0.100000000000D+01
  </mgrwgt>
  </event>
  <event>
  6     66 -.45631637E-03 0.17549525E+02 0.75467711E-02 0.12184370E+00
       21 -1    0    0  501  503 0.00000000E+00 0.00000000E+00 0.14815856E+04 0.14815858E+04 0.75000000E+00 0.0000E+00 0.9000E+01
        1 -1    0    0  502    0 0.00000000E+00 0.00000000E+00 -.15277854E+02 0.15281205E+02 0.32000000E+00 0.0000E+00 0.9000E+01
       25  1    1    2    0    0 0.76094020E+00 -.15880104E+01 0.41586645E+03 0.43424993E+03 0.12500000E+03 0.0000E+00 0.9000E+01
      -24  1    1    2    0    0 0.31105013E+02 0.35058467E+02 0.44236346E+03 0.45205007E+03 0.80419002E+02 0.0000E+00 0.9000E+01
        2  1    1    2  501    0 -.28423403E+02 -.91128778E+01 0.28735113E+03 0.28889740E+03 0.32000000E+00 0.0000E+00 0.9000E+01
       21  1    1    2  502  503 -.34425509E+01 -.24357579E+02 0.32072673E+03 0.32166962E+03 0.75000000E+00 0.0000E+00 0.9000E+01
#aMCatNLO 2  0  0  1  2 0.24599650D+02 0.00000000D+00  -5  6  0 0.00000000D+00 0.00000000D+00 0.00000000D+00 0.00000000D+00 0.00000000D+00
  <mgrwgt>
 -.4934147581D-01    2    2    0
 0.130506586906799D+03 0.000000000000000D+00 0.000000000000000D+00 0.130506586906799D+03
 0.130506586906799D+03 0.000000000000000D+00 0.000000000000000D+00 -.130506586906799D+03
 0.130095944477027D+03 -.945998979804738D+00 -.136683088664956D+02 -.333502202096158D+02
 0.901252820488713D+02 0.298977679697369D+02 0.265146281830565D+02 0.764516008727839D+01
 0.407919472876991D+02 -.289517689899322D+02 -.128463193165609D+02 0.257050601223374D+02
 0.000000000000000D+00 -.000000000000000D+00 -.000000000000000D+00 0.000000000000000D+00
 0.167365296340711D+03 0.000000000000000D+00 0.000000000000000D+00 0.167365296340711D+03
 0.135254818642906D+03 0.000000000000000D+00 0.000000000000000D+00 -.135254818642906D+03
 0.129384458187895D+03 0.761385402221650D+00 -.158780503038132D+01 -.333502202096158D+02
 0.933933189301188D+02 0.311053227210970D+02 0.350586150905685D+02 0.764516008727839D+01
 0.393920527486390D+02 -.284241572398948D+02 -.911323153773214D+01 0.257050601223374D+02
 0.404502851169646D+02 -.344255088342389D+01 -.243575785224550D+02 0.321104776978045D+02
-.588090956327D-04 0.000000000000D+00 0.000000000000D+00 0.109809698099D-05 0.000000000000D+00  6 21 1 25 -24 2 21 4 0.23050996D+00 0.22681308D-02 0.18569687D+05 0.18569687D+05 0.18569687D+05 0.12373896D+01  1  2 13  1  6  1       21 -.650313486794D-01 0.100000000000D+01
0.143968184190D-04 0.000000000000D+00 0.000000000000D+00 0.111505676093D-05 0.295611020299D-07  6 21 1 25 -24 2 21 4 0.22793080D+00 0.23506524D-02 0.18569687D+05 0.18569687D+05 0.18569687D+05 0.12373896D+01  1  2  1  1  6  1       21 0.156898728690D-01 0.100000000000D+01
  </mgrwgt>
  </event>
  <event>
  5     66 0.45631637E-03 0.93726026E+02 0.75467711E-02 0.11250900E+00
       21 -1    0    0  501  502 0.00000000E+00 0.00000000E+00 0.65114772E+03 0.65114815E+03 0.75000000E+00 0.0000E+00 0.9000E+01
        1 -1    0    0  502    0 0.00000000E+00 0.00000000E+00 -.94369916E+02 0.94370459E+02 0.32000000E+00 0.0000E+00 0.9000E+01
       25  1    1    2    0    0 0.10329868E+03 0.94844509E+02 0.85942427E+02 0.20658461E+03 0.12500000E+03 0.0000E+00 0.9000E+01
      -24  1    1    2    0    0 -.49693446E+02 0.43475872E+02 0.26919026E+03 0.28860042E+03 0.80419002E+02 0.0000E+00 0.9000E+01
        2  1    1    2  501    0 -.53605236E+02 -.13832038E+03 0.20164512E+03 0.25033359E+03 0.32000000E+00 0.0000E+00 0.9000E+01
#aMCatNLO 1  0  0  2  1 0.22974488D+02 0.00000000D+00  -5  6  0 0.00000000D+00 0.00000000D+00 0.00000000D+00 0.00000000D+00 0.00000000D+00
  <mgrwgt>
 0.3343599587D-01    9    2    0
 0.247889328665587D+03 0.000000000000000D+00 0.000000000000000D+00 0.247889328665587D+03
 0.247889328665587D+03 0.000000000000000D+00 0.000000000000000D+00 -.247889328665587D+03
 0.214131606496860D+03 0.103298734915696D+03 0.948446448821993D+02 -.102767745926980D+03
 0.131667275727634D+03 -.496934133440534D+02 0.434759552919567D+02 0.806812340314348D+02
 0.149979775106679D+03 -.536053215716424D+02 -.138320600174156D+03 0.220865118955455D+02
 0.000000000000000D+00 0.000000000000000D+00 -.000000000000000D+00 -.000000000000000D+00
 0.255964030616192D+03 0.000000000000000D+00 0.000000000000000D+00 0.255964030616192D+03
 0.265054067425119D+03 0.000000000000000D+00 0.000000000000000D+00 -.265054067425119D+03
 0.213197862491890D+03 0.954088986971218D+02 0.100817959796858D+03 -.102767745926980D+03
 0.134860634835862D+03 -.546143507345897D+02 0.472015470399569D+02 0.806812340314348D+02
 0.148252195838891D+03 -.591116149042115D+02 -.134151841384146D+03 0.220865118955455D+02
 0.247074048746678D+02 0.183170669416794D+02 -.138676654526693D+02 -.909003680892629D+01
0.118852561558D-04 0.000000000000D+00 0.000000000000D+00 0.929265706269D-07 0.000000000000D+00  6 21 1 25 -24 2 21 2 0.10017665D+00 0.14518524D-01 0.48456315D+05 0.48456315D+05 0.48456315D+05 0.11936329D+01  1  2  2  2  6  2        1 0.570966706260D-02 0.100000000000D+01
-.103508617714D-05 0.627202198748D-06 -.239929078845D-07 0.929265706269D-07 0.000000000000D+00  6 21 1 25 -24 2 21 4 0.10017665D+00 0.14518524D-01 0.48456315D+05 0.48456315D+05 0.48456315D+05 0.11936329D+01  1  2  3  2  6  2        1 -.708468171572D-03 0.100000000000D+01
0.121986647551D-05 0.000000000000D+00 0.000000000000D+00 0.929265706269D-07 0.000000000000D+00  6 21 1 25 -24 2 21 4 0.10017665D+00 0.14518524D-01 0.48456315D+05 0.48456315D+05 0.48456315D+05 0.11936329D+01  1  2 15  2  6  2        1 0.834941660460D-03 0.100000000000D+01
0.982933661094D-04 0.000000000000D+00 0.000000000000D+00 0.922136998990D-07 0.000000000000D+00  6 21 1 25 -24 2 21 4 0.10017665D+00 0.15747964D-01 0.53924045D+05 0.53924045D+05 0.53924045D+05 0.11890458D+01  1  2 12  2  6  2        1 0.593206210887D-01 0.100000000000D+01
-.597249305828D-04 0.000000000000D+00 0.000000000000D+00 0.929265706269D-07 0.000000000000D+00  6 21 1 25 -24 2 21 4 0.10017665D+00 0.14518524D-01 0.48456315D+05 0.48456315D+05 0.48456315D+05 0.11936329D+01  1  2  4  2  6  2        1 -.408789270899D-01 0.100000000000D+01
-.286960031863D-03 0.000000000000D+00 -.546137562345D-04 0.929265706269D-07 0.000000000000D+00  6 21 1 25 -24 2 21 4 0.10017665D+00 0.16013299D-01 0.48456315D+05 0.48456315D+05 0.48456315D+05 0.11936329D+01  1  2  5  2  6  2        1 -.172740887924D+00 0.100000000000D+01
0.291173873094D-03 0.000000000000D+00 0.543525769156D-04 0.929265706269D-07 0.000000000000D+00  6 21 1 25 -24 2 21 4 0.10017665D+00 0.14518524D-01 0.48456315D+05 0.48456315D+05 0.48456315D+05 0.11936329D+01  1  2  6  2  6  2        1 0.199294924457D+00 0.100000000000D+01
0.133654153292D-05 0.000000000000D+00 0.000000000000D+00 0.922136998990D-07 0.000000000000D+00  6 21 21 25 -24 2 -1 4 0.10017665D+00 0.15747964D-01 0.53924045D+05 0.53924045D+05 0.53924045D+05 0.11890458D+01  1  2 12 10  6  2        1 0.767218026098D-02 0.100000000000D+01
-.440647811905D-05 0.000000000000D+00 -.871640696416D-06 0.929265706269D-07 0.000000000000D+00  6 21 21 25 -24 2 -1 4 0.10017665D+00 0.16013299D-01 0.48456315D+05 0.48456315D+05 0.48456315D+05 0.11936329D+01  1  2  5 10  6  2        1 -.250680554761D-01 0.100000000000D+01
  </mgrwgt>
  </event>
  <event>
  5     66 0.45631637E-03 0.10656298E+03 0.75467711E-02 0.11518452E+00
       21 -1    0    0  501  502 0.00000000E+00 0.00000000E+00 0.13330445E+03 0.13330656E+03 0.75000000E+00 0.0000E+00 0.9000E+01
        1 -1    0    0  502    0 0.00000000E+00 0.00000000E+00 -.27205535E+03 0.27205554E+03 0.32000000E+00 0.0000E+00 0.9000E+01
       25  1    1    2    0    0 0.68035319E+01 0.41855456E+02 0.13848469E+01 0.13200411E+03 0.12500000E+03 0.0000E+00 0.9000E+01
      -24  1    1    2    0    0 0.83548656E+02 0.14643021E+02 -.11478306E+03 0.16382052E+03 0.80419002E+02 0.0000E+00 0.9000E+01
        2  1    1    2  501    0 -.90352188E+02 -.56498477E+02 -.25352685E+02 0.10953747E+03 0.32000000E+00 0.0000E+00 0.9000E+01
#aMCatNLO 1  0  0  1  2 0.36699821D+02 0.00000000D+00  -5  6  0 0.00000000D+00 0.00000000D+00 0.00000000D+00 0.00000000D+00 0.00000000D+00
  <mgrwgt>
 0.1957445463D-01    4    2    0
 0.190438059843373D+03 0.000000000000000D+00 0.000000000000000D+00 0.190438059843373D+03
 0.190438059843373D+03 0.000000000000000D+00 0.000000000000000D+00 -.190438059843373D+03
 0.140994982908220D+03 0.680368049932143D+01 0.418555489005764D+02 0.495621646337586D+02
 0.132537628925215D+03 0.835487960403140D+02 0.146431085156542D+02 -.624834792562018D+02
 0.107343507853312D+03 -.903524765396354D+02 -.564986574162306D+02 0.129213146224432D+02
 0.000000000000000D+00 -.000000000000000D+00 -.000000000000000D+00 -.000000000000000D+00
 0.205204230307088D+03 0.000000000000000D+00 0.000000000000000D+00 0.205204230307088D+03
 0.215572144385149D+03 0.000000000000000D+00 0.000000000000000D+00 -.215572144385149D+03
 0.144680606903031D+03 0.175222686702226D+02 0.504384768930842D+02 0.495621646337586D+02
 0.140317448738776D+03 0.937863567984869D+02 0.228408529765214D+02 -.624834792562018D+02
 0.976421087922943D+02 -.826613874716679D+02 -.503400045599208D+02 0.129213146224432D+02
 0.381362102581359D+02 -.286472379970416D+02 -.229393253096847D+02 -.103679140780615D+02
0.580537276281D-05 0.000000000000D+00 0.000000000000D+00 0.181262498683D-06 0.000000000000D+00  6 21 1 25 -24 2 21 2 0.20508554D-01 0.41854846D-01 0.31585213D+05 0.31585213D+05 0.31585213D+05 0.12125584D+01  1  2  2  1  6  1       21 0.203711188190D-01 0.100000000000D+01
-.470770717903D-06 0.306357937403D-06 -.117193750061D-07 0.181262498683D-06 0.000000000000D+00  6 21 1 25 -24 2 21 4 0.20508554D-01 0.41854846D-01 0.31585213D+05 0.31585213D+05 0.31585213D+05 0.12125584D+01  1  2  3  1  6  1       21 -.242884335615D-02 0.100000000000D+01
0.597359989564D-06 0.000000000000D+00 0.000000000000D+00 0.181262498683D-06 0.000000000000D+00  6 21 1 25 -24 2 21 4 0.20508554D-01 0.41854846D-01 0.31585213D+05 0.31585213D+05 0.31585213D+05 0.12125584D+01  1  2 15  1  6  1       21 0.308195430750D-02 0.100000000000D+01
-.281002759585D-06 0.000000000000D+00 0.000000000000D+00 0.181262498683D-06 0.000000000000D+00  6 21 1 25 -24 2 21 4 0.20508554D-01 0.41854846D-01 0.31585213D+05 0.31585213D+05 0.31585213D+05 0.12125584D+01  1  2  4  1  6  1       21 -.144977514472D-02 0.100000000000D+01
  </mgrwgt>
  </event>
  <event>
  5     66 -.45631637E-03 0.22597871E+02 0.75467711E-02 0.10742074E+00
       21 -1    0    0  501  502 0.00000000E+00 0.00000000E+00 0.39566754E+02 0.39573862E+02 0.75000000E+00 0.0000E+00 0.9000E+01
        1 -1    0    0  502    0 0.00000000E+00 0.00000000E+00 -.15100843E+04 0.15100844E+04 0.32000000E+00 0.0000E+00 0.9000E+01
       25  1    1    2    0    0 -.15651285E+03 0.80961990E+01 -.11052700E+04 0.11233025E+04 0.12500000E+03 0.0000E+00 0.9000E+01
      -24  1    1    2    0    0 0.14283418E+03 0.98913336E+01 -.36858410E+03 0.40351071E+03 0.80419002E+02 0.0000E+00 0.9000E+01
        2  1    1    2  501    0 0.13678671E+02 -.17987533E+02 0.33365363E+01 0.22844961E+02 0.32000000E+00 0.0000E+00 0.9000E+01
#aMCatNLO 1  0  0  1  5 0.79413217D+00 0.00000000D+00  -5  6  0 0.00000000D+00 0.00000000D+00 0.00000000D+00 0.00000000D+00 0.00000000D+00
  <mgrwgt>
 -.6339215249D+00   12    2    0
 0.244447681256012D+03 0.000000000000000D+00 0.000000000000000D+00 0.244447681256012D+03
 0.244447681256012D+03 0.000000000000000D+00 0.000000000000000D+00 -.244447681256012D+03
 0.236075363958788D+03 -.156512900536896D+03 0.809626440171563D+01 -.124678546416533D+03
 0.170372364931391D+03 0.142834143847139D+03 0.989138080172516D+01 0.453882662726252D+02
 0.824476336218439D+02 0.136787566897574D+02 -.179876452034408D+02 0.792902801439076D+02
 0.000000000000000D+00 0.000000000000000D+00 0.000000000000000D+00 0.000000000000000D+00
 0.299530427325574D+04 0.000000000000000D+00 0.000000000000000D+00 0.299530427325574D+04
 0.267761109060432D+03 0.000000000000000D+00 0.000000000000000D+00 -.267761109060432D+03
 0.297165387598504D+03 -.229372755680371D+03 -.672730748637429D+02 -.124678546416533D+03
 0.140560271867479D+03 0.100349568520922D+03 -.340564745022028D+02 0.453882662726252D+02
 0.904774637212967D+02 -.994902777025818D+01 -.424292324060409D+02 0.792902801439076D+02
 0.273486225912890D+04 0.138972214929707D+03 0.143758781771987D+03 0.272754316419531D+04
0.686446321657D-05 0.000000000000D+00 0.000000000000D+00 0.145348666369D-05 0.000000000000D+00  6 21 1 25 -24 2 21 2 0.60877423D-02 0.23232121D+00 0.37496386D+05 0.37496386D+05 0.37496386D+05 0.12048613D+01  1  2  2  1  6  1       21 0.153402132249D-01 0.100000000000D+01
0.143038328317D-05 0.362247676131D-06 -.138573734947D-07 0.145348666369D-05 0.000000000000D+00  6 21 1 25 -24 2 21 4 0.60877423D-02 0.23232121D+00 0.37496386D+05 0.37496386D+05 0.37496386D+05 0.12048613D+01  1  2  3  1  6  1       21 0.464035650942D-02 0.100000000000D+01
0.642945963722D-06 0.000000000000D+00 0.000000000000D+00 0.145348666369D-05 0.000000000000D+00  6 21 1 25 -24 2 21 4 0.60877423D-02 0.23232121D+00 0.37496386D+05 0.37496386D+05 0.37496386D+05 0.12048613D+01  1  2 15  1  6  1       21 0.208580352069D-02 0.100000000000D+01
-.171589698021D-01 0.000000000000D+00 -.320959118834D-03 0.145348666369D-05 0.000000000000D+00  6 21 1 25 -24 2 21 4 0.77901510D-01 0.23232121D+00 0.37496386D+05 0.37496386D+05 0.37496386D+05 0.12048613D+01  1  2  5  1  6  1       21 -.422380749184D+00 0.100000000000D+01
-.758315127910D-02 0.000000000000D+00 -.141243433219D-03 0.145348666369D-05 0.000000000000D+00  6 -1 1 25 -24 2 -1 4 0.77901510D-01 0.23232121D+00 0.37496386D+05 0.37496386D+05 0.37496386D+05 0.12048613D+01  1  2  5  4  6  1       21 -.205794017732D-01 0.100000000000D+01
-.758315127910D-02 0.000000000000D+00 -.141243433219D-03 0.145348666369D-05 0.000000000000D+00  6 1 1 25 -24 2 1 4 0.77901510D-01 0.23232121D+00 0.37496386D+05 0.37496386D+05 0.37496386D+05 0.12048613D+01  1  2  5  5  6  1       21 -.627544297041D-01 0.100000000000D+01
-.758315127910D-02 0.000000000000D+00 -.141243433219D-03 0.145348666369D-05 0.000000000000D+00  6 -2 1 25 -24 2 -2 4 0.77901510D-01 0.23232121D+00 0.37496386D+05 0.37496386D+05 0.37496386D+05 0.12048613D+01  1  2  5  6  6  1       21 -.157937492147D-01 0.100000000000D+01
-.758315127910D-02 0.000000000000D+00 -.141243433219D-03 0.145348666369D-05 0.000000000000D+00  6 2 1 25 -24 2 2 4 0.77901510D-01 0.23232121D+00 0.37496386D+05 0.37496386D+05 0.37496386D+05 0.12048613D+01  1  2  5  7  6  1       21 -.982875702918D-01 0.100000000000D+01
-.758315127910D-02 0.000000000000D+00 -.141243433219D-03 0.145348666369D-05 0.000000000000D+00  6 -3 1 25 -24 2 -3 4 0.77901510D-01 0.23232121D+00 0.37496386D+05 0.37496386D+05 0.37496386D+05 0.12048613D+01  1  2  5  8  6  1       21 -.998254858079D-02 0.100000000000D+01
-.758315127910D-02 0.000000000000D+00 -.141243433219D-03 0.145348666369D-05 0.000000000000D+00  6 -4 1 25 -24 2 -4 4 0.77901510D-01 0.23232121D+00 0.37496386D+05 0.37496386D+05 0.37496386D+05 0.12048613D+01  1  2  5  8  6  1       21 -.810737883622D-02 0.100000000000D+01
-.758315127910D-02 0.000000000000D+00 -.141243433219D-03 0.145348666369D-05 0.000000000000D+00  6 3 1 25 -24 2 3 4 0.77901510D-01 0.23232121D+00 0.37496386D+05 0.37496386D+05 0.37496386D+05 0.12048613D+01  1  2  5  9  6  1       21 -.999469171153D-02 0.100000000000D+01
-.758315127910D-02 0.000000000000D+00 -.141243433219D-03 0.145348666369D-05 0.000000000000D+00  6 4 1 25 -24 2 4 4 0.77901510D-01 0.23232121D+00 0.37496386D+05 0.37496386D+05 0.37496386D+05 0.12048613D+01  1  2  5  9  6  1       21 -.810737883622D-02 0.100000000000D+01
  </mgrwgt>
  </event>
  <event>
  5     66 0.45631637E-03 0.31998350E+02 0.75467711E-02 0.11081677E+00
       21 -1    0    0  501  502 0.00000000E+00 0.00000000E+00 0.95811718E+02 0.95814654E+02 0.75000000E+00 0.0000E+00 0.9000E+01
        1 -1    0    0  502    0 0.00000000E+00 0.00000000E+00 -.91430438E+03 0.91430444E+03 0.32000000E+00 0.0000E+00 0.9000E+01
       25  1    1    2    0    0 -.19823553E+03 -.98717073E+02 -.23017500E+03 0.34299842E+03 0.12500000E+03 0.0000E+00 0.9000E+01
      -24  1    1    2    0    0 0.19683072E+03 0.66749937E+02 -.59417126E+03 0.63459010E+03 0.80419002E+02 0.0000E+00 0.9000E+01
        2  1    1    2  501    0 0.14048086E+01 0.31967136E+02 0.58535970E+01 0.32530574E+02 0.32000000E+00 0.0000E+00 0.9000E+01
#aMCatNLO 1  0  0  1  2 0.69627254D+01 0.00000000D+00  -5  6  0 0.00000000D+00 0.00000000D+00 0.00000000D+00 0.00000000D+00 0.00000000D+00
  <mgrwgt>
 0.6734848736D+00   32    2    0
 0.295977338074163D+03 0.000000000000000D+00 0.000000000000000D+00 0.295977338074163D+03
 0.295977338074163D+03 0.000000000000000D+00 0.000000000000000D+00 -.295977338074163D+03
 0.267035125616246D+03 -.198235538976130D+03 -.987172552486036D+02 0.814882378991561D+02
 0.261315307325478D+03 0.196830714484165D+03 0.667497581936547D+02 -.136457368818912D+03
 0.636042432066022D+02 0.140482449196481D+01 0.319674970549489D+02 0.549691309197555D+02
 0.000000000000000D+00 -.000000000000000D+00 -.000000000000000D+00 0.000000000000000D+00
 0.312790911965826D+03 0.000000000000000D+00 0.000000000000000D+00 0.312790911965826D+03
 0.296719529931176D+03 0.000000000000000D+00 0.000000000000000D+00 -.296719529931176D+03
 0.264455880273536D+03 -.195342444818752D+03 -.975341424711081D+02 0.814882378991561D+02
 0.263773479928154D+03 0.199688959093525D+03 0.679186194662540D+02 -.136457368818912D+03
 0.637662632275083D+02 0.209814735896206D+01 0.322510271090200D+02 0.549691309197555D+02
 0.175148184678024D+02 -.644466163373531D+01 -.263550410416588D+01 0.160713820346495D+02
0.267052507821D-04 0.000000000000D+00 0.000000000000D+00 0.401370694399D-06 0.000000000000D+00  6 21 1 25 -24 2 21 2 0.14740494D-01 0.14066244D+00 0.64809165D+05 0.64809165D+05 0.64809165D+05 0.11812823D+01  1  2  2  1  6  1       21 0.309483840870D-01 0.100000000000D+01
0.349745060396D-05 0.140927480141D-05 -.539102072052D-07 0.401370694399D-06 0.000000000000D+00  6 21 1 25 -24 2 21 4 0.14740494D-01 0.14066244D+00 0.64809165D+05 0.64809165D+05 0.64809165D+05 0.11812823D+01  1  2  3  1  6  1       21 0.565588179539D-02 0.100000000000D+01
0.262729069258D-05 0.000000000000D+00 0.000000000000D+00 0.401370694399D-06 0.000000000000D+00  6 21 1 25 -24 2 21 4 0.14740494D-01 0.14066244D+00 0.64809165D+05 0.64809165D+05 0.64809165D+05 0.11812823D+01  1  2 15  1  6  1       21 0.424870778233D-02 0.100000000000D+01
0.510972229781D-03 0.000000000000D+00 0.000000000000D+00 0.400547102631D-06 0.000000000000D+00  6 21 1 25 -24 2 21 4 0.15595749D-01 0.14066244D+00 0.66719933D+05 0.66719933D+05 0.66719933D+05 0.11800697D+01  1  2 12  1  6  1       21 0.741347085951D+00 0.100000000000D+01
-.304014286377D-03 0.000000000000D+00 0.000000000000D+00 0.401370694399D-06 0.000000000000D+00  6 21 1 25 -24 2 21 4 0.14740494D-01 0.14066244D+00 0.64809165D+05 0.64809165D+05 0.64809165D+05 0.11812823D+01  1  2  4  1  6  1       21 -.491634925712D+00 0.100000000000D+01
-.237313097545D-02 0.000000000000D+00 -.146664068261D-03 0.401370694399D-06 0.000000000000D+00  6 21 1 25 -24 2 21 4 0.15607259D-01 0.14066244D+00 0.64809165D+05 0.64809165D+05 0.64809165D+05 0.11812823D+01  1  2  5  1  6  1       21 -.345583397160D+01 0.100000000000D+01
0.236445695629D-02 0.000000000000D+00 0.145710846974D-03 0.401370694399D-06 0.000000000000D+00  6 21 1 25 -24 2 21 4 0.14740494D-01 0.14066244D+00 0.64809165D+05 0.64809165D+05 0.64809165D+05 0.11812823D+01  1  2  6  1  6  1       21 0.382366774243D+01 0.100000000000D+01
0.211443887866D-04 0.000000000000D+00 0.000000000000D+00 0.401370694399D-06 0.950971540930D-07  6 21 1 25 -24 2 21 4 0.15577857D-01 0.14101517D+00 0.66719933D+05 0.66719933D+05 0.66719933D+05 0.11800697D+01  1  2 11  1  6  1       21 0.306159003459D-01 0.100000000000D+01
0.112018219156D-04 0.000000000000D+00 0.000000000000D+00 0.400547102631D-06 0.000000000000D+00  6 -1 1 25 -24 2 -1 4 0.15595749D-01 0.14066244D+00 0.66719933D+05 0.66719933D+05 0.66719933D+05 0.11800697D+01  1  2 12  4  6  1       21 0.122698972286D-02 0.100000000000D+01
-.318057047453D-04 0.000000000000D+00 -.202218229016D-05 0.401370694399D-06 0.000000000000D+00  6 -1 1 25 -24 2 -1 4 0.15607259D-01 0.14066244D+00 0.64809165D+05 0.64809165D+05 0.64809165D+05 0.11812823D+01  1  2  5  4  6  1       21 -.349507173764D-02 0.100000000000D+01
0.937927464771D-06 0.000000000000D+00 0.000000000000D+00 0.401370694399D-06 0.158442007594D-08  6 -1 1 25 -24 2 -1 4 0.15577857D-01 0.14101517D+00 0.66719933D+05 0.66719933D+05 0.66719933D+05 0.11800697D+01  1  2 11  4  6  1       21 0.102500990482D-03 0.100000000000D+01
0.112018219156D-04 0.000000000000D+00 0.000000000000D+00 0.400547102631D-06 0.000000000000D+00  6 1 1 25 -24 2 1 4 0.15595749D-01 0.14066244D+00 0.66719933D+05 0.66719933D+05 0.66719933D+05 0.11800697D+01  1  2 12  5  6  1       21 0.170793459203D-02 0.100000000000D+01
-.318057047453D-04 0.000000000000D+00 -.202218229016D-05 0.401370694399D-06 0.000000000000D+00  6 1 1 25 -24 2 1 4 0.15607259D-01 0.14066244D+00 0.64809165D+05 0.64809165D+05 0.64809165D+05 0.11812823D+01  1  2  5  5  6  1       21 -.486615722632D-02 0.100000000000D+01
0.931933964075D-06 0.000000000000D+00 0.000000000000D+00 0.401370694399D-06 0.158947649342D-08  6 1 1 25 -24 2 1 4 0.15577857D-01 0.14101517D+00 0.66719933D+05 0.66719933D+05 0.66719933D+05 0.11800697D+01  1  2 11  5  6  1       21 0.141720819505D-03 0.100000000000D+01
0.112018219156D-04 0.000000000000D+00 0.000000000000D+00 0.400547102631D-06 0.000000000000D+00  6 -2 1 25 -24 2 -2 4 0.15595749D-01 0.14066244D+00 0.66719933D+05 0.66719933D+05 0.66719933D+05 0.11800697D+01  1  2 12  6  6  1       21 0.114497505389D-02 0.100000000000D+01
-.318057047453D-04 0.000000000000D+00 -.202218229016D-05 0.401370694399D-06 0.000000000000D+00  6 -2 1 25 -24 2 -2 4 0.15607259D-01 0.14066244D+00 0.64809165D+05 0.64809165D+05 0.64809165D+05 0.11812823D+01  1  2  5  6  6  1       21 -.326122677105D-02 0.100000000000D+01
0.510589079890D-05 0.000000000000D+00 0.000000000000D+00 0.401370694399D-06 0.223073659443D-07  6 -2 1 25 -24 2 -2 4 0.15577857D-01 0.14101517D+00 0.66719933D+05 0.66719933D+05 0.66719933D+05 0.11800697D+01  1  2 11  6  6  1       21 0.520738262472D-03 0.100000000000D+01
0.112018219156D-04 0.000000000000D+00 0.000000000000D+00 0.400547102631D-06 0.000000000000D+00  6 2 1 25 -24 2 2 4 0.15595749D-01 0.14066244D+00 0.66719933D+05 0.66719933D+05 0.66719933D+05 0.11800697D+01  1  2 12  7  6  1       21 0.204290787080D-02 0.100000000000D+01
-.318057047453D-04 0.000000000000D+00 -.202218229016D-05 0.401370694399D-06 0.000000000000D+00  6 2 1 25 -24 2 2 4 0.15607259D-01 0.14066244D+00 0.64809165D+05 0.64809165D+05 0.64809165D+05 0.11812823D+01  1  2  5  7  6  1       21 -.582095421943D-02 0.100000000000D+01
0.924002344156D-06 0.000000000000D+00 0.000000000000D+00 0.401370694399D-06 0.832319858597D-09  6 2 1 25 -24 2 2 4 0.15577857D-01 0.14101517D+00 0.66719933D+05 0.66719933D+05 0.66719933D+05 0.11800697D+01  1  2 11  7  6  1       21 0.168048721026D-03 0.100000000000D+01
0.112018219156D-04 0.000000000000D+00 0.000000000000D+00 0.400547102631D-06 0.000000000000D+00  6 -3 1 25 -24 2 -3 4 0.15595749D-01 0.14066244D+00 0.66719933D+05 0.66719933D+05 0.66719933D+05 0.11800697D+01  1  2 12  8  6  1       21 0.779936457609D-03 0.100000000000D+01
0.112018219156D-04 0.000000000000D+00 0.000000000000D+00 0.400547102631D-06 0.000000000000D+00  6 -4 1 25 -24 2 -4 4 0.15595749D-01 0.14066244D+00 0.66719933D+05 0.66719933D+05 0.66719933D+05 0.11800697D+01  1  2 12  8  6  1       21 0.678756630102D-03 0.100000000000D+01
-.318057047453D-04 0.000000000000D+00 -.202218229016D-05 0.401370694399D-06 0.000000000000D+00  6 -3 1 25 -24 2 -3 4 0.15607259D-01 0.14066244D+00 0.64809165D+05 0.64809165D+05 0.64809165D+05 0.11812823D+01  1  2  5  8  6  1       21 -.222015379367D-02 0.100000000000D+01
-.318057047453D-04 0.000000000000D+00 -.202218229016D-05 0.401370694399D-06 0.000000000000D+00  6 -4 1 25 -24 2 -4 4 0.15607259D-01 0.14066244D+00 0.64809165D+05 0.64809165D+05 0.64809165D+05 0.11812823D+01  1  2  5  8  6  1       21 -.193161196553D-02 0.100000000000D+01
0.937567214615D-06 0.000000000000D+00 0.000000000000D+00 0.401370694399D-06 0.158381151334D-08  6 -3 1 25 -24 2 -3 4 0.15577857D-01 0.14101517D+00 0.66719933D+05 0.66719933D+05 0.66719933D+05 0.11800697D+01  1  2 11  8  6  1       21 0.651405028445D-04 0.100000000000D+01
0.937567214615D-06 0.000000000000D+00 0.000000000000D+00 0.401370694399D-06 0.158381151334D-08  6 -4 1 25 -24 2 -4 4 0.15577857D-01 0.14101517D+00 0.66719933D+05 0.66719933D+05 0.66719933D+05 0.11800697D+01  1  2 11  8  6  1       21 0.566922332265D-04 0.100000000000D+01
0.112018219156D-04 0.000000000000D+00 0.000000000000D+00 0.400547102631D-06 0.000000000000D+00  6 3 1 25 -24 2 3 4 0.15595749D-01 0.14066244D+00 0.66719933D+05 0.66719933D+05 0.66719933D+05 0.11800697D+01  1  2 12  9  6  1       21 0.779856131354D-03 0.100000000000D+01
0.112018219156D-04 0.000000000000D+00 0.000000000000D+00 0.400547102631D-06 0.000000000000D+00  6 4 1 25 -24 2 4 4 0.15595749D-01 0.14066244D+00 0.66719933D+05 0.66719933D+05 0.66719933D+05 0.11800697D+01  1  2 12  9  6  1       21 0.678756630102D-03 0.100000000000D+01
-.318057047453D-04 0.000000000000D+00 -.202218229016D-05 0.401370694399D-06 0.000000000000D+00  6 3 1 25 -24 2 3 4 0.15607259D-01 0.14066244D+00 0.64809165D+05 0.64809165D+05 0.64809165D+05 0.11812823D+01  1  2  5  9  6  1       21 -.221992443745D-02 0.100000000000D+01
-.318057047453D-04 0.000000000000D+00 -.202218229016D-05 0.401370694399D-06 0.000000000000D+00  6 4 1 25 -24 2 4 4 0.15607259D-01 0.14066244D+00 0.64809165D+05 0.64809165D+05 0.64809165D+05 0.11812823D+01  1  2  5  9  6  1       21 -.193161196553D-02 0.100000000000D+01
0.937567214615D-06 0.000000000000D+00 0.000000000000D+00 0.401370694399D-06 0.158381151334D-08  6 3 1 25 -24 2 3 4 0.15577857D-01 0.14101517D+00 0.66719933D+05 0.66719933D+05 0.66719933D+05 0.11800697D+01  1  2 11  9  6  1       21 0.651337886574D-04 0.100000000000D+01
0.937567214615D-06 0.000000000000D+00 0.000000000000D+00 0.401370694399D-06 0.158381151334D-08  6 4 1 25 -24 2 4 4 0.15577857D-01 0.14101517D+00 0.66719933D+05 0.66719933D+05 0.66719933D+05 0.11800697D+01  1  2 11  9  6  1       21 0.566922332265D-04 0.100000000000D+01
  </mgrwgt>
  </event>
  <event>
  5     66 0.45631637E-03 0.20843568E+02 0.75467711E-02 0.12215224E+00
       21 -1    0    0  501  502 0.00000000E+00 0.00000000E+00 0.19925392E+02 0.19939502E+02 0.75000000E+00 0.0000E+00 0.9000E+01
        1 -1    0    0  502    0 0.00000000E+00 0.00000000E+00 -.93093559E+03 0.93093565E+03 0.32000000E+00 0.0000E+00 0.9000E+01
       25  1    1    2    0    0 0.21100347E+02 -.57908502E+02 -.37812823E+03 0.40299451E+03 0.12500000E+03 0.0000E+00 0.9000E+01
      -24  1    1    2    0    0 -.73135357E+00 0.62325316E+02 -.37234783E+03 0.38599884E+03 0.80419002E+02 0.0000E+00 0.9000E+01
        2  1    1    2  501    0 -.20368993E+02 -.44168140E+01 -.16053414E+03 0.16188180E+03 0.32000000E+00 0.0000E+00 0.9000E+01
#aMCatNLO 1  0  0  1  2 0.61307879D+01 0.00000000D+00  -5  6  0 0.00000000D+00 0.00000000D+00 0.00000000D+00 0.00000000D+00 0.00000000D+00
  <mgrwgt>
 0.2496939774D-01   41    2    0
 0.136220376584586D+03 0.000000000000000D+00 0.000000000000000D+00 0.136220376584586D+03
 0.136220376584586D+03 0.000000000000000D+00 0.000000000000000D+00 -.136220376584586D+03
 0.142118379604172D+03 0.211010312758982D+02 -.579083536134684D+02 0.278209072854684D+02
 0.102128761383348D+03 -.730861701796512D+00 0.623254226884127D+02 -.883603277550958D+01
 0.281936121816515D+02 -.203701695741017D+02 -.441706907494431D+01 -.189848745099588D+02
 0.000000000000000D+00 -.000000000000000D+00 0.000000000000000D+00 0.000000000000000D+00
 0.154725494969837D+03 0.000000000000000D+00 0.000000000000000D+00 0.154725494969837D+03
 0.136763596888481D+03 0.000000000000000D+00 0.000000000000000D+00 -.136763596888481D+03
 0.143541203662000D+03 0.221657624314941D+02 -.609405713985327D+02 0.278209072854684D+02
 0.100825857269067D+03 0.256055001106430D-01 0.601711011102517D+02 -.883603277550958D+01
 0.281426646718165D+02 -.201601889094576D+02 -.501506707895394D+01 -.189848745099588D+02
 0.189793662554356D+02 -.203117902214716D+01 0.578453736723502D+01 0.179618980813560D+02
0.324575097732D-06 0.000000000000D+00 0.000000000000D+00 0.400866901857D-06 0.000000000000D+00  6 21 1 25 -24 2 21 2 0.30665345D-02 0.14322195D+00 0.17155506D+05 0.17155506D+05 0.17155506D+05 0.12412292D+01  1  2  2  1  6  1       21 0.615311711379D-02 0.100000000000D+01
-.616087599801D-08 0.171282984807D-07 -.655223608090D-09 0.400866901857D-06 0.000000000000D+00  6 21 1 25 -24 2 21 4 0.30665345D-02 0.14322195D+00 0.17155506D+05 0.17155506D+05 0.17155506D+05 0.12412292D+01  1  2  3  1  6  1       21 -.179939454997D-03 0.100000000000D+01
0.333500152211D-07 0.000000000000D+00 0.000000000000D+00 0.400866901857D-06 0.000000000000D+00  6 21 1 25 -24 2 21 4 0.30665345D-02 0.14322195D+00 0.17155506D+05 0.17155506D+05 0.17155506D+05 0.12412292D+01  1  2 15  1  6  1       21 0.974047126575D-03 0.100000000000D+01
0.574632108210D-05 0.000000000000D+00 0.000000000000D+00 0.399399538260D-06 0.000000000000D+00  6 21 1 25 -24 2 21 4 0.34887242D-02 0.14322195D+00 0.17977797D+05 0.17977797D+05 0.17977797D+05 0.12389553D+01  1  2 12  1  6  1       21 0.134765790533D+00 0.100000000000D+01
0.533604035539D-05 0.000000000000D+00 0.000000000000D+00 0.399399538260D-06 0.000000000000D+00  6 21 1 25 -24 2 21 4 0.35193946D-02 0.14322195D+00 0.17977797D+05 0.17977797D+05 0.17977797D+05 0.12389553D+01  1  2 12  1  6  1       21 0.123346385287D+00 0.100000000000D+01
-.128441122864D-04 0.000000000000D+00 0.000000000000D+00 0.400866901857D-06 0.000000000000D+00  6 21 1 25 -24 2 21 4 0.30665345D-02 0.14322195D+00 0.17155506D+05 0.17155506D+05 0.17155506D+05 0.12412292D+01  1  2  4  1  6  1       21 -.375135380990D+00 0.100000000000D+01
-.166660134947D-04 0.000000000000D+00 -.838512147406D-06 0.400866901857D-06 0.000000000000D+00  6 21 1 25 -24 2 21 4 0.34958184D-02 0.14322195D+00 0.17155506D+05 0.17155506D+05 0.17155506D+05 0.12412292D+01  1  2  5  1  6  1       21 -.392286866678D+00 0.100000000000D+01
0.161829828173D-04 0.000000000000D+00 0.810409711191D-06 0.400866901857D-06 0.000000000000D+00  6 21 1 25 -24 2 21 4 0.30665345D-02 0.14322195D+00 0.17155506D+05 0.17155506D+05 0.17155506D+05 0.12412292D+01  1  2  6  1  6  1       21 0.472653095002D+00 0.100000000000D+01
0.237336397599D-05 0.000000000000D+00 0.000000000000D+00 0.400866901857D-06 0.200241926130D-06  6 21 1 25 -24 2 21 4 0.34831138D-02 0.14379309D+00 0.17977797D+05 0.17977797D+05 0.17977797D+05 0.12389553D+01  1  2 11  1  6  1       21 0.554506446097D-01 0.100000000000D+01
0.197908324554D-06 0.000000000000D+00 0.000000000000D+00 0.399399538260D-06 0.000000000000D+00  6 -1 1 25 -24 2 -1 4 0.34887242D-02 0.14322195D+00 0.17977797D+05 0.17977797D+05 0.17977797D+05 0.12389553D+01  1  2 12  4  6  1       21 0.247124724109D-03 0.100000000000D+01
0.198406899083D-06 0.000000000000D+00 0.000000000000D+00 0.399399538260D-06 0.000000000000D+00  6 -1 1 25 -24 2 -1 4 0.35193946D-02 0.14322195D+00 0.17977797D+05 0.17977797D+05 0.17977797D+05 0.12389553D+01  1  2 12  4  6  1       21 0.244597259104D-03 0.100000000000D+01
-.570723660311D-06 0.000000000000D+00 -.291735945712D-07 0.400866901857D-06 0.000000000000D+00  6 -1 1 25 -24 2 -1 4 0.34958184D-02 0.14322195D+00 0.17155506D+05 0.17155506D+05 0.17155506D+05 0.12412292D+01  1  2  5  4  6  1       21 -.715047399537D-03 0.100000000000D+01
0.859133233072D-07 0.000000000000D+00 0.000000000000D+00 0.400866901857D-06 0.667110681315D-08  6 -1 1 25 -24 2 -1 4 0.34831138D-02 0.14379309D+00 0.17977797D+05 0.17977797D+05 0.17977797D+05 0.12389553D+01  1  2 11  4  6  1       21 0.106839515656D-03 0.100000000000D+01
0.197908324554D-06 0.000000000000D+00 0.000000000000D+00 0.399399538260D-06 0.000000000000D+00  6 1 1 25 -24 2 1 4 0.34887242D-02 0.14322195D+00 0.17977797D+05 0.17977797D+05 0.17977797D+05 0.12389553D+01  1  2 12  5  6  1       21 0.269094258322D-03 0.100000000000D+01
0.198406899083D-06 0.000000000000D+00 0.000000000000D+00 0.399399538260D-06 0.000000000000D+00  6 1 1 25 -24 2 1 4 0.35193946D-02 0.14322195D+00 0.17977797D+05 0.17977797D+05 0.17977797D+05 0.12389553D+01  1  2 12  5  6  1       21 0.266532725075D-03 0.100000000000D+01
-.570723660311D-06 0.000000000000D+00 -.291735945712D-07 0.400866901857D-06 0.000000000000D+00  6 1 1 25 -24 2 1 4 0.34958184D-02 0.14322195D+00 0.17155506D+05 0.17155506D+05 0.17155506D+05 0.12412292D+01  1  2  5  5  6  1       21 -.778797468903D-03 0.100000000000D+01
0.859494178860D-07 0.000000000000D+00 0.000000000000D+00 0.400866901857D-06 0.671061924324D-08  6 1 1 25 -24 2 1 4 0.34831138D-02 0.14379309D+00 0.17977797D+05 0.17977797D+05 0.17977797D+05 0.12389553D+01  1  2 11  5  6  1       21 0.116371250562D-03 0.100000000000D+01
0.197908324554D-06 0.000000000000D+00 0.000000000000D+00 0.399399538260D-06 0.000000000000D+00  6 -2 1 25 -24 2 -2 4 0.34887242D-02 0.14322195D+00 0.17977797D+05 0.17977797D+05 0.17977797D+05 0.12389553D+01  1  2 12  6  6  1       21 0.243203938516D-03 0.100000000000D+01
0.198406899083D-06 0.000000000000D+00 0.000000000000D+00 0.399399538260D-06 0.000000000000D+00  6 -2 1 25 -24 2 -2 4 0.35193946D-02 0.14322195D+00 0.17977797D+05 0.17977797D+05 0.17977797D+05 0.12389553D+01  1  2 12  6  6  1       21 0.240683532433D-03 0.100000000000D+01
-.570723660311D-06 0.000000000000D+00 -.291735945712D-07 0.400866901857D-06 0.000000000000D+00  6 -2 1 25 -24 2 -2 4 0.34958184D-02 0.14322195D+00 0.17155506D+05 0.17155506D+05 0.17155506D+05 0.12412292D+01  1  2  5  6  6  1       21 -.703669380328D-03 0.100000000000D+01
0.121357489105D-06 0.000000000000D+00 0.000000000000D+00 0.400866901857D-06 0.101572670580D-07  6 -2 1 25 -24 2 -2 4 0.34831138D-02 0.14379309D+00 0.17977797D+05 0.17977797D+05 0.17977797D+05 0.12389553D+01  1  2 11  6  6  1       21 0.148526274711D-03 0.100000000000D+01
0.197908324554D-06 0.000000000000D+00 0.000000000000D+00 0.399399538260D-06 0.000000000000D+00  6 2 1 25 -24 2 2 4 0.34887242D-02 0.14322195D+00 0.17977797D+05 0.17977797D+05 0.17977797D+05 0.12389553D+01  1  2 12  7  6  1       21 0.283960783624D-03 0.100000000000D+01
0.198406899083D-06 0.000000000000D+00 0.000000000000D+00 0.399399538260D-06 0.000000000000D+00  6 2 1 25 -24 2 2 4 0.35193946D-02 0.14322195D+00 0.17977797D+05 0.17977797D+05 0.17977797D+05 0.12389553D+01  1  2 12  7  6  1       21 0.281372703712D-03 0.100000000000D+01
-.570723660311D-06 0.000000000000D+00 -.291735945712D-07 0.400866901857D-06 0.000000000000D+00  6 2 1 25 -24 2 2 4 0.34958184D-02 0.14322195D+00 0.17155506D+05 0.17155506D+05 0.17155506D+05 0.12412292D+01  1  2  5  7  6  1       21 -.821928016887D-03 0.100000000000D+01
0.857833173063D-07 0.000000000000D+00 0.000000000000D+00 0.400866901857D-06 0.334107120997D-08  6 2 1 25 -24 2 2 4 0.34831138D-02 0.14379309D+00 0.17977797D+05 0.17977797D+05 0.17977797D+05 0.12389553D+01  1  2 11  7  6  1       21 0.122553870085D-03 0.100000000000D+01
0.197908324554D-06 0.000000000000D+00 0.000000000000D+00 0.399399538260D-06 0.000000000000D+00  6 -3 1 25 -24 2 -3 4 0.34887242D-02 0.14322195D+00 0.17977797D+05 0.17977797D+05 0.17977797D+05 0.12389553D+01  1  2 12  8  6  1       21 0.181765682629D-03 0.100000000000D+01
0.197908324554D-06 0.000000000000D+00 0.000000000000D+00 0.399399538260D-06 0.000000000000D+00  6 -4 1 25 -24 2 -4 4 0.34887242D-02 0.14322195D+00 0.17977797D+05 0.17977797D+05 0.17977797D+05 0.12389553D+01  1  2 12  8  6  1       21 0.163236463524D-03 0.100000000000D+01
0.198406899083D-06 0.000000000000D+00 0.000000000000D+00 0.399399538260D-06 0.000000000000D+00  6 -3 1 25 -24 2 -3 4 0.35193946D-02 0.14322195D+00 0.17977797D+05 0.17977797D+05 0.17977797D+05 0.12389553D+01  1  2 12  8  6  1       21 0.179760136217D-03 0.100000000000D+01
0.198406899083D-06 0.000000000000D+00 0.000000000000D+00 0.399399538260D-06 0.000000000000D+00  6 -4 1 25 -24 2 -4 4 0.35193946D-02 0.14322195D+00 0.17977797D+05 0.17977797D+05 0.17977797D+05 0.12389553D+01  1  2 12  8  6  1       21 0.161403655234D-03 0.100000000000D+01
-.570723660311D-06 0.000000000000D+00 -.291735945712D-07 0.400866901857D-06 0.000000000000D+00  6 -3 1 25 -24 2 -3 4 0.34958184D-02 0.14322195D+00 0.17155506D+05 0.17155506D+05 0.17155506D+05 0.12412292D+01  1  2  5  8  6  1       21 -.525285870485D-03 0.100000000000D+01
-.570723660311D-06 0.000000000000D+00 -.291735945712D-07 0.400866901857D-06 0.000000000000D+00  6 -4 1 25 -24 2 -4 4 0.34958184D-02 0.14322195D+00 0.17155506D+05 0.17155506D+05 0.17155506D+05 0.12412292D+01  1  2  5  8  6  1       21 -.471493144060D-03 0.100000000000D+01
0.858978144146D-07 0.000000000000D+00 0.000000000000D+00 0.400866901857D-06 0.666990255896D-08  6 -3 1 25 -24 2 -3 4 0.34831138D-02 0.14379309D+00 0.17977797D+05 0.17977797D+05 0.17977797D+05 0.12389553D+01  1  2 11  8  6  1       21 0.785803906420D-04 0.100000000000D+01
0.858978144146D-07 0.000000000000D+00 0.000000000000D+00 0.400866901857D-06 0.666990255896D-08  6 -4 1 25 -24 2 -4 4 0.34831138D-02 0.14379309D+00 0.17977797D+05 0.17977797D+05 0.17977797D+05 0.12389553D+01  1  2 11  8  6  1       21 0.705724381358D-04 0.100000000000D+01
0.197908324554D-06 0.000000000000D+00 0.000000000000D+00 0.399399538260D-06 0.000000000000D+00  6 3 1 25 -24 2 3 4 0.34887242D-02 0.14322195D+00 0.17977797D+05 0.17977797D+05 0.17977797D+05 0.12389553D+01  1  2 12  9  6  1       21 0.181750819519D-03 0.100000000000D+01
0.197908324554D-06 0.000000000000D+00 0.000000000000D+00 0.399399538260D-06 0.000000000000D+00  6 4 1 25 -24 2 4 4 0.34887242D-02 0.14322195D+00 0.17977797D+05 0.17977797D+05 0.17977797D+05 0.12389553D+01  1  2 12  9  6  1       21 0.163236463524D-03 0.100000000000D+01
0.198406899083D-06 0.000000000000D+00 0.000000000000D+00 0.399399538260D-06 0.000000000000D+00  6 3 1 25 -24 2 3 4 0.35193946D-02 0.14322195D+00 0.17977797D+05 0.17977797D+05 0.17977797D+05 0.12389553D+01  1  2 12  9  6  1       21 0.179745361492D-03 0.100000000000D+01
0.198406899083D-06 0.000000000000D+00 0.000000000000D+00 0.399399538260D-06 0.000000000000D+00  6 4 1 25 -24 2 4 4 0.35193946D-02 0.14322195D+00 0.17977797D+05 0.17977797D+05 0.17977797D+05 0.12389553D+01  1  2 12  9  6  1       21 0.161403655234D-03 0.100000000000D+01
-.570723660311D-06 0.000000000000D+00 -.291735945712D-07 0.400866901857D-06 0.000000000000D+00  6 3 1 25 -24 2 3 4 0.34958184D-02 0.14322195D+00 0.17155506D+05 0.17155506D+05 0.17155506D+05 0.12412292D+01  1  2  5  9  6  1       21 -.525242697498D-03 0.100000000000D+01
-.570723660311D-06 0.000000000000D+00 -.291735945712D-07 0.400866901857D-06 0.000000000000D+00  6 4 1 25 -24 2 4 4 0.34958184D-02 0.14322195D+00 0.17155506D+05 0.17155506D+05 0.17155506D+05 0.12412292D+01  1  2  5  9  6  1       21 -.471493144060D-03 0.100000000000D+01
0.858978144146D-07 0.000000000000D+00 0.000000000000D+00 0.400866901857D-06 0.666990255896D-08  6 3 1 25 -24 2 3 4 0.34831138D-02 0.14379309D+00 0.17977797D+05 0.17977797D+05 0.17977797D+05 0.12389553D+01  1  2 11  9  6  1       21 0.785739711370D-04 0.100000000000D+01
0.858978144146D-07 0.000000000000D+00 0.000000000000D+00 0.400866901857D-06 0.666990255896D-08  6 4 1 25 -24 2 4 4 0.34831138D-02 0.14379309D+00 0.17977797D+05 0.17977797D+05 0.17977797D+05 0.12389553D+01  1  2 11  9  6  1       21 0.705724381358D-04 0.100000000000D+01
  </mgrwgt>
  </event>
  <event>
  5     66 -.45631637E-03 0.20720413E+02 0.75467711E-02 0.11777639E+00
       21 -1    0    0  501  502 0.00000000E+00 0.00000000E+00 0.34684024E+02 0.34692132E+02 0.75000000E+00 0.0000E+00 0.9000E+01
        3 -1    0    0  502    0 -.00000000E+00 -.00000000E+00 -.96764470E+03 0.96764483E+03 0.50000000E+00 0.0000E+00 0.9000E+01
       25  1    1    2    0    0 -.11084472E+03 -.46557472E+02 -.54445480E+03 0.57141069E+03 0.12500000E+03 0.0000E+00 0.9000E+01
      -24  1    1    2    0    0 0.91866421E+02 0.54838092E+02 -.19621007E+03 0.23751266E+03 0.80419002E+02 0.0000E+00 0.9000E+01
        4  1    1    2  501    0 0.18978300E+02 -.82806202E+01 -.19229581E+03 0.19341361E+03 0.15500000E+01 0.0000E+00 0.9000E+01
#aMCatNLO 1  0  0  5  1 0.14143965D+02 0.00000000D+00  -5  6  0 0.00000000D+00 0.00000000D+00 0.00000000D+00 0.00000000D+00 0.00000000D+00
  <mgrwgt>
 -.2349006916D-01    5    2    0
 0.183210098086694D+03 0.000000000000000D+00 0.000000000000000D+00 0.183210098086694D+03
 0.183210098086694D+03 -.000000000000000D+00 -.000000000000000D+00 -.183210098086694D+03
 0.176823148783511D+03 -.110851792703540D+03 -.465543866327709D+02 -.344382793613950D+02
 0.150134204967615D+03 0.918604171947530D+02 0.548407120764429D+02 0.680236988015339D+02
 0.394628424222616D+02 0.189913755087869D+02 -.828632544367197D+01 -.335854194401389D+02
 0.000000000000000D+00 0.000000000000000D+00 0.000000000000000D+00 0.000000000000000D+00
 0.183210098086694D+03 0.000000000000000D+00 0.000000000000000D+00 0.183210098086694D+03
 0.183210098086694D+03 -.000000000000000D+00 -.000000000000000D+00 -.183210098086694D+03
 0.176398356936085D+03 -.107503859004929D+03 -.480151585593590D+02 -.403589541157649D+02
 0.149257685955973D+03 0.946981385239569D+02 0.536025562387389D+02 0.630053123738922D+02
 0.150451794220880D+02 -.517343464009309D+01 0.873184166984191D+01 -.111062117267913D+02
 0.257189738592408D+02 0.179791551210648D+02 -.143192393492217D+02 -.115401465313359D+02
0.179037171210D-04 0.000000000000D+00 0.000000000000D+00 0.154002167509D-06 0.000000000000D+00  6 21 3 25 -24 4 21 2 0.53366373D-02 0.14886905D+00 0.26895539D+05 0.26895539D+05 0.26895539D+05 0.12199093D+01  1  2  2  3  6  5        4 0.110789879417D-01 0.100000000000D+01
-.732409991654D-06 0.944805109529D-06 -.361424465777D-07 0.154002167509D-06 0.000000000000D+00  6 21 3 25 -24 4 21 4 0.53366373D-02 0.14886905D+00 0.26895539D+05 0.26895539D+05 0.26895539D+05 0.12199093D+01  1  2  3  3  6  5        4 -.674475527180D-03 0.100000000000D+01
0.172689797079D-05 0.000000000000D+00 0.000000000000D+00 0.154002167509D-06 0.000000000000D+00  6 21 3 25 -24 4 21 4 0.53366373D-02 0.14886905D+00 0.26895539D+05 0.26895539D+05 0.26895539D+05 0.12199093D+01  1  2 15  3  6  5        4 0.159029837456D-02 0.100000000000D+01
0.346254346516D-05 0.000000000000D+00 0.000000000000D+00 0.153158068068D-06 0.000000000000D+00  6 21 3 25 -24 4 21 4 0.53366373D-02 0.14886905D+00 0.28927382D+05 0.28927382D+05 0.28927382D+05 0.12165614D+01  1  2 12  3  6  5        4 0.315672114799D-02 0.100000000000D+01
-.419607437166D-04 0.000000000000D+00 0.000000000000D+00 0.154002167509D-06 0.000000000000D+00  6 21 3 25 -24 4 21 4 0.53366373D-02 0.14886905D+00 0.26895539D+05 0.26895539D+05 0.26895539D+05 0.12199093D+01  1  2  4  3  6  5        4 -.386416011000D-01 0.100000000000D+01
  </mgrwgt>
  </event>
  <event>
  6     66 -.45631637E-03 0.45213284E+02 0.75467711E-02 0.12015051E+00
       21 -1    0    0  501  503 0.00000000E+00 0.00000000E+00 0.11258977E+03 0.11259227E+03 0.75000000E+00 0.0000E+00 0.9000E+01
        1 -1    0    0  502    0 0.00000000E+00 0.00000000E+00 -.22344606E+03 0.22344629E+03 0.32000000E+00 0.0000E+00 0.9000E+01
       25  1    1    2    0    0 0.14468897E+02 0.42953702E+02 -.62778240E+02 0.14703903E+03 0.12500000E+03 0.0000E+00 0.9000E+01
      -24  1    1    2    0    0 -.56083083E+02 -.53539707E+02 -.24472584E+02 0.11435880E+03 0.80419002E+02 0.0000E+00 0.9000E+01
        2  1    1    2  501    0 0.47104963E+02 0.93585271E+01 -.36650869E+02 0.60413973E+02 0.32000000E+00 0.0000E+00 0.9000E+01
       21  1    1    2  502  503 -.54907770E+01 0.12274776E+01 0.13045402E+02 0.14226747E+02 0.75000000E+00 0.0000E+00 0.9000E+01
#aMCatNLO 2  0  0  1  2 0.56263073D+01 0.00000000D+00  -5  6  0 0.00000000D+00 0.00000000D+00 0.00000000D+00 0.00000000D+00 0.00000000D+00
  <mgrwgt>
 -.1632870055D-01    3    2    0
 0.148475212467612D+03 0.000000000000000D+00 0.000000000000000D+00 0.148475212467612D+03
 0.148475212467612D+03 0.000000000000000D+00 0.000000000000000D+00 -.148475212467612D+03
 0.133065387180216D+03 0.120076182964013D+02 0.435037399861590D+02 -.668124056484906D+01
 0.114538017670405D+03 -.581934051522176D+02 -.530681000181971D+02 0.211907030261833D+02
 0.493470200846030D+02 0.461857868558163D+02 0.956436003203816D+01 -.145094624613342D+02
 0.000000000000000D+00 -.000000000000000D+00 0.000000000000000D+00 0.000000000000000D+00
 0.168957883637190D+03 0.000000000000000D+00 0.000000000000000D+00 0.168957883637190D+03
 0.148888731000867D+03 0.000000000000000D+00 0.000000000000000D+00 -.148888731000867D+03
 0.133131469362865D+03 0.144684607655937D+02 0.429536122148590D+02 -.668124056484906D+01
 0.113701909417621D+03 -.560834534681988D+02 -.535397852365771D+02 0.211907030261833D+02
 0.501703420764130D+02 0.471057697376885D+02 0.935869545221458D+01 -.145094624613342D+02
 0.208428937811589D+02 -.549077703508341D+01 0.122747756950355D+01 0.200691526363232D+02
-.123477539744D-04 0.000000000000D+00 0.000000000000D+00 0.279382417016D-06 0.000000000000D+00  6 21 1 25 -24 2 21 4 0.17340358D-01 0.34279502D-01 0.22249638D+05 0.22249638D+05 0.22249638D+05 0.12287619D+01  1  2 13  1  6  1       21 -.117507655698D+00 0.100000000000D+01
-.118606614039D-04 0.000000000000D+00 0.000000000000D+00 0.279382417016D-06 0.000000000000D+00  6 21 1 25 -24 2 21 4 0.17422131D-01 0.34279502D-01 0.22249638D+05 0.22249638D+05 0.22249638D+05 0.12287619D+01  1  2 13  1  6  1       21 -.111903748190D+00 0.100000000000D+01
0.224222455154D-04 0.000000000000D+00 0.000000000000D+00 0.280213543025D-06 0.152204113317D-06  6 21 1 25 -24 2 21 4 0.17320930D-01 0.34374973D-01 0.22249638D+05 0.22249638D+05 0.22249638D+05 0.12287619D+01  1  2  1  1  6  1       21 0.213082703335D+00 0.100000000000D+01
  </mgrwgt>
  </event>
  <event>
  5     66 0.45631637E-03 0.22965384E+02 0.75467711E-02 0.12353534E+00
       21 -1    0    0  501  502 0.00000000E+00 0.00000000E+00 0.96841757E+01 0.97131745E+01 0.75000000E+00 0.0000E+00 0.9000E+01
        1 -1    0    0  502    0 0.00000000E+00 0.00000000E+00 -.19930227E+04 0.19930227E+04 0.32000000E+00 0.0000E+00 0.9000E+01
       25  1    1    2    0    0 0.13523181E+02 0.29683533E+02 -.56363067E+03 0.57824607E+03 0.12500000E+03 0.0000E+00 0.9000E+01
      -24  1    1    2    0    0 -.36387076E+02 -.27547430E+02 -.12100816E+04 0.12136093E+04 0.80419002E+02 0.0000E+00 0.9000E+01
        2  1    1    2  501    0 0.22863894E+02 -.21361027E+01 -.20962624E+03 0.21088049E+03 0.32000000E+00 0.0000E+00 0.9000E+01
#aMCatNLO 1  0  0  2  1 0.49155644D+01 0.00000000D+00  -5  6  0 0.00000000D+00 0.00000000D+00 0.00000000D+00 0.00000000D+00 0.00000000D+00
  <mgrwgt>
 0.2027758580D-01   11    2    0
 0.139031815653751D+03 0.000000000000000D+00 0.000000000000000D+00 0.139031815653751D+03
 0.139031815653751D+03 0.000000000000000D+00 0.000000000000000D+00 -.139031815653751D+03
 0.144584743873482D+03 0.135220937110330D+02 0.296836343617926D+02 0.649290612415261D+02
 0.109822105381851D+03 -.363879018777850D+02 -.275473528763329D+02 -.592515216899232D+02
 0.236567820521693D+02 0.228658081667521D+02 -.213628148545978D+01 -.567753955160288D+01
 0.000000000000000D+00 0.000000000000000D+00 0.000000000000000D+00 -.000000000000000D+00
 0.139186546110962D+03 0.000000000000000D+00 0.000000000000000D+00 0.139186546110962D+03
 0.184469549134729D+03 0.000000000000000D+00 0.000000000000000D+00 -.184469549134729D+03
 0.144032957836106D+03 0.126735324970310D+02 0.272780410469386D+02 0.649290612415261D+02
 0.110512491522857D+03 -.370357048085430D+02 -.293838148473257D+02 -.592515216899232D+02
 0.235616268357484D+02 0.227269819266018D+02 -.252984116002579D+01 -.567753955160288D+01
 0.455490190509800D+02 0.163519038491027D+01 0.463561496041288D+01 -.452830030237663D+02
0.379610743958D-06 0.000000000000D+00 0.000000000000D+00 0.451498788981D-06 0.000000000000D+00  6 21 1 25 -24 2 21 2 0.14921058D-02 0.30662111D+00 0.14959515D+05 0.14959515D+05 0.14959515D+05 0.12479564D+01  1  2  2  2  6  2        1 0.460448618101D-02 0.100000000000D+01
0.585921297107D-08 0.200326093235D-07 -.766324721348D-09 0.451498788981D-06 0.000000000000D+00  6 21 1 25 -24 2 21 4 0.14921058D-02 0.30662111D+00 0.14959515D+05 0.14959515D+05 0.14959515D+05 0.12479564D+01  1  2  3  2  6  2        1 0.110682959202D-03 0.100000000000D+01
0.429980225174D-07 0.000000000000D+00 0.000000000000D+00 0.451498788981D-06 0.000000000000D+00  6 21 1 25 -24 2 21 4 0.14921058D-02 0.30662111D+00 0.14959515D+05 0.14959515D+05 0.14959515D+05 0.12479564D+01  1  2 15  2  6  2        1 0.812250449946D-03 0.100000000000D+01
0.225924393929D-04 0.000000000000D+00 0.000000000000D+00 0.450048018013D-06 0.000000000000D+00  6 21 1 25 -24 2 21 4 0.14921058D-02 0.40696055D+00 0.15579631D+05 0.15579631D+05 0.15579631D+05 0.12459498D+01  1  2 12  2  6  2        1 0.161286239038D+00 0.100000000000D+01
-.592992564305D-04 0.000000000000D+00 0.000000000000D+00 0.451498788981D-06 0.000000000000D+00  6 21 1 25 -24 2 21 4 0.14921058D-02 0.30662111D+00 0.14959515D+05 0.14959515D+05 0.14959515D+05 0.12479564D+01  1  2  4  2  6  2        1 -.112018750857D+01 0.100000000000D+01
-.629551114294D-04 0.000000000000D+00 -.481137407807D-06 0.451498788981D-06 0.000000000000D+00  6 21 1 25 -24 2 21 4 0.14921058D-02 0.40694541D+00 0.14959515D+05 0.14959515D+05 0.14959515D+05 0.12479564D+01  1  2  5  2  6  2        1 -.452815391723D+00 0.100000000000D+01
0.606633168465D-04 0.000000000000D+00 0.462484717118D-06 0.451498788981D-06 0.000000000000D+00  6 21 1 25 -24 2 21 4 0.14921058D-02 0.30662111D+00 0.14959515D+05 0.14959515D+05 0.14959515D+05 0.12479564D+01  1  2  6  2  6  2        1 0.114595517465D+01 0.100000000000D+01
0.393284481460D-04 0.000000000000D+00 0.000000000000D+00 0.451498788981D-06 0.161171422730D-06  6 21 1 25 -24 2 21 4 0.14937664D-02 0.40682960D+00 0.15579631D+05 0.15579631D+05 0.15579631D+05 0.12459498D+01  1  2 11  2  6  2        1 0.280628041772D+00 0.100000000000D+01
0.837412254271D-06 0.000000000000D+00 0.000000000000D+00 0.450048018013D-06 0.000000000000D+00  6 21 21 25 -24 2 -1 4 0.14921058D-02 0.40696055D+00 0.15579631D+05 0.15579631D+05 0.15579631D+05 0.12459498D+01  1  2 12 10  6  2        1 0.348288516521D-02 0.100000000000D+01
-.232342461784D-05 0.000000000000D+00 -.178321564415D-07 0.451498788981D-06 0.000000000000D+00  6 21 21 25 -24 2 -1 4 0.14921058D-02 0.40694541D+00 0.14959515D+05 0.14959515D+05 0.14959515D+05 0.12479564D+01  1  2  5 10  6  2        1 -.977469997666D-02 0.100000000000D+01
0.148467651966D-05 0.000000000000D+00 0.000000000000D+00 0.451498788981D-06 0.600268958060D-08  6 21 21 25 -24 2 -1 4 0.14937664D-02 0.40682960D+00 0.15579631D+05 0.15579631D+05 0.15579631D+05 0.12459498D+01  1  2 11 10  6  2        1 0.617542585308D-02 0.100000000000D+01
  </mgrwgt>
  </event>
  <event>
  5     66 0.45631637E-03 0.40650012E+02 0.75467711E-02 0.11959574E+00
       21 -1    0    0  501  502 0.00000000E+00 0.00000000E+00 0.26704673E+03 0.26704779E+03 0.75000000E+00 0.0000E+00 0.9000E+01
        1 -1    0    0  502    0 0.00000000E+00 0.00000000E+00 -.11551739E+03 0.11551784E+03 0.32000000E+00 0.0000E+00 0.9000E+01
       25  1    1    2    0    0 0.33611748E+02 0.81048799E+02 -.18268168E+02 0.15380957E+03 0.12500000E+03 0.0000E+00 0.9000E+01
      -24  1    1    2    0    0 0.48232472E+01 -.67814694E+02 0.87299361E+02 0.13678630E+03 0.80419002E+02 0.0000E+00 0.9000E+01
        2  1    1    2  501    0 -.38434995E+02 -.13234105E+02 0.82498146E+02 0.91969761E+02 0.32000000E+00 0.0000E+00 0.9000E+01
#aMCatNLO 1  0  0  1  2 0.82818490D+01 0.00000000D+00  -5  6  0 0.00000000D+00 0.00000000D+00 0.00000000D+00 0.00000000D+00 0.00000000D+00
  <mgrwgt>
 0.9915757196D-01   32    2    0
 0.175638347965638D+03 0.000000000000000D+00 0.000000000000000D+00 0.175638347965638D+03
 0.175638347965638D+03 0.000000000000000D+00 0.000000000000000D+00 -.175638347965638D+03
 0.175390226764680D+03 0.336119834231499D+02 0.810488798384599D+02 -.862441029396142D+02
 0.111311937034224D+03 0.482339673391586D+01 -.678146422419440D+02 0.360699391943612D+02
 0.645745321323713D+02 -.384353801570658D+02 -.132342375965159D+02 0.501741637452529D+02
 0.000000000000000D+00 0.000000000000000D+00 -.000000000000000D+00 0.000000000000000D+00
 0.182850017330598D+03 0.000000000000000D+00 0.000000000000000D+00 0.182850017330598D+03
 0.178081066464452D+03 0.000000000000000D+00 0.000000000000000D+00 -.178081066464452D+03
 0.174728916179662D+03 0.294890493860928D+02 0.812252720756607D+02 -.862441029396142D+02
 0.111160914079527D+03 0.220360027701708D+01 -.677025590133767D+02 0.360699391943612D+02
 0.654844803079880D+02 -.399669294597031D+02 -.131687130439891D+02 0.501741637452529D+02
 0.955677322787284D+01 0.827427979659322D+01 -.354000018294919D+00 0.476895086614692D+01
0.392707175213D-05 0.000000000000D+00 0.000000000000D+00 0.599886648526D-06 0.000000000000D+00  6 21 1 25 -24 2 21 2 0.41084228D-01 0.17772022D-01 0.22301948D+05 0.22301948D+05 0.22301948D+05 0.12286511D+01  1  2  2  1  6  1       21 0.108609948416D-01 0.100000000000D+01
0.112425551066D-06 0.207237269882D-06 -.792762642802D-08 0.599886648526D-06 0.000000000000D+00  6 21 1 25 -24 2 21 4 0.41084228D-01 0.17772022D-01 0.22301948D+05 0.22301948D+05 0.22301948D+05 0.12286511D+01  1  2  3  1  6  1       21 0.469378213138D-03 0.100000000000D+01
0.394459694683D-06 0.000000000000D+00 0.000000000000D+00 0.599886648526D-06 0.000000000000D+00  6 21 1 25 -24 2 21 4 0.41084228D-01 0.17772022D-01 0.22301948D+05 0.22301948D+05 0.22301948D+05 0.12286511D+01  1  2 15  1  6  1       21 0.164687461960D-02 0.100000000000D+01
0.140683736777D-04 0.000000000000D+00 0.000000000000D+00 0.597224537686D-06 0.000000000000D+00  6 21 1 25 -24 2 21 4 0.43048775D-01 0.17772022D-01 0.23634375D+05 0.23634375D+05 0.23634375D+05 0.12259219D+01  1  2 12  1  6  1       21 0.529556814714D-01 0.100000000000D+01
-.714273816318D-05 0.000000000000D+00 0.000000000000D+00 0.599886648526D-06 0.000000000000D+00  6 21 1 25 -24 2 21 4 0.41084228D-01 0.17772022D-01 0.22301948D+05 0.22301948D+05 0.22301948D+05 0.12286511D+01  1  2  4  1  6  1       21 -.298210295094D-01 0.100000000000D+01
-.157272172670D-03 0.000000000000D+00 -.229668684230D-04 0.599886648526D-06 0.000000000000D+00  6 21 1 25 -24 2 21 4 0.43278484D-01 0.17772022D-01 0.22301948D+05 0.22301948D+05 0.22301948D+05 0.12286511D+01  1  2  5  1  6  1       21 -.591050096063D+00 0.100000000000D+01
0.157687263391D-03 0.000000000000D+00 0.228429893088D-04 0.599886648526D-06 0.000000000000D+00  6 21 1 25 -24 2 21 4 0.41084228D-01 0.17772022D-01 0.22301948D+05 0.22301948D+05 0.22301948D+05 0.12286511D+01  1  2  6  1  6  1       21 0.658346481055D+00 0.100000000000D+01
0.281095758997D-07 0.000000000000D+00 0.000000000000D+00 0.599886648526D-06 0.848906264975D-07  6 21 1 25 -24 2 21 4 0.42771137D-01 0.18019189D-01 0.23634375D+05 0.23634375D+05 0.23634375D+05 0.12259219D+01  1  2 11  1  6  1       21 0.105321012410D-03 0.100000000000D+01
0.283029811528D-06 0.000000000000D+00 0.000000000000D+00 0.597224537686D-06 0.000000000000D+00  6 -1 1 25 -24 2 -1 4 0.43048775D-01 0.17772022D-01 0.23634375D+05 0.23634375D+05 0.23634375D+05 0.12259219D+01  1  2 12  4  6  1       21 0.101266669199D-03 0.100000000000D+01
-.167084355795D-05 0.000000000000D+00 -.286328462540D-06 0.599886648526D-06 0.000000000000D+00  6 -1 1 25 -24 2 -1 4 0.43278484D-01 0.17772022D-01 0.22301948D+05 0.22301948D+05 0.22301948D+05 0.12286511D+01  1  2  5  4  6  1       21 -.596911012548D-03 0.100000000000D+01
0.104398936253D-08 0.000000000000D+00 0.000000000000D+00 0.599886648526D-06 0.115165340923D-08  6 -1 1 25 -24 2 -1 4 0.42771137D-01 0.18019189D-01 0.23634375D+05 0.23634375D+05 0.23634375D+05 0.12259219D+01  1  2 11  4  6  1       21 0.371214089146D-06 0.100000000000D+01
0.283029811528D-06 0.000000000000D+00 0.000000000000D+00 0.597224537686D-06 0.000000000000D+00  6 1 1 25 -24 2 1 4 0.43048775D-01 0.17772022D-01 0.23634375D+05 0.23634375D+05 0.23634375D+05 0.12259219D+01  1  2 12  5  6  1       21 0.212160987114D-03 0.100000000000D+01
-.167084355795D-05 0.000000000000D+00 -.286328462540D-06 0.599886648526D-06 0.000000000000D+00  6 1 1 25 -24 2 1 4 0.43278484D-01 0.17772022D-01 0.22301948D+05 0.22301948D+05 0.22301948D+05 0.12286511D+01  1  2  5  5  6  1       21 -.125409596652D-02 0.100000000000D+01
0.954281566947D-09 0.000000000000D+00 0.000000000000D+00 0.599886648526D-06 0.126431115409D-08  6 1 1 25 -24 2 1 4 0.42771137D-01 0.18019189D-01 0.23634375D+05 0.23634375D+05 0.23634375D+05 0.12259219D+01  1  2 11  5  6  1       21 0.708417045093D-06 0.100000000000D+01
0.283029811528D-06 0.000000000000D+00 0.000000000000D+00 0.597224537686D-06 0.000000000000D+00  6 -2 1 25 -24 2 -2 4 0.43048775D-01 0.17772022D-01 0.23634375D+05 0.23634375D+05 0.23634375D+05 0.12259219D+01  1  2 12  6  6  1       21 0.847666114234D-04 0.100000000000D+01
-.167084355795D-05 0.000000000000D+00 -.286328462540D-06 0.599886648526D-06 0.000000000000D+00  6 -2 1 25 -24 2 -2 4 0.43278484D-01 0.17772022D-01 0.22301948D+05 0.22301948D+05 0.22301948D+05 0.12286511D+01  1  2  5  6  6  1       21 -.499194991087D-03 0.100000000000D+01
0.448287282110D-08 0.000000000000D+00 0.000000000000D+00 0.599886648526D-06 0.116793344305D-07  6 -2 1 25 -24 2 -2 4 0.42771137D-01 0.18019189D-01 0.23634375D+05 0.23634375D+05 0.23634375D+05 0.12259219D+01  1  2 11  6  6  1       21 0.133550341579D-05 0.100000000000D+01
0.283029811528D-06 0.000000000000D+00 0.000000000000D+00 0.597224537686D-06 0.000000000000D+00  6 2 1 25 -24 2 2 4 0.43048775D-01 0.17772022D-01 0.23634375D+05 0.23634375D+05 0.23634375D+05 0.12259219D+01  1  2 12  7  6  1       21 0.296266547334D-03 0.100000000000D+01
-.167084355795D-05 0.000000000000D+00 -.286328462540D-06 0.599886648526D-06 0.000000000000D+00  6 2 1 25 -24 2 2 4 0.43278484D-01 0.17772022D-01 0.22301948D+05 0.22301948D+05 0.22301948D+05 0.12286511D+01  1  2  5  7  6  1       21 -.175259246040D-02 0.100000000000D+01
0.112481603742D-08 0.000000000000D+00 0.000000000000D+00 0.599886648526D-06 0.728902343016D-09  6 2 1 25 -24 2 2 4 0.42771137D-01 0.18019189D-01 0.23634375D+05 0.23634375D+05 0.23634375D+05 0.12259219D+01  1  2 11  7  6  1       21 0.116470478709D-05 0.100000000000D+01
0.283029811528D-06 0.000000000000D+00 0.000000000000D+00 0.597224537686D-06 0.000000000000D+00  6 -3 1 25 -24 2 -3 4 0.43048775D-01 0.17772022D-01 0.23634375D+05 0.23634375D+05 0.23634375D+05 0.12259219D+01  1  2 12  8  6  1       21 0.533697470049D-04 0.100000000000D+01
0.283029811528D-06 0.000000000000D+00 0.000000000000D+00 0.597224537686D-06 0.000000000000D+00  6 -4 1 25 -24 2 -4 4 0.43048775D-01 0.17772022D-01 0.23634375D+05 0.23634375D+05 0.23634375D+05 0.12259219D+01  1  2 12  8  6  1       21 0.441962350542D-04 0.100000000000D+01
-.167084355795D-05 0.000000000000D+00 -.286328462540D-06 0.599886648526D-06 0.000000000000D+00  6 -3 1 25 -24 2 -3 4 0.43278484D-01 0.17772022D-01 0.22301948D+05 0.22301948D+05 0.22301948D+05 0.12286511D+01  1  2  5  8  6  1       21 -.313850739457D-03 0.100000000000D+01
-.167084355795D-05 0.000000000000D+00 -.286328462540D-06 0.599886648526D-06 0.000000000000D+00  6 -4 1 25 -24 2 -4 4 0.43278484D-01 0.17772022D-01 0.22301948D+05 0.22301948D+05 0.22301948D+05 0.12286511D+01  1  2  5  8  6  1       21 -.259678017883D-03 0.100000000000D+01
0.104123625438D-08 0.000000000000D+00 0.000000000000D+00 0.599886648526D-06 0.114861637983D-08  6 -3 1 25 -24 2 -3 4 0.42771137D-01 0.18019189D-01 0.23634375D+05 0.23634375D+05 0.23634375D+05 0.12259219D+01  1  2 11  8  6  1       21 0.195340412049D-06 0.100000000000D+01
0.104123625438D-08 0.000000000000D+00 0.000000000000D+00 0.599886648526D-06 0.114861637983D-08  6 -4 1 25 -24 2 -4 4 0.42771137D-01 0.18019189D-01 0.23634375D+05 0.23634375D+05 0.23634375D+05 0.12259219D+01  1  2 11  8  6  1       21 0.161807338323D-06 0.100000000000D+01
0.283029811528D-06 0.000000000000D+00 0.000000000000D+00 0.597224537686D-06 0.000000000000D+00  6 3 1 25 -24 2 3 4 0.43048775D-01 0.17772022D-01 0.23634375D+05 0.23634375D+05 0.23634375D+05 0.12259219D+01  1  2 12  9  6  1       21 0.533835804785D-04 0.100000000000D+01
0.283029811528D-06 0.000000000000D+00 0.000000000000D+00 0.597224537686D-06 0.000000000000D+00  6 4 1 25 -24 2 4 4 0.43048775D-01 0.17772022D-01 0.23634375D+05 0.23634375D+05 0.23634375D+05 0.12259219D+01  1  2 12  9  6  1       21 0.441962350542D-04 0.100000000000D+01
-.167084355795D-05 0.000000000000D+00 -.286328462540D-06 0.599886648526D-06 0.000000000000D+00  6 3 1 25 -24 2 3 4 0.43278484D-01 0.17772022D-01 0.22301948D+05 0.22301948D+05 0.22301948D+05 0.12286511D+01  1  2  5  9  6  1       21 -.313933267091D-03 0.100000000000D+01
-.167084355795D-05 0.000000000000D+00 -.286328462540D-06 0.599886648526D-06 0.000000000000D+00  6 4 1 25 -24 2 4 4 0.43278484D-01 0.17772022D-01 0.22301948D+05 0.22301948D+05 0.22301948D+05 0.12286511D+01  1  2  5  9  6  1       21 -.259678017883D-03 0.100000000000D+01
0.104123625438D-08 0.000000000000D+00 0.000000000000D+00 0.599886648526D-06 0.114861637983D-08  6 3 1 25 -24 2 3 4 0.42771137D-01 0.18019189D-01 0.23634375D+05 0.23634375D+05 0.23634375D+05 0.12259219D+01  1  2 11  9  6  1       21 0.195389892367D-06 0.100000000000D+01
0.104123625438D-08 0.000000000000D+00 0.000000000000D+00 0.599886648526D-06 0.114861637983D-08  6 4 1 25 -24 2 4 4 0.42771137D-01 0.18019189D-01 0.23634375D+05 0.23634375D+05 0.23634375D+05 0.12259219D+01  1  2 11  9  6  1       21 0.161807338323D-06 0.100000000000D+01
  </mgrwgt>
  </event>
  <event>
  5     66 0.45631637E-03 0.48544582E+02 0.75467711E-02 0.11948269E+00
       21 -1    0    0  501  502 0.00000000E+00 0.00000000E+00 0.44105343E+02 0.44111719E+02 0.75000000E+00 0.0000E+00 0.9000E+01
        1 -1    0    0  502    0 0.00000000E+00 0.00000000E+00 -.67024250E+03 0.67024258E+03 0.32000000E+00 0.0000E+00 0.9000E+01
       25  1    1    2    0    0 -.65918389E+02 0.46630551E+02 -.35892935E+03 0.38855491E+03 0.12500000E+03 0.0000E+00 0.9000E+01
      -24  1    1    2    0    0 0.19067653E+02 -.59341147E+02 -.25670156E+03 0.27613014E+03 0.80419002E+02 0.0000E+00 0.9000E+01
        2  1    1    2  501    0 0.46850736E+02 0.12710595E+02 -.10506255E+02 0.49669251E+02 0.32000000E+00 0.0000E+00 0.9000E+01
#aMCatNLO 1  0  0  1  2 0.92906817D+01 0.00000000D+00  -5  6  0 0.00000000D+00 0.00000000D+00 0.00000000D+00 0.00000000D+00 0.00000000D+00
  <mgrwgt>
 0.6111162382D-01   32    2    0
 0.171940629985337D+03 0.000000000000000D+00 0.000000000000000D+00 0.171940629985337D+03
 0.171940629985337D+03 0.000000000000000D+00 0.000000000000000D+00 -.171940629985337D+03
 0.153619611566431D+03 -.659185405503122D+02 0.466305102741372D+02 -.381356340069427D+02
 0.106212186672104D+03 0.190675482680751D+02 -.593411751165773D+02 -.304773060182108D+02
 0.840494617321396D+02 0.468509922822371D+02 0.127106648424402D+02 0.686129400251535D+02
 0.000000000000000D+00 -.000000000000000D+00 0.000000000000000D+00 0.000000000000000D+00
 0.191606922479407D+03 0.000000000000000D+00 0.000000000000000D+00 0.191606922479407D+03
 0.173104150074326D+03 0.000000000000000D+00 0.000000000000000D+00 -.173104150074326D+03
 0.151787249725335D+03 -.618108807377769D+02 0.462542713756248D+02 -.381356340069427D+02
 0.106910180528421D+03 0.219340005121380D+02 -.596037262732368D+02 -.304773060182108D+02
 0.853093105597816D+02 0.491288331267467D+02 0.125020272313825D+02 0.686129400251535D+02
 0.207043317401951D+02 -.925195290110788D+01 0.847427666229535D+00 0.185027724050814D+02
0.122533998017D-05 0.000000000000D+00 0.000000000000D+00 0.828203033164D-06 0.000000000000D+00  6 21 1 25 -24 2 21 2 0.67859337D-02 0.10311473D+00 0.22365348D+05 0.22365348D+05 0.22365348D+05 0.12285171D+01  1  2  2  1  6  1       21 0.987195974219D-02 0.100000000000D+01
0.346135283928D-07 0.646629672684D-07 -.247360838387D-08 0.828203033164D-06 0.000000000000D+00  6 21 1 25 -24 2 21 4 0.67859337D-02 0.10311473D+00 0.22365348D+05 0.22365348D+05 0.22365348D+05 0.12285171D+01  1  2  3  1  6  1       21 0.420876883337D-03 0.100000000000D+01
0.116716148814D-06 0.000000000000D+00 0.000000000000D+00 0.828203033164D-06 0.000000000000D+00  6 21 1 25 -24 2 21 4 0.67859337D-02 0.10311473D+00 0.22365348D+05 0.22365348D+05 0.22365348D+05 0.12285171D+01  1  2 15  1  6  1       21 0.141918871692D-02 0.100000000000D+01
0.155783490920D-04 0.000000000000D+00 0.000000000000D+00 0.823927935355D-06 0.000000000000D+00  6 21 1 25 -24 2 21 4 0.75834691D-02 0.10311473D+00 0.23928652D+05 0.23928652D+05 0.23928652D+05 0.12253423D+01  1  2 12  1  6  1       21 0.154867555340D+00 0.100000000000D+01
-.155553527025D-04 0.000000000000D+00 0.000000000000D+00 0.828203033164D-06 0.000000000000D+00  6 21 1 25 -24 2 21 4 0.67859337D-02 0.10311473D+00 0.22365348D+05 0.22365348D+05 0.22365348D+05 0.12285171D+01  1  2  4  1  6  1       21 -.189142473150D+00 0.100000000000D+01
-.420724690738D-04 0.000000000000D+00 -.355658536106D-05 0.828203033164D-06 0.000000000000D+00  6 21 1 25 -24 2 21 4 0.76076515D-02 0.10311473D+00 0.22365348D+05 0.22365348D+05 0.22365348D+05 0.12285171D+01  1  2  5  1  6  1       21 -.420291233992D+00 0.100000000000D+01
0.416651380249D-04 0.000000000000D+00 0.346534386561D-05 0.828203033164D-06 0.000000000000D+00  6 21 1 25 -24 2 21 4 0.67859337D-02 0.10311473D+00 0.22365348D+05 0.22365348D+05 0.22365348D+05 0.12285171D+01  1  2  6  1  6  1       21 0.506619644110D+00 0.100000000000D+01
0.652942676169D-09 0.000000000000D+00 0.000000000000D+00 0.828203033164D-06 0.114867266764D-06  6 21 1 25 -24 2 21 4 0.75620979D-02 0.10381250D+00 0.23928652D+05 0.23928652D+05 0.23928652D+05 0.12253423D+01  1  2 11  1  6  1       21 0.646070170726D-05 0.100000000000D+01
0.448553822202D-06 0.000000000000D+00 0.000000000000D+00 0.823927935355D-06 0.000000000000D+00  6 -1 1 25 -24 2 -1 4 0.75834691D-02 0.10311473D+00 0.23928652D+05 0.23928652D+05 0.23928652D+05 0.12253423D+01  1  2 12  4  6  1       21 0.279237803341D-03 0.100000000000D+01
-.105048288639D-05 0.000000000000D+00 -.105760943138D-06 0.828203033164D-06 0.000000000000D+00  6 -1 1 25 -24 2 -1 4 0.76076515D-02 0.10311473D+00 0.22365348D+05 0.22365348D+05 0.22365348D+05 0.12285171D+01  1  2  5  4  6  1       21 -.656915396714D-03 0.100000000000D+01
0.333807816171D-10 0.000000000000D+00 0.000000000000D+00 0.828203033164D-06 0.430634258295D-08  6 -1 1 25 -24 2 -1 4 0.75620979D-02 0.10381250D+00 0.23928652D+05 0.23928652D+05 0.23928652D+05 0.12253423D+01  1  2 11  4  6  1       21 0.206707588866D-07 0.100000000000D+01
0.448553822202D-06 0.000000000000D+00 0.000000000000D+00 0.823927935355D-06 0.000000000000D+00  6 1 1 25 -24 2 1 4 0.75834691D-02 0.10311473D+00 0.23928652D+05 0.23928652D+05 0.23928652D+05 0.12253423D+01  1  2 12  5  6  1       21 0.332870573127D-03 0.100000000000D+01
-.105048288639D-05 0.000000000000D+00 -.105760943138D-06 0.828203033164D-06 0.000000000000D+00  6 1 1 25 -24 2 1 4 0.76076515D-02 0.10311473D+00 0.22365348D+05 0.22365348D+05 0.22365348D+05 0.12285171D+01  1  2  5  5  6  1       21 -.783572780669D-03 0.100000000000D+01
0.336238583589D-10 0.000000000000D+00 0.000000000000D+00 0.828203033164D-06 0.440491570051D-08  6 1 1 25 -24 2 1 4 0.75620979D-02 0.10381250D+00 0.23928652D+05 0.23928652D+05 0.23928652D+05 0.12253423D+01  1  2 11  5  6  1       21 0.248091770270D-07 0.100000000000D+01
0.448553822202D-06 0.000000000000D+00 0.000000000000D+00 0.823927935355D-06 0.000000000000D+00  6 -2 1 25 -24 2 -2 4 0.75834691D-02 0.10311473D+00 0.23928652D+05 0.23928652D+05 0.23928652D+05 0.12253423D+01  1  2 12  6  6  1       21 0.269882582045D-03 0.100000000000D+01
-.105048288639D-05 0.000000000000D+00 -.105760943138D-06 0.828203033164D-06 0.000000000000D+00  6 -2 1 25 -24 2 -2 4 0.76076515D-02 0.10311473D+00 0.22365348D+05 0.22365348D+05 0.22365348D+05 0.12285171D+01  1  2  5  6  6  1       21 -.634818638437D-03 0.100000000000D+01
0.779114384176D-10 0.000000000000D+00 0.000000000000D+00 0.828203033164D-06 0.130693683831D-07  6 -2 1 25 -24 2 -2 4 0.75620979D-02 0.10381250D+00 0.23928652D+05 0.23928652D+05 0.23928652D+05 0.12253423D+01  1  2 11  6  6  1       21 0.466340542403D-07 0.100000000000D+01
0.448553822202D-06 0.000000000000D+00 0.000000000000D+00 0.823927935355D-06 0.000000000000D+00  6 2 1 25 -24 2 2 4 0.75834691D-02 0.10311473D+00 0.23928652D+05 0.23928652D+05 0.23928652D+05 0.12253423D+01  1  2 12  7  6  1       21 0.368941718423D-03 0.100000000000D+01
-.105048288639D-05 0.000000000000D+00 -.105760943138D-06 0.828203033164D-06 0.000000000000D+00  6 2 1 25 -24 2 2 4 0.76076515D-02 0.10311473D+00 0.22365348D+05 0.22365348D+05 0.22365348D+05 0.12285171D+01  1  2  5  7  6  1       21 -.868727523251D-03 0.100000000000D+01
0.352100465109D-10 0.000000000000D+00 0.000000000000D+00 0.828203033164D-06 0.237991041919D-08  6 2 1 25 -24 2 2 4 0.75620979D-02 0.10381250D+00 0.23928652D+05 0.23928652D+05 0.23928652D+05 0.12253423D+01  1  2 11  7  6  1       21 0.287880423742D-07 0.100000000000D+01
0.448553822202D-06 0.000000000000D+00 0.000000000000D+00 0.823927935355D-06 0.000000000000D+00  6 -3 1 25 -24 2 -3 4 0.75834691D-02 0.10311473D+00 0.23928652D+05 0.23928652D+05 0.23928652D+05 0.12253423D+01  1  2 12  8  6  1       21 0.190720846649D-03 0.100000000000D+01
0.448553822202D-06 0.000000000000D+00 0.000000000000D+00 0.823927935355D-06 0.000000000000D+00  6 -4 1 25 -24 2 -4 4 0.75834691D-02 0.10311473D+00 0.23928652D+05 0.23928652D+05 0.23928652D+05 0.12253423D+01  1  2 12  8  6  1       21 0.168333305858D-03 0.100000000000D+01
-.105048288639D-05 0.000000000000D+00 -.105760943138D-06 0.828203033164D-06 0.000000000000D+00  6 -3 1 25 -24 2 -3 4 0.76076515D-02 0.10311473D+00 0.22365348D+05 0.22365348D+05 0.22365348D+05 0.12285171D+01  1  2  5  8  6  1       21 -.447828111093D-03 0.100000000000D+01
-.105048288639D-05 0.000000000000D+00 -.105760943138D-06 0.828203033164D-06 0.000000000000D+00  6 -4 1 25 -24 2 -4 4 0.76076515D-02 0.10311473D+00 0.22365348D+05 0.22365348D+05 0.22365348D+05 0.12285171D+01  1  2  5  8  6  1       21 -.394954557914D-03 0.100000000000D+01
0.332907229131D-10 0.000000000000D+00 0.000000000000D+00 0.828203033164D-06 0.429472441185D-08  6 -3 1 25 -24 2 -3 4 0.75620979D-02 0.10381250D+00 0.23928652D+05 0.23928652D+05 0.23928652D+05 0.12253423D+01  1  2 11  8  6  1       21 0.140847380998D-07 0.100000000000D+01
0.332907229131D-10 0.000000000000D+00 0.000000000000D+00 0.828203033164D-06 0.429472441185D-08  6 -4 1 25 -24 2 -4 4 0.75620979D-02 0.10381250D+00 0.23928652D+05 0.23928652D+05 0.23928652D+05 0.12253423D+01  1  2 11  8  6  1       21 0.124324556203D-07 0.100000000000D+01
0.448553822202D-06 0.000000000000D+00 0.000000000000D+00 0.823927935355D-06 0.000000000000D+00  6 3 1 25 -24 2 3 4 0.75834691D-02 0.10311473D+00 0.23928652D+05 0.23928652D+05 0.23928652D+05 0.12253423D+01  1  2 12  9  6  1       21 0.190698692418D-03 0.100000000000D+01
0.448553822202D-06 0.000000000000D+00 0.000000000000D+00 0.823927935355D-06 0.000000000000D+00  6 4 1 25 -24 2 4 4 0.75834691D-02 0.10311473D+00 0.23928652D+05 0.23928652D+05 0.23928652D+05 0.12253423D+01  1  2 12  9  6  1       21 0.168333305858D-03 0.100000000000D+01
-.105048288639D-05 0.000000000000D+00 -.105760943138D-06 0.828203033164D-06 0.000000000000D+00  6 3 1 25 -24 2 3 4 0.76076515D-02 0.10311473D+00 0.22365348D+05 0.22365348D+05 0.22365348D+05 0.12285171D+01  1  2  5  9  6  1       21 -.447775724885D-03 0.100000000000D+01
-.105048288639D-05 0.000000000000D+00 -.105760943138D-06 0.828203033164D-06 0.000000000000D+00  6 4 1 25 -24 2 4 4 0.76076515D-02 0.10311473D+00 0.22365348D+05 0.22365348D+05 0.22365348D+05 0.12285171D+01  1  2  5  9  6  1       21 -.394954557914D-03 0.100000000000D+01
0.332907229131D-10 0.000000000000D+00 0.000000000000D+00 0.828203033164D-06 0.429472441185D-08  6 3 1 25 -24 2 3 4 0.75620979D-02 0.10381250D+00 0.23928652D+05 0.23928652D+05 0.23928652D+05 0.12253423D+01  1  2 11  9  6  1       21 0.140831035619D-07 0.100000000000D+01
0.332907229131D-10 0.000000000000D+00 0.000000000000D+00 0.828203033164D-06 0.429472441185D-08  6 4 1 25 -24 2 4 4 0.75620979D-02 0.10381250D+00 0.23928652D+05 0.23928652D+05 0.23928652D+05 0.12253423D+01  1  2 11  9  6  1       21 0.124324556203D-07 0.100000000000D+01
  </mgrwgt>
  </event>
  <event>
  5     66 -.45631637E-03 0.25833166E+02 0.75467711E-02 0.12388418E+00
       21 -1    0    0  501  502 0.00000000E+00 0.00000000E+00 0.29504925E+02 0.29514455E+02 0.75000000E+00 0.0000E+00 0.9000E+01
        1 -1    0    0  502    0 -.00000000E+00 -.00000000E+00 -.56187840E+03 0.56187849E+03 0.32000000E+00 0.0000E+00 0.9000E+01
       25  1    1    2    0    0 0.24404166E+02 -.22446448E+02 -.36954320E+03 0.39151830E+03 0.12500000E+03 0.0000E+00 0.9000E+01
      -24  1    1    2    0    0 -.40516283E+02 0.22556280E+01 -.12585149E+03 0.15476586E+03 0.80419002E+02 0.0000E+00 0.9000E+01
        2  1    1    2  501    0 0.16112117E+02 0.20190820E+02 -.36978784E+02 0.45108784E+02 0.32000000E+00 0.0000E+00 0.9000E+01
#aMCatNLO 1  0  0  5  1 0.66439698D+01 0.00000000D+00  -5  6  0 0.00000000D+00 0.00000000D+00 0.00000000D+00 0.00000000D+00 0.00000000D+00
  <mgrwgt>
 -.1585900186D+00    7    2    0
 0.128767328931537D+03 0.000000000000000D+00 0.000000000000000D+00 0.128767328931537D+03
 0.128767328931537D+03 -.000000000000000D+00 -.000000000000000D+00 -.128767328931537D+03
 0.135151491359707D+03 0.244035783089700D+02 -.224471839114288D+02 -.392621308249761D+02
 0.952394737751354D+02 -.405166971047559D+02 0.225510902891197D+01 0.309298100476441D+02
 0.271436927282312D+02 0.161131187957858D+02 0.201920748825168D+02 0.833232077733201D+01
 0.000000000000000D+00 0.000000000000000D+00 0.000000000000000D+00 0.000000000000000D+00
 0.128767328931537D+03 0.000000000000000D+00 0.000000000000000D+00 0.128767328931537D+03
 0.128767328931537D+03 -.000000000000000D+00 -.000000000000000D+00 -.128767328931537D+03
 0.134891766813312D+03 0.260166440002197D+02 -.204257786427821D+02 -.384279918265151D+02
 0.949995346473789D+02 -.393803309547552D+02 0.367914063232642D+01 0.315174409962090D+02
 0.201283221537845D+02 0.102815107411362D+02 0.123244215832798D+02 0.121469552664041D+02
 0.751503424859908D+01 0.308217621339938D+01 0.442221642717595D+01 -.523640443609805D+01
0.179267312487D-04 0.000000000000D+00 0.000000000000D+00 0.858239578517D-06 0.000000000000D+00  6 21 1 25 -24 2 21 2 0.45399593D-02 0.86443571D-01 0.15034839D+05 0.15034839D+05 0.15034839D+05 0.12477077D+01  1  2  2  3  6  5        2 0.372932366829D+00 0.100000000000D+01
0.515472445226D-06 0.946019598414D-06 -.361889054709D-07 0.858239578517D-06 0.000000000000D+00  6 21 1 25 -24 2 21 4 0.45399593D-02 0.86443571D-01 0.15034839D+05 0.15034839D+05 0.15034839D+05 0.12477077D+01  1  2  3  3  6  5        2 0.166939891917D-01 0.100000000000D+01
0.178800586630D-05 0.000000000000D+00 0.000000000000D+00 0.858239578517D-06 0.000000000000D+00  6 21 1 25 -24 2 21 4 0.45399593D-02 0.86443571D-01 0.15034839D+05 0.15034839D+05 0.15034839D+05 0.12477077D+01  1  2 15  3  6  5        2 0.579060061952D-01 0.100000000000D+01
0.975169896975D-05 0.000000000000D+00 0.000000000000D+00 0.860981124832D-06 0.000000000000D+00  6 21 1 25 -24 2 21 4 0.45399593D-02 0.86443571D-01 0.14443419D+05 0.14443419D+05 0.14443419D+05 0.12496989D+01  1  2 12  3  6  5        2 0.317617139176D+00 0.100000000000D+01
-.355416657204D-04 0.000000000000D+00 0.000000000000D+00 0.858239578517D-06 0.000000000000D+00  6 21 1 25 -24 2 21 4 0.45399593D-02 0.86443571D-01 0.15034839D+05 0.15034839D+05 0.15034839D+05 0.12477077D+01  1  2  4  3  6  5        2 -.115104539319D+01 0.100000000000D+01
-.111887887576D-04 0.000000000000D+00 0.000000000000D+00 0.858239578517D-06 0.000000000000D+00  6 21 1 25 -24 2 21 4 0.45399593D-02 0.86443571D-01 0.15034839D+05 0.15034839D+05 0.15034839D+05 0.12477077D+01  1  2  5  3  6  5        2 -.362357911306D+00 0.100000000000D+01
0.182074775157D-04 0.000000000000D+00 -.000000000000D+00 0.858239578517D-06 0.000000000000D+00  6 21 1 25 -24 2 21 4 0.45399593D-02 0.86443571D-01 0.15034839D+05 0.15034839D+05 0.15034839D+05 0.12477077D+01  1  2  6  3  6  5        2 0.589663784497D+00 0.100000000000D+01
  </mgrwgt>
  </event>
  <event>
  5     66 0.45631637E-03 0.21128217E+02 0.75467711E-02 0.12318429E+00
       21 -1    0    0  501  502 0.00000000E+00 0.00000000E+00 0.15379660E+02 0.15397936E+02 0.75000000E+00 0.0000E+00 0.9000E+01
        3 -1    0    0  502    0 0.00000000E+00 0.00000000E+00 -.10464378E+04 0.10464379E+04 0.50000000E+00 0.0000E+00 0.9000E+01
       25  1    1    2    0    0 -.95993152E+01 0.52459436E+02 -.47513766E+03 0.49419119E+03 0.12500000E+03 0.0000E+00 0.9000E+01
      -24  1    1    2    0    0 0.14516534E+02 -.31939455E+02 -.35792296E+03 0.36851991E+03 0.80419002E+02 0.0000E+00 0.9000E+01
        4  1    1    2  501    0 -.49172189E+01 -.20519981E+02 -.19799752E+03 0.19912475E+03 0.15500000E+01 0.0000E+00 0.9000E+01
#aMCatNLO 1  0  0  2  1 0.92203747D+01 0.00000000D+00  -5  6  0 0.00000000D+00 0.00000000D+00 0.00000000D+00 0.00000000D+00 0.00000000D+00
  <mgrwgt>
 0.1236957729D-01   11    2    0
 0.126900053343387D+03 0.000000000000000D+00 0.000000000000000D+00 0.126900053343387D+03
 0.126900053343387D+03 0.000000000000000D+00 0.000000000000000D+00 -.126900053343387D+03
 0.137342096824410D+03 -.959543316179876D+01 0.524756360256872D+02 0.198011829510963D+02
 0.877359924873469D+02 0.145190141950825D+02 -.319291057910827D+02 -.344751438151867D+00
 0.287220173750161D+02 -.492358103328372D+01 -.205465302346045D+02 -.194564315129445D+02
 0.000000000000000D+00 0.000000000000000D+00 -.000000000000000D+00 -.000000000000000D+00
 0.129625216898254D+03 0.000000000000000D+00 0.000000000000000D+00 0.129625216898254D+03
 0.135030044685930D+03 0.000000000000000D+00 0.000000000000000D+00 -.135030044685930D+03
 0.138216588428995D+03 -.144610284438383D+02 0.536434257578120D+02 0.198011829510963D+02
 0.870102577725117D+02 0.114334844102507D+02 -.311885489235206D+02 -.344751438151867D+00
 0.287406900385315D+02 -.593821164754821D+01 -.203030091144630D+02 -.194564315129445D+02
 0.106877253441455D+02 0.896575568113581D+01 -.215186771982839D+01 -.540482778767569D+01
0.469204752594D-06 0.000000000000D+00 0.000000000000D+00 0.473006188634D-06 0.000000000000D+00  6 21 3 25 -24 4 21 2 0.23675165D-02 0.16099185D+00 0.14978177D+05 0.14978177D+05 0.14978177D+05 0.12478946D+01  1  2  2  2  6  2        3 0.944928545256D-03 0.100000000000D+01
-.142428281895D-07 0.247606150538D-07 -.947189211605D-09 0.473006188634D-06 0.000000000000D+00  6 21 3 25 -24 4 21 4 0.23675165D-02 0.16099185D+00 0.14978177D+05 0.14978177D+05 0.14978177D+05 0.12478946D+01  1  2  3  2  6  2        3 -.446671896765D-04 0.100000000000D+01
0.472078664170D-07 0.000000000000D+00 0.000000000000D+00 0.473006188634D-06 0.000000000000D+00  6 21 3 25 -24 4 21 4 0.23675165D-02 0.16099185D+00 0.14978177D+05 0.14978177D+05 0.14978177D+05 0.12478946D+01  1  2 15  2  6  2        3 0.148049439017D-03 0.100000000000D+01
0.498080169742D-05 0.000000000000D+00 0.000000000000D+00 0.470193033123D-06 0.000000000000D+00  6 21 3 25 -24 4 21 4 0.23675165D-02 0.17295772D+00 0.16151156D+05 0.16151156D+05 0.16151156D+05 0.12441782D+01  1  2 12  2  6  2        3 0.128808007220D-01 0.100000000000D+01
-.143336137039D-05 0.000000000000D+00 0.000000000000D+00 0.473006188634D-06 0.000000000000D+00  6 21 3 25 -24 4 21 4 0.23675165D-02 0.16099185D+00 0.14978177D+05 0.14978177D+05 0.14978177D+05 0.12478946D+01  1  2  4  2  6  2        3 -.449519037613D-02 0.100000000000D+01
-.152213880545D-04 0.000000000000D+00 -.238279369403D-05 0.473006188634D-06 0.000000000000D+00  6 21 3 25 -24 4 21 4 0.23675165D-02 0.17343839D+00 0.14978177D+05 0.14978177D+05 0.14978177D+05 0.12478946D+01  1  2  5  2  6  2        3 -.394532502076D-01 0.100000000000D+01
0.153628058025D-04 0.000000000000D+00 0.237620192902D-05 0.473006188634D-06 0.000000000000D+00  6 21 3 25 -24 4 21 4 0.23675165D-02 0.16099185D+00 0.14978177D+05 0.14978177D+05 0.14978177D+05 0.12478946D+01  1  2  6  2  6  2        3 0.481795716140D-01 0.100000000000D+01
0.886778284487D-10 0.000000000000D+00 0.000000000000D+00 0.473006188634D-06 0.752692200268D-07  6 21 3 25 -24 4 21 4 0.24183587D-02 0.17130596D+00 0.16151156D+05 0.16151156D+05 0.16151156D+05 0.12441782D+01  1  2 11  2  6  2        3 0.227112449261D-06 0.100000000000D+01
0.641036745347D-07 0.000000000000D+00 0.000000000000D+00 0.470193033123D-06 0.000000000000D+00  6 21 21 25 -24 4 -3 4 0.23675165D-02 0.17295772D+00 0.16151156D+05 0.16151156D+05 0.16151156D+05 0.12441782D+01  1  2 12 10  6  2        3 0.300892269677D-02 0.100000000000D+01
-.186216385834D-06 0.000000000000D+00 -.298562229190D-07 0.473006188634D-06 0.000000000000D+00  6 21 21 25 -24 4 -3 4 0.23675165D-02 0.17343839D+00 0.14978177D+05 0.14978177D+05 0.14978177D+05 0.12478946D+01  1  2  5 10  6  2        3 -.880009419175D-02 0.100000000000D+01
0.599742195017D-11 0.000000000000D+00 0.000000000000D+00 0.473006188634D-06 0.114267333540D-08  6 21 21 25 -24 4 -3 4 0.24183587D-02 0.17130596D+00 0.16151156D+05 0.16151156D+05 0.16151156D+05 0.12441782D+01  1  2 11 10  6  2        3 0.279128974797D-06 0.100000000000D+01
  </mgrwgt>
  </event>
  <event>
  6     66 0.45631637E-03 0.14388807E+02 0.75467711E-02 0.11664566E+00
       21 -1    0    0  501  502 0.00000000E+00 0.00000000E+00 0.22803647E+02 0.22815977E+02 0.75000000E+00 0.0000E+00 0.9000E+01
        1 -1    0    0  502    0 -.00000000E+00 -.00000000E+00 -.16257151E+04 0.16257151E+04 0.32000000E+00 0.0000E+00 0.9000E+01
       25  1    1    2    0    0 -.50240044E+02 -.10991354E+03 -.65436763E+03 0.67707240E+03 0.12500000E+03 0.0000E+00 0.9000E+01
      -24  1    1    2    0    0 0.54157045E+02 0.12138856E+03 -.83596790E+03 0.85028097E+03 0.80419002E+02 0.0000E+00 0.9000E+01
        2  1    1    2  503    0 -.16330545E+02 -.12751208E+02 -.23930782E+02 0.31655406E+02 0.32000000E+00 0.0000E+00 0.9000E+01
       21  1    1    2  501  503 0.12413543E+02 0.12761855E+01 -.88645143E+02 0.89522336E+02 0.75000000E+00 0.0000E+00 0.9000E+01
#aMCatNLO 2  0  0  5  1 0.11742106D+02 0.00000000D+00  -5  6  0 0.00000000D+00 0.00000000D+00 0.00000000D+00 0.00000000D+00 0.00000000D+00
  <mgrwgt>
 0.1366155837D+00    2    2    0
 0.192567968997667D+03 0.000000000000000D+00 0.000000000000000D+00 0.192567968997667D+03
 0.192567968997667D+03 -.000000000000000D+00 -.000000000000000D+00 -.192567968997667D+03
 0.170312227769952D+03 -.484918215995624D+02 -.104792050467256D+03 0.695875885400077D+01
 0.167089411547292D+03 0.558159231096106D+02 0.126248317745117D+03 -.489652988431578D+02
 0.477342986780904D+02 -.732410151004815D+01 -.214562672778610D+02 0.420065399891570D+02
 0.000000000000000D+00 0.000000000000000D+00 0.000000000000000D+00 0.000000000000000D+00
 0.192567968997667D+03 0.000000000000000D+00 0.000000000000000D+00 0.192567968997667D+03
 0.192567968997667D+03 -.000000000000000D+00 -.000000000000000D+00 -.192567968997667D+03
 0.174779166086470D+03 -.502710884660427D+02 -.110004488524466D+03 0.171635388772768D+02
 0.160173618907469D+03 0.541285780263126D+02 0.121305168466321D+03 -.392877256118445D+02
 0.356658748615983D+02 -.165946363715756D+02 -.125176582292113D+02 0.289824240841761D+02
 0.145172781397965D+02 0.127371468113057D+02 0.121697828735643D+01 -.685823734960832D+01
-.336745392243D-05 0.000000000000D+00 0.000000000000D+00 0.127760199439D-05 0.000000000000D+00  6 21 1 25 -24 2 21 4 0.35092043D-02 0.25011097D+00 0.31080925D+05 0.31080925D+05 0.31080925D+05 0.12132883D+01  1  2  8  3  6  5        2 -.240328975665D-01 0.100000000000D+01
0.227272410756D-04 0.000000000000D+00 0.000000000000D+00 0.127760199439D-05 0.581969526760D-07  6 21 1 25 -24 2 21 4 0.35092043D-02 0.25011097D+00 0.32905328D+05 0.32905328D+05 0.32905328D+05 0.12107075D+01  1  2  1  3  6  5        2 0.160648481281D+00 0.100000000000D+01
  </mgrwgt>
  </event>
  <event>
  5     66 0.45631637E-03 0.61524537E+02 0.75467711E-02 0.10059251E+00
       21 -1    0    0  501  502 0.00000000E+00 0.00000000E+00 0.29034073E+03 0.29034170E+03 0.75000000E+00 0.0000E+00 0.9000E+01
        1 -1    0    0  502    0 0.00000000E+00 0.00000000E+00 -.43701129E+03 0.43701141E+03 0.32000000E+00 0.0000E+00 0.9000E+01
       25  1    1    2    0    0 -.71035198E+02 -.56168193E+01 -.26785306E+03 0.30405232E+03 0.12500000E+03 0.0000E+00 0.9000E+01
      -24  1    1    2    0    0 0.15647821E+02 -.21169464E+02 -.13527827E+03 0.15956324E+03 0.80419002E+02 0.0000E+00 0.9000E+01
        2  1    1    2  501    0 0.55387377E+02 0.26786284E+02 0.25646077E+03 0.26373755E+03 0.32000000E+00 0.0000E+00 0.9000E+01
#aMCatNLO 1  0  0  2  1 0.31522904D+01 0.00000000D+00  -5  6  0 0.00000000D+00 0.00000000D+00 0.00000000D+00 0.00000000D+00 0.00000000D+00
  <mgrwgt>
 0.3190706510D+00    3    2    0
 0.356205800721565D+03 0.000000000000000D+00 0.000000000000000D+00 0.356205800721565D+03
 0.356205800721565D+03 0.000000000000000D+00 0.000000000000000D+00 -.356205800721565D+03
 0.255283984683281D+03 -.710352080562807D+02 -.561682407022925D+01 -.210872860604532D+03
 0.135058854233960D+03 0.156478156470755D+02 -.211694667458049D+02 -.105264797989608D+03
 0.322068762525889D+03 0.553873924092052D+02 0.267862908160342D+02 0.316137658594140D+03
 0.000000000000000D+00 -.000000000000000D+00 0.000000000000000D+00 0.000000000000000D+00
 0.901127726902156D+03 0.000000000000000D+00 0.000000000000000D+00 0.901127726902156D+03
 0.556908190853815D+03 0.000000000000000D+00 0.000000000000000D+00 -.556908190853815D+03
 0.292465899231025D+03 -.104686652599440D+01 -.159508128143836D+03 -.210872860604532D+03
 0.181067033894470D+03 0.560405702137913D+02 -.109985597253872D+03 -.105264797989608D+03
 0.388898474672252D+03 0.146230712097890D+03 -.172961218949114D+03 0.316137658594140D+03
 0.595604509958224D+03 -.201224415785687D+03 0.442454944346822D+03 0.344219536048341D+03
0.537411826305D-03 0.000000000000D+00 0.000000000000D+00 0.915679800476D-05 0.000000000000D+00  6 21 1 25 -24 2 21 2 0.44667888D-01 0.67232590D-01 0.21028829D+05 0.21028829D+05 0.21028829D+05 0.12314349D+01  1  2  2  2  6  2        1 0.237821356516D+00 0.100000000000D+01
0.700546308174D-04 0.283600012212D-04 -.108487964210D-05 0.915679800476D-05 0.000000000000D+00  6 21 1 25 -24 2 21 4 0.44667888D-01 0.67232590D-01 0.21028829D+05 0.21028829D+05 0.21028829D+05 0.12314349D+01  1  2  3  2  6  2        1 0.470114217024D-01 0.100000000000D+01
0.510199745295D-04 0.000000000000D+00 0.000000000000D+00 0.915679800476D-05 0.000000000000D+00  6 21 1 25 -24 2 21 4 0.44667888D-01 0.67232590D-01 0.21028829D+05 0.21028829D+05 0.21028829D+05 0.12314349D+01  1  2 15  2  6  2        1 0.342378727839D-01 0.100000000000D+01
  </mgrwgt>
  </event>
  <event>
  5     66 0.45631637E-03 0.10606678E+03 0.75467711E-02 0.97154213E-01
       21 -1    0    0  501  502 0.00000000E+00 0.00000000E+00 0.10037712E+04 0.10037715E+04 0.75000000E+00 0.0000E+00 0.9000E+01
        1 -1    0    0  502    0 0.00000000E+00 0.00000000E+00 -.11118540E+03 0.11118586E+03 0.32000000E+00 0.0000E+00 0.9000E+01
       25  1    1    2    0    0 -.16572748E+03 -.35238861E+02 0.68853054E+03 0.72000464E+03 0.12500000E+03 0.0000E+00 0.9000E+01
      -24  1    1    2    0    0 0.20800861E+03 -.62035997E+02 0.12880758E+03 0.26490499E+03 0.80419002E+02 0.0000E+00 0.9000E+01
        2  1    1    2  501    0 -.42281127E+02 0.97274858E+02 0.75247689E+02 0.13004772E+03 0.32000000E+00 0.0000E+00 0.9000E+01
#aMCatNLO 1  0  0  2  1 0.19187032D+02 0.00000000D+00  -5  6  0 0.00000000D+00 0.00000000D+00 0.00000000D+00 0.00000000D+00 0.00000000D+00
  <mgrwgt>
 0.1375837853D+00    3    2    0
 0.334073517003614D+03 0.000000000000000D+00 0.000000000000000D+00 0.334073517003614D+03
 0.334073517003614D+03 0.000000000000000D+00 0.000000000000000D+00 -.334073517003614D+03
 0.281677360691244D+03 -.165727413272175D+03 -.352390162143857D+02 0.187108983622757D+03
 0.269979464792709D+03 0.208008671651800D+03 -.620361450388519D+02 -.138944610121296D+03
 0.116490208523275D+03 -.422812583796244D+02 0.972751612532377D+02 -.481643735014609D+02
 0.000000000000000D+00 -.000000000000000D+00 -.000000000000000D+00 0.000000000000000D+00
 0.161678677977468D+04 0.000000000000000D+00 0.000000000000000D+00 0.161678677977468D+04
 0.535417355413640D+03 0.000000000000000D+00 0.000000000000000D+00 -.535417355413640D+03
 0.232261831284748D+03 0.128053884022332D+02 0.560964218758340D+02 0.187108983622757D+03
 0.511419724213276D+03 0.479452042029877D+03 0.768313287118905D+02 -.138944610121296D+03
 0.164467258715035D+03 0.553180774183438D+02 0.147205919124158D+03 -.481643735014609D+02
 0.124405532097526D+04 -.547575507850455D+03 -.280133669711882D+03 0.108136942436104D+04
0.106062543918D-02 0.000000000000D+00 0.000000000000D+00 0.277045059213D-07 0.000000000000D+00  6 21 1 25 -24 2 21 2 0.15442640D+00 0.17105503D-01 0.75103398D+05 0.75103398D+05 0.75103398D+05 0.11751697D+01  1  2  2  2  6  2        1 0.131029175712D+00 0.100000000000D+01
-.803554342335D-04 0.559707421349D-04 -.214109718197D-05 0.277045059213D-07 0.000000000000D+00  6 21 1 25 -24 2 21 4 0.15442640D+00 0.17105503D-01 0.75103398D+05 0.75103398D+05 0.75103398D+05 0.11751697D+01  1  2  3  2  6  2        1 -.137095239100D-01 0.100000000000D+01
0.118773872849D-03 0.000000000000D+00 0.000000000000D+00 0.277045059213D-07 0.000000000000D+00  6 21 1 25 -24 2 21 4 0.15442640D+00 0.17105503D-01 0.75103398D+05 0.75103398D+05 0.75103398D+05 0.11751697D+01  1  2 15  2  6  2        1 0.202641335368D-01 0.100000000000D+01
  </mgrwgt>
  </event>
  <event>
  6     66 -.45631637E-03 0.15132243E+02 0.75467711E-02 0.11799925E+00
       21 -1    0    0  501  502 0.00000000E+00 0.00000000E+00 0.65773329E+02 0.65777605E+02 0.75000000E+00 0.0000E+00 0.9000E+01
        1 -1    0    0  502    0 -.00000000E+00 -.00000000E+00 -.48295003E+03 0.48295013E+03 0.32000000E+00 0.0000E+00 0.9000E+01
       25  1    1    2    0    0 0.14975906E+02 0.11876979E+03 -.24759312E+03 0.30208922E+03 0.12500000E+03 0.0000E+00 0.9000E+01
      -24  1    1    2    0    0 -.28478963E+02 -.10358069E+03 -.15449365E+03 0.20463508E+03 0.80419002E+02 0.0000E+00 0.9000E+01
        2  1    1    2  503    0 0.10276898E+02 -.13786744E+02 0.77628316E+01 0.18869363E+02 0.32000000E+00 0.0000E+00 0.9000E+01
       21  1    1    2  501  503 0.32261600E+01 -.14023548E+01 -.22852756E+02 0.23134080E+02 0.75000000E+00 0.0000E+00 0.9000E+01
#aMCatNLO 2  0  0  5  5 0.78424645D+01 0.00000000D+00  -5  6  0 0.00000000D+00 0.00000000D+00 0.00000000D+00 0.00000000D+00 0.00000000D+00
  <mgrwgt>
 -.3663955863D-01    1    2    0
 0.178231404123457D+03 0.000000000000000D+00 0.000000000000000D+00 0.178231404123457D+03
 0.178231404123457D+03 -.000000000000000D+00 -.000000000000000D+00 -.178231404123457D+03
 0.178234746673983D+03 0.120621892201845D+02 0.122047323387732D+03 -.331900492172827D+02
 0.132805318075794D+03 -.306797760895487D+02 -.101105077166679D+03 -.255954391586097D+01
 0.454227434971383D+02 0.186175868693643D+02 -.209422462210524D+02 0.357495931331437D+02
 0.000000000000000D+00 0.000000000000000D+00 0.000000000000000D+00 -.000000000000000D+00
 0.178231404123457D+03 0.000000000000000D+00 0.000000000000000D+00 0.178231404123457D+03
 0.178231404123457D+03 -.000000000000000D+00 -.000000000000000D+00 -.178231404123457D+03
 0.175210111509715D+03 0.150297046436275D+02 0.118709273236626D+03 -.274918097113354D+02
 0.134229403824769D+03 -.284377583108578D+02 -.103627041408489D+03 0.174559100564523D+01
 0.379978335408188D+02 0.100827115374732D+02 -.136225892542398D+02 0.340088127381441D+02
 0.902545937161166D+01 0.332534212975709D+01 -.145964257389671D+01 -.826259403245395D+01
-.401118396843D-05 0.000000000000D+00 0.000000000000D+00 0.897589591827D-06 0.000000000000D+00  6 21 1 25 -24 2 21 4 0.10119311D-01 0.74300341D-01 0.28210422D+05 0.28210422D+05 0.28210422D+05 0.12177119D+01  1  2  8  3  6  5        2 -.366395586329D-01 0.100000000000D+01
  </mgrwgt>
  </event>
  <event>
  6     66 0.45631637E-03 0.84603050E+02 0.75467711E-02 0.11892284E+00
       21 -1    0    0  501  502 0.00000000E+00 0.00000000E+00 0.57835874E+02 0.57840737E+02 0.75000000E+00 0.0000E+00 0.9000E+01
        1 -1    0    0  502    0 -.00000000E+00 -.00000000E+00 -.51105656E+03 0.51105666E+03 0.32000000E+00 0.0000E+00 0.9000E+01
       25  1    1    2    0    0 0.12440267E+02 -.77207508E+02 -.25824355E+03 0.29737265E+03 0.12500000E+03 0.0000E+00 0.9000E+01
      -24  1    1    2    0    0 -.89326112E+01 -.11235065E+02 -.14893527E+03 0.16986745E+03 0.80419002E+02 0.0000E+00 0.9000E+01
        2  1    1    2  503    0 0.22508425E+01 0.77593475E+02 -.43857590E+02 0.89159431E+02 0.32000000E+00 0.0000E+00 0.9000E+01
       21  1    1    2  501  503 -.57584983E+01 0.10849098E+02 -.21842727E+01 0.12497871E+02 0.75000000E+00 0.0000E+00 0.9000E+01
#aMCatNLO 2  0  0  5  1 0.71573322D+01 0.00000000D+00  -5  6  0 0.00000000D+00 0.00000000D+00 0.00000000D+00 0.00000000D+00 0.00000000D+00
  <mgrwgt>
 0.9108778185D-01    2    2    0
 0.171926770565480D+03 0.000000000000000D+00 0.000000000000000D+00 0.171926770565480D+03
 0.171926770565480D+03 -.000000000000000D+00 -.000000000000000D+00 -.171926770565480D+03
 0.152054660343615D+03 0.124664415435357D+02 -.778674777899963D+02 -.357332264157335D+02
 0.848479117421124D+02 -.891799402810861D+01 -.116036231474900D+02 -.227547244543284D+02
 0.106950969045233D+03 -.354844751542710D+01 0.894711009374863D+02 0.584879508700619D+02
 0.000000000000000D+00 0.000000000000000D+00 0.000000000000000D+00 0.000000000000000D+00
 0.171926770565480D+03 0.000000000000000D+00 0.000000000000000D+00 0.171926770565480D+03
 0.171926770565480D+03 -.000000000000000D+00 -.000000000000000D+00 -.171926770565480D+03
 0.151613674504139D+03 0.124402137886885D+02 -.772061671489067D+02 -.353009225334674D+02
 0.847352745968857D+02 -.893264088366483D+01 -.112343150807399D+02 -.225133049139665D+02
 0.896733777091000D+02 0.228655011902182D+01 0.775826734142809D+02 0.449111917477720D+02
 0.178312143208351D+02 -.579412302404548D+01 0.108578088153656D+02 0.129030356996619D+02
-.696478201950D-05 0.000000000000D+00 0.000000000000D+00 0.480082257150D-06 0.000000000000D+00  6 21 1 25 -24 2 21 4 0.88982085D-02 0.78624468D-01 0.25449816D+05 0.25449816D+05 0.25449816D+05 0.12224682D+01  1  2 13  3  6  5        2 -.751929770604D-01 0.100000000000D+01
0.154018272065D-04 0.000000000000D+00 0.000000000000D+00 0.480078235667D-06 0.123522410853D-06  6 21 1 25 -24 2 21 4 0.88982085D-02 0.78624468D-01 0.25449816D+05 0.25449816D+05 0.25449816D+05 0.12224682D+01  1  2  1  3  6  5        2 0.166280758907D+00 0.100000000000D+01
  </mgrwgt>
  </event>
  <event>
  5     66 0.45631637E-03 0.66404099E+02 0.75467711E-02 0.11408946E+00
       21 -1    0    0  501  502 0.00000000E+00 0.00000000E+00 0.53807444E+02 0.53812671E+02 0.75000000E+00 0.0000E+00 0.9000E+01
        1 -1    0    0  502    0 0.00000000E+00 0.00000000E+00 -.79383422E+03 0.79383428E+03 0.32000000E+00 0.0000E+00 0.9000E+01
       25  1    1    2    0    0 -.42450542E+02 -.79576645E+02 -.55411252E+03 0.57515231E+03 0.12500000E+03 0.0000E+00 0.9000E+01
      -24  1    1    2    0    0 0.54454748E+00 0.28065709E+02 -.18763958E+03 0.20606748E+03 0.80419002E+02 0.0000E+00 0.9000E+01
        2  1    1    2  501    0 0.41905994E+02 0.51510936E+02 0.17253232E+01 0.66427163E+02 0.32000000E+00 0.0000E+00 0.9000E+01
#aMCatNLO 1  0  0  1  5 0.52594976D+02 0.00000000D+00  -5  6  0 0.00000000D+00 0.00000000D+00 0.00000000D+00 0.00000000D+00 0.00000000D+00
  <mgrwgt>
 0.7626657979D-01   14    2    0
 0.206679540721387D+03 0.000000000000000D+00 0.000000000000000D+00 0.206679540721387D+03
 0.206679540721387D+03 0.000000000000000D+00 0.000000000000000D+00 -.206679540721387D+03
 0.187411025697100D+03 -.424505920929678D+02 -.795767068597279D+02 -.106599190940441D+03
 0.866417738461365D+02 0.544524304563897D+00 0.280656807155384D+02 -.158619696157108D+02
 0.139306281899537D+03 0.419060677884039D+02 0.515110261441895D+02 0.122461160556152D+03
 0.000000000000000D+00 0.000000000000000D+00 -.000000000000000D+00 0.000000000000000D+00
 0.263830871765754D+03 0.000000000000000D+00 0.000000000000000D+00 0.263830871765754D+03
 0.261279593054399D+03 0.000000000000000D+00 0.000000000000000D+00 -.261279593054399D+03
 0.188908262415002D+03 -.775754030088067D+02 -.517687255736513D+02 -.106599190940441D+03
 0.932372422001777D+02 -.162449856300738D+02 0.413577772675591D+02 -.158619696157108D+02
 0.143098564368234D+03 0.155470233805682D+02 0.723792328191876D+02 0.122461160556152D+03
 0.998663958367385D+02 0.782733652583123D+02 -.619682845130955D+02 0.255127871135447D+01
0.101126578073D-04 0.000000000000D+00 0.000000000000D+00 0.982363920659D-06 0.000000000000D+00  6 21 1 25 -24 2 21 2 0.82784753D-02 0.12212875D+00 0.23366595D+05 0.23366595D+05 0.23366595D+05 0.12264563D+01  1  2  2  1  6  1       21 0.450268868687D-01 0.100000000000D+01
0.218058779315D-06 0.533659613961D-06 -.204145425271D-07 0.982363920659D-06 0.000000000000D+00  6 21 1 25 -24 2 21 4 0.82784753D-02 0.12212875D+00 0.23366595D+05 0.23366595D+05 0.23366595D+05 0.12264563D+01  1  2  3  1  6  1       21 0.146044211470D-02 0.100000000000D+01
0.952969177703D-06 0.000000000000D+00 0.000000000000D+00 0.982363920659D-06 0.000000000000D+00  6 21 1 25 -24 2 21 4 0.82784753D-02 0.12212875D+00 0.23366595D+05 0.23366595D+05 0.23366595D+05 0.12264563D+01  1  2 15  1  6  1       21 0.638248239991D-02 0.100000000000D+01
-.205689493734D-05 0.000000000000D+00 0.000000000000D+00 0.982363920659D-06 0.000000000000D+00  6 21 1 25 -24 2 21 4 0.82784753D-02 0.12212875D+00 0.23366595D+05 0.23366595D+05 0.23366595D+05 0.12264563D+01  1  2  4  1  6  1       21 -.137759919662D-01 0.100000000000D+01
-.166579975008D-04 0.000000000000D+00 -.123377449290D-04 0.982363920659D-06 0.000000000000D+00  6 21 1 25 -24 2 21 4 0.13409894D-01 0.12212875D+00 0.23366595D+05 0.23366595D+05 0.23366595D+05 0.12264563D+01  1  2  5  1  6  1       21 -.476565580697D-01 0.100000000000D+01
0.132669820688D-04 0.000000000000D+00 0.806049817343D-05 0.982363920659D-06 0.000000000000D+00  6 21 1 25 -24 2 21 4 0.82784753D-02 0.12212875D+00 0.23366595D+05 0.23366595D+05 0.23366595D+05 0.12264563D+01  1  2  6  1  6  1       21 0.888552133009D-01 0.100000000000D+01
-.273679709614D-05 0.000000000000D+00 -.206185581101D-05 0.982363920659D-06 0.000000000000D+00  6 -1 1 25 -24 2 -1 4 0.13409894D-01 0.12212875D+00 0.23366595D+05 0.23366595D+05 0.23366595D+05 0.12264563D+01  1  2  5  4  6  1       21 -.557518079420D-03 0.100000000000D+01
-.273679709614D-05 0.000000000000D+00 -.206185581101D-05 0.982363920659D-06 0.000000000000D+00  6 1 1 25 -24 2 1 4 0.13409894D-01 0.12212875D+00 0.23366595D+05 0.23366595D+05 0.23366595D+05 0.12264563D+01  1  2  5  5  6  1       21 -.746218181072D-03 0.100000000000D+01
-.273679709614D-05 0.000000000000D+00 -.206185581101D-05 0.982363920659D-06 0.000000000000D+00  6 -2 1 25 -24 2 -2 4 0.13409894D-01 0.12212875D+00 0.23366595D+05 0.23366595D+05 0.23366595D+05 0.12264563D+01  1  2  5  6  6  1       21 -.524951526605D-03 0.100000000000D+01
-.273679709614D-05 0.000000000000D+00 -.206185581101D-05 0.982363920659D-06 0.000000000000D+00  6 2 1 25 -24 2 2 4 0.13409894D-01 0.12212875D+00 0.23366595D+05 0.23366595D+05 0.23366595D+05 0.12264563D+01  1  2  5  7  6  1       21 -.875546797045D-03 0.100000000000D+01
-.273679709614D-05 0.000000000000D+00 -.206185581101D-05 0.982363920659D-06 0.000000000000D+00  6 -3 1 25 -24 2 -3 4 0.13409894D-01 0.12212875D+00 0.23366595D+05 0.23366595D+05 0.23366595D+05 0.12264563D+01  1  2  5  8  6  1       21 -.354086178555D-03 0.100000000000D+01
-.273679709614D-05 0.000000000000D+00 -.206185581101D-05 0.982363920659D-06 0.000000000000D+00  6 -4 1 25 -24 2 -4 4 0.13409894D-01 0.12212875D+00 0.23366595D+05 0.23366595D+05 0.23366595D+05 0.12264563D+01  1  2  5  8  6  1       21 -.306765940353D-03 0.100000000000D+01
-.273679709614D-05 0.000000000000D+00 -.206185581101D-05 0.982363920659D-06 0.000000000000D+00  6 3 1 25 -24 2 3 4 0.13409894D-01 0.12212875D+00 0.23366595D+05 0.23366595D+05 0.23366595D+05 0.12264563D+01  1  2  5  9  6  1       21 -.354042210946D-03 0.100000000000D+01
-.273679709614D-05 0.000000000000D+00 -.206185581101D-05 0.982363920659D-06 0.000000000000D+00  6 4 1 25 -24 2 4 4 0.13409894D-01 0.12212875D+00 0.23366595D+05 0.23366595D+05 0.23366595D+05 0.12264563D+01  1  2  5  9  6  1       21 -.306765940353D-03 0.100000000000D+01
  </mgrwgt>
  </event>
  <event>
  5     66 0.45631637E-03 0.20280035E+03 0.75467711E-02 0.11113513E+00
       21 -1    0    0  501  502 0.00000000E+00 0.00000000E+00 0.33092851E+02 0.33101349E+02 0.75000000E+00 0.0000E+00 0.9000E+01
        1 -1    0    0  502    0 -.00000000E+00 -.00000000E+00 -.19438570E+04 0.19438570E+04 0.32000000E+00 0.0000E+00 0.9000E+01
       25  1    1    2    0    0 0.85499745E+02 0.32958905E+01 -.55398852E+03 0.57432512E+03 0.12500000E+03 0.0000E+00 0.9000E+01
      -24  1    1    2    0    0 0.96077227E+02 0.87024238E+02 -.61452031E+03 0.63317176E+03 0.80419002E+02 0.0000E+00 0.9000E+01
        2  1    1    2  501    0 -.18157697E+03 -.90320128E+02 -.74225533E+03 0.76946150E+03 0.32000000E+00 0.0000E+00 0.9000E+01
#aMCatNLO 1  0  0  5  1 0.83481762D+02 0.00000000D+00  -5  6  0 0.00000000D+00 0.00000000D+00 0.00000000D+00 0.00000000D+00 0.00000000D+00
  <mgrwgt>
 0.1483167945D-01    4    2    0
 0.253645808847472D+03 0.000000000000000D+00 0.000000000000000D+00 0.253645808847472D+03
 0.253645808847472D+03 -.000000000000000D+00 -.000000000000000D+00 -.253645808847472D+03
 0.151541008971670D+03 0.854998128421701D+02 0.329592405925579D+01 0.431234144071158D+01
 0.152872366790665D+03 0.960772948373823D+02 0.870242716842905D+02 -.993348520704765D+01
 0.202878241932609D+03 -.181577107679552D+03 -.903201957435463D+02 0.562114376633609D+01
 0.000000000000000D+00 0.000000000000000D+00 0.000000000000000D+00 0.000000000000000D+00
 0.253645808847472D+03 0.000000000000000D+00 0.000000000000000D+00 0.253645808847472D+03
 0.253645808847472D+03 -.000000000000000D+00 -.000000000000000D+00 -.253645808847472D+03
 0.136992800824956D+03 0.544688469722250D+02 -.121395179262559D+02 0.527297751754051D+01
 0.126868901875325D+03 0.659919410048174D+02 0.720591966156500D+02 -.900212276100412D+01
 0.159928350353280D+03 -.853857208250253D+02 -.135106096907065D+03 -.571826061412734D+01
 0.835015646413828D+02 -.350750671520172D+02 0.751864182176706D+02 0.944740585759097D+01
0.201571917014D-04 0.000000000000D+00 0.000000000000D+00 0.191688801491D-06 0.000000000000D+00  6 21 1 25 -24 2 21 2 0.50918635D-02 0.29905558D+00 0.64218981D+05 0.64218981D+05 0.64218981D+05 0.11816649D+01  1  2  2  3  6  5        2 0.301820398881D-01 0.100000000000D+01
-.201219563405D-05 0.106372423025D-05 -.406915625007D-07 0.191688801491D-06 0.000000000000D+00  6 21 1 25 -24 2 21 4 0.50918635D-02 0.29905558D+00 0.64218981D+05 0.64218981D+05 0.64218981D+05 0.11816649D+01  1  2  3  3  6  5        2 -.420704769576D-02 0.100000000000D+01
0.209539730103D-05 0.000000000000D+00 0.000000000000D+00 0.191688801491D-06 0.000000000000D+00  6 21 1 25 -24 2 21 4 0.50918635D-02 0.29905558D+00 0.64218981D+05 0.64218981D+05 0.64218981D+05 0.11816649D+01  1  2 15  3  6  5        2 0.438100363496D-02 0.100000000000D+01
-.742515034069D-05 0.000000000000D+00 0.000000000000D+00 0.191688801491D-06 0.000000000000D+00  6 21 1 25 -24 2 21 4 0.50918635D-02 0.29905558D+00 0.64218981D+05 0.64218981D+05 0.64218981D+05 0.11816649D+01  1  2  4  3  6  5        2 -.155243163750D-01 0.100000000000D+01
  </mgrwgt>
  </event>
  <event>
  5     66 0.45631637E-03 0.65522564E+02 0.75467711E-02 0.11738900E+00
       21 -1    0    0  501  502 0.00000000E+00 0.00000000E+00 0.28245618E+02 0.28255574E+02 0.75000000E+00 0.0000E+00 0.9000E+01
        1 -1    0    0  502    0 0.00000000E+00 0.00000000E+00 -.10619043E+04 0.10619044E+04 0.32000000E+00 0.0000E+00 0.9000E+01
       25  1    1    2    0    0 -.86526831E+02 -.14435338E+02 -.33798844E+03 0.37088604E+03 0.12500000E+03 0.0000E+00 0.9000E+01
      -24  1    1    2    0    0 0.43537321E+02 0.68021879E+02 -.42377401E+03 0.43883266E+03 0.80419002E+02 0.0000E+00 0.9000E+01
        2  1    1    2  501    0 0.42989511E+02 -.53586540E+02 -.27189624E+03 0.28044123E+03 0.32000000E+00 0.0000E+00 0.9000E+01
#aMCatNLO 1  0  0  1  2 0.12101075D+02 0.00000000D+00  -5  6  0 0.00000000D+00 0.00000000D+00 0.00000000D+00 0.00000000D+00 0.00000000D+00
  <mgrwgt>
 0.5185256517D-01   32    2    0
 0.173203916807180D+03 0.000000000000000D+00 0.000000000000000D+00 0.173203916807180D+03
 0.173203916807180D+03 0.000000000000000D+00 0.000000000000000D+00 -.173203916807180D+03
 0.158658228436095D+03 -.865270301260695D+02 -.144350908179011D+02 0.430364341125186D+02
 0.116510371450691D+03 0.435371750795677D+02 0.680220604246149D+02 -.241860369405288D+02
 0.712392337275736D+02 0.429898550465018D+02 -.535869696067138D+02 -.188503971719898D+02
 0.000000000000000D+00 -.000000000000000D+00 0.000000000000000D+00 0.000000000000000D+00
 0.196377014860095D+03 0.000000000000000D+00 0.000000000000000D+00 0.196377014860095D+03
 0.174896608031209D+03 0.000000000000000D+00 0.000000000000000D+00 -.174896608031209D+03
 0.156959885164555D+03 -.826077126809587D+02 -.183094701007227D+02 0.430364341125186D+02
 0.115992527917379D+03 0.464243752441473D+02 0.651679643582294D+02 -.241860369405288D+02
 0.736667196783342D+02 0.447892841876403D+02 -.553657668291816D+02 -.188503971719898D+02
 0.246544901310353D+02 -.860594675082890D+01 0.850727257167486D+01 0.214804068288858D+02
0.828321340393D-06 0.000000000000D+00 0.000000000000D+00 0.177361333356D-06 0.000000000000D+00  6 21 1 25 -24 2 21 2 0.43462493D-02 0.16337066D+00 0.28120311D+05 0.28120311D+05 0.28120311D+05 0.12178588D+01  1  2  2  1  6  1       21 0.679427331439D-02 0.100000000000D+01
-.619115269201D-07 0.437117180442D-07 -.167214213630D-08 0.177361333356D-06 0.000000000000D+00  6 21 1 25 -24 2 21 4 0.43462493D-02 0.16337066D+00 0.28120311D+05 0.28120311D+05 0.28120311D+05 0.12178588D+01  1  2  3  1  6  1       21 -.753198716842D-03 0.100000000000D+01
0.874864628672D-07 0.000000000000D+00 0.000000000000D+00 0.177361333356D-06 0.000000000000D+00  6 21 1 25 -24 2 21 4 0.43462493D-02 0.16337066D+00 0.28120311D+05 0.28120311D+05 0.28120311D+05 0.12178588D+01  1  2 15  1  6  1       21 0.106433639826D-02 0.100000000000D+01
0.747469822513D-05 0.000000000000D+00 0.000000000000D+00 0.176401512667D-06 0.000000000000D+00  6 21 1 25 -24 2 21 4 0.49472072D-02 0.16337066D+00 0.30224295D+05 0.30224295D+05 0.30224295D+05 0.12145590D+01  1  2 12  1  6  1       21 0.722786350499D-01 0.100000000000D+01
0.672912971197D-05 0.000000000000D+00 0.000000000000D+00 0.176401512667D-06 0.000000000000D+00  6 21 1 25 -24 2 21 4 0.50100635D-02 0.16337066D+00 0.30224295D+05 0.30224295D+05 0.30224295D+05 0.12145590D+01  1  2 12  1  6  1       21 0.636946171620D-01 0.100000000000D+01
-.113829785329D-04 0.000000000000D+00 0.000000000000D+00 0.177361333356D-06 0.000000000000D+00  6 21 1 25 -24 2 21 4 0.43462493D-02 0.16337066D+00 0.28120311D+05 0.28120311D+05 0.28120311D+05 0.12178588D+01  1  2  4  1  6  1       21 -.138482206002D+00 0.100000000000D+01
-.211710268806D-04 0.000000000000D+00 -.208293411123D-05 0.177361333356D-06 0.000000000000D+00  6 21 1 25 -24 2 21 4 0.49742864D-02 0.16337066D+00 0.28120311D+05 0.28120311D+05 0.28120311D+05 0.12178588D+01  1  2  5  1  6  1       21 -.205196816912D+00 0.100000000000D+01
0.207998551900D-04 0.000000000000D+00 0.200896157261D-05 0.177361333356D-06 0.000000000000D+00  6 21 1 25 -24 2 21 4 0.43462493D-02 0.16337066D+00 0.28120311D+05 0.28120311D+05 0.28120311D+05 0.12178588D+01  1  2  6  1  6  1       21 0.253045353894D+00 0.100000000000D+01
0.256595924050D-06 0.000000000000D+00 0.000000000000D+00 0.176401512667D-06 0.000000000000D+00  6 -1 1 25 -24 2 -1 4 0.49472072D-02 0.16337066D+00 0.30224295D+05 0.30224295D+05 0.30224295D+05 0.12145590D+01  1  2 12  4  6  1       21 0.142657841573D-03 0.100000000000D+01
0.257373106054D-06 0.000000000000D+00 0.000000000000D+00 0.176401512667D-06 0.000000000000D+00  6 -1 1 25 -24 2 -1 4 0.50100635D-02 0.16337066D+00 0.30224295D+05 0.30224295D+05 0.30224295D+05 0.12145590D+01  1  2 12  4  6  1       21 0.140426175115D-03 0.100000000000D+01
-.659642947830D-06 0.000000000000D+00 -.750091628573D-07 0.177361333356D-06 0.000000000000D+00  6 -1 1 25 -24 2 -1 4 0.49742864D-02 0.16337066D+00 0.28120311D+05 0.28120311D+05 0.28120311D+05 0.12178588D+01  1  2  5  4  6  1       21 -.367515012523D-03 0.100000000000D+01
0.256595924050D-06 0.000000000000D+00 0.000000000000D+00 0.176401512667D-06 0.000000000000D+00  6 1 1 25 -24 2 1 4 0.49472072D-02 0.16337066D+00 0.30224295D+05 0.30224295D+05 0.30224295D+05 0.12145590D+01  1  2 12  5  6  1       21 0.160497667236D-03 0.100000000000D+01
0.257373106054D-06 0.000000000000D+00 0.000000000000D+00 0.176401512667D-06 0.000000000000D+00  6 1 1 25 -24 2 1 4 0.50100635D-02 0.16337066D+00 0.30224295D+05 0.30224295D+05 0.30224295D+05 0.12145590D+01  1  2 12  5  6  1       21 0.158210362856D-03 0.100000000000D+01
-.659642947830D-06 0.000000000000D+00 -.750091628573D-07 0.177361333356D-06 0.000000000000D+00  6 1 1 25 -24 2 1 4 0.49742864D-02 0.16337066D+00 0.28120311D+05 0.28120311D+05 0.28120311D+05 0.12178588D+01  1  2  5  5  6  1       21 -.413769204273D-03 0.100000000000D+01
0.256595924050D-06 0.000000000000D+00 0.000000000000D+00 0.176401512667D-06 0.000000000000D+00  6 -2 1 25 -24 2 -2 4 0.49472072D-02 0.16337066D+00 0.30224295D+05 0.30224295D+05 0.30224295D+05 0.12145590D+01  1  2 12  6  6  1       21 0.139513845080D-03 0.100000000000D+01
0.257373106054D-06 0.000000000000D+00 0.000000000000D+00 0.176401512667D-06 0.000000000000D+00  6 -2 1 25 -24 2 -2 4 0.50100635D-02 0.16337066D+00 0.30224295D+05 0.30224295D+05 0.30224295D+05 0.12145590D+01  1  2 12  6  6  1       21 0.137293250116D-03 0.100000000000D+01
-.659642947830D-06 0.000000000000D+00 -.750091628573D-07 0.177361333356D-06 0.000000000000D+00  6 -2 1 25 -24 2 -2 4 0.49742864D-02 0.16337066D+00 0.28120311D+05 0.28120311D+05 0.28120311D+05 0.12178588D+01  1  2  5  6  6  1       21 -.359363083743D-03 0.100000000000D+01
0.256595924050D-06 0.000000000000D+00 0.000000000000D+00 0.176401512667D-06 0.000000000000D+00  6 2 1 25 -24 2 2 4 0.49472072D-02 0.16337066D+00 0.30224295D+05 0.30224295D+05 0.30224295D+05 0.12145590D+01  1  2 12  7  6  1       21 0.172507160959D-03 0.100000000000D+01
0.257373106054D-06 0.000000000000D+00 0.000000000000D+00 0.176401512667D-06 0.000000000000D+00  6 2 1 25 -24 2 2 4 0.50100635D-02 0.16337066D+00 0.30224295D+05 0.30224295D+05 0.30224295D+05 0.12145590D+01  1  2 12  7  6  1       21 0.170180636682D-03 0.100000000000D+01
-.659642947830D-06 0.000000000000D+00 -.750091628573D-07 0.177361333356D-06 0.000000000000D+00  6 2 1 25 -24 2 2 4 0.49742864D-02 0.16337066D+00 0.28120311D+05 0.28120311D+05 0.28120311D+05 0.12178588D+01  1  2  5  7  6  1       21 -.444895180500D-03 0.100000000000D+01
0.256595924050D-06 0.000000000000D+00 0.000000000000D+00 0.176401512667D-06 0.000000000000D+00  6 -3 1 25 -24 2 -3 4 0.49472072D-02 0.16337066D+00 0.30224295D+05 0.30224295D+05 0.30224295D+05 0.12145590D+01  1  2 12  8  6  1       21 0.102562832702D-03 0.100000000000D+01
0.256595924050D-06 0.000000000000D+00 0.000000000000D+00 0.176401512667D-06 0.000000000000D+00  6 -4 1 25 -24 2 -4 4 0.49472072D-02 0.16337066D+00 0.30224295D+05 0.30224295D+05 0.30224295D+05 0.12145590D+01  1  2 12  8  6  1       21 0.917965964743D-04 0.100000000000D+01
0.257373106054D-06 0.000000000000D+00 0.000000000000D+00 0.176401512667D-06 0.000000000000D+00  6 -3 1 25 -24 2 -3 4 0.50100635D-02 0.16337066D+00 0.30224295D+05 0.30224295D+05 0.30224295D+05 0.12145590D+01  1  2 12  8  6  1       21 0.100828936427D-03 0.100000000000D+01
0.257373106054D-06 0.000000000000D+00 0.000000000000D+00 0.176401512667D-06 0.000000000000D+00  6 -4 1 25 -24 2 -4 4 0.50100635D-02 0.16337066D+00 0.30224295D+05 0.30224295D+05 0.30224295D+05 0.12145590D+01  1  2 12  8  6  1       21 0.902156851521D-04 0.100000000000D+01
-.659642947830D-06 0.000000000000D+00 -.750091628573D-07 0.177361333356D-06 0.000000000000D+00  6 -3 1 25 -24 2 -3 4 0.49742864D-02 0.16337066D+00 0.28120311D+05 0.28120311D+05 0.28120311D+05 0.12178588D+01  1  2  5  8  6  1       21 -.263680767997D-03 0.100000000000D+01
-.659642947830D-06 0.000000000000D+00 -.750091628573D-07 0.177361333356D-06 0.000000000000D+00  6 -4 1 25 -24 2 -4 4 0.49742864D-02 0.16337066D+00 0.28120311D+05 0.28120311D+05 0.28120311D+05 0.12178588D+01  1  2  5  8  6  1       21 -.235812957951D-03 0.100000000000D+01
0.256595924050D-06 0.000000000000D+00 0.000000000000D+00 0.176401512667D-06 0.000000000000D+00  6 3 1 25 -24 2 3 4 0.49472072D-02 0.16337066D+00 0.30224295D+05 0.30224295D+05 0.30224295D+05 0.12145590D+01  1  2 12  9  6  1       21 0.102553098147D-03 0.100000000000D+01
0.256595924050D-06 0.000000000000D+00 0.000000000000D+00 0.176401512667D-06 0.000000000000D+00  6 4 1 25 -24 2 4 4 0.49472072D-02 0.16337066D+00 0.30224295D+05 0.30224295D+05 0.30224295D+05 0.12145590D+01  1  2 12  9  6  1       21 0.917965964743D-04 0.100000000000D+01
0.257373106054D-06 0.000000000000D+00 0.000000000000D+00 0.176401512667D-06 0.000000000000D+00  6 3 1 25 -24 2 3 4 0.50100635D-02 0.16337066D+00 0.30224295D+05 0.30224295D+05 0.30224295D+05 0.12145590D+01  1  2 12  9  6  1       21 0.100819305750D-03 0.100000000000D+01
0.257373106054D-06 0.000000000000D+00 0.000000000000D+00 0.176401512667D-06 0.000000000000D+00  6 4 1 25 -24 2 4 4 0.50100635D-02 0.16337066D+00 0.30224295D+05 0.30224295D+05 0.30224295D+05 0.12145590D+01  1  2 12  9  6  1       21 0.902156851521D-04 0.100000000000D+01
-.659642947830D-06 0.000000000000D+00 -.750091628573D-07 0.177361333356D-06 0.000000000000D+00  6 3 1 25 -24 2 3 4 0.49742864D-02 0.16337066D+00 0.28120311D+05 0.28120311D+05 0.28120311D+05 0.12178588D+01  1  2  5  9  6  1       21 -.263655526035D-03 0.100000000000D+01
-.659642947830D-06 0.000000000000D+00 -.750091628573D-07 0.177361333356D-06 0.000000000000D+00  6 4 1 25 -24 2 4 4 0.49742864D-02 0.16337066D+00 0.28120311D+05 0.28120311D+05 0.28120311D+05 0.12178588D+01  1  2  5  9  6  1       21 -.235812957951D-03 0.100000000000D+01
  </mgrwgt>
  </event>
  <event>
  5     66 0.45631637E-03 0.88681050E+02 0.75467711E-02 0.11599587E+00
       21 -1    0    0  501  502 0.00000000E+00 0.00000000E+00 0.61627085E+02 0.61631648E+02 0.75000000E+00 0.0000E+00 0.9000E+01
        1 -1    0    0  502    0 -.00000000E+00 -.00000000E+00 -.64734459E+03 0.64734467E+03 0.32000000E+00 0.0000E+00 0.9000E+01
       25  1    1    2    0    0 -.71510594E+02 0.35693635E+02 -.33869666E+03 0.36976781E+03 0.12500000E+03 0.0000E+00 0.9000E+01
      -24  1    1    2    0    0 -.53055146E+02 0.71372265E+01 -.13668682E+03 0.16738068E+03 0.80419002E+02 0.0000E+00 0.9000E+01
        2  1    1    2  501    0 0.12456574E+03 -.42830862E+02 -.11033403E+03 0.17182784E+03 0.32000000E+00 0.0000E+00 0.9000E+01
#aMCatNLO 1  0  0  5  1 0.41927289D+00 0.00000000D+00  -5  6  0 0.00000000D+00 0.00000000D+00 0.00000000D+00 0.00000000D+00 0.00000000D+00
  <mgrwgt>
 0.2962289371D-03    1    2    0
 0.199738844546565D+03 0.000000000000000D+00 0.000000000000000D+00 0.199738844546565D+03
 0.199738844546565D+03 -.000000000000000D+00 -.000000000000000D+00 -.199738844546565D+03
 0.159648684024312D+03 -.715107180739257D+02 0.356936782425005D+02 -.589481199425975D+02
 0.966489276184426D+02 -.530552212718250D+02 0.713725239639450D+01 0.282884772518132D+01
 0.143180077450375D+03 0.124565939345751D+03 -.428309306388950D+02 0.561192722174161D+02
 0.000000000000000D+00 0.000000000000000D+00 0.000000000000000D+00 -.000000000000000D+00
 0.199738844546565D+03 0.000000000000000D+00 0.000000000000000D+00 0.199738844546565D+03
 0.199738844546565D+03 -.000000000000000D+00 -.000000000000000D+00 -.199738844546565D+03
 0.151447494053394D+03 -.590145936790537D+02 0.313969929686377D+02 -.533183835133474D+02
 0.926955389537274D+02 -.454496247569892D+02 0.452213321931213D+01 0.625531039574489D+01
 0.137375580426780D+03 0.117202013986563D+03 -.454130104608295D+02 0.554382223377776D+02
 0.179590756592279D+02 -.127377955505199D+02 0.949388427287961D+01 -.837514922017498D+01
0.445272063241D-07 0.000000000000D+00 0.000000000000D+00 0.348493351585D-06 0.000000000000D+00  6 21 1 25 -24 2 21 4 0.94814471D-02 0.99591833D-01 0.35475442D+05 0.35475442D+05 0.35475442D+05 0.12073305D+01  1  2 14  3  6  5        2 0.296228937150D-03 0.100000000000D+01
  </mgrwgt>
  </event>
  <event>
  6     66 0.45631637E-03 0.25626304E+02 0.75467711E-02 0.11882241E+00
       21 -1    0    0  501  502 0.00000000E+00 0.00000000E+00 0.10541823E+03 0.10542090E+03 0.75000000E+00 0.0000E+00 0.9000E+01
        3 -1    0    0  503    0 0.00000000E+00 0.00000000E+00 -.25550815E+03 0.25550863E+03 0.50000000E+00 0.0000E+00 0.9000E+01
       25  1    1    2    0    0 0.22718971E+02 0.29911206E+02 -.90785935E+02 0.15899031E+03 0.12500000E+03 0.0000E+00 0.9000E+01
      -24  1    1    2    0    0 0.41352827E+02 -.15851629E+02 -.37387950E+02 0.99128226E+02 0.80419002E+02 0.0000E+00 0.9000E+01
        4  1    1    2  501    0 -.38918100E+02 0.29059501E+02 -.79391223E+00 0.48601501E+02 0.15500000E+01 0.0000E+00 0.9000E+01
       21  1    1    2  503  502 -.25153699E+02 -.43119078E+02 -.21122116E+02 0.54209499E+02 0.75000000E+00 0.0000E+00 0.9000E+01
#aMCatNLO 2  0  0  2  1 0.28740022D+01 0.00000000D+00  -5  6  0 0.00000000D+00 0.00000000D+00 0.00000000D+00 0.00000000D+00 0.00000000D+00
  <mgrwgt>
 0.3359208831D-02    1    2    0
 0.136887292903243D+03 0.000000000000000D+00 0.000000000000000D+00 0.136887292903243D+03
 0.136887292903243D+03 0.000000000000000D+00 0.000000000000000D+00 -.136887292903243D+03
 0.128559056334514D+03 0.108030466738322D+02 0.946544881376008D+01 -.263842837109092D+02
 0.921449383803258D+02 0.329722770670467D+02 -.302315265262974D+02 0.472836796867406D+01
 0.530705910916459D+02 -.437753237408789D+02 0.207660777125373D+02 0.216559157422351D+02
 0.000000000000000D+00 -.000000000000000D+00 -.000000000000000D+00 0.000000000000000D+00
 0.165042182055616D+03 0.000000000000000D+00 0.000000000000000D+00 0.165042182055616D+03
 0.163199868673246D+03 0.000000000000000D+00 0.000000000000000D+00 -.163199868673246D+03
 0.133162047899307D+03 0.227278682896747D+02 0.299072662877570D+02 -.263842837109092D+02
 0.919321837438629D+02 0.413593991194110D+02 -.158541191612437D+02 0.472836796867406D+01
 0.531942648732494D+02 -.389335687929001D+02 0.290659310846761D+02 0.216559157422351D+02
 0.499535542124423D+02 -.251536986161856D+02 -.431190782111893D+02 0.184231338236978D+01
0.140822676843D-05 0.000000000000D+00 0.000000000000D+00 0.599016771167D-06 0.235551661994D-08  6 21 3 25 -24 4 21 4 0.16218154D-01 0.39308514D-01 0.25734358D+05 0.25734358D+05 0.25734358D+05 0.12219519D+01  1  2  1  2  6  2        3 0.335920883073D-02 0.100000000000D+01
  </mgrwgt>
  </event>
  <event>
  5     66 0.45631637E-03 0.27917001E+02 0.75467711E-02 0.10753841E+00
       21 -1    0    0  501  502 0.00000000E+00 0.00000000E+00 0.38133787E+02 0.38141162E+02 0.75000000E+00 0.0000E+00 0.9000E+01
        1 -1    0    0  502    0 0.00000000E+00 0.00000000E+00 -.26123958E+04 0.26123958E+04 0.32000000E+00 0.0000E+00 0.9000E+01
       25  1    1    2    0    0 0.89971060E+01 -.10527916E+03 -.10675828E+04 0.10800568E+04 0.12500000E+03 0.0000E+00 0.9000E+01
      -24  1    1    2    0    0 -.22050124E+02 0.12995662E+03 -.15277307E+04 0.15355140E+04 0.80419002E+02 0.0000E+00 0.9000E+01
        2  1    1    2  501    0 0.13053018E+02 -.24677454E+02 0.21051565E+02 0.34966109E+02 0.32000000E+00 0.0000E+00 0.9000E+01
#aMCatNLO 1  0  0  1  5 0.23667162D+02 0.00000000D+00  -5  6  0 0.00000000D+00 0.00000000D+00 0.00000000D+00 0.00000000D+00 0.00000000D+00
  <mgrwgt>
 0.2944638718D+00    3    2    0
 0.315642746838172D+03 0.000000000000000D+00 0.000000000000000D+00 0.315642746838172D+03
 0.315642746838172D+03 0.000000000000000D+00 0.000000000000000D+00 -.315642746838172D+03
 0.181364298666809D+03 0.899710249950268D+01 -.105279156209300D+03 -.781240055640697D+02
 0.217267098312936D+03 -.220501284720930D+02 0.129956624708453D+03 -.152849087611614D+03
 0.232654096696599D+03 0.130530259725903D+02 -.246774684991527D+02 0.230973093175683D+03
 0.000000000000000D+00 -.000000000000000D+00 -.000000000000000D+00 -.000000000000000D+00
 0.377748030994532D+03 0.000000000000000D+00 0.000000000000000D+00 0.377748030994532D+03
 0.605253069619275D+03 0.000000000000000D+00 0.000000000000000D+00 -.605253069619275D+03
 0.157938055350298D+03 0.253469766217134D+02 -.507306599464005D+02 -.781240055640697D+02
 0.270671623292125D+03 0.146204756542699D+01 0.208400888996274D+03 -.152849087611614D+03
 0.239270547999539D+03 0.357935358588313D+02 0.511922665993539D+02 0.230973093175683D+03
 0.315120873971845D+03 -.626025600459717D+02 -.208862495649228D+03 -.227505038624744D+03
0.386140590163D-03 0.000000000000D+00 0.000000000000D+00 0.696565124696D-05 0.000000000000D+00  6 21 1 25 -24 2 21 2 0.58673052D-02 0.40190761D+00 0.29929254D+05 0.29929254D+05 0.29929254D+05 0.12150060D+01  1  2  2  1  6  1       21 0.182003287130D+00 0.100000000000D+01
0.122435038252D-03 0.203771987749D-04 -.779506599505D-06 0.696565124696D-05 0.000000000000D+00  6 21 1 25 -24 2 21 4 0.58673052D-02 0.40190761D+00 0.29929254D+05 0.29929254D+05 0.29929254D+05 0.12150060D+01  1  2  3  1  6  1       21 0.851915192093D-01 0.100000000000D+01
0.391903924550D-04 0.000000000000D+00 0.000000000000D+00 0.696565124696D-05 0.000000000000D+00  6 21 1 25 -24 2 21 4 0.58673052D-02 0.40190761D+00 0.29929254D+05 0.29929254D+05 0.29929254D+05 0.12150060D+01  1  2 15  1  6  1       21 0.272690654516D-01 0.100000000000D+01
  </mgrwgt>
  </event>
  <event>
  5     66 -.45631637E-03 0.99754581E+02 0.75467711E-02 0.11243632E+00
       21 -1    0    0  501  502 0.00000000E+00 0.00000000E+00 0.51012930E+02 0.51018443E+02 0.75000000E+00 0.0000E+00 0.9000E+01
        1 -1    0    0  502    0 0.00000000E+00 0.00000000E+00 -.10509150E+04 0.10509150E+04 0.32000000E+00 0.0000E+00 0.9000E+01
       25  1    1    2    0    0 -.13728731E+03 0.85361041E+02 -.23742388E+03 0.31325614E+03 0.12500000E+03 0.0000E+00 0.9000E+01
      -24  1    1    2    0    0 0.51057056E+02 -.35208706E+02 -.40541582E+03 0.41794220E+03 0.80419002E+02 0.0000E+00 0.9000E+01
        2  1    1    2  501    0 0.86230256E+02 -.50152335E+02 -.35706237E+03 0.37073515E+03 0.32000000E+00 0.0000E+00 0.9000E+01
#aMCatNLO 1  0  0  2  2 0.56912609D+02 0.00000000D+00  -5  6  0 0.00000000D+00 0.00000000D+00 0.00000000D+00 0.00000000D+00 0.00000000D+00
  <mgrwgt>
 -.1980666511D-01    4    2    0
 0.231545498241914D+03 0.000000000000000D+00 0.000000000000000D+00 0.231545498241914D+03
 0.231545498241914D+03 0.000000000000000D+00 0.000000000000000D+00 -.231545498241914D+03
 0.232755330689570D+03 -.137287491348989D+03 0.853611454988426D+02 0.111425596353072D+03
 0.119130684690945D+03 0.510569640268545D+02 -.352086530485777D+02 -.622771326847036D+02
 0.111204981103313D+03 0.862305273221348D+02 -.501524924502649D+02 -.491484636683686D+02
 0.000000000000000D+00 -.000000000000000D+00 -.000000000000000D+00 0.000000000000000D+00
 0.271396817456249D+03 0.000000000000000D+00 0.000000000000000D+00 0.271396817456249D+03
 0.254535951306892D+03 0.000000000000000D+00 0.000000000000000D+00 -.254535951306892D+03
 0.235453964095716D+03 -.123330780477360D+03 0.110396667850956D+03 0.111425596353072D+03
 0.119302872749037D+03 0.581643586479073D+02 -.224594216188171D+02 -.622771326847036D+02
 0.111818254711262D+03 0.928785602736095D+02 -.382272631405030D+02 -.491484636683686D+02
 0.593576772071261D+02 -.277121384441570D+02 -.497099830916359D+02 0.168608661493565D+02
0.938926364463D-05 0.000000000000D+00 0.000000000000D+00 0.493598481978D-07 0.000000000000D+00  6 21 1 25 -24 2 21 2 0.78485709D-02 0.16167966D+00 0.41140411D+05 0.41140411D+05 0.41140411D+05 0.12007624D+01  1  2  2  2  6  2        1 0.276352447431D-01 0.100000000000D+01
-.930374118453D-06 0.495485055210D-06 -.189542181317D-07 0.493598481978D-07 0.000000000000D+00  6 21 1 25 -24 2 21 4 0.78485709D-02 0.16167966D+00 0.41140411D+05 0.41140411D+05 0.41140411D+05 0.12007624D+01  1  2  3  2  6  2        1 -.394824049187D-02 0.100000000000D+01
0.106314714448D-05 0.000000000000D+00 0.000000000000D+00 0.493598481978D-07 0.000000000000D+00  6 21 1 25 -24 2 21 4 0.78485709D-02 0.16167966D+00 0.41140411D+05 0.41140411D+05 0.41140411D+05 0.12007624D+01  1  2 15  2  6  2        1 0.451169107287D-02 0.100000000000D+01
-.113121135828D-04 0.000000000000D+00 0.000000000000D+00 0.493598481978D-07 0.000000000000D+00  6 21 1 25 -24 2 21 4 0.78485709D-02 0.16167966D+00 0.41140411D+05 0.41140411D+05 0.41140411D+05 0.12007624D+01  1  2  4  2  6  2        1 -.480053604354D-01 0.100000000000D+01
  </mgrwgt>
  </event>
  <event>
  6     66 0.45631637E-03 0.19486198E+02 0.75467711E-02 0.12234479E+00
       21 -1    0    0  503  502 0.00000000E+00 0.00000000E+00 0.78239354E+02 0.78242949E+02 0.75000000E+00 0.0000E+00 0.9000E+01
        1 -1    0    0  502    0 0.00000000E+00 0.00000000E+00 -.16280149E+04 0.16280149E+04 0.32000000E+00 0.0000E+00 0.9000E+01
       25  1    1    2    0    0 0.15074972E+02 0.72204229E+01 -.11549158E+04 0.11617809E+04 0.12500000E+03 0.0000E+00 0.9000E+01
      -24  1    1    2    0    0 -.27364597E+02 -.61736609E+01 -.45426748E+03 0.46218296E+03 0.80419002E+02 0.0000E+00 0.9000E+01
        2  1    1    2  501    0 0.21758181E+02 -.22158598E+02 0.21140295E+02 0.37569088E+02 0.32000000E+00 0.0000E+00 0.9000E+01
       21  1    1    2  503  501 -.94685562E+01 0.21111836E+02 0.38267409E+02 0.44724940E+02 0.75000000E+00 0.0000E+00 0.9000E+01
#aMCatNLO 2  0  0  1  5 0.47916811D+02 0.00000000D+00  -5  6  0 0.00000000D+00 0.00000000D+00 0.00000000D+00 0.00000000D+00 0.00000000D+00
  <mgrwgt>
 0.3724297183D+00    1    2    0
 0.244067574226854D+03 0.000000000000000D+00 0.000000000000000D+00 0.244067574226854D+03
 0.244067574226854D+03 0.000000000000000D+00 0.000000000000000D+00 -.244067574226854D+03
 0.197263190275859D+03 0.112530526857027D+02 0.157420588012772D+02 -.151371472304922D+03
 0.955979705784725D+02 -.292143199531527D+02 -.204937984005894D+01 -.425920130575904D+02
 0.195273987599376D+03 0.179612672674500D+02 -.136926789612183D+02 0.193963485362513D+03
 0.000000000000000D+00 -.000000000000000D+00 0.000000000000000D+00 0.000000000000000D+00
 0.520275870671578D+03 0.000000000000000D+00 0.000000000000000D+00 0.520275870671578D+03
 0.244826654309380D+03 0.000000000000000D+00 0.000000000000000D+00 -.244826654309380D+03
 0.197022109702448D+03 0.150749633309606D+02 0.722042688584147D+01 -.151371472304922D+03
 0.952272596335742D+02 -.273646010344627D+02 -.617365830576591D+01 -.425920130575904D+02
 0.196433847408180D+03 0.217581938699093D+02 -.221586044941009D+02 0.193963485362513D+03
 0.276419308236755D+03 -.946855616640719D+01 0.211118359140253D+02 0.275449216362198D+03
0.390176338611D-03 0.000000000000D+00 0.000000000000D+00 0.241862133696D-04 0.115574879019D-05  6 21 1 25 -24 2 21 4 0.12037078D-01 0.25046359D+00 0.17619507D+05 0.17619507D+05 0.17619507D+05 0.12399315D+01  1  2  1  1  6  1       21 0.372429718324D+00 0.100000000000D+01
  </mgrwgt>
  </event>
  <event>
  5     66 0.45631637E-03 0.21034490E+02 0.75467711E-02 0.99724372E-01
       21 -1    0    0  501  502 0.00000000E+00 0.00000000E+00 0.11373354E+02 0.11398056E+02 0.75000000E+00 0.0000E+00 0.9000E+01
        1 -1    0    0  502    0 0.00000000E+00 0.00000000E+00 -.12594009E+04 0.12594009E+04 0.32000000E+00 0.0000E+00 0.9000E+01
       25  1    1    2    0    0 -.32032324E+02 0.12128581E+02 -.79839880E+03 0.80885031E+03 0.12500000E+03 0.0000E+00 0.9000E+01
      -24  1    1    2    0    0 0.10999384E+02 -.12061281E+02 -.39447619E+03 0.40292077E+03 0.80419002E+02 0.0000E+00 0.9000E+01
        2  1    1    2  501    0 0.21032940E+02 -.67300497E-01 -.55152503E+02 0.59027875E+02 0.32000000E+00 0.0000E+00 0.9000E+01
#aMCatNLO 1  0  0  1  1 0.54874011D+03 0.00000000D+00  -5  6  0 0.00000000D+00 0.00000000D+00 0.00000000D+00 0.00000000D+00 0.00000000D+00
  <mgrwgt>
 0.6524131384D+00   12    2    0
 0.119746953882363D+03 0.000000000000000D+00 0.000000000000000D+00 0.119746953882363D+03
 0.119746953882363D+03 0.000000000000000D+00 0.000000000000000D+00 -.119746953882363D+03
 0.131370928473843D+03 -.320332108412309D+02 0.121285841249620D+02 -.214497482130779D+02
 0.823157656716331D+02 0.109988282809666D+02 -.120612790116772D+02 0.649774182196830D+01
 0.258072136192501D+02 0.210343825602643D+02 -.673051132848343D-01 0.149520063911096D+02
 0.000000000000000D+00 0.000000000000000D+00 0.000000000000000D+00 0.000000000000000D+00
 0.792182142804662D+03 0.000000000000000D+00 0.000000000000000D+00 0.792182142804662D+03
 0.452114742745524D+03 0.000000000000000D+00 0.000000000000000D+00 -.452114742745524D+03
 0.397891880749950D+03 -.375940154946314D+03 -.300309335064646D+02 -.214497482130779D+02
 0.184135312652214D+03 -.162137040143735D+03 -.332859876795348D+02 0.649774182196830D+01
 0.166989835923671D+02 -.658549953576660D+01 -.345322367691157D+01 0.149520063911096D+02
 0.645570708555655D+03 0.544662694625815D+03 0.667701448629110D+02 0.340067400059138D+03
0.346975210823D-05 0.000000000000D+00 0.000000000000D+00 0.175260363139D-05 0.000000000000D+00  6 21 1 25 -24 2 21 2 0.17516500D-02 0.19375588D+00 0.13537483D+05 0.13537483D+05 0.13537483D+05 0.12529339D+01  1  2  2  1  6  1       21 0.971591499878D-01 0.100000000000D+01
0.219526006849D-06 0.183103849245D-06 -.700442982662D-08 0.175260363139D-05 0.000000000000D+00  6 21 1 25 -24 2 21 4 0.17516500D-02 0.19375588D+00 0.13537483D+05 0.13537483D+05 0.13537483D+05 0.12529339D+01  1  2  3  1  6  1       21 0.965000500445D-02 0.100000000000D+01
0.362322259700D-06 0.000000000000D+00 0.000000000000D+00 0.175260363139D-05 0.000000000000D+00  6 21 1 25 -24 2 21 4 0.17516500D-02 0.19375588D+00 0.13537483D+05 0.13537483D+05 0.13537483D+05 0.12529339D+01  1  2 15  1  6  1       21 0.159270952427D-01 0.100000000000D+01
0.840969572629D-02 0.000000000000D+00 -.231635034273D-02 0.175260363139D-05 0.000000000000D+00  6 21 1 25 -24 2 21 4 0.82524020D-01 0.19375588D+00 0.13537483D+05 0.13537483D+05 0.13537483D+05 0.12529339D+01  1  2  5  1  6  1       21 0.339387855570D+00 0.100000000000D+01
0.373564887919D-02 0.000000000000D+00 -.102877864931D-02 0.175260363139D-05 0.000000000000D+00  6 -1 1 25 -24 2 -1 4 0.82524020D-01 0.19375588D+00 0.13537483D+05 0.13537483D+05 0.13537483D+05 0.12529339D+01  1  2  5  4  6  1       21 0.163621561469D-01 0.100000000000D+01
0.373564887919D-02 0.000000000000D+00 -.102877864931D-02 0.175260363139D-05 0.000000000000D+00  6 1 1 25 -24 2 1 4 0.82524020D-01 0.19375588D+00 0.13537483D+05 0.13537483D+05 0.13537483D+05 0.12529339D+01  1  2  5  5  6  1       21 0.519210619313D-01 0.100000000000D+01
0.373564887919D-02 0.000000000000D+00 -.102877864931D-02 0.175260363139D-05 0.000000000000D+00  6 -2 1 25 -24 2 -2 4 0.82524020D-01 0.19375588D+00 0.13537483D+05 0.13537483D+05 0.13537483D+05 0.12529339D+01  1  2  5  6  6  1       21 0.123883086864D-01 0.100000000000D+01
0.373564887919D-02 0.000000000000D+00 -.102877864931D-02 0.175260363139D-05 0.000000000000D+00  6 2 1 25 -24 2 2 4 0.82524020D-01 0.19375588D+00 0.13537483D+05 0.13537483D+05 0.13537483D+05 0.12529339D+01  1  2  5  7  6  1       21 0.819345377245D-01 0.100000000000D+01
0.373564887919D-02 0.000000000000D+00 -.102877864931D-02 0.175260363139D-05 0.000000000000D+00  6 -3 1 25 -24 2 -3 4 0.82524020D-01 0.19375588D+00 0.13537483D+05 0.13537483D+05 0.13537483D+05 0.12529339D+01  1  2  5  8  6  1       21 0.768154929432D-02 0.100000000000D+01
0.373564887919D-02 0.000000000000D+00 -.102877864931D-02 0.175260363139D-05 0.000000000000D+00  6 -4 1 25 -24 2 -4 4 0.82524020D-01 0.19375588D+00 0.13537483D+05 0.13537483D+05 0.13537483D+05 0.12529339D+01  1  2  5  8  6  1       21 0.615473823126D-02 0.100000000000D+01
0.373564887919D-02 0.000000000000D+00 -.102877864931D-02 0.175260363139D-05 0.000000000000D+00  6 3 1 25 -24 2 3 4 0.82524020D-01 0.19375588D+00 0.13537483D+05 0.13537483D+05 0.13537483D+05 0.12529339D+01  1  2  5  9  6  1       21 0.769194233003D-02 0.100000000000D+01
0.373564887919D-02 0.000000000000D+00 -.102877864931D-02 0.175260363139D-05 0.000000000000D+00  6 4 1 25 -24 2 4 4 0.82524020D-01 0.19375588D+00 0.13537483D+05 0.13537483D+05 0.13537483D+05 0.12529339D+01  1  2  5  9  6  1       21 0.615473823126D-02 0.100000000000D+01
  </mgrwgt>
  </event>
  <event>
  5     66 0.45631637E-03 0.50893170E+02 0.75467711E-02 0.11221407E+00
       21 -1    0    0  501  502 0.00000000E+00 0.00000000E+00 0.73481140E+02 0.73484968E+02 0.75000000E+00 0.0000E+00 0.9000E+01
        1 -1    0    0  502    0 -.00000000E+00 -.00000000E+00 -.13742520E+04 0.13742520E+04 0.32000000E+00 0.0000E+00 0.9000E+01
       25  1    1    2    0    0 0.13450745E+03 0.99444159E+02 -.50675072E+03 0.54809004E+03 0.12500000E+03 0.0000E+00 0.9000E+01
      -24  1    1    2    0    0 -.18102154E+03 -.78791116E+02 -.81660158E+03 0.84396813E+03 0.80419002E+02 0.0000E+00 0.9000E+01
        2  1    1    2  501    0 0.46514086E+02 -.20653043E+02 0.22581450E+02 0.55678835E+02 0.32000000E+00 0.0000E+00 0.9000E+01
#aMCatNLO 1  0  0  5  1 0.21961128D+01 0.00000000D+00  -5  6  0 0.00000000D+00 0.00000000D+00 0.00000000D+00 0.00000000D+00 0.00000000D+00
  <mgrwgt>
 0.7214118824D-01    6    2    0
 0.317780428571765D+03 0.000000000000000D+00 0.000000000000000D+00 0.317780428571765D+03
 0.317780428571765D+03 -.000000000000000D+00 -.000000000000000D+00 -.317780428571765D+03
 0.211346652975294D+03 0.134507428220158D+03 0.994441703195177D+02 -.325732477183548D+02
 0.251167755496460D+03 -.181021571830459D+03 -.787911017364800D+02 -.132820097372123D+03
 0.173046448671775D+03 0.465141436103010D+02 -.206530685830377D+02 0.165393345090478D+03
 0.000000000000000D+00 0.000000000000000D+00 0.000000000000000D+00 0.000000000000000D+00
 0.317780428571765D+03 0.000000000000000D+00 0.000000000000000D+00 0.317780428571765D+03
 0.317780428571765D+03 -.000000000000000D+00 -.000000000000000D+00 -.317780428571765D+03
 0.211344120885190D+03 0.134528560146302D+03 0.994347873859395D+02 -.324981075635142D+02
 0.251105949116259D+03 -.180996461249660D+03 -.788022512601978D+02 -.132730810057919D+03
 0.109977558788379D+02 0.797140104895820D+00 -.109273850632773D+01 0.109142624386844D+02
 0.162113031263242D+03 0.456707609984624D+02 -.195397976194139D+02 0.154314655182749D+03
0.806031796064D-05 0.000000000000D+00 0.000000000000D+00 0.639704160910D-06 0.000000000000D+00  6 21 1 25 -24 2 21 2 0.11305088D-01 0.21142368D+00 0.55906412D+05 0.55906412D+05 0.55906412D+05 0.11875090D+01  1  2  2  3  6  5        2 0.718970442898D-02 0.100000000000D+01
0.112926811426D-05 0.425354664743D-06 -.162714596820D-07 0.639704160910D-06 0.000000000000D+00  6 21 1 25 -24 2 21 4 0.11305088D-01 0.21142368D+00 0.55906412D+05 0.55906412D+05 0.55906412D+05 0.11875090D+01  1  2  3  3  6  5        2 0.142046241633D-02 0.100000000000D+01
0.824634355702D-06 0.000000000000D+00 0.000000000000D+00 0.639704160910D-06 0.000000000000D+00  6 21 1 25 -24 2 21 4 0.11305088D-01 0.21142368D+00 0.55906412D+05 0.55906412D+05 0.55906412D+05 0.11875090D+01  1  2 15  3  6  5        2 0.103727546602D-02 0.100000000000D+01
0.808103029612D-07 0.000000000000D+00 0.000000000000D+00 0.639679672057D-06 0.000000000000D+00  6 21 1 25 -24 2 21 4 0.11305088D-01 0.21142368D+00 0.55936334D+05 0.55936334D+05 0.55936334D+05 0.11874863D+01  1  2 12  3  6  5        2 0.101638236469D-03 0.100000000000D+01
-.363546815757D-04 0.000000000000D+00 0.000000000000D+00 0.639704160910D-06 0.000000000000D+00  6 21 1 25 -24 2 21 4 0.11305088D-01 0.21142368D+00 0.55906412D+05 0.55906412D+05 0.55906412D+05 0.11875090D+01  1  2  5  3  6  5        2 -.457291392396D-01 0.100000000000D+01
0.859648004956D-04 0.000000000000D+00 0.000000000000D+00 0.639704160910D-06 0.216511594513D-06  6 21 1 25 -24 2 21 4 0.11305088D-01 0.21142368D+00 0.55936334D+05 0.55936334D+05 0.55936334D+05 0.11874863D+01  1  2 11  3  6  5        2 0.108121246928D+00 0.100000000000D+01
  </mgrwgt>
  </event>
  <event>
  5     66 0.45631637E-03 0.35973702E+02 0.75467711E-02 0.11905677E+00
       21 -1    0    0  501  502 0.00000000E+00 0.00000000E+00 0.37480024E+02 0.37487527E+02 0.75000000E+00 0.0000E+00 0.9000E+01
        1 -1    0    0  502    0 -.00000000E+00 -.00000000E+00 -.90321643E+03 0.90321649E+03 0.32000000E+00 0.0000E+00 0.9000E+01
       25  1    1    2    0    0 -.61399986E+02 0.24379037E+02 -.33477238E+03 0.36340314E+03 0.12500000E+03 0.0000E+00 0.9000E+01
      -24  1    1    2    0    0 0.83338857E+02 0.41302552E+01 -.52870343E+03 0.54125498E+03 0.80419002E+02 0.0000E+00 0.9000E+01
        2  1    1    2  501    0 -.21938871E+02 -.28509292E+02 -.22606007E+01 0.36045894E+02 0.32000000E+00 0.0000E+00 0.9000E+01
#aMCatNLO 1  0  0  5  1 0.26511389D+02 0.00000000D+00  -5  6  0 0.00000000D+00 0.00000000D+00 0.00000000D+00 0.00000000D+00 0.00000000D+00
  <mgrwgt>
 0.5839108554D-01    6    2    0
 0.184000350196260D+03 0.000000000000000D+00 0.000000000000000D+00 0.184000350196260D+03
 0.184000350196260D+03 -.000000000000000D+00 -.000000000000000D+00 -.184000350196260D+03
 0.141386011029372D+03 -.613999291057226D+02 0.243791109723909D+02 -.843663917499022D+00
 0.139790447273816D+03 0.833389140222759D+02 0.413032874648180D+01 -.781774838983492D+02
 0.868242420893320D+02 -.219389849165533D+02 -.285094397188727D+02 0.790211478158483D+02
 0.000000000000000D+00 0.000000000000000D+00 -.000000000000000D+00 0.000000000000000D+00
 0.184000350196260D+03 0.000000000000000D+00 0.000000000000000D+00 0.184000350196260D+03
 0.184000350196260D+03 -.000000000000000D+00 -.000000000000000D+00 -.184000350196260D+03
 0.141945311638352D+03 -.633047119526795D+02 0.219038692071311D+02 0.601709684599924D+01
 0.135006179609992D+03 0.814915083194348D+02 0.172964787078129D+01 -.715233875636595D+02
 0.343809098342603D+02 0.329233034519689D+01 0.154461849222967D+02 0.305388751147754D+02
 0.566682993099151D+02 -.214791267119522D+02 -.390797020002091D+02 0.349674156028848D+02
0.951531872331D-05 0.000000000000D+00 0.000000000000D+00 0.121899798508D-05 0.000000000000D+00  6 21 1 25 -24 2 21 2 0.57667390D-02 0.13895696D+00 0.21497947D+05 0.21497947D+05 0.21497947D+05 0.12303877D+01  1  2  2  3  6  5        2 0.649163352194D-01 0.100000000000D+01
0.781580608183D-06 0.502137164469D-06 -.192086870175D-07 0.121899798508D-05 0.000000000000D+00  6 21 1 25 -24 2 21 4 0.57667390D-02 0.13895696D+00 0.21497947D+05 0.21497947D+05 0.21497947D+05 0.12303877D+01  1  2  3  3  6  5        2 0.807213438853D-02 0.100000000000D+01
0.945467101631D-06 0.000000000000D+00 0.000000000000D+00 0.121899798508D-05 0.000000000000D+00  6 21 1 25 -24 2 21 4 0.57667390D-02 0.13895696D+00 0.21497947D+05 0.21497947D+05 0.21497947D+05 0.12303877D+01  1  2 15  3  6  5        2 0.976474777444D-02 0.100000000000D+01
-.404280949064D-05 0.000000000000D+00 0.000000000000D+00 0.121899798508D-05 0.000000000000D+00  6 21 1 25 -24 2 21 4 0.57667390D-02 0.13895696D+00 0.21497947D+05 0.21497947D+05 0.21497947D+05 0.12303877D+01  1  2  4  3  6  5        2 -.417539805542D-01 0.100000000000D+01
-.197611372564D-05 0.000000000000D+00 0.000000000000D+00 0.121899798508D-05 0.000000000000D+00  6 21 1 25 -24 2 21 4 0.57667390D-02 0.13895696D+00 0.21497947D+05 0.21497947D+05 0.21497947D+05 0.12303877D+01  1  2  5  3  6  5        2 -.204092263720D-01 0.100000000000D+01
0.366007128148D-05 0.000000000000D+00 -.000000000000D+00 0.121899798508D-05 0.000000000000D+00  6 21 1 25 -24 2 21 4 0.57667390D-02 0.13895696D+00 0.21497947D+05 0.21497947D+05 0.21497947D+05 0.12303877D+01  1  2  6  3  6  5        2 0.378010750860D-01 0.100000000000D+01
  </mgrwgt>
  </event>
  <event>
  6     66 -.45631637E-03 0.41763790E+02 0.75467711E-02 0.11530205E+00
       21 -1    0    0  503  502 0.00000000E+00 0.00000000E+00 0.20464296E+04 0.20464298E+04 0.75000000E+00 0.0000E+00 0.9000E+01
        1 -1    0    0  502    0 0.00000000E+00 0.00000000E+00 -.20543121E+02 0.20545613E+02 0.32000000E+00 0.0000E+00 0.9000E+01
       25  1    1    2    0    0 0.13052675E+03 -.17416679E+01 0.74142165E+03 0.76313258E+03 0.12500000E+03 0.0000E+00 0.9000E+01
      -24  1    1    2    0    0 -.10174821E+03 -.15469419E+02 0.77336059E+03 0.78431233E+03 0.80419002E+02 0.0000E+00 0.9000E+01
        2  1    1    2  501    0 -.34333457E+02 0.42752861E+02 0.20161715E+03 0.20894059E+03 0.32000000E+00 0.0000E+00 0.9000E+01
       21  1    1    2  503  501 0.55549175E+01 -.25541774E+02 0.30948710E+03 0.31058987E+03 0.75000000E+00 0.0000E+00 0.9000E+01
#aMCatNLO 2  0  0  1  2 0.26138847D+02 0.00000000D+00  -5  6  0 0.00000000D+00 0.00000000D+00 0.00000000D+00 0.00000000D+00 0.00000000D+00
  <mgrwgt>
 -.1548843935D-01    3    2    0
 0.185862779679301D+03 0.000000000000000D+00 0.000000000000000D+00 0.185862779679301D+03
 0.185862779679301D+03 0.000000000000000D+00 0.000000000000000D+00 -.185862779679301D+03
 0.184407435867575D+03 0.133260567529544D+03 -.143108237798238D+02 -.204431863392285D+02
 0.134478290304832D+03 -.997399446489165D+02 -.247027742537923D+02 0.325409126260657D+02
 0.528398331861960D+02 -.335206228806271D+02 0.390135980336161D+02 -.120977262868371D+02
 0.000000000000000D+00 0.000000000000000D+00 -.000000000000000D+00 0.000000000000000D+00
 0.219585944256402D+03 0.000000000000000D+00 0.000000000000000D+00 0.219585944256402D+03
 0.191456659098642D+03 0.000000000000000D+00 0.000000000000000D+00 -.191456659098642D+03
 0.181888072090299D+03 0.130527055856403D+03 -.174200760184757D+01 -.204431863392285D+02
 0.134603460730465D+03 -.101747990315610D+03 -.154696851436753D+02 0.325409126260657D+02
 0.561519037347185D+02 -.343339830739044D+02 0.427534667366602D+02 -.120977262868371D+02
 0.383991667995623D+02 0.555491753311156D+01 -.255417739911374D+02 0.281292851577604D+02
-.161960108738D-03 0.000000000000D+00 0.000000000000D+00 0.168922574305D-06 0.000000000000D+00  6 21 1 25 -24 2 21 4 0.31834453D+00 0.30682777D-02 0.38478438D+05 0.38478438D+05 0.38478438D+05 0.12037144D+01  1  2 13  1  6  1       21 -.313185553704D-01 0.100000000000D+01
-.117874997635D-03 0.000000000000D+00 0.000000000000D+00 0.168922574305D-06 0.000000000000D+00  6 21 1 25 -24 2 21 4 0.33723788D+00 0.30682777D-02 0.38478438D+05 0.38478438D+05 0.38478438D+05 0.12037144D+01  1  2 13  1  6  1       21 -.176983083441D-01 0.100000000000D+01
0.172463977894D-03 0.000000000000D+00 0.000000000000D+00 0.170723840436D-06 0.350545212492D-08  6 21 1 25 -24 2 21 4 0.31482962D+00 0.31606231D-02 0.38478438D+05 0.38478438D+05 0.38478438D+05 0.12037144D+01  1  2  1  1  6  1       21 0.335284243650D-01 0.100000000000D+01
  </mgrwgt>
  </event>
  <event>
  5     66 -.45631637E-03 0.22509752E+02 0.75467711E-02 0.12012989E+00
       21 -1    0    0  501  502 0.00000000E+00 0.00000000E+00 0.34307185E+02 0.34315382E+02 0.75000000E+00 0.0000E+00 0.9000E+01
        1 -1    0    0  502    0 0.00000000E+00 0.00000000E+00 -.61518304E+03 0.61518312E+03 0.32000000E+00 0.0000E+00 0.9000E+01
       25  1    1    2    0    0 -.38022703E+02 0.63746623E+01 -.23041927E+03 0.26496113E+03 0.12500000E+03 0.0000E+00 0.9000E+01
      -24  1    1    2    0    0 0.16383362E+02 -.17678035E+00 -.35250475E+03 0.36193268E+03 0.80419002E+02 0.0000E+00 0.9000E+01
        2  1    1    2  501    0 0.21639341E+02 -.61978820E+01 0.20481680E+01 0.22604694E+02 0.32000000E+00 0.0000E+00 0.9000E+01
#aMCatNLO 1  0  0  1  2 0.15458636D+03 0.00000000D+00  -5  6  0 0.00000000D+00 0.00000000D+00 0.00000000D+00 0.00000000D+00 0.00000000D+00
  <mgrwgt>
 -.8185630317D+00   12    2    0
 0.145285536284478D+03 0.000000000000000D+00 0.000000000000000D+00 0.145285536284478D+03
 0.145285536284478D+03 0.000000000000000D+00 0.000000000000000D+00 -.145285536284478D+03
 0.131626563330482D+03 -.380228710069176D+02 0.637471049190549D+01 0.146347709489748D+02
 0.104323121815239D+03 0.163832288618319D+02 -.176742164694975D+00 -.644023009307484D+02
 0.546213874232356D+02 0.216396421450857D+02 -.619796832721051D+01 0.497675299817736D+02
 0.000000000000000D+00 -.000000000000000D+00 0.000000000000000D+00 0.000000000000000D+00
 0.883879255547938D+03 0.000000000000000D+00 0.000000000000000D+00 0.883879255547938D+03
 0.148780694592754D+03 0.000000000000000D+00 0.000000000000000D+00 -.148780694592754D+03
 0.131180015904141D+03 -.327029159353769D+02 -.173072048929140D+02 0.146347709489748D+02
 0.106819278565411D+03 0.206573535317456D+02 -.192031169020573D+02 -.644023009307484D+02
 0.575714916526849D+02 0.239107461553770D+02 -.163078456247771D+02 0.497675299817736D+02
 0.737089164018456D+03 -.118651837517457D+02 0.528181674197483D+02 0.735098560955184D+03
0.819158818859D-06 0.000000000000D+00 0.000000000000D+00 0.251846350086D-05 0.000000000000D+00  6 21 1 25 -24 2 21 2 0.52786653D-02 0.94644182D-01 0.13852261D+05 0.13852261D+05 0.13852261D+05 0.12517830D+01  1  2  2  1  6  1       21 0.117789708830D-01 0.100000000000D+01
0.846431590881D-07 0.432281984989D-07 -.165364564516D-08 0.251846350086D-05 0.000000000000D+00  6 21 1 25 -24 2 21 4 0.52786653D-02 0.94644182D-01 0.13852261D+05 0.13852261D+05 0.13852261D+05 0.12517830D+01  1  2  3  1  6  1       21 0.190716903322D-02 0.100000000000D+01
0.818976223733D-07 0.000000000000D+00 0.000000000000D+00 0.251846350086D-05 0.000000000000D+00  6 21 1 25 -24 2 21 4 0.52786653D-02 0.94644182D-01 0.13852261D+05 0.13852261D+05 0.13852261D+05 0.12517830D+01  1  2 15  1  6  1       21 0.184530694467D-02 0.100000000000D+01
-.730419423867D-03 0.000000000000D+00 -.843033723884D-05 0.251846350086D-05 0.000000000000D+00  6 21 1 25 -24 2 21 4 0.32433832D-01 0.94644182D-01 0.13852261D+05 0.13852261D+05 0.13852261D+05 0.12517830D+01  1  2  5  1  6  1       21 -.638868899774D+00 0.100000000000D+01
-.314310557393D-03 0.000000000000D+00 -.357622328688D-05 0.251846350086D-05 0.000000000000D+00  6 -1 1 25 -24 2 -1 4 0.32433832D-01 0.94644182D-01 0.13852261D+05 0.13852261D+05 0.13852261D+05 0.12517830D+01  1  2  5  4  6  1       21 -.240785523217D-01 0.100000000000D+01
-.314310557393D-03 0.000000000000D+00 -.357622328688D-05 0.251846350086D-05 0.000000000000D+00  6 1 1 25 -24 2 1 4 0.32433832D-01 0.94644182D-01 0.13852261D+05 0.13852261D+05 0.13852261D+05 0.12517830D+01  1  2  5  5  6  1       21 -.438093230860D-01 0.100000000000D+01
-.314310557393D-03 0.000000000000D+00 -.357622328688D-05 0.251846350086D-05 0.000000000000D+00  6 -2 1 25 -24 2 -2 4 0.32433832D-01 0.94644182D-01 0.13852261D+05 0.13852261D+05 0.13852261D+05 0.12517830D+01  1  2  5  6  6  1       21 -.209146348277D-01 0.100000000000D+01
-.314310557393D-03 0.000000000000D+00 -.357622328688D-05 0.251846350086D-05 0.000000000000D+00  6 2 1 25 -24 2 2 4 0.32433832D-01 0.94644182D-01 0.13852261D+05 0.13852261D+05 0.13852261D+05 0.12517830D+01  1  2  5  7  6  1       21 -.582212522320D-01 0.100000000000D+01
-.314310557393D-03 0.000000000000D+00 -.357622328688D-05 0.251846350086D-05 0.000000000000D+00  6 -3 1 25 -24 2 -3 4 0.32433832D-01 0.94644182D-01 0.13852261D+05 0.13852261D+05 0.13852261D+05 0.12517830D+01  1  2  5  8  6  1       21 -.131506341853D-01 0.100000000000D+01
-.314310557393D-03 0.000000000000D+00 -.357622328688D-05 0.251846350086D-05 0.000000000000D+00  6 -4 1 25 -24 2 -4 4 0.32433832D-01 0.94644182D-01 0.13852261D+05 0.13852261D+05 0.13852261D+05 0.12517830D+01  1  2  5  8  6  1       21 -.109499458763D-01 0.100000000000D+01
-.314310557393D-03 0.000000000000D+00 -.357622328688D-05 0.251846350086D-05 0.000000000000D+00  6 3 1 25 -24 2 3 4 0.32433832D-01 0.94644182D-01 0.13852261D+05 0.13852261D+05 0.13852261D+05 0.12517830D+01  1  2  5  9  6  1       21 -.131512903951D-01 0.100000000000D+01
-.314310557393D-03 0.000000000000D+00 -.357622328688D-05 0.251846350086D-05 0.000000000000D+00  6 4 1 25 -24 2 4 4 0.32433832D-01 0.94644182D-01 0.13852261D+05 0.13852261D+05 0.13852261D+05 0.12517830D+01  1  2  5  9  6  1       21 -.109499458763D-01 0.100000000000D+01
  </mgrwgt>
  </event>
  <event>
  6     66 0.45631637E-03 0.14105012E+02 0.75467711E-02 0.12358954E+00
       21 -1    0    0  503  502 0.00000000E+00 0.00000000E+00 0.94163412E+01 0.94461623E+01 0.75000000E+00 0.0000E+00 0.9000E+01
        1 -1    0    0  502    0 0.00000000E+00 0.00000000E+00 -.17484918E+04 0.17484918E+04 0.32000000E+00 0.0000E+00 0.9000E+01
       25  1    1    2    0    0 -.24788571E+02 0.38356345E+01 -.90970832E+03 0.91859861E+03 0.12500000E+03 0.0000E+00 0.9000E+01
      -24  1    1    2    0    0 0.33645076E+02 -.64210967E+01 -.70124438E+03 0.70667115E+03 0.80419002E+02 0.0000E+00 0.9000E+01
        2  1    1    2  501    0 0.60853138E+01 -.11814670E+02 -.59793882E+02 0.61253802E+02 0.32000000E+00 0.0000E+00 0.9000E+01
       21  1    1    2  503  501 -.14941819E+02 0.14400133E+02 -.68328835E+02 0.71414382E+02 0.75000000E+00 0.0000E+00 0.9000E+01
#aMCatNLO 2  0  0  1  2 0.53990184D+01 0.00000000D+00  -5  6  0 0.00000000D+00 0.00000000D+00 0.00000000D+00 0.00000000D+00 0.00000000D+00
  <mgrwgt>
 0.1741520123D-01    1    2    0
 0.114604735571600D+03 0.000000000000000D+00 0.000000000000000D+00 0.114604735571600D+03
 0.114604735571600D+03 0.000000000000000D+00 0.000000000000000D+00 -.114604735571600D+03
 0.129889235200618D+03 -.331619831121033D+02 0.119064024484182D+02 0.217574764399734D+01
 0.856015784039071D+02 0.280029165152717D+02 -.982877814179858D+00 -.867668650527547D+01
 0.137186575386745D+02 0.515906659683159D+01 -.109235246342383D+02 0.650093886127813D+01
 0.000000000000000D+00 -.000000000000000D+00 0.000000000000000D+00 0.000000000000000D+00
 0.137572915211266D+03 0.000000000000000D+00 0.000000000000000D+00 0.137572915211266D+03
 0.119858260326046D+03 0.000000000000000D+00 0.000000000000000D+00 -.119858260326046D+03
 0.127510668643517D+03 -.247893495588869D+02 0.383730224945999D+01 0.217574764399734D+01
 0.878388983543016D+02 0.336445408263319D+02 -.641997613712451D+01 -.867668650527547D+01
 0.147973500475700D+02 0.608662747915786D+01 -.118174586219798D+02 0.650093886127813D+01
 0.272842584919236D+02 -.149418187466028D+02 0.144001325096443D+02 0.177146548852204D+02
0.620580961162D-06 0.000000000000D+00 0.000000000000D+00 0.274153914876D-05 0.634813198205D-07  6 21 1 25 -24 2 21 4 0.14509033D-02 0.26898976D+00 0.15493487D+05 0.15493487D+05 0.15493487D+05 0.12462231D+01  1  2  1  1  6  1       21 0.174152012325D-01 0.100000000000D+01
  </mgrwgt>
  </event>
  <event>
  5     66 0.45631637E-03 0.28542101E+02 0.75467711E-02 0.12406394E+00
       21 -1    0    0  501  502 0.00000000E+00 0.00000000E+00 0.83146966E+01 0.83484537E+01 0.75000000E+00 0.0000E+00 0.9000E+01
        1 -1    0    0  502    0 -.00000000E+00 -.00000000E+00 -.19056153E+04 0.19056153E+04 0.32000000E+00 0.0000E+00 0.9000E+01
       25  1    1    2    0    0 0.35088533E+02 0.18047159E+02 -.83868533E+03 0.84886688E+03 0.12500000E+03 0.0000E+00 0.9000E+01
      -24  1    1    2    0    0 -.27220825E+02 0.93879877E+01 -.66781460E+03 0.67325527E+03 0.80419002E+02 0.0000E+00 0.9000E+01
        2  1    1    2  501    0 -.78677079E+01 -.27435146E+02 -.39080064E+03 0.39184159E+03 0.32000000E+00 0.0000E+00 0.9000E+01
#aMCatNLO 1  0  0  5  1 0.26478390D+01 0.00000000D+00  -5  6  0 0.00000000D+00 0.00000000D+00 0.00000000D+00 0.00000000D+00 0.00000000D+00
  <mgrwgt>
 0.1058093758D+01    6    2    0
 0.126003742604661D+03 0.000000000000000D+00 0.000000000000000D+00 0.126003742604661D+03
 0.126003742604661D+03 -.000000000000000D+00 -.000000000000000D+00 -.126003742604661D+03
 0.132783121825589D+03 0.350887197774877D+02 0.180478085006411D+02 0.211994291067066D+02
 0.854782729646279D+02 -.272207054702013D+02 0.938840606639391D+01 -.319534346854225D+01
 0.337460904191050D+02 -.786801430728649D+01 -.274362145670351D+02 -.180040856381644D+02
 0.000000000000000D+00 0.000000000000000D+00 0.000000000000000D+00 0.000000000000000D+00
 0.126003742604661D+03 0.000000000000000D+00 0.000000000000000D+00 0.126003742604661D+03
 0.126003742604661D+03 -.000000000000000D+00 -.000000000000000D+00 -.126003742604661D+03
 0.132437602055017D+03 0.347696367910132D+02 0.169351479309343D+02 0.204692833304274D+02
 0.854871431958617D+02 -.274263913411022D+02 0.867116770522068D+01 -.366600682649159D+01
 0.265382660187887D+01 -.974212009152455D+00 -.131194725066455D+01 0.209105260707065D+01
 0.314289133565646D+02 -.636903344075851D+01 -.242943683854904D+02 -.188943291110065D+02
0.234402805313D-04 0.000000000000D+00 0.000000000000D+00 0.471858233601D-06 0.000000000000D+00  6 21 1 25 -24 2 21 2 0.12817829D-02 0.29317418D+00 0.15011216D+05 0.15011216D+05 0.15011216D+05 0.12477855D+01  1  2  2  3  6  5        2 0.411120672291D+00 0.100000000000D+01
-.101039755878D-05 0.123697758767D-05 -.473191729484D-07 0.471858233601D-06 0.000000000000D+00  6 21 1 25 -24 2 21 4 0.12817829D-02 0.29317418D+00 0.15011216D+05 0.15011216D+05 0.15011216D+05 0.12477855D+01  1  2  3  3  6  5        2 -.275917144951D-01 0.100000000000D+01
0.239244325085D-05 0.000000000000D+00 0.000000000000D+00 0.471858233601D-06 0.000000000000D+00  6 21 1 25 -24 2 21 4 0.12817829D-02 0.29317418D+00 0.15011216D+05 0.15011216D+05 0.15011216D+05 0.12477855D+01  1  2 15  3  6  5        2 0.653323145423D-01 0.100000000000D+01
0.205360684952D-07 0.000000000000D+00 0.000000000000D+00 0.472483990887D-06 0.000000000000D+00  6 21 1 25 -24 2 21 4 0.12817829D-02 0.29317418D+00 0.14762755D+05 0.14762755D+05 0.14762755D+05 0.12486126D+01  1  2 12  3  6  5        2 0.562296277841D-03 0.100000000000D+01
-.197598888831D-04 0.000000000000D+00 0.000000000000D+00 0.471858233601D-06 0.000000000000D+00  6 21 1 25 -24 2 21 4 0.12817829D-02 0.29317418D+00 0.15011216D+05 0.15011216D+05 0.15011216D+05 0.12477855D+01  1  2  4  3  6  5        2 -.539598703279D+00 0.100000000000D+01
0.419368392688D-04 0.000000000000D+00 0.000000000000D+00 0.471858233601D-06 0.445849028881D-06  6 21 1 25 -24 2 21 4 0.12817829D-02 0.29317418D+00 0.14762755D+05 0.14762755D+05 0.14762755D+05 0.12486126D+01  1  2 11  3  6  5        2 0.114826889240D+01 0.100000000000D+01
  </mgrwgt>
  </event>
  <event>
  6     66 -.45631637E-03 0.22952226E+02 0.75467711E-02 0.12404831E+00
       21 -1    0    0  503  502 0.00000000E+00 0.00000000E+00 0.10495934E+03 0.10496201E+03 0.75000000E+00 0.0000E+00 0.9000E+01
        1 -1    0    0  502    0 0.00000000E+00 0.00000000E+00 -.37412328E+03 0.37412342E+03 0.32000000E+00 0.0000E+00 0.9000E+01
       25  1    1    2    0    0 0.21554751E+02 -.31631811E+02 -.25116663E+03 0.28315164E+03 0.12500000E+03 0.0000E+00 0.9000E+01
      -24  1    1    2    0    0 -.26044527E+02 0.59933509E+01 -.87025492E+02 0.12146971E+03 0.80419002E+02 0.0000E+00 0.9000E+01
        2  1    1    2  501    0 0.75111268E+01 0.18974422E+02 0.46991665E+02 0.51232457E+02 0.32000000E+00 0.0000E+00 0.9000E+01
       21  1    1    2  503  501 -.30213508E+01 0.66640382E+01 0.22036511E+02 0.23231622E+02 0.75000000E+00 0.0000E+00 0.9000E+01
#aMCatNLO 2  0  0  1  2 0.73169642D+01 0.00000000D+00  -5  6  0 0.00000000D+00 0.00000000D+00 0.00000000D+00 0.00000000D+00 0.00000000D+00
  <mgrwgt>
 -.2706709134D+00    2    2    0
 0.175322169332544D+03 0.000000000000000D+00 0.000000000000000D+00 0.175322169332544D+03
 0.175322169332544D+03 0.000000000000000D+00 0.000000000000000D+00 -.175322169332544D+03
 0.158736470079050D+03 0.201838835541231D+02 -.286082329280870D+02 -.913588900247974D+02
 0.859822849668112D+02 -.267837881602583D+02 0.762386134590066D+01 -.122573571257549D+02
 0.105925583619226D+03 0.659990460613513D+01 0.209843715821863D+02 0.103616247150552D+03
 0.000000000000000D+00 -.000000000000000D+00 0.000000000000000D+00 0.000000000000000D+00
 0.223568452810025D+03 0.000000000000000D+00 0.000000000000000D+00 0.223568452810025D+03
 0.175637976102196D+03 0.000000000000000D+00 0.000000000000000D+00 -.175637976102196D+03
 0.159488645155823D+03 0.215547385202343D+02 -.316318572708156D+02 -.913588900247974D+02
 0.856253262442127D+02 -.260445342962838D+02 0.599332709258694D+01 -.122573571257549D+02
 0.105606701220766D+03 0.751114658322332D+01 0.189744919872236D+02 0.103616247150552D+03
 0.484857562914191D+02 -.302135080717382D+01 0.666403819100503D+01 0.479304767078287D+02
-.905529117835D-04 0.000000000000D+00 0.000000000000D+00 0.730466579724D-05 0.000000000000D+00  6 21 1 25 -24 2 21 4 0.16156801D-01 0.57453205D-01 0.14786185D+05 0.14786185D+05 0.14786185D+05 0.12485340D+01  1  2 13  1  6  1       21 -.550357542463D+00 0.100000000000D+01
0.460737304131D-04 0.000000000000D+00 0.000000000000D+00 0.733518296276D-05 0.362858193944D-05  6 21 1 25 -24 2 21 4 0.16147540D-01 0.57556695D-01 0.14786185D+05 0.14786185D+05 0.14786185D+05 0.12485340D+01  1  2  1  1  6  1       21 0.279686629087D+00 0.100000000000D+01
  </mgrwgt>
  </event>
  <event>
  5     66 -.45631637E-03 0.29873519E+02 0.75467711E-02 0.12380275E+00
       21 -1    0    0  501  502 0.00000000E+00 0.00000000E+00 0.99004479E+02 0.99007319E+02 0.75000000E+00 0.0000E+00 0.9000E+01
        1 -1    0    0  502    0 -.00000000E+00 -.00000000E+00 -.21643871E+03 0.21643894E+03 0.32000000E+00 0.0000E+00 0.9000E+01
       25  1    1    2    0    0 -.20680102E+02 0.11072414E+01 -.10775570E+02 0.12716134E+03 0.12500000E+03 0.0000E+00 0.9000E+01
      -24  1    1    2    0    0 0.19552357E+02 -.30959220E+02 -.12183532E+02 0.89198780E+02 0.80419002E+02 0.0000E+00 0.9000E+01
        2  1    1    2  501    0 0.11277445E+01 0.29851978E+02 -.94475126E+02 0.99086145E+02 0.32000000E+00 0.0000E+00 0.9000E+01
#aMCatNLO 1  0  0  5  1 0.55352321D+01 0.00000000D+00  -5  6  0 0.00000000D+00 0.00000000D+00 0.00000000D+00 0.00000000D+00 0.00000000D+00
  <mgrwgt>
 -.5135547398D-01    8    2    0
 0.146386087420462D+03 0.000000000000000D+00 0.000000000000000D+00 0.146386087420462D+03
 0.146386087420462D+03 -.000000000000000D+00 -.000000000000000D+00 -.146386087420462D+03
 0.132687383470206D+03 -.206801070450595D+02 0.110709533748903D+01 0.393960562072927D+02
 0.912200176984812D+02 0.195523532045608D+02 -.309593203217613D+02 0.226517470390114D+02
 0.688647736722371D+02 0.112775384049863D+01 0.298522249842723D+02 -.620478032463042D+02
 0.000000000000000D+00 0.000000000000000D+00 0.000000000000000D+00 0.000000000000000D+00
 0.146386087420462D+03 0.000000000000000D+00 0.000000000000000D+00 0.146386087420462D+03
 0.146386087420462D+03 -.000000000000000D+00 -.000000000000000D+00 -.146386087420462D+03
 0.132524357058034D+03 -.206700053850621D+02 0.137449148027129D+01 0.388402737399920D+02
 0.910651258071601D+02 0.195592962702736D+02 -.307755337964633D+02 0.222697470317416D+02
 0.544132035811990D+02 -.401616624636274D+01 0.211856214323329D+02 -.499583484232261D+02
 0.147694883945313D+02 0.512687536115124D+01 0.821542088385915D+01 -.111516723485075D+02
0.179056028835D-05 0.000000000000D+00 0.000000000000D+00 0.280584249621D-06 0.000000000000D+00  6 21 1 25 -24 2 21 2 0.15231695D-01 0.33298499D-01 0.14998939D+05 0.14998939D+05 0.14998939D+05 0.12478260D+01  1  2  2  3  6  5        2 0.152210692232D-01 0.100000000000D+01
-.218047762203D-06 0.944904623950D-07 -.361462533889D-08 0.280584249621D-06 0.000000000000D+00  6 21 1 25 -24 2 21 4 0.15231695D-01 0.33298499D-01 0.14998939D+05 0.14998939D+05 0.14998939D+05 0.12478260D+01  1  2  3  3  6  5        2 -.288613029465D-02 0.100000000000D+01
0.174179027293D-06 0.000000000000D+00 0.000000000000D+00 0.280584249621D-06 0.000000000000D+00  6 21 1 25 -24 2 21 4 0.15231695D-01 0.33298499D-01 0.14998939D+05 0.14998939D+05 0.14998939D+05 0.12478260D+01  1  2 15  3  6  5        2 0.230547363699D-02 0.100000000000D+01
0.728335995104D-05 0.000000000000D+00 0.000000000000D+00 0.280346636290D-06 0.000000000000D+00  6 21 1 25 -24 2 21 4 0.15231695D-01 0.33298499D-01 0.15160001D+05 0.15160001D+05 0.15160001D+05 0.12472976D+01  1  2 12  3  6  5        2 0.962524002764D-01 0.100000000000D+01
-.224920291074D-04 0.000000000000D+00 0.000000000000D+00 0.280584249621D-06 0.000000000000D+00  6 21 1 25 -24 2 21 4 0.15231695D-01 0.33298499D-01 0.14998939D+05 0.14998939D+05 0.14998939D+05 0.12478260D+01  1  2  4  3  6  5        2 -.297709666632D+00 0.100000000000D+01
-.112514667289D-04 0.000000000000D+00 0.000000000000D+00 0.280584249621D-06 0.000000000000D+00  6 21 1 25 -24 2 21 4 0.15231695D-01 0.33298499D-01 0.14998939D+05 0.14998939D+05 0.14998939D+05 0.12478260D+01  1  2  5  3  6  5        2 -.148926999560D+00 0.100000000000D+01
0.140979154766D-04 0.000000000000D+00 -.000000000000D+00 0.280584249621D-06 0.000000000000D+00  6 21 1 25 -24 2 21 4 0.15231695D-01 0.33298499D-01 0.14998939D+05 0.14998939D+05 0.14998939D+05 0.12478260D+01  1  2  6  3  6  5        2 0.186603249387D+00 0.100000000000D+01
0.739934066569D-05 0.000000000000D+00 0.000000000000D+00 0.280584249621D-06 0.869065460087D-07  6 21 1 25 -24 2 21 4 0.15231695D-01 0.33298499D-01 0.15160001D+05 0.15160001D+05 0.15160001D+05 0.12472976D+01  1  2 11  3  6  5        2 0.977851299843D-01 0.100000000000D+01
  </mgrwgt>
  </event>
  <event>
  5     66 0.45631637E-03 0.61188624E+02 0.75467711E-02 0.11780434E+00
       21 -1    0    0  501  502 0.00000000E+00 0.00000000E+00 0.56211620E+02 0.56216623E+02 0.75000000E+00 0.0000E+00 0.9000E+01
        1 -1    0    0  502    0 0.00000000E+00 0.00000000E+00 -.99219544E+03 0.99219549E+03 0.32000000E+00 0.0000E+00 0.9000E+01
       25  1    1    2    0    0 -.25766612E+02 0.85632067E+02 -.80993822E+03 0.82439171E+03 0.12500000E+03 0.0000E+00 0.9000E+01
      -24  1    1    2    0    0 -.24194755E+02 -.50306487E+02 -.12996103E+03 0.16270591E+03 0.80419002E+02 0.0000E+00 0.9000E+01
        2  1    1    2  501    0 0.49961367E+02 -.35325580E+02 0.39154237E+01 0.61314499E+02 0.32000000E+00 0.0000E+00 0.9000E+01
#aMCatNLO 1  0  0  1  5 0.23489696D+02 0.00000000D+00  -5  6  0 0.00000000D+00 0.00000000D+00 0.00000000D+00 0.00000000D+00 0.00000000D+00
  <mgrwgt>
 0.6975702481D-01   32    2    0
 0.236168504739095D+03 0.000000000000000D+00 0.000000000000000D+00 0.236168504739095D+03
 0.236168504739095D+03 0.000000000000000D+00 0.000000000000000D+00 -.236168504739095D+03
 0.224867512632380D+03 -.257666704907628D+02 0.856321083353269D+02 -.164145115526904D+03
 0.103615460245586D+03 -.241947826038007D+02 -.503064676706205D+02 0.339531950307137D+02
 0.143854036600224D+03 0.499614530945634D+02 -.353256406647064D+02 0.130191920496190D+03
 0.000000000000000D+00 -.000000000000000D+00 0.000000000000000D+00 0.000000000000000D+00
 0.438489216009088D+03 0.000000000000000D+00 0.000000000000000D+00 0.438489216009088D+03
 0.237143145731771D+03 0.000000000000000D+00 0.000000000000000D+00 -.237143145731771D+03
 0.222628739034568D+03 -.151738844221135D+02 0.822477338552592D+02 -.164145115526904D+03
 0.103358758186758D+03 -.192954485660009D+02 -.518717953360145D+02 0.339531950307137D+02
 0.146933232250272D+03 0.568447450080621D+02 -.375248390002461D+02 0.130191920496190D+03
 0.202711632269261D+03 -.223754120199477D+02 0.714890048100139D+01 0.201346070277317D+03
0.135253909296D-05 0.000000000000D+00 0.000000000000D+00 0.556198499204D-06 0.000000000000D+00  6 21 1 25 -24 2 21 2 0.86483303D-02 0.15264584D+00 0.24457357D+05 0.24457357D+05 0.24457357D+05 0.12243207D+01  1  2  2  1  6  1       21 0.389792773555D-02 0.100000000000D+01
0.403295138408D-07 0.713754488652D-07 -.273038674490D-08 0.556198499204D-06 0.000000000000D+00  6 21 1 25 -24 2 21 4 0.86483303D-02 0.15264584D+00 0.24457357D+05 0.24457357D+05 0.24457357D+05 0.12243207D+01  1  2  3  1  6  1       21 0.174219740797D-03 0.100000000000D+01
0.135887421183D-06 0.000000000000D+00 0.000000000000D+00 0.556198499204D-06 0.000000000000D+00  6 21 1 25 -24 2 21 4 0.86483303D-02 0.15264584D+00 0.24457357D+05 0.24457357D+05 0.24457357D+05 0.12243207D+01  1  2 15  1  6  1       21 0.587020993847D-03 0.100000000000D+01
0.505591555800D-04 0.000000000000D+00 0.000000000000D+00 0.549301202380D-06 0.000000000000D+00  6 21 1 25 -24 2 21 4 0.16060536D-01 0.15264584D+00 0.28836317D+05 0.28836317D+05 0.28836317D+05 0.12167058D+01  1  2 12  1  6  1       21 0.704576370047D-01 0.100000000000D+01
0.460168762260D-04 0.000000000000D+00 0.000000000000D+00 0.549301202380D-06 0.000000000000D+00  6 21 1 25 -24 2 21 4 0.16803258D-01 0.15264584D+00 0.28836317D+05 0.28836317D+05 0.28836317D+05 0.12167058D+01  1  2 12  1  6  1       21 0.590389744563D-01 0.100000000000D+01
-.536516200883D-04 0.000000000000D+00 0.000000000000D+00 0.556198499204D-06 0.000000000000D+00  6 21 1 25 -24 2 21 4 0.86483303D-02 0.15264584D+00 0.24457357D+05 0.24457357D+05 0.24457357D+05 0.12243207D+01  1  2  4  1  6  1       21 -.231769998072D+00 0.100000000000D+01
-.996476942197D-04 0.000000000000D+00 -.174231874025D-05 0.556198499204D-06 0.000000000000D+00  6 21 1 25 -24 2 21 4 0.16087388D-01 0.15264584D+00 0.24457357D+05 0.24457357D+05 0.24457357D+05 0.12243207D+01  1  2  5  1  6  1       21 -.142666055979D+00 0.100000000000D+01
0.718221288294D-04 0.000000000000D+00 0.891793169346D-06 0.556198499204D-06 0.000000000000D+00  6 21 1 25 -24 2 21 4 0.86483303D-02 0.15264584D+00 0.24457357D+05 0.24457357D+05 0.24457357D+05 0.12243207D+01  1  2  6  1  6  1       21 0.310264902214D+00 0.100000000000D+01
0.682722641671D-05 0.000000000000D+00 0.000000000000D+00 0.549301202380D-06 0.000000000000D+00  6 -1 1 25 -24 2 -1 4 0.16060536D-01 0.15264584D+00 0.28836317D+05 0.28836317D+05 0.28836317D+05 0.12167058D+01  1  2 12  4  6  1       21 0.710064582235D-03 0.100000000000D+01
0.668595335051D-05 0.000000000000D+00 0.000000000000D+00 0.549301202380D-06 0.000000000000D+00  6 -1 1 25 -24 2 -1 4 0.16803258D-01 0.15264584D+00 0.28836317D+05 0.28836317D+05 0.28836317D+05 0.12167058D+01  1  2 12  4  6  1       21 0.647230803813D-03 0.100000000000D+01
-.130717815838D-04 0.000000000000D+00 -.384899834731D-06 0.556198499204D-06 0.000000000000D+00  6 -1 1 25 -24 2 -1 4 0.16087388D-01 0.15264584D+00 0.24457357D+05 0.24457357D+05 0.24457357D+05 0.12243207D+01  1  2  5  4  6  1       21 -.139277405013D-02 0.100000000000D+01
0.682722641671D-05 0.000000000000D+00 0.000000000000D+00 0.549301202380D-06 0.000000000000D+00  6 1 1 25 -24 2 1 4 0.16060536D-01 0.15264584D+00 0.28836317D+05 0.28836317D+05 0.28836317D+05 0.12167058D+01  1  2 12  5  6  1       21 0.997402580811D-03 0.100000000000D+01
0.668595335051D-05 0.000000000000D+00 0.000000000000D+00 0.549301202380D-06 0.000000000000D+00  6 1 1 25 -24 2 1 4 0.16803258D-01 0.15264584D+00 0.28836317D+05 0.28836317D+05 0.28836317D+05 0.12167058D+01  1  2 12  5  6  1       21 0.921209357240D-03 0.100000000000D+01
-.130717815838D-04 0.000000000000D+00 -.384899834731D-06 0.556198499204D-06 0.000000000000D+00  6 1 1 25 -24 2 1 4 0.16087388D-01 0.15264584D+00 0.24457357D+05 0.24457357D+05 0.24457357D+05 0.12243207D+01  1  2  5  5  6  1       21 -.195764096442D-02 0.100000000000D+01
0.682722641671D-05 0.000000000000D+00 0.000000000000D+00 0.549301202380D-06 0.000000000000D+00  6 -2 1 25 -24 2 -2 4 0.16060536D-01 0.15264584D+00 0.28836317D+05 0.28836317D+05 0.28836317D+05 0.12167058D+01  1  2 12  6  6  1       21 0.660854625261D-03 0.100000000000D+01
0.668595335051D-05 0.000000000000D+00 0.000000000000D+00 0.549301202380D-06 0.000000000000D+00  6 -2 1 25 -24 2 -2 4 0.16803258D-01 0.15264584D+00 0.28836317D+05 0.28836317D+05 0.28836317D+05 0.12167058D+01  1  2 12  6  6  1       21 0.600411904482D-03 0.100000000000D+01
-.130717815838D-04 0.000000000000D+00 -.384899834731D-06 0.556198499204D-06 0.000000000000D+00  6 -2 1 25 -24 2 -2 4 0.16087388D-01 0.15264584D+00 0.24457357D+05 0.24457357D+05 0.24457357D+05 0.12243207D+01  1  2  5  6  6  1       21 -.129592959248D-02 0.100000000000D+01
0.682722641671D-05 0.000000000000D+00 0.000000000000D+00 0.549301202380D-06 0.000000000000D+00  6 2 1 25 -24 2 2 4 0.16060536D-01 0.15264584D+00 0.28836317D+05 0.28836317D+05 0.28836317D+05 0.12167058D+01  1  2 12  7  6  1       21 0.119668628629D-02 0.100000000000D+01
0.668595335051D-05 0.000000000000D+00 0.000000000000D+00 0.549301202380D-06 0.000000000000D+00  6 2 1 25 -24 2 2 4 0.16803258D-01 0.15264584D+00 0.28836317D+05 0.28836317D+05 0.28836317D+05 0.12167058D+01  1  2 12  7  6  1       21 0.111177901280D-02 0.100000000000D+01
-.130717815838D-04 0.000000000000D+00 -.384899834731D-06 0.556198499204D-06 0.000000000000D+00  6 2 1 25 -24 2 2 4 0.16087388D-01 0.15264584D+00 0.24457357D+05 0.24457357D+05 0.24457357D+05 0.12243207D+01  1  2  5  7  6  1       21 -.234896127409D-02 0.100000000000D+01
0.682722641671D-05 0.000000000000D+00 0.000000000000D+00 0.549301202380D-06 0.000000000000D+00  6 -3 1 25 -24 2 -3 4 0.16060536D-01 0.15264584D+00 0.28836317D+05 0.28836317D+05 0.28836317D+05 0.12167058D+01  1  2 12  8  6  1       21 0.441665579445D-03 0.100000000000D+01
0.682722641671D-05 0.000000000000D+00 0.000000000000D+00 0.549301202380D-06 0.000000000000D+00  6 -4 1 25 -24 2 -4 4 0.16060536D-01 0.15264584D+00 0.28836317D+05 0.28836317D+05 0.28836317D+05 0.12167058D+01  1  2 12  8  6  1       21 0.381019983034D-03 0.100000000000D+01
0.668595335051D-05 0.000000000000D+00 0.000000000000D+00 0.549301202380D-06 0.000000000000D+00  6 -3 1 25 -24 2 -3 4 0.16803258D-01 0.15264584D+00 0.28836317D+05 0.28836317D+05 0.28836317D+05 0.12167058D+01  1  2 12  8  6  1       21 0.399923426928D-03 0.100000000000D+01
0.668595335051D-05 0.000000000000D+00 0.000000000000D+00 0.549301202380D-06 0.000000000000D+00  6 -4 1 25 -24 2 -4 4 0.16803258D-01 0.15264584D+00 0.28836317D+05 0.28836317D+05 0.28836317D+05 0.12167058D+01  1  2 12  8  6  1       21 0.344444248893D-03 0.100000000000D+01
-.130717815838D-04 0.000000000000D+00 -.384899834731D-06 0.556198499204D-06 0.000000000000D+00  6 -3 1 25 -24 2 -3 4 0.16087388D-01 0.15264584D+00 0.24457357D+05 0.24457357D+05 0.24457357D+05 0.12243207D+01  1  2  5  8  6  1       21 -.862898472155D-03 0.100000000000D+01
-.130717815838D-04 0.000000000000D+00 -.384899834731D-06 0.556198499204D-06 0.000000000000D+00  6 -4 1 25 -24 2 -4 4 0.16087388D-01 0.15264584D+00 0.24457357D+05 0.24457357D+05 0.24457357D+05 0.12243207D+01  1  2  5  8  6  1       21 -.743125970935D-03 0.100000000000D+01
0.682722641671D-05 0.000000000000D+00 0.000000000000D+00 0.549301202380D-06 0.000000000000D+00  6 3 1 25 -24 2 3 4 0.16060536D-01 0.15264584D+00 0.28836317D+05 0.28836317D+05 0.28836317D+05 0.12167058D+01  1  2 12  9  6  1       21 0.441616001983D-03 0.100000000000D+01
0.682722641671D-05 0.000000000000D+00 0.000000000000D+00 0.549301202380D-06 0.000000000000D+00  6 4 1 25 -24 2 4 4 0.16060536D-01 0.15264584D+00 0.28836317D+05 0.28836317D+05 0.28836317D+05 0.12167058D+01  1  2 12  9  6  1       21 0.381019983034D-03 0.100000000000D+01
0.668595335051D-05 0.000000000000D+00 0.000000000000D+00 0.549301202380D-06 0.000000000000D+00  6 3 1 25 -24 2 3 4 0.16803258D-01 0.15264584D+00 0.28836317D+05 0.28836317D+05 0.28836317D+05 0.12167058D+01  1  2 12  9  6  1       21 0.399880007854D-03 0.100000000000D+01
0.668595335051D-05 0.000000000000D+00 0.000000000000D+00 0.549301202380D-06 0.000000000000D+00  6 4 1 25 -24 2 4 4 0.16803258D-01 0.15264584D+00 0.28836317D+05 0.28836317D+05 0.28836317D+05 0.12167058D+01  1  2 12  9  6  1       21 0.344444248893D-03 0.100000000000D+01
-.130717815838D-04 0.000000000000D+00 -.384899834731D-06 0.556198499204D-06 0.000000000000D+00  6 3 1 25 -24 2 3 4 0.16087388D-01 0.15264584D+00 0.24457357D+05 0.24457357D+05 0.24457357D+05 0.12243207D+01  1  2  5  9  6  1       21 -.862799616852D-03 0.100000000000D+01
-.130717815838D-04 0.000000000000D+00 -.384899834731D-06 0.556198499204D-06 0.000000000000D+00  6 4 1 25 -24 2 4 4 0.16087388D-01 0.15264584D+00 0.24457357D+05 0.24457357D+05 0.24457357D+05 0.12243207D+01  1  2  5  9  6  1       21 -.743125970935D-03 0.100000000000D+01
  </mgrwgt>
  </event>
  <event>
  5     66 0.45631637E-03 0.36843516E+02 0.75467711E-02 0.12198268E+00
       21 -1    0    0  501  502 0.00000000E+00 0.00000000E+00 0.23724697E+02 0.23736549E+02 0.75000000E+00 0.0000E+00 0.9000E+01
        1 -1    0    0  502    0 0.00000000E+00 0.00000000E+00 -.74973843E+03 0.74973849E+03 0.32000000E+00 0.0000E+00 0.9000E+01
       25  1    1    2    0    0 -.39798142E+02 0.13769899E+02 -.31123308E+03 0.33803038E+03 0.12500000E+03 0.0000E+00 0.9000E+01
      -24  1    1    2    0    0 0.74672467E+01 0.65230234E+01 -.17758859E+03 0.19520050E+03 0.80419002E+02 0.0000E+00 0.9000E+01
        2  1    1    2  501    0 0.32330895E+02 -.20292922E+02 -.23719205E+03 0.24024417E+03 0.32000000E+00 0.0000E+00 0.9000E+01
#aMCatNLO 1  0  0  1  2 0.19508538D+02 0.00000000D+00  -5  6  0 0.00000000D+00 0.00000000D+00 0.00000000D+00 0.00000000D+00 0.00000000D+00
  <mgrwgt>
 0.6205791287D-01   32    2    0
 0.133386381392773D+03 0.000000000000000D+00 0.000000000000000D+00 0.133386381392773D+03
 0.133386381392773D+03 0.000000000000000D+00 0.000000000000000D+00 -.133386381392773D+03
 0.133066844302174D+03 -.397984587040429D+02 0.137700976820216D+02 0.175571110137491D+02
 0.826582311214580D+02 0.746704989139804D+01 0.652314692340736D+01 0.163358176377199D+02
 0.510476873619139D+02 0.323314088126449D+02 -.202932446054290D+02 -.338929286514689D+02
 0.000000000000000D+00 0.000000000000000D+00 0.000000000000000D+00 0.000000000000000D+00
 0.154132864471752D+03 0.000000000000000D+00 0.000000000000000D+00 0.154132864471752D+03
 0.138408786211904D+03 0.000000000000000D+00 0.000000000000000D+00 -.138408786211904D+03
 0.136299213806242D+03 -.496294868658816D+02 0.134587358425653D+02 0.175571110137491D+02
 0.823180752431580D+02 0.144592486437669D+01 0.633244982304838D+01 0.163358176377199D+02
 0.488678320369367D+02 0.286848013227751D+02 -.204087375525684D+02 -.338929286514689D+02
 0.250565295973182D+02 0.194987606787298D+02 0.617551886954739D+00 0.157240782598478D+02
0.586503184098D-06 0.000000000000D+00 0.000000000000D+00 0.358705264298D-06 0.000000000000D+00  6 21 1 25 -24 2 21 2 0.36508703D-02 0.11534529D+00 0.15763288D+05 0.15763288D+05 0.15763288D+05 0.12453726D+01  1  2  2  1  6  1       21 0.116953037110D-01 0.100000000000D+01
-.512674558423D-07 0.309506233452D-07 -.118398094964D-08 0.358705264298D-06 0.000000000000D+00  6 21 1 25 -24 2 21 4 0.36508703D-02 0.11534529D+00 0.15763288D+05 0.15763288D+05 0.15763288D+05 0.12453726D+01  1  2  3  1  6  1       21 -.158555582662D-02 0.100000000000D+01
0.619133243223D-07 0.000000000000D+00 0.000000000000D+00 0.358705264298D-06 0.000000000000D+00  6 21 1 25 -24 2 21 4 0.36508703D-02 0.11534529D+00 0.15763288D+05 0.15763288D+05 0.15763288D+05 0.12453726D+01  1  2 15  1  6  1       21 0.191480210032D-02 0.100000000000D+01
0.152330264438D-05 0.000000000000D+00 0.000000000000D+00 0.354525240687D-06 0.000000000000D+00  6 21 1 25 -24 2 21 4 0.42800201D-02 0.11534529D+00 0.18300314D+05 0.18300314D+05 0.18300314D+05 0.12380952D+01  1  2 12  1  6  1       21 0.354026375502D-01 0.100000000000D+01
0.122330490686D-05 0.000000000000D+00 0.000000000000D+00 0.354525240687D-06 0.000000000000D+00  6 21 1 25 -24 2 21 4 0.44277081D-02 0.11534529D+00 0.18300314D+05 0.18300314D+05 0.18300314D+05 0.12380952D+01  1  2 12  1  6  1       21 0.268644270903D-01 0.100000000000D+01
-.170946116682D-05 0.000000000000D+00 0.000000000000D+00 0.358705264298D-06 0.000000000000D+00  6 21 1 25 -24 2 21 4 0.36508703D-02 0.11534529D+00 0.15763288D+05 0.15763288D+05 0.15763288D+05 0.12453726D+01  1  2  4  1  6  1       21 -.528687462427D-01 0.100000000000D+01
-.584410068383D-05 0.000000000000D+00 -.115558175551D-05 0.358705264298D-06 0.000000000000D+00  6 21 1 25 -24 2 21 4 0.43773720D-02 0.11534529D+00 0.15763288D+05 0.15763288D+05 0.15763288D+05 0.12453726D+01  1  2  5  1  6  1       21 -.133726757491D+00 0.100000000000D+01
0.567393822652D-05 0.000000000000D+00 0.108287342655D-05 0.358705264298D-06 0.000000000000D+00  6 21 1 25 -24 2 21 4 0.36508703D-02 0.11534529D+00 0.15763288D+05 0.15763288D+05 0.15763288D+05 0.12453726D+01  1  2  6  1  6  1       21 0.175478686569D+00 0.100000000000D+01
0.664563133085D-07 0.000000000000D+00 0.000000000000D+00 0.354525240687D-06 0.000000000000D+00  6 -1 1 25 -24 2 -1 4 0.42800201D-02 0.11534529D+00 0.18300314D+05 0.18300314D+05 0.18300314D+05 0.12380952D+01  1  2 12  4  6  1       21 0.855796581229D-04 0.100000000000D+01
0.672000968240D-07 0.000000000000D+00 0.000000000000D+00 0.354525240687D-06 0.000000000000D+00  6 -1 1 25 -24 2 -1 4 0.44277081D-02 0.11534529D+00 0.18300314D+05 0.18300314D+05 0.18300314D+05 0.12380952D+01  1  2 12  4  6  1       21 0.823215371416D-04 0.100000000000D+01
-.257993135115D-06 0.000000000000D+00 -.589961149111D-07 0.358705264298D-06 0.000000000000D+00  6 -1 1 25 -24 2 -1 4 0.43773720D-02 0.11534529D+00 0.15763288D+05 0.15763288D+05 0.15763288D+05 0.12453726D+01  1  2  5  4  6  1       21 -.327857189137D-03 0.100000000000D+01
0.664563133085D-07 0.000000000000D+00 0.000000000000D+00 0.354525240687D-06 0.000000000000D+00  6 1 1 25 -24 2 1 4 0.42800201D-02 0.11534529D+00 0.18300314D+05 0.18300314D+05 0.18300314D+05 0.12380952D+01  1  2 12  5  6  1       21 0.949050786797D-04 0.100000000000D+01
0.672000968240D-07 0.000000000000D+00 0.000000000000D+00 0.354525240687D-06 0.000000000000D+00  6 1 1 25 -24 2 1 4 0.44277081D-02 0.11534529D+00 0.18300314D+05 0.18300314D+05 0.18300314D+05 0.12380952D+01  1  2 12  5  6  1       21 0.916007840178D-04 0.100000000000D+01
-.257993135115D-06 0.000000000000D+00 -.589961149111D-07 0.358705264298D-06 0.000000000000D+00  6 1 1 25 -24 2 1 4 0.43773720D-02 0.11534529D+00 0.15763288D+05 0.15763288D+05 0.15763288D+05 0.12453726D+01  1  2  5  5  6  1       21 -.364479196479D-03 0.100000000000D+01
0.664563133085D-07 0.000000000000D+00 0.000000000000D+00 0.354525240687D-06 0.000000000000D+00  6 -2 1 25 -24 2 -2 4 0.42800201D-02 0.11534529D+00 0.18300314D+05 0.18300314D+05 0.18300314D+05 0.12380952D+01  1  2 12  6  6  1       21 0.839259217220D-04 0.100000000000D+01
0.672000968240D-07 0.000000000000D+00 0.000000000000D+00 0.354525240687D-06 0.000000000000D+00  6 -2 1 25 -24 2 -2 4 0.44277081D-02 0.11534529D+00 0.18300314D+05 0.18300314D+05 0.18300314D+05 0.12380952D+01  1  2 12  6  6  1       21 0.806778208357D-04 0.100000000000D+01
-.257993135115D-06 0.000000000000D+00 -.589961149111D-07 0.358705264298D-06 0.000000000000D+00  6 -2 1 25 -24 2 -2 4 0.43773720D-02 0.11534529D+00 0.15763288D+05 0.15763288D+05 0.15763288D+05 0.12453726D+01  1  2  5  6  6  1       21 -.321364648548D-03 0.100000000000D+01
0.664563133085D-07 0.000000000000D+00 0.000000000000D+00 0.354525240687D-06 0.000000000000D+00  6 2 1 25 -24 2 2 4 0.42800201D-02 0.11534529D+00 0.18300314D+05 0.18300314D+05 0.18300314D+05 0.12380952D+01  1  2 12  7  6  1       21 0.101185394402D-03 0.100000000000D+01
0.672000968240D-07 0.000000000000D+00 0.000000000000D+00 0.354525240687D-06 0.000000000000D+00  6 2 1 25 -24 2 2 4 0.44277081D-02 0.11534529D+00 0.18300314D+05 0.18300314D+05 0.18300314D+05 0.12380952D+01  1  2 12  7  6  1       21 0.978456929653D-04 0.100000000000D+01
-.257993135115D-06 0.000000000000D+00 -.589961149111D-07 0.358705264298D-06 0.000000000000D+00  6 2 1 25 -24 2 2 4 0.43773720D-02 0.11534529D+00 0.15763288D+05 0.15763288D+05 0.15763288D+05 0.12453726D+01  1  2  5  7  6  1       21 -.389117296461D-03 0.100000000000D+01
0.664563133085D-07 0.000000000000D+00 0.000000000000D+00 0.354525240687D-06 0.000000000000D+00  6 -3 1 25 -24 2 -3 4 0.42800201D-02 0.11534529D+00 0.18300314D+05 0.18300314D+05 0.18300314D+05 0.12380952D+01  1  2 12  8  6  1       21 0.617523815058D-04 0.100000000000D+01
0.664563133085D-07 0.000000000000D+00 0.000000000000D+00 0.354525240687D-06 0.000000000000D+00  6 -4 1 25 -24 2 -4 4 0.42800201D-02 0.11534529D+00 0.18300314D+05 0.18300314D+05 0.18300314D+05 0.12380952D+01  1  2 12  8  6  1       21 0.552030170036D-04 0.100000000000D+01
0.672000968240D-07 0.000000000000D+00 0.000000000000D+00 0.354525240687D-06 0.000000000000D+00  6 -3 1 25 -24 2 -3 4 0.44277081D-02 0.11534529D+00 0.18300314D+05 0.18300314D+05 0.18300314D+05 0.12380952D+01  1  2 12  8  6  1       21 0.592027601162D-04 0.100000000000D+01
0.672000968240D-07 0.000000000000D+00 0.000000000000D+00 0.354525240687D-06 0.000000000000D+00  6 -4 1 25 -24 2 -4 4 0.44277081D-02 0.11534529D+00 0.18300314D+05 0.18300314D+05 0.18300314D+05 0.12380952D+01  1  2 12  8  6  1       21 0.528798539391D-04 0.100000000000D+01
-.257993135115D-06 0.000000000000D+00 -.589961149111D-07 0.358705264298D-06 0.000000000000D+00  6 -3 1 25 -24 2 -3 4 0.43773720D-02 0.11534529D+00 0.15763288D+05 0.15763288D+05 0.15763288D+05 0.12453726D+01  1  2  5  8  6  1       21 -.235243790382D-03 0.100000000000D+01
-.257993135115D-06 0.000000000000D+00 -.589961149111D-07 0.358705264298D-06 0.000000000000D+00  6 -4 1 25 -24 2 -4 4 0.43773720D-02 0.11534529D+00 0.15763288D+05 0.15763288D+05 0.15763288D+05 0.12453726D+01  1  2  5  8  6  1       21 -.209853754417D-03 0.100000000000D+01
0.664563133085D-07 0.000000000000D+00 0.000000000000D+00 0.354525240687D-06 0.000000000000D+00  6 3 1 25 -24 2 3 4 0.42800201D-02 0.11534529D+00 0.18300314D+05 0.18300314D+05 0.18300314D+05 0.12380952D+01  1  2 12  9  6  1       21 0.617467212067D-04 0.100000000000D+01
0.664563133085D-07 0.000000000000D+00 0.000000000000D+00 0.354525240687D-06 0.000000000000D+00  6 4 1 25 -24 2 4 4 0.42800201D-02 0.11534529D+00 0.18300314D+05 0.18300314D+05 0.18300314D+05 0.12380952D+01  1  2 12  9  6  1       21 0.552030170036D-04 0.100000000000D+01
0.672000968240D-07 0.000000000000D+00 0.000000000000D+00 0.354525240687D-06 0.000000000000D+00  6 3 1 25 -24 2 3 4 0.44277081D-02 0.11534529D+00 0.18300314D+05 0.18300314D+05 0.18300314D+05 0.12380952D+01  1  2 12  9  6  1       21 0.591972331277D-04 0.100000000000D+01
0.672000968240D-07 0.000000000000D+00 0.000000000000D+00 0.354525240687D-06 0.000000000000D+00  6 4 1 25 -24 2 4 4 0.44277081D-02 0.11534529D+00 0.18300314D+05 0.18300314D+05 0.18300314D+05 0.12380952D+01  1  2 12  9  6  1       21 0.528798539391D-04 0.100000000000D+01
-.257993135115D-06 0.000000000000D+00 -.589961149111D-07 0.358705264298D-06 0.000000000000D+00  6 3 1 25 -24 2 3 4 0.43773720D-02 0.11534529D+00 0.15763288D+05 0.15763288D+05 0.15763288D+05 0.12453726D+01  1  2  5  9  6  1       21 -.235221684677D-03 0.100000000000D+01
-.257993135115D-06 0.000000000000D+00 -.589961149111D-07 0.358705264298D-06 0.000000000000D+00  6 4 1 25 -24 2 4 4 0.43773720D-02 0.11534529D+00 0.15763288D+05 0.15763288D+05 0.15763288D+05 0.12453726D+01  1  2  5  9  6  1       21 -.209853754417D-03 0.100000000000D+01
  </mgrwgt>
  </event>
  <event>
  5     66 0.45631637E-03 0.21580272E+02 0.75467711E-02 0.12468745E+00
       21 -1    0    0  501  502 0.00000000E+00 0.00000000E+00 0.92626674E+02 0.92629711E+02 0.75000000E+00 0.0000E+00 0.9000E+01
        1 -1    0    0  502    0 -.00000000E+00 -.00000000E+00 -.26340376E+03 0.26340395E+03 0.32000000E+00 0.0000E+00 0.9000E+01
       25  1    1    2    0    0 -.11370101E+02 -.87935143E+01 -.22478661E+02 0.12781586E+03 0.12500000E+03 0.0000E+00 0.9000E+01
      -24  1    1    2    0    0 0.26245686E+02 0.24427145E+02 -.17378681E+03 0.19481939E+03 0.80419002E+02 0.0000E+00 0.9000E+01
        2  1    1    2  501    0 -.14875585E+02 -.15633631E+02 0.25488390E+02 0.33398411E+02 0.32000000E+00 0.0000E+00 0.9000E+01
#aMCatNLO 1  0  0  5  1 0.83497654D+00 0.00000000D+00  -5  6  0 0.00000000D+00 0.00000000D+00 0.00000000D+00 0.00000000D+00 0.00000000D+00
  <mgrwgt>
 0.5073328691D-01    8    2    0
 0.156201117700488D+03 0.000000000000000D+00 0.000000000000000D+00 0.156201117700488D+03
 0.156201117700488D+03 -.000000000000000D+00 -.000000000000000D+00 -.156201117700488D+03
 0.133378894511543D+03 -.113699805182260D+02 -.879338784991769D+01 0.442530154255902D+02
 0.127027104904562D+03 0.262458003322786D+02 0.244272658359052D+02 -.915594674228954D+02
 0.519962359848697D+02 -.148758198140526D+02 -.156338779859875D+02 0.473064519973053D+02
 0.000000000000000D+00 0.000000000000000D+00 0.000000000000000D+00 0.000000000000000D+00
 0.156201117700488D+03 0.000000000000000D+00 0.000000000000000D+00 0.156201117700488D+03
 0.156201117700488D+03 -.000000000000000D+00 -.000000000000000D+00 -.156201117700488D+03
 0.133437771893449D+03 -.114185754407274D+02 -.884445912522365D+01 0.444075516728264D+02
 0.126902236603533D+03 0.261995525590878D+02 0.243786613184920D+02 -.914123953226832D+02
 0.108764690453379D+01 -.171624906070891D+00 -.100449384956010D+01 0.380148374656400D+00
 0.509745799994591D+02 -.146093522122895D+02 -.145297083437083D+02 0.466246952752005D+02
0.615643424915D-05 0.000000000000D+00 0.000000000000D+00 0.182846540546D-05 0.000000000000D+00  6 21 1 25 -24 2 21 2 0.14250506D-01 0.40523904D-01 0.13859606D+05 0.13859606D+05 0.13859606D+05 0.12517565D+01  1  2  2  3  6  5        2 0.465591817608D-01 0.100000000000D+01
0.580908599677D-06 0.324883961010D-06 -.124280670017D-07 0.182846540546D-05 0.000000000000D+00  6 21 1 25 -24 2 21 4 0.14250506D-01 0.40523904D-01 0.13859606D+05 0.13859606D+05 0.13859606D+05 0.12517565D+01  1  2  3  3  6  5        2 0.688372631449D-02 0.100000000000D+01
0.585859116644D-06 0.000000000000D+00 0.000000000000D+00 0.182846540546D-05 0.000000000000D+00  6 21 1 25 -24 2 21 4 0.14250506D-01 0.40523904D-01 0.13859606D+05 0.13859606D+05 0.13859606D+05 0.12517565D+01  1  2 15  3  6  5        2 0.694238959462D-02 0.100000000000D+01
0.306622223036D-11 0.000000000000D+00 0.000000000000D+00 0.182843561531D-05 0.000000000000D+00  6 21 1 25 -24 2 21 4 0.14250506D-01 0.40523904D-01 0.13862433D+05 0.13862433D+05 0.13862433D+05 0.12517463D+01  1  2 12  3  6  5        2 0.363334004351D-07 0.100000000000D+01
-.833908600351D-05 0.000000000000D+00 0.000000000000D+00 0.182846540546D-05 0.000000000000D+00  6 21 1 25 -24 2 21 4 0.14250506D-01 0.40523904D-01 0.13859606D+05 0.13859606D+05 0.13859606D+05 0.12517565D+01  1  2  4  3  6  5        2 -.988175864379D-01 0.100000000000D+01
-.163078777464D-05 0.000000000000D+00 0.000000000000D+00 0.182846540546D-05 0.000000000000D+00  6 21 1 25 -24 2 21 4 0.14250506D-01 0.40523904D-01 0.13859606D+05 0.13859606D+05 0.13859606D+05 0.12517565D+01  1  2  5  3  6  5        2 -.193247211763D-01 0.100000000000D+01
0.456063650714D-05 0.000000000000D+00 -.000000000000D+00 0.182846540546D-05 0.000000000000D+00  6 21 1 25 -24 2 21 4 0.14250506D-01 0.40523904D-01 0.13859606D+05 0.13859606D+05 0.13859606D+05 0.12517565D+01  1  2  6  3  6  5        2 0.540432239297D-01 0.100000000000D+01
0.459485520112D-05 0.000000000000D+00 0.000000000000D+00 0.182846540546D-05 0.543404210823D-06  6 21 1 25 -24 2 21 4 0.14250506D-01 0.40523904D-01 0.13862433D+05 0.13862433D+05 0.13862433D+05 0.12517463D+01  1  2 11  3  6  5        2 0.544470365881D-01 0.100000000000D+01
  </mgrwgt>
  </event>
  <event>
  5     66 0.45631637E-03 0.25165583E+02 0.75467711E-02 0.12181988E+00
       21 -1    0    0  501  502 0.00000000E+00 0.00000000E+00 0.61889270E+02 0.61893814E+02 0.75000000E+00 0.0000E+00 0.9000E+01
        1 -1    0    0  502    0 0.00000000E+00 0.00000000E+00 -.32587069E+03 0.32587085E+03 0.32000000E+00 0.0000E+00 0.9000E+01
       25  1    1    2    0    0 0.22759932E+02 -.44905631E+02 -.14492228E+03 0.19789391E+03 0.12500000E+03 0.0000E+00 0.9000E+01
      -24  1    1    2    0    0 -.81864430E+01 0.65421224E+02 -.12637625E+03 0.16366163E+03 0.80419002E+02 0.0000E+00 0.9000E+01
        2  1    1    2  501    0 -.14573489E+02 -.20515593E+02 0.73171116E+01 0.26209133E+02 0.32000000E+00 0.0000E+00 0.9000E+01
#aMCatNLO 1  0  0  1  2 0.91424696D+01 0.00000000D+00  -5  6  0 0.00000000D+00 0.00000000D+00 0.00000000D+00 0.00000000D+00 0.00000000D+00
  <mgrwgt>
 0.3692638171D+00   32    2    0
 0.142016938723959D+03 0.000000000000000D+00 0.000000000000000D+00 0.142016938723959D+03
 0.142016938723959D+03 0.000000000000000D+00 0.000000000000000D+00 -.142016938723959D+03
 0.135474933781466D+03 0.227601280865755D+02 -.449053547967723D+02 -.139263549843937D+02
 0.105977733834247D+03 -.818628948674187D+01 0.654214406485871D+02 -.204226316172681D+02
 0.425812098322039D+02 -.145738385998336D+02 -.205160858518148D+02 0.343489866016618D+02
 0.000000000000000D+00 0.000000000000000D+00 -.000000000000000D+00 0.000000000000000D+00
 0.158742247361934D+03 0.000000000000000D+00 0.000000000000000D+00 0.158742247361934D+03
 0.143345382794247D+03 0.000000000000000D+00 0.000000000000000D+00 -.143345382794247D+03
 0.133960247295144D+03 0.216496223889105D+02 -.407148417980778D+02 -.139263549843937D+02
 0.108135638582672D+03 -.906878047795226D+01 0.687515360976008D+02 -.204226316172681D+02
 0.420850921784404D+02 -.149227997503684D+02 -.191992747445596D+02 0.343489866016618D+02
 0.179066520999241D+02 0.234195783941014D+01 -.883741955496347D+01 0.153968645676868D+02
0.192520662347D-05 0.000000000000D+00 0.000000000000D+00 0.162865429624D-05 0.000000000000D+00  6 21 1 25 -24 2 21 2 0.95217878D-02 0.50134315D-01 0.17412670D+05 0.17412670D+05 0.17412670D+05 0.12405051D+01  1  2  2  1  6  1       21 0.224783740456D-01 0.100000000000D+01
0.152827220067D-06 0.101595944712D-06 -.388643749618D-08 0.162865429624D-05 0.000000000000D+00  6 21 1 25 -24 2 21 4 0.95217878D-02 0.50134315D-01 0.17412670D+05 0.17412670D+05 0.17412670D+05 0.12405051D+01  1  2  3  1  6  1       21 0.274590433021D-02 0.100000000000D+01
0.177240053662D-06 0.000000000000D+00 0.000000000000D+00 0.162865429624D-05 0.000000000000D+00  6 21 1 25 -24 2 21 4 0.95217878D-02 0.50134315D-01 0.17412670D+05 0.17412670D+05 0.17412670D+05 0.12405051D+01  1  2 15  1  6  1       21 0.318453892326D-02 0.100000000000D+01
0.179528634120D-04 0.000000000000D+00 0.000000000000D+00 0.162016712793D-05 0.000000000000D+00  6 21 1 25 -24 2 21 4 0.10684474D-01 0.50134315D-01 0.18616307D+05 0.18616307D+05 0.18616307D+05 0.12372687D+01  1  2 12  1  6  1       21 0.261048127521D+00 0.100000000000D+01
-.425373581052D-05 0.000000000000D+00 0.000000000000D+00 0.162865429624D-05 0.000000000000D+00  6 21 1 25 -24 2 21 4 0.95217878D-02 0.50134315D-01 0.17412670D+05 0.17412670D+05 0.17412670D+05 0.12405051D+01  1  2  4  1  6  1       21 -.764284763968D-01 0.100000000000D+01
-.530669754888D-04 0.000000000000D+00 -.535420176651D-05 0.162865429624D-05 0.000000000000D+00  6 21 1 25 -24 2 21 4 0.10731086D-01 0.50134315D-01 0.17412670D+05 0.17412670D+05 0.17412670D+05 0.12405051D+01  1  2  5  1  6  1       21 -.773307640129D+00 0.100000000000D+01
0.521318872215D-04 0.000000000000D+00 0.520417010153D-05 0.162865429624D-05 0.000000000000D+00  6 21 1 25 -24 2 21 4 0.95217878D-02 0.50134315D-01 0.17412670D+05 0.17412670D+05 0.17412670D+05 0.12405051D+01  1  2  6  1  6  1       21 0.936673288964D+00 0.100000000000D+01
0.344289260223D-09 0.000000000000D+00 0.000000000000D+00 0.162865429624D-05 0.363597008998D-06  6 21 1 25 -24 2 21 4 0.10643167D-01 0.50603277D-01 0.18616307D+05 0.18616307D+05 0.18616307D+05 0.12372687D+01  1  2 11  1  6  1       21 0.498248349745D-05 0.100000000000D+01
0.538700092819D-06 0.000000000000D+00 0.000000000000D+00 0.162016712793D-05 0.000000000000D+00  6 -1 1 25 -24 2 -1 4 0.10684474D-01 0.50134315D-01 0.18616307D+05 0.18616307D+05 0.18616307D+05 0.12372687D+01  1  2 12  4  6  1       21 0.527223576937D-03 0.100000000000D+01
-.156101471931D-05 0.000000000000D+00 -.167633024698D-06 0.162865429624D-05 0.000000000000D+00  6 -1 1 25 -24 2 -1 4 0.10731086D-01 0.50134315D-01 0.17412670D+05 0.17412670D+05 0.17412670D+05 0.12405051D+01  1  2  5  4  6  1       21 -.153092349951D-02 0.100000000000D+01
0.611199528342D-10 0.000000000000D+00 0.000000000000D+00 0.162865429624D-05 0.613525322082D-08  6 -1 1 25 -24 2 -1 4 0.10643167D-01 0.50603277D-01 0.18616307D+05 0.18616307D+05 0.18616307D+05 0.12372687D+01  1  2 11  4  6  1       21 0.594817440082D-07 0.100000000000D+01
0.538700092819D-06 0.000000000000D+00 0.000000000000D+00 0.162016712793D-05 0.000000000000D+00  6 1 1 25 -24 2 1 4 0.10684474D-01 0.50134315D-01 0.18616307D+05 0.18616307D+05 0.18616307D+05 0.12372687D+01  1  2 12  5  6  1       21 0.669859362946D-03 0.100000000000D+01
-.156101471931D-05 0.000000000000D+00 -.167633024698D-06 0.162865429624D-05 0.000000000000D+00  6 1 1 25 -24 2 1 4 0.10731086D-01 0.50134315D-01 0.17412670D+05 0.17412670D+05 0.17412670D+05 0.12405051D+01  1  2  5  5  6  1       21 -.194708956876D-02 0.100000000000D+01
0.598003211888D-10 0.000000000000D+00 0.000000000000D+00 0.162865429624D-05 0.614751055080D-08  6 1 1 25 -24 2 1 4 0.10643167D-01 0.50603277D-01 0.18616307D+05 0.18616307D+05 0.18616307D+05 0.12372687D+01  1  2 11  5  6  1       21 0.738819731080D-07 0.100000000000D+01
0.538700092819D-06 0.000000000000D+00 0.000000000000D+00 0.162016712793D-05 0.000000000000D+00  6 -2 1 25 -24 2 -2 4 0.10684474D-01 0.50134315D-01 0.18616307D+05 0.18616307D+05 0.18616307D+05 0.12372687D+01  1  2 12  6  6  1       21 0.502456780003D-03 0.100000000000D+01
-.156101471931D-05 0.000000000000D+00 -.167633024698D-06 0.162865429624D-05 0.000000000000D+00  6 -2 1 25 -24 2 -2 4 0.10731086D-01 0.50134315D-01 0.17412670D+05 0.17412670D+05 0.17412670D+05 0.12405051D+01  1  2  5  6  6  1       21 -.145864417640D-02 0.100000000000D+01
0.194078508017D-09 0.000000000000D+00 0.000000000000D+00 0.162865429624D-05 0.200892776504D-06  6 -2 1 25 -24 2 -2 4 0.10643167D-01 0.50603277D-01 0.18616307D+05 0.18616307D+05 0.18616307D+05 0.12372687D+01  1  2 11  6  6  1       21 0.180037395586D-06 0.100000000000D+01
0.538700092819D-06 0.000000000000D+00 0.000000000000D+00 0.162016712793D-05 0.000000000000D+00  6 2 1 25 -24 2 2 4 0.10684474D-01 0.50134315D-01 0.18616307D+05 0.18616307D+05 0.18616307D+05 0.12372687D+01  1  2 12  7  6  1       21 0.766480215196D-03 0.100000000000D+01
-.156101471931D-05 0.000000000000D+00 -.167633024698D-06 0.162865429624D-05 0.000000000000D+00  6 2 1 25 -24 2 2 4 0.10731086D-01 0.50134315D-01 0.17412670D+05 0.17412670D+05 0.17412670D+05 0.12405051D+01  1  2  5  7  6  1       21 -.222891390088D-02 0.100000000000D+01
0.613300622125D-10 0.000000000000D+00 0.000000000000D+00 0.162865429624D-05 0.364697881093D-08  6 2 1 25 -24 2 2 4 0.10643167D-01 0.50603277D-01 0.18616307D+05 0.18616307D+05 0.18616307D+05 0.12372687D+01  1  2 11  7  6  1       21 0.866667749275D-07 0.100000000000D+01
0.538700092819D-06 0.000000000000D+00 0.000000000000D+00 0.162016712793D-05 0.000000000000D+00  6 -3 1 25 -24 2 -3 4 0.10684474D-01 0.50134315D-01 0.18616307D+05 0.18616307D+05 0.18616307D+05 0.12372687D+01  1  2 12  8  6  1       21 0.343336518829D-03 0.100000000000D+01
0.538700092819D-06 0.000000000000D+00 0.000000000000D+00 0.162016712793D-05 0.000000000000D+00  6 -4 1 25 -24 2 -4 4 0.10684474D-01 0.50134315D-01 0.18616307D+05 0.18616307D+05 0.18616307D+05 0.12372687D+01  1  2 12  8  6  1       21 0.299031450303D-03 0.100000000000D+01
-.156101471931D-05 0.000000000000D+00 -.167633024698D-06 0.162865429624D-05 0.000000000000D+00  6 -3 1 25 -24 2 -3 4 0.10731086D-01 0.50134315D-01 0.17412670D+05 0.17412670D+05 0.17412670D+05 0.12405051D+01  1  2  5  8  6  1       21 -.994833094493D-03 0.100000000000D+01
-.156101471931D-05 0.000000000000D+00 -.167633024698D-06 0.162865429624D-05 0.000000000000D+00  6 -4 1 25 -24 2 -4 4 0.10731086D-01 0.50134315D-01 0.17412670D+05 0.17412670D+05 0.17412670D+05 0.12405051D+01  1  2  5  8  6  1       21 -.865715531800D-03 0.100000000000D+01
0.611709843032D-10 0.000000000000D+00 0.000000000000D+00 0.162865429624D-05 0.614037578669D-08  6 -3 1 25 -24 2 -3 4 0.10643167D-01 0.50603277D-01 0.18616307D+05 0.18616307D+05 0.18616307D+05 0.12372687D+01  1  2 11  8  6  1       21 0.387871844833D-07 0.100000000000D+01
0.611709843032D-10 0.000000000000D+00 0.000000000000D+00 0.162865429624D-05 0.614037578669D-08  6 -4 1 25 -24 2 -4 4 0.10643167D-01 0.50603277D-01 0.18616307D+05 0.18616307D+05 0.18616307D+05 0.12372687D+01  1  2 11  8  6  1       21 0.337862833512D-07 0.100000000000D+01
0.538700092819D-06 0.000000000000D+00 0.000000000000D+00 0.162016712793D-05 0.000000000000D+00  6 3 1 25 -24 2 3 4 0.10684474D-01 0.50134315D-01 0.18616307D+05 0.18616307D+05 0.18616307D+05 0.12372687D+01  1  2 12  9  6  1       21 0.343292394813D-03 0.100000000000D+01
0.538700092819D-06 0.000000000000D+00 0.000000000000D+00 0.162016712793D-05 0.000000000000D+00  6 4 1 25 -24 2 4 4 0.10684474D-01 0.50134315D-01 0.18616307D+05 0.18616307D+05 0.18616307D+05 0.12372687D+01  1  2 12  9  6  1       21 0.299031450303D-03 0.100000000000D+01
-.156101471931D-05 0.000000000000D+00 -.167633024698D-06 0.162865429624D-05 0.000000000000D+00  6 3 1 25 -24 2 3 4 0.10731086D-01 0.50134315D-01 0.17412670D+05 0.17412670D+05 0.17412670D+05 0.12405051D+01  1  2  5  9  6  1       21 -.994704337997D-03 0.100000000000D+01
-.156101471931D-05 0.000000000000D+00 -.167633024698D-06 0.162865429624D-05 0.000000000000D+00  6 4 1 25 -24 2 4 4 0.10731086D-01 0.50134315D-01 0.17412670D+05 0.17412670D+05 0.17412670D+05 0.12405051D+01  1  2  5  9  6  1       21 -.865715531800D-03 0.100000000000D+01
0.611709843032D-10 0.000000000000D+00 0.000000000000D+00 0.162865429624D-05 0.614037578669D-08  6 3 1 25 -24 2 3 4 0.10643167D-01 0.50603277D-01 0.18616307D+05 0.18616307D+05 0.18616307D+05 0.12372687D+01  1  2 11  9  6  1       21 0.387822016010D-07 0.100000000000D+01
0.611709843032D-10 0.000000000000D+00 0.000000000000D+00 0.162865429624D-05 0.614037578669D-08  6 4 1 25 -24 2 4 4 0.10643167D-01 0.50603277D-01 0.18616307D+05 0.18616307D+05 0.18616307D+05 0.12372687D+01  1  2 11  9  6  1       21 0.337862833512D-07 0.100000000000D+01
  </mgrwgt>
  </event>
  <event>
  5     66 -.45631637E-03 0.46796159E+02 0.75467711E-02 0.11878433E+00
       21 -1    0    0  501  502 0.00000000E+00 0.00000000E+00 0.21084585E+02 0.21097920E+02 0.75000000E+00 0.0000E+00 0.9000E+01
        1 -1    0    0  502    0 0.00000000E+00 0.00000000E+00 -.87455675E+03 0.87455681E+03 0.32000000E+00 0.0000E+00 0.9000E+01
       25  1    1    2    0    0 -.24603589E+02 0.22161193E+02 -.44546408E+03 0.46385311E+03 0.12500000E+03 0.0000E+00 0.9000E+01
      -24  1    1    2    0    0 -.21159530E+02 -.31935698E+02 -.20583055E+03 0.22427895E+03 0.80419002E+02 0.0000E+00 0.9000E+01
        2  1    1    2  501    0 0.45763119E+02 0.97745056E+01 -.20217754E+03 0.20752268E+03 0.32000000E+00 0.0000E+00 0.9000E+01
#aMCatNLO 1  0  0  1  1 0.51605558D+02 0.00000000D+00  -5  6  0 0.00000000D+00 0.00000000D+00 0.00000000D+00 0.00000000D+00 0.00000000D+00
  <mgrwgt>
 -.3707751961D+00   12    2    0
 0.135814815376229D+03 0.000000000000000D+00 0.000000000000000D+00 0.135814815376229D+03
 0.135814815376229D+03 0.000000000000000D+00 0.000000000000000D+00 -.135814815376229D+03
 0.129812967902644D+03 -.246040549840995D+02 0.221610931211996D+02 -.113988186100925D+02
 0.927950647357549D+02 -.211598633881591D+02 -.319357694329856D+02 0.260014402881846D+02
 0.490215981140601D+02 0.457639183722586D+02 0.977467631178594D+01 -.146026216780920D+02
 0.000000000000000D+00 0.000000000000000D+00 -.000000000000000D+00 0.000000000000000D+00
 0.818392285493083D+03 0.000000000000000D+00 0.000000000000000D+00 0.818392285493083D+03
 0.139223038998241D+03 0.000000000000000D+00 0.000000000000000D+00 -.139223038998241D+03
 0.138164737482466D+03 -.377575192612495D+02 0.436913190133860D+02 -.113988186100925D+02
 0.913731645255054D+02 -.301996087695619D+02 -.171390774004878D+02 0.260014402881846D+02
 0.469504159396625D+02 0.410532113503904D+02 0.174853891822288D+02 -.146026216780920D+02
 0.681127006543689D+03 0.269039166804210D+02 -.440376307951270D+02 0.679169246494842D+03
0.346901135148D-06 0.000000000000D+00 0.000000000000D+00 0.368283610438D-06 0.000000000000D+00  6 21 1 25 -24 2 21 2 0.32448126D-02 0.13454822D+00 0.17580833D+05 0.17580833D+05 0.17580833D+05 0.12400382D+01  1  2  2  1  6  1       21 0.660882448469D-02 0.100000000000D+01
-.221239255828D-07 0.183064758438D-07 -.700293445217D-09 0.368283610438D-06 0.000000000000D+00  6 21 1 25 -24 2 21 4 0.32448126D-02 0.13454822D+00 0.17580833D+05 0.17580833D+05 0.17580833D+05 0.12400382D+01  1  2  3  1  6  1       21 -.648113072375D-03 0.100000000000D+01
0.371345759927D-07 0.000000000000D+00 0.000000000000D+00 0.368283610438D-06 0.000000000000D+00  6 21 1 25 -24 2 21 4 0.32448126D-02 0.13454822D+00 0.17580833D+05 0.17580833D+05 0.17580833D+05 0.12400382D+01  1  2 15  1  6  1       21 0.108784510452D-02 0.100000000000D+01
-.237781671817D-03 0.000000000000D+00 -.353535304489D-05 0.368283610438D-06 0.000000000000D+00  6 21 1 25 -24 2 21 4 0.19823013D-01 0.13454822D+00 0.17580833D+05 0.17580833D+05 0.17580833D+05 0.12400382D+01  1  2  5  1  6  1       21 -.302687241135D+00 0.100000000000D+01
-.101500224489D-03 0.000000000000D+00 -.149885772035D-05 0.368283610438D-06 0.000000000000D+00  6 -1 1 25 -24 2 -1 4 0.19823013D-01 0.13454822D+00 0.17580833D+05 0.17580833D+05 0.17580833D+05 0.12400382D+01  1  2  5  4  6  1       21 -.100572277105D-01 0.100000000000D+01
-.101500224489D-03 0.000000000000D+00 -.149885772035D-05 0.368283610438D-06 0.000000000000D+00  6 1 1 25 -24 2 1 4 0.19823013D-01 0.13454822D+00 0.17580833D+05 0.17580833D+05 0.17580833D+05 0.12400382D+01  1  2  5  5  6  1       21 -.150836681717D-01 0.100000000000D+01
-.101500224489D-03 0.000000000000D+00 -.149885772035D-05 0.368283610438D-06 0.000000000000D+00  6 -2 1 25 -24 2 -2 4 0.19823013D-01 0.13454822D+00 0.17580833D+05 0.17580833D+05 0.17580833D+05 0.12400382D+01  1  2  5  6  6  1       21 -.920350066840D-02 0.100000000000D+01
-.101500224489D-03 0.000000000000D+00 -.149885772035D-05 0.368283610438D-06 0.000000000000D+00  6 2 1 25 -24 2 2 4 0.19823013D-01 0.13454822D+00 0.17580833D+05 0.17580833D+05 0.17580833D+05 0.12400382D+01  1  2  5  7  6  1       21 -.186066321033D-01 0.100000000000D+01
-.101500224489D-03 0.000000000000D+00 -.149885772035D-05 0.368283610438D-06 0.000000000000D+00  6 -3 1 25 -24 2 -3 4 0.19823013D-01 0.13454822D+00 0.17580833D+05 0.17580833D+05 0.17580833D+05 0.12400382D+01  1  2  5  8  6  1       21 -.599137518362D-02 0.100000000000D+01
-.101500224489D-03 0.000000000000D+00 -.149885772035D-05 0.368283610438D-06 0.000000000000D+00  6 -4 1 25 -24 2 -4 4 0.19823013D-01 0.13454822D+00 0.17580833D+05 0.17580833D+05 0.17580833D+05 0.12400382D+01  1  2  5  8  6  1       21 -.510165683037D-02 0.100000000000D+01
-.101500224489D-03 0.000000000000D+00 -.149885772035D-05 0.368283610438D-06 0.000000000000D+00  6 3 1 25 -24 2 3 4 0.19823013D-01 0.13454822D+00 0.17580833D+05 0.17580833D+05 0.17580833D+05 0.12400382D+01  1  2  5  9  6  1       21 -.599079398038D-02 0.100000000000D+01
-.101500224489D-03 0.000000000000D+00 -.149885772035D-05 0.368283610438D-06 0.000000000000D+00  6 4 1 25 -24 2 4 4 0.19823013D-01 0.13454822D+00 0.17580833D+05 0.17580833D+05 0.17580833D+05 0.12400382D+01  1  2  5  9  6  1       21 -.510165683037D-02 0.100000000000D+01
  </mgrwgt>
  </event>
  <event>
  5     66 0.45631637E-03 0.81330346E+02 0.75467711E-02 0.10457174E+00
       21 -1    0    0  501  502 0.00000000E+00 0.00000000E+00 0.16687578E+03 0.16687747E+03 0.75000000E+00 0.0000E+00 0.9000E+01
        3 -1    0    0  502    0 0.00000000E+00 0.00000000E+00 -.25345806E+03 0.25345856E+03 0.50000000E+00 0.0000E+00 0.9000E+01
       25  1    1    2    0    0 0.26867078E+02 0.14554475E+02 -.79545718E+02 0.15128184E+03 0.12500000E+03 0.0000E+00 0.9000E+01
      -24  1    1    2    0    0 0.33967400E+02 0.39420949E+02 -.10473165E+03 0.14192861E+03 0.80419002E+02 0.0000E+00 0.9000E+01
        4  1    1    2  501    0 -.60834478E+02 -.53975424E+02 0.97695089E+02 0.12712558E+03 0.15500000E+01 0.0000E+00 0.9000E+01
#aMCatNLO 1  0  0  1  1 0.51605558D+02 0.00000000D+00  -5  6  0 0.00000000D+00 0.00000000D+00 0.00000000D+00 0.00000000D+00 0.00000000D+00
  <mgrwgt>
 0.3550334968D-01    3    2    0
 0.205661058308444D+03 0.000000000000000D+00 0.000000000000000D+00 0.205661058308444D+03
 0.205661058308444D+03 0.000000000000000D+00 0.000000000000000D+00 -.205661058308444D+03
 0.137854042285956D+03 0.268681595133673D+02 0.145554349575146D+02 -.494467217532148D+02
 0.122994951111698D+03 0.339683649809123D+02 0.394218051207614D+02 -.771531820869539D+02
 0.150473123219234D+03 -.608365244942796D+02 -.539772400782760D+02 0.126599903840169D+03
 0.000000000000000D+00 0.000000000000000D+00 -.000000000000000D+00 -.000000000000000D+00
 0.333362231124869D+03 0.000000000000000D+00 0.000000000000000D+00 0.333362231124869D+03
 0.663712886930055D+03 0.000000000000000D+00 0.000000000000000D+00 -.663712886930055D+03
 0.167919675938501D+03 -.564725845684369D+02 0.832939761766241D+02 -.494467217532148D+02
 0.157174130580674D+03 -.423936581273594D+02 0.102404373021167D+03 -.771531820869539D+02
 0.203558999965486D+03 -.157330430989595D+03 0.256098867478364D+02 0.126599903840169D+03
 0.468422311570263D+03 0.256196673685391D+03 -.211308235945627D+03 -.330350655805187D+03
0.446963935306D-04 0.000000000000D+00 0.000000000000D+00 0.108890018917D-05 0.000000000000D+00  6 21 3 25 -24 4 21 2 0.25673365D-01 0.38993716D-01 0.23378129D+05 0.23378129D+05 0.23378129D+05 0.12264331D+01  1  2  2  1  6  1       21 0.309893408219D-01 0.100000000000D+01
-.165244500410D-06 0.235869348806D-05 -.902291409366D-07 0.108890018917D-05 0.000000000000D+00  6 21 3 25 -24 4 21 4 0.25673365D-01 0.38993716D-01 0.23378129D+05 0.23378129D+05 0.23378129D+05 0.12264331D+01  1  2  3  1  6  1       21 -.172327516792D-03 0.100000000000D+01
0.449371828225D-05 0.000000000000D+00 0.000000000000D+00 0.108890018917D-05 0.000000000000D+00  6 21 3 25 -24 4 21 4 0.25673365D-01 0.38993716D-01 0.23378129D+05 0.23378129D+05 0.23378129D+05 0.12264331D+01  1  2 15  1  6  1       21 0.468633637321D-02 0.100000000000D+01
  </mgrwgt>
  </event>
  <event>
  5     66 0.45631637E-03 0.15970040E+03 0.75467711E-02 0.10842578E+00
       21 -1    0    0  501  502 0.00000000E+00 0.00000000E+00 0.10049744E+03 0.10050023E+03 0.75000000E+00 0.0000E+00 0.9000E+01
        1 -1    0    0  502    0 0.00000000E+00 0.00000000E+00 -.11626818E+04 0.11626818E+04 0.32000000E+00 0.0000E+00 0.9000E+01
       25  1    1    2    0    0 -.13971231E+03 -.64741970E+02 -.24212746E+03 0.31298843E+03 0.12500000E+03 0.0000E+00 0.9000E+01
      -24  1    1    2    0    0 -.92809476E+02 -.57018923E+02 -.57629674E+03 0.59198809E+03 0.80419002E+02 0.0000E+00 0.9000E+01
        2  1    1    2  501    0 0.23252178E+03 0.12176089E+03 -.24376015E+03 0.35820554E+03 0.32000000E+00 0.0000E+00 0.9000E+01
#aMCatNLO 1  0  0  1  2 0.78996795D+01 0.00000000D+00  -5  6  0 0.00000000D+00 0.00000000D+00 0.00000000D+00 0.00000000D+00 0.00000000D+00
  <mgrwgt>
 0.7249829418D-01   41    2    0
 0.341830855122445D+03 0.000000000000000D+00 0.000000000000000D+00 0.341830855122445D+03
 0.341830855122445D+03 0.000000000000000D+00 0.000000000000000D+00 -.341830855122445D+03
 0.202113698893754D+03 -.139712350465671D+03 -.647419930640772D+02 0.389086204068412D+02
 0.198424734835817D+03 -.928095193321559D+02 -.570189451490352D+02 -.145053067722539D+03
 0.283123276515319D+03 0.232521869797827D+03 0.121760938213112D+03 0.106144447315698D+03
 0.000000000000000D+00 -.000000000000000D+00 0.000000000000000D+00 0.000000000000000D+00
 0.350900053913074D+03 0.000000000000000D+00 0.000000000000000D+00 0.350900053913074D+03
 0.343578257692339D+03 0.000000000000000D+00 0.000000000000000D+00 -.343578257692339D+03
 0.200965480315774D+03 -.137591231880889D+03 -.657030931241860D+02 0.389086204068412D+02
 0.197733088024485D+03 -.907248229153783D+02 -.579635419602877D+02 -.145053067722539D+03
 0.285008780597759D+03 0.235511544102801D+03 0.120406286863192D+03 0.106144447315698D+03
 0.107709626673952D+02 -.719548930653403D+01 0.326034822128197D+01 0.732179622073434D+01
0.113791156318D-04 0.000000000000D+00 0.000000000000D+00 0.132475767321D-06 0.000000000000D+00  6 21 1 25 -24 2 21 2 0.15461363D-01 0.17887434D+00 0.88864209D+05 0.88864209D+05 0.88864209D+05 0.11683113D+01  1  2  2  1  6  1       21 0.764566207577D-02 0.100000000000D+01
-.966428593496D-06 0.600492429488D-06 -.229711559921D-07 0.132475767321D-06 0.000000000000D+00  6 21 1 25 -24 2 21 4 0.15461363D-01 0.17887434D+00 0.88864209D+05 0.88864209D+05 0.88864209D+05 0.11683113D+01  1  2  3  1  6  1       21 -.886326068137D-03 0.100000000000D+01
0.123011407836D-05 0.000000000000D+00 0.000000000000D+00 0.132475767321D-06 0.000000000000D+00  6 21 1 25 -24 2 21 4 0.15461363D-01 0.17887434D+00 0.88864209D+05 0.88864209D+05 0.88864209D+05 0.11683113D+01  1  2 15  1  6  1       21 0.112815595666D-02 0.100000000000D+01
0.309405553755D-04 0.000000000000D+00 0.000000000000D+00 0.132239654997D-06 0.000000000000D+00  6 21 1 25 -24 2 21 4 0.15910449D-01 0.17887434D+00 0.91188459D+05 0.91188459D+05 0.91188459D+05 0.11672697D+01  1  2 12  1  6  1       21 0.267915184704D-01 0.100000000000D+01
0.245593749388D-04 0.000000000000D+00 0.000000000000D+00 0.132239654997D-06 0.000000000000D+00  6 21 1 25 -24 2 21 4 0.16023696D-01 0.17887434D+00 0.91188459D+05 0.91188459D+05 0.91188459D+05 0.11672697D+01  1  2 12  1  6  1       21 0.209889688435D-01 0.100000000000D+01
-.393242852927D-04 0.000000000000D+00 0.000000000000D+00 0.132475767321D-06 0.000000000000D+00  6 21 1 25 -24 2 21 4 0.15461363D-01 0.17887434D+00 0.88864209D+05 0.88864209D+05 0.88864209D+05 0.11683113D+01  1  2  4  1  6  1       21 -.360648881876D-01 0.100000000000D+01
-.102352068290D-02 0.000000000000D+00 -.113112565463D-03 0.132475767321D-06 0.000000000000D+00  6 21 1 25 -24 2 21 4 0.15948097D-01 0.17887434D+00 0.88864209D+05 0.88864209D+05 0.88864209D+05 0.11683113D+01  1  2  5  1  6  1       21 -.886485583358D+00 0.100000000000D+01
0.102507812670D-02 0.000000000000D+00 0.112895523637D-03 0.132475767321D-06 0.000000000000D+00  6 21 1 25 -24 2 21 4 0.15461363D-01 0.17887434D+00 0.88864209D+05 0.88864209D+05 0.88864209D+05 0.11683113D+01  1  2  6  1  6  1       21 0.940114429239D+00 0.100000000000D+01
0.148703616942D-05 0.000000000000D+00 0.000000000000D+00 0.132475767321D-06 0.247890373121D-07  6 21 1 25 -24 2 21 4 0.15871572D-01 0.17978873D+00 0.91188459D+05 0.91188459D+05 0.91188459D+05 0.11672697D+01  1  2 11  1  6  1       21 0.128094764808D-02 0.100000000000D+01
0.124185753594D-05 0.000000000000D+00 0.000000000000D+00 0.132239654997D-06 0.000000000000D+00  6 -1 1 25 -24 2 -1 4 0.15910449D-01 0.17887434D+00 0.91188459D+05 0.91188459D+05 0.91188459D+05 0.11672697D+01  1  2 12  4  6  1       21 0.821549083496D-04 0.100000000000D+01
0.124250288548D-05 0.000000000000D+00 0.000000000000D+00 0.132239654997D-06 0.000000000000D+00  6 -1 1 25 -24 2 -1 4 0.16023696D-01 0.17887434D+00 0.91188459D+05 0.91188459D+05 0.91188459D+05 0.11672697D+01  1  2 12  4  6  1       21 0.812673969422D-04 0.100000000000D+01
-.660297918250D-05 0.000000000000D+00 -.815406723809D-06 0.132475767321D-06 0.000000000000D+00  6 -1 1 25 -24 2 -1 4 0.15948097D-01 0.17887434D+00 0.88864209D+05 0.88864209D+05 0.88864209D+05 0.11683113D+01  1  2  5  4  6  1       21 -.436926161251D-03 0.100000000000D+01
0.163751166422D-07 0.000000000000D+00 0.000000000000D+00 0.132475767321D-06 0.212604414970D-09  6 -1 1 25 -24 2 -1 4 0.15871572D-01 0.17978873D+00 0.91188459D+05 0.91188459D+05 0.91188459D+05 0.11672697D+01  1  2 11  4  6  1       21 0.107702874174D-05 0.100000000000D+01
0.124185753594D-05 0.000000000000D+00 0.000000000000D+00 0.132239654997D-06 0.000000000000D+00  6 1 1 25 -24 2 1 4 0.15910449D-01 0.17887434D+00 0.91188459D+05 0.91188459D+05 0.91188459D+05 0.11672697D+01  1  2 12  5  6  1       21 0.114984798727D-03 0.100000000000D+01
0.124250288548D-05 0.000000000000D+00 0.000000000000D+00 0.132239654997D-06 0.000000000000D+00  6 1 1 25 -24 2 1 4 0.16023696D-01 0.17887434D+00 0.91188459D+05 0.91188459D+05 0.91188459D+05 0.11672697D+01  1  2 12  5  6  1       21 0.113974713663D-03 0.100000000000D+01
-.660297918250D-05 0.000000000000D+00 -.815406723809D-06 0.132475767321D-06 0.000000000000D+00  6 1 1 25 -24 2 1 4 0.15948097D-01 0.17887434D+00 0.88864209D+05 0.88864209D+05 0.88864209D+05 0.11683113D+01  1  2  5  5  6  1       21 -.611950176995D-03 0.100000000000D+01
0.183294120587D-07 0.000000000000D+00 0.000000000000D+00 0.132475767321D-06 0.258422780139D-09  6 1 1 25 -24 2 1 4 0.15871572D-01 0.17978873D+00 0.91188459D+05 0.91188459D+05 0.91188459D+05 0.11672697D+01  1  2 11  5  6  1       21 0.168614153897D-05 0.100000000000D+01
0.124185753594D-05 0.000000000000D+00 0.000000000000D+00 0.132239654997D-06 0.000000000000D+00  6 -2 1 25 -24 2 -2 4 0.15910449D-01 0.17887434D+00 0.91188459D+05 0.91188459D+05 0.91188459D+05 0.11672697D+01  1  2 12  6  6  1       21 0.765735005007D-04 0.100000000000D+01
0.124250288548D-05 0.000000000000D+00 0.000000000000D+00 0.132239654997D-06 0.000000000000D+00  6 -2 1 25 -24 2 -2 4 0.16023696D-01 0.17887434D+00 0.91188459D+05 0.91188459D+05 0.91188459D+05 0.11672697D+01  1  2 12  6  6  1       21 0.757089004928D-04 0.100000000000D+01
-.660297918250D-05 0.000000000000D+00 -.815406723809D-06 0.132475767321D-06 0.000000000000D+00  6 -2 1 25 -24 2 -2 4 0.15948097D-01 0.17887434D+00 0.88864209D+05 0.88864209D+05 0.88864209D+05 0.11683113D+01  1  2  5  6  6  1       21 -.407168959558D-03 0.100000000000D+01
0.201360591293D-07 0.000000000000D+00 0.000000000000D+00 0.132475767321D-06 0.312509810429D-09  6 -2 1 25 -24 2 -2 4 0.15871572D-01 0.17978873D+00 0.91188459D+05 0.91188459D+05 0.91188459D+05 0.11672697D+01  1  2 11  6  6  1       21 0.123462763657D-05 0.100000000000D+01
0.124185753594D-05 0.000000000000D+00 0.000000000000D+00 0.132239654997D-06 0.000000000000D+00  6 2 1 25 -24 2 2 4 0.15910449D-01 0.17887434D+00 0.91188459D+05 0.91188459D+05 0.91188459D+05 0.11672697D+01  1  2 12  7  6  1       21 0.137929011102D-03 0.100000000000D+01
0.124250288548D-05 0.000000000000D+00 0.000000000000D+00 0.132239654997D-06 0.000000000000D+00  6 2 1 25 -24 2 2 4 0.16023696D-01 0.17887434D+00 0.91188459D+05 0.91188459D+05 0.91188459D+05 0.11672697D+01  1  2 12  7  6  1       21 0.136843674284D-03 0.100000000000D+01
-.660297918250D-05 0.000000000000D+00 -.815406723809D-06 0.132475767321D-06 0.000000000000D+00  6 2 1 25 -24 2 2 4 0.15948097D-01 0.17887434D+00 0.88864209D+05 0.88864209D+05 0.88864209D+05 0.11683113D+01  1  2  5  7  6  1       21 -.734268115776D-03 0.100000000000D+01
0.161170044197D-07 0.000000000000D+00 0.000000000000D+00 0.132475767321D-06 0.104906796521D-09  6 2 1 25 -24 2 2 4 0.15871572D-01 0.17978873D+00 0.91188459D+05 0.91188459D+05 0.91188459D+05 0.11672697D+01  1  2 11  7  6  1       21 0.177789859760D-05 0.100000000000D+01
0.124185753594D-05 0.000000000000D+00 0.000000000000D+00 0.132239654997D-06 0.000000000000D+00  6 -3 1 25 -24 2 -3 4 0.15910449D-01 0.17887434D+00 0.91188459D+05 0.91188459D+05 0.91188459D+05 0.11672697D+01  1  2 12  8  6  1       21 0.523807299774D-04 0.100000000000D+01
0.124185753594D-05 0.000000000000D+00 0.000000000000D+00 0.132239654997D-06 0.000000000000D+00  6 -4 1 25 -24 2 -4 4 0.15910449D-01 0.17887434D+00 0.91188459D+05 0.91188459D+05 0.91188459D+05 0.11672697D+01  1  2 12  8  6  1       21 0.456701114749D-04 0.100000000000D+01
0.124250288548D-05 0.000000000000D+00 0.000000000000D+00 0.132239654997D-06 0.000000000000D+00  6 -3 1 25 -24 2 -3 4 0.16023696D-01 0.17887434D+00 0.91188459D+05 0.91188459D+05 0.91188459D+05 0.11672697D+01  1  2 12  8  6  1       21 0.517618562058D-04 0.100000000000D+01
0.124250288548D-05 0.000000000000D+00 0.000000000000D+00 0.132239654997D-06 0.000000000000D+00  6 -4 1 25 -24 2 -4 4 0.16023696D-01 0.17887434D+00 0.91188459D+05 0.91188459D+05 0.91188459D+05 0.11672697D+01  1  2 12  8  6  1       21 0.451192232759D-04 0.100000000000D+01
-.660297918250D-05 0.000000000000D+00 -.815406723809D-06 0.132475767321D-06 0.000000000000D+00  6 -3 1 25 -24 2 -3 4 0.15948097D-01 0.17887434D+00 0.88864209D+05 0.88864209D+05 0.88864209D+05 0.11683113D+01  1  2  5  8  6  1       21 -.278350409451D-03 0.100000000000D+01
-.660297918250D-05 0.000000000000D+00 -.815406723809D-06 0.132475767321D-06 0.000000000000D+00  6 -4 1 25 -24 2 -4 4 0.15948097D-01 0.17887434D+00 0.88864209D+05 0.88864209D+05 0.88864209D+05 0.11683113D+01  1  2  5  8  6  1       21 -.242620386317D-03 0.100000000000D+01
0.163704785132D-07 0.000000000000D+00 0.000000000000D+00 0.132475767321D-06 0.212544196363D-09  6 -3 1 25 -24 2 -3 4 0.15871572D-01 0.17978873D+00 0.91188459D+05 0.91188459D+05 0.91188459D+05 0.11672697D+01  1  2 11  8  6  1       21 0.686744865389D-06 0.100000000000D+01
0.163704785132D-07 0.000000000000D+00 0.000000000000D+00 0.132475767321D-06 0.212544196363D-09  6 -4 1 25 -24 2 -4 4 0.15871572D-01 0.17978873D+00 0.91188459D+05 0.91188459D+05 0.91188459D+05 0.11672697D+01  1  2 11  8  6  1       21 0.598816028924D-06 0.100000000000D+01
0.124185753594D-05 0.000000000000D+00 0.000000000000D+00 0.132239654997D-06 0.000000000000D+00  6 3 1 25 -24 2 3 4 0.15910449D-01 0.17887434D+00 0.91188459D+05 0.91188459D+05 0.91188459D+05 0.11672697D+01  1  2 12  9  6  1       21 0.523756162208D-04 0.100000000000D+01
0.124185753594D-05 0.000000000000D+00 0.000000000000D+00 0.132239654997D-06 0.000000000000D+00  6 4 1 25 -24 2 4 4 0.15910449D-01 0.17887434D+00 0.91188459D+05 0.91188459D+05 0.91188459D+05 0.11672697D+01  1  2 12  9  6  1       21 0.456701114749D-04 0.100000000000D+01
0.124250288548D-05 0.000000000000D+00 0.000000000000D+00 0.132239654997D-06 0.000000000000D+00  6 3 1 25 -24 2 3 4 0.16023696D-01 0.17887434D+00 0.91188459D+05 0.91188459D+05 0.91188459D+05 0.11672697D+01  1  2 12  9  6  1       21 0.517568322976D-04 0.100000000000D+01
0.124250288548D-05 0.000000000000D+00 0.000000000000D+00 0.132239654997D-06 0.000000000000D+00  6 4 1 25 -24 2 4 4 0.16023696D-01 0.17887434D+00 0.91188459D+05 0.91188459D+05 0.91188459D+05 0.11672697D+01  1  2 12  9  6  1       21 0.451192232759D-04 0.100000000000D+01
-.660297918250D-05 0.000000000000D+00 -.815406723809D-06 0.132475767321D-06 0.000000000000D+00  6 3 1 25 -24 2 3 4 0.15948097D-01 0.17887434D+00 0.88864209D+05 0.88864209D+05 0.88864209D+05 0.11683113D+01  1  2  5  9  6  1       21 -.278323200689D-03 0.100000000000D+01
-.660297918250D-05 0.000000000000D+00 -.815406723809D-06 0.132475767321D-06 0.000000000000D+00  6 4 1 25 -24 2 4 4 0.15948097D-01 0.17887434D+00 0.88864209D+05 0.88864209D+05 0.88864209D+05 0.11683113D+01  1  2  5  9  6  1       21 -.242620386317D-03 0.100000000000D+01
0.163704785132D-07 0.000000000000D+00 0.000000000000D+00 0.132475767321D-06 0.212544196363D-09  6 3 1 25 -24 2 3 4 0.15871572D-01 0.17978873D+00 0.91188459D+05 0.91188459D+05 0.91188459D+05 0.11672697D+01  1  2 11  9  6  1       21 0.686677688474D-06 0.100000000000D+01
0.163704785132D-07 0.000000000000D+00 0.000000000000D+00 0.132475767321D-06 0.212544196363D-09  6 4 1 25 -24 2 4 4 0.15871572D-01 0.17978873D+00 0.91188459D+05 0.91188459D+05 0.91188459D+05 0.11672697D+01  1  2 11  9  6  1       21 0.598816028924D-06 0.100000000000D+01
  </mgrwgt>
  </event>
  <event>
  5     66 0.45631637E-03 0.24664319E+02 0.75467711E-02 0.11951888E+00
       21 -1    0    0  501  502 0.00000000E+00 0.00000000E+00 0.71518866E+02 0.71522799E+02 0.75000000E+00 0.0000E+00 0.9000E+01
        1 -1    0    0  502    0 0.00000000E+00 0.00000000E+00 -.32568416E+03 0.32568432E+03 0.32000000E+00 0.0000E+00 0.9000E+01
       25  1    1    2    0    0 0.29068726E+02 -.46186894E+02 -.23662004E+03 0.27311585E+03 0.12500000E+03 0.0000E+00 0.9000E+01
      -24  1    1    2    0    0 -.35714664E+02 0.22435322E+02 -.31050698E+02 0.95970009E+02 0.80419002E+02 0.0000E+00 0.9000E+01
        2  1    1    2  501    0 0.66459377E+01 0.23751573E+02 0.13505449E+02 0.28121260E+02 0.32000000E+00 0.0000E+00 0.9000E+01
#aMCatNLO 1  0  0  1  1 0.30414720D+03 0.00000000D+00  -5  6  0 0.00000000D+00 0.00000000D+00 0.00000000D+00 0.00000000D+00 0.00000000D+00
  <mgrwgt>
 0.1031632692D+00    4    2    0
 0.152621669435271D+03 0.000000000000000D+00 0.000000000000000D+00 0.152621669435271D+03
 0.152621669435271D+03 0.000000000000000D+00 0.000000000000000D+00 -.152621669435271D+03
 0.158375440981839D+03 0.290686492039449D+02 -.461871701438964D+02 -.804955853059572D+02
 0.990289191080064D+02 -.357147122433228D+02 0.224351491959304D+02 0.395048639443617D+02
 0.478389787806968D+02 0.664606303937784D+01 0.237520209479660D+02 0.409907213615954D+02
 0.000000000000000D+00 -.000000000000000D+00 -.000000000000000D+00 -.000000000000000D+00
 0.174856256095743D+03 0.000000000000000D+00 0.000000000000000D+00 0.174856256095743D+03
 0.185423903313758D+03 0.000000000000000D+00 0.000000000000000D+00 -.185423903313758D+03
 0.160785433439083D+03 0.514589819886083D+02 -.331570433715281D+02 -.804955853059572D+02
 0.971422005535569D+02 -.219525721942589D+02 0.304440712259424D+02 0.395048639443617D+02
 0.513644657812146D+02 0.136055568719354D+02 0.278021209523686D+02 0.409907213615954D+02
 0.509880596356458D+02 -.431119666662849D+02 -.250891488067829D+02 -.105676472180150D+02
0.112738478077D-04 0.000000000000D+00 0.000000000000D+00 0.145115822745D-05 0.000000000000D+00  6 21 1 25 -24 2 21 2 0.11003217D-01 0.50105570D-01 0.15859123D+05 0.15859123D+05 0.15859123D+05 0.12450745D+01  1  2  2  1  6  1       21 0.102881394679D+00 0.100000000000D+01
0.848814902612D-06 0.594937293790D-06 -.227586505842D-07 0.145115822745D-05 0.000000000000D+00  6 21 1 25 -24 2 21 4 0.11003217D-01 0.50105570D-01 0.15859123D+05 0.15859123D+05 0.15859123D+05 0.12450745D+01  1  2  3  1  6  1       21 0.120079352116D-01 0.100000000000D+01
0.100535380445D-05 0.000000000000D+00 0.000000000000D+00 0.145115822745D-05 0.000000000000D+00  6 21 1 25 -24 2 21 4 0.11003217D-01 0.50105570D-01 0.15859123D+05 0.15859123D+05 0.15859123D+05 0.12450745D+01  1  2 15  1  6  1       21 0.142224450955D-01 0.100000000000D+01
-.183424360939D-05 0.000000000000D+00 0.000000000000D+00 0.145115822745D-05 0.000000000000D+00  6 21 1 25 -24 2 21 4 0.11003217D-01 0.50105570D-01 0.15859123D+05 0.15859123D+05 0.15859123D+05 0.12450745D+01  1  2  4  1  6  1       21 -.259485058005D-01 0.100000000000D+01
  </mgrwgt>
  </event>
  <event>
  5     66 0.45631637E-03 0.54796050E+02 0.75467711E-02 0.11727800E+00
       21 -1    0    0  501  502 0.00000000E+00 0.00000000E+00 0.23778660E+02 0.23790485E+02 0.75000000E+00 0.0000E+00 0.9000E+01
        1 -1    0    0  502    0 0.00000000E+00 0.00000000E+00 -.12975022E+04 0.12975022E+04 0.32000000E+00 0.0000E+00 0.9000E+01
       25  1    1    2    0    0 -.64342394E+02 -.74343906E+02 -.59137087E+03 0.61238180E+03 0.12500000E+03 0.0000E+00 0.9000E+01
      -24  1    1    2    0    0 0.10116516E+03 0.31139414E+02 -.42205479E+03 0.44249465E+03 0.80419002E+02 0.0000E+00 0.9000E+01
        2  1    1    2  501    0 -.36822765E+02 0.43204492E+02 -.26029785E+03 0.26641624E+03 0.32000000E+00 0.0000E+00 0.9000E+01
#aMCatNLO 1  0  0  1  2 0.11620273D+01 0.00000000D+00  -5  6  0 0.00000000D+00 0.00000000D+00 0.00000000D+00 0.00000000D+00 0.00000000D+00
  <mgrwgt>
 0.7445974374D-02   41    2    0
 0.175672141060165D+03 0.000000000000000D+00 0.000000000000000D+00 0.175672141060165D+03
 0.175672141060165D+03 0.000000000000000D+00 0.000000000000000D+00 -.175672141060165D+03
 0.159082215900407D+03 -.643421424046878D+02 -.743442009543990D+02 -.389614052755412D+01
 0.134010655635784D+03 0.101165371319122D+03 0.311391649474528D+02 0.169575918632853D+02
 0.582514105841394D+02 -.368232289144337D+02 0.432050360069463D+02 -.130614513357312D+02
 0.000000000000000D+00 -.000000000000000D+00 -.000000000000000D+00 0.000000000000000D+00
 0.237704142895806D+03 0.000000000000000D+00 0.000000000000000D+00 0.237704142895806D+03
 0.175678543935735D+03 0.000000000000000D+00 0.000000000000000D+00 -.175678543935735D+03
 0.158767177920768D+03 -.641022302693531D+02 -.738765250157939D+02 -.389614052755412D+01
 0.134255742959774D+03 0.101367858301248D+03 0.315338856617228D+02 0.169575918632853D+02
 0.583232828644802D+02 -.367352385511519D+02 0.433765612016958D+02 -.130614513357312D+02
 0.620364830865185D+02 -.530389480743086D+00 -.103392184762467D+01 0.620255989600714D+02
0.766145627557D-07 0.000000000000D+00 0.000000000000D+00 0.186886147766D-06 0.000000000000D+00  6 21 1 25 -24 2 21 2 0.36591680D-02 0.19961663D+00 0.30404216D+05 0.30404216D+05 0.30404216D+05 0.12142888D+01  1  2  2  1  6  1       21 0.570973222288D-03 0.100000000000D+01
-.386917229078D-08 0.404306155346D-08 -.154662728570D-09 0.186886147766D-06 0.000000000000D+00  6 21 1 25 -24 2 21 4 0.36591680D-02 0.19961663D+00 0.30404216D+05 0.30404216D+05 0.30404216D+05 0.12142888D+01  1  2  3  1  6  1       21 -.425173783271D-04 0.100000000000D+01
0.809750874126D-08 0.000000000000D+00 0.000000000000D+00 0.186886147766D-06 0.000000000000D+00  6 21 1 25 -24 2 21 4 0.36591680D-02 0.19961663D+00 0.30404216D+05 0.30404216D+05 0.30404216D+05 0.12142888D+01  1  2 15  1  6  1       21 0.889815228646D-04 0.100000000000D+01
0.731398393119D-08 0.000000000000D+00 0.000000000000D+00 0.186792539667D-06 0.000000000000D+00  6 21 1 25 -24 2 21 4 0.49513150D-02 0.19961663D+00 0.30608169D+05 0.30608169D+05 0.30608169D+05 0.12139847D+01  1  2 12  1  6  1       21 0.483305268278D-04 0.100000000000D+01
0.731241382221D-08 0.000000000000D+00 0.000000000000D+00 0.186792539667D-06 0.000000000000D+00  6 21 1 25 -24 2 21 4 0.49516162D-02 0.19961663D+00 0.30608169D+05 0.30608169D+05 0.30608169D+05 0.12139847D+01  1  2 12  1  6  1       21 0.483151830744D-04 0.100000000000D+01
-.377735264700D-03 0.000000000000D+00 0.000000000000D+00 0.186886147766D-06 0.000000000000D+00  6 21 1 25 -24 2 21 4 0.36591680D-02 0.19961663D+00 0.30404216D+05 0.30404216D+05 0.30404216D+05 0.12142888D+01  1  2  4  1  6  1       21 -.415083949479D+01 0.100000000000D+01
-.464790171999D-03 0.000000000000D+00 -.107302940328D-06 0.186886147766D-06 0.000000000000D+00  6 21 1 25 -24 2 21 4 0.49513426D-02 0.19961663D+00 0.30404216D+05 0.30404216D+05 0.30404216D+05 0.12142888D+01  1  2  5  1  6  1       21 -.307470976408D+01 0.100000000000D+01
0.379134194049D-03 0.000000000000D+00 0.899580442843D-07 0.186886147766D-06 0.000000000000D+00  6 21 1 25 -24 2 21 4 0.36591680D-02 0.19961663D+00 0.30404216D+05 0.30404216D+05 0.30404216D+05 0.12142888D+01  1  2  6  1  6  1       21 0.416621198376D+01 0.100000000000D+01
0.463976083719D-03 0.000000000000D+00 0.000000000000D+00 0.186886147766D-06 0.299509565908D-05  6 21 1 25 -24 2 21 4 0.49512654D-02 0.19962391D+00 0.30608169D+05 0.30608169D+05 0.30608169D+05 0.12139847D+01  1  2 11  1  6  1       21 0.306576284535D+01 0.100000000000D+01
0.764655499335D-09 0.000000000000D+00 0.000000000000D+00 0.186792539667D-06 0.000000000000D+00  6 -1 1 25 -24 2 -1 4 0.49513150D-02 0.19961663D+00 0.30608169D+05 0.30608169D+05 0.30608169D+05 0.12139847D+01  1  2 12  4  6  1       21 0.290626888097D-06 0.100000000000D+01
0.764685498211D-09 0.000000000000D+00 0.000000000000D+00 0.186792539667D-06 0.000000000000D+00  6 -1 1 25 -24 2 -1 4 0.49516162D-02 0.19961663D+00 0.30608169D+05 0.30608169D+05 0.30608169D+05 0.12139847D+01  1  2 12  4  6  1       21 0.290611984582D-06 0.100000000000D+01
-.485866540243D-04 0.000000000000D+00 -.102028618387D-07 0.186886147766D-06 0.000000000000D+00  6 -1 1 25 -24 2 -1 4 0.49513426D-02 0.19961663D+00 0.30404216D+05 0.30404216D+05 0.30404216D+05 0.12142888D+01  1  2  5  4  6  1       21 -.184847782623D-01 0.100000000000D+01
0.487255330631D-04 0.000000000000D+00 0.000000000000D+00 0.186886147766D-06 0.314531569438D-06  6 -1 1 25 -24 2 -1 4 0.49512654D-02 0.19962391D+00 0.30608169D+05 0.30608169D+05 0.30608169D+05 0.12139847D+01  1  2 11  4  6  1       21 0.185183005150D-01 0.100000000000D+01
0.764655499335D-09 0.000000000000D+00 0.000000000000D+00 0.186792539667D-06 0.000000000000D+00  6 1 1 25 -24 2 1 4 0.49513150D-02 0.19961663D+00 0.30608169D+05 0.30608169D+05 0.30608169D+05 0.12139847D+01  1  2 12  5  6  1       21 0.326994983683D-06 0.100000000000D+01
0.764685498211D-09 0.000000000000D+00 0.000000000000D+00 0.186792539667D-06 0.000000000000D+00  6 1 1 25 -24 2 1 4 0.49516162D-02 0.19961663D+00 0.30608169D+05 0.30608169D+05 0.30608169D+05 0.12139847D+01  1  2 12  5  6  1       21 0.326980430446D-06 0.100000000000D+01
-.485866540243D-04 0.000000000000D+00 -.102028618387D-07 0.186886147766D-06 0.000000000000D+00  6 1 1 25 -24 2 1 4 0.49513426D-02 0.19961663D+00 0.30404216D+05 0.30404216D+05 0.30404216D+05 0.12142888D+01  1  2  5  5  6  1       21 -.207981165060D-01 0.100000000000D+01
0.487334387793D-04 0.000000000000D+00 0.000000000000D+00 0.186886147766D-06 0.314583009034D-06  6 1 1 25 -24 2 1 4 0.49512654D-02 0.19962391D+00 0.30608169D+05 0.30608169D+05 0.30608169D+05 0.12139847D+01  1  2 11  5  6  1       21 0.208389772245D-01 0.100000000000D+01
0.764655499335D-09 0.000000000000D+00 0.000000000000D+00 0.186792539667D-06 0.000000000000D+00  6 -2 1 25 -24 2 -2 4 0.49513150D-02 0.19961663D+00 0.30608169D+05 0.30608169D+05 0.30608169D+05 0.12139847D+01  1  2 12  6  6  1       21 0.284217979559D-06 0.100000000000D+01
0.764685498211D-09 0.000000000000D+00 0.000000000000D+00 0.186792539667D-06 0.000000000000D+00  6 -2 1 25 -24 2 -2 4 0.49516162D-02 0.19961663D+00 0.30608169D+05 0.30608169D+05 0.30608169D+05 0.12139847D+01  1  2 12  6  6  1       21 0.284203026820D-06 0.100000000000D+01
-.485866540243D-04 0.000000000000D+00 -.102028618387D-07 0.186886147766D-06 0.000000000000D+00  6 -2 1 25 -24 2 -2 4 0.49513426D-02 0.19961663D+00 0.30404216D+05 0.30404216D+05 0.30404216D+05 0.12142888D+01  1  2  5  6  6  1       21 -.180771059247D-01 0.100000000000D+01
0.488913949612D-04 0.000000000000D+00 0.000000000000D+00 0.186886147766D-06 0.315606654913D-06  6 -2 1 25 -24 2 -2 4 0.49512654D-02 0.19962391D+00 0.30608169D+05 0.30608169D+05 0.30608169D+05 0.12139847D+01  1  2 11  6  6  1       21 0.181715849379D-01 0.100000000000D+01
0.764655499335D-09 0.000000000000D+00 0.000000000000D+00 0.186792539667D-06 0.000000000000D+00  6 2 1 25 -24 2 2 4 0.49513150D-02 0.19961663D+00 0.30608169D+05 0.30608169D+05 0.30608169D+05 0.12139847D+01  1  2 12  7  6  1       21 0.351478490424D-06 0.100000000000D+01
0.764685498211D-09 0.000000000000D+00 0.000000000000D+00 0.186792539667D-06 0.000000000000D+00  6 2 1 25 -24 2 2 4 0.49516162D-02 0.19961663D+00 0.30608169D+05 0.30608169D+05 0.30608169D+05 0.12139847D+01  1  2 12  7  6  1       21 0.351464155230D-06 0.100000000000D+01
-.485866540243D-04 0.000000000000D+00 -.102028618387D-07 0.186886147766D-06 0.000000000000D+00  6 2 1 25 -24 2 2 4 0.49513426D-02 0.19961663D+00 0.30404216D+05 0.30404216D+05 0.30404216D+05 0.12142888D+01  1  2  5  7  6  1       21 -.223554435750D-01 0.100000000000D+01
0.487132263688D-04 0.000000000000D+00 0.000000000000D+00 0.186886147766D-06 0.157226359831D-06  6 2 1 25 -24 2 2 4 0.49512654D-02 0.19962391D+00 0.30608169D+05 0.30608169D+05 0.30608169D+05 0.12139847D+01  1  2 11  7  6  1       21 0.223899762534D-01 0.100000000000D+01
0.764655499335D-09 0.000000000000D+00 0.000000000000D+00 0.186792539667D-06 0.000000000000D+00  6 -3 1 25 -24 2 -3 4 0.49513150D-02 0.19961663D+00 0.30608169D+05 0.30608169D+05 0.30608169D+05 0.12139847D+01  1  2 12  8  6  1       21 0.208980995706D-06 0.100000000000D+01
0.764655499335D-09 0.000000000000D+00 0.000000000000D+00 0.186792539667D-06 0.000000000000D+00  6 -4 1 25 -24 2 -4 4 0.49513150D-02 0.19961663D+00 0.30608169D+05 0.30608169D+05 0.30608169D+05 0.12139847D+01  1  2 12  8  6  1       21 0.187061371559D-06 0.100000000000D+01
0.764685498211D-09 0.000000000000D+00 0.000000000000D+00 0.186792539667D-06 0.000000000000D+00  6 -3 1 25 -24 2 -3 4 0.49516162D-02 0.19961663D+00 0.30608169D+05 0.30608169D+05 0.30608169D+05 0.12139847D+01  1  2 12  8  6  1       21 0.208968989771D-06 0.100000000000D+01
0.764685498211D-09 0.000000000000D+00 0.000000000000D+00 0.186792539667D-06 0.000000000000D+00  6 -4 1 25 -24 2 -4 4 0.49516162D-02 0.19961663D+00 0.30608169D+05 0.30608169D+05 0.30608169D+05 0.12139847D+01  1  2 12  8  6  1       21 0.187050335737D-06 0.100000000000D+01
-.485866540243D-04 0.000000000000D+00 -.102028618387D-07 0.186886147766D-06 0.000000000000D+00  6 -3 1 25 -24 2 -3 4 0.49513426D-02 0.19961663D+00 0.30404216D+05 0.30404216D+05 0.30404216D+05 0.12142888D+01  1  2  5  8  6  1       21 -.132900020311D-01 0.100000000000D+01
-.485866540243D-04 0.000000000000D+00 -.102028618387D-07 0.186886147766D-06 0.000000000000D+00  6 -4 1 25 -24 2 -4 4 0.49513426D-02 0.19961663D+00 0.30404216D+05 0.30404216D+05 0.30404216D+05 0.12142888D+01  1  2  5  8  6  1       21 -.118953130664D-01 0.100000000000D+01
0.487245514766D-04 0.000000000000D+00 0.000000000000D+00 0.186886147766D-06 0.314525233131D-06  6 -3 1 25 -24 2 -3 4 0.49512654D-02 0.19962391D+00 0.30608169D+05 0.30608169D+05 0.30608169D+05 0.12139847D+01  1  2 11  8  6  1       21 0.133156944904D-01 0.100000000000D+01
0.487245514766D-04 0.000000000000D+00 0.000000000000D+00 0.186886147766D-06 0.314525233131D-06  6 -4 1 25 -24 2 -4 4 0.49512654D-02 0.19962391D+00 0.30608169D+05 0.30608169D+05 0.30608169D+05 0.12139847D+01  1  2 11  8  6  1       21 0.119190393396D-01 0.100000000000D+01
0.764655499335D-09 0.000000000000D+00 0.000000000000D+00 0.186792539667D-06 0.000000000000D+00  6 3 1 25 -24 2 3 4 0.49513150D-02 0.19961663D+00 0.30608169D+05 0.30608169D+05 0.30608169D+05 0.12139847D+01  1  2 12  9  6  1       21 0.208961172556D-06 0.100000000000D+01
0.764655499335D-09 0.000000000000D+00 0.000000000000D+00 0.186792539667D-06 0.000000000000D+00  6 4 1 25 -24 2 4 4 0.49513150D-02 0.19961663D+00 0.30608169D+05 0.30608169D+05 0.30608169D+05 0.12139847D+01  1  2 12  9  6  1       21 0.187061371559D-06 0.100000000000D+01
0.764685498211D-09 0.000000000000D+00 0.000000000000D+00 0.186792539667D-06 0.000000000000D+00  6 3 1 25 -24 2 3 4 0.49516162D-02 0.19961663D+00 0.30608169D+05 0.30608169D+05 0.30608169D+05 0.12139847D+01  1  2 12  9  6  1       21 0.208949167154D-06 0.100000000000D+01
0.764685498211D-09 0.000000000000D+00 0.000000000000D+00 0.186792539667D-06 0.000000000000D+00  6 4 1 25 -24 2 4 4 0.49516162D-02 0.19961663D+00 0.30608169D+05 0.30608169D+05 0.30608169D+05 0.12139847D+01  1  2 12  9  6  1       21 0.187050335737D-06 0.100000000000D+01
-.485866540243D-04 0.000000000000D+00 -.102028618387D-07 0.186886147766D-06 0.000000000000D+00  6 3 1 25 -24 2 3 4 0.49513426D-02 0.19961663D+00 0.30404216D+05 0.30404216D+05 0.30404216D+05 0.12142888D+01  1  2  5  9  6  1       21 -.132887407093D-01 0.100000000000D+01
-.485866540243D-04 0.000000000000D+00 -.102028618387D-07 0.186886147766D-06 0.000000000000D+00  6 4 1 25 -24 2 4 4 0.49513426D-02 0.19961663D+00 0.30404216D+05 0.30404216D+05 0.30404216D+05 0.12142888D+01  1  2  5  9  6  1       21 -.118953130664D-01 0.100000000000D+01
0.487245514766D-04 0.000000000000D+00 0.000000000000D+00 0.186886147766D-06 0.314525233131D-06  6 3 1 25 -24 2 3 4 0.49512654D-02 0.19962391D+00 0.30608169D+05 0.30608169D+05 0.30608169D+05 0.12139847D+01  1  2 11  9  6  1       21 0.133144314201D-01 0.100000000000D+01
0.487245514766D-04 0.000000000000D+00 0.000000000000D+00 0.186886147766D-06 0.314525233131D-06  6 4 1 25 -24 2 4 4 0.49512654D-02 0.19962391D+00 0.30608169D+05 0.30608169D+05 0.30608169D+05 0.12139847D+01  1  2 11  9  6  1       21 0.119190393396D-01 0.100000000000D+01
  </mgrwgt>
  </event>
  <event>
  5     66 0.45631637E-03 0.11401145E+03 0.75467711E-02 0.11363741E+00
       21 -1    0    0  501  502 0.00000000E+00 0.00000000E+00 0.11367967E+03 0.11368215E+03 0.75000000E+00 0.0000E+00 0.9000E+01
        1 -1    0    0  502    0 0.00000000E+00 0.00000000E+00 -.36191554E+03 0.36191569E+03 0.32000000E+00 0.0000E+00 0.9000E+01
       25  1    1    2    0    0 0.27278162E+02 0.21703581E+02 -.52638936E+02 0.14003928E+03 0.12500000E+03 0.0000E+00 0.9000E+01
      -24  1    1    2    0    0 -.42238278E+02 0.10817476E+03 -.89874228E+02 0.16742295E+03 0.80419002E+02 0.0000E+00 0.9000E+01
        2  1    1    2  501    0 0.14960117E+02 -.12987834E+03 -.10572271E+03 0.16813560E+03 0.32000000E+00 0.0000E+00 0.9000E+01
#aMCatNLO 1  0  0  1  2 0.30414308D+02 0.00000000D+00  -5  6  0 0.00000000D+00 0.00000000D+00 0.00000000D+00 0.00000000D+00 0.00000000D+00
  <mgrwgt>
 0.5855297917D-01   32    2    0
 0.202837529204556D+03 0.000000000000000D+00 0.000000000000000D+00 0.202837529204556D+03
 0.202837529204556D+03 0.000000000000000D+00 0.000000000000000D+00 -.202837529204556D+03
 0.131966497888274D+03 0.272781473132429D+02 0.217037040549516D+02 0.239793343182832D+02
 0.141285557213272D+03 -.422382932823668D+02 0.108174890340116D+03 -.291760230166721D+01
 0.132423003307567D+03 0.149601459691239D+02 -.129878594395068D+03 -.210617320166160D+02
 0.000000000000000D+00 0.000000000000000D+00 0.000000000000000D+00 0.000000000000000D+00
 0.247303443744850D+03 0.000000000000000D+00 0.000000000000000D+00 0.247303443744850D+03
 0.208675012859000D+03 0.000000000000000D+00 0.000000000000000D+00 -.208675012859000D+03
 0.129955178896968D+03 0.227994255927876D+02 0.129817656901494D+02 0.239793343182832D+02
 0.135914089566313D+03 -.469782601845801D+02 0.989441986935489D+02 -.291760230166721D+01
 0.140944304476724D+03 0.102857100306286D+02 -.138981669935476D+03 -.210617320166160D+02
 0.491648836638450D+02 0.138931245611639D+02 0.270557055517779D+02 0.386284308858500D+02
0.403960545163D-05 0.000000000000D+00 0.000000000000D+00 0.165789726225D-06 0.000000000000D+00  6 21 1 25 -24 2 21 2 0.17489382D-01 0.55679516D-01 0.40353252D+05 0.40353252D+05 0.40353252D+05 0.12016127D+01  1  2  2  1  6  1       21 0.130526835483D-01 0.100000000000D+01
-.406514446813D-06 0.213175836358D-06 -.815479954493D-08 0.165789726225D-06 0.000000000000D+00  6 21 1 25 -24 2 21 4 0.17489382D-01 0.55679516D-01 0.40353252D+05 0.40353252D+05 0.40353252D+05 0.12016127D+01  1  2  3  1  6  1       21 -.189655678336D-02 0.100000000000D+01
0.407585438471D-06 0.000000000000D+00 0.000000000000D+00 0.165789726225D-06 0.000000000000D+00  6 21 1 25 -24 2 21 4 0.17489382D-01 0.55679516D-01 0.40353252D+05 0.40353252D+05 0.40353252D+05 0.12016127D+01  1  2 15  1  6  1       21 0.190155339912D-02 0.100000000000D+01
0.140080728238D-04 0.000000000000D+00 0.000000000000D+00 0.163968268428D-06 0.000000000000D+00  6 21 1 25 -24 2 21 4 0.21537114D-01 0.55679516D-01 0.46955103D+05 0.46955103D+05 0.46955103D+05 0.11949937D+01  1  2 12  1  6  1       21 0.432485028064D-01 0.100000000000D+01
0.126195369491D-04 0.000000000000D+00 0.000000000000D+00 0.163968268428D-06 0.000000000000D+00  6 21 1 25 -24 2 21 4 0.21972029D-01 0.55679516D-01 0.46955103D+05 0.46955103D+05 0.46955103D+05 0.11949937D+01  1  2 12  1  6  1       21 0.375182267036D-01 0.100000000000D+01
-.193260801371D-04 0.000000000000D+00 0.000000000000D+00 0.165789726225D-06 0.000000000000D+00  6 21 1 25 -24 2 21 4 0.17489382D-01 0.55679516D-01 0.40353252D+05 0.40353252D+05 0.40353252D+05 0.12016127D+01  1  2  4  1  6  1       21 -.901640978986D-01 0.100000000000D+01
-.421900798720D-04 0.000000000000D+00 -.673884432308D-05 0.165789726225D-06 0.000000000000D+00  6 21 1 25 -24 2 21 4 0.21851470D-01 0.55679516D-01 0.40353252D+05 0.40353252D+05 0.40353252D+05 0.12016127D+01  1  2  5  1  6  1       21 -.129922386932D+00 0.100000000000D+01
0.399021948189D-04 0.000000000000D+00 0.611478719713D-05 0.165789726225D-06 0.000000000000D+00  6 21 1 25 -24 2 21 4 0.17489382D-01 0.55679516D-01 0.40353252D+05 0.40353252D+05 0.40353252D+05 0.12016127D+01  1  2  6  1  6  1       21 0.186160120133D+00 0.100000000000D+01
0.843546876516D-06 0.000000000000D+00 0.000000000000D+00 0.163968268428D-06 0.000000000000D+00  6 -1 1 25 -24 2 -1 4 0.21537114D-01 0.55679516D-01 0.46955103D+05 0.46955103D+05 0.46955103D+05 0.11949937D+01  1  2 12  4  6  1       21 0.211195512161D-03 0.100000000000D+01
0.849426133828D-06 0.000000000000D+00 0.000000000000D+00 0.163968268428D-06 0.000000000000D+00  6 -1 1 25 -24 2 -1 4 0.21972029D-01 0.55679516D-01 0.46955103D+05 0.46955103D+05 0.46955103D+05 0.11949937D+01  1  2 12  4  6  1       21 0.205818715945D-03 0.100000000000D+01
-.237784126915D-05 0.000000000000D+00 -.440317278667D-06 0.165789726225D-06 0.000000000000D+00  6 -1 1 25 -24 2 -1 4 0.21851470D-01 0.55679516D-01 0.40353252D+05 0.40353252D+05 0.40353252D+05 0.12016127D+01  1  2  5  4  6  1       21 -.593788305038D-03 0.100000000000D+01
0.843546876516D-06 0.000000000000D+00 0.000000000000D+00 0.163968268428D-06 0.000000000000D+00  6 1 1 25 -24 2 1 4 0.21537114D-01 0.55679516D-01 0.46955103D+05 0.46955103D+05 0.46955103D+05 0.11949937D+01  1  2 12  5  6  1       21 0.325703446524D-03 0.100000000000D+01
0.849426133828D-06 0.000000000000D+00 0.000000000000D+00 0.163968268428D-06 0.000000000000D+00  6 1 1 25 -24 2 1 4 0.21972029D-01 0.55679516D-01 0.46955103D+05 0.46955103D+05 0.46955103D+05 0.11949937D+01  1  2 12  5  6  1       21 0.319677650517D-03 0.100000000000D+01
-.237784126915D-05 0.000000000000D+00 -.440317278667D-06 0.165789726225D-06 0.000000000000D+00  6 1 1 25 -24 2 1 4 0.21851470D-01 0.55679516D-01 0.40353252D+05 0.40353252D+05 0.40353252D+05 0.12016127D+01  1  2  5  5  6  1       21 -.920503440353D-03 0.100000000000D+01
0.843546876516D-06 0.000000000000D+00 0.000000000000D+00 0.163968268428D-06 0.000000000000D+00  6 -2 1 25 -24 2 -2 4 0.21537114D-01 0.55679516D-01 0.46955103D+05 0.46955103D+05 0.46955103D+05 0.11949937D+01  1  2 12  6  6  1       21 0.192045050392D-03 0.100000000000D+01
0.849426133828D-06 0.000000000000D+00 0.000000000000D+00 0.163968268428D-06 0.000000000000D+00  6 -2 1 25 -24 2 -2 4 0.21972029D-01 0.55679516D-01 0.46955103D+05 0.46955103D+05 0.46955103D+05 0.11949937D+01  1  2 12  6  6  1       21 0.186812950264D-03 0.100000000000D+01
-.237784126915D-05 0.000000000000D+00 -.440317278667D-06 0.165789726225D-06 0.000000000000D+00  6 -2 1 25 -24 2 -2 4 0.21851470D-01 0.55679516D-01 0.40353252D+05 0.40353252D+05 0.40353252D+05 0.12016127D+01  1  2  5  6  6  1       21 -.539147713000D-03 0.100000000000D+01
0.843546876516D-06 0.000000000000D+00 0.000000000000D+00 0.163968268428D-06 0.000000000000D+00  6 2 1 25 -24 2 2 4 0.21537114D-01 0.55679516D-01 0.46955103D+05 0.46955103D+05 0.46955103D+05 0.11949937D+01  1  2 12  7  6  1       21 0.407100801125D-03 0.100000000000D+01
0.849426133828D-06 0.000000000000D+00 0.000000000000D+00 0.163968268428D-06 0.000000000000D+00  6 2 1 25 -24 2 2 4 0.21972029D-01 0.55679516D-01 0.46955103D+05 0.46955103D+05 0.46955103D+05 0.11949937D+01  1  2 12  7  6  1       21 0.400744085674D-03 0.100000000000D+01
-.237784126915D-05 0.000000000000D+00 -.440317278667D-06 0.165789726225D-06 0.000000000000D+00  6 2 1 25 -24 2 2 4 0.21851470D-01 0.55679516D-01 0.40353252D+05 0.40353252D+05 0.40353252D+05 0.12016127D+01  1  2  5  7  6  1       21 -.115274665933D-02 0.100000000000D+01
0.843546876516D-06 0.000000000000D+00 0.000000000000D+00 0.163968268428D-06 0.000000000000D+00  6 -3 1 25 -24 2 -3 4 0.21537114D-01 0.55679516D-01 0.46955103D+05 0.46955103D+05 0.46955103D+05 0.11949937D+01  1  2 12  8  6  1       21 0.126977099791D-03 0.100000000000D+01
0.843546876516D-06 0.000000000000D+00 0.000000000000D+00 0.163968268428D-06 0.000000000000D+00  6 -4 1 25 -24 2 -4 4 0.21537114D-01 0.55679516D-01 0.46955103D+05 0.46955103D+05 0.46955103D+05 0.11949937D+01  1  2 12  8  6  1       21 0.108865159994D-03 0.100000000000D+01
0.849426133828D-06 0.000000000000D+00 0.000000000000D+00 0.163968268428D-06 0.000000000000D+00  6 -3 1 25 -24 2 -3 4 0.21972029D-01 0.55679516D-01 0.46955103D+05 0.46955103D+05 0.46955103D+05 0.11949937D+01  1  2 12  8  6  1       21 0.123354502462D-03 0.100000000000D+01
0.849426133828D-06 0.000000000000D+00 0.000000000000D+00 0.163968268428D-06 0.000000000000D+00  6 -4 1 25 -24 2 -4 4 0.21972029D-01 0.55679516D-01 0.46955103D+05 0.46955103D+05 0.46955103D+05 0.11949937D+01  1  2 12  8  6  1       21 0.105678725147D-03 0.100000000000D+01
-.237784126915D-05 0.000000000000D+00 -.440317278667D-06 0.165789726225D-06 0.000000000000D+00  6 -3 1 25 -24 2 -3 4 0.21851470D-01 0.55679516D-01 0.40353252D+05 0.40353252D+05 0.40353252D+05 0.12016127D+01  1  2  5  8  6  1       21 -.355055597676D-03 0.100000000000D+01
-.237784126915D-05 0.000000000000D+00 -.440317278667D-06 0.165789726225D-06 0.000000000000D+00  6 -4 1 25 -24 2 -4 4 0.21851470D-01 0.55679516D-01 0.40353252D+05 0.40353252D+05 0.40353252D+05 0.12016127D+01  1  2  5  8  6  1       21 -.303812469585D-03 0.100000000000D+01
0.843546876516D-06 0.000000000000D+00 0.000000000000D+00 0.163968268428D-06 0.000000000000D+00  6 3 1 25 -24 2 3 4 0.21537114D-01 0.55679516D-01 0.46955103D+05 0.46955103D+05 0.46955103D+05 0.11949937D+01  1  2 12  9  6  1       21 0.126968664733D-03 0.100000000000D+01
0.843546876516D-06 0.000000000000D+00 0.000000000000D+00 0.163968268428D-06 0.000000000000D+00  6 4 1 25 -24 2 4 4 0.21537114D-01 0.55679516D-01 0.46955103D+05 0.46955103D+05 0.46955103D+05 0.11949937D+01  1  2 12  9  6  1       21 0.108865159994D-03 0.100000000000D+01
0.849426133828D-06 0.000000000000D+00 0.000000000000D+00 0.163968268428D-06 0.000000000000D+00  6 3 1 25 -24 2 3 4 0.21972029D-01 0.55679516D-01 0.46955103D+05 0.46955103D+05 0.46955103D+05 0.11949937D+01  1  2 12  9  6  1       21 0.123346812686D-03 0.100000000000D+01
0.849426133828D-06 0.000000000000D+00 0.000000000000D+00 0.163968268428D-06 0.000000000000D+00  6 4 1 25 -24 2 4 4 0.21972029D-01 0.55679516D-01 0.46955103D+05 0.46955103D+05 0.46955103D+05 0.11949937D+01  1  2 12  9  6  1       21 0.105678725147D-03 0.100000000000D+01
-.237784126915D-05 0.000000000000D+00 -.440317278667D-06 0.165789726225D-06 0.000000000000D+00  6 3 1 25 -24 2 3 4 0.21851470D-01 0.55679516D-01 0.40353252D+05 0.40353252D+05 0.40353252D+05 0.12016127D+01  1  2  5  9  6  1       21 -.355032216192D-03 0.100000000000D+01
-.237784126915D-05 0.000000000000D+00 -.440317278667D-06 0.165789726225D-06 0.000000000000D+00  6 4 1 25 -24 2 4 4 0.21851470D-01 0.55679516D-01 0.40353252D+05 0.40353252D+05 0.40353252D+05 0.12016127D+01  1  2  5  9  6  1       21 -.303812469585D-03 0.100000000000D+01
  </mgrwgt>
  </event>
  <event>
  5     66 -.45631637E-03 0.21379604E+02 0.75467711E-02 0.11984960E+00
       21 -1    0    0  501  502 0.00000000E+00 0.00000000E+00 0.12421796E+03 0.12422023E+03 0.75000000E+00 0.0000E+00 0.9000E+01
        1 -1    0    0  502    0 0.00000000E+00 0.00000000E+00 -.39083587E+03 0.39083600E+03 0.32000000E+00 0.0000E+00 0.9000E+01
       25  1    1    2    0    0 -.43575519E+02 0.14008958E+02 -.30310831E+03 0.33105094E+03 0.12500000E+03 0.0000E+00 0.9000E+01
      -24  1    1    2    0    0 0.45975273E+02 -.35253414E+02 -.38270529E+02 0.10624678E+03 0.80419002E+02 0.0000E+00 0.9000E+01
        2  1    1    2  501    0 -.23997548E+01 0.21244456E+02 0.74760935E+02 0.77758508E+02 0.32000000E+00 0.0000E+00 0.9000E+01
#aMCatNLO 1  0  0  2  1 0.62568474D+02 0.00000000D+00  -5  6  0 0.00000000D+00 0.00000000D+00 0.00000000D+00 0.00000000D+00 0.00000000D+00
  <mgrwgt>
 -.2912475938D+00    7    2    0
 0.220339403961863D+03 0.000000000000000D+00 0.000000000000000D+00 0.220339403961863D+03
 0.220339403961863D+03 0.000000000000000D+00 0.000000000000000D+00 -.220339403961863D+03
 0.203540085346911D+03 -.435755155435742D+02 0.140089309324127D+02 -.153975617038123D+03
 0.101024719242852D+03 0.459752749283921D+02 -.352534274776314D+02 0.195511608367567D+02
 0.136114003333962D+03 -.239975938481788D+01 0.212444965452187D+02 0.134424456201366D+03
 0.000000000000000D+00 -.000000000000000D+00 0.000000000000000D+00 -.000000000000000D+00
 0.232190965736195D+03 0.000000000000000D+00 0.000000000000000D+00 0.232190965736195D+03
 0.324056125115097D+03 0.000000000000000D+00 0.000000000000000D+00 -.324056125115097D+03
 0.202424859941550D+03 -.379872788294121D+02 -.141173626156571D+02 -.153975617038123D+03
 0.108219379326354D+03 0.488555865597703D+02 -.497503957697507D+02 0.195511608367567D+02
 0.134454205712790D+03 0.132469815031679D+01 0.249883645622483D+01 0.134424456201366D+03
 0.111148645870598D+03 -.121930058806750D+02 0.613689219291830D+02 -.918651593789026D+02
0.368445991911D-04 0.000000000000D+00 0.000000000000D+00 0.572482244412D-05 0.000000000000D+00  6 21 1 25 -24 2 21 2 0.19110640D-01 0.60128780D-01 0.16079659D+05 0.16079659D+05 0.16079659D+05 0.12443960D+01  1  2  2  2  6  2        1 0.991934914779D-01 0.100000000000D+01
0.906706281032D-05 0.194434291712D-05 -.743786303672D-07 0.572482244412D-05 0.000000000000D+00  6 21 1 25 -24 2 21 4 0.19110640D-01 0.60128780D-01 0.16079659D+05 0.16079659D+05 0.16079659D+05 0.12443960D+01  1  2  3  2  6  2        1 0.378001176566D-01 0.100000000000D+01
0.356536457902D-05 0.000000000000D+00 0.000000000000D+00 0.572482244412D-05 0.000000000000D+00  6 21 1 25 -24 2 21 4 0.19110640D-01 0.60128780D-01 0.16079659D+05 0.16079659D+05 0.16079659D+05 0.12443960D+01  1  2 15  2  6  2        1 0.148638212170D-01 0.100000000000D+01
-.182422322680D-03 0.000000000000D+00 0.000000000000D+00 0.572482244412D-05 0.000000000000D+00  6 21 1 25 -24 2 21 4 0.19110640D-01 0.60128780D-01 0.16079659D+05 0.16079659D+05 0.16079659D+05 0.12443960D+01  1  2  4  2  6  2        1 -.760509263554D+00 0.100000000000D+01
-.197251003476D-03 0.000000000000D+00 -.478281428895D-04 0.572482244412D-05 0.000000000000D+00  6 21 1 25 -24 2 21 4 0.19110640D-01 0.91294631D-01 0.16079659D+05 0.16079659D+05 0.16079659D+05 0.12443960D+01  1  2  5  2  6  2        1 -.478658254293D+00 0.100000000000D+01
0.203139717913D-03 0.000000000000D+00 0.439406727974D-04 0.572482244412D-05 0.000000000000D+00  6 21 1 25 -24 2 21 4 0.19110640D-01 0.60128780D-01 0.16079659D+05 0.16079659D+05 0.16079659D+05 0.12443960D+01  1  2  6  2  6  2        1 0.846879016773D+00 0.100000000000D+01
-.796282717727D-05 0.000000000000D+00 -.235007678192D-05 0.572482244412D-05 0.000000000000D+00  6 21 21 25 -24 2 -1 4 0.19110640D-01 0.91294631D-01 0.16079659D+05 0.16079659D+05 0.16079659D+05 0.12443960D+01  1  2  5 10  6  2        1 -.508165230447D-01 0.100000000000D+01
  </mgrwgt>
  </event>
  <event>
  5     66 0.45631637E-03 0.41411378E+02 0.75467711E-02 0.11823720E+00
       21 -1    0    0  501  502 0.00000000E+00 0.00000000E+00 0.45349097E+02 0.45355298E+02 0.75000000E+00 0.0000E+00 0.9000E+01
        3 -1    0    0  502    0 -.00000000E+00 -.00000000E+00 -.15342875E+04 0.15342876E+04 0.50000000E+00 0.0000E+00 0.9000E+01
       25  1    1    2    0    0 -.73122284E+02 -.95871306E+02 -.77001651E+03 0.78935961E+03 0.12500000E+03 0.0000E+00 0.9000E+01
      -24  1    1    2    0    0 0.38523525E+02 0.73117215E+02 -.73635258E+03 0.74532712E+03 0.80419002E+02 0.0000E+00 0.9000E+01
        4  1    1    2  501    0 0.34598759E+02 0.22754091E+02 0.17430688E+02 0.44956136E+02 0.15500000E+01 0.0000E+00 0.9000E+01
#aMCatNLO 1  0  0  5  1 0.49299561D+01 0.00000000D+00  -5  6  0 0.00000000D+00 0.00000000D+00 0.00000000D+00 0.00000000D+00 0.00000000D+00
  <mgrwgt>
 0.3626166797D-02    6    2    0
 0.263786873240811D+03 0.000000000000000D+00 0.000000000000000D+00 0.263786873240811D+03
 0.263786873240811D+03 -.000000000000000D+00 -.000000000000000D+00 -.263786873240811D+03
 0.190304778556996D+03 -.731227281353184D+02 -.958715981690048D+02 -.777985349232015D+02
 0.153471612758649D+03 0.385231675544678D+02 0.731169800090668D+02 -.101272862921388D+03
 0.183797355165976D+03 0.345995605808506D+02 0.227546181599380D+02 0.179071397844590D+03
 0.000000000000000D+00 0.000000000000000D+00 0.000000000000000D+00 0.000000000000000D+00
 0.263786873240811D+03 0.000000000000000D+00 0.000000000000000D+00 0.263786873240811D+03
 0.263786873240811D+03 -.000000000000000D+00 -.000000000000000D+00 -.263786873240811D+03
 0.190239807408284D+03 -.730997713342460D+02 -.958565004847045D+02 -.776797210888906D+02
 0.153418854921010D+03 0.385416810839658D+02 0.731291555479305D+02 -.101177045415311D+03
 0.491617802749872D+02 0.133058725845141D+02 0.335182875050550D+01 0.472080463332055D+02
 0.134753303877340D+03 0.212522176657662D+02 0.193755161862686D+02 0.131648720170996D+03
0.411009104588D-05 0.000000000000D+00 0.000000000000D+00 0.277961317390D-05 0.000000000000D+00  6 21 3 25 -24 4 21 2 0.69772674D-02 0.23604471D+00 0.27291259D+05 0.27291259D+05 0.27291259D+05 0.12192356D+01  1  2  2  3  6  5        4 0.460671702721D-03 0.100000000000D+01
0.660385384274D-06 0.216895463358D-06 -.829708965192D-08 0.277961317390D-05 0.000000000000D+00  6 21 3 25 -24 4 21 4 0.69772674D-02 0.23604471D+00 0.27291259D+05 0.27291259D+05 0.27291259D+05 0.12192356D+01  1  2  3  3  6  5        4 0.110030423664D-03 0.100000000000D+01
0.358088820026D-06 0.000000000000D+00 0.000000000000D+00 0.277961317390D-05 0.000000000000D+00  6 21 3 25 -24 4 21 4 0.69772674D-02 0.23604471D+00 0.27291259D+05 0.27291259D+05 0.27291259D+05 0.12192356D+01  1  2 15  3  6  5        4 0.596631383962D-04 0.100000000000D+01
0.221730556860D-04 0.000000000000D+00 0.000000000000D+00 0.277826154515D-05 0.000000000000D+00  6 21 3 25 -24 4 21 4 0.69772674D-02 0.23604471D+00 0.27467458D+05 0.27467458D+05 0.27467458D+05 0.12189391D+01  1  2 12  3  6  5        4 0.369048988450D-02 0.100000000000D+01
-.618247356927D-04 0.000000000000D+00 0.000000000000D+00 0.277961317390D-05 0.000000000000D+00  6 21 3 25 -24 4 21 4 0.69772674D-02 0.23604471D+00 0.27291259D+05 0.27291259D+05 0.27291259D+05 0.12192356D+01  1  2  5  3  6  5        4 -.103009576274D-01 0.100000000000D+01
0.577160079668D-04 0.000000000000D+00 0.000000000000D+00 0.277961317390D-05 0.202834769277D-06  6 21 3 25 -24 4 21 4 0.69772674D-02 0.23604471D+00 0.27467458D+05 0.27467458D+05 0.27467458D+05 0.12189391D+01  1  2 11  3  6  5        4 0.960626927528D-02 0.100000000000D+01
  </mgrwgt>
  </event>
  <event>
  5     66 -.45631637E-03 0.31189997E+02 0.75467711E-02 0.11874228E+00
       21 -1    0    0  501  502 0.00000000E+00 0.00000000E+00 0.11301855E+02 0.11326712E+02 0.75000000E+00 0.0000E+00 0.9000E+01
        1 -1    0    0  502    0 0.00000000E+00 0.00000000E+00 -.15204934E+04 0.15204934E+04 0.32000000E+00 0.0000E+00 0.9000E+01
       25  1    1    2    0    0 -.32225485E+02 0.92982855E+01 -.87400353E+03 0.88353387E+03 0.12500000E+03 0.0000E+00 0.9000E+01
      -24  1    1    2    0    0 0.32597745E+02 -.40484962E+02 -.52963932E+03 0.53822549E+03 0.80419002E+02 0.0000E+00 0.9000E+01
        2  1    1    2  501    0 -.37226081E+00 0.31186677E+02 -.10554870E+03 0.11006079E+03 0.32000000E+00 0.0000E+00 0.9000E+01
#aMCatNLO 1  0  0  1  5 0.28211023D+02 0.00000000D+00  -5  6  0 0.00000000D+00 0.00000000D+00 0.00000000D+00 0.00000000D+00 0.00000000D+00
  <mgrwgt>
 -.3412779455D+00   12    2    0
 0.131161960479282D+03 0.000000000000000D+00 0.000000000000000D+00 0.131161960479282D+03
 0.131161960479282D+03 0.000000000000000D+00 0.000000000000000D+00 -.131161960479282D+03
 0.131045064233722D+03 -.322254771051064D+02 0.929765084750204D+01 -.205640748414919D+02
 0.958261956362665D+02 0.325977510272802D+02 -.404854262340853D+02 0.370954260756861D+01
 0.354526610885764D+02 -.372273922173812D+00 0.311877753865833D+02 0.168545322339233D+02
 0.000000000000000D+00 -.000000000000000D+00 -.000000000000000D+00 0.000000000000000D+00
 0.908248805297889D+03 0.000000000000000D+00 0.000000000000000D+00 0.908248805297889D+03
 0.135499665133947D+03 0.000000000000000D+00 0.000000000000000D+00 -.135499665133947D+03
 0.134762150000072D+03 -.259617343493194D+02 0.379334186190871D+02 -.205640748414919D+02
 0.909103971815122D+02 0.369981958529572D+02 -.203680425814219D+02 0.370954260756861D+01
 0.431103498987912D+02 0.147906217629682D+01 0.396514739530638D+02 0.168545322339233D+02
 0.774965573351460D+03 -.125155236799346D+02 -.572168499907291D+02 0.772749140163942D+03
0.633583065811D-06 0.000000000000D+00 0.000000000000D+00 0.902924147644D-06 0.000000000000D+00  6 21 1 25 -24 2 21 2 0.17406616D-02 0.23392398D+00 0.16430866D+05 0.16430866D+05 0.16430866D+05 0.12433367D+01  1  2  2  1  6  1       21 0.119129026314D-01 0.100000000000D+01
0.133907001349D-07 0.334350969603D-07 -.127902166650D-08 0.902924147644D-06 0.000000000000D+00  6 21 1 25 -24 2 21 4 0.17406616D-02 0.23392398D+00 0.16430866D+05 0.16430866D+05 0.16430866D+05 0.12433367D+01  1  2  3  1  6  1       21 0.389219696698D-03 0.100000000000D+01
0.626085852904D-07 0.000000000000D+00 0.000000000000D+00 0.902924147644D-06 0.000000000000D+00  6 21 1 25 -24 2 21 4 0.17406616D-02 0.23392398D+00 0.16430866D+05 0.16430866D+05 0.16430866D+05 0.12433367D+01  1  2 15  1  6  1       21 0.181980735375D-02 0.100000000000D+01
-.271663797521D-03 0.000000000000D+00 -.882291640720D-05 0.902924147644D-06 0.000000000000D+00  6 21 1 25 -24 2 21 4 0.12361878D-01 0.23392398D+00 0.16430866D+05 0.16430866D+05 0.16430866D+05 0.12433367D+01  1  2  5  1  6  1       21 -.293994546432D+00 0.100000000000D+01
-.114087138503D-03 0.000000000000D+00 -.378962064359D-05 0.902924147644D-06 0.000000000000D+00  6 -1 1 25 -24 2 -1 4 0.12361878D-01 0.23392398D+00 0.16430866D+05 0.16430866D+05 0.16430866D+05 0.12433367D+01  1  2  5  4  6  1       21 -.857540805316D-02 0.100000000000D+01
-.114087138503D-03 0.000000000000D+00 -.378962064359D-05 0.902924147644D-06 0.000000000000D+00  6 1 1 25 -24 2 1 4 0.12361878D-01 0.23392398D+00 0.16430866D+05 0.16430866D+05 0.16430866D+05 0.12433367D+01  1  2  5  5  6  1       21 -.112580853567D-01 0.100000000000D+01
-.114087138503D-03 0.000000000000D+00 -.378962064359D-05 0.902924147644D-06 0.000000000000D+00  6 -2 1 25 -24 2 -2 4 0.12361878D-01 0.23392398D+00 0.16430866D+05 0.16430866D+05 0.16430866D+05 0.12433367D+01  1  2  5  6  6  1       21 -.811058855451D-02 0.100000000000D+01
-.114087138503D-03 0.000000000000D+00 -.378962064359D-05 0.902924147644D-06 0.000000000000D+00  6 2 1 25 -24 2 2 4 0.12361878D-01 0.23392398D+00 0.16430866D+05 0.16430866D+05 0.16430866D+05 0.12433367D+01  1  2  5  7  6  1       21 -.130847139410D-01 0.100000000000D+01
-.114087138503D-03 0.000000000000D+00 -.378962064359D-05 0.902924147644D-06 0.000000000000D+00  6 -3 1 25 -24 2 -3 4 0.12361878D-01 0.23392398D+00 0.16430866D+05 0.16430866D+05 0.16430866D+05 0.12433367D+01  1  2  5  8  6  1       21 -.546154544290D-02 0.100000000000D+01
-.114087138503D-03 0.000000000000D+00 -.378962064359D-05 0.902924147644D-06 0.000000000000D+00  6 -4 1 25 -24 2 -4 4 0.12361878D-01 0.23392398D+00 0.16430866D+05 0.16430866D+05 0.16430866D+05 0.12433367D+01  1  2  5  8  6  1       21 -.472707748302D-02 0.100000000000D+01
-.114087138503D-03 0.000000000000D+00 -.378962064359D-05 0.902924147644D-06 0.000000000000D+00  6 3 1 25 -24 2 3 4 0.12361878D-01 0.23392398D+00 0.16430866D+05 0.16430866D+05 0.16430866D+05 0.12433367D+01  1  2  5  9  6  1       21 -.546083238595D-02 0.100000000000D+01
-.114087138503D-03 0.000000000000D+00 -.378962064359D-05 0.902924147644D-06 0.000000000000D+00  6 4 1 25 -24 2 4 4 0.12361878D-01 0.23392398D+00 0.16430866D+05 0.16430866D+05 0.16430866D+05 0.12433367D+01  1  2  5  9  6  1       21 -.472707748302D-02 0.100000000000D+01
  </mgrwgt>
  </event>
  <event>
  5     66 0.45631637E-03 0.21834548E+02 0.75467711E-02 0.12332693E+00
       21 -1    0    0  501  502 0.00000000E+00 0.00000000E+00 0.38266228E+02 0.38273577E+02 0.75000000E+00 0.0000E+00 0.9000E+01
        1 -1    0    0  502    0 0.00000000E+00 0.00000000E+00 -.51944686E+03 0.51944696E+03 0.32000000E+00 0.0000E+00 0.9000E+01
       25  1    1    2    0    0 0.50314649E+02 0.23831425E+02 -.13603384E+03 0.19295001E+03 0.12500000E+03 0.0000E+00 0.9000E+01
      -24  1    1    2    0    0 -.28634909E+02 -.21240794E+02 -.20711459E+03 0.22502178E+03 0.80419002E+02 0.0000E+00 0.9000E+01
        2  1    1    2  501    0 -.21679740E+02 -.25906316E+01 -.13803220E+03 0.13974875E+03 0.32000000E+00 0.0000E+00 0.9000E+01
#aMCatNLO 1  0  0  1  2 0.54267037D+01 0.00000000D+00  -5  6  0 0.00000000D+00 0.00000000D+00 0.00000000D+00 0.00000000D+00 0.00000000D+00
  <mgrwgt>
 0.3049250021D-01   22    2    0
 0.140994145273086D+03 0.000000000000000D+00 0.000000000000000D+00 0.140994145273086D+03
 0.140994145273086D+03 0.000000000000000D+00 0.000000000000000D+00 -.140994145273086D+03
 0.149493559275916D+03 0.503150012265334D+02 0.238314673315904D+02 0.601978910044115D+02
 0.916339011380075D+02 -.286346926087576D+02 -.212407678438165D+02 -.256600865939040D+02
 0.408608301322480D+02 -.216803086177758D+02 -.259069948777388D+01 -.345378044105075D+02
 0.000000000000000D+00 0.000000000000000D+00 -.000000000000000D+00 -.000000000000000D+00
 0.143563028284286D+03 0.000000000000000D+00 0.000000000000000D+00 0.143563028284286D+03
 0.143915620527193D+03 0.000000000000000D+00 0.000000000000000D+00 -.143915620527193D+03
 0.149181027597623D+03 0.483239129378042D+02 0.259035200712828D+02 0.601978910044115D+02
 0.917379419071017D+02 -.298571251330366D+02 -.199686270375250D+02 -.256600865939040D+02
 0.411215331147877D+02 -.222268369483318D+02 -.202194744847029D+01 -.345378044105075D+02
 0.543814619196624D+01 0.376004914356425D+01 -.391294558528751D+01 -.352592242906261D+00
0.119953040845D-05 0.000000000000D+00 0.000000000000D+00 0.265377936660D-06 0.000000000000D+00  6 21 1 25 -24 2 21 2 0.58876849D-02 0.79915475D-01 0.15207819D+05 0.15207819D+05 0.15207819D+05 0.12471419D+01  1  2  2  1  6  1       21 0.178713428339D-01 0.100000000000D+01
-.898611886598D-07 0.633009587497D-07 -.242150629464D-08 0.265377936660D-06 0.000000000000D+00  6 21 1 25 -24 2 21 4 0.58876849D-02 0.79915475D-01 0.15207819D+05 0.15207819D+05 0.15207819D+05 0.12471419D+01  1  2  3  1  6  1       21 -.208233120498D-02 0.100000000000D+01
0.120799591195D-06 0.000000000000D+00 0.000000000000D+00 0.265377936660D-06 0.000000000000D+00  6 21 1 25 -24 2 21 4 0.58876849D-02 0.79915475D-01 0.15207819D+05 0.15207819D+05 0.15207819D+05 0.12471419D+01  1  2 15  1  6  1       21 0.279925919127D-02 0.100000000000D+01
0.949673898367D-06 0.000000000000D+00 0.000000000000D+00 0.264423998826D-06 0.000000000000D+00  6 21 1 25 -24 2 21 4 0.60547824D-02 0.79915475D-01 0.15916044D+05 0.15916044D+05 0.15916044D+05 0.12448983D+01  1  2 12  1  6  1       21 0.208500314522D-01 0.100000000000D+01
-.132526947107D-05 0.000000000000D+00 0.000000000000D+00 0.265377936660D-06 0.000000000000D+00  6 21 1 25 -24 2 21 4 0.58876849D-02 0.79915475D-01 0.15207819D+05 0.15207819D+05 0.15207819D+05 0.12471419D+01  1  2  4  1  6  1       21 -.307101432306D-01 0.100000000000D+01
0.946121858461D-06 0.000000000000D+00 0.000000000000D+00 0.265377936660D-06 0.136529211179D-06  6 21 1 25 -24 2 21 4 0.59949573D-02 0.81571367D-01 0.15916044D+05 0.15916044D+05 0.15916044D+05 0.12448983D+01  1  2 11  1  6  1       21 0.205630998800D-01 0.100000000000D+01
0.227757727126D-07 0.000000000000D+00 0.000000000000D+00 0.264423998826D-06 0.000000000000D+00  6 -1 1 25 -24 2 -1 4 0.60547824D-02 0.79915475D-01 0.15916044D+05 0.15916044D+05 0.15916044D+05 0.12448983D+01  1  2 12  4  6  1       21 0.296653034317D-04 0.100000000000D+01
0.307285391386D-07 0.000000000000D+00 0.000000000000D+00 0.264423998826D-06 0.619405281035D-09  6 -1 1 25 -24 2 -1 4 0.59949573D-02 0.81571367D-01 0.15916044D+05 0.15916044D+05 0.15916044D+05 0.12448983D+01  1  2 11  4  6  1       21 0.395393841950D-04 0.100000000000D+01
0.227757727126D-07 0.000000000000D+00 0.000000000000D+00 0.264423998826D-06 0.000000000000D+00  6 1 1 25 -24 2 1 4 0.60547824D-02 0.79915475D-01 0.15916044D+05 0.15916044D+05 0.15916044D+05 0.12448983D+01  1  2 12  5  6  1       21 0.342405913231D-04 0.100000000000D+01
0.739697906333D-07 0.000000000000D+00 0.000000000000D+00 0.264423998826D-06 0.329605716164D-08  6 1 1 25 -24 2 1 4 0.59949573D-02 0.81571367D-01 0.15916044D+05 0.15916044D+05 0.15916044D+05 0.12448983D+01  1  2 11  5  6  1       21 0.109714712052D-03 0.100000000000D+01
0.227757727126D-07 0.000000000000D+00 0.000000000000D+00 0.264423998826D-06 0.000000000000D+00  6 -2 1 25 -24 2 -2 4 0.60547824D-02 0.79915475D-01 0.15916044D+05 0.15916044D+05 0.15916044D+05 0.12448983D+01  1  2 12  6  6  1       21 0.288622819574D-04 0.100000000000D+01
0.552976016048D-06 0.000000000000D+00 0.000000000000D+00 0.264423998826D-06 0.660668399502D-07  6 -2 1 25 -24 2 -2 4 0.59949573D-02 0.81571367D-01 0.15916044D+05 0.15916044D+05 0.15916044D+05 0.12448983D+01  1  2 11  6  6  1       21 0.692454892601D-03 0.100000000000D+01
0.227757727126D-07 0.000000000000D+00 0.000000000000D+00 0.264423998826D-06 0.000000000000D+00  6 2 1 25 -24 2 2 4 0.60547824D-02 0.79915475D-01 0.15916044D+05 0.15916044D+05 0.15916044D+05 0.12448983D+01  1  2 12  7  6  1       21 0.373068384012D-04 0.100000000000D+01
0.302804397337D-07 0.000000000000D+00 0.000000000000D+00 0.264423998826D-06 0.311648476343D-09  6 2 1 25 -24 2 2 4 0.59949573D-02 0.81571367D-01 0.15916044D+05 0.15916044D+05 0.15916044D+05 0.12448983D+01  1  2 11  7  6  1       21 0.489008857381D-04 0.100000000000D+01
0.227757727126D-07 0.000000000000D+00 0.000000000000D+00 0.264423998826D-06 0.000000000000D+00  6 -3 1 25 -24 2 -3 4 0.60547824D-02 0.79915475D-01 0.15916044D+05 0.15916044D+05 0.15916044D+05 0.12448983D+01  1  2 12  8  6  1       21 0.205857830648D-04 0.100000000000D+01
0.227757727126D-07 0.000000000000D+00 0.000000000000D+00 0.264423998826D-06 0.000000000000D+00  6 -4 1 25 -24 2 -4 4 0.60547824D-02 0.79915475D-01 0.15916044D+05 0.15916044D+05 0.15916044D+05 0.12448983D+01  1  2 12  8  6  1       21 0.182104262217D-04 0.100000000000D+01
0.305580462637D-07 0.000000000000D+00 0.000000000000D+00 0.264423998826D-06 0.615968600020D-09  6 -3 1 25 -24 2 -3 4 0.59949573D-02 0.81571367D-01 0.15916044D+05 0.15916044D+05 0.15916044D+05 0.12448983D+01  1  2 11  8  6  1       21 0.273148945959D-04 0.100000000000D+01
0.305580462637D-07 0.000000000000D+00 0.000000000000D+00 0.264423998826D-06 0.615968600020D-09  6 -4 1 25 -24 2 -4 4 0.59949573D-02 0.81571367D-01 0.15916044D+05 0.15916044D+05 0.15916044D+05 0.12448983D+01  1  2 11  8  6  1       21 0.241697269057D-04 0.100000000000D+01
0.227757727126D-07 0.000000000000D+00 0.000000000000D+00 0.264423998826D-06 0.000000000000D+00  6 3 1 25 -24 2 3 4 0.60547824D-02 0.79915475D-01 0.15916044D+05 0.15916044D+05 0.15916044D+05 0.12448983D+01  1  2 12  9  6  1       21 0.205835144641D-04 0.100000000000D+01
0.227757727126D-07 0.000000000000D+00 0.000000000000D+00 0.264423998826D-06 0.000000000000D+00  6 4 1 25 -24 2 4 4 0.60547824D-02 0.79915475D-01 0.15916044D+05 0.15916044D+05 0.15916044D+05 0.12448983D+01  1  2 12  9  6  1       21 0.182104262217D-04 0.100000000000D+01
0.305580462637D-07 0.000000000000D+00 0.000000000000D+00 0.264423998826D-06 0.615968600020D-09  6 3 1 25 -24 2 3 4 0.59949573D-02 0.81571367D-01 0.15916044D+05 0.15916044D+05 0.15916044D+05 0.12448983D+01  1  2 11  9  6  1       21 0.273118976410D-04 0.100000000000D+01
0.305580462637D-07 0.000000000000D+00 0.000000000000D+00 0.264423998826D-06 0.615968600020D-09  6 4 1 25 -24 2 4 4 0.59949573D-02 0.81571367D-01 0.15916044D+05 0.15916044D+05 0.15916044D+05 0.12448983D+01  1  2 11  9  6  1       21 0.241697269057D-04 0.100000000000D+01
  </mgrwgt>
  </event>
  <event>
  5     66 0.45631637E-03 0.31003389E+02 0.75467711E-02 0.12320789E+00
       21 -1    0    0  501  502 0.00000000E+00 0.00000000E+00 0.73698233E+01 0.74078874E+01 0.75000000E+00 0.0000E+00 0.9000E+01
        1 -1    0    0  502    0 0.00000000E+00 0.00000000E+00 -.25069646E+04 0.25069647E+04 0.32000000E+00 0.0000E+00 0.9000E+01
       25  1    1    2    0    0 -.29800694E+02 0.24268666E+02 -.13033583E+04 0.13099027E+04 0.12500000E+03 0.0000E+00 0.9000E+01
      -24  1    1    2    0    0 0.35886100E+02 0.61310693E+01 -.10959657E+04 0.10995151E+04 0.80419002E+02 0.0000E+00 0.9000E+01
        2  1    1    2  501    0 -.60854060E+01 -.30399735E+02 -.10027081E+03 0.10495482E+03 0.32000000E+00 0.0000E+00 0.9000E+01
#aMCatNLO 1  0  0  1  2 0.35657388D+01 0.00000000D+00  -5  6  0 0.00000000D+00 0.00000000D+00 0.00000000D+00 0.00000000D+00 0.00000000D+00
  <mgrwgt>
 0.2600018344D+00   32    2    0
 0.136102039781865D+03 0.000000000000000D+00 0.000000000000000D+00 0.136102039781865D+03
 0.136102039781865D+03 0.000000000000000D+00 0.000000000000000D+00 -.136102039781865D+03
 0.131208871454457D+03 -.298006309289624D+02 0.242689818640470D+02 -.106633420591548D+02
 0.922851932538871D+02 0.358861447374193D+02 0.613129168142263D+01 -.269059996606531D+02
 0.487100148553867D+02 -.608551380845688D+01 -.304002735454696D+02 0.375693417198079D+02
 0.000000000000000D+00 0.000000000000000D+00 0.000000000000000D+00 0.000000000000000D+00
 0.139005830173452D+03 0.000000000000000D+00 0.000000000000000D+00 0.139005830173452D+03
 0.137212782487709D+03 0.000000000000000D+00 0.000000000000000D+00 -.137212782487709D+03
 0.130967849494336D+03 -.300717815506475D+02 0.225734067360416D+02 -.106633420591548D+02
 0.921395695301030D+02 0.356954074023041D+02 0.493856167994435D+01 -.269059996606531D+02
 0.491200142442838D+02 -.618669240705192D+01 -.310329695510995D+02 0.375693417198079D+02
 0.399117939243795D+01 0.563066555395236D+00 0.352100113511355D+01 0.179304768574229D+01
0.460549920963D-05 0.000000000000D+00 0.000000000000D+00 0.142761521210D-05 0.000000000000D+00  6 21 1 25 -24 2 21 2 0.11367485D-02 0.38568980D+00 0.15631761D+05 0.15631761D+05 0.15631761D+05 0.12457852D+01  1  2  2  1  6  1       21 0.401708891785D-01 0.100000000000D+01
0.204650934954D-06 0.243038870408D-06 -.929717600110D-08 0.142761521210D-05 0.000000000000D+00  6 21 1 25 -24 2 21 4 0.11367485D-02 0.38568980D+00 0.15631761D+05 0.15631761D+05 0.15631761D+05 0.12457852D+01  1  2  3  1  6  1       21 0.277035092351D-02 0.100000000000D+01
0.446892867204D-06 0.000000000000D+00 0.000000000000D+00 0.142761521210D-05 0.000000000000D+00  6 21 1 25 -24 2 21 4 0.11367485D-02 0.38568980D+00 0.15631761D+05 0.15631761D+05 0.15631761D+05 0.12457852D+01  1  2 15  1  6  1       21 0.604956956415D-02 0.100000000000D+01
0.330038655706D-06 0.000000000000D+00 0.000000000000D+00 0.142420734123D-05 0.000000000000D+00  6 21 1 25 -24 2 21 4 0.11655709D-02 0.38568980D+00 0.16111987D+05 0.16111987D+05 0.16111987D+05 0.12442974D+01  1  2 12  1  6  1       21 0.427181025816D-02 0.100000000000D+01
-.224394472503D-04 0.000000000000D+00 0.000000000000D+00 0.142761521210D-05 0.000000000000D+00  6 21 1 25 -24 2 21 4 0.11367485D-02 0.38568980D+00 0.15631761D+05 0.15631761D+05 0.15631761D+05 0.12457852D+01  1  2  4  1  6  1       21 -.303761834399D+00 0.100000000000D+01
-.362006813681D-03 0.000000000000D+00 -.460328323079D-04 0.142761521210D-05 0.000000000000D+00  6 21 1 25 -24 2 21 4 0.11728673D-02 0.38568980D+00 0.15631761D+05 0.15631761D+05 0.15631761D+05 0.12457852D+01  1  2  5  1  6  1       21 -.466389496114D+01 0.100000000000D+01
0.362794234807D-03 0.000000000000D+00 0.459428800499D-04 0.142761521210D-05 0.000000000000D+00  6 21 1 25 -24 2 21 4 0.11367485D-02 0.38568980D+00 0.15631761D+05 0.15631761D+05 0.15631761D+05 0.12457852D+01  1  2  6  1  6  1       21 0.491112998663D+01 0.100000000000D+01
0.213665020710D-04 0.000000000000D+00 0.000000000000D+00 0.142761521210D-05 0.112169148251D-05  6 21 1 25 -24 2 21 4 0.11610015D-02 0.38883745D+00 0.16111987D+05 0.16111987D+05 0.16111987D+05 0.12442974D+01  1  2 11  1  6  1       21 0.269864607959D+00 0.100000000000D+01
0.135340469616D-07 0.000000000000D+00 0.000000000000D+00 0.142420734123D-05 0.000000000000D+00  6 -1 1 25 -24 2 -1 4 0.11655709D-02 0.38568980D+00 0.16111987D+05 0.16111987D+05 0.16111987D+05 0.12442974D+01  1  2 12  4  6  1       21 0.770063393745D-05 0.100000000000D+01
-.229492432554D-05 0.000000000000D+00 -.335019259436D-06 0.142761521210D-05 0.000000000000D+00  6 -1 1 25 -24 2 -1 4 0.11728673D-02 0.38568980D+00 0.15631761D+05 0.15631761D+05 0.15631761D+05 0.12457852D+01  1  2  5  4  6  1       21 -.130043052189D-02 0.100000000000D+01
0.446158998196D-06 0.000000000000D+00 0.000000000000D+00 0.142761521210D-05 0.853072814534D-08  6 -1 1 25 -24 2 -1 4 0.11610015D-02 0.38883745D+00 0.16111987D+05 0.16111987D+05 0.16111987D+05 0.12442974D+01  1  2 11  4  6  1       21 0.247563723964D-03 0.100000000000D+01
0.135340469616D-07 0.000000000000D+00 0.000000000000D+00 0.142420734123D-05 0.000000000000D+00  6 1 1 25 -24 2 1 4 0.11655709D-02 0.38568980D+00 0.16111987D+05 0.16111987D+05 0.16111987D+05 0.12442974D+01  1  2 12  5  6  1       21 0.793224256948D-05 0.100000000000D+01
-.229492432554D-05 0.000000000000D+00 -.335019259436D-06 0.142761521210D-05 0.000000000000D+00  6 1 1 25 -24 2 1 4 0.11728673D-02 0.38568980D+00 0.15631761D+05 0.15631761D+05 0.15631761D+05 0.12457852D+01  1  2  5  5  6  1       21 -.133982096084D-02 0.100000000000D+01
0.403840608478D-06 0.000000000000D+00 0.000000000000D+00 0.142761521210D-05 0.956607611818D-08  6 1 1 25 -24 2 1 4 0.11610015D-02 0.38883745D+00 0.16111987D+05 0.16111987D+05 0.16111987D+05 0.12442974D+01  1  2 11  5  6  1       21 0.230795850787D-03 0.100000000000D+01
0.135340469616D-07 0.000000000000D+00 0.000000000000D+00 0.142420734123D-05 0.000000000000D+00  6 -2 1 25 -24 2 -2 4 0.11655709D-02 0.38568980D+00 0.16111987D+05 0.16111987D+05 0.16111987D+05 0.12442974D+01  1  2 12  6  6  1       21 0.766025408938D-05 0.100000000000D+01
-.229492432554D-05 0.000000000000D+00 -.335019259436D-06 0.142761521210D-05 0.000000000000D+00  6 -2 1 25 -24 2 -2 4 0.11728673D-02 0.38568980D+00 0.15631761D+05 0.15631761D+05 0.15631761D+05 0.12457852D+01  1  2  5  6  6  1       21 -.129355969688D-02 0.100000000000D+01
0.206300466590D-05 0.000000000000D+00 0.000000000000D+00 0.142761521210D-05 0.956057524072D-07  6 -2 1 25 -24 2 -2 4 0.11610015D-02 0.38883745D+00 0.16111987D+05 0.16111987D+05 0.16111987D+05 0.12442974D+01  1  2 11  6  6  1       21 0.113873812606D-02 0.100000000000D+01
0.135340469616D-07 0.000000000000D+00 0.000000000000D+00 0.142420734123D-05 0.000000000000D+00  6 2 1 25 -24 2 2 4 0.11655709D-02 0.38568980D+00 0.16111987D+05 0.16111987D+05 0.16111987D+05 0.12442974D+01  1  2 12  7  6  1       21 0.809351313460D-05 0.100000000000D+01
-.229492432554D-05 0.000000000000D+00 -.335019259436D-06 0.142761521210D-05 0.000000000000D+00  6 2 1 25 -24 2 2 4 0.11728673D-02 0.38568980D+00 0.15631761D+05 0.15631761D+05 0.15631761D+05 0.12457852D+01  1  2  5  7  6  1       21 -.136724492609D-02 0.100000000000D+01
0.445854889567D-06 0.000000000000D+00 0.000000000000D+00 0.142761521210D-05 0.461631524587D-08  6 2 1 25 -24 2 2 4 0.11610015D-02 0.38883745D+00 0.16111987D+05 0.16111987D+05 0.16111987D+05 0.12442974D+01  1  2 11  7  6  1       21 0.259968584631D-03 0.100000000000D+01
0.135340469616D-07 0.000000000000D+00 0.000000000000D+00 0.142420734123D-05 0.000000000000D+00  6 -3 1 25 -24 2 -3 4 0.11655709D-02 0.38568980D+00 0.16111987D+05 0.16111987D+05 0.16111987D+05 0.12442974D+01  1  2 12  8  6  1       21 0.617594936771D-05 0.100000000000D+01
0.135340469616D-07 0.000000000000D+00 0.000000000000D+00 0.142420734123D-05 0.000000000000D+00  6 -4 1 25 -24 2 -4 4 0.11655709D-02 0.38568980D+00 0.16111987D+05 0.16111987D+05 0.16111987D+05 0.12442974D+01  1  2 12  8  6  1       21 0.564951089603D-05 0.100000000000D+01
-.229492432554D-05 0.000000000000D+00 -.335019259436D-06 0.142761521210D-05 0.000000000000D+00  6 -3 1 25 -24 2 -3 4 0.11728673D-02 0.38568980D+00 0.15631761D+05 0.15631761D+05 0.15631761D+05 0.12457852D+01  1  2  5  8  6  1       21 -.104186564894D-02 0.100000000000D+01
-.229492432554D-05 0.000000000000D+00 -.335019259436D-06 0.142761521210D-05 0.000000000000D+00  6 -4 1 25 -24 2 -4 4 0.11728673D-02 0.38568980D+00 0.15631761D+05 0.15631761D+05 0.15631761D+05 0.12457852D+01  1  2  5  8  6  1       21 -.952685771670D-03 0.100000000000D+01
0.445493766031D-06 0.000000000000D+00 0.000000000000D+00 0.142761521210D-05 0.851800865570D-08  6 -3 1 25 -24 2 -3 4 0.11610015D-02 0.38883745D+00 0.16111987D+05 0.16111987D+05 0.16111987D+05 0.12442974D+01  1  2 11  8  6  1       21 0.198306100487D-03 0.100000000000D+01
0.445493766031D-06 0.000000000000D+00 0.000000000000D+00 0.142761521210D-05 0.851800865570D-08  6 -4 1 25 -24 2 -4 4 0.11610015D-02 0.38883745D+00 0.16111987D+05 0.16111987D+05 0.16111987D+05 0.12442974D+01  1  2 11  8  6  1       21 0.181412240988D-03 0.100000000000D+01
0.135340469616D-07 0.000000000000D+00 0.000000000000D+00 0.142420734123D-05 0.000000000000D+00  6 3 1 25 -24 2 3 4 0.11655709D-02 0.38568980D+00 0.16111987D+05 0.16111987D+05 0.16111987D+05 0.12442974D+01  1  2 12  9  6  1       21 0.617570248099D-05 0.100000000000D+01
0.135340469616D-07 0.000000000000D+00 0.000000000000D+00 0.142420734123D-05 0.000000000000D+00  6 4 1 25 -24 2 4 4 0.11655709D-02 0.38568980D+00 0.16111987D+05 0.16111987D+05 0.16111987D+05 0.12442974D+01  1  2 12  9  6  1       21 0.564951089603D-05 0.100000000000D+01
-.229492432554D-05 0.000000000000D+00 -.335019259436D-06 0.142761521210D-05 0.000000000000D+00  6 3 1 25 -24 2 3 4 0.11728673D-02 0.38568980D+00 0.15631761D+05 0.15631761D+05 0.15631761D+05 0.12457852D+01  1  2  5  9  6  1       21 -.104182370099D-02 0.100000000000D+01
-.229492432554D-05 0.000000000000D+00 -.335019259436D-06 0.142761521210D-05 0.000000000000D+00  6 4 1 25 -24 2 4 4 0.11728673D-02 0.38568980D+00 0.15631761D+05 0.15631761D+05 0.15631761D+05 0.12457852D+01  1  2  5  9  6  1       21 -.952685771670D-03 0.100000000000D+01
0.445493766031D-06 0.000000000000D+00 0.000000000000D+00 0.142761521210D-05 0.851800865570D-08  6 3 1 25 -24 2 3 4 0.11610015D-02 0.38883745D+00 0.16111987D+05 0.16111987D+05 0.16111987D+05 0.12442974D+01  1  2 11  9  6  1       21 0.198298195271D-03 0.100000000000D+01
0.445493766031D-06 0.000000000000D+00 0.000000000000D+00 0.142761521210D-05 0.851800865570D-08  6 4 1 25 -24 2 4 4 0.11610015D-02 0.38883745D+00 0.16111987D+05 0.16111987D+05 0.16111987D+05 0.12442974D+01  1  2 11  9  6  1       21 0.181412240988D-03 0.100000000000D+01
  </mgrwgt>
  </event>
  <event>
  5     66 0.45631637E-03 0.37675851E+02 0.75467711E-02 0.12242316E+00
       21 -1    0    0  501  502 0.00000000E+00 0.00000000E+00 0.19939174E+02 0.19953274E+02 0.75000000E+00 0.0000E+00 0.9000E+01
        1 -1    0    0  502    0 0.00000000E+00 0.00000000E+00 -.13834803E+04 0.13834804E+04 0.32000000E+00 0.0000E+00 0.9000E+01
       25  1    1    2    0    0 -.69066213E+01 -.10182470E+02 -.48500638E+03 0.50100656E+03 0.12500000E+03 0.0000E+00 0.9000E+01
      -24  1    1    2    0    0 0.29325313E+02 -.20097177E+02 -.85156461E+03 0.85609191E+03 0.80419002E+02 0.0000E+00 0.9000E+01
        2  1    1    2  501    0 -.22418692E+02 0.30279647E+02 -.26970156E+02 0.46335154E+02 0.32000000E+00 0.0000E+00 0.9000E+01
#aMCatNLO 1  0  0  1  2 0.14076787D+02 0.00000000D+00  -5  6  0 0.00000000D+00 0.00000000D+00 0.00000000D+00 0.00000000D+00 0.00000000D+00
  <mgrwgt>
 0.2096216791D+00   23    2    0
 0.166118556576753D+03 0.000000000000000D+00 0.000000000000000D+00 0.166118556576753D+03
 0.166118556576753D+03 0.000000000000000D+00 0.000000000000000D+00 -.166118556576753D+03
 0.125823681917993D+03 -.690656117995452D+01 -.101825507159640D+02 0.743061269241539D+01
 0.121373731379510D+03 0.293253711717302D+02 -.200972558022854D+02 -.836689286980104D+02
 0.850396998560021D+02 -.224188099917757D+02 0.302798065182494D+02 0.762383160055950D+02
 0.000000000000000D+00 0.000000000000000D+00 0.000000000000000D+00 0.000000000000000D+00
 0.207547650237530D+03 0.000000000000000D+00 0.000000000000000D+00 0.207547650237530D+03
 0.167467667790185D+03 0.000000000000000D+00 0.000000000000000D+00 -.167467667790185D+03
 0.126384383756778D+03 -.721902819635619D+01 -.155139964063454D+02 0.743061269241539D+01
 0.122259986612051D+03 0.290235271337452D+02 -.252474476977845D+02 -.836689286980104D+02
 0.838908237010189D+02 -.226281023335325D+02 0.267087711931803D+02 0.762383160055950D+02
 0.424801239578669D+02 0.823603396143544D+00 0.140526729109496D+02 0.400799824473448D+02
0.148872772493D-05 0.000000000000D+00 0.000000000000D+00 0.139666600121D-05 0.000000000000D+00  6 21 1 25 -24 2 21 2 0.30686527D-02 0.21284421D+00 0.15776185D+05 0.15776185D+05 0.15776185D+05 0.12453324D+01  1  2  2  1  6  1       21 0.137442645092D-01 0.100000000000D+01
0.774819973685D-07 0.785623204226D-07 -.300531235517D-08 0.139666600121D-05 0.000000000000D+00  6 21 1 25 -24 2 21 4 0.30686527D-02 0.21284421D+00 0.15776185D+05 0.15776185D+05 0.15776185D+05 0.12453324D+01  1  2  3  1  6  1       21 0.110937304836D-02 0.100000000000D+01
0.148057159940D-06 0.000000000000D+00 0.000000000000D+00 0.139666600121D-05 0.000000000000D+00  6 21 1 25 -24 2 21 4 0.30686527D-02 0.21284421D+00 0.15776185D+05 0.15776185D+05 0.15776185D+05 0.12453324D+01  1  2 15  1  6  1       21 0.211985530100D-02 0.100000000000D+01
0.178266114427D-04 0.000000000000D+00 0.000000000000D+00 0.138546460880D-05 0.000000000000D+00  6 21 1 25 -24 2 21 4 0.38443207D-02 0.21284421D+00 0.17476065D+05 0.17476065D+05 0.17476065D+05 0.12403285D+01  1  2 12  1  6  1       21 0.173066233353D+00 0.100000000000D+01
-.767403778169D-05 0.000000000000D+00 0.000000000000D+00 0.139666600121D-05 0.000000000000D+00  6 21 1 25 -24 2 21 4 0.30686527D-02 0.21284421D+00 0.15776185D+05 0.15776185D+05 0.15776185D+05 0.12453324D+01  1  2  4  1  6  1       21 -.109875467544D+00 0.100000000000D+01
-.391279518002D-04 0.000000000000D+00 -.246101822940D-05 0.139666600121D-05 0.000000000000D+00  6 21 1 25 -24 2 21 4 0.38637303D-02 0.21284421D+00 0.15776185D+05 0.15776185D+05 0.15776185D+05 0.12453324D+01  1  2  5  1  6  1       21 -.383156437588D+00 0.100000000000D+01
0.361281022063D-04 0.000000000000D+00 0.221817989513D-05 0.139666600121D-05 0.000000000000D+00  6 21 1 25 -24 2 21 4 0.30686527D-02 0.21284421D+00 0.15776185D+05 0.15776185D+05 0.15776185D+05 0.12453324D+01  1  2  6  1  6  1       21 0.517275550930D+00 0.100000000000D+01
0.117050426309D-05 0.000000000000D+00 0.000000000000D+00 0.138546460880D-05 0.000000000000D+00  6 -1 1 25 -24 2 -1 4 0.38443207D-02 0.21284421D+00 0.17476065D+05 0.17476065D+05 0.17476065D+05 0.12403285D+01  1  2 12  4  6  1       21 0.616164982431D-03 0.100000000000D+01
-.241737626890D-05 0.000000000000D+00 -.167616484031D-06 0.139666600121D-05 0.000000000000D+00  6 -1 1 25 -24 2 -1 4 0.38637303D-02 0.21284421D+00 0.15776185D+05 0.15776185D+05 0.15776185D+05 0.12453324D+01  1  2  5  4  6  1       21 -.128293394743D-02 0.100000000000D+01
0.117050426309D-05 0.000000000000D+00 0.000000000000D+00 0.138546460880D-05 0.000000000000D+00  6 1 1 25 -24 2 1 4 0.38443207D-02 0.21284421D+00 0.17476065D+05 0.17476065D+05 0.17476065D+05 0.12403285D+01  1  2 12  5  6  1       21 0.676537075236D-03 0.100000000000D+01
-.241737626890D-05 0.000000000000D+00 -.167616484031D-06 0.139666600121D-05 0.000000000000D+00  6 1 1 25 -24 2 1 4 0.38637303D-02 0.21284421D+00 0.15776185D+05 0.15776185D+05 0.15776185D+05 0.12453324D+01  1  2  5  5  6  1       21 -.140948954453D-02 0.100000000000D+01
0.117050426309D-05 0.000000000000D+00 0.000000000000D+00 0.138546460880D-05 0.000000000000D+00  6 -2 1 25 -24 2 -2 4 0.38443207D-02 0.21284421D+00 0.17476065D+05 0.17476065D+05 0.17476065D+05 0.12403285D+01  1  2 12  6  6  1       21 0.605420872519D-03 0.100000000000D+01
-.241737626890D-05 0.000000000000D+00 -.167616484031D-06 0.139666600121D-05 0.000000000000D+00  6 -2 1 25 -24 2 -2 4 0.38637303D-02 0.21284421D+00 0.15776185D+05 0.15776185D+05 0.15776185D+05 0.12453324D+01  1  2  5  6  6  1       21 -.126040819000D-02 0.100000000000D+01
0.117050426309D-05 0.000000000000D+00 0.000000000000D+00 0.138546460880D-05 0.000000000000D+00  6 2 1 25 -24 2 2 4 0.38443207D-02 0.21284421D+00 0.17476065D+05 0.17476065D+05 0.17476065D+05 0.12403285D+01  1  2 12  7  6  1       21 0.717285235873D-03 0.100000000000D+01
-.241737626890D-05 0.000000000000D+00 -.167616484031D-06 0.139666600121D-05 0.000000000000D+00  6 2 1 25 -24 2 2 4 0.38637303D-02 0.21284421D+00 0.15776185D+05 0.15776185D+05 0.15776185D+05 0.12453324D+01  1  2  5  7  6  1       21 -.149486909464D-02 0.100000000000D+01
0.117050426309D-05 0.000000000000D+00 0.000000000000D+00 0.138546460880D-05 0.000000000000D+00  6 -3 1 25 -24 2 -3 4 0.38443207D-02 0.21284421D+00 0.17476065D+05 0.17476065D+05 0.17476065D+05 0.12403285D+01  1  2 12  8  6  1       21 0.448795936212D-03 0.100000000000D+01
0.117050426309D-05 0.000000000000D+00 0.000000000000D+00 0.138546460880D-05 0.000000000000D+00  6 -4 1 25 -24 2 -4 4 0.38443207D-02 0.21284421D+00 0.17476065D+05 0.17476065D+05 0.17476065D+05 0.12403285D+01  1  2 12  8  6  1       21 0.402038090299D-03 0.100000000000D+01
-.241737626890D-05 0.000000000000D+00 -.167616484031D-06 0.139666600121D-05 0.000000000000D+00  6 -3 1 25 -24 2 -3 4 0.38637303D-02 0.21284421D+00 0.15776185D+05 0.15776185D+05 0.15776185D+05 0.12453324D+01  1  2  5  8  6  1       21 -.931811653052D-03 0.100000000000D+01
-.241737626890D-05 0.000000000000D+00 -.167616484031D-06 0.139666600121D-05 0.000000000000D+00  6 -4 1 25 -24 2 -4 4 0.38637303D-02 0.21284421D+00 0.15776185D+05 0.15776185D+05 0.15776185D+05 0.12453324D+01  1  2  5  8  6  1       21 -.833743914809D-03 0.100000000000D+01
0.117050426309D-05 0.000000000000D+00 0.000000000000D+00 0.138546460880D-05 0.000000000000D+00  6 3 1 25 -24 2 3 4 0.38443207D-02 0.21284421D+00 0.17476065D+05 0.17476065D+05 0.17476065D+05 0.12403285D+01  1  2 12  9  6  1       21 0.448757031381D-03 0.100000000000D+01
0.117050426309D-05 0.000000000000D+00 0.000000000000D+00 0.138546460880D-05 0.000000000000D+00  6 4 1 25 -24 2 4 4 0.38443207D-02 0.21284421D+00 0.17476065D+05 0.17476065D+05 0.17476065D+05 0.12403285D+01  1  2 12  9  6  1       21 0.402038090299D-03 0.100000000000D+01
-.241737626890D-05 0.000000000000D+00 -.167616484031D-06 0.139666600121D-05 0.000000000000D+00  6 3 1 25 -24 2 3 4 0.38637303D-02 0.21284421D+00 0.15776185D+05 0.15776185D+05 0.15776185D+05 0.12453324D+01  1  2  5  9  6  1       21 -.931729937664D-03 0.100000000000D+01
-.241737626890D-05 0.000000000000D+00 -.167616484031D-06 0.139666600121D-05 0.000000000000D+00  6 4 1 25 -24 2 4 4 0.38637303D-02 0.21284421D+00 0.15776185D+05 0.15776185D+05 0.15776185D+05 0.12453324D+01  1  2  5  9  6  1       21 -.833743914809D-03 0.100000000000D+01
  </mgrwgt>
  </event>
  <event>
  5     66 0.45631637E-03 0.26093366E+02 0.75467711E-02 0.11657377E+00
       21 -1    0    0  501  502 0.00000000E+00 0.00000000E+00 0.44354466E+02 0.44360806E+02 0.75000000E+00 0.0000E+00 0.9000E+01
        1 -1    0    0  502    0 0.00000000E+00 0.00000000E+00 -.18003297E+04 0.18003298E+04 0.32000000E+00 0.0000E+00 0.9000E+01
       25  1    1    2    0    0 -.53643251E+02 -.44737843E+02 -.82928907E+03 0.84156071E+03 0.12500000E+03 0.0000E+00 0.9000E+01
      -24  1    1    2    0    0 0.27670460E+02 0.47243248E+02 -.95768261E+03 0.96261144E+03 0.80419002E+02 0.0000E+00 0.9000E+01
        2  1    1    2  501    0 0.25972792E+02 -.25054050E+01 0.30996407E+02 0.40518423E+02 0.32000000E+00 0.0000E+00 0.9000E+01
#aMCatNLO 1  0  0  2  2 0.97642942D+02 0.00000000D+00  -5  6  0 0.00000000D+00 0.00000000D+00 0.00000000D+00 0.00000000D+00 0.00000000D+00
  <mgrwgt>
 0.6967699925D+00    4    2    0
 0.282592529609469D+03 0.000000000000000D+00 0.000000000000000D+00 0.282592529609469D+03
 0.282592529609469D+03 0.000000000000000D+00 0.000000000000000D+00 -.282592529609469D+03
 0.170223954038927D+03 -.536432588753566D+02 -.447378422899398D+02 -.920441240553615D+02
 0.166411490746579D+03 0.276704520624554D+02 0.472432487516487D+02 -.135011072983579D+03
 0.228549614433433D+03 0.259728068129012D+02 -.250540646170887D+01 0.227055197038941D+03
 0.000000000000000D+00 0.000000000000000D+00 0.000000000000000D+00 0.000000000000000D+00
 0.411274554321301D+03 0.000000000000000D+00 0.000000000000000D+00 0.411274554321301D+03
 0.305924307983639D+03 0.000000000000000D+00 0.000000000000000D+00 -.305924307983639D+03
 0.183886360800069D+03 -.826448962216626D+02 -.537298245268385D+02 -.920441240553615D+02
 0.161893597160847D+03 0.782262988473200D+00 0.389065429426432D+02 -.135011072983579D+03
 0.227777620064499D+03 -.114003969927236D+02 -.140929999738723D+02 0.227055197038941D+03
 0.143641284279524D+03 0.932630302259130D+02 0.289162815580675D+02 0.105350246337662D+03
0.379758507443D-03 0.000000000000D+00 0.000000000000D+00 0.172096246090D-04 0.000000000000D+00  6 21 1 25 -24 2 21 2 0.68242538D-02 0.27697430D+00 0.17765288D+05 0.17765288D+05 0.17765288D+05 0.12395316D+01  1  2  2  2  6  2        1 0.490966021676D+00 0.100000000000D+01
0.111970941235D-03 0.200404070169D-04 -.766623013252D-06 0.172096246090D-04 0.000000000000D+00  6 21 1 25 -24 2 21 4 0.68242538D-02 0.27697430D+00 0.17765288D+05 0.17765288D+05 0.17765288D+05 0.12395316D+01  1  2  3  2  6  2        1 0.222415211651D+00 0.100000000000D+01
0.385609962712D-04 0.000000000000D+00 0.000000000000D+00 0.172096246090D-04 0.000000000000D+00  6 21 1 25 -24 2 21 4 0.68242538D-02 0.27697430D+00 0.17765288D+05 0.17765288D+05 0.17765288D+05 0.12395316D+01  1  2 15  2  6  2        1 0.765962315986D-01 0.100000000000D+01
-.469236269356D-04 0.000000000000D+00 0.000000000000D+00 0.172096246090D-04 0.000000000000D+00  6 21 1 25 -24 2 21 4 0.68242538D-02 0.27697430D+00 0.17765288D+05 0.17765288D+05 0.17765288D+05 0.12395316D+01  1  2  4  2  6  2        1 -.932074724141D-01 0.100000000000D+01
  </mgrwgt>
  </event>
  <event>
  5     66 -.45631637E-03 0.24667696E+02 0.75467711E-02 0.12150781E+00
       21 -1    0    0  501  502 0.00000000E+00 0.00000000E+00 0.42313096E+02 0.42319743E+02 0.75000000E+00 0.0000E+00 0.9000E+01
        1 -1    0    0  502    0 -.00000000E+00 -.00000000E+00 -.50522151E+03 0.50522161E+03 0.32000000E+00 0.0000E+00 0.9000E+01
       25  1    1    2    0    0 0.67660337E+02 0.54470750E+02 -.32445330E+03 0.35838517E+03 0.12500000E+03 0.0000E+00 0.9000E+01
      -24  1    1    2    0    0 -.48807241E+02 -.38565935E+02 -.94779767E+02 0.13899604E+03 0.80419002E+02 0.0000E+00 0.9000E+01
        2  1    1    2  501    0 -.18853096E+02 -.15904815E+02 -.43675350E+02 0.50160153E+02 0.32000000E+00 0.0000E+00 0.9000E+01
#aMCatNLO 1  0  0  5  1 0.37188159D+01 0.00000000D+00  -5  6  0 0.00000000D+00 0.00000000D+00 0.00000000D+00 0.00000000D+00 0.00000000D+00
  <mgrwgt>
 -.2512760731D+00    8    2    0
 0.146216735687982D+03 0.000000000000000D+00 0.000000000000000D+00 0.146216735687982D+03
 0.146216735687982D+03 -.000000000000000D+00 -.000000000000000D+00 -.146216735687982D+03
 0.157433099135995D+03 0.676611833594464D+02 0.544714642499498D+02 -.401871192352717D+02
 0.110218598915907D+03 -.488066488624563D+02 -.385654353183021D+02 0.425622111519328D+02
 0.247817733240620D+02 -.188545344969901D+02 -.159060289316477D+02 -.237509191666106D+01
 0.000000000000000D+00 0.000000000000000D+00 -.000000000000000D+00 0.000000000000000D+00
 0.146216735687982D+03 0.000000000000000D+00 0.000000000000000D+00 0.146216735687982D+03
 0.146216735687982D+03 -.000000000000000D+00 -.000000000000000D+00 -.146216735687982D+03
 0.157082734714246D+03 0.671515479135612D+02 0.540415264995303D+02 -.402513176395420D+02
 0.110465831783155D+03 -.491642416960584D+02 -.388671071499738D+02 0.425171654442978D+02
 0.903909325473482D+01 -.662825417091675D+01 -.432734822227162D+01 -.436411627671859D+01
 0.158458116238285D+02 -.113590520465860D+02 -.108470711272848D+02 0.209826847196277D+01
0.393935872228D-05 0.000000000000D+00 0.000000000000D+00 0.490940872983D-06 0.000000000000D+00  6 21 1 25 -24 2 21 2 0.65102262D-02 0.77726906D-01 0.19398122D+05 0.19398122D+05 0.19398122D+05 0.12352897D+01  1  2  2  3  6  5        2 0.504854278425D-01 0.100000000000D+01
0.128786633410D-06 0.207885671111D-06 -.795243028073D-08 0.490940872983D-06 0.000000000000D+00  6 21 1 25 -24 2 21 4 0.65102262D-02 0.77726906D-01 0.19398122D+05 0.19398122D+05 0.19398122D+05 0.12352897D+01  1  2  3  3  6  5        2 0.251854039340D-02 0.100000000000D+01
0.378061174046D-06 0.000000000000D+00 0.000000000000D+00 0.490940872983D-06 0.000000000000D+00  6 21 1 25 -24 2 21 4 0.65102262D-02 0.77726906D-01 0.19398122D+05 0.19398122D+05 0.19398122D+05 0.12352897D+01  1  2 15  3  6  5        2 0.739333200037D-02 0.100000000000D+01
0.215016719215D-06 0.000000000000D+00 0.000000000000D+00 0.491253449790D-06 0.000000000000D+00  6 21 1 25 -24 2 21 4 0.65102262D-02 0.77726906D-01 0.19239911D+05 0.19239911D+05 0.19239911D+05 0.12356829D+01  1  2 12  3  6  5        2 0.420985172279D-02 0.100000000000D+01
-.290170319354D-04 0.000000000000D+00 0.000000000000D+00 0.490940872983D-06 0.000000000000D+00  6 21 1 25 -24 2 21 4 0.65102262D-02 0.77726906D-01 0.19398122D+05 0.19398122D+05 0.19398122D+05 0.12352897D+01  1  2  4  3  6  5        2 -.567454595953D+00 0.100000000000D+01
-.319146575317D-05 0.000000000000D+00 0.000000000000D+00 0.490940872983D-06 0.000000000000D+00  6 21 1 25 -24 2 21 4 0.65102262D-02 0.77726906D-01 0.19398122D+05 0.19398122D+05 0.19398122D+05 0.12352897D+01  1  2  5  3  6  5        2 -.624120314406D-01 0.100000000000D+01
0.955579425850D-05 0.000000000000D+00 -.000000000000D+00 0.490940872983D-06 0.000000000000D+00  6 21 1 25 -24 2 21 4 0.65102262D-02 0.77726906D-01 0.19398122D+05 0.19398122D+05 0.19398122D+05 0.12352897D+01  1  2  6  3  6  5        2 0.186872295624D+00 0.100000000000D+01
0.649215576874D-05 0.000000000000D+00 0.000000000000D+00 0.490940872983D-06 0.126613419657D-06  6 21 1 25 -24 2 21 4 0.65102262D-02 0.77726906D-01 0.19239911D+05 0.19239911D+05 0.19239911D+05 0.12356829D+01  1  2 11  3  6  5        2 0.127111106743D+00 0.100000000000D+01
  </mgrwgt>
  </event>
  <event>
  5     66 -.45631637E-03 0.34553546E+02 0.75467711E-02 0.11986830E+00
       21 -1    0    0  501  502 0.00000000E+00 0.00000000E+00 0.13312646E+03 0.13312858E+03 0.75000000E+00 0.0000E+00 0.9000E+01
        3 -1    0    0  502    0 -.00000000E+00 -.00000000E+00 -.23041954E+03 0.23042009E+03 0.50000000E+00 0.0000E+00 0.9000E+01
       25  1    1    2    0    0 -.10264239E+03 0.30489832E+01 -.13464375E+03 0.21047255E+03 0.12500000E+03 0.0000E+00 0.9000E+01
      -24  1    1    2    0    0 0.69055967E+02 -.11120464E+02 0.65712037E+01 0.10678384E+03 0.80419002E+02 0.0000E+00 0.9000E+01
        4  1    1    2  501    0 0.33586422E+02 0.80714811E+01 0.30779466E+02 0.46292273E+02 0.15500000E+01 0.0000E+00 0.9000E+01
#aMCatNLO 1  0  0  5  1 0.13992753D+01 0.00000000D+00  -5  6  0 0.00000000D+00 0.00000000D+00 0.00000000D+00 0.00000000D+00 0.00000000D+00
  <mgrwgt>
 -.1326001741D-01    8    2    0
 0.175144002934843D+03 0.000000000000000D+00 0.000000000000000D+00 0.175144002934843D+03
 0.175144002934843D+03 -.000000000000000D+00 -.000000000000000D+00 -.175144002934843D+03
 0.181050336481501D+03 -.102648903658557D+03 0.304741767376983D+01 -.812904678500666D+02
 0.112647317228570D+03 0.690519140596785D+02 -.111214384663905D+02 0.364739481761516D+02
 0.565903521596150D+02 0.335969895988786D+02 0.807402079262072D+01 0.448165196739150D+02
 0.000000000000000D+00 0.000000000000000D+00 0.000000000000000D+00 0.000000000000000D+00
 0.175144002934843D+03 0.000000000000000D+00 0.000000000000000D+00 0.175144002934843D+03
 0.175144002934843D+03 -.000000000000000D+00 -.000000000000000D+00 -.175144002934843D+03
 0.181022786328572D+03 -.102625189376660D+03 0.305311668452652D+01 -.812588343140306D+02
 0.112662388392762D+03 0.690666709072228D+02 -.111178921041918D+02 0.364936329918506D+02
 0.374227845743566D+02 0.231750445940124D+02 0.451549190085958D+01 0.290343321992690D+02
 0.191800465739961D+02 0.103834738754251D+02 0.354928351880568D+01 0.157308691229111D+02
0.518270298592D-06 0.000000000000D+00 0.000000000000D+00 0.700057719911D-06 0.000000000000D+00  6 21 3 25 -24 4 21 2 0.20481199D-01 0.35449365D-01 0.22938204D+05 0.22938204D+05 0.22938204D+05 0.12273257D+01  1  2  2  3  6  5        4 0.660117443079D-03 0.100000000000D+01
0.255389562470D-07 0.273498750521D-07 -.104623841257D-08 0.700057719911D-06 0.000000000000D+00  6 21 3 25 -24 4 21 4 0.20481199D-01 0.35449365D-01 0.22938204D+05 0.22938204D+05 0.22938204D+05 0.12273257D+01  1  2  3  3  6  5        4 0.489990544912D-04 0.100000000000D+01
0.477789571304D-07 0.000000000000D+00 0.000000000000D+00 0.700057719911D-06 0.000000000000D+00  6 21 3 25 -24 4 21 4 0.20481199D-01 0.35449365D-01 0.22938204D+05 0.22938204D+05 0.22938204D+05 0.12273257D+01  1  2 15  3  6  5        4 0.916687315378D-04 0.100000000000D+01
0.415862451570D-08 0.000000000000D+00 0.000000000000D+00 0.700048902486D-06 0.000000000000D+00  6 21 3 25 -24 4 21 4 0.20481199D-01 0.35449365D-01 0.22941974D+05 0.22941974D+05 0.22941974D+05 0.12273180D+01  1  2 12  3  6  5        4 0.797857037850D-05 0.100000000000D+01
-.735562669393D-04 0.000000000000D+00 0.000000000000D+00 0.700057719911D-06 0.000000000000D+00  6 21 3 25 -24 4 21 4 0.20481199D-01 0.35449365D-01 0.22938204D+05 0.22938204D+05 0.22938204D+05 0.12273257D+01  1  2  4  3  6  5        4 -.141125091294D+00 0.100000000000D+01
-.348281910646D-04 0.000000000000D+00 0.000000000000D+00 0.700057719911D-06 0.000000000000D+00  6 21 3 25 -24 4 21 4 0.20481199D-01 0.35449365D-01 0.22938204D+05 0.22938204D+05 0.22938204D+05 0.12273257D+01  1  2  5  3  6  5        4 -.668213851535D-01 0.100000000000D+01
0.556461203756D-04 0.000000000000D+00 -.000000000000D+00 0.700057719911D-06 0.000000000000D+00  6 21 3 25 -24 4 21 4 0.20481199D-01 0.35449365D-01 0.22938204D+05 0.22938204D+05 0.22938204D+05 0.12273257D+01  1  2  6  3  6  5        4 0.106762674956D+00 0.100000000000D+01
0.454064627947D-04 0.000000000000D+00 0.000000000000D+00 0.700057719911D-06 0.177897926037D-05  6 21 3 25 -24 4 21 4 0.20481199D-01 0.35449365D-01 0.22941974D+05 0.22941974D+05 0.22941974D+05 0.12273180D+01  1  2 11  3  6  5        4 0.871150202859D-01 0.100000000000D+01
  </mgrwgt>
  </event>
  <event>
  6     66 0.45631637E-03 0.36898881E+02 0.75467711E-02 0.11614362E+00
       21 -1    0    0  503  502 0.00000000E+00 0.00000000E+00 0.73124810E+02 0.73128656E+02 0.75000000E+00 0.0000E+00 0.9000E+01
        1 -1    0    0  502    0 0.00000000E+00 0.00000000E+00 -.14128841E+04 0.14128841E+04 0.32000000E+00 0.0000E+00 0.9000E+01
       25  1    1    2    0    0 0.70109563E+02 0.55941550E+02 -.28373770E+03 0.32276445E+03 0.12500000E+03 0.0000E+00 0.9000E+01
      -24  1    1    2    0    0 -.45003476E+02 -.75311686E+02 -.64571928E+03 0.65659559E+03 0.80419002E+02 0.0000E+00 0.9000E+01
        2  1    1    2  501    0 0.32476986E+02 0.27375718E+02 -.43953016E+03 0.44157791E+03 0.32000000E+00 0.0000E+00 0.9000E+01
       21  1    1    2  503  501 -.57583073E+02 -.80055821E+01 0.29227883E+02 0.65074813E+02 0.75000000E+00 0.0000E+00 0.9000E+01
#aMCatNLO 2  0  0  1  1 0.17582129D+03 0.00000000D+00  -5  6  0 0.00000000D+00 0.00000000D+00 0.00000000D+00 0.00000000D+00 0.00000000D+00
  <mgrwgt>
 0.1285032002D+00    1    2    0
 0.188121609379073D+03 0.000000000000000D+00 0.000000000000000D+00 0.188121609379073D+03
 0.188121609379073D+03 0.000000000000000D+00 0.000000000000000D+00 -.188121609379073D+03
 0.174647833954443D+03 0.427973537879587D+02 0.521442873493641D+02 0.101618038312861D+03
 0.138725589004272D+03 -.653478755887577D+02 -.781402092708283D+02 -.490034278531519D+02
 0.628697957994306D+02 0.225505218007991D+02 0.259959219214642D+02 -.526146104597091D+02
 0.000000000000000D+00 -.000000000000000D+00 -.000000000000000D+00 0.000000000000000D+00
 0.535889813599314D+03 0.000000000000000D+00 0.000000000000000D+00 0.535889813599314D+03
 0.192799588541064D+03 0.000000000000000D+00 0.000000000000000D+00 -.192799588541064D+03
 0.184380040310866D+03 0.701094416604413D+02 0.559413956256343D+02 0.101618038312861D+03
 0.128707975173738D+03 -.450035805397235D+02 -.753118099384067D+02 -.490034278531519D+02
 0.676203496246935D+02 0.324772115476878D+02 0.273759964133837D+02 -.526146104597091D+02
 0.347981037031079D+03 -.575830726684057D+02 -.800558210061119D+01 0.343090225058250D+03
0.985052652174D-04 0.000000000000D+00 0.000000000000D+00 0.112612747515D-06 0.262212349062D-08  6 21 1 25 -24 2 21 4 0.11250246D-01 0.21736663D+00 0.34871287D+05 0.34871287D+05 0.34871287D+05 0.12080993D+01  1  2  1  1  6  1       21 0.128503200173D+00 0.100000000000D+01
  </mgrwgt>
  </event>
  <event>
  5     66 0.45631637E-03 0.63468248E+02 0.75467711E-02 0.11441370E+00
       21 -1    0    0  501  502 0.00000000E+00 0.00000000E+00 0.68538641E+02 0.68542744E+02 0.75000000E+00 0.0000E+00 0.9000E+01
        1 -1    0    0  502    0 -.00000000E+00 -.00000000E+00 -.90304153E+03 0.90304158E+03 0.32000000E+00 0.0000E+00 0.9000E+01
       25  1    1    2    0    0 -.74214825E+00 0.47065967E+01 -.27180157E+03 0.29920528E+03 0.12500000E+03 0.0000E+00 0.9000E+01
      -24  1    1    2    0    0 -.51906357E+02 -.40151571E+02 -.59302364E+03 0.60203876E+03 0.80419002E+02 0.0000E+00 0.9000E+01
        2  1    1    2  501    0 0.52648505E+02 0.35444974E+02 0.30322322E+02 0.70340293E+02 0.32000000E+00 0.0000E+00 0.9000E+01
#aMCatNLO 1  0  0  5  1 0.10453417D+02 0.00000000D+00  -5  6  0 0.00000000D+00 0.00000000D+00 0.00000000D+00 0.00000000D+00 0.00000000D+00
  <mgrwgt>
 0.8143043732D-01    4    2    0
 0.248787580225099D+03 0.000000000000000D+00 0.000000000000000D+00 0.248787580225099D+03
 0.248787580225099D+03 -.000000000000000D+00 -.000000000000000D+00 -.248787580225099D+03
 0.128390589929285D+03 -.742167888758154D+00 0.470658344985254D+01 -.289212869949498D+02
 0.180980761661446D+03 -.519063847068355D+02 -.401515891664488D+02 -.148257874162761D+03
 0.188203808859467D+03 0.526485525955937D+02 0.354450057165962D+02 0.177179161157711D+03
 0.000000000000000D+00 0.000000000000000D+00 0.000000000000000D+00 -.000000000000000D+00
 0.248787580225099D+03 0.000000000000000D+00 0.000000000000000D+00 0.248787580225099D+03
 0.248787580225099D+03 -.000000000000000D+00 -.000000000000000D+00 -.248787580225099D+03
 0.125653439079109D+03 0.754481556763588D+01 0.102856955337393D+02 -.103294619648675D+01
 0.147749937674784D+03 -.411831022992881D+02 -.329322680740773D+02 -.112170610825810D+03
 0.117125050488035D+03 -.438045205952611D+02 0.828152982545208D+02 0.702927293698210D+02
 0.107046733208270D+03 0.774428073269133D+02 -.601687257141827D+02 0.429108276524762D+02
0.364484598007D-04 0.000000000000D+00 0.000000000000D+00 0.153589576562D-05 0.000000000000D+00  6 21 1 25 -24 2 21 2 0.10544726D-01 0.13892979D+00 0.21367886D+05 0.21367886D+05 0.21367886D+05 0.12306754D+01  1  2  2  3  6  5        2 0.877257112782D-01 0.100000000000D+01
0.194376860932D-05 0.192343806716D-05 -.735789390708D-07 0.153589576562D-05 0.000000000000D+00  6 21 1 25 -24 2 21 4 0.10544726D-01 0.13892979D+00 0.21367886D+05 0.21367886D+05 0.21367886D+05 0.12306754D+01  1  2  3  3  6  5        2 0.708564429328D-02 0.100000000000D+01
0.349681188942D-05 0.000000000000D+00 0.000000000000D+00 0.153589576562D-05 0.000000000000D+00  6 21 1 25 -24 2 21 4 0.10544726D-01 0.13892979D+00 0.21367886D+05 0.21367886D+05 0.21367886D+05 0.12306754D+01  1  2 15  3  6  5        2 0.127469726027D-01 0.100000000000D+01
-.716753085007D-05 0.000000000000D+00 0.000000000000D+00 0.153589576562D-05 0.000000000000D+00  6 21 1 25 -24 2 21 4 0.10544726D-01 0.13892979D+00 0.21367886D+05 0.21367886D+05 0.21367886D+05 0.12306754D+01  1  2  4  3  6  5        2 -.261278908514D-01 0.100000000000D+01
  </mgrwgt>
  </event>
  <event>
  6     66 -.45631637E-03 0.32368118E+02 0.75467711E-02 0.11979629E+00
       21 -1    0    0  501  503 0.00000000E+00 0.00000000E+00 0.30369774E+03 0.30369867E+03 0.75000000E+00 0.0000E+00 0.9000E+01
        1 -1    0    0  502    0 0.00000000E+00 0.00000000E+00 -.49104586E+03 0.49104597E+03 0.32000000E+00 0.0000E+00 0.9000E+01
       25  1    1    2    0    0 -.70519862E+01 0.69902628E+02 -.22281693E+03 0.26496885E+03 0.12500000E+03 0.0000E+00 0.9000E+01
      -24  1    1    2    0    0 0.49180150E+02 -.48604077E+02 -.21216282E+03 0.23719470E+03 0.80419002E+02 0.0000E+00 0.9000E+01
        2  1    1    2  501    0 -.28665875E+02 -.27613753E+02 -.44574039E+01 0.40052747E+02 0.32000000E+00 0.0000E+00 0.9000E+01
       21  1    1    2  502  503 -.13462289E+02 0.63152023E+01 0.25208904E+03 0.25252834E+03 0.75000000E+00 0.0000E+00 0.9000E+01
#aMCatNLO 2  0  0  1  5 0.14869936D+02 0.00000000D+00  -5  6  0 0.00000000D+00 0.00000000D+00 0.00000000D+00 0.00000000D+00 0.00000000D+00
  <mgrwgt>
 -.2177566265D+00    3    2    0
 0.158644554227786D+03 0.000000000000000D+00 0.000000000000000D+00 0.158644554227786D+03
 0.158644554227786D+03 0.000000000000000D+00 0.000000000000000D+00 -.158644554227786D+03
 0.145901015486738D+03 -.131996520285195D+02 0.727867612286448D+02 -.137827027912378D+02
 0.108448731018578D+03 0.445192707142748D+02 -.464174626453300D+02 -.340200676337925D+02
 0.629393619502555D+02 -.313196186857553D+02 -.263692985833149D+02 0.478027704250303D+02
 0.000000000000000D+00 -.000000000000000D+00 0.000000000000000D+00 0.000000000000000D+00
 0.938573792442488D+03 0.000000000000000D+00 0.000000000000000D+00 0.938573792442488D+03
 0.158889573139538D+03 0.000000000000000D+00 0.000000000000000D+00 -.158889573139538D+03
 0.144052385391642D+03 -.705179616509500D+01 0.699027825743479D+02 -.137827027912378D+02
 0.111380550956604D+03 0.491802911956672D+02 -.486039621134696D+02 -.340200676337925D+02
 0.622044250316317D+02 -.286662062331438D+02 -.276140227675469D+02 0.478027704250303D+02
 0.779826004202148D+03 -.134622887974283D+02 0.631520230666859D+01 0.779684219302949D+03
-.132048940874D-02 0.000000000000D+00 0.000000000000D+00 0.814239946531D-06 0.000000000000D+00  6 21 1 25 -24 2 21 4 0.46681966D-01 0.75429014D-01 0.23122603D+05 0.23122603D+05 0.23122603D+05 0.12269493D+01  1  2 13  1  6  1       21 -.685730686746D+00 0.100000000000D+01
-.132113092153D-02 0.000000000000D+00 0.000000000000D+00 0.814239946531D-06 0.000000000000D+00  6 21 1 25 -24 2 21 4 0.46889339D-01 0.75429014D-01 0.23122603D+05 0.23122603D+05 0.23122603D+05 0.12269493D+01  1  2 13  1  6  1       21 -.679851194527D+00 0.100000000000D+01
0.221875700424D-02 0.000000000000D+00 0.000000000000D+00 0.820581087905D-06 0.214519968656D-05  6 21 1 25 -24 2 21 4 0.46722755D-01 0.75545511D-01 0.23122603D+05 0.23122603D+05 0.23122603D+05 0.12269493D+01  1  2  1  1  6  1       21 0.114782525480D+01 0.100000000000D+01
  </mgrwgt>
  </event>
  <event>
  5     66 0.45631637E-03 0.98424392E+02 0.75467711E-02 0.10062270E+00
       21 -1    0    0  501  502 0.00000000E+00 0.00000000E+00 0.11194165E+03 0.11194416E+03 0.75000000E+00 0.0000E+00 0.9000E+01
        1 -1    0    0  502    0 0.00000000E+00 0.00000000E+00 -.41558699E+03 0.41558711E+03 0.32000000E+00 0.0000E+00 0.9000E+01
       25  1    1    2    0    0 -.11128608E+03 -.40036632E+02 -.17175047E+03 0.24312702E+03 0.12500000E+03 0.0000E+00 0.9000E+01
      -24  1    1    2    0    0 0.36141815E+02 -.23529620E+02 -.15810505E+03 0.18254943E+03 0.80419002E+02 0.0000E+00 0.9000E+01
        2  1    1    2  501    0 0.75144263E+02 0.63566252E+02 0.26210183E+02 0.10185482E+03 0.32000000E+00 0.0000E+00 0.9000E+01
#aMCatNLO 1  0  0  1  5 0.14478886D+03 0.00000000D+00  -5  6  0 0.00000000D+00 0.00000000D+00 0.00000000D+00 0.00000000D+00 0.00000000D+00
  <mgrwgt>
 0.4207481934D-01    3    2    0
 0.215690029699047D+03 0.000000000000000D+00 0.000000000000000D+00 0.215690029699047D+03
 0.215690029699047D+03 0.000000000000000D+00 0.000000000000000D+00 -.215690029699047D+03
 0.176424274565753D+03 -.111286154693885D+03 -.400366969770988D+02 -.388970349083933D+02
 0.111949284916872D+03 0.361417661834789D+02 -.235296612712973D+02 -.648502445378980D+02
 0.143006499915469D+03 0.751443885104060D+02 0.635663582483962D+02 0.103747279446291D+03
 0.000000000000000D+00 -.000000000000000D+00 -.000000000000000D+00 -.000000000000000D+00
 0.501924538322802D+03 0.000000000000000D+00 0.000000000000000D+00 0.501924538322802D+03
 0.604780918323532D+03 0.000000000000000D+00 0.000000000000000D+00 -.604780918323532D+03
 0.140564251226498D+03 -.744275861739480D+01 0.506451847895193D+02 -.388970349083933D+02
 0.176781459961333D+03 0.130728095530610D+03 0.590684302652797D+02 -.648502445378980D+02
 0.315300617652721D+03 0.225282843570761D+03 0.194675683875394D+03 0.103747279446291D+03
 0.474059127805782D+03 -.348568180483976D+03 -.304389298930193D+03 -.102856380000730D+03
0.134149692502D-04 0.000000000000D+00 0.000000000000D+00 0.411201312727D-06 0.000000000000D+00  6 21 1 25 -24 2 21 2 0.17221995D-01 0.63936662D-01 0.32717617D+05 0.32717617D+05 0.32717617D+05 0.12109656D+01  1  2  2  1  6  1       21 0.380808913331D-01 0.100000000000D+01
-.366060574390D-06 0.707927376537D-06 -.270809578921D-07 0.411201312727D-06 0.000000000000D+00  6 21 1 25 -24 2 21 4 0.17221995D-01 0.63936662D-01 0.32717617D+05 0.32717617D+05 0.32717617D+05 0.12109656D+01  1  2  3  1  6  1       21 -.152382103684D-02 0.100000000000D+01
0.132550367432D-05 0.000000000000D+00 0.000000000000D+00 0.411201312727D-06 0.000000000000D+00  6 21 1 25 -24 2 21 4 0.17221995D-01 0.63936662D-01 0.32717617D+05 0.32717617D+05 0.32717617D+05 0.12109656D+01  1  2 15  1  6  1       21 0.551774904112D-02 0.100000000000D+01
  </mgrwgt>
  </event>
  <event>
  5     66 0.45631637E-03 0.25063121E+02 0.75467711E-02 0.12131236E+00
       21 -1    0    0  501  502 0.00000000E+00 0.00000000E+00 0.45826506E+02 0.45832643E+02 0.75000000E+00 0.0000E+00 0.9000E+01
        1 -1    0    0  502    0 0.00000000E+00 0.00000000E+00 -.42431111E+03 0.42431123E+03 0.32000000E+00 0.0000E+00 0.9000E+01
       25  1    1    2    0    0 -.45194506E+02 0.31380986E+02 -.23199214E+03 0.26920747E+03 0.12500000E+03 0.0000E+00 0.9000E+01
      -24  1    1    2    0    0 0.69853698E+02 -.35852815E+02 -.12232385E+03 0.16611835E+03 0.80419002E+02 0.0000E+00 0.9000E+01
        2  1    1    2  501    0 -.24659192E+02 0.44718292E+01 -.24168616E+02 0.34818062E+02 0.32000000E+00 0.0000E+00 0.9000E+01
#aMCatNLO 1  0  0  2  1 0.62165113D+01 0.00000000D+00  -5  6  0 0.00000000D+00 0.00000000D+00 0.00000000D+00 0.00000000D+00 0.00000000D+00
  <mgrwgt>
 0.3468919843D+00   11    2    0
 0.139449512822189D+03 0.000000000000000D+00 0.000000000000000D+00 0.139449512822189D+03
 0.139449512822189D+03 0.000000000000000D+00 0.000000000000000D+00 -.139449512822189D+03
 0.138977563423578D+03 -.451935676331019D+02 0.313808156043192D+02 -.257400270348475D+02
 0.114026792321972D+03 0.698544683233184D+02 -.358529545789143D+02 0.192305048320750D+02
 0.258946698988267D+02 -.246609006902166D+02 0.447213897459505D+01 0.650952220277255D+01
 0.000000000000000D+00 -.000000000000000D+00 0.000000000000000D+00 -.000000000000000D+00
 0.140446694723963D+03 0.000000000000000D+00 0.000000000000000D+00 0.140446694723963D+03
 0.149521340014635D+03 0.000000000000000D+00 0.000000000000000D+00 -.149521340014635D+03
 0.137879483409023D+03 -.435280319431918D+02 0.287839085000086D+02 -.257400270348475D+02
 0.115568371097005D+03 0.712356827199896D+02 -.380065472644514D+02 0.192305048320750D+02
 0.255204439035573D+02 -.243515941075655D+02 0.398986743471590D+01 0.650952220277255D+01
 0.109997363290137D+02 -.335605666923222D+01 0.523277132972694D+01 -.907464529067185D+01
0.104450047670D-05 0.000000000000D+00 0.000000000000D+00 0.721957882599D-06 0.000000000000D+00  6 21 1 25 -24 2 21 2 0.70507130D-02 0.65279114D-01 0.18773072D+05 0.18773072D+05 0.18773072D+05 0.12368645D+01  1  2  2  2  6  2        1 0.146538027028D-01 0.100000000000D+01
0.487434800831D-07 0.551198044865D-07 -.210854552853D-08 0.721957882599D-06 0.000000000000D+00  6 21 1 25 -24 2 21 4 0.70507130D-02 0.65279114D-01 0.18773072D+05 0.18773072D+05 0.18773072D+05 0.12368645D+01  1  2  3  2  6  2        1 0.104617051899D-02 0.100000000000D+01
0.101691953395D-06 0.000000000000D+00 0.000000000000D+00 0.721957882599D-06 0.000000000000D+00  6 21 1 25 -24 2 21 4 0.70507130D-02 0.65279114D-01 0.18773072D+05 0.18773072D+05 0.18773072D+05 0.12368645D+01  1  2 15  2  6  2        1 0.218259187647D-02 0.100000000000D+01
0.249948050548D-04 0.000000000000D+00 0.000000000000D+00 0.719420011422D-06 0.000000000000D+00  6 21 1 25 -24 2 21 4 0.70507130D-02 0.70217295D-01 0.19642794D+05 0.19642794D+05 0.19642794D+05 0.12346886D+01  1  2 12  2  6  2        1 0.485579077512D+00 0.100000000000D+01
-.141317439014D-04 0.000000000000D+00 0.000000000000D+00 0.721957882599D-06 0.000000000000D+00  6 21 1 25 -24 2 21 4 0.70507130D-02 0.65279114D-01 0.18773072D+05 0.18773072D+05 0.18773072D+05 0.12368645D+01  1  2  4  2  6  2        1 -.303306489941D+00 0.100000000000D+01
-.585971531573D-04 0.000000000000D+00 -.593675040669D-05 0.721957882599D-06 0.000000000000D+00  6 21 1 25 -24 2 21 4 0.70507130D-02 0.70300829D-01 0.18773072D+05 0.18773072D+05 0.18773072D+05 0.12368645D+01  1  2  5  2  6  2        1 -.114411159142D+01 0.100000000000D+01
0.588915956620D-04 0.000000000000D+00 0.592048380916D-05 0.721957882599D-06 0.000000000000D+00  6 21 1 25 -24 2 21 4 0.70507130D-02 0.65279114D-01 0.18773072D+05 0.18773072D+05 0.18773072D+05 0.12368645D+01  1  2  6  2  6  2        1 0.126397727640D+01 0.100000000000D+01
0.243860158288D-05 0.000000000000D+00 0.000000000000D+00 0.721957882599D-06 0.156555552854D-06  6 21 1 25 -24 2 21 4 0.71011316D-02 0.69993938D-01 0.19642794D+05 0.19642794D+05 0.19642794D+05 0.12346886D+01  1  2 11  2  6  2        1 0.469916040711D-01 0.100000000000D+01
0.345357906207D-06 0.000000000000D+00 0.000000000000D+00 0.719420011422D-06 0.000000000000D+00  6 21 21 25 -24 2 -1 4 0.70507130D-02 0.70217295D-01 0.19642794D+05 0.19642794D+05 0.19642794D+05 0.12346886D+01  1  2 12 10  6  2        1 0.223518833534D-01 0.100000000000D+01
-.719936315063D-06 0.000000000000D+00 -.740672803252D-07 0.721957882599D-06 0.000000000000D+00  6 21 21 25 -24 2 -1 4 0.70507130D-02 0.70300829D-01 0.18773072D+05 0.18773072D+05 0.18773072D+05 0.12368645D+01  1  2  5 10  6  2        1 -.468348627195D-01 0.100000000000D+01
0.677604013065D-07 0.000000000000D+00 0.000000000000D+00 0.721957882599D-06 0.195854504284D-08  6 21 21 25 -24 2 -1 4 0.71011316D-02 0.69993938D-01 0.19642794D+05 0.19642794D+05 0.19642794D+05 0.12346886D+01  1  2 11 10  6  2        1 0.436252199401D-02 0.100000000000D+01
  </mgrwgt>
  </event>
  <event>
  5     66 -.45631637E-03 0.27124634E+02 0.75467711E-02 0.11789385E+00
       21 -1    0    0  501  502 0.00000000E+00 0.00000000E+00 0.20167808E+02 0.20181748E+02 0.75000000E+00 0.0000E+00 0.9000E+01
        1 -1    0    0  502    0 0.00000000E+00 0.00000000E+00 -.16555542E+04 0.16555542E+04 0.32000000E+00 0.0000E+00 0.9000E+01
       25  1    1    2    0    0 -.30756588E+02 0.11840445E+02 -.22344783E+03 0.25814743E+03 0.12500000E+03 0.0000E+00 0.9000E+01
      -24  1    1    2    0    0 0.40054843E+02 -.37321090E+02 -.98625314E+03 0.99103972E+03 0.80419002E+02 0.0000E+00 0.9000E+01
        2  1    1    2  501    0 -.92982554E+01 0.25480645E+02 -.42568544E+03 0.42654885E+03 0.32000000E+00 0.0000E+00 0.9000E+01
#aMCatNLO 1  0  0  1  1 0.75638720D+02 0.00000000D+00  -5  6  0 0.00000000D+00 0.00000000D+00 0.00000000D+00 0.00000000D+00 0.00000000D+00
  <mgrwgt>
 -.2266713080D+00   12    2    0
 0.182758324781010D+03 0.000000000000000D+00 0.000000000000000D+00 0.182758324781010D+03
 0.182758324781010D+03 0.000000000000000D+00 0.000000000000000D+00 -.182758324781010D+03
 0.183749494085358D+03 -.307564956146212D+02 0.118401927850172D+02 0.130586080379750D+03
 0.130817303805900D+03 0.400549088578995D+02 -.373212698496139D+02 -.874567213761880D+02
 0.509498516707633D+02 -.929841324327827D+01 0.254810770645967D+02 -.431293590035615D+02
 0.000000000000000D+00 0.000000000000000D+00 0.000000000000000D+00 0.000000000000000D+00
 0.690829954716148D+03 0.000000000000000D+00 0.000000000000000D+00 0.690829954716148D+03
 0.189467189816465D+03 0.000000000000000D+00 0.000000000000000D+00 -.189467189816465D+03
 0.188265904226350D+03 -.476317158467516D+02 -.223057380669900D+02 0.130586080379750D+03
 0.136840253965358D+03 0.279135290798518D+02 -.618885767437673D+02 -.874567213761880D+02
 0.481546582456652D+02 -.137939541225721D+02 0.163846370836554D+02 -.431293590035615D+02
 0.507036328095240D+03 0.335121408894719D+02 0.678096777271020D+02 0.501362764899683D+03
0.265487272315D-05 0.000000000000D+00 0.000000000000D+00 0.938464135391D-07 0.000000000000D+00  6 21 1 25 -24 2 21 2 0.31038144D-02 0.25470172D+00 0.16088622D+05 0.16088622D+05 0.16088622D+05 0.12443686D+01  1  2  2  1  6  1       21 0.160241901050D-01 0.100000000000D+01
-.190303678417D-06 0.140101482672D-06 -.535942312531D-08 0.938464135391D-07 0.000000000000D+00  6 21 1 25 -24 2 21 4 0.31038144D-02 0.25470172D+00 0.16088622D+05 0.16088622D+05 0.16088622D+05 0.12443686D+01  1  2  3  1  6  1       21 -.177859742741D-02 0.100000000000D+01
0.287831150469D-06 0.000000000000D+00 0.000000000000D+00 0.938464135391D-07 0.000000000000D+00  6 21 1 25 -24 2 21 4 0.31038144D-02 0.25470172D+00 0.16088622D+05 0.16088622D+05 0.16088622D+05 0.12443686D+01  1  2 15  1  6  1       21 0.269009904595D-02 0.100000000000D+01
-.221503063257D-03 0.000000000000D+00 -.109039414946D-04 0.938464135391D-07 0.000000000000D+00  6 21 1 25 -24 2 21 4 0.12103704D-01 0.25470172D+00 0.16088622D+05 0.16088622D+05 0.16088622D+05 0.12443686D+01  1  2  5  1  6  1       21 -.204694293304D+00 0.100000000000D+01
-.852313054950D-04 0.000000000000D+00 -.427155048827D-05 0.938464135391D-07 0.000000000000D+00  6 -1 1 25 -24 2 -1 4 0.12103704D-01 0.25470172D+00 0.16088622D+05 0.16088622D+05 0.16088622D+05 0.12443686D+01  1  2  5  4  6  1       21 -.544209779833D-02 0.100000000000D+01
-.852313054950D-04 0.000000000000D+00 -.427155048827D-05 0.938464135391D-07 0.000000000000D+00  6 1 1 25 -24 2 1 4 0.12103704D-01 0.25470172D+00 0.16088622D+05 0.16088622D+05 0.16088622D+05 0.12443686D+01  1  2  5  5  6  1       21 -.710960995088D-02 0.100000000000D+01
-.852313054950D-04 0.000000000000D+00 -.427155048827D-05 0.938464135391D-07 0.000000000000D+00  6 -2 1 25 -24 2 -2 4 0.12103704D-01 0.25470172D+00 0.16088622D+05 0.16088622D+05 0.16088622D+05 0.12443686D+01  1  2  5  6  6  1       21 -.515300779284D-02 0.100000000000D+01
-.852313054950D-04 0.000000000000D+00 -.427155048827D-05 0.938464135391D-07 0.000000000000D+00  6 2 1 25 -24 2 2 4 0.12103704D-01 0.25470172D+00 0.16088622D+05 0.16088622D+05 0.16088622D+05 0.12443686D+01  1  2  5  7  6  1       21 -.824375538562D-02 0.100000000000D+01
-.852313054950D-04 0.000000000000D+00 -.427155048827D-05 0.938464135391D-07 0.000000000000D+00  6 -3 1 25 -24 2 -3 4 0.12103704D-01 0.25470172D+00 0.16088622D+05 0.16088622D+05 0.16088622D+05 0.12443686D+01  1  2  5  8  6  1       21 -.347403823157D-02 0.100000000000D+01
-.852313054950D-04 0.000000000000D+00 -.427155048827D-05 0.938464135391D-07 0.000000000000D+00  6 -4 1 25 -24 2 -4 4 0.12103704D-01 0.25470172D+00 0.16088622D+05 0.16088622D+05 0.16088622D+05 0.12443686D+01  1  2  5  8  6  1       21 -.300830707314D-02 0.100000000000D+01
-.852313054950D-04 0.000000000000D+00 -.427155048827D-05 0.938464135391D-07 0.000000000000D+00  6 3 1 25 -24 2 3 4 0.12103704D-01 0.25470172D+00 0.16088622D+05 0.16088622D+05 0.16088622D+05 0.12443686D+01  1  2  5  9  6  1       21 -.347358312448D-02 0.100000000000D+01
-.852313054950D-04 0.000000000000D+00 -.427155048827D-05 0.938464135391D-07 0.000000000000D+00  6 4 1 25 -24 2 4 4 0.12103704D-01 0.25470172D+00 0.16088622D+05 0.16088622D+05 0.16088622D+05 0.12443686D+01  1  2  5  9  6  1       21 -.300830707314D-02 0.100000000000D+01
  </mgrwgt>
  </event>
  <event>
  5     66 0.45631637E-03 0.40649604E+02 0.75467711E-02 0.11938264E+00
       21 -1    0    0  501  502 0.00000000E+00 0.00000000E+00 0.30549509E+02 0.30558714E+02 0.75000000E+00 0.0000E+00 0.9000E+01
        1 -1    0    0  502    0 -.00000000E+00 -.00000000E+00 -.88963019E+03 0.88963024E+03 0.32000000E+00 0.0000E+00 0.9000E+01
       25  1    1    2    0    0 0.11627121E+02 0.14661598E+02 -.35439160E+03 0.37625597E+03 0.12500000E+03 0.0000E+00 0.9000E+01
      -24  1    1    2    0    0 0.59471527E+02 0.34508928E+02 -.36156649E+03 0.37672971E+03 0.80419002E+02 0.0000E+00 0.9000E+01
        2  1    1    2  501    0 -.71098648E+02 -.49170527E+02 -.14312259E+03 0.16720328E+03 0.32000000E+00 0.0000E+00 0.9000E+01
#aMCatNLO 1  0  0  5  1 0.15025221D+02 0.00000000D+00  -5  6  0 0.00000000D+00 0.00000000D+00 0.00000000D+00 0.00000000D+00 0.00000000D+00
  <mgrwgt>
 0.4094929029D-01    7    2    0
 0.164869727607982D+03 0.000000000000000D+00 0.000000000000000D+00 0.164869727607982D+03
 0.164869727607982D+03 -.000000000000000D+00 -.000000000000000D+00 -.164869727607982D+03
 0.126692841278561D+03 0.116272801202859D+02 0.146617085153382D+02 -.871301851543168D+01
 0.109321982250073D+03 0.594716646040799D+02 0.345090233160927D+02 -.275014230123443D+02
 0.937246316873298D+02 -.710989447243658D+02 -.491707318314309D+02 0.362144415277759D+02
 0.000000000000000D+00 -.000000000000000D+00 0.000000000000000D+00 0.000000000000000D+00
 0.164869727607982D+03 0.000000000000000D+00 0.000000000000000D+00 0.164869727607982D+03
 0.164869727607982D+03 -.000000000000000D+00 -.000000000000000D+00 -.164869727607982D+03
 0.126012368890318D+03 0.788089053039198D+01 0.120707738878991D+02 -.680478475374285D+01
 0.106518099128208D+03 0.562718056323671D+02 0.322960592839758D+02 -.258715661125342D+02
 0.156606359554022D+02 0.219566945901696D+01 -.172121133712816D+00 0.155049968871235D+02
 0.815483512420351D+02 -.663483656217760D+02 -.441947120381620D+02 0.171713539791535D+02
0.349480042886D-05 0.000000000000D+00 0.000000000000D+00 0.371644140232D-06 0.000000000000D+00  6 21 1 25 -24 2 21 2 0.47006370D-02 0.13686690D+00 0.25383600D+05 0.25383600D+05 0.25383600D+05 0.12225893D+01  1  2  2  3  6  5        2 0.340645929492D-01 0.100000000000D+01
-.198695020581D-06 0.184425685440D-06 -.705499516923D-08 0.371644140232D-06 0.000000000000D+00  6 21 1 25 -24 2 21 4 0.47006370D-02 0.13686690D+00 0.25383600D+05 0.25383600D+05 0.25383600D+05 0.12225893D+01  1  2  3  3  6  5        2 -.289486929324D-02 0.100000000000D+01
0.371891951989D-06 0.000000000000D+00 0.000000000000D+00 0.371644140232D-06 0.000000000000D+00  6 21 1 25 -24 2 21 4 0.47006370D-02 0.13686690D+00 0.25383600D+05 0.25383600D+05 0.25383600D+05 0.12225893D+01  1  2 15  3  6  5        2 0.541824646168D-02 0.100000000000D+01
0.568812909392D-06 0.000000000000D+00 0.000000000000D+00 0.373007184677D-06 0.000000000000D+00  6 21 1 25 -24 2 21 4 0.47006370D-02 0.13686690D+00 0.24192591D+05 0.24192591D+05 0.24192591D+05 0.12248292D+01  1  2 12  3  6  5        2 0.834759501746D-02 0.100000000000D+01
-.697286381801D-06 0.000000000000D+00 0.000000000000D+00 0.371644140232D-06 0.000000000000D+00  6 21 1 25 -24 2 21 4 0.47006370D-02 0.13686690D+00 0.25383600D+05 0.25383600D+05 0.25383600D+05 0.12225893D+01  1  2  4  3  6  5        2 -.101590514416D-01 0.100000000000D+01
-.438227924415D-06 0.000000000000D+00 0.000000000000D+00 0.371644140232D-06 0.000000000000D+00  6 21 1 25 -24 2 21 4 0.47006370D-02 0.13686690D+00 0.25383600D+05 0.25383600D+05 0.25383600D+05 0.12225893D+01  1  2  5  3  6  5        2 -.638472246623D-02 0.100000000000D+01
0.861908529304D-06 0.000000000000D+00 -.000000000000D+00 0.371644140232D-06 0.000000000000D+00  6 21 1 25 -24 2 21 4 0.47006370D-02 0.13686690D+00 0.25383600D+05 0.25383600D+05 0.25383600D+05 0.12225893D+01  1  2  6  3  6  5        2 0.125574990645D-01 0.100000000000D+01
  </mgrwgt>
  </event>
  <event>
  6     66 0.45631637E-03 0.41741340E+02 0.75467711E-02 0.11729644E+00
       21 -1    0    0  503  502 0.00000000E+00 0.00000000E+00 0.25222000E+03 0.25222111E+03 0.75000000E+00 0.0000E+00 0.9000E+01
        1 -1    0    0  502    0 0.00000000E+00 0.00000000E+00 -.89515218E+03 0.89515224E+03 0.32000000E+00 0.0000E+00 0.9000E+01
       25  1    1    2    0    0 -.40407320E+02 0.70454850E+02 -.36811913E+03 0.39715656E+03 0.12500000E+03 0.0000E+00 0.9000E+01
      -24  1    1    2    0    0 0.42354412E+02 -.34945352E+02 -.47528031E+03 0.48515324E+03 0.80419002E+02 0.0000E+00 0.9000E+01
        2  1    1    2  501    0 -.37977387E+02 0.15181195E+02 -.12844131E+02 0.42869857E+02 0.32000000E+00 0.0000E+00 0.9000E+01
       21  1    1    2  503  501 0.36030295E+02 -.50690693E+02 0.21331139E+03 0.22219370E+03 0.75000000E+00 0.0000E+00 0.9000E+01
#aMCatNLO 2  0  0  1  5 0.39723060D+02 0.00000000D+00  -5  6  0 0.00000000D+00 0.00000000D+00 0.00000000D+00 0.00000000D+00 0.00000000D+00
  <mgrwgt>
 0.4448843038D+00    1    2    0
 0.172435934959444D+03 0.000000000000000D+00 0.000000000000000D+00 0.172435934959444D+03
 0.172435934959444D+03 0.000000000000000D+00 0.000000000000000D+00 -.172435934959444D+03
 0.136903677329581D+03 -.255879245643463D+02 0.496057096435434D+02 -.146579453258224D+01
 0.131050691117916D+03 0.553410093147486D+02 -.532159524885830D+02 -.693722046418490D+02
 0.769175014713914D+02 -.297530847504023D+02 0.361024284503960D+01 0.708379991744312D+02
 0.000000000000000D+00 0.000000000000000D+00 -.000000000000000D+00 0.000000000000000D+00
 0.128215485439919D+04 0.000000000000000D+00 0.000000000000000D+00 0.128215485439919D+04
 0.176090767355199D+03 0.000000000000000D+00 0.000000000000000D+00 -.176090767355199D+03
 0.149076406985108D+03 -.404072146281197D+02 0.704548335600531D+02 -.146579453258224D+01
 0.119560857125822D+03 0.423544923142550D+02 -.349453402647874D+02 -.693722046418490D+02
 0.817972306448787D+02 -.379775723340795D+02 0.151811993513204D+02 0.708379991744312D+02
 0.110781112699858D+04 0.360302946479442D+02 -.506906926465860D+02 0.110606408704399D+04
0.146633115581D-02 0.000000000000D+00 0.000000000000D+00 0.166995341738D-05 0.359676642238D-06  6 21 1 25 -24 2 21 4 0.38803139D-01 0.13771571D+00 0.30543992D+05 0.30543992D+05 0.30543992D+05 0.12140801D+01  1  2  1  1  6  1       21 0.444884303777D+00 0.100000000000D+01
  </mgrwgt>
  </event>
  <event>
  6     66 0.45631637E-03 0.30168510E+02 0.75467711E-02 0.12076503E+00
       21 -1    0    0  501  502 0.00000000E+00 0.00000000E+00 0.97061551E+03 0.97061580E+03 0.75000000E+00 0.0000E+00 0.9000E+01
        3 -1    0    0  502    0 0.00000000E+00 0.00000000E+00 -.33971885E+02 0.33975564E+02 0.50000000E+00 0.0000E+00 0.9000E+01
       25  1    1    2    0    0 0.71531959E+02 -.43015703E+02 0.29526901E+03 0.33132456E+03 0.12500000E+03 0.0000E+00 0.9000E+01
      -24  1    1    2    0    0 -.32761071E+02 0.40754488E+02 0.13866206E+03 0.16860783E+03 0.80419002E+02 0.0000E+00 0.9000E+01
        4  1    1    2  503    0 -.34167207E+02 -.42461592E+01 0.33816250E+03 0.33991426E+03 0.15500000E+01 0.0000E+00 0.9000E+01
       21  1    1    2  501  503 -.46036814E+01 0.65073743E+01 0.16455005E+03 0.16474471E+03 0.75000000E+00 0.0000E+00 0.9000E+01
#aMCatNLO 2  0  0  5  1 0.98623369D+01 0.00000000D+00  -5  6  0 0.00000000D+00 0.00000000D+00 0.00000000D+00 0.00000000D+00 0.00000000D+00
  <mgrwgt>
 0.3603677906D-01    2    2    0
 0.181591937003246D+03 0.000000000000000D+00 0.000000000000000D+00 0.181591937003246D+03
 0.181591937003246D+03 -.000000000000000D+00 -.000000000000000D+00 -.181591937003246D+03
 0.155384717833607D+03 0.719257847693260D+02 -.430386719642993D+02 -.386492527365759D+02
 0.108986109231093D+03 -.324847463790973D+02 0.407383719855193D+02 -.519218870190257D+02
 0.988130469417909D+02 -.394410383902287D+02 0.230029997878001D+01 0.905711397556016D+02
 0.000000000000000D+00 0.000000000000000D+00 0.000000000000000D+00 0.000000000000000D+00
 0.181591937003246D+03 0.000000000000000D+00 0.000000000000000D+00 0.181591937003246D+03
 0.181591937003246D+03 -.000000000000000D+00 -.000000000000000D+00 -.181591937003246D+03
 0.154976827102709D+03 0.715349728660613D+02 -.430158788369001D+02 -.377518047749242D+02
 0.108775793921811D+03 -.327589554272807D+02 0.407543645428520D+02 -.512922021263626D+02
 0.674683644499749D+02 -.339668107308581D+02 -.430641702953868D+01 0.581351076604869D+02
 0.319628885319959D+02 -.480920670792250D+01 0.656793132358673D+01 0.309088992407998D+02
-.183784364698D-04 0.000000000000D+00 0.000000000000D+00 0.157258344818D-05 0.000000000000D+00  6 21 3 25 -24 4 21 4 0.14932577D+00 0.52267491D-02 0.20824055D+05 0.20824055D+05 0.20824055D+05 0.12319002D+01  1  2 13  3  6  5        4 -.134263202104D-01 0.100000000000D+01
0.677068931276D-04 0.000000000000D+00 0.000000000000D+00 0.157493719235D-05 0.423834709625D-06  6 21 3 25 -24 4 21 4 0.14932577D+00 0.52267491D-02 0.20824055D+05 0.20824055D+05 0.20824055D+05 0.12319002D+01  1  2  1  3  6  5        4 0.494630992728D-01 0.100000000000D+01
  </mgrwgt>
  </event>
  <event>
  5     66 0.45631637E-03 0.20135823E+02 0.75467711E-02 0.12129358E+00
       21 -1    0    0  501  502 0.00000000E+00 0.00000000E+00 0.68300314E+01 0.68710865E+01 0.75000000E+00 0.0000E+00 0.9000E+01
        3 -1    0    0  502    0 -.00000000E+00 -.00000000E+00 -.28809943E+04 0.28809944E+04 0.50000000E+00 0.0000E+00 0.9000E+01
       25  1    1    2    0    0 0.77553655E+02 0.44694253E+02 -.16251356E+04 0.16323918E+04 0.12500000E+03 0.0000E+00 0.9000E+01
      -24  1    1    2    0    0 -.58278754E+02 -.39058548E+02 -.10744122E+04 0.10796994E+04 0.80419002E+02 0.0000E+00 0.9000E+01
        4  1    1    2  501    0 -.19274901E+02 -.56357051E+01 -.17461653E+03 0.17577434E+03 0.15500000E+01 0.0000E+00 0.9000E+01
#aMCatNLO 1  0  0  5  1 0.45733035D+00 0.00000000D+00  -5  6  0 0.00000000D+00 0.00000000D+00 0.00000000D+00 0.00000000D+00 0.00000000D+00
  <mgrwgt>
 0.4007952736D-02    7    2    0
 0.140487098264259D+03 0.000000000000000D+00 0.000000000000000D+00 0.140487098264259D+03
 0.140487098264259D+03 -.000000000000000D+00 -.000000000000000D+00 -.140487098264259D+03
 0.153843914992834D+03 0.775842076581679D+02 0.447031863157353D+02 -.502653315886879D+01
 0.106719713708917D+03 -.582575569237435D+02 -.390523504148440D+02 0.168888368328924D+01
 0.204105678267673D+02 -.193266507344244D+02 -.565083590089130D+01 0.333764947557957D+01
 0.000000000000000D+00 0.000000000000000D+00 -.000000000000000D+00 0.000000000000000D+00
 0.140487098264259D+03 0.000000000000000D+00 0.000000000000000D+00 0.140487098264259D+03
 0.140487098264259D+03 -.000000000000000D+00 -.000000000000000D+00 -.140487098264259D+03
 0.153837590890142D+03 0.775735767851493D+02 0.447000780007077D+02 -.502469724181090D+01
 0.106724548969110D+03 -.582649317539159D+02 -.390545067095727D+02 0.169015729237939D+01
 0.102836134135137D+02 -.969204758332722D+01 -.270951760097492D+01 0.211552188623205D+01
 0.101284432557520D+02 -.961659744790630D+01 -.293605369016013D+01 0.121901806319949D+01
0.961227843676D-06 0.000000000000D+00 0.000000000000D+00 0.831295113624D-06 0.000000000000D+00  6 21 3 25 -24 4 21 2 0.10539355D-02 0.44323306D+00 0.19684644D+05 0.19684644D+05 0.19684644D+05 0.12345867D+01  1  2  2  3  6  5        4 0.211101001644D-03 0.100000000000D+01
0.763688628736D-07 0.507253869121D-07 -.194044207436D-08 0.831295113624D-06 0.000000000000D+00  6 21 3 25 -24 4 21 4 0.10539355D-02 0.44323306D+00 0.19684644D+05 0.19684644D+05 0.19684644D+05 0.12345867D+01  1  2  3  3  6  5        4 0.255636839869D-04 0.100000000000D+01
0.959141005812D-07 0.000000000000D+00 0.000000000000D+00 0.831295113624D-06 0.000000000000D+00  6 21 3 25 -24 4 21 4 0.10539355D-02 0.44323306D+00 0.19684644D+05 0.19684644D+05 0.19684644D+05 0.12345867D+01  1  2 15  3  6  5        4 0.321062493912D-04 0.100000000000D+01
-.134331961753D-03 0.000000000000D+00 0.000000000000D+00 0.831295113624D-06 0.000000000000D+00  6 21 3 25 -24 4 21 4 0.10539355D-02 0.44323306D+00 0.19684644D+05 0.19684644D+05 0.19684644D+05 0.12345867D+01  1  2  4  3  6  5        4 -.449662295651D-01 0.100000000000D+01
-.583676197046D-04 0.000000000000D+00 0.000000000000D+00 0.831295113624D-06 0.000000000000D+00  6 21 3 25 -24 4 21 4 0.10539355D-02 0.44323306D+00 0.19684644D+05 0.19684644D+05 0.19684644D+05 0.12345867D+01  1  2  5  3  6  5        4 -.195379547246D-01 0.100000000000D+01
0.150209525522D-03 0.000000000000D+00 -.000000000000D+00 0.831295113624D-06 0.000000000000D+00  6 21 3 25 -24 4 21 4 0.10539355D-02 0.44323306D+00 0.19684644D+05 0.19684644D+05 0.19684644D+05 0.12345867D+01  1  2  6  3  6  5        4 0.502810791962D-01 0.100000000000D+01
0.536592724425D-04 0.000000000000D+00 0.000000000000D+00 0.831295113624D-06 0.937954465462D-05  6 21 3 25 -24 4 21 4 0.10539355D-02 0.44323306D+00 0.19682007D+05 0.19682007D+05 0.19682007D+05 0.12345931D+01  1  2 11  3  6  5        4 0.179622868945D-01 0.100000000000D+01
  </mgrwgt>
  </event>
  <event>
  5     66 0.45631637E-03 0.51033132E+02 0.75467711E-02 0.10833925E+00
       21 -1    0    0  501  502 0.00000000E+00 0.00000000E+00 0.11755244E+02 0.11779145E+02 0.75000000E+00 0.0000E+00 0.9000E+01
        1 -1    0    0  502    0 0.00000000E+00 0.00000000E+00 -.26449998E+04 0.26449998E+04 0.32000000E+00 0.0000E+00 0.9000E+01
       25  1    1    2    0    0 0.29185797E+02 -.57802920E+01 -.15924300E+04 0.15976056E+04 0.12500000E+03 0.0000E+00 0.9000E+01
      -24  1    1    2    0    0 -.60397069E+02 -.34595665E+02 -.94174478E+03 0.94773156E+03 0.80419002E+02 0.0000E+00 0.9000E+01
        2  1    1    2  501    0 0.31211272E+02 0.40375957E+02 -.99069787E+02 0.11144185E+03 0.32000000E+00 0.0000E+00 0.9000E+01
#aMCatNLO 1  0  0  1  2 0.25998339D+03 0.00000000D+00  -5  6  0 0.00000000D+00 0.00000000D+00 0.00000000D+00 0.00000000D+00 0.00000000D+00
  <mgrwgt>
 0.4647712459D-01   12    2    0
 0.176421066140079D+03 0.000000000000000D+00 0.000000000000000D+00 0.176421066140079D+03
 0.176421066140079D+03 0.000000000000000D+00 0.000000000000000D+00 -.176421066140079D+03
 0.145184599937210D+03 0.291857311116819D+02 -.578037744867205D+01 -.675895583278607D+02
 0.107892402940177D+03 -.603971183042633D+02 -.345957283553577D+02 -.181350031138181D+02
 0.997651294027708D+02 0.312113871925814D+02 0.403761058040297D+02 0.857245614416788D+02
 0.000000000000000D+00 -.000000000000000D+00 -.000000000000000D+00 0.000000000000000D+00
 0.436285882800254D+03 0.000000000000000D+00 0.000000000000000D+00 0.436285882800254D+03
 0.268837188212905D+03 0.000000000000000D+00 0.000000000000000D+00 -.268837188212905D+03
 0.191784341071329D+03 0.128752073871768D+03 0.328459418000577D+01 -.675895583278607D+02
 0.875434169085117D+02 -.265046139157202D+01 -.293382106836894D+02 -.181350031138181D+02
 0.141632124537570D+03 0.102538559528498D+03 0.468700552216245D+02 0.857245614416788D+02
 0.284163188495749D+03 -.228640172008694D+03 -.208164387179409D+02 0.167448694587349D+03
0.891422919024D-05 0.000000000000D+00 0.000000000000D+00 0.107494812360D-05 0.000000000000D+00  6 21 1 25 -24 2 21 2 0.18103390D-02 0.40692489D+00 0.20432217D+05 0.20432217D+05 0.20432217D+05 0.12328051D+01  1  2  2  1  6  1       21 0.292518206177D-01 0.100000000000D+01
0.272821864013D-06 0.470416798341D-06 -.179952604318D-07 0.107494812360D-05 0.000000000000D+00  6 21 1 25 -24 2 21 4 0.18103390D-02 0.40692489D+00 0.20432217D+05 0.20432217D+05 0.20432217D+05 0.12328051D+01  1  2  3  1  6  1       21 0.136062085546D-02 0.100000000000D+01
0.778389259809D-06 0.000000000000D+00 0.000000000000D+00 0.107494812360D-05 0.000000000000D+00  6 21 1 25 -24 2 21 4 0.18103390D-02 0.40692489D+00 0.20432217D+05 0.20432217D+05 0.20432217D+05 0.12328051D+01  1  2 15  1  6  1       21 0.388199334535D-02 0.100000000000D+01
0.287752592804D-04 0.000000000000D+00 -.585920816416D-04 0.107494812360D-05 0.000000000000D+00  6 21 1 25 -24 2 21 4 0.89216527D-02 0.40692489D+00 0.20432217D+05 0.20432217D+05 0.20432217D+05 0.12328051D+01  1  2  5  1  6  1       21 0.100174047931D-01 0.100000000000D+01
0.123341315167D-04 0.000000000000D+00 -.241536775917D-04 0.107494812360D-05 0.000000000000D+00  6 -1 1 25 -24 2 -1 4 0.89216527D-02 0.40692489D+00 0.20432217D+05 0.20432217D+05 0.20432217D+05 0.12328051D+01  1  2  5  4  6  1       21 0.277940505550D-03 0.100000000000D+01
0.123341315167D-04 0.000000000000D+00 -.241536775917D-04 0.107494812360D-05 0.000000000000D+00  6 1 1 25 -24 2 1 4 0.89216527D-02 0.40692489D+00 0.20432217D+05 0.20432217D+05 0.20432217D+05 0.12328051D+01  1  2  5  5  6  1       21 0.340770378848D-03 0.100000000000D+01
0.123341315167D-04 0.000000000000D+00 -.241536775917D-04 0.107494812360D-05 0.000000000000D+00  6 -2 1 25 -24 2 -2 4 0.89216527D-02 0.40692489D+00 0.20432217D+05 0.20432217D+05 0.20432217D+05 0.12328051D+01  1  2  5  6  6  1       21 0.267007708611D-03 0.100000000000D+01
0.123341315167D-04 0.000000000000D+00 -.241536775917D-04 0.107494812360D-05 0.000000000000D+00  6 2 1 25 -24 2 2 4 0.89216527D-02 0.40692489D+00 0.20432217D+05 0.20432217D+05 0.20432217D+05 0.12328051D+01  1  2  5  7  6  1       21 0.383120371415D-03 0.100000000000D+01
0.123341315167D-04 0.000000000000D+00 -.241536775917D-04 0.107494812360D-05 0.000000000000D+00  6 -3 1 25 -24 2 -3 4 0.89216527D-02 0.40692489D+00 0.20432217D+05 0.20432217D+05 0.20432217D+05 0.12328051D+01  1  2  5  8  6  1       21 0.185541477356D-03 0.100000000000D+01
0.123341315167D-04 0.000000000000D+00 -.241536775917D-04 0.107494812360D-05 0.000000000000D+00  6 -4 1 25 -24 2 -4 4 0.89216527D-02 0.40692489D+00 0.20432217D+05 0.20432217D+05 0.20432217D+05 0.12328051D+01  1  2  5  8  6  1       21 0.162692988556D-03 0.100000000000D+01
0.123341315167D-04 0.000000000000D+00 -.241536775917D-04 0.107494812360D-05 0.000000000000D+00  6 3 1 25 -24 2 3 4 0.89216527D-02 0.40692489D+00 0.20432217D+05 0.20432217D+05 0.20432217D+05 0.12328051D+01  1  2  5  9  6  1       21 0.185518562539D-03 0.100000000000D+01
0.123341315167D-04 0.000000000000D+00 -.241536775917D-04 0.107494812360D-05 0.000000000000D+00  6 4 1 25 -24 2 4 4 0.89216527D-02 0.40692489D+00 0.20432217D+05 0.20432217D+05 0.20432217D+05 0.12328051D+01  1  2  5  9  6  1       21 0.162692988556D-03 0.100000000000D+01
  </mgrwgt>
  </event>
  <event>
  5     66 0.45631637E-03 0.52958546E+02 0.75467711E-02 0.11958855E+00
       21 -1    0    0  501  502 0.00000000E+00 0.00000000E+00 0.21959912E+02 0.21972716E+02 0.75000000E+00 0.0000E+00 0.9000E+01
        1 -1    0    0  502    0 -.00000000E+00 -.00000000E+00 -.11696996E+04 0.11696997E+04 0.32000000E+00 0.0000E+00 0.9000E+01
       25  1    1    2    0    0 0.43104139E+02 -.54598838E+01 -.66913484E+03 0.68209546E+03 0.12500000E+03 0.0000E+00 0.9000E+01
      -24  1    1    2    0    0 -.78688292E+02 -.33761499E+02 -.37874070E+03 0.39653930E+03 0.80419002E+02 0.0000E+00 0.9000E+01
        2  1    1    2  501    0 0.35584153E+02 0.39221383E+02 -.99864164E+02 0.11303761E+03 0.32000000E+00 0.0000E+00 0.9000E+01
#aMCatNLO 1  0  0  5  1 0.15617567D+02 0.00000000D+00  -5  6  0 0.00000000D+00 0.00000000D+00 0.00000000D+00 0.00000000D+00 0.00000000D+00
  <mgrwgt>
 0.5980303422D-01    4    2    0
 0.160293966287380D+03 0.000000000000000D+00 0.000000000000000D+00 0.160293966287380D+03
 0.160293966287380D+03 -.000000000000000D+00 -.000000000000000D+00 -.160293966287380D+03
 0.139873299586007D+03 0.431039364579527D+02 -.546010696569906D+01 -.452965542931118D+02
 0.118061975024066D+03 -.786884626531807D+02 -.337616872107180D+02 0.118189810972574D+02
 0.626526579646856D+02 0.355845261952280D+02 0.392217941764170D+02 0.334775731958544D+02
 0.000000000000000D+00 0.000000000000000D+00 0.000000000000000D+00 -.000000000000000D+00
 0.160293966287380D+03 0.000000000000000D+00 0.000000000000000D+00 0.160293966287380D+03
 0.160293966287380D+03 -.000000000000000D+00 -.000000000000000D+00 -.160293966287380D+03
 0.139966016210690D+03 0.482860704808866D+02 0.251718250885622D+00 -.404212534358880D+02
 0.114428370344203D+03 -.743831486364331D+02 -.290163060497245D+02 0.158693782933884D+02
 0.157475582113101D+02 -.117738360181344D+02 -.139032622969570D+01 0.103648139400427D+02
 0.504459878085549D+02 0.378709141736809D+02 0.301549140285345D+02 0.141870612024569D+02
0.722479885552D-05 0.000000000000D+00 0.000000000000D+00 0.423665321988D-06 0.000000000000D+00  6 21 1 25 -24 2 21 2 0.33794363D-02 0.17995477D+00 0.22916394D+05 0.22916394D+05 0.22916394D+05 0.12273705D+01  1  2  2  3  6  5        2 0.768933635515D-01 0.100000000000D+01
-.981529055220D-07 0.381263110218D-06 -.145847873325D-07 0.423665321988D-06 0.000000000000D+00  6 21 1 25 -24 2 21 4 0.33794363D-02 0.17995477D+00 0.22916394D+05 0.22916394D+05 0.22916394D+05 0.12273705D+01  1  2  3  3  6  5        2 -.157368423302D-02 0.100000000000D+01
0.638451330150D-06 0.000000000000D+00 0.000000000000D+00 0.423665321988D-06 0.000000000000D+00  6 21 1 25 -24 2 21 4 0.33794363D-02 0.17995477D+00 0.22916394D+05 0.22916394D+05 0.22916394D+05 0.12273705D+01  1  2 15  3  6  5        2 0.102362817123D-01 0.100000000000D+01
-.160624637334D-05 0.000000000000D+00 0.000000000000D+00 0.423665321988D-06 0.000000000000D+00  6 21 1 25 -24 2 21 4 0.33794363D-02 0.17995477D+00 0.22916394D+05 0.22916394D+05 0.22916394D+05 0.12273705D+01  1  2  4  3  6  5        2 -.257529268097D-01 0.100000000000D+01
  </mgrwgt>
  </event>
  <event>
  5     66 0.45631637E-03 0.70018691E+02 0.75467711E-02 0.10758037E+00
       21 -1    0    0  501  502 0.00000000E+00 0.00000000E+00 0.26350907E+02 0.26361578E+02 0.75000000E+00 0.0000E+00 0.9000E+01
        3 -1    0    0  502    0 0.00000000E+00 0.00000000E+00 -.12504691E+04 0.12504692E+04 0.50000000E+00 0.0000E+00 0.9000E+01
       25  1    1    2    0    0 -.46007243E+01 0.78140682E+02 -.30928003E+03 0.34264598E+03 0.12500000E+03 0.0000E+00 0.9000E+01
      -24  1    1    2    0    0 -.56664153E+02 -.44268742E+02 -.69891552E+03 0.70719210E+03 0.80419002E+02 0.0000E+00 0.9000E+01
        4  1    1    2  501    0 0.61264878E+02 -.33871940E+02 -.21592267E+03 0.22699272E+03 0.15500000E+01 0.0000E+00 0.9000E+01
#aMCatNLO 1  0  0  1  1 0.51482397D+03 0.00000000D+00  -5  6  0 0.00000000D+00 0.00000000D+00 0.00000000D+00 0.00000000D+00 0.00000000D+00
  <mgrwgt>
 0.6212450699D-02    3    2    0
 0.181543032061768D+03 0.000000000000000D+00 0.000000000000000D+00 0.181543032061768D+03
 0.181543032061768D+03 0.000000000000000D+00 0.000000000000000D+00 -.181543032061768D+03
 0.162237682624525D+03 -.460738521307383D+01 0.781443643387918D+02 0.675891706337670D+02
 0.130575170977897D+03 -.566695143366095D+02 -.442657775842129D+02 -.735647089388276D+02
 0.702732105211137D+02 0.612768995496833D+02 -.338785867545790D+02 0.597553830506068D+01
 0.000000000000000D+00 -.000000000000000D+00 0.000000000000000D+00 -.000000000000000D+00
 0.265531566744120D+03 0.000000000000000D+00 0.000000000000000D+00 0.265531566744120D+03
 0.509616194230092D+03 0.000000000000000D+00 0.000000000000000D+00 -.509616194230092D+03
 0.142869628789572D+03 0.862783887583354D+01 -.119998016584543D+02 0.675891706337670D+02
 0.179462276049638D+03 -.432204263146153D+02 -.135866555555348D+03 -.735647089388276D+02
 0.111848692601413D+03 0.691771500817116D+02 -.876866288848108D+02 0.597553830506068D+01
 0.340967163533589D+03 -.345845626429298D+02 0.235552986098613D+03 -.244084627485971D+03
0.115491799640D-04 0.000000000000D+00 0.000000000000D+00 0.164949190367D-06 0.000000000000D+00  6 21 3 25 -24 4 21 2 0.40548143D-02 0.19238069D+00 0.26469168D+05 0.26469168D+05 0.26469168D+05 0.12206476D+01  1  2  2  1  6  1       21 0.583599874376D-02 0.100000000000D+01
-.685155452692D-06 0.609466970858D-06 -.233144668810D-07 0.164949190367D-06 0.000000000000D+00  6 21 3 25 -24 4 21 4 0.40548143D-02 0.19238069D+00 0.26469168D+05 0.26469168D+05 0.26469168D+05 0.12206476D+01  1  2  3  1  6  1       21 -.515862304097D-03 0.100000000000D+01
0.118514955520D-05 0.000000000000D+00 0.000000000000D+00 0.164949190367D-06 0.000000000000D+00  6 21 3 25 -24 4 21 4 0.40548143D-02 0.19238069D+00 0.26469168D+05 0.26469168D+05 0.26469168D+05 0.12206476D+01  1  2 15  1  6  1       21 0.892314259253D-03 0.100000000000D+01
  </mgrwgt>
  </event>
  <event>
  6     66 -.45631637E-03 0.40226386E+02 0.75467711E-02 0.12189839E+00
       21 -1    0    0  501  502 0.00000000E+00 0.00000000E+00 0.13771393E+02 0.13791801E+02 0.75000000E+00 0.0000E+00 0.9000E+01
        1 -1    0    0  503    0 0.00000000E+00 0.00000000E+00 -.13528926E+04 0.13528926E+04 0.32000000E+00 0.0000E+00 0.9000E+01
       25  1    1    2    0    0 0.30772878E+02 0.12912763E+02 -.68082171E+03 0.69300571E+03 0.12500000E+03 0.0000E+00 0.9000E+01
      -24  1    1    2    0    0 -.63233596E+01 -.45513962E+02 -.44069006E+03 0.45031816E+03 0.80419002E+02 0.0000E+00 0.9000E+01
        2  1    1    2  501    0 -.30551959E+02 0.30828257E+02 -.17664197E+03 0.18189638E+03 0.32000000E+00 0.0000E+00 0.9000E+01
       21  1    1    2  503  502 0.61024412E+01 0.17729421E+01 -.40967440E+02 0.41464162E+02 0.75000000E+00 0.0000E+00 0.9000E+01
#aMCatNLO 2  0  0  2  1 0.63547709D+01 0.00000000D+00  -5  6  0 0.00000000D+00 0.00000000D+00 0.00000000D+00 0.00000000D+00 0.00000000D+00
  <mgrwgt>
 -.8019949632D-01    3    2    0
 0.133196464965541D+03 0.000000000000000D+00 0.000000000000000D+00 0.133196464965541D+03
 0.133196464965541D+03 0.000000000000000D+00 0.000000000000000D+00 -.133196464965541D+03
 0.130576466688560D+03 0.337545637341565D+02 0.137785075291355D+02 -.979774516177200D+01
 0.922248755069740D+02 -.420590430755630D+01 -.448991481497633D+02 0.214209530310990D+01
 0.435915877355472D+02 -.295486594266002D+02 0.311206406206277D+02 0.765564985866210D+01
 0.000000000000000D+00 0.000000000000000D+00 0.000000000000000D+00 -.000000000000000D+00
 0.135658289631929D+03 0.000000000000000D+00 0.000000000000000D+00 0.135658289631929D+03
 0.137399399509360D+03 0.000000000000000D+00 0.000000000000000D+00 -.137399399509360D+03
 0.129748674626218D+03 0.307732666289913D+02 0.129123513732433D+02 -.979774516177200D+01
 0.926462799642919D+02 -.632308683495801D+01 -.455142531240643D+02 0.214209530310990D+01
 0.440737607027327D+02 -.305526210424562D+02 0.308289596833784D+02 0.765564985866210D+01
 0.658897384804722D+01 0.610244124842298D+01 0.177294206744264D+01 -.174110987743112D+01
-.492558036775D-05 0.000000000000D+00 0.000000000000D+00 0.545204421637D-06 0.000000000000D+00  6 21 1 25 -24 2 21 4 0.20814470D-02 0.20992387D+00 0.18463140D+05 0.18463140D+05 0.18463140D+05 0.12376673D+01  1  2 13  2  6  2        1 -.133260796034D+00 0.100000000000D+01
-.288558845314D-05 0.000000000000D+00 0.000000000000D+00 0.547250911405D-06 0.000000000000D+00  6 21 1 25 -24 2 21 4 0.20814470D-02 0.20174061D+00 0.17598998D+05 0.17598998D+05 0.17598998D+05 0.12399880D+01  1  2  8  2  6  2        1 -.852977021367D-01 0.100000000000D+01
0.517399669414D-05 0.000000000000D+00 0.000000000000D+00 0.547250911405D-06 0.139361538213D-06  6 21 1 25 -24 2 21 4 0.21199177D-02 0.20810641D+00 0.18463140D+05 0.18463140D+05 0.18463140D+05 0.12376673D+01  1  2  1  2  6  2        1 0.138359001849D+00 0.100000000000D+01
  </mgrwgt>
  </event>
  <event>
  6     66 -.45631637E-03 0.11313187E+03 0.75467711E-02 0.11588886E+00
       21 -1    0    0  503  502 0.00000000E+00 0.00000000E+00 0.65828585E+02 0.65832857E+02 0.75000000E+00 0.0000E+00 0.9000E+01
        1 -1    0    0  502    0 0.00000000E+00 0.00000000E+00 -.58225260E+03 0.58225269E+03 0.32000000E+00 0.0000E+00 0.9000E+01
       25  1    1    2    0    0 -.40908032E+02 -.46555835E+00 -.21012319E+03 0.24789199E+03 0.12500000E+03 0.0000E+00 0.9000E+01
      -24  1    1    2    0    0 -.77074286E+02 -.38852831E+01 -.89743237E+02 0.14309649E+03 0.80419002E+02 0.0000E+00 0.9000E+01
        2  1    1    2  501    0 0.12029751E+03 -.10766377E+02 -.20491893E+03 0.23786399E+03 0.32000000E+00 0.0000E+00 0.9000E+01
       21  1    1    2  503  501 -.23151895E+01 0.15117218E+02 -.11638651E+02 0.19233072E+02 0.75000000E+00 0.0000E+00 0.9000E+01
#aMCatNLO 2  0  0  1  2 0.15293475D+02 0.00000000D+00  -5  6  0 0.00000000D+00 0.00000000D+00 0.00000000D+00 0.00000000D+00 0.00000000D+00
  <mgrwgt>
 -.2175718872D-01    4    2    0
 0.187358797971314D+03 0.000000000000000D+00 0.000000000000000D+00 0.187358797971314D+03
 0.187358797971314D+03 0.000000000000000D+00 0.000000000000000D+00 -.187358797971314D+03
 0.133188481128610D+03 -.417296752226365D+02 0.489848194918518D+01 -.186764714481334D+02
 0.119570716261321D+03 -.778115831182750D+02 0.928108020618111D+00 0.421240594079520D+02
 0.121958398552696D+03 0.119541258340911D+03 -.582658996980329D+01 -.234475879598185D+02
 0.000000000000000D+00 -.000000000000000D+00 0.000000000000000D+00 0.000000000000000D+00
 0.198984295746078D+03 0.000000000000000D+00 0.000000000000000D+00 0.198984295746078D+03
 0.192612864126452D+03 0.000000000000000D+00 0.000000000000000D+00 -.192612864126452D+03
 0.132843917172172D+03 -.409081777203484D+02 -.465552890893064D+00 -.186764714481334D+02
 0.119152060163438D+03 -.770744166459776D+02 -.388528049161428D+01 0.421240594079520D+02
 0.123033577633559D+03 0.120297783853605D+03 -.107663849128120D+02 -.234475879598185D+02
 0.165676049033621D+02 -.231518948727922D+01 0.151172182953194D+02 0.637143161962532D+01
-.410536502798D-05 0.000000000000D+00 0.000000000000D+00 0.202015331913D-06 0.000000000000D+00  6 21 1 25 -24 2 21 4 0.10254902D-01 0.87130373D-01 0.35920503D+05 0.35920503D+05 0.35920503D+05 0.12067735D+01  1  2 13  1  6  1       21 -.285526171699D-01 0.100000000000D+01
-.314656746648D-05 0.000000000000D+00 0.000000000000D+00 0.202015331913D-06 0.000000000000D+00  6 21 1 25 -24 2 21 4 0.10462365D-01 0.87130373D-01 0.35920503D+05 0.35920503D+05 0.35920503D+05 0.12067735D+01  1  2 13  1  6  1       21 -.211219623899D-01 0.100000000000D+01
-.148446894176D-06 0.000000000000D+00 0.000000000000D+00 0.203279185266D-06 0.000000000000D+00  6 21 1 25 -24 2 21 4 0.95356850D-02 0.87130373D-01 0.33025911D+05 0.33025911D+05 0.33025911D+05 0.12105426D+01  1  2  8  1  6  1       21 -.118906805992D-02 0.100000000000D+01
0.425051717703D-05 0.000000000000D+00 0.000000000000D+00 0.203279185266D-06 0.122502262621D-07  6 21 1 25 -24 2 21 4 0.10127368D-01 0.89573753D-01 0.35920503D+05 0.35920503D+05 0.35920503D+05 0.12067735D+01  1  2  1  1  6  1       21 0.291064588952D-01 0.100000000000D+01
  </mgrwgt>
  </event>
  <event>
  6     66 -.45631637E-03 0.29903247E+02 0.75467711E-02 0.11348454E+00
       21 -1    0    0  501  502 0.00000000E+00 0.00000000E+00 0.13112377E+03 0.13112591E+03 0.75000000E+00 0.0000E+00 0.9000E+01
        1 -1    0    0  502    0 -.00000000E+00 -.00000000E+00 -.93400637E+03 0.93400643E+03 0.32000000E+00 0.0000E+00 0.9000E+01
       25  1    1    2    0    0 -.17996709E+03 -.43496580E+02 -.47250757E+03 0.52265525E+03 0.12500000E+03 0.0000E+00 0.9000E+01
      -24  1    1    2    0    0 0.14070631E+03 0.57418428E+02 -.40294737E+03 0.43809695E+03 0.80419002E+02 0.0000E+00 0.9000E+01
        2  1    1    2  503    0 0.32751080E+02 -.90861862E+01 0.83845543E+02 0.90473032E+02 0.32000000E+00 0.0000E+00 0.9000E+01
       21  1    1    2  501  503 0.65096992E+01 -.48356615E+01 -.11273213E+02 0.13907108E+02 0.75000000E+00 0.0000E+00 0.9000E+01
#aMCatNLO 2  0  0  5  2 0.82208392D+01 0.00000000D+00  -5  6  0 0.00000000D+00 0.00000000D+00 0.00000000D+00 0.00000000D+00 0.00000000D+00
  <mgrwgt>
 -.1966602575D+00    2    2    0
 0.349959433467829D+03 0.000000000000000D+00 0.000000000000000D+00 0.349959433467829D+03
 0.349959433467829D+03 -.000000000000000D+00 -.000000000000000D+00 -.349959433467829D+03
 0.255080923285285D+03 -.180468627120928D+03 -.433187347639209D+02 -.122457499842247D+03
 0.205525773919997D+03 0.140301877588530D+03 0.575618388027011D+02 -.113029401705169D+03
 0.239312169730376D+03 0.401667495323975D+02 -.142431040387802D+02 0.235486901547416D+03
 0.000000000000000D+00 0.000000000000000D+00 0.000000000000000D+00 -.000000000000000D+00
 0.349959433467829D+03 0.000000000000000D+00 0.000000000000000D+00 0.349959433467829D+03
 0.349959433467829D+03 -.000000000000000D+00 -.000000000000000D+00 -.349959433467829D+03
 0.253351900353223D+03 -.179965782271823D+03 -.434970432301160D+02 -.119509455082507D+03
 0.204466398864589D+03 0.140707363707193D+03 0.574180536808869D+02 -.110652145123144D+03
 0.233878035442333D+03 0.327338098102754D+02 -.907226448479731D+01 0.231398200457108D+03
 0.822253227551256D+01 0.652460875435432D+01 -.484874596597356D+01 -.123660025145711D+01
-.538786575946D-03 0.000000000000D+00 0.000000000000D+00 0.207141848003D-05 0.000000000000D+00  6 21 1 25 -24 2 21 4 0.20173056D-01 0.14369346D+00 0.47968849D+05 0.47968849D+05 0.47968849D+05 0.11940696D+01  1  2  8  3  6  5        2 -.496471699575D+00 0.100000000000D+01
0.325199156327D-03 0.000000000000D+00 0.000000000000D+00 0.207141848003D-05 0.329444918727D-06  6 21 1 25 -24 2 21 4 0.20173056D-01 0.14369346D+00 0.47835841D+05 0.47835841D+05 0.47835841D+05 0.11941896D+01  1  2  1  3  6  5        2 0.299811442047D+00 0.100000000000D+01
  </mgrwgt>
  </event>
  <event>
  5     66 -.45631637E-03 0.35375868E+02 0.75467711E-02 0.11982843E+00
       21 -1    0    0  501  502 0.00000000E+00 0.00000000E+00 0.32851085E+02 0.32859645E+02 0.75000000E+00 0.0000E+00 0.9000E+01
        1 -1    0    0  502    0 0.00000000E+00 0.00000000E+00 -.86406608E+03 0.86406614E+03 0.32000000E+00 0.0000E+00 0.9000E+01
       25  1    1    2    0    0 0.42146338E+02 -.24854831E+02 -.41699670E+03 0.43807000E+03 0.12500000E+03 0.0000E+00 0.9000E+01
      -24  1    1    2    0    0 -.21834549E+02 0.53818100E+02 -.41159646E+03 0.42338162E+03 0.80419002E+02 0.0000E+00 0.9000E+01
        2  1    1    2  501    0 -.20311790E+02 -.28963269E+02 -.26218338E+01 0.35474162E+02 0.32000000E+00 0.0000E+00 0.9000E+01
#aMCatNLO 1  0  0  1  1 0.37504931D+02 0.00000000D+00  -5  6  0 0.00000000D+00 0.00000000D+00 0.00000000D+00 0.00000000D+00 0.00000000D+00
  <mgrwgt>
 -.8282669023D+00   12    2    0
 0.168491463854097D+03 0.000000000000000D+00 0.000000000000000D+00 0.168491463854097D+03
 0.168491463854097D+03 0.000000000000000D+00 0.000000000000000D+00 -.168491463854097D+03
 0.137402759442805D+03 0.421463932367124D+02 -.248547527881211D+02 -.293332763849394D+02
 0.111628140478240D+03 -.218345041644684D+02 0.538181635877172D+02 -.511906777469954D+02
 0.879520277871480D+02 -.203118890722440D+02 -.289634107995961D+02 0.805239541319348D+02
 0.000000000000000D+00 -.000000000000000D+00 -.000000000000000D+00 0.000000000000000D+00
 0.479149645260031D+04 0.000000000000000D+00 0.000000000000000D+00 0.479149645260031D+04
 0.169607874989742D+03 0.000000000000000D+00 0.000000000000000D+00 -.169607874989742D+03
 0.141341626864464D+03 0.561734863992706D+02 -.183454028838039D+02 -.293332763849394D+02
 0.112634384982592D+03 -.105490702973196D+02 0.590552313830169D+02 -.511906777469954D+02
 0.850875712591211D+02 -.116041170206194D+02 -.249225211787617D+02 0.805239541319348D+02
 0.462204074448387D+04 -.340202990813315D+02 -.157873073204513D+02 0.462188857761056D+04
0.173735106852D-06 0.000000000000D+00 0.000000000000D+00 0.187331122323D-05 0.000000000000D+00  6 21 1 25 -24 2 21 2 0.50546761D-02 0.13293391D+00 0.18064649D+05 0.18064649D+05 0.18064649D+05 0.12387220D+01  1  2  2  1  6  1       21 0.161008271776D-02 0.100000000000D+01
0.144314246597D-07 0.916825347214D-08 -.350721125432D-09 0.187331122323D-05 0.000000000000D+00  6 21 1 25 -24 2 21 4 0.50546761D-02 0.13293391D+00 0.18064649D+05 0.18064649D+05 0.18064649D+05 0.12387220D+01  1  2  3  1  6  1       21 0.205218976836D-03 0.100000000000D+01
0.162381782048D-07 0.000000000000D+00 0.000000000000D+00 0.187331122323D-05 0.000000000000D+00  6 21 1 25 -24 2 21 4 0.50546761D-02 0.13293391D+00 0.18064649D+05 0.18064649D+05 0.18064649D+05 0.12387220D+01  1  2 15  1  6  1       21 0.230911527825D-03 0.100000000000D+01
-.227126037062D-01 0.000000000000D+00 -.416138792260D-04 0.187331122323D-05 0.000000000000D+00  6 21 1 25 -24 2 21 4 0.14378863D+00 0.13293391D+00 0.18064649D+05 0.18064649D+05 0.18064649D+05 0.12387220D+01  1  2  5  1  6  1       21 -.435614972673D+00 0.100000000000D+01
-.100564790760D-01 0.000000000000D+00 -.184595854752D-04 0.187331122323D-05 0.000000000000D+00  6 -1 1 25 -24 2 -1 4 0.14378863D+00 0.13293391D+00 0.18064649D+05 0.18064649D+05 0.18064649D+05 0.12387220D+01  1  2  5  4  6  1       21 -.225019440114D-01 0.100000000000D+01
-.100564790760D-01 0.000000000000D+00 -.184595854752D-04 0.187331122323D-05 0.000000000000D+00  6 1 1 25 -24 2 1 4 0.14378863D+00 0.13293391D+00 0.18064649D+05 0.18064649D+05 0.18064649D+05 0.12387220D+01  1  2  5  5  6  1       21 -.113267278323D+00 0.100000000000D+01
-.100564790760D-01 0.000000000000D+00 -.184595854752D-04 0.187331122323D-05 0.000000000000D+00  6 -2 1 25 -24 2 -2 4 0.14378863D+00 0.13293391D+00 0.18064649D+05 0.18064649D+05 0.18064649D+05 0.12387220D+01  1  2  5  6  6  1       21 -.163741432880D-01 0.100000000000D+01
-.100564790760D-01 0.000000000000D+00 -.184595854752D-04 0.187331122323D-05 0.000000000000D+00  6 2 1 25 -24 2 2 4 0.14378863D+00 0.13293391D+00 0.18064649D+05 0.18064649D+05 0.18064649D+05 0.12387220D+01  1  2  5  7  6  1       21 -.205274521593D+00 0.100000000000D+01
-.100564790760D-01 0.000000000000D+00 -.184595854752D-04 0.187331122323D-05 0.000000000000D+00  6 -3 1 25 -24 2 -3 4 0.14378863D+00 0.13293391D+00 0.18064649D+05 0.18064649D+05 0.18064649D+05 0.12387220D+01  1  2  5  8  6  1       21 -.104333431626D-01 0.100000000000D+01
-.100564790760D-01 0.000000000000D+00 -.184595854752D-04 0.187331122323D-05 0.000000000000D+00  6 -4 1 25 -24 2 -4 4 0.14378863D+00 0.13293391D+00 0.18064649D+05 0.18064649D+05 0.18064649D+05 0.12387220D+01  1  2  5  8  6  1       21 -.818778367746D-02 0.100000000000D+01
-.100564790760D-01 0.000000000000D+00 -.184595854752D-04 0.187331122323D-05 0.000000000000D+00  6 3 1 25 -24 2 3 4 0.14378863D+00 0.13293391D+00 0.18064649D+05 0.18064649D+05 0.18064649D+05 0.12387220D+01  1  2  5  9  6  1       21 -.104713450974D-01 0.100000000000D+01
-.100564790760D-01 0.000000000000D+00 -.184595854752D-04 0.187331122323D-05 0.000000000000D+00  6 4 1 25 -24 2 4 4 0.14378863D+00 0.13293391D+00 0.18064649D+05 0.18064649D+05 0.18064649D+05 0.12387220D+01  1  2  5  9  6  1       21 -.818778367746D-02 0.100000000000D+01
  </mgrwgt>
  </event>
  <event>
  5     66 0.45631637E-03 0.45668225E+02 0.75467711E-02 0.12165870E+00
       21 -1    0    0  501  502 0.00000000E+00 0.00000000E+00 0.97999482E+02 0.98002352E+02 0.75000000E+00 0.0000E+00 0.9000E+01
        1 -1    0    0  502    0 0.00000000E+00 0.00000000E+00 -.38710123E+03 0.38710136E+03 0.32000000E+00 0.0000E+00 0.9000E+01
       25  1    1    2    0    0 -.11138398E+02 0.11965412E+02 -.22192899E+03 0.25523462E+03 0.12500000E+03 0.0000E+00 0.9000E+01
      -24  1    1    2    0    0 0.31474149E+02 0.30389867E+02 -.12526522E+03 0.15515398E+03 0.80419002E+02 0.0000E+00 0.9000E+01
        2  1    1    2  501    0 -.20335751E+02 -.42355280E+02 0.58092459E+02 0.74715117E+02 0.32000000E+00 0.0000E+00 0.9000E+01
#aMCatNLO 1  0  0  1  2 0.13278478D+02 0.00000000D+00  -5  6  0 0.00000000D+00 0.00000000D+00 0.00000000D+00 0.00000000D+00 0.00000000D+00
  <mgrwgt>
 0.3629145653D+00   32    2    0
 0.194772811833540D+03 0.000000000000000D+00 0.000000000000000D+00 0.194772811833540D+03
 0.194772811833540D+03 0.000000000000000D+00 0.000000000000000D+00 -.194772811833540D+03
 0.153140559831235D+03 -.111383758477194D+02 0.119654582698471D+02 -.869470842368596D+02
 0.100248584163382D+03 0.314741631797069D+02 0.303898975633626D+02 -.408459771656607D+02
 0.136156479672463D+03 -.203357873319875D+02 -.423553558332098D+02 0.127793061402520D+03
 0.000000000000000D+00 -.000000000000000D+00 -.000000000000000D+00 0.000000000000000D+00
 0.255577729079843D+03 0.000000000000000D+00 0.000000000000000D+00 0.255577729079843D+03
 0.195612219436560D+03 0.000000000000000D+00 0.000000000000000D+00 -.195612219436560D+03
 0.153440968933013D+03 -.895157984240989D+01 0.167094197426278D+02 -.869470842368596D+02
 0.101696702285637D+03 0.329146059470120D+02 0.335147455031108D+02 -.408459771656607D+02
 0.134634199110198D+03 -.184042816179159D+02 -.381652125049047D+02 0.127793061402520D+03
 0.614180781875548D+02 -.555874448668621D+01 -.120589527408339D+02 0.599655096432830D+02
0.202411957713D-05 0.000000000000D+00 0.000000000000D+00 0.287593935405D-05 0.000000000000D+00  6 21 1 25 -24 2 21 2 0.15077074D-01 0.59554266D-01 0.17503101D+05 0.17503101D+05 0.17503101D+05 0.12402534D+01  1  2  2  1  6  1       21 0.843542316121D-02 0.100000000000D+01
0.147824080531D-06 0.106815724681D-06 -.408611425152D-08 0.287593935405D-05 0.000000000000D+00  6 21 1 25 -24 2 21 4 0.15077074D-01 0.59554266D-01 0.17503101D+05 0.17503101D+05 0.17503101D+05 0.12402534D+01  1  2  3  1  6  1       21 0.947625507086D-03 0.100000000000D+01
0.186812199045D-06 0.000000000000D+00 0.000000000000D+00 0.287593935405D-05 0.000000000000D+00  6 21 1 25 -24 2 21 4 0.15077074D-01 0.59554266D-01 0.17503101D+05 0.17503101D+05 0.17503101D+05 0.12402534D+01  1  2 15  1  6  1       21 0.119755864006D-02 0.100000000000D+01
0.459162829499D-04 0.000000000000D+00 0.000000000000D+00 0.285832702563D-05 0.000000000000D+00  6 21 1 25 -24 2 21 4 0.19809226D-01 0.59554266D-01 0.18935414D+05 0.18935414D+05 0.18935414D+05 0.12364499D+01  1  2 12  1  6  1       21 0.176520613851D+00 0.100000000000D+01
0.340414904043D-04 0.000000000000D+00 0.000000000000D+00 0.285832702563D-05 0.000000000000D+00  6 21 1 25 -24 2 21 4 0.21362568D-01 0.59554266D-01 0.18935414D+05 0.18935414D+05 0.18935414D+05 0.12364499D+01  1  2 12  1  6  1       21 0.113750218490D+00 0.100000000000D+01
-.200461421402D-04 0.000000000000D+00 0.000000000000D+00 0.287593935405D-05 0.000000000000D+00  6 21 1 25 -24 2 21 4 0.15077074D-01 0.59554266D-01 0.17503101D+05 0.17503101D+05 0.17503101D+05 0.12402534D+01  1  2  4  1  6  1       21 -.128505690970D+00 0.100000000000D+01
-.937281949258D-04 0.000000000000D+00 -.295878966559D-05 0.287593935405D-05 0.000000000000D+00  6 21 1 25 -24 2 21 4 0.19831556D-01 0.59554266D-01 0.17503101D+05 0.17503101D+05 0.17503101D+05 0.12402534D+01  1  2  5  1  6  1       21 -.364266686076D+00 0.100000000000D+01
0.866185267921D-04 0.000000000000D+00 0.255747273697D-05 0.287593935405D-05 0.000000000000D+00  6 21 1 25 -24 2 21 4 0.15077074D-01 0.59554266D-01 0.17503101D+05 0.17503101D+05 0.17503101D+05 0.12402534D+01  1  2  6  1  6  1       21 0.555267619995D+00 0.100000000000D+01
0.299838351562D-05 0.000000000000D+00 0.000000000000D+00 0.285832702563D-05 0.000000000000D+00  6 -1 1 25 -24 2 -1 4 0.19809226D-01 0.59554266D-01 0.18935414D+05 0.18935414D+05 0.18935414D+05 0.12364499D+01  1  2 12  4  6  1       21 0.898298389077D-03 0.100000000000D+01
0.288443055353D-05 0.000000000000D+00 0.000000000000D+00 0.285832702563D-05 0.000000000000D+00  6 -1 1 25 -24 2 -1 4 0.21362568D-01 0.59554266D-01 0.18935414D+05 0.18935414D+05 0.18935414D+05 0.12364499D+01  1  2 12  4  6  1       21 0.765229236307D-03 0.100000000000D+01
-.571773659116D-05 0.000000000000D+00 -.249284411230D-06 0.287593935405D-05 0.000000000000D+00  6 -1 1 25 -24 2 -1 4 0.19831556D-01 0.59554266D-01 0.17503101D+05 0.17503101D+05 0.17503101D+05 0.12402534D+01  1  2  5  4  6  1       21 -.172973684577D-02 0.100000000000D+01
0.299838351562D-05 0.000000000000D+00 0.000000000000D+00 0.285832702563D-05 0.000000000000D+00  6 1 1 25 -24 2 1 4 0.19809226D-01 0.59554266D-01 0.18935414D+05 0.18935414D+05 0.18935414D+05 0.12364499D+01  1  2 12  5  6  1       21 0.134686606550D-02 0.100000000000D+01
0.288443055353D-05 0.000000000000D+00 0.000000000000D+00 0.285832702563D-05 0.000000000000D+00  6 1 1 25 -24 2 1 4 0.21362568D-01 0.59554266D-01 0.18935414D+05 0.18935414D+05 0.18935414D+05 0.12364499D+01  1  2 12  5  6  1       21 0.117727986914D-02 0.100000000000D+01
-.571773659116D-05 0.000000000000D+00 -.249284411230D-06 0.287593935405D-05 0.000000000000D+00  6 1 1 25 -24 2 1 4 0.19831556D-01 0.59554266D-01 0.17503101D+05 0.17503101D+05 0.17503101D+05 0.12402534D+01  1  2  5  5  6  1       21 -.259461328497D-02 0.100000000000D+01
0.299838351562D-05 0.000000000000D+00 0.000000000000D+00 0.285832702563D-05 0.000000000000D+00  6 -2 1 25 -24 2 -2 4 0.19809226D-01 0.59554266D-01 0.18935414D+05 0.18935414D+05 0.18935414D+05 0.12364499D+01  1  2 12  6  6  1       21 0.822155907929D-03 0.100000000000D+01
0.288443055353D-05 0.000000000000D+00 0.000000000000D+00 0.285832702563D-05 0.000000000000D+00  6 -2 1 25 -24 2 -2 4 0.21362568D-01 0.59554266D-01 0.18935414D+05 0.18935414D+05 0.18935414D+05 0.12364499D+01  1  2 12  6  6  1       21 0.695692458355D-03 0.100000000000D+01
-.571773659116D-05 0.000000000000D+00 -.249284411230D-06 0.287593935405D-05 0.000000000000D+00  6 -2 1 25 -24 2 -2 4 0.19831556D-01 0.59554266D-01 0.17503101D+05 0.17503101D+05 0.17503101D+05 0.12402534D+01  1  2  5  6  6  1       21 -.158283864873D-02 0.100000000000D+01
0.299838351562D-05 0.000000000000D+00 0.000000000000D+00 0.285832702563D-05 0.000000000000D+00  6 2 1 25 -24 2 2 4 0.19809226D-01 0.59554266D-01 0.18935414D+05 0.18935414D+05 0.18935414D+05 0.12364499D+01  1  2 12  7  6  1       21 0.166143312250D-02 0.100000000000D+01
0.288443055353D-05 0.000000000000D+00 0.000000000000D+00 0.285832702563D-05 0.000000000000D+00  6 2 1 25 -24 2 2 4 0.21362568D-01 0.59554266D-01 0.18935414D+05 0.18935414D+05 0.18935414D+05 0.12364499D+01  1  2 12  7  6  1       21 0.146789800881D-02 0.100000000000D+01
-.571773659116D-05 0.000000000000D+00 -.249284411230D-06 0.287593935405D-05 0.000000000000D+00  6 2 1 25 -24 2 2 4 0.19831556D-01 0.59554266D-01 0.17503101D+05 0.17503101D+05 0.17503101D+05 0.12402534D+01  1  2  5  7  6  1       21 -.320079059085D-02 0.100000000000D+01
0.299838351562D-05 0.000000000000D+00 0.000000000000D+00 0.285832702563D-05 0.000000000000D+00  6 -3 1 25 -24 2 -3 4 0.19809226D-01 0.59554266D-01 0.18935414D+05 0.18935414D+05 0.18935414D+05 0.12364499D+01  1  2 12  8  6  1       21 0.536150459183D-03 0.100000000000D+01
0.299838351562D-05 0.000000000000D+00 0.000000000000D+00 0.285832702563D-05 0.000000000000D+00  6 -4 1 25 -24 2 -4 4 0.19809226D-01 0.59554266D-01 0.18935414D+05 0.18935414D+05 0.18935414D+05 0.12364499D+01  1  2 12  8  6  1       21 0.456917169149D-03 0.100000000000D+01
0.288443055353D-05 0.000000000000D+00 0.000000000000D+00 0.285832702563D-05 0.000000000000D+00  6 -3 1 25 -24 2 -3 4 0.21362568D-01 0.59554266D-01 0.18935414D+05 0.18935414D+05 0.18935414D+05 0.12364499D+01  1  2 12  8  6  1       21 0.451365705188D-03 0.100000000000D+01
0.288443055353D-05 0.000000000000D+00 0.000000000000D+00 0.285832702563D-05 0.000000000000D+00  6 -4 1 25 -24 2 -4 4 0.21362568D-01 0.59554266D-01 0.18935414D+05 0.18935414D+05 0.18935414D+05 0.12364499D+01  1  2 12  8  6  1       21 0.383551896267D-03 0.100000000000D+01
-.571773659116D-05 0.000000000000D+00 -.249284411230D-06 0.287593935405D-05 0.000000000000D+00  6 -3 1 25 -24 2 -3 4 0.19831556D-01 0.59554266D-01 0.17503101D+05 0.17503101D+05 0.17503101D+05 0.12402534D+01  1  2  5  8  6  1       21 -.103027022474D-02 0.100000000000D+01
-.571773659116D-05 0.000000000000D+00 -.249284411230D-06 0.287593935405D-05 0.000000000000D+00  6 -4 1 25 -24 2 -4 4 0.19831556D-01 0.59554266D-01 0.17503101D+05 0.17503101D+05 0.17503101D+05 0.12402534D+01  1  2  5  8  6  1       21 -.877216059024D-03 0.100000000000D+01
0.299838351562D-05 0.000000000000D+00 0.000000000000D+00 0.285832702563D-05 0.000000000000D+00  6 3 1 25 -24 2 3 4 0.19809226D-01 0.59554266D-01 0.18935414D+05 0.18935414D+05 0.18935414D+05 0.12364499D+01  1  2 12  9  6  1       21 0.536099073800D-03 0.100000000000D+01
0.299838351562D-05 0.000000000000D+00 0.000000000000D+00 0.285832702563D-05 0.000000000000D+00  6 4 1 25 -24 2 4 4 0.19809226D-01 0.59554266D-01 0.18935414D+05 0.18935414D+05 0.18935414D+05 0.12364499D+01  1  2 12  9  6  1       21 0.456917169149D-03 0.100000000000D+01
0.288443055353D-05 0.000000000000D+00 0.000000000000D+00 0.285832702563D-05 0.000000000000D+00  6 3 1 25 -24 2 3 4 0.21362568D-01 0.59554266D-01 0.18935414D+05 0.18935414D+05 0.18935414D+05 0.12364499D+01  1  2 12  9  6  1       21 0.451328242777D-03 0.100000000000D+01
0.288443055353D-05 0.000000000000D+00 0.000000000000D+00 0.285832702563D-05 0.000000000000D+00  6 4 1 25 -24 2 4 4 0.21362568D-01 0.59554266D-01 0.18935414D+05 0.18935414D+05 0.18935414D+05 0.12364499D+01  1  2 12  9  6  1       21 0.383551896267D-03 0.100000000000D+01
-.571773659116D-05 0.000000000000D+00 -.249284411230D-06 0.287593935405D-05 0.000000000000D+00  6 3 1 25 -24 2 3 4 0.19831556D-01 0.59554266D-01 0.17503101D+05 0.17503101D+05 0.17503101D+05 0.12402534D+01  1  2  5  9  6  1       21 -.103017026880D-02 0.100000000000D+01
-.571773659116D-05 0.000000000000D+00 -.249284411230D-06 0.287593935405D-05 0.000000000000D+00  6 4 1 25 -24 2 4 4 0.19831556D-01 0.59554266D-01 0.17503101D+05 0.17503101D+05 0.17503101D+05 0.12402534D+01  1  2  5  9  6  1       21 -.877216059024D-03 0.100000000000D+01
  </mgrwgt>
  </event>
  <event>
  5     66 0.45631637E-03 0.35924959E+02 0.75467711E-02 0.10684354E+00
       21 -1    0    0  501  502 0.00000000E+00 0.00000000E+00 0.17347214E+03 0.17347376E+03 0.75000000E+00 0.0000E+00 0.9000E+01
        3 -1    0    0  502    0 0.00000000E+00 0.00000000E+00 -.23414787E+03 0.23414840E+03 0.50000000E+00 0.0000E+00 0.9000E+01
       25  1    1    2    0    0 -.40748504E+02 0.32330622E+02 0.46210683E+02 0.14305991E+03 0.12500000E+03 0.0000E+00 0.9000E+01
      -24  1    1    2    0    0 0.62888676E+02 -.60619715E+02 0.30469637E+02 0.12257794E+03 0.80419002E+02 0.0000E+00 0.9000E+01
        4  1    1    2  501    0 -.22140172E+02 0.28289093E+02 -.13735605E+03 0.14198432E+03 0.15500000E+01 0.0000E+00 0.9000E+01
#aMCatNLO 1  0  0  2  1 0.10988864D+02 0.00000000D+00  -5  6  0 0.00000000D+00 0.00000000D+00 0.00000000D+00 0.00000000D+00 0.00000000D+00
  <mgrwgt>
 0.1800084311D-01    5    2    0
 0.201540493485741D+03 0.000000000000000D+00 0.000000000000000D+00 0.201540493485741D+03
 0.201540493485741D+03 0.000000000000000D+00 0.000000000000000D+00 -.201540493485741D+03
 0.151628955195964D+03 -.407478415321307D+02 0.323297758977090D+02 0.682696056433318D+02
 0.128547263657558D+03 0.628892375417814D+02 -.606204328066884D+02 0.492675346168073D+02
 0.122904768117959D+03 -.221413960096506D+02 0.282906569089794D+02 -.117537140260139D+03
 0.000000000000000D+00 -.000000000000000D+00 0.000000000000000D+00 -.000000000000000D+00
 0.304077770703601D+03 0.000000000000000D+00 0.000000000000000D+00 0.304077770703601D+03
 0.594966556165511D+03 0.000000000000000D+00 0.000000000000000D+00 -.594966556165511D+03
 0.151236201990884D+03 0.794958829061441D+01 -.502339903246925D+02 0.682696056433318D+02
 0.216372645898099D+03 0.118348615061698D+03 -.154648702821374D+03 0.492675346168073D+02
 0.125213737017301D+03 0.177533664112854D+02 -.393486794997347D+02 -.117537140260139D+03
 0.406221741962827D+03 -.144051569763597D+03 0.244231372645801D+03 -.290888785461910D+03
0.199213648586D-04 0.000000000000D+00 0.000000000000D+00 0.143835550075D-06 0.000000000000D+00  6 21 3 25 -24 4 21 2 0.26688187D-01 0.36022915D-01 0.21031780D+05 0.21031780D+05 0.21031780D+05 0.12314282D+01  1  2  2  2  6  2        3 0.150195382503D-01 0.100000000000D+01
-.275673115329D-05 0.105127930585D-05 -.402154960498D-07 0.143835550075D-06 0.000000000000D+00  6 21 3 25 -24 4 21 4 0.26688187D-01 0.36022915D-01 0.21031780D+05 0.21031780D+05 0.21031780D+05 0.12314282D+01  1  2  3  2  6  2        3 -.315173797892D-02 0.100000000000D+01
0.197067952142D-05 0.000000000000D+00 0.000000000000D+00 0.143835550075D-06 0.000000000000D+00  6 21 3 25 -24 4 21 4 0.26688187D-01 0.36022915D-01 0.21031780D+05 0.21031780D+05 0.21031780D+05 0.12314282D+01  1  2 15  2  6  2        3 0.225305448611D-02 0.100000000000D+01
0.153723115409D-04 0.000000000000D+00 -.235962712321D-04 0.143835550075D-06 0.000000000000D+00  6 21 3 25 -24 4 21 4 0.26688187D-01 0.14439474D+00 0.21031780D+05 0.21031780D+05 0.21031780D+05 0.12314282D+01  1  2  5  2  6  2        3 0.893526184538D-03 0.100000000000D+01
0.281515042343D-05 0.000000000000D+00 -.391077428913D-05 0.143835550075D-06 0.000000000000D+00  6 21 21 25 -24 4 -3 4 0.26688187D-01 0.14439474D+00 0.21031780D+05 0.21031780D+05 0.21031780D+05 0.12314282D+01  1  2  5 10  6  2        3 0.298646217073D-02 0.100000000000D+01
  </mgrwgt>
  </event>
  <event>
  5     66 0.45631637E-03 0.67256390E+02 0.75467711E-02 0.11789259E+00
       21 -1    0    0  501  502 0.00000000E+00 0.00000000E+00 0.17256244E+02 0.17272535E+02 0.75000000E+00 0.0000E+00 0.9000E+01
        1 -1    0    0  502    0 0.00000000E+00 0.00000000E+00 -.16465043E+04 0.16465044E+04 0.32000000E+00 0.0000E+00 0.9000E+01
       25  1    1    2    0    0 0.38476748E+02 -.11593564E+02 -.66211795E+03 0.67501115E+03 0.12500000E+03 0.0000E+00 0.9000E+01
      -24  1    1    2    0    0 -.10368833E+03 -.48625197E+01 -.75164873E+03 0.76303207E+03 0.80419002E+02 0.0000E+00 0.9000E+01
        2  1    1    2  501    0 0.65211582E+02 0.16456083E+02 -.21548140E+03 0.22573367E+03 0.32000000E+00 0.0000E+00 0.9000E+01
#aMCatNLO 1  0  0  1  5 0.80519509D+01 0.00000000D+00  -5  6  0 0.00000000D+00 0.00000000D+00 0.00000000D+00 0.00000000D+00 0.00000000D+00
  <mgrwgt>
 0.1105664878D+00   41    2    0
 0.168600290397292D+03 0.000000000000000D+00 0.000000000000000D+00 0.168600290397292D+03
 0.168600290397292D+03 0.000000000000000D+00 0.000000000000000D+00 -.168600290397292D+03
 0.131415933679737D+03 0.384765014658609D+02 -.115936257910546D+02 -.550402587945793D+01
 0.133134259429801D+03 -.103688579921946D+03 -.486258276638285D+01 -.219669925606884D+02
 0.726503876850448D+02 0.652120784560849D+02 0.164562085574375D+02 0.274710184401464D+02
 0.000000000000000D+00 0.000000000000000D+00 0.000000000000000D+00 0.000000000000000D+00
 0.181931572561528D+03 0.000000000000000D+00 0.000000000000000D+00 0.181931572561528D+03
 0.169868573272314D+03 0.000000000000000D+00 0.000000000000000D+00 -.169868573272314D+03
 0.131189644218299D+03 0.367818745034621D+02 -.142310279759990D+02 -.550402587945793D+01
 0.134608317971567D+03 -.105416356590965D+03 -.755157690083031D+01 -.219669925606884D+02
 0.714987404345188D+02 0.642818659256696D+02 0.150084890211526D+02 0.274710184401464D+02
 0.145034432094574D+02 0.435261616183327D+01 0.677411585567667D+01 0.120629992892139D+02
0.104007793399D-05 0.000000000000D+00 0.000000000000D+00 0.287476259291D-06 0.000000000000D+00  6 21 1 25 -24 2 21 2 0.26560623D-02 0.25330961D+00 0.27202977D+05 0.27202977D+05 0.27202977D+05 0.12193849D+01  1  2  2  1  6  1       21 0.784075405535D-02 0.100000000000D+01
-.373878090259D-07 0.548864204957D-07 -.209961768898D-08 0.287476259291D-06 0.000000000000D+00  6 21 1 25 -24 2 21 4 0.26560623D-02 0.25330961D+00 0.27202977D+05 0.27202977D+05 0.27202977D+05 0.12193849D+01  1  2  3  1  6  1       21 -.419086423200D-03 0.100000000000D+01
0.103005474604D-06 0.000000000000D+00 0.000000000000D+00 0.287476259291D-06 0.000000000000D+00  6 21 1 25 -24 2 21 4 0.26560623D-02 0.25330961D+00 0.27202977D+05 0.27202977D+05 0.27202977D+05 0.12193849D+01  1  2 15  1  6  1       21 0.115460619508D-02 0.100000000000D+01
0.109585566722D-04 0.000000000000D+00 0.000000000000D+00 0.286428835409D-06 0.000000000000D+00  6 21 1 25 -24 2 21 4 0.28755954D-02 0.25330961D+00 0.28550961D+05 0.28550961D+05 0.28550961D+05 0.12171615D+01  1  2 12  1  6  1       21 0.106942691827D+00 0.100000000000D+01
0.833764939244D-05 0.000000000000D+00 0.000000000000D+00 0.286428835409D-06 0.000000000000D+00  6 21 1 25 -24 2 21 4 0.29406840D-02 0.25330961D+00 0.28550961D+05 0.28550961D+05 0.28550961D+05 0.12171615D+01  1  2 12  1  6  1       21 0.784192839704D-01 0.100000000000D+01
-.122613458998D-04 0.000000000000D+00 0.000000000000D+00 0.287476259291D-06 0.000000000000D+00  6 21 1 25 -24 2 21 4 0.26560623D-02 0.25330961D+00 0.27202977D+05 0.27202977D+05 0.27202977D+05 0.12193849D+01  1  2  4  1  6  1       21 -.137439548629D+00 0.100000000000D+01
-.393582539912D-04 0.000000000000D+00 -.401791954817D-05 0.287476259291D-06 0.000000000000D+00  6 21 1 25 -24 2 21 4 0.28886737D-02 0.25330961D+00 0.27202977D+05 0.27202977D+05 0.27202977D+05 0.12193849D+01  1  2  5  1  6  1       21 -.384315236999D+00 0.100000000000D+01
0.391560710112D-04 0.000000000000D+00 0.396184300620D-05 0.287476259291D-06 0.000000000000D+00  6 21 1 25 -24 2 21 4 0.26560623D-02 0.25330961D+00 0.27202977D+05 0.27202977D+05 0.27202977D+05 0.12193849D+01  1  2  6  1  6  1       21 0.438907177879D+00 0.100000000000D+01
0.546599876811D-07 0.000000000000D+00 0.000000000000D+00 0.287476259291D-06 0.106130561280D-06  6 21 1 25 -24 2 21 4 0.28660780D-02 0.25521512D+00 0.28550961D+05 0.28550961D+05 0.28550961D+05 0.12171615D+01  1  2 11  1  6  1       21 0.526563760213D-03 0.100000000000D+01
0.229647595451D-06 0.000000000000D+00 0.000000000000D+00 0.286428835409D-06 0.000000000000D+00  6 -1 1 25 -24 2 -1 4 0.28755954D-02 0.25330961D+00 0.28550961D+05 0.28550961D+05 0.28550961D+05 0.12171615D+01  1  2 12  4  6  1       21 0.115892935456D-03 0.100000000000D+01
0.230604444329D-06 0.000000000000D+00 0.000000000000D+00 0.286428835409D-06 0.000000000000D+00  6 -1 1 25 -24 2 -1 4 0.29406840D-02 0.25330961D+00 0.28550961D+05 0.28550961D+05 0.28550961D+05 0.12171615D+01  1  2 12  4  6  1       21 0.112626609973D-03 0.100000000000D+01
-.749630405293D-06 0.000000000000D+00 -.844004494815D-07 0.287476259291D-06 0.000000000000D+00  6 -1 1 25 -24 2 -1 4 0.28886737D-02 0.25330961D+00 0.27202977D+05 0.27202977D+05 0.27202977D+05 0.12193849D+01  1  2  5  4  6  1       21 -.378513067029D-03 0.100000000000D+01
0.175625401865D-08 0.000000000000D+00 0.000000000000D+00 0.287476259291D-06 0.128821639573D-08  6 -1 1 25 -24 2 -1 4 0.28660780D-02 0.25521512D+00 0.28550961D+05 0.28550961D+05 0.28550961D+05 0.12171615D+01  1  2 11  4  6  1       21 0.874380970510D-06 0.100000000000D+01
0.229647595451D-06 0.000000000000D+00 0.000000000000D+00 0.286428835409D-06 0.000000000000D+00  6 1 1 25 -24 2 1 4 0.28755954D-02 0.25330961D+00 0.28550961D+05 0.28550961D+05 0.28550961D+05 0.12171615D+01  1  2 12  5  6  1       21 0.124315314223D-03 0.100000000000D+01
0.230604444329D-06 0.000000000000D+00 0.000000000000D+00 0.286428835409D-06 0.000000000000D+00  6 1 1 25 -24 2 1 4 0.29406840D-02 0.25330961D+00 0.28550961D+05 0.28550961D+05 0.28550961D+05 0.12171615D+01  1  2 12  5  6  1       21 0.120997084204D-03 0.100000000000D+01
-.749630405293D-06 0.000000000000D+00 -.844004494815D-07 0.287476259291D-06 0.000000000000D+00  6 1 1 25 -24 2 1 4 0.28886737D-02 0.25330961D+00 0.27202977D+05 0.27202977D+05 0.27202977D+05 0.12193849D+01  1  2  5  5  6  1       21 -.406170772898D-03 0.100000000000D+01
0.173881420664D-08 0.000000000000D+00 0.000000000000D+00 0.287476259291D-06 0.131478382524D-08  6 1 1 25 -24 2 1 4 0.28660780D-02 0.25521512D+00 0.28550961D+05 0.28550961D+05 0.28550961D+05 0.12171615D+01  1  2 11  5  6  1       21 0.928403493744D-06 0.100000000000D+01
0.229647595451D-06 0.000000000000D+00 0.000000000000D+00 0.286428835409D-06 0.000000000000D+00  6 -2 1 25 -24 2 -2 4 0.28755954D-02 0.25330961D+00 0.28550961D+05 0.28550961D+05 0.28550961D+05 0.12171615D+01  1  2 12  6  6  1       21 0.114384709011D-03 0.100000000000D+01
0.230604444329D-06 0.000000000000D+00 0.000000000000D+00 0.286428835409D-06 0.000000000000D+00  6 -2 1 25 -24 2 -2 4 0.29406840D-02 0.25330961D+00 0.28550961D+05 0.28550961D+05 0.28550961D+05 0.12171615D+01  1  2 12  6  6  1       21 0.111128298291D-03 0.100000000000D+01
-.749630405293D-06 0.000000000000D+00 -.844004494815D-07 0.287476259291D-06 0.000000000000D+00  6 -2 1 25 -24 2 -2 4 0.28886737D-02 0.25330961D+00 0.27202977D+05 0.27202977D+05 0.27202977D+05 0.12193849D+01  1  2  5  6  6  1       21 -.373560030960D-03 0.100000000000D+01
0.430811153895D-08 0.000000000000D+00 0.000000000000D+00 0.287476259291D-06 0.822608816590D-08  6 -2 1 25 -24 2 -2 4 0.28660780D-02 0.25521512D+00 0.28550961D+05 0.28550961D+05 0.28550961D+05 0.12171615D+01  1  2 11  6  6  1       21 0.211704439180D-05 0.100000000000D+01
0.229647595451D-06 0.000000000000D+00 0.000000000000D+00 0.286428835409D-06 0.000000000000D+00  6 2 1 25 -24 2 2 4 0.28755954D-02 0.25330961D+00 0.28550961D+05 0.28550961D+05 0.28550961D+05 0.12171615D+01  1  2 12  7  6  1       21 0.130053049970D-03 0.100000000000D+01
0.230604444329D-06 0.000000000000D+00 0.000000000000D+00 0.286428835409D-06 0.000000000000D+00  6 2 1 25 -24 2 2 4 0.29406840D-02 0.25330961D+00 0.28550961D+05 0.28550961D+05 0.28550961D+05 0.12171615D+01  1  2 12  7  6  1       21 0.126695873637D-03 0.100000000000D+01
-.749630405293D-06 0.000000000000D+00 -.844004494815D-07 0.287476259291D-06 0.000000000000D+00  6 2 1 25 -24 2 2 4 0.28886737D-02 0.25330961D+00 0.27202977D+05 0.27202977D+05 0.27202977D+05 0.12193849D+01  1  2  5  7  6  1       21 -.425007981932D-03 0.100000000000D+01
0.180295270698D-08 0.000000000000D+00 0.000000000000D+00 0.287476259291D-06 0.669864180484D-09  6 2 1 25 -24 2 2 4 0.28660780D-02 0.25521512D+00 0.28550961D+05 0.28550961D+05 0.28550961D+05 0.12171615D+01  1  2 11  7  6  1       21 0.100694651314D-05 0.100000000000D+01
0.229647595451D-06 0.000000000000D+00 0.000000000000D+00 0.286428835409D-06 0.000000000000D+00  6 -3 1 25 -24 2 -3 4 0.28755954D-02 0.25330961D+00 0.28550961D+05 0.28550961D+05 0.28550961D+05 0.12171615D+01  1  2 12  8  6  1       21 0.875853972266D-04 0.100000000000D+01
0.229647595451D-06 0.000000000000D+00 0.000000000000D+00 0.286428835409D-06 0.000000000000D+00  6 -4 1 25 -24 2 -4 4 0.28755954D-02 0.25330961D+00 0.28550961D+05 0.28550961D+05 0.28550961D+05 0.12171615D+01  1  2 12  8  6  1       21 0.793304727663D-04 0.100000000000D+01
0.230604444329D-06 0.000000000000D+00 0.000000000000D+00 0.286428835409D-06 0.000000000000D+00  6 -3 1 25 -24 2 -3 4 0.29406840D-02 0.25330961D+00 0.28550961D+05 0.28550961D+05 0.28550961D+05 0.12171615D+01  1  2 12  8  6  1       21 0.849501406069D-04 0.100000000000D+01
0.230604444329D-06 0.000000000000D+00 0.000000000000D+00 0.286428835409D-06 0.000000000000D+00  6 -4 1 25 -24 2 -4 4 0.29406840D-02 0.25330961D+00 0.28550961D+05 0.28550961D+05 0.28550961D+05 0.12171615D+01  1  2 12  8  6  1       21 0.769082405241D-04 0.100000000000D+01
-.749630405293D-06 0.000000000000D+00 -.844004494815D-07 0.287476259291D-06 0.000000000000D+00  6 -3 1 25 -24 2 -3 4 0.28886737D-02 0.25330961D+00 0.27202977D+05 0.27202977D+05 0.27202977D+05 0.12193849D+01  1  2  5  8  6  1       21 -.285671393246D-03 0.100000000000D+01
-.749630405293D-06 0.000000000000D+00 -.844004494815D-07 0.287476259291D-06 0.000000000000D+00  6 -4 1 25 -24 2 -4 4 0.28886737D-02 0.25330961D+00 0.27202977D+05 0.27202977D+05 0.27202977D+05 0.12193849D+01  1  2  5  8  6  1       21 -.258610936170D-03 0.100000000000D+01
0.175770323404D-08 0.000000000000D+00 0.000000000000D+00 0.287476259291D-06 0.128927939858D-08  6 -3 1 25 -24 2 -3 4 0.28660780D-02 0.25521512D+00 0.28550961D+05 0.28550961D+05 0.28550961D+05 0.12171615D+01  1  2 11  8  6  1       21 0.661544915136D-06 0.100000000000D+01
0.175770323404D-08 0.000000000000D+00 0.000000000000D+00 0.287476259291D-06 0.128927939858D-08  6 -4 1 25 -24 2 -4 4 0.28660780D-02 0.25521512D+00 0.28550961D+05 0.28550961D+05 0.28550961D+05 0.12171615D+01  1  2 11  8  6  1       21 0.599234843241D-06 0.100000000000D+01
0.229647595451D-06 0.000000000000D+00 0.000000000000D+00 0.286428835409D-06 0.000000000000D+00  6 3 1 25 -24 2 3 4 0.28755954D-02 0.25330961D+00 0.28550961D+05 0.28550961D+05 0.28550961D+05 0.12171615D+01  1  2 12  9  6  1       21 0.875792591668D-04 0.100000000000D+01
0.229647595451D-06 0.000000000000D+00 0.000000000000D+00 0.286428835409D-06 0.000000000000D+00  6 4 1 25 -24 2 4 4 0.28755954D-02 0.25330961D+00 0.28550961D+05 0.28550961D+05 0.28550961D+05 0.12171615D+01  1  2 12  9  6  1       21 0.793304727663D-04 0.100000000000D+01
0.230604444329D-06 0.000000000000D+00 0.000000000000D+00 0.286428835409D-06 0.000000000000D+00  6 3 1 25 -24 2 3 4 0.29406840D-02 0.25330961D+00 0.28550961D+05 0.28550961D+05 0.28550961D+05 0.12171615D+01  1  2 12  9  6  1       21 0.849441042867D-04 0.100000000000D+01
0.230604444329D-06 0.000000000000D+00 0.000000000000D+00 0.286428835409D-06 0.000000000000D+00  6 4 1 25 -24 2 4 4 0.29406840D-02 0.25330961D+00 0.28550961D+05 0.28550961D+05 0.28550961D+05 0.12171615D+01  1  2 12  9  6  1       21 0.769082405241D-04 0.100000000000D+01
-.749630405293D-06 0.000000000000D+00 -.844004494815D-07 0.287476259291D-06 0.000000000000D+00  6 3 1 25 -24 2 3 4 0.28886737D-02 0.25330961D+00 0.27202977D+05 0.27202977D+05 0.27202977D+05 0.12193849D+01  1  2  5  9  6  1       21 -.285651240484D-03 0.100000000000D+01
-.749630405293D-06 0.000000000000D+00 -.844004494815D-07 0.287476259291D-06 0.000000000000D+00  6 4 1 25 -24 2 4 4 0.28886737D-02 0.25330961D+00 0.27202977D+05 0.27202977D+05 0.27202977D+05 0.12193849D+01  1  2  5  9  6  1       21 -.258610936170D-03 0.100000000000D+01
0.175770323404D-08 0.000000000000D+00 0.000000000000D+00 0.287476259291D-06 0.128927939858D-08  6 3 1 25 -24 2 3 4 0.28660780D-02 0.25521512D+00 0.28550961D+05 0.28550961D+05 0.28550961D+05 0.12171615D+01  1  2 11  9  6  1       21 0.661498648646D-06 0.100000000000D+01
0.175770323404D-08 0.000000000000D+00 0.000000000000D+00 0.287476259291D-06 0.128927939858D-08  6 4 1 25 -24 2 4 4 0.28660780D-02 0.25521512D+00 0.28550961D+05 0.28550961D+05 0.28550961D+05 0.12171615D+01  1  2 11  9  6  1       21 0.599234843241D-06 0.100000000000D+01
  </mgrwgt>
  </event>
  <event>
  6     66 -.45631637E-03 0.85541128E+02 0.75467711E-02 0.11465259E+00
       21 -1    0    0  501  502 0.00000000E+00 0.00000000E+00 0.18007119E+03 0.18007275E+03 0.75000000E+00 0.0000E+00 0.9000E+01
        3 -1    0    0  503    0 0.00000000E+00 0.00000000E+00 -.29694926E+03 0.29694969E+03 0.50000000E+00 0.0000E+00 0.9000E+01
       25  1    1    2    0    0 -.70269318E+02 -.15263783E+02 0.20722904E+02 0.14568871E+03 0.12500000E+03 0.0000E+00 0.9000E+01
      -24  1    1    2    0    0 0.26485649E+02 0.11583344E+03 0.21285859E+01 0.14349433E+03 0.80419002E+02 0.0000E+00 0.9000E+01
        4  1    1    2  501    0 0.21583470E+02 -.94600182E+02 -.13145606E+03 0.16339565E+03 0.15500000E+01 0.0000E+00 0.9000E+01
       21  1    1    2  503  502 0.22200199E+02 -.59694755E+01 -.82735069E+01 0.24443750E+02 0.75000000E+00 0.0000E+00 0.9000E+01
#aMCatNLO 2  0  0  2  1 0.22988769D+02 0.00000000D+00  -5  6  0 0.00000000D+00 0.00000000D+00 0.00000000D+00 0.00000000D+00 0.00000000D+00
  <mgrwgt>
 -.1187496404D-01    3    2    0
 0.219376406298510D+03 0.000000000000000D+00 0.000000000000000D+00 0.219376406298510D+03
 0.219376406298510D+03 0.000000000000000D+00 0.000000000000000D+00 -.219376406298510D+03
 0.152062107935204D+03 -.625018917154714D+02 -.173504584243665D+02 0.573616578748340D+02
 0.148309073951388D+03 0.339848255725944D+02 0.113818848902343D+03 0.376651925163500D+02
 0.138381630710428D+03 0.285170661428770D+02 -.964683904779770D+02 -.950268503911840D+02
 0.000000000000000D+00 0.000000000000000D+00 -.000000000000000D+00 -.000000000000000D+00
 0.229998320860287D+03 0.000000000000000D+00 0.000000000000000D+00 0.229998320860287D+03
 0.232478506877352D+03 0.000000000000000D+00 0.000000000000000D+00 -.232478506877352D+03
 0.155197128173001D+03 -.702699799362210D+02 -.152616748347121D+02 0.573616578748340D+02
 0.148341501806389D+03 0.264849441291247D+02 0.115835513600052D+03 0.376651925163500D+02
 0.135816026362360D+03 0.215848364822064D+02 -.946043633012200D+02 -.950268503911840D+02
 0.231221713958878D+02 0.222001993248898D+02 -.596947546412012D+01 -.248018601706500D+01
-.449883257987D-04 0.000000000000D+00 0.000000000000D+00 0.116282820189D-06 0.000000000000D+00  6 21 3 25 -24 4 21 4 0.26423302D-01 0.46671321D-01 0.41557231D+05 0.41557231D+05 0.41557231D+05 0.12003195D+01  1  2 13  2  6  2        3 -.288133703340D-01 0.100000000000D+01
-.111542716927D-10 0.000000000000D+00 0.000000000000D+00 0.117272442263D-06 0.000000000000D+00  6 21 3 25 -24 4 21 4 0.26423302D-01 0.43108810D-01 0.37031162D+05 0.37031162D+05 0.37031162D+05 0.12054164D+01  1  2  8  2  6  2        3 -.849740881073D-08 0.100000000000D+01
0.277667757055D-04 0.000000000000D+00 0.000000000000D+00 0.117272442263D-06 0.426036337541D-08  6 21 3 25 -24 4 21 4 0.27702683D-01 0.45683453D-01 0.41557231D+05 0.41557231D+05 0.41557231D+05 0.12003195D+01  1  2  1  2  6  2        3 0.169384147912D-01 0.100000000000D+01
  </mgrwgt>
  </event>
  <event>
  5     66 0.45631637E-03 0.15987788E+03 0.75467711E-02 0.10185041E+00
       21 -1    0    0  501  502 0.00000000E+00 0.00000000E+00 0.28584145E+02 0.28593983E+02 0.75000000E+00 0.0000E+00 0.9000E+01
        1 -1    0    0  502    0 0.00000000E+00 0.00000000E+00 -.17976062E+04 0.17976062E+04 0.32000000E+00 0.0000E+00 0.9000E+01
       25  1    1    2    0    0 -.26600127E+02 -.14093942E+03 -.55312786E+03 0.58493325E+03 0.12500000E+03 0.0000E+00 0.9000E+01
      -24  1    1    2    0    0 0.35343012E+02 -.18699032E+02 -.43886595E+03 0.44796129E+03 0.80419002E+02 0.0000E+00 0.9000E+01
        2  1    1    2  501    0 -.87428847E+01 0.15963845E+03 -.77702822E+03 0.79330564E+03 0.32000000E+00 0.0000E+00 0.9000E+01
#aMCatNLO 1  0  0  1  2 0.38383571D+03 0.00000000D+00  -5  6  0 0.00000000D+00 0.00000000D+00 0.00000000D+00 0.00000000D+00 0.00000000D+00
  <mgrwgt>
 0.3287937840D-01   12    2    0
 0.226698134398140D+03 0.000000000000000D+00 0.000000000000000D+00 0.226698134398140D+03
 0.226698134398140D+03 0.000000000000000D+00 0.000000000000000D+00 -.226698134398140D+03
 0.197862018114299D+03 -.266001196124177D+02 -.140939552277485D+03 0.543401734694511D+02
 0.919801753102306D+02 0.353430150590209D+02 -.186990939914637D+02 -.198582946439631D+02
 0.163554075371751D+03 -.874289544660319D+01 0.159638646268949D+03 -.344818788254880D+02
 0.000000000000000D+00 -.000000000000000D+00 0.000000000000000D+00 0.000000000000000D+00
 0.731877633694138D+03 0.000000000000000D+00 0.000000000000000D+00 0.731877633694138D+03
 0.381727344583286D+03 0.000000000000000D+00 0.000000000000000D+00 -.381727344583286D+03
 0.378524969584208D+03 -.262665154831796D+02 -.352155318446857D+03 0.543401734694511D+02
 0.136392441820941D+03 0.354751936989033D+02 -.102385746065393D+03 -.198582946439631D+02
 0.791347996781910D+02 -.860243077171506D+01 0.707058324156475D+02 -.344818788254880D+02
 0.519552767194084D+03 -.606247444008614D+00 0.383835232096603D+03 0.350150289110853D+03
0.844159949681D-05 0.000000000000D+00 0.000000000000D+00 0.143630760895D-06 0.000000000000D+00  6 21 1 25 -24 2 21 2 0.43983197D-02 0.27655555D+00 0.48387380D+05 0.48387380D+05 0.48387380D+05 0.11936944D+01  1  2  2  1  6  1       21 0.207705559386D-01 0.100000000000D+01
-.923208661034D-06 0.445475444194D-06 -.170411572514D-07 0.143630760895D-06 0.000000000000D+00  6 21 1 25 -24 2 21 4 0.43983197D-02 0.27655555D+00 0.48387380D+05 0.48387380D+05 0.48387380D+05 0.11936944D+01  1  2  3  1  6  1       21 -.323675300234D-02 0.100000000000D+01
0.864356589723D-06 0.000000000000D+00 0.000000000000D+00 0.143630760895D-06 0.000000000000D+00  6 21 1 25 -24 2 21 4 0.43983197D-02 0.27655555D+00 0.48387380D+05 0.48387380D+05 0.48387380D+05 0.11936944D+01  1  2 15  1  6  1       21 0.303041869618D-02 0.100000000000D+01
0.704955665233D-04 0.000000000000D+00 -.878561698222D-04 0.143630760895D-06 0.000000000000D+00  6 21 1 25 -24 2 21 4 0.27160570D-01 0.27655555D+00 0.48387380D+05 0.48387380D+05 0.48387380D+05 0.11936944D+01  1  2  5  1  6  1       21 0.946473847491D-02 0.100000000000D+01
0.312342134052D-04 0.000000000000D+00 -.372880298528D-04 0.143630760895D-06 0.000000000000D+00  6 -1 1 25 -24 2 -1 4 0.27160570D-01 0.27655555D+00 0.48387380D+05 0.48387380D+05 0.48387380D+05 0.11936944D+01  1  2  5  4  6  1       21 0.360845788778D-03 0.100000000000D+01
0.312342134052D-04 0.000000000000D+00 -.372880298528D-04 0.143630760895D-06 0.000000000000D+00  6 1 1 25 -24 2 1 4 0.27160570D-01 0.27655555D+00 0.48387380D+05 0.48387380D+05 0.48387380D+05 0.11936944D+01  1  2  5  5  6  1       21 0.608004248249D-03 0.100000000000D+01
0.312342134052D-04 0.000000000000D+00 -.372880298528D-04 0.143630760895D-06 0.000000000000D+00  6 -2 1 25 -24 2 -2 4 0.27160570D-01 0.27655555D+00 0.48387380D+05 0.48387380D+05 0.48387380D+05 0.11936944D+01  1  2  5  6  6  1       21 0.320638599616D-03 0.100000000000D+01
0.312342134052D-04 0.000000000000D+00 -.372880298528D-04 0.143630760895D-06 0.000000000000D+00  6 2 1 25 -24 2 2 4 0.27160570D-01 0.27655555D+00 0.48387380D+05 0.48387380D+05 0.48387380D+05 0.11936944D+01  1  2  5  7  6  1       21 0.787321571089D-03 0.100000000000D+01
0.312342134052D-04 0.000000000000D+00 -.372880298528D-04 0.143630760895D-06 0.000000000000D+00  6 -3 1 25 -24 2 -3 4 0.27160570D-01 0.27655555D+00 0.48387380D+05 0.48387380D+05 0.48387380D+05 0.11936944D+01  1  2  5  8  6  1       21 0.209093481641D-03 0.100000000000D+01
0.312342134052D-04 0.000000000000D+00 -.372880298528D-04 0.143630760895D-06 0.000000000000D+00  6 -4 1 25 -24 2 -4 4 0.27160570D-01 0.27655555D+00 0.48387380D+05 0.48387380D+05 0.48387380D+05 0.11936944D+01  1  2  5  8  6  1       21 0.177710906521D-03 0.100000000000D+01
0.312342134052D-04 0.000000000000D+00 -.372880298528D-04 0.143630760895D-06 0.000000000000D+00  6 3 1 25 -24 2 3 4 0.27160570D-01 0.27655555D+00 0.48387380D+05 0.48387380D+05 0.48387380D+05 0.11936944D+01  1  2  5  9  6  1       21 0.209092792523D-03 0.100000000000D+01
0.312342134052D-04 0.000000000000D+00 -.372880298528D-04 0.143630760895D-06 0.000000000000D+00  6 4 1 25 -24 2 4 4 0.27160570D-01 0.27655555D+00 0.48387380D+05 0.48387380D+05 0.48387380D+05 0.11936944D+01  1  2  5  9  6  1       21 0.177710906521D-03 0.100000000000D+01
  </mgrwgt>
  </event>
  <event>
  6     66 0.45631637E-03 0.35178141E+02 0.75467711E-02 0.10994348E+00
       21 -1    0    0  501  502 0.00000000E+00 0.00000000E+00 0.51927188E+02 0.51932603E+02 0.75000000E+00 0.0000E+00 0.9000E+01
        1 -1    0    0  502    0 -.00000000E+00 -.00000000E+00 -.15602288E+04 0.15602288E+04 0.32000000E+00 0.0000E+00 0.9000E+01
       25  1    1    2    0    0 -.10144879E+02 -.21343883E+03 -.71898621E+03 0.76041122E+03 0.12500000E+03 0.0000E+00 0.9000E+01
      -24  1    1    2    0    0 0.30611829E+02 0.24204734E+03 -.75453568E+03 0.79706669E+03 0.80419002E+02 0.0000E+00 0.9000E+01
        2  1    1    2  503    0 -.24928285E+02 -.27943915E+02 -.32449342E+02 0.49551428E+02 0.32000000E+00 0.0000E+00 0.9000E+01
       21  1    1    2  501  503 0.44613354E+01 -.66460335E+00 -.23303695E+01 0.51320886E+01 0.75000000E+00 0.0000E+00 0.9000E+01
#aMCatNLO 2  0  0  5  1 0.72150127D+01 0.00000000D+00  -5  6  0 0.00000000D+00 0.00000000D+00 0.00000000D+00 0.00000000D+00 0.00000000D+00
  <mgrwgt>
 0.9712257584D-01    3    2    0
 0.284644839930134D+03 0.000000000000000D+00 0.000000000000000D+00 0.284644839930134D+03
 0.284644839930134D+03 -.000000000000000D+00 -.000000000000000D+00 -.284644839930134D+03
 0.247764545314910D+03 -.945372329171638D+01 -.212472734703234D+03 -.229833426367151D+02
 0.259291961111644D+03 0.313324341494674D+02 0.243054599924610D+03 -.266053597703387D+02
 0.622331734337146D+02 -.218787108577510D+02 -.305818652213755D+02 0.495887024070538D+02
 0.000000000000000D+00 0.000000000000000D+00 0.000000000000000D+00 0.000000000000000D+00
 0.284644839930134D+03 0.000000000000000D+00 0.000000000000000D+00 0.284644839930134D+03
 0.284644839930134D+03 -.000000000000000D+00 -.000000000000000D+00 -.284644839930134D+03
 0.248489077302139D+03 -.101527458463541D+02 -.213449822141869D+03 -.213989887109687D+02
 0.258085001321175D+03 0.306036572710574D+02 0.242035922159869D+03 -.249535668480052D+02
 0.542769434335727D+02 -.249870775338159D+02 -.279226342906738D+02 0.392677862767894D+02
 0.843865780338227D+01 0.453616610911253D+01 -.663465727325887D+00 0.708476928218466D+01
-.179653800846D-04 0.000000000000D+00 0.000000000000D+00 0.344565169921D-06 0.000000000000D+00  6 21 1 25 -24 2 21 4 0.79892172D-02 0.24003562D+00 0.74664624D+05 0.74664624D+05 0.74664624D+05 0.11754108D+01  1  2 13  3  6  5        2 -.298412109757D-01 0.100000000000D+01
-.345136330133D-03 0.000000000000D+00 0.000000000000D+00 0.344944598335D-06 0.000000000000D+00  6 21 1 25 -24 2 21 4 0.79892172D-02 0.24003562D+00 0.73501140D+05 0.73501140D+05 0.73501140D+05 0.11760578D+01  1  2  8  3  6  5        2 -.574886089314D+00 0.100000000000D+01
0.422536464664D-03 0.000000000000D+00 0.000000000000D+00 0.344944598335D-06 0.167475578823D-06  6 21 1 25 -24 2 21 4 0.79892172D-02 0.24003562D+00 0.74664624D+05 0.74664624D+05 0.74664624D+05 0.11754108D+01  1  2  1  3  6  5        2 0.701849876126D+00 0.100000000000D+01
  </mgrwgt>
  </event>
  <event>
  6     66 0.45631637E-03 0.36390104E+02 0.75467711E-02 0.11600516E+00
       21 -1    0    0  501  502 0.00000000E+00 0.00000000E+00 0.28575387E+03 0.28575486E+03 0.75000000E+00 0.0000E+00 0.9000E+01
        3 -1    0    0  502    0 -.00000000E+00 -.00000000E+00 -.43996610E+03 0.43996638E+03 0.50000000E+00 0.0000E+00 0.9000E+01
       25  1    1    2    0    0 0.90788102E+02 -.44199876E+02 -.25632174E+03 0.30252594E+03 0.12500000E+03 0.0000E+00 0.9000E+01
      -24  1    1    2    0    0 -.13256689E+03 0.64095989E+01 -.11564338E+03 0.19353467E+03 0.80419002E+02 0.0000E+00 0.9000E+01
        4  1    1    2  503    0 0.25765914E+02 0.36296756E+02 0.20298346E+03 0.20781247E+03 0.15500000E+01 0.0000E+00 0.9000E+01
       21  1    1    2  501  503 0.16012876E+02 0.14935212E+01 0.14769437E+02 0.21848148E+02 0.75000000E+00 0.0000E+00 0.9000E+01
#aMCatNLO 2  0  0  5  1 0.12970117D+02 0.00000000D+00  -5  6  0 0.00000000D+00 0.00000000D+00 0.00000000D+00 0.00000000D+00 0.00000000D+00
  <mgrwgt>
 0.1629129662D-01    2    2    0
 0.354573652916826D+03 0.000000000000000D+00 0.000000000000000D+00 0.354573652916826D+03
 0.354573652916826D+03 -.000000000000000D+00 -.000000000000000D+00 -.354573652916826D+03
 0.254863817327531D+03 0.905809346020697D+02 -.443872662342124D+02 -.197877311144128D+03
 0.173421256557855D+03 -.132707929483509D+03 0.628202598988808D+01 -.771806832918513D+02
 0.280862231948266D+03 0.421269948814395D+02 0.381052402443243D+02 0.275057994435979D+03
 0.000000000000000D+00 0.000000000000000D+00 0.000000000000000D+00 0.000000000000000D+00
 0.354573652916826D+03 0.000000000000000D+00 0.000000000000000D+00 0.354573652916826D+03
 0.354573652916826D+03 -.000000000000000D+00 -.000000000000000D+00 -.354573652916826D+03
 0.253854529278281D+03 0.907884790222293D+02 -.441995355400623D+02 -.196522200196240D+03
 0.172908988359957D+03 -.132566635365959D+03 0.640983112551445D+01 -.762581376246777D+02
 0.256724765819532D+03 0.256939443739042D+02 0.362923398252739D+02 0.252844404086013D+03
 0.256590223758813D+02 0.160842119698258D+02 0.149736458927395D+01 0.199359337349039D+02
-.272757577055D-04 0.000000000000D+00 0.000000000000D+00 0.260014205837D-05 0.000000000000D+00  6 21 3 25 -24 4 21 4 0.43962232D-01 0.67687189D-01 0.34731567D+05 0.34731567D+05 0.34731567D+05 0.12082792D+01  1  2  8  3  6  5        4 -.305619777427D-02 0.100000000000D+01
0.173235106964D-03 0.000000000000D+00 0.000000000000D+00 0.260014205837D-05 0.971206823659D-07  6 21 3 25 -24 4 21 4 0.43962232D-01 0.67687189D-01 0.35437083D+05 0.35437083D+05 0.35437083D+05 0.12073789D+01  1  2  1  3  6  5        4 0.193474943954D-01 0.100000000000D+01
  </mgrwgt>
  </event>
  <event>
  5     66 -.45631637E-03 0.78700986E+02 0.75467711E-02 0.11304160E+00
       21 -1    0    0  501  502 0.00000000E+00 0.00000000E+00 0.11664392E+02 0.11688479E+02 0.75000000E+00 0.0000E+00 0.9000E+01
        1 -1    0    0  502    0 0.00000000E+00 0.00000000E+00 -.27401142E+04 0.27401143E+04 0.32000000E+00 0.0000E+00 0.9000E+01
       25  1    1    2    0    0 0.13438087E+02 0.29754641E+02 -.69999958E+03 0.71182184E+03 0.12500000E+03 0.0000E+00 0.9000E+01
      -24  1    1    2    0    0 -.34443111E+02 -.10560024E+03 -.13690022E+04 0.13758532E+04 0.80419002E+02 0.0000E+00 0.9000E+01
        2  1    1    2  501    0 0.21005024E+02 0.75845600E+02 -.65944804E+03 0.66412769E+03 0.32000000E+00 0.0000E+00 0.9000E+01
#aMCatNLO 1  0  0  1  1 0.92228199D+02 0.00000000D+00  -5  6  0 0.00000000D+00 0.00000000D+00 0.00000000D+00 0.00000000D+00 0.00000000D+00
  <mgrwgt>
 -.1325042115D+00   13    2    0
 0.178871279926243D+03 0.000000000000000D+00 0.000000000000000D+00 0.178871279926243D+03
 0.178871279926243D+03 0.000000000000000D+00 0.000000000000000D+00 -.178871279926243D+03
 0.136633239425757D+03 0.134380211478136D+02 0.297544039168419D+02 0.444717567806870D+02
 0.142065230774692D+03 -.344431796422202D+02 -.105600488406669D+03 -.371149304876444D+02
 0.790440896520363D+02 0.210051584944066D+02 0.758460844898273D+02 -.735682629304256D+01
 0.000000000000000D+00 0.000000000000000D+00 -.000000000000000D+00 0.000000000000000D+00
 0.313931676132302D+03 0.000000000000000D+00 0.000000000000000D+00 0.313931676132302D+03
 0.201177467798319D+03 0.000000000000000D+00 0.000000000000000D+00 -.201177467798319D+03
 0.137856720034646D+03 -.213612312235184D+02 0.307479415272866D+02 0.444717567806870D+02
 0.154809484832777D+03 -.720803237162717D+02 -.104525927442305D+03 -.371149304876444D+02
 0.767736141284778D+02 0.125092191526574D+01 0.764100787043458D+02 -.735682629304256D+01
 0.145669324934721D+03 0.921906330245244D+02 -.263209278932762D+01 0.112754208333983D+03
0.178275646630D-04 0.000000000000D+00 0.000000000000D+00 0.171100071900D-06 0.000000000000D+00  6 21 1 25 -24 2 21 2 0.17963762D-02 0.42155789D+00 0.29760673D+05 0.29760673D+05 0.29760673D+05 0.12152637D+01  1  2  2  1  6  1       21 0.491949143517D-01 0.100000000000D+01
-.130052748735D-05 0.940786433914D-06 -.359887167055D-07 0.171100071900D-06 0.000000000000D+00  6 21 1 25 -24 2 21 4 0.17963762D-02 0.42155789D+00 0.29760673D+05 0.29760673D+05 0.29760673D+05 0.12152637D+01  1  2  3  1  6  1       21 -.530015706896D-02 0.100000000000D+01
0.192132962278D-05 0.000000000000D+00 0.000000000000D+00 0.171100071900D-06 0.000000000000D+00  6 21 1 25 -24 2 21 4 0.17963762D-02 0.42155789D+00 0.29760673D+05 0.29760673D+05 0.29760673D+05 0.12152637D+01  1  2 15  1  6  1       21 0.783016805184D-02 0.100000000000D+01
-.206937495179D-04 0.000000000000D+00 0.000000000000D+00 0.171100071900D-06 0.000000000000D+00  6 21 1 25 -24 2 21 4 0.17963762D-02 0.42155789D+00 0.29760673D+05 0.29760673D+05 0.29760673D+05 0.12152637D+01  1  2  4  1  6  1       21 -.843351054532D-01 0.100000000000D+01
-.733936949967D-04 0.000000000000D+00 -.253931733736D-04 0.171100071900D-06 0.000000000000D+00  6 21 1 25 -24 2 21 4 0.36991559D-02 0.42155789D+00 0.29760673D+05 0.29760673D+05 0.29760673D+05 0.12152637D+01  1  2  5  1  6  1       21 -.914214345986D-01 0.100000000000D+01
-.177909973826D-04 0.000000000000D+00 -.652195334226D-05 0.171100071900D-06 0.000000000000D+00  6 -1 1 25 -24 2 -1 4 0.36991559D-02 0.42155789D+00 0.29760673D+05 0.29760673D+05 0.29760673D+05 0.12152637D+01  1  2  5  4  6  1       21 -.120267625136D-02 0.100000000000D+01
-.177909973826D-04 0.000000000000D+00 -.652195334226D-05 0.171100071900D-06 0.000000000000D+00  6 1 1 25 -24 2 1 4 0.36991559D-02 0.42155789D+00 0.29760673D+05 0.29760673D+05 0.29760673D+05 0.12152637D+01  1  2  5  5  6  1       21 -.131509072795D-02 0.100000000000D+01
-.177909973826D-04 0.000000000000D+00 -.652195334226D-05 0.171100071900D-06 0.000000000000D+00  6 -2 1 25 -24 2 -2 4 0.36991559D-02 0.42155789D+00 0.29760673D+05 0.29760673D+05 0.29760673D+05 0.12152637D+01  1  2  5  6  6  1       21 -.118267816180D-02 0.100000000000D+01
-.177909973826D-04 0.000000000000D+00 -.652195334226D-05 0.171100071900D-06 0.000000000000D+00  6 2 1 25 -24 2 2 4 0.36991559D-02 0.42155789D+00 0.29760673D+05 0.29760673D+05 0.29760673D+05 0.12152637D+01  1  2  5  7  6  1       21 -.139116644779D-02 0.100000000000D+01
-.177909973826D-04 0.000000000000D+00 -.652195334226D-05 0.171100071900D-06 0.000000000000D+00  6 -3 1 25 -24 2 -3 4 0.36991559D-02 0.42155789D+00 0.29760673D+05 0.29760673D+05 0.29760673D+05 0.12152637D+01  1  2  5  8  6  1       21 -.889199502657D-03 0.100000000000D+01
-.177909973826D-04 0.000000000000D+00 -.652195334226D-05 0.171100071900D-06 0.000000000000D+00  6 -4 1 25 -24 2 -4 4 0.36991559D-02 0.42155789D+00 0.29760673D+05 0.29760673D+05 0.29760673D+05 0.12152637D+01  1  2  5  8  6  1       21 -.801329190678D-03 0.100000000000D+01
-.177909973826D-04 0.000000000000D+00 -.652195334226D-05 0.171100071900D-06 0.000000000000D+00  6 3 1 25 -24 2 3 4 0.36991559D-02 0.42155789D+00 0.29760673D+05 0.29760673D+05 0.29760673D+05 0.12152637D+01  1  2  5  9  6  1       21 -.889127287003D-03 0.100000000000D+01
-.177909973826D-04 0.000000000000D+00 -.652195334226D-05 0.171100071900D-06 0.000000000000D+00  6 4 1 25 -24 2 4 4 0.36991559D-02 0.42155789D+00 0.29760673D+05 0.29760673D+05 0.29760673D+05 0.12152637D+01  1  2  5  9  6  1       21 -.801329190678D-03 0.100000000000D+01
  </mgrwgt>
  </event>
  <event>
  5     66 0.45631637E-03 0.70770456E+02 0.75467711E-02 0.11921679E+00
       21 -1    0    0  501  502 0.00000000E+00 0.00000000E+00 0.19529719E+03 0.19529863E+03 0.75000000E+00 0.0000E+00 0.9000E+01
        1 -1    0    0  502    0 0.00000000E+00 0.00000000E+00 -.27218172E+03 0.27218190E+03 0.32000000E+00 0.0000E+00 0.9000E+01
       25  1    1    2    0    0 -.23204910E+02 -.66265428E+02 -.19406076E+03 0.24127609E+03 0.12500000E+03 0.0000E+00 0.9000E+01
      -24  1    1    2    0    0 -.37986770E+02 0.15110547E+02 0.74052932E+01 0.90517278E+02 0.80419002E+02 0.0000E+00 0.9000E+01
        2  1    1    2  501    0 0.61191681E+02 0.51154881E+02 0.10977094E+03 0.13568716E+03 0.32000000E+00 0.0000E+00 0.9000E+01
#aMCatNLO 1  0  0  1  1 0.64966903D+00 0.00000000D+00  -5  6  0 0.00000000D+00 0.00000000D+00 0.00000000D+00 0.00000000D+00 0.00000000D+00
  <mgrwgt>
 0.7139415877D-01   39    2    0
 0.230557377747429D+03 0.000000000000000D+00 0.000000000000000D+00 0.230557377747429D+03
 0.230557377747429D+03 0.000000000000000D+00 0.000000000000000D+00 -.230557377747429D+03
 0.212250118452355D+03 -.232049695108767D+02 -.662654775151530D+02 -.156510474610253D+03
 0.930016103507421D+02 -.379867964497464D+02 0.151105248955439D+02 0.225999758036907D+02
 0.155863026691760D+03 0.611917659606232D+02 0.511549526196091D+02 0.133910498806562D+03
 0.000000000000000D+00 0.000000000000000D+00 -.000000000000000D+00 0.000000000000000D+00
 0.232543856269862D+03 0.000000000000000D+00 0.000000000000000D+00 0.232543856269862D+03
 0.230610730545247D+03 0.000000000000000D+00 0.000000000000000D+00 -.230610730545247D+03
 0.212275879604486D+03 -.235031749254354D+02 -.662428952232320D+02 -.156510474610253D+03
 0.930566774020295D+02 -.381174918349180D+02 0.151204221046373D+02 0.225999758036907D+02
 0.155782656150599D+03 0.609728525596235D+02 0.511715303411575D+02 0.133910498806562D+03
 0.203937365799425D+01 0.647814200729861D+00 -.490572225628862D-01 0.193312572461493D+01
0.369808508711D-05 0.000000000000D+00 0.000000000000D+00 0.551352450585D-06 0.000000000000D+00  6 21 1 25 -24 2 21 2 0.30045847D-01 0.41874235D-01 0.24545501D+05 0.24545501D+05 0.24545501D+05 0.12241528D+01  1  2  2  1  6  1       21 0.641044944961D-02 0.100000000000D+01
-.118728410553D-07 0.195153311581D-06 -.746536832534D-08 0.551352450585D-06 0.000000000000D+00  6 21 1 25 -24 2 21 4 0.30045847D-01 0.41874235D-01 0.24545501D+05 0.24545501D+05 0.24545501D+05 0.12241528D+01  1  2  3  1  6  1       21 -.308416445455D-04 0.100000000000D+01
0.366458254024D-06 0.000000000000D+00 0.000000000000D+00 0.551352450585D-06 0.000000000000D+00  6 21 1 25 -24 2 21 4 0.30045847D-01 0.41874235D-01 0.24545501D+05 0.24545501D+05 0.24545501D+05 0.12241528D+01  1  2 15  1  6  1       21 0.951935190471D-03 0.100000000000D+01
-.164287753069D-02 0.000000000000D+00 0.000000000000D+00 0.551352450585D-06 0.000000000000D+00  6 21 1 25 -24 2 21 4 0.30045847D-01 0.41874235D-01 0.24545501D+05 0.24545501D+05 0.24545501D+05 0.12241528D+01  1  2  4  1  6  1       21 -.426764281586D+01 0.100000000000D+01
-.344068711443D-02 0.000000000000D+00 -.127157626867D-03 0.551352450585D-06 0.000000000000D+00  6 21 1 25 -24 2 21 4 0.30308837D-01 0.41874235D-01 0.24545501D+05 0.24545501D+05 0.24545501D+05 0.12241528D+01  1  2  5  1  6  1       21 -.878789728591D+01 0.100000000000D+01
0.344129887319D-02 0.000000000000D+00 0.127138313900D-03 0.551352450585D-06 0.000000000000D+00  6 21 1 25 -24 2 21 4 0.30045847D-01 0.41874235D-01 0.24545501D+05 0.24545501D+05 0.24545501D+05 0.12241528D+01  1  2  6  1  6  1       21 0.893933609721D+01 0.100000000000D+01
0.163865969081D-02 0.000000000000D+00 0.000000000000D+00 0.551352450585D-06 0.341656744081D-04  6 21 1 25 -24 2 21 4 0.30304721D-01 0.41883925D-01 0.24637615D+05 0.24637615D+05 0.24637615D+05 0.12239781D+01  1  2 11  1  6  1       21 0.418264490895D+01 0.100000000000D+01
0.157394367285D-12 0.000000000000D+00 0.000000000000D+00 0.551195051193D-06 0.000000000000D+00  6 -1 1 25 -24 2 -1 4 0.30308182D-01 0.41874235D-01 0.24637615D+05 0.24637615D+05 0.24637615D+05 0.12239781D+01  1  2 12  4  6  1       21 0.349932118802D-10 0.100000000000D+01
0.157356528964D-12 0.000000000000D+00 0.000000000000D+00 0.551195051193D-06 0.000000000000D+00  6 -1 1 25 -24 2 -1 4 0.30377850D-01 0.41874235D-01 0.24637615D+05 0.24637615D+05 0.24637615D+05 0.12239781D+01  1  2 12  4  6  1       21 0.348494345086D-10 0.100000000000D+01
-.649374901137D-05 0.000000000000D+00 -.249480669019D-06 0.551352450585D-06 0.000000000000D+00  6 -1 1 25 -24 2 -1 4 0.30308837D-01 0.41874235D-01 0.24545501D+05 0.24545501D+05 0.24545501D+05 0.12241528D+01  1  2  5  4  6  1       21 -.144447337879D-02 0.100000000000D+01
0.476922552748D-05 0.000000000000D+00 0.000000000000D+00 0.551352450585D-06 0.450419721281D-07  6 -1 1 25 -24 2 -1 4 0.30304721D-01 0.41883925D-01 0.24637615D+05 0.24637615D+05 0.24637615D+05 0.12239781D+01  1  2 11  4  6  1       21 0.106023343017D-02 0.100000000000D+01
0.157394367285D-12 0.000000000000D+00 0.000000000000D+00 0.551195051193D-06 0.000000000000D+00  6 1 1 25 -24 2 1 4 0.30308182D-01 0.41874235D-01 0.24637615D+05 0.24637615D+05 0.24637615D+05 0.12239781D+01  1  2 12  5  6  1       21 0.617719198426D-10 0.100000000000D+01
0.157356528964D-12 0.000000000000D+00 0.000000000000D+00 0.551195051193D-06 0.000000000000D+00  6 1 1 25 -24 2 1 4 0.30377850D-01 0.41874235D-01 0.24637615D+05 0.24637615D+05 0.24637615D+05 0.12239781D+01  1  2 12  5  6  1       21 0.615802659500D-10 0.100000000000D+01
-.649374901137D-05 0.000000000000D+00 -.249480669019D-06 0.551352450585D-06 0.000000000000D+00  6 1 1 25 -24 2 1 4 0.30308837D-01 0.41874235D-01 0.24545501D+05 0.24545501D+05 0.24545501D+05 0.12241528D+01  1  2  5  5  6  1       21 -.254988547694D-02 0.100000000000D+01
0.469090272742D-05 0.000000000000D+00 0.000000000000D+00 0.551352450585D-06 0.444984910905D-07  6 1 1 25 -24 2 1 4 0.30304721D-01 0.41883925D-01 0.24637615D+05 0.24637615D+05 0.24637615D+05 0.12239781D+01  1  2 11  5  6  1       21 0.184075317859D-02 0.100000000000D+01
0.157394367285D-12 0.000000000000D+00 0.000000000000D+00 0.551195051193D-06 0.000000000000D+00  6 -2 1 25 -24 2 -2 4 0.30308182D-01 0.41874235D-01 0.24637615D+05 0.24637615D+05 0.24637615D+05 0.12239781D+01  1  2 12  6  6  1       21 0.306789676370D-10 0.100000000000D+01
0.157356528964D-12 0.000000000000D+00 0.000000000000D+00 0.551195051193D-06 0.000000000000D+00  6 -2 1 25 -24 2 -2 4 0.30377850D-01 0.41874235D-01 0.24637615D+05 0.24637615D+05 0.24637615D+05 0.12239781D+01  1  2 12  6  6  1       21 0.305445944095D-10 0.100000000000D+01
-.649374901137D-05 0.000000000000D+00 -.249480669019D-06 0.551352450585D-06 0.000000000000D+00  6 -2 1 25 -24 2 -2 4 0.30308837D-01 0.41874235D-01 0.24545501D+05 0.24545501D+05 0.24545501D+05 0.12241528D+01  1  2  5  6  6  1       21 -.126637590042D-02 0.100000000000D+01
0.842140522254D-05 0.000000000000D+00 0.000000000000D+00 0.551352450585D-06 0.175205146476D-06  6 -2 1 25 -24 2 -2 4 0.30304721D-01 0.41883925D-01 0.24637615D+05 0.24637615D+05 0.24637615D+05 0.12239781D+01  1  2 11  6  6  1       21 0.164134929750D-02 0.100000000000D+01
0.157394367285D-12 0.000000000000D+00 0.000000000000D+00 0.551195051193D-06 0.000000000000D+00  6 2 1 25 -24 2 2 4 0.30308182D-01 0.41874235D-01 0.24637615D+05 0.24637615D+05 0.24637615D+05 0.12239781D+01  1  2 12  7  6  1       21 0.812973940102D-10 0.100000000000D+01
0.157356528964D-12 0.000000000000D+00 0.000000000000D+00 0.551195051193D-06 0.000000000000D+00  6 2 1 25 -24 2 2 4 0.30377850D-01 0.41874235D-01 0.24637615D+05 0.24637615D+05 0.24637615D+05 0.12239781D+01  1  2 12  7  6  1       21 0.810752908902D-10 0.100000000000D+01
-.649374901137D-05 0.000000000000D+00 -.249480669019D-06 0.551352450585D-06 0.000000000000D+00  6 2 1 25 -24 2 2 4 0.30308837D-01 0.41874235D-01 0.24545501D+05 0.24545501D+05 0.24545501D+05 0.12241528D+01  1  2  5  7  6  1       21 -.335586313476D-02 0.100000000000D+01
0.481797556755D-05 0.000000000000D+00 0.000000000000D+00 0.551352450585D-06 0.227588937195D-07  6 2 1 25 -24 2 2 4 0.30304721D-01 0.41883925D-01 0.24637615D+05 0.24637615D+05 0.24637615D+05 0.12239781D+01  1  2 11  7  6  1       21 0.248817672946D-02 0.100000000000D+01
0.157394367285D-12 0.000000000000D+00 0.000000000000D+00 0.551195051193D-06 0.000000000000D+00  6 -3 1 25 -24 2 -3 4 0.30308182D-01 0.41874235D-01 0.24637615D+05 0.24637615D+05 0.24637615D+05 0.12239781D+01  1  2 12  8  6  1       21 0.196120573336D-10 0.100000000000D+01
0.157394367285D-12 0.000000000000D+00 0.000000000000D+00 0.551195051193D-06 0.000000000000D+00  6 -4 1 25 -24 2 -4 4 0.30308182D-01 0.41874235D-01 0.24637615D+05 0.24637615D+05 0.24637615D+05 0.12239781D+01  1  2 12  8  6  1       21 0.164840642115D-10 0.100000000000D+01
0.157356528964D-12 0.000000000000D+00 0.000000000000D+00 0.551195051193D-06 0.000000000000D+00  6 -3 1 25 -24 2 -3 4 0.30377850D-01 0.41874235D-01 0.24637615D+05 0.24637615D+05 0.24637615D+05 0.12239781D+01  1  2 12  8  6  1       21 0.195238736760D-10 0.100000000000D+01
0.157356528964D-12 0.000000000000D+00 0.000000000000D+00 0.551195051193D-06 0.000000000000D+00  6 -4 1 25 -24 2 -4 4 0.30377850D-01 0.41874235D-01 0.24637615D+05 0.24637615D+05 0.24637615D+05 0.12239781D+01  1  2 12  8  6  1       21 0.164084218643D-10 0.100000000000D+01
-.649374901137D-05 0.000000000000D+00 -.249480669019D-06 0.551352450585D-06 0.000000000000D+00  6 -3 1 25 -24 2 -3 4 0.30308837D-01 0.41874235D-01 0.24545501D+05 0.24545501D+05 0.24545501D+05 0.12241528D+01  1  2  5  8  6  1       21 -.809484081821D-03 0.100000000000D+01
-.649374901137D-05 0.000000000000D+00 -.249480669019D-06 0.551352450585D-06 0.000000000000D+00  6 -4 1 25 -24 2 -4 4 0.30308837D-01 0.41874235D-01 0.24545501D+05 0.24545501D+05 0.24545501D+05 0.12241528D+01  1  2  5  8  6  1       21 -.680348114060D-03 0.100000000000D+01
0.476948786782D-05 0.000000000000D+00 0.000000000000D+00 0.551352450585D-06 0.450444497476D-07  6 -3 1 25 -24 2 -3 4 0.30304721D-01 0.41883925D-01 0.24637615D+05 0.24637615D+05 0.24637615D+05 0.12239781D+01  1  2 11  8  6  1       21 0.594255402508D-03 0.100000000000D+01
0.476948786782D-05 0.000000000000D+00 0.000000000000D+00 0.551352450585D-06 0.450444497476D-07  6 -4 1 25 -24 2 -4 4 0.30304721D-01 0.41883925D-01 0.24637615D+05 0.24637615D+05 0.24637615D+05 0.12239781D+01  1  2 11  8  6  1       21 0.499477911530D-03 0.100000000000D+01
0.157394367285D-12 0.000000000000D+00 0.000000000000D+00 0.551195051193D-06 0.000000000000D+00  6 3 1 25 -24 2 3 4 0.30308182D-01 0.41874235D-01 0.24637615D+05 0.24637615D+05 0.24637615D+05 0.12239781D+01  1  2 12  9  6  1       21 0.196126206609D-10 0.100000000000D+01
0.157394367285D-12 0.000000000000D+00 0.000000000000D+00 0.551195051193D-06 0.000000000000D+00  6 4 1 25 -24 2 4 4 0.30308182D-01 0.41874235D-01 0.24637615D+05 0.24637615D+05 0.24637615D+05 0.12239781D+01  1  2 12  9  6  1       21 0.164840642115D-10 0.100000000000D+01
0.157356528964D-12 0.000000000000D+00 0.000000000000D+00 0.551195051193D-06 0.000000000000D+00  6 3 1 25 -24 2 3 4 0.30377850D-01 0.41874235D-01 0.24637615D+05 0.24637615D+05 0.24637615D+05 0.12239781D+01  1  2 12  9  6  1       21 0.195244546819D-10 0.100000000000D+01
0.157356528964D-12 0.000000000000D+00 0.000000000000D+00 0.551195051193D-06 0.000000000000D+00  6 4 1 25 -24 2 4 4 0.30377850D-01 0.41874235D-01 0.24637615D+05 0.24637615D+05 0.24637615D+05 0.12239781D+01  1  2 12  9  6  1       21 0.164084218643D-10 0.100000000000D+01
-.649374901137D-05 0.000000000000D+00 -.249480669019D-06 0.551352450585D-06 0.000000000000D+00  6 3 1 25 -24 2 3 4 0.30308837D-01 0.41874235D-01 0.24545501D+05 0.24545501D+05 0.24545501D+05 0.12241528D+01  1  2  5  9  6  1       21 -.809507282148D-03 0.100000000000D+01
-.649374901137D-05 0.000000000000D+00 -.249480669019D-06 0.551352450585D-06 0.000000000000D+00  6 4 1 25 -24 2 4 4 0.30308837D-01 0.41874235D-01 0.24545501D+05 0.24545501D+05 0.24545501D+05 0.12241528D+01  1  2  5  9  6  1       21 -.680348114060D-03 0.100000000000D+01
0.476948786782D-05 0.000000000000D+00 0.000000000000D+00 0.551352450585D-06 0.450444497476D-07  6 3 1 25 -24 2 3 4 0.30304721D-01 0.41883925D-01 0.24637615D+05 0.24637615D+05 0.24637615D+05 0.12239781D+01  1  2 11  9  6  1       21 0.594272441096D-03 0.100000000000D+01
0.476948786782D-05 0.000000000000D+00 0.000000000000D+00 0.551352450585D-06 0.450444497476D-07  6 4 1 25 -24 2 4 4 0.30304721D-01 0.41883925D-01 0.24637615D+05 0.24637615D+05 0.24637615D+05 0.12239781D+01  1  2 11  9  6  1       21 0.499477911530D-03 0.100000000000D+01
  </mgrwgt>
  </event>
  <event>
  5     66 0.45631637E-03 0.88253053E+02 0.75467711E-02 0.11695075E+00
       21 -1    0    0  501  502 0.00000000E+00 0.00000000E+00 0.26616875E+03 0.26616980E+03 0.75000000E+00 0.0000E+00 0.9000E+01
        1 -1    0    0  502    0 0.00000000E+00 0.00000000E+00 -.18144691E+03 0.18144719E+03 0.32000000E+00 0.0000E+00 0.9000E+01
       25  1    1    2    0    0 -.95767235E+00 0.90693834E+02 -.91486937E+02 0.17950250E+03 0.12500000E+03 0.0000E+00 0.9000E+01
      -24  1    1    2    0    0 -.52512590E+02 -.11136050E+02 0.47762684E+02 0.10784282E+03 0.80419002E+02 0.0000E+00 0.9000E+01
        2  1    1    2  501    0 0.53470262E+02 -.79557784E+02 0.12844609E+03 0.16027168E+03 0.32000000E+00 0.0000E+00 0.9000E+01
#aMCatNLO 1  0  0  2  1 0.98937021D+01 0.00000000D+00  -5  6  0 0.00000000D+00 0.00000000D+00 0.00000000D+00 0.00000000D+00 0.00000000D+00
  <mgrwgt>
 0.9608933484D-01   11    2    0
 0.219763046921442D+03 0.000000000000000D+00 0.000000000000000D+00 0.219763046921442D+03
 0.219763046921442D+03 0.000000000000000D+00 0.000000000000000D+00 -.219763046921442D+03
 0.200441719501612D+03 -.957737470242549D+00 0.906939307671622D+02 -.127771579694790D+03
 0.100621407946849D+03 -.525126225653560D+02 -.111360011408421D+02 0.278543664931617D+02
 0.138462966394422D+03 0.534703600355986D+02 -.795579296263202D+02 0.999172132016288D+02
 0.000000000000000D+00 0.000000000000000D+00 -.000000000000000D+00 -.000000000000000D+00
 0.223272996928677D+03 0.000000000000000D+00 0.000000000000000D+00 0.223272996928677D+03
 0.226903067668950D+03 0.000000000000000D+00 0.000000000000000D+00 -.226903067668950D+03
 0.200877805296131D+03 -.540159668543843D+01 0.914993925451746D+02 -.127771579694790D+03
 0.101765295111982D+03 -.547536747939371D+02 -.107298042238743D+02 0.278543664931617D+02
 0.136994332610018D+03 0.504201883371476D+02 -.790050775667688D+02 0.999172132016288D+02
 0.105386315794951D+02 0.973508314222792D+01 -.176451075453141D+01 -.363007074027275D+01
0.751290732011D-05 0.000000000000D+00 0.000000000000D+00 0.306811754217D-06 0.000000000000D+00  6 21 1 25 -24 2 21 2 0.40949141D-01 0.27915012D-01 0.30099609D+05 0.30099609D+05 0.30099609D+05 0.12147473D+01  1  2  2  2  6  2        1 0.114888970392D-01 0.100000000000D+01
-.252089903430D-06 0.396467011598D-06 -.151663953148D-07 0.306811754217D-06 0.000000000000D+00  6 21 1 25 -24 2 21 4 0.40949141D-01 0.27915012D-01 0.30099609D+05 0.30099609D+05 0.30099609D+05 0.12147473D+01  1  2  3  2  6  2        1 -.568849878097D-03 0.100000000000D+01
0.795851120979D-06 0.000000000000D+00 0.000000000000D+00 0.306811754217D-06 0.000000000000D+00  6 21 1 25 -24 2 21 4 0.40949141D-01 0.27915012D-01 0.30099609D+05 0.30099609D+05 0.30099609D+05 0.12147473D+01  1  2 15  2  6  2        1 0.179586650235D-02 0.100000000000D+01
0.541754212894D-04 0.000000000000D+00 0.000000000000D+00 0.305571581117D-06 0.000000000000D+00  6 21 1 25 -24 2 21 4 0.40949141D-01 0.29039423D-01 0.31773060D+05 0.31773060D+05 0.31773060D+05 0.12122898D+01  1  2 12  2  6  2        1 0.115291281522D+00 0.100000000000D+01
-.253661935454D-04 0.000000000000D+00 0.000000000000D+00 0.306811754217D-06 0.000000000000D+00  6 21 1 25 -24 2 21 4 0.40949141D-01 0.27915012D-01 0.30099609D+05 0.30099609D+05 0.30099609D+05 0.12147473D+01  1  2  4  2  6  2        1 -.572397224551D-01 0.100000000000D+01
-.451225187966D-03 0.000000000000D+00 -.696630079717D-04 0.306811754217D-06 0.000000000000D+00  6 21 1 25 -24 2 21 4 0.40949141D-01 0.29244494D-01 0.30099609D+05 0.30099609D+05 0.30099609D+05 0.12147473D+01  1  2  5  2  6  2        1 -.960443643829D+00 0.100000000000D+01
0.454050172898D-03 0.000000000000D+00 0.695876750110D-04 0.306811754217D-06 0.000000000000D+00  6 21 1 25 -24 2 21 4 0.40949141D-01 0.27915012D-01 0.30099609D+05 0.30099609D+05 0.30099609D+05 0.12147473D+01  1  2  6  2  6  2        1 0.102458044526D+01 0.100000000000D+01
0.923550720375D-12 0.000000000000D+00 0.000000000000D+00 0.306811754217D-06 0.260627695798D-07  6 21 1 25 -24 2 21 4 0.41603161D-01 0.28821961D-01 0.31773060D+05 0.31773060D+05 0.31773060D+05 0.12122898D+01  1  2 11  2  6  2        1 0.192139768464D-08 0.100000000000D+01
0.871600349203D-06 0.000000000000D+00 0.000000000000D+00 0.305571581117D-06 0.000000000000D+00  6 21 21 25 -24 2 -1 4 0.40949141D-01 0.29039423D-01 0.31773060D+05 0.31773060D+05 0.31773060D+05 0.12122898D+01  1  2 12 10  6  2        1 0.123536407888D-01 0.100000000000D+01
-.362238708182D-05 0.000000000000D+00 -.567478603038D-06 0.306811754217D-06 0.000000000000D+00  6 21 21 25 -24 2 -1 4 0.40949141D-01 0.29244494D-01 0.30099609D+05 0.30099609D+05 0.30099609D+05 0.12147473D+01  1  2  5 10  6  2        1 -.511685822032D-01 0.100000000000D+01
0.122445031335D-13 0.000000000000D+00 0.000000000000D+00 0.306811754217D-06 0.167103068887D-09  6 21 21 25 -24 2 -1 4 0.41603161D-01 0.28821961D-01 0.31773060D+05 0.31773060D+05 0.31773060D+05 0.12122898D+01  1  2 11 10  6  2        1 0.170532132470D-09 0.100000000000D+01
  </mgrwgt>
  </event>
  <event>
  5     66 0.45631637E-03 0.63537210E+02 0.75467711E-02 0.10316808E+00
       21 -1    0    0  501  502 0.00000000E+00 0.00000000E+00 0.50186618E+03 0.50186674E+03 0.75000000E+00 0.0000E+00 0.9000E+01
        1 -1    0    0  502    0 0.00000000E+00 0.00000000E+00 -.29993784E+03 0.29993801E+03 0.32000000E+00 0.0000E+00 0.9000E+01
       25  1    1    2    0    0 -.11418114E+03 -.10050751E+03 -.19050878E+03 0.27396658E+03 0.12500000E+03 0.0000E+00 0.9000E+01
      -24  1    1    2    0    0 0.12057128E+03 0.37292477E+02 0.21131485E+02 0.15113543E+03 0.80419002E+02 0.0000E+00 0.9000E+01
        2  1    1    2  501    0 -.63901373E+01 0.63215032E+02 0.37130563E+03 0.37670274E+03 0.32000000E+00 0.0000E+00 0.9000E+01
#aMCatNLO 1  0  0  1  2 0.16124982D+02 0.00000000D+00  -5  6  0 0.00000000D+00 0.00000000D+00 0.00000000D+00 0.00000000D+00 0.00000000D+00
  <mgrwgt>
 0.1918224348D+00    3    2    0
 0.387980604469741D+03 0.000000000000000D+00 0.000000000000000D+00 0.387980604469741D+03
 0.387980604469741D+03 0.000000000000000D+00 0.000000000000000D+00 -.387980604469741D+03
 0.332667243620601D+03 -.114181141950597D+03 -.100507524916770D+03 -.268148091986668D+03
 0.150669982250422D+03 0.120571281588898D+03 0.372924695259757D+02 -.174947240514609D+02
 0.292623983068460D+03 -.639013963830118D+01 0.632150553907943D+02 0.285642816038129D+03
 0.000000000000000D+00 -.000000000000000D+00 -.000000000000000D+00 -.000000000000000D+00
 0.574095579956896D+03 0.000000000000000D+00 0.000000000000000D+00 0.574095579956896D+03
 0.635801819195932D+03 0.000000000000000D+00 0.000000000000000D+00 -.635801819195932D+03
 0.297313305418782D+03 0.210993822277210D+01 -.293658050059527D+02 -.268148091986668D+03
 0.221011237665318D+03 0.189181670608155D+03 0.792652594536590D+02 -.174947240514609D+02
 0.333879890010187D+03 0.109259164525470D+03 0.133964165231671D+03 0.285642816038129D+03
 0.357692966058541D+03 -.300550773356398D+03 -.183863619679378D+03 -.617062392390357D+02
0.703508530517D-03 0.000000000000D+00 0.000000000000D+00 0.113023651791D-05 0.000000000000D+00  6 21 1 25 -24 2 21 2 0.77210238D-01 0.46144339D-01 0.42040184D+05 0.42040184D+05 0.42040184D+05 0.11998125D+01  1  2  2  1  6  1       21 0.143741570949D+00 0.100000000000D+01
0.951331143950D-04 0.371251651117D-04 -.142018103332D-05 0.113023651791D-05 0.000000000000D+00  6 21 1 25 -24 2 21 4 0.77210238D-01 0.46144339D-01 0.42040184D+05 0.42040184D+05 0.42040184D+05 0.11998125D+01  1  2  3  1  6  1       21 0.279815319416D-01 0.100000000000D+01
0.683347875484D-04 0.000000000000D+00 0.000000000000D+00 0.113023651791D-05 0.000000000000D+00  6 21 1 25 -24 2 21 4 0.77210238D-01 0.46144339D-01 0.42040184D+05 0.42040184D+05 0.42040184D+05 0.11998125D+01  1  2 15  1  6  1       21 0.200993318958D-01 0.100000000000D+01
  </mgrwgt>
  </event>
  <event>
  6     66 0.45631637E-03 0.27270516E+02 0.75467711E-02 0.11964232E+00
        4 -1    0    0  501    0 0.00000000E+00 0.00000000E+00 0.54662139E+02 0.54684110E+02 0.15500000E+01 0.0000E+00 0.9000E+01
        1 -1    0    0  502    0 0.00000000E+00 0.00000000E+00 -.65380115E+03 0.65380123E+03 0.32000000E+00 0.0000E+00 0.9000E+01
       25  1    1    2    0    0 0.51883861E+02 0.26708543E+02 -.18016392E+03 0.22691258E+03 0.12500000E+03 0.0000E+00 0.9000E+01
      -24  1    1    2    0    0 0.26153285E+02 -.30075573E+02 -.35114909E+03 0.36243818E+03 0.80419002E+02 0.0000E+00 0.9000E+01
        2  1    1    2  501    0 -.33700227E+02 0.72679568E+01 0.39110966E+01 0.34697659E+02 0.32000000E+00 0.0000E+00 0.9000E+01
        4  1    1    2  502    0 -.44336919E+02 -.39009266E+01 -.71737101E+02 0.84436921E+02 0.15500000E+01 0.0000E+00 0.9000E+01
#aMCatNLO 2  0  0  1  2 0.44508197D+02 0.00000000D+00  -5  6  0 0.00000000D+00 0.00000000D+00 0.00000000D+00 0.00000000D+00 0.00000000D+00
  <mgrwgt>
 0.2451266194D-04    1    2    0
 0.165304773353549D+03 0.000000000000000D+00 0.000000000000000D+00 0.165304773353549D+03
 0.165304773353549D+03 0.000000000000000D+00 0.000000000000000D+00 -.165304773353549D+03
 0.133635228939567D+03 0.336417224921161D+02 0.251034954769428D+02 0.217122876807826D+02
 0.120807429387055D+03 0.988866814004567D+01 -.315066275266078D+02 -.838854320192329D+02
 0.761668883804756D+02 -.435303906321618D+02 0.640313204966501D+01 0.621731443384503D+02
 0.000000000000000D+00 -.000000000000000D+00 -.000000000000000D+00 -.000000000000000D+00
 0.188700366114866D+03 0.000000000000000D+00 0.000000000000000D+00 0.188700366114866D+03
 0.189405459761762D+03 0.000000000000000D+00 0.000000000000000D+00 -.189405459761762D+03
 0.139648557872588D+03 0.518840170562168D+02 0.267085202448702D+02 0.217122876807826D+02
 0.122851641054638D+03 0.261534476502461D+02 -.300755918711413D+02 -.838854320192329D+02
 0.710918453024506D+02 -.337005458824369D+02 0.726799826661767D+01 0.621731443384503D+02
 0.445137816469521D+02 -.443369188240261D+02 -.390092664034653D+01 -.705093646895264D+00
0.747600016170D-07 0.000000000000D+00 0.000000000000D+00 0.773753219249D-06 0.585236062799D-10  6 4 1 25 -24 2 4 4 0.84106559D-02 0.10057931D+00 0.23514349D+05 0.23514349D+05 0.23514349D+05 0.12261606D+01  1  2  1  9  6  1       21 0.245126619392D-04 0.100000000000D+01
  </mgrwgt>
  </event>
  <event>
  5     66 0.45631637E-03 0.29500826E+02 0.75467711E-02 0.12008483E+00
       21 -1    0    0  501  502 0.00000000E+00 0.00000000E+00 0.39688647E+02 0.39695733E+02 0.75000000E+00 0.0000E+00 0.9000E+01
        1 -1    0    0  502    0 0.00000000E+00 0.00000000E+00 -.11253092E+04 0.11253092E+04 0.32000000E+00 0.0000E+00 0.9000E+01
       25  1    1    2    0    0 0.43326295E+02 0.46929013E+02 -.41080265E+03 0.43412362E+03 0.12500000E+03 0.0000E+00 0.9000E+01
      -24  1    1    2    0    0 -.19191448E+02 -.67330697E+02 -.68830861E+03 0.69651826E+03 0.80419002E+02 0.0000E+00 0.9000E+01
        2  1    1    2  501    0 -.24134847E+02 0.20401684E+02 0.13490719E+02 0.34363082E+02 0.32000000E+00 0.0000E+00 0.9000E+01
#aMCatNLO 1  0  0  2  1 0.22928816D+02 0.00000000D+00  -5  6  0 0.00000000D+00 0.00000000D+00 0.00000000D+00 0.00000000D+00 0.00000000D+00
  <mgrwgt>
 0.3057918045D+00    9    2    0
 0.211343685401480D+03 0.000000000000000D+00 0.000000000000000D+00 0.211343685401480D+03
 0.211343685401480D+03 0.000000000000000D+00 0.000000000000000D+00 -.211343685401480D+03
 0.141429314656391D+03 0.433263198780601D+02 0.469289919922420D+02 -.172554559659414D+02
 0.151897881562942D+03 -.191914217256152D+02 -.673307191756842D+02 -.108185091654875D+03
 0.129360174583628D+03 -.241348981524448D+02 0.204017271834422D+02 0.125440547620816D+03
 0.000000000000000D+00 -.000000000000000D+00 -.000000000000000D+00 -.000000000000000D+00
 0.219838703725620D+03 0.000000000000000D+00 0.000000000000000D+00 0.219838703725620D+03
 0.227713519440746D+03 0.000000000000000D+00 0.000000000000000D+00 -.227713519440746D+03
 0.144812903234092D+03 0.504290987211632D+02 0.500492975441730D+02 -.172554559659414D+02
 0.149699060570086D+03 -.117076326622330D+02 -.640430328940500D+02 -.108185091654875D+03
 0.128796840802162D+03 -.177290220360768D+02 0.232158779901077D+02 0.125440547620816D+03
 0.242434185600255D+02 -.209924440228534D+02 -.922214264023066D+01 -.787481571512582D+01
0.825466956320D-05 0.000000000000D+00 0.000000000000D+00 0.288386931084D-05 0.000000000000D+00  6 21 1 25 -24 2 21 2 0.61064943D-02 0.17312504D+00 0.19404574D+05 0.19404574D+05 0.19404574D+05 0.12352737D+01  1  2  2  2  6  2        1 0.354699759665D-01 0.100000000000D+01
0.127388636649D-05 0.435610880583D-06 -.166637995724D-07 0.288386931084D-05 0.000000000000D+00  6 21 1 25 -24 2 21 4 0.61064943D-02 0.17312504D+00 0.19404574D+05 0.19404574D+05 0.19404574D+05 0.12352737D+01  1  2  3  2  6  2        1 0.835253473349D-02 0.100000000000D+01
0.834134890109D-06 0.000000000000D+00 0.000000000000D+00 0.288386931084D-05 0.000000000000D+00  6 21 1 25 -24 2 21 4 0.61064943D-02 0.17312504D+00 0.19404574D+05 0.19404574D+05 0.19404574D+05 0.12352737D+01  1  2 15  2  6  2        1 0.546920104127D-02 0.100000000000D+01
0.536219137257D-04 0.000000000000D+00 0.000000000000D+00 0.285198456761D-05 0.000000000000D+00  6 21 1 25 -24 2 21 4 0.61064943D-02 0.18980511D+00 0.22408596D+05 0.22408596D+05 0.22408596D+05 0.12284260D+01  1  2 12  2  6  2        1 0.288935077059D+00 0.100000000000D+01
-.302322779671D-04 0.000000000000D+00 0.000000000000D+00 0.288386931084D-05 0.000000000000D+00  6 21 1 25 -24 2 21 4 0.61064943D-02 0.17312504D+00 0.19404574D+05 0.19404574D+05 0.19404574D+05 0.12352737D+01  1  2  4  2  6  2        1 -.198225021035D+00 0.100000000000D+01
-.143479780937D-03 0.000000000000D+00 -.315777990732D-04 0.288386931084D-05 0.000000000000D+00  6 21 1 25 -24 2 21 4 0.61064943D-02 0.19110573D+00 0.19404574D+05 0.19404574D+05 0.19404574D+05 0.12352737D+01  1  2  5  2  6  2        1 -.781773283270D+00 0.100000000000D+01
0.146040062551D-03 0.000000000000D+00 0.314242616109D-04 0.288386931084D-05 0.000000000000D+00  6 21 1 25 -24 2 21 4 0.61064943D-02 0.17312504D+00 0.19404574D+05 0.19404574D+05 0.19404574D+05 0.12352737D+01  1  2  6  2  6  2        1 0.957545921701D+00 0.100000000000D+01
0.809960211291D-06 0.000000000000D+00 0.000000000000D+00 0.285198456761D-05 0.000000000000D+00  6 21 21 25 -24 2 -1 4 0.61064943D-02 0.18980511D+00 0.22408596D+05 0.22408596D+05 0.22408596D+05 0.12284260D+01  1  2 12 10  6  2        1 0.569720199035D-02 0.100000000000D+01
-.220465063820D-05 0.000000000000D+00 -.507627114646D-06 0.288386931084D-05 0.000000000000D+00  6 21 21 25 -24 2 -1 4 0.61064943D-02 0.19110573D+00 0.19404574D+05 0.19404574D+05 0.19404574D+05 0.12352737D+01  1  2  5 10  6  2        1 -.156798036448D-01 0.100000000000D+01
  </mgrwgt>
  </event>
  <event>
  5     66 0.45631637E-03 0.35349645E+02 0.75467711E-02 0.12095662E+00
       21 -1    0    0  501  502 0.00000000E+00 0.00000000E+00 0.30630507E+02 0.30639687E+02 0.75000000E+00 0.0000E+00 0.9000E+01
        1 -1    0    0  502    0 0.00000000E+00 0.00000000E+00 -.11845959E+04 0.11845959E+04 0.32000000E+00 0.0000E+00 0.9000E+01
       25  1    1    2    0    0 0.33709262E+02 -.44294524E+02 -.81502129E+03 0.82642787E+03 0.12500000E+03 0.0000E+00 0.9000E+01
      -24  1    1    2    0    0 -.18291720E+02 0.12484283E+02 -.34320957E+03 0.35320032E+03 0.80419002E+02 0.0000E+00 0.9000E+01
        2  1    1    2  501    0 -.15417543E+02 0.31810241E+02 0.42654784E+01 0.35607426E+02 0.32000000E+00 0.0000E+00 0.9000E+01
#aMCatNLO 1  0  0  1  2 0.28538828D+02 0.00000000D+00  -5  6  0 0.00000000D+00 0.00000000D+00 0.00000000D+00 0.00000000D+00 0.00000000D+00
  <mgrwgt>
 0.1263289169D+00   13    2    0
 0.190500333397683D+03 0.000000000000000D+00 0.000000000000000D+00 0.190500333397683D+03
 0.190500333397683D+03 0.000000000000000D+00 0.000000000000000D+00 -.190500333397683D+03
 0.167449241550066D+03 0.337092841546836D+02 -.442945687379742D+02 -.965190335518755D+02
 0.870593229380257D+02 -.182917085582401D+02 0.124842596640234D+02 -.249332391541605D+02
 0.126492102307273D+03 -.154175755964435D+02 0.318103090739509D+02 0.121452272706036D+03
 0.000000000000000D+00 -.000000000000000D+00 -.000000000000000D+00 -.000000000000000D+00
 0.204260755786244D+03 0.000000000000000D+00 0.000000000000000D+00 0.204260755786244D+03
 0.206428287020660D+03 0.000000000000000D+00 0.000000000000000D+00 -.206428287020660D+03
 0.169219890402731D+03 0.456088416988023D+02 -.401781162950391D+02 -.965190335518755D+02
 0.863140822574371D+02 -.121638322074243D+02 0.146040957571550D+02 -.249332391541605D+02
 0.126534048492351D+03 -.647437601012347D+01 0.349040590430796D+02 0.121452272706036D+03
 0.286210216543848D+02 -.269706334812545D+02 -.933003850519552D+01 -.216753123441567D+01
0.920751422902D-05 0.000000000000D+00 0.000000000000D+00 0.386007088253D-05 0.000000000000D+00  6 21 1 25 -24 2 21 2 0.47130952D-02 0.18224623D+00 0.16332256D+05 0.16332256D+05 0.16332256D+05 0.12436315D+01  1  2  2  1  6  1       21 0.565660947542D-01 0.100000000000D+01
0.111797306398D-05 0.485893875046D-06 -.185873184260D-07 0.386007088253D-05 0.000000000000D+00  6 21 1 25 -24 2 21 4 0.47130952D-02 0.18224623D+00 0.16332256D+05 0.16332256D+05 0.16332256D+05 0.12436315D+01  1  2  3  1  6  1       21 0.106225449508D-01 0.100000000000D+01
0.852658980996D-06 0.000000000000D+00 0.000000000000D+00 0.386007088253D-05 0.000000000000D+00  6 21 1 25 -24 2 21 4 0.47130952D-02 0.18224623D+00 0.16332256D+05 0.16332256D+05 0.16332256D+05 0.12436315D+01  1  2 15  1  6  1       21 0.810163379174D-02 0.100000000000D+01
0.117883275334D-04 0.000000000000D+00 0.000000000000D+00 0.379359841126D-05 0.000000000000D+00  6 21 1 25 -24 2 21 4 0.52359423D-02 0.18224623D+00 0.20401431D+05 0.20401431D+05 0.20401431D+05 0.12328770D+01  1  2 12  1  6  1       21 0.904809521109D-01 0.100000000000D+01
-.425552034636D-05 0.000000000000D+00 0.000000000000D+00 0.386007088253D-05 0.000000000000D+00  6 21 1 25 -24 2 21 4 0.47130952D-02 0.18224623D+00 0.16332256D+05 0.16332256D+05 0.16332256D+05 0.12436315D+01  1  2  4  1  6  1       21 -.404342981285D-01 0.100000000000D+01
0.318960516406D-06 0.000000000000D+00 0.000000000000D+00 0.379359841126D-05 0.000000000000D+00  6 -1 1 25 -24 2 -1 4 0.52359423D-02 0.18224623D+00 0.20401431D+05 0.20401431D+05 0.20401431D+05 0.12328770D+01  1  2 12  4  6  1       21 0.141480037437D-03 0.100000000000D+01
0.318960516406D-06 0.000000000000D+00 0.000000000000D+00 0.379359841126D-05 0.000000000000D+00  6 1 1 25 -24 2 1 4 0.52359423D-02 0.18224623D+00 0.20401431D+05 0.20401431D+05 0.20401431D+05 0.12328770D+01  1  2 12  5  6  1       21 0.160301911779D-03 0.100000000000D+01
0.318960516406D-06 0.000000000000D+00 0.000000000000D+00 0.379359841126D-05 0.000000000000D+00  6 -2 1 25 -24 2 -2 4 0.52359423D-02 0.18224623D+00 0.20401431D+05 0.20401431D+05 0.20401431D+05 0.12328770D+01  1  2 12  6  6  1       21 0.138164998446D-03 0.100000000000D+01
0.318960516406D-06 0.000000000000D+00 0.000000000000D+00 0.379359841126D-05 0.000000000000D+00  6 2 1 25 -24 2 2 4 0.52359423D-02 0.18224623D+00 0.20401431D+05 0.20401431D+05 0.20401431D+05 0.12328770D+01  1  2 12  7  6  1       21 0.172942705398D-03 0.100000000000D+01
0.318960516406D-06 0.000000000000D+00 0.000000000000D+00 0.379359841126D-05 0.000000000000D+00  6 -3 1 25 -24 2 -3 4 0.52359423D-02 0.18224623D+00 0.20401431D+05 0.20401431D+05 0.20401431D+05 0.12328770D+01  1  2 12  8  6  1       21 0.100274178949D-03 0.100000000000D+01
0.318960516406D-06 0.000000000000D+00 0.000000000000D+00 0.379359841126D-05 0.000000000000D+00  6 -4 1 25 -24 2 -4 4 0.52359423D-02 0.18224623D+00 0.20401431D+05 0.20401431D+05 0.20401431D+05 0.12328770D+01  1  2 12  8  6  1       21 0.892807831453D-04 0.100000000000D+01
0.318960516406D-06 0.000000000000D+00 0.000000000000D+00 0.379359841126D-05 0.000000000000D+00  6 3 1 25 -24 2 3 4 0.52359423D-02 0.18224623D+00 0.20401431D+05 0.20401431D+05 0.20401431D+05 0.12328770D+01  1  2 12  9  6  1       21 0.100264068708D-03 0.100000000000D+01
0.318960516406D-06 0.000000000000D+00 0.000000000000D+00 0.379359841126D-05 0.000000000000D+00  6 4 1 25 -24 2 4 4 0.52359423D-02 0.18224623D+00 0.20401431D+05 0.20401431D+05 0.20401431D+05 0.12328770D+01  1  2 12  9  6  1       21 0.892807831453D-04 0.100000000000D+01
  </mgrwgt>
  </event>
  <event>
  6     66 -.45631637E-03 0.17778463E+03 0.75467711E-02 0.11126753E+00
       21 -1    0    0  501  502 0.00000000E+00 0.00000000E+00 0.36237454E+02 0.36245215E+02 0.75000000E+00 0.0000E+00 0.9000E+01
        1 -1    0    0  502    0 -.00000000E+00 -.00000000E+00 -.18221503E+04 0.18221503E+04 0.32000000E+00 0.0000E+00 0.9000E+01
       25  1    1    2    0    0 0.33195941E+02 -.57195354E+02 -.47637844E+03 0.49692525E+03 0.12500000E+03 0.0000E+00 0.9000E+01
      -24  1    1    2    0    0 -.68855946E+02 -.13101686E+03 -.76336496E+03 0.78172875E+03 0.80419002E+02 0.0000E+00 0.9000E+01
        2  1    1    2  503    0 0.13974362E+02 0.11293755E+03 -.27877533E+03 0.30110788E+03 0.32000000E+00 0.0000E+00 0.9000E+01
       21  1    1    2  501  503 0.21685643E+02 0.75274665E+02 -.26739411E+03 0.27863366E+03 0.75000000E+00 0.0000E+00 0.9000E+01
#aMCatNLO 2  0  0  5  1 0.16234834D+02 0.00000000D+00  -5  6  0 0.00000000D+00 0.00000000D+00 0.00000000D+00 0.00000000D+00 0.00000000D+00
  <mgrwgt>
 -.7523157299D-02    2    2    0
 0.256977284901002D+03 0.000000000000000D+00 0.000000000000000D+00 0.256977284901002D+03
 0.256977284901002D+03 -.000000000000000D+00 -.000000000000000D+00 -.256977284901002D+03
 0.141743148166186D+03 0.330548638724583D+02 -.579399536656534D+02 0.405682088051234D+01
 0.174866702924771D+03 -.690297507180392D+02 -.131934197212638D+03 -.440387211334736D+02
 0.197344718711047D+03 0.359748868455809D+02 0.189874150878291D+03 0.399819002529612D+02
 0.000000000000000D+00 0.000000000000000D+00 0.000000000000000D+00 0.000000000000000D+00
 0.256977284901002D+03 0.000000000000000D+00 0.000000000000000D+00 0.256977284901002D+03
 0.256977284901002D+03 -.000000000000000D+00 -.000000000000000D+00 -.256977284901002D+03
 0.141478170580943D+03 0.331958666722649D+02 -.571957459910142D+02 0.421352908369469D+01
 0.174058483260117D+03 -.688560370004674D+02 -.131017342497808D+03 -.438456585518361D+02
 0.119795483169102D+03 0.139156688063670D+02 0.112670105094520D+03 0.382460372768195D+02
 0.786224327918417D+02 0.217445015218355D+02 0.755429833943015D+02 0.138609219132190D+01
-.173685509174D-04 0.000000000000D+00 0.000000000000D+00 0.160156499296D-06 0.000000000000D+00  6 21 1 25 -24 2 21 4 0.55755921D-02 0.28033141D+00 0.63000350D+05 0.63000350D+05 0.63000350D+05 0.11824673D+01  1  2 13  3  6  5        2 -.374142239938D-01 0.100000000000D+01
0.138761267360D-04 0.000000000000D+00 0.000000000000D+00 0.160058568476D-06 0.150169211328D-08  6 21 1 25 -24 2 21 4 0.55755921D-02 0.28033141D+00 0.63000350D+05 0.63000350D+05 0.63000350D+05 0.11824673D+01  1  2  1  3  6  5        2 0.298910666951D-01 0.100000000000D+01
  </mgrwgt>
  </event>
  <event>
  5     66 0.45631637E-03 0.38346440E+02 0.75467711E-02 0.11729988E+00
       21 -1    0    0  501  502 0.00000000E+00 0.00000000E+00 0.49457687E+02 0.49463374E+02 0.75000000E+00 0.0000E+00 0.9000E+01
        1 -1    0    0  502    0 0.00000000E+00 0.00000000E+00 -.49974263E+03 0.49974274E+03 0.32000000E+00 0.0000E+00 0.9000E+01
       25  1    1    2    0    0 -.32913792E+02 0.54151102E+02 -.20813512E+03 0.25092008E+03 0.12500000E+03 0.0000E+00 0.9000E+01
      -24  1    1    2    0    0 0.10583146E+02 -.85323941E+02 -.22945289E+03 0.25789150E+03 0.80419002E+02 0.0000E+00 0.9000E+01
        2  1    1    2  501    0 0.22330646E+02 0.31172840E+02 -.12696934E+02 0.40394532E+02 0.32000000E+00 0.0000E+00 0.9000E+01
#aMCatNLO 1  0  0  1  2 0.50612499D+02 0.00000000D+00  -5  6  0 0.00000000D+00 0.00000000D+00 0.00000000D+00 0.00000000D+00 0.00000000D+00
  <mgrwgt>
 0.1500657923D+00   14    2    0
 0.157218652143240D+03 0.000000000000000D+00 0.000000000000000D+00 0.157218652143240D+03
 0.157218652143240D+03 0.000000000000000D+00 0.000000000000000D+00 -.157218652143240D+03
 0.140208287419838D+03 -.329139775242735D+02 0.541508421823368D+02 -.420954102950028D+01
 0.121857259677928D+03 0.105829841841815D+02 -.853241667849435D+02 -.314604957058190D+02
 0.523717571887152D+02 0.223309933400920D+02 0.311733246026067D+02 0.356700367353193D+02
 0.000000000000000D+00 0.000000000000000D+00 0.000000000000000D+00 0.000000000000000D+00
 0.186311517778898D+03 0.000000000000000D+00 0.000000000000000D+00 0.186311517778898D+03
 0.182900404919462D+03 0.000000000000000D+00 0.000000000000000D+00 -.182900404919462D+03
 0.133412309109325D+03 -.333829589952807D+02 0.322754091364067D+02 -.420954102950028D+01
 0.137120046621802D+03 0.101391010861743D+02 -.106028897336071D+03 -.314604957058190D+02
 0.479522489639983D+02 0.221590395450207D+02 0.231526159741930D+02 0.356700367353193D+02
 0.507273180032350D+02 0.108481836408565D+01 0.506008722254711D+02 0.341111285943669D+01
0.535328827434D-05 0.000000000000D+00 0.000000000000D+00 0.702802757541D-06 0.000000000000D+00  6 21 1 25 -24 2 21 2 0.76093203D-02 0.76883927D-01 0.21936216D+05 0.21936216D+05 0.21936216D+05 0.12294322D+01  1  2  2  1  6  1       21 0.528016420098D-01 0.100000000000D+01
0.153933350090D-06 0.282500783508D-06 -.108067466752D-07 0.702802757541D-06 0.000000000000D+00  6 21 1 25 -24 2 21 4 0.76093203D-02 0.76883927D-01 0.21936216D+05 0.21936216D+05 0.21936216D+05 0.12294322D+01  1  2  3  1  6  1       21 0.229492602933D-02 0.100000000000D+01
0.527932775671D-06 0.000000000000D+00 0.000000000000D+00 0.702802757541D-06 0.000000000000D+00  6 21 1 25 -24 2 21 4 0.76093203D-02 0.76883927D-01 0.21936216D+05 0.21936216D+05 0.21936216D+05 0.12294322D+01  1  2 15  1  6  1       21 0.787072241274D-02 0.100000000000D+01
-.304270574879D-06 0.000000000000D+00 0.000000000000D+00 0.702802757541D-06 0.000000000000D+00  6 21 1 25 -24 2 21 4 0.76093203D-02 0.76883927D-01 0.21936216D+05 0.21936216D+05 0.21936216D+05 0.12294322D+01  1  2  4  1  6  1       21 -.453623897511D-02 0.100000000000D+01
-.181434203861D-04 0.000000000000D+00 -.726024939145D-05 0.702802757541D-06 0.000000000000D+00  6 21 1 25 -24 2 21 4 0.10481065D-01 0.76883927D-01 0.21936216D+05 0.21936216D+05 0.21936216D+05 0.12294322D+01  1  2  5  1  6  1       21 -.154830135485D+00 0.100000000000D+01
0.169259893234D-04 0.000000000000D+00 0.596323425582D-05 0.702802757541D-06 0.000000000000D+00  6 21 1 25 -24 2 21 4 0.76093203D-02 0.76883927D-01 0.21936216D+05 0.21936216D+05 0.21936216D+05 0.12294322D+01  1  2  6  1  6  1       21 0.252342286111D+00 0.100000000000D+01
-.143990440671D-05 0.000000000000D+00 -.740570795400D-06 0.702802757541D-06 0.000000000000D+00  6 -1 1 25 -24 2 -1 4 0.10481065D-01 0.76883927D-01 0.21936216D+05 0.21936216D+05 0.21936216D+05 0.12294322D+01  1  2  5  4  6  1       21 -.825635555696D-03 0.100000000000D+01
-.143990440671D-05 0.000000000000D+00 -.740570795400D-06 0.702802757541D-06 0.000000000000D+00  6 1 1 25 -24 2 1 4 0.10481065D-01 0.76883927D-01 0.21936216D+05 0.21936216D+05 0.21936216D+05 0.12294322D+01  1  2  5  5  6  1       21 -.104453057591D-02 0.100000000000D+01
-.143990440671D-05 0.000000000000D+00 -.740570795400D-06 0.702802757541D-06 0.000000000000D+00  6 -2 1 25 -24 2 -2 4 0.10481065D-01 0.76883927D-01 0.21936216D+05 0.21936216D+05 0.21936216D+05 0.12294322D+01  1  2  5  6  6  1       21 -.787644415147D-03 0.100000000000D+01
-.143990440671D-05 0.000000000000D+00 -.740570795400D-06 0.702802757541D-06 0.000000000000D+00  6 2 1 25 -24 2 2 4 0.10481065D-01 0.76883927D-01 0.21936216D+05 0.21936216D+05 0.21936216D+05 0.12294322D+01  1  2  5  7  6  1       21 -.119287135720D-02 0.100000000000D+01
-.143990440671D-05 0.000000000000D+00 -.740570795400D-06 0.702802757541D-06 0.000000000000D+00  6 -3 1 25 -24 2 -3 4 0.10481065D-01 0.76883927D-01 0.21936216D+05 0.21936216D+05 0.21936216D+05 0.12294322D+01  1  2  5  8  6  1       21 -.541055248638D-03 0.100000000000D+01
-.143990440671D-05 0.000000000000D+00 -.740570795400D-06 0.702802757541D-06 0.000000000000D+00  6 -4 1 25 -24 2 -4 4 0.10481065D-01 0.76883927D-01 0.21936216D+05 0.21936216D+05 0.21936216D+05 0.12294322D+01  1  2  5  8  6  1       21 -.472342859084D-03 0.100000000000D+01
-.143990440671D-05 0.000000000000D+00 -.740570795400D-06 0.702802757541D-06 0.000000000000D+00  6 3 1 25 -24 2 3 4 0.10481065D-01 0.76883927D-01 0.21936216D+05 0.21936216D+05 0.21936216D+05 0.12294322D+01  1  2  5  9  6  1       21 -.540986959480D-03 0.100000000000D+01
-.143990440671D-05 0.000000000000D+00 -.740570795400D-06 0.702802757541D-06 0.000000000000D+00  6 4 1 25 -24 2 4 4 0.10481065D-01 0.76883927D-01 0.21936216D+05 0.21936216D+05 0.21936216D+05 0.12294322D+01  1  2  5  9  6  1       21 -.472342859084D-03 0.100000000000D+01
  </mgrwgt>
  </event>
  <event>
  6     66 0.45631637E-03 0.17108838E+03 0.75467711E-02 0.10805227E+00
       21 -1    0    0  501  502 0.00000000E+00 0.00000000E+00 0.26162835E+03 0.26162943E+03 0.75000000E+00 0.0000E+00 0.9000E+01
        1 -1    0    0  502    0 -.00000000E+00 -.00000000E+00 -.69990845E+03 0.69990853E+03 0.32000000E+00 0.0000E+00 0.9000E+01
       25  1    1    2    0    0 0.16579222E+03 -.13315848E+03 -.51787114E+02 0.25204196E+03 0.12500000E+03 0.0000E+00 0.9000E+01
      -24  1    1    2    0    0 0.66064712E+02 0.58998900E+02 0.19450353E+02 0.12120622E+03 0.80419002E+02 0.0000E+00 0.9000E+01
        2  1    1    2  503    0 -.53642474E+02 -.12020233E+02 -.38536199E+03 0.38926337E+03 0.32000000E+00 0.0000E+00 0.9000E+01
       21  1    1    2  501  503 -.17821446E+03 0.86179817E+02 -.20581346E+02 0.19902640E+03 0.75000000E+00 0.0000E+00 0.9000E+01
#aMCatNLO 2  0  0  5  1 0.17396118D+03 0.00000000D+00  -5  6  0 0.00000000D+00 0.00000000D+00 0.00000000D+00 0.00000000D+00 0.00000000D+00
  <mgrwgt>
 0.2642702795D-01    2    2    0
 0.427921076406298D+03 0.000000000000000D+00 0.000000000000000D+00 0.427921076406298D+03
 0.427921076406298D+03 -.000000000000000D+00 -.000000000000000D+00 -.427921076406298D+03
 0.306747504583281D+03 0.213958731289815D+03 -.148564570250492D+03 0.103049800287092D+03
 0.167333518152135D+03 0.928641844307831D+02 0.504270718164234D+02 0.101816717786555D+03
 0.381761130077180D+03 -.306822915720598D+03 0.981374984340685D+02 -.204866518073647D+03
 0.000000000000000D+00 0.000000000000000D+00 0.000000000000000D+00 0.000000000000000D+00
 0.427921076406298D+03 0.000000000000000D+00 0.000000000000000D+00 0.427921076406298D+03
 0.427921076406298D+03 -.000000000000000D+00 -.000000000000000D+00 -.427921076406298D+03
 0.256637099012646D+03 0.165780732003028D+03 -.133154807526416D+03 0.708812155565216D+02
 0.146131071416115D+03 0.660581682985362D+02 0.590009925746681D+02 0.839182659204621D+02
 0.239689969323831D+03 -.532185056999015D+02 -.121651176669907D+02 -.233390406738745D+03
 0.213384013060004D+03 -.178620394601663D+03 0.863189326187386D+02 0.785909252617610D+02
-.237031946577D-04 0.000000000000D+00 0.000000000000D+00 0.866706032397D-07 0.000000000000D+00  6 21 1 25 -24 2 21 4 0.40250604D-01 0.10767831D+00 0.95871523D+05 0.95871523D+05 0.95871523D+05 0.11652574D+01  1  2 13  3  6  5        2 -.781087231036D-02 0.100000000000D+01
0.103899741577D-03 0.000000000000D+00 0.000000000000D+00 0.845399354645D-07 0.515902815685D-10  6 21 1 25 -24 2 21 4 0.40250604D-01 0.10767831D+00 0.95871523D+05 0.95871523D+05 0.95871523D+05 0.11652574D+01  1  2  1  3  6  5        2 0.342379002601D-01 0.100000000000D+01
  </mgrwgt>
  </event>
  <event>
  5     66 0.45631637E-03 0.22586723E+02 0.75467711E-02 0.10974024E+00
       21 -1    0    0  501  502 0.00000000E+00 0.00000000E+00 0.43700329E+02 0.43706764E+02 0.75000000E+00 0.0000E+00 0.9000E+01
        1 -1    0    0  502    0 0.00000000E+00 0.00000000E+00 -.49383151E+03 0.49383162E+03 0.32000000E+00 0.0000E+00 0.9000E+01
       25  1    1    2    0    0 -.45956646E+02 -.66325913E+02 -.31708597E+03 0.35025656E+03 0.12500000E+03 0.0000E+00 0.9000E+01
      -24  1    1    2    0    0 0.38612084E+02 0.44967399E+02 -.13079341E+03 0.16458157E+03 0.80419002E+02 0.0000E+00 0.9000E+01
        2  1    1    2  501    0 0.73445614E+01 0.21358514E+02 -.22517998E+01 0.22700258E+02 0.32000000E+00 0.0000E+00 0.9000E+01
#aMCatNLO 1  0  0  2  1 0.22044567D+03 0.00000000D+00  -5  6  0 0.00000000D+00 0.00000000D+00 0.00000000D+00 0.00000000D+00 0.00000000D+00
  <mgrwgt>
 0.7199768333D-01    5    2    0
 0.146909349165703D+03 0.000000000000000D+00 0.000000000000000D+00 0.146909349165703D+03
 0.146909349165703D+03 0.000000000000000D+00 0.000000000000000D+00 -.146909349165703D+03
 0.155014524556021D+03 -.459567825366368D+02 -.663263105701676D+02 -.435120384302914D+02
 0.100724217123581D+03 0.386119954000793D+02 0.449671401375621D+02 0.128538741187599D+02
 0.380799566518043D+02 0.734478713655752D+01 0.213591704326055D+02 0.306581643115315D+02
 0.000000000000000D+00 0.000000000000000D+00 0.000000000000000D+00 -.000000000000000D+00
 0.207957186879992D+03 0.000000000000000D+00 0.000000000000000D+00 0.207957186879992D+03
 0.683705243598007D+03 0.000000000000000D+00 0.000000000000000D+00 -.683705243598007D+03
 0.252974459795550D+03 -.981162507847791D+02 -.191966093757281D+03 -.435120384302914D+02
 0.836550565053150D+02 0.150399744943022D+02 -.118122653156255D+02 0.128538741187599D+02
 0.306928478324809D+02 -.144749169796775D+01 0.180656855068303D+00 0.306581643115315D+02
 0.524340066344653D+03 0.845237679884447D+02 0.203597702217839D+03 -.475748056718014D+03
0.474614572263D-05 0.000000000000D+00 0.000000000000D+00 0.159555206381D-05 0.000000000000D+00  6 21 1 25 -24 2 21 2 0.67236305D-02 0.75974582D-01 0.18396828D+05 0.18396828D+05 0.18396828D+05 0.12378410D+01  1  2  2  2  6  2        1 0.595158770169D-01 0.100000000000D+01
0.440669752763D-06 0.250460990810D-06 -.958110078879D-08 0.159555206381D-05 0.000000000000D+00  6 21 1 25 -24 2 21 4 0.67236305D-02 0.75974582D-01 0.18396828D+05 0.18396828D+05 0.18396828D+05 0.12378410D+01  1  2  3  2  6  2        1 0.846710159200D-02 0.100000000000D+01
0.432629154574D-06 0.000000000000D+00 0.000000000000D+00 0.159555206381D-05 0.000000000000D+00  6 21 1 25 -24 2 21 4 0.67236305D-02 0.75974582D-01 0.18396828D+05 0.18396828D+05 0.18396828D+05 0.12378410D+01  1  2 15  2  6  2        1 0.831260820710D-02 0.100000000000D+01
-.584761022967D-05 0.000000000000D+00 -.635781632060D-05 0.159555206381D-05 0.000000000000D+00  6 21 1 25 -24 2 21 4 0.67236305D-02 0.39655211D+00 0.18396828D+05 0.18396828D+05 0.18396828D+05 0.12378410D+01  1  2  5  2  6  2        1 -.375390111813D-02 0.100000000000D+01
-.141333298829D-05 0.000000000000D+00 -.128325842629D-05 0.159555206381D-05 0.000000000000D+00  6 21 21 25 -24 2 -1 4 0.67236305D-02 0.39655211D+00 0.18396828D+05 0.18396828D+05 0.18396828D+05 0.12378410D+01  1  2  5 10  6  2        1 -.544002362922D-03 0.100000000000D+01
  </mgrwgt>
  </event>
  <event>
  5     66 -.45631637E-03 0.20762319E+02 0.75467711E-02 0.10997803E+00
       21 -1    0    0  501  502 0.00000000E+00 0.00000000E+00 0.30813522E+02 0.30822648E+02 0.75000000E+00 0.0000E+00 0.9000E+01
        1 -1    0    0  502    0 0.00000000E+00 0.00000000E+00 -.11656531E+04 0.11656532E+04 0.32000000E+00 0.0000E+00 0.9000E+01
       25  1    1    2    0    0 0.20903194E+02 -.82174710E+01 -.60411632E+03 0.61732163E+03 0.12500000E+03 0.0000E+00 0.9000E+01
      -24  1    1    2    0    0 -.23234315E+02 0.28848466E+02 -.54615364E+03 0.55328390E+03 0.80419002E+02 0.0000E+00 0.9000E+01
        2  1    1    2  501    0 0.23311210E+01 -.20630996E+02 0.15430367E+02 0.25870267E+02 0.32000000E+00 0.0000E+00 0.9000E+01
#aMCatNLO 1  0  0  1  5 0.60548805D+02 0.00000000D+00  -5  6  0 0.00000000D+00 0.00000000D+00 0.00000000D+00 0.00000000D+00 0.00000000D+00
  <mgrwgt>
 -.8943272809D+00   12    2    0
 0.189534596644790D+03 0.000000000000000D+00 0.000000000000000D+00 0.189534596644790D+03
 0.189534596644790D+03 0.000000000000000D+00 0.000000000000000D+00 -.189534596644790D+03
 0.139909291574504D+03 0.209031914933187D+02 -.821744710457194D+01 -.586953151227317D+02
 0.111309659973446D+03 -.232343173776810D+02 0.288484854373262D+02 -.674578077986476D+02
 0.127850241741629D+03 0.233112588436221D+01 -.206310383327542D+02 0.126153122921379D+03
 0.000000000000000D+00 -.000000000000000D+00 -.000000000000000D+00 0.000000000000000D+00
 0.266606260027568D+04 0.000000000000000D+00 0.000000000000000D+00 0.266606260027568D+04
 0.222574658157569D+03 0.000000000000000D+00 0.000000000000000D+00 -.222574658157569D+03
 0.170356581753219D+03 0.977736187542752D+02 0.197874810164886D+02 -.586953151227317D+02
 0.121168864205798D+03 0.343637783812391D+02 0.498322445904095D+02 -.674578077986476D+02
 0.144196507963074D+03 0.697325118649145D+02 0.392419099148748D+01 0.126153122921379D+03
 0.245291530451116D+04 -.201869909000429D+03 -.735439165983856D+02 0.244348794211811D+04
0.450215410478D-05 0.000000000000D+00 0.000000000000D+00 0.126780943949D-04 0.000000000000D+00  6 21 1 25 -24 2 21 2 0.47412472D-02 0.17933195D+00 0.13959884D+05 0.13959884D+05 0.13959884D+05 0.12513962D+01  1  2  2  1  6  1       21 0.285969414206D-01 0.100000000000D+01
0.114967314995D-05 0.237585199394D-06 -.908855200946D-08 0.126780943949D-04 0.000000000000D+00  6 21 1 25 -24 2 21 4 0.47412472D-02 0.17933195D+00 0.13959884D+05 0.13959884D+05 0.13959884D+05 0.12513962D+01  1  2  3  1  6  1       21 0.114357142359D-01 0.100000000000D+01
0.438852343936D-06 0.000000000000D+00 0.000000000000D+00 0.126780943949D-04 0.000000000000D+00  6 21 1 25 -24 2 21 4 0.47412472D-02 0.17933195D+00 0.13959884D+05 0.13959884D+05 0.13959884D+05 0.12513962D+01  1  2 15  1  6  1       21 0.436523197679D-02 0.100000000000D+01
-.104715180554D-01 0.000000000000D+00 -.316498486800D-03 0.126780943949D-04 0.000000000000D+00  6 21 1 25 -24 2 21 4 0.73947975D-01 0.17933195D+00 0.13959884D+05 0.13959884D+05 0.13959884D+05 0.12513962D+01  1  2  5  1  6  1       21 -.619460803399D+00 0.100000000000D+01
-.463718337687D-02 0.000000000000D+00 -.139744581935D-03 0.126780943949D-04 0.000000000000D+00  6 -1 1 25 -24 2 -1 4 0.73947975D-01 0.17933195D+00 0.13959884D+05 0.13959884D+05 0.13959884D+05 0.12513962D+01  1  2  5  4  6  1       21 -.291732390495D-01 0.100000000000D+01
-.463718337687D-02 0.000000000000D+00 -.139744581935D-03 0.126780943949D-04 0.000000000000D+00  6 1 1 25 -24 2 1 4 0.73947975D-01 0.17933195D+00 0.13959884D+05 0.13959884D+05 0.13959884D+05 0.12513962D+01  1  2  5  5  6  1       21 -.855082881903D-01 0.100000000000D+01
-.463718337687D-02 0.000000000000D+00 -.139744581935D-03 0.126780943949D-04 0.000000000000D+00  6 -2 1 25 -24 2 -2 4 0.73947975D-01 0.17933195D+00 0.13959884D+05 0.13959884D+05 0.13959884D+05 0.12513962D+01  1  2  5  6  6  1       21 -.224468411892D-01 0.100000000000D+01
-.463718337687D-02 0.000000000000D+00 -.139744581935D-03 0.126780943949D-04 0.000000000000D+00  6 2 1 25 -24 2 2 4 0.73947975D-01 0.17933195D+00 0.13959884D+05 0.13959884D+05 0.13959884D+05 0.12513962D+01  1  2  5  7  6  1       21 -.131932805254D+00 0.100000000000D+01
-.463718337687D-02 0.000000000000D+00 -.139744581935D-03 0.126780943949D-04 0.000000000000D+00  6 -3 1 25 -24 2 -3 4 0.73947975D-01 0.17933195D+00 0.13959884D+05 0.13959884D+05 0.13959884D+05 0.12513962D+01  1  2  5  8  6  1       21 -.139022524706D-01 0.100000000000D+01
-.463718337687D-02 0.000000000000D+00 -.139744581935D-03 0.126780943949D-04 0.000000000000D+00  6 -4 1 25 -24 2 -4 4 0.73947975D-01 0.17933195D+00 0.13959884D+05 0.13959884D+05 0.13959884D+05 0.12513962D+01  1  2  5  8  6  1       21 -.111918541774D-01 0.100000000000D+01
-.463718337687D-02 0.000000000000D+00 -.139744581935D-03 0.126780943949D-04 0.000000000000D+00  6 3 1 25 -24 2 3 4 0.73947975D-01 0.17933195D+00 0.13959884D+05 0.13959884D+05 0.13959884D+05 0.12513962D+01  1  2  5  9  6  1       21 -.139172306037D-01 0.100000000000D+01
-.463718337687D-02 0.000000000000D+00 -.139744581935D-03 0.126780943949D-04 0.000000000000D+00  6 4 1 25 -24 2 4 4 0.73947975D-01 0.17933195D+00 0.13959884D+05 0.13959884D+05 0.13959884D+05 0.12513962D+01  1  2  5  9  6  1       21 -.111918541774D-01 0.100000000000D+01
  </mgrwgt>
  </event>
  <event>
  5     66 -.45631637E-03 0.32965304E+02 0.75467711E-02 0.12354400E+00
       21 -1    0    0  501  502 0.00000000E+00 0.00000000E+00 0.19977978E+02 0.19992051E+02 0.75000000E+00 0.0000E+00 0.9000E+01
        1 -1    0    0  502    0 -.00000000E+00 -.00000000E+00 -.85980155E+03 0.85980161E+03 0.32000000E+00 0.0000E+00 0.9000E+01
       25  1    1    2    0    0 -.11153312E+02 -.49767597E+02 -.51507828E+03 0.53247708E+03 0.12500000E+03 0.0000E+00 0.9000E+01
      -24  1    1    2    0    0 -.82439864E+01 0.23114719E+02 -.17723484E+03 0.19616743E+03 0.80419002E+02 0.0000E+00 0.9000E+01
        2  1    1    2  501    0 0.19397298E+02 0.26652878E+02 -.14751046E+03 0.15114916E+03 0.32000000E+00 0.0000E+00 0.9000E+01
#aMCatNLO 1  0  0  5  1 0.10879388D+02 0.00000000D+00  -5  6  0 0.00000000D+00 0.00000000D+00 0.00000000D+00 0.00000000D+00 0.00000000D+00
  <mgrwgt>
 -.5107481419D+00    5    2    0
 0.131085139307102D+03 0.000000000000000D+00 0.000000000000000D+00 0.131085139307102D+03
 0.131085139307102D+03 -.000000000000000D+00 -.000000000000000D+00 -.131085139307102D+03
 0.136915356845144D+03 -.111537424632801D+02 -.497681891250536D+02 -.227933393847626D+02
 0.905550985864792D+02 -.824427130893129D+01 0.231143279121654D+02 0.336269201888911D+02
 0.346998231825810D+02 0.193980137722113D+02 0.266538612128882D+02 -.108335808041285D+02
 0.000000000000000D+00 0.000000000000000D+00 0.000000000000000D+00 0.000000000000000D+00
 0.131085139307102D+03 0.000000000000000D+00 0.000000000000000D+00 0.131085139307102D+03
 0.131085139307102D+03 -.000000000000000D+00 -.000000000000000D+00 -.131085139307102D+03
 0.135548074789660D+03 -.814949388262700D+01 -.456401982050526D+02 -.244711797109107D+02
 0.907300604422791D+02 -.624537671071747D+01 0.258609111358719D+02 0.325105591839460D+02
 0.242890181720660D+02 0.372086238129030D+01 0.204682620478171D+02 -.125364203680453D+02
 0.116031252102000D+02 0.106740082120542D+02 -.688974978636372D+00 0.449704089501002D+01
0.120112235055D-04 0.000000000000D+00 0.000000000000D+00 0.447893480752D-06 0.000000000000D+00  6 21 1 25 -24 2 21 2 0.30746223D-02 0.13227825D+00 0.15882313D+05 0.15882313D+05 0.15882313D+05 0.12450026D+01  1  2  2  3  6  5        2 0.258482532621D+00 0.100000000000D+01
-.402596730174D-06 0.633849678422D-06 -.242471996707D-07 0.447893480752D-06 0.000000000000D+00  6 21 1 25 -24 2 21 4 0.30746223D-02 0.13227825D+00 0.15882313D+05 0.15882313D+05 0.15882313D+05 0.12450026D+01  1  2  3  3  6  5        2 -.134293421100D-01 0.100000000000D+01
0.126377261459D-05 0.000000000000D+00 0.000000000000D+00 0.447893480752D-06 0.000000000000D+00  6 21 1 25 -24 2 21 4 0.30746223D-02 0.13227825D+00 0.15882313D+05 0.15882313D+05 0.15882313D+05 0.12450026D+01  1  2 15  3  6  5        2 0.421554213400D-01 0.100000000000D+01
0.793884168180D-05 0.000000000000D+00 0.000000000000D+00 0.448606656679D-06 0.000000000000D+00  6 21 1 25 -24 2 21 4 0.30746223D-02 0.13227825D+00 0.15565828D+05 0.15565828D+05 0.15565828D+05 0.12459934D+01  1  2 12  3  6  5        2 0.265588369857D+00 0.100000000000D+01
-.318838991249D-04 0.000000000000D+00 0.000000000000D+00 0.447893480752D-06 0.000000000000D+00  6 21 1 25 -24 2 21 4 0.30746223D-02 0.13227825D+00 0.15882313D+05 0.15882313D+05 0.15882313D+05 0.12450026D+01  1  2  4  3  6  5        2 -.106354512359D+01 0.100000000000D+01
  </mgrwgt>
  </event>
  <event>
  6     66 0.45631637E-03 0.12458226E+02 0.75467711E-02 0.10458889E+00
       21 -1    0    0  501  503 0.00000000E+00 0.00000000E+00 0.29043225E+03 0.29043321E+03 0.75000000E+00 0.0000E+00 0.9000E+01
        1 -1    0    0  502    0 0.00000000E+00 0.00000000E+00 -.84961917E+03 0.84961923E+03 0.32000000E+00 0.0000E+00 0.9000E+01
       25  1    1    2    0    0 0.33493989E+03 -.96589480E+02 -.16286899E+02 0.37068116E+03 0.12500000E+03 0.0000E+00 0.9000E+01
      -24  1    1    2    0    0 -.35991834E+03 0.82753410E+02 -.52165298E+03 0.64418816E+03 0.80419002E+02 0.0000E+00 0.9000E+01
        2  1    1    2  501    0 0.17043405E+02 -.61689056E+01 -.69775144E+02 0.72091651E+02 0.32000000E+00 0.0000E+00 0.9000E+01
       21  1    1    2  502  503 0.79350422E+01 0.20004976E+02 0.48528106E+02 0.53091464E+02 0.75000000E+00 0.0000E+00 0.9000E+01
#aMCatNLO 2  0  0  1  5 0.96053448D+01 0.00000000D+00  -5  6  0 0.00000000D+00 0.00000000D+00 0.00000000D+00 0.00000000D+00 0.00000000D+00
  <mgrwgt>
 0.1813793015D+01    1    2    0
 0.450472930895576D+03 0.000000000000000D+00 0.000000000000000D+00 0.450472930895576D+03
 0.450472930895576D+03 0.000000000000000D+00 0.000000000000000D+00 -.450472930895576D+03
 0.437033712066146D+03 0.338784136005470D+03 -.868970251187461D+02 0.230320823415631D+03
 0.423988343539773D+03 -.356179544619159D+03 0.921800054400277D+02 -.194776482397632D+03
 0.399238061852329D+02 0.173954086136890D+02 -.528298032128156D+01 -.355443410179987D+02
 0.000000000000000D+00 0.000000000000000D+00 0.000000000000000D+00 0.000000000000000D+00
 0.546145453684261D+03 0.000000000000000D+00 0.000000000000000D+00 0.546145453684261D+03
 0.451813346675528D+03 0.000000000000000D+00 0.000000000000000D+00 -.451813346675528D+03
 0.436104052454478D+03 0.334939622554632D+03 -.965893995805143D+02 0.230320823415631D+03
 0.425199524715149D+03 -.359918604266391D+03 0.827534897835479D+02 -.194776482397632D+03
 0.398992911416485D+02 0.170439394826646D+02 -.616906655123070D+01 -.355443410179987D+02
 0.967559320485139D+02 0.793504222909463D+01 0.200049763481970D+02 0.943321070087337D+02
0.100560737875D-01 0.000000000000D+00 0.000000000000D+00 0.379058886661D-07 0.113633450647D-08  6 21 1 25 -24 2 21 4 0.44681820D-01 0.13071030D+00 0.15521006D+06 0.15521006D+06 0.15521006D+06 0.11464304D+01  1  2  1  1  6  1       21 0.181379301515D+01 0.100000000000D+01
  </mgrwgt>
  </event>
  <event>
  5     66 0.45631637E-03 0.24229884E+02 0.75467711E-02 0.11767250E+00
       21 -1    0    0  501  502 0.00000000E+00 0.00000000E+00 0.26147936E+02 0.26158690E+02 0.75000000E+00 0.0000E+00 0.9000E+01
        1 -1    0    0  502    0 0.00000000E+00 0.00000000E+00 -.54856646E+03 0.54856655E+03 0.32000000E+00 0.0000E+00 0.9000E+01
       25  1    1    2    0    0 0.51614723E+01 0.63880204E+01 -.23271024E+03 0.26428489E+03 0.12500000E+03 0.0000E+00 0.9000E+01
      -24  1    1    2    0    0 -.28343990E+02 0.65387260E+00 -.19790965E+03 0.21549769E+03 0.80419002E+02 0.0000E+00 0.9000E+01
        2  1    1    2  501    0 0.23182518E+02 -.70418930E+01 -.91798638E+02 0.94942665E+02 0.32000000E+00 0.0000E+00 0.9000E+01
#aMCatNLO 1  0  0  2  1 0.13863899D-01 0.00000000D+00  -5  6  0 0.00000000D+00 0.00000000D+00 0.00000000D+00 0.00000000D+00 0.00000000D+00
  <mgrwgt>
 0.2903673106D+00    6    2    0
 0.119778954116988D+03 0.000000000000000D+00 0.000000000000000D+00 0.119778954116988D+03
 0.119778954116988D+03 0.000000000000000D+00 0.000000000000000D+00 -.119778954116988D+03
 0.126562588799234D+03 0.516064820085090D+01 0.638827077031200D+01 0.180456806542764D+02
 0.854087268494192D+02 -.283445464735831D+02 0.654041522193210D+00 -.485732257136557D+01
 0.275865925853238D+02 0.231838982727322D+02 -.704231229250521D+01 -.131883580829108D+02
 0.000000000000000D+00 -.000000000000000D+00 -.000000000000000D+00 -.000000000000000D+00
 0.159314311053498D+03 0.000000000000000D+00 0.000000000000000D+00 0.159314311053498D+03
 0.193603032516024D+03 0.000000000000000D+00 0.000000000000000D+00 -.193603032516024D+03
 0.138122343252953D+03 0.170954216392339D+02 0.532436068874675D+02 0.180456806542764D+02
 0.889009164833377D+02 -.204848391408981D+02 0.315108676493697D+02 -.485732257136557D+01
 0.290748460436297D+02 0.257387903381259D+02 0.298806885256786D+01 -.131883580829108D+02
 0.968192377896018D+02 -.223493728364617D+02 -.877425433894051D+02 -.342887214625255D+02
0.363279839985D-05 0.000000000000D+00 0.000000000000D+00 0.613897865579D-06 0.000000000000D+00  6 21 1 25 -24 2 21 2 0.40235938D-02 0.84395674D-01 0.13779221D+05 0.13779221D+05 0.13779221D+05 0.12520474D+01  1  2  2  2  6  2        1 0.958814578488D-01 0.100000000000D+01
-.793997145476D-07 0.191708038441D-06 -.733357331369D-08 0.613897865579D-06 0.000000000000D+00  6 21 1 25 -24 2 21 4 0.40235938D-02 0.84395674D-01 0.13779221D+05 0.13779221D+05 0.13779221D+05 0.12520474D+01  1  2  3  2  6  2        1 -.328513944462D-02 0.100000000000D+01
0.415389988783D-06 0.000000000000D+00 0.000000000000D+00 0.613897865579D-06 0.000000000000D+00  6 21 1 25 -24 2 21 4 0.40235938D-02 0.84395674D-01 0.13779221D+05 0.13779221D+05 0.13779221D+05 0.12520474D+01  1  2 15  2  6  2        1 0.171866365619D-01 0.100000000000D+01
-.416450815961D-05 0.000000000000D+00 -.361468475404D-05 0.613897865579D-06 0.000000000000D+00  6 21 1 25 -24 2 21 4 0.40235938D-02 0.16735842D+00 0.13779221D+05 0.13779221D+05 0.13779221D+05 0.12520474D+01  1  2  5  2  6  2        1 -.617860756430D-01 0.100000000000D+01
0.590790587130D-05 0.000000000000D+00 0.290651013721D-05 0.613897865579D-06 0.000000000000D+00  6 21 1 25 -24 2 21 4 0.40235938D-02 0.84395674D-01 0.13779221D+05 0.13779221D+05 0.13779221D+05 0.12520474D+01  1  2  6  2  6  2        1 0.244437838643D+00 0.100000000000D+01
-.932675016654D-07 0.000000000000D+00 -.267878528347D-06 0.613897865579D-06 0.000000000000D+00  6 21 21 25 -24 2 -1 4 0.40235938D-02 0.16735842D+00 0.13779221D+05 0.13779221D+05 0.13779221D+05 0.12520474D+01  1  2  5 10  6  2        1 -.206740736747D-02 0.100000000000D+01
  </mgrwgt>
  </event>
  <event>
  5     66 0.45631637E-03 0.26931163E+02 0.75467711E-02 0.12314403E+00
       21 -1    0    0  501  502 0.00000000E+00 0.00000000E+00 0.20030074E+02 0.20044110E+02 0.75000000E+00 0.0000E+00 0.9000E+01
        1 -1    0    0  502    0 -.00000000E+00 -.00000000E+00 -.95145679E+03 0.95145685E+03 0.32000000E+00 0.0000E+00 0.9000E+01
       25  1    1    2    0    0 0.33731309E+02 -.46519857E+02 -.45944995E+03 0.47960521E+03 0.12500000E+03 0.0000E+00 0.9000E+01
      -24  1    1    2    0    0 -.35909771E+02 0.19677604E+02 -.44393744E+03 0.45301698E+03 0.80419002E+02 0.0000E+00 0.9000E+01
        2  1    1    2  501    0 0.21784625E+01 0.26842253E+02 -.28039331E+02 0.38878769E+02 0.32000000E+00 0.0000E+00 0.9000E+01
#aMCatNLO 1  0  0  5  2 0.58933225D+00 0.00000000D+00  -5  6  0 0.00000000D+00 0.00000000D+00 0.00000000D+00 0.00000000D+00 0.00000000D+00
  <mgrwgt>
 0.9677860913D-01    7    2    0
 0.138074596584442D+03 0.000000000000000D+00 0.000000000000000D+00 0.138074596584442D+03
 0.138074596584442D+03 -.000000000000000D+00 -.000000000000000D+00 -.138074596584442D+03
 0.137581394143144D+03 0.337312777889232D+02 -.465202410249359D+02 0.130693843750358D+01
 0.963655086962626D+02 -.359097933100855D+02 0.196773345889438D+02 -.337991798690535D+02
 0.422022903294773D+02 0.217851552116226D+01 0.268429064359920D+02 0.324922414315499D+02
 0.000000000000000D+00 0.000000000000000D+00 0.000000000000000D+00 0.000000000000000D+00
 0.138074596584442D+03 0.000000000000000D+00 0.000000000000000D+00 0.138074596584442D+03
 0.138074596584442D+03 -.000000000000000D+00 -.000000000000000D+00 -.138074596584442D+03
 0.137540555948134D+03 0.337421239620977D+02 -.463865982719309D+02 0.146870752933313D+01
 0.963421594000938D+02 -.359021961672928D+02 0.197709439257526D+02 -.336858695917521D+02
 0.416416861956294D+02 0.258146903240296D+01 0.261609832770627D+02 0.322950305902822D+02
 0.624791625026373D+00 -.421396827207855D+00 0.454671069115542D+00 -.778685278631835D-01
0.240019771671D-05 0.000000000000D+00 0.000000000000D+00 0.145433027584D-05 0.000000000000D+00  6 21 1 25 -24 2 21 2 0.30826337D-02 0.14637905D+00 0.16224398D+05 0.16224398D+05 0.16224398D+05 0.12439563D+01  1  2  2  3  6  5        2 0.437071135373D-01 0.100000000000D+01
0.144126831591D-06 0.126661913350D-06 -.484530766241D-08 0.145433027584D-05 0.000000000000D+00  6 21 1 25 -24 2 21 4 0.30826337D-02 0.14637905D+00 0.16224398D+05 0.16224398D+05 0.16224398D+05 0.12439563D+01  1  2  3  3  6  5        2 0.406125439517D-02 0.100000000000D+01
0.229545463661D-06 0.000000000000D+00 0.000000000000D+00 0.145433027584D-05 0.000000000000D+00  6 21 1 25 -24 2 21 4 0.30826337D-02 0.14637905D+00 0.16224398D+05 0.16224398D+05 0.16224398D+05 0.12439563D+01  1  2 15  3  6  5        2 0.646820937426D-02 0.100000000000D+01
-.592896885710D-04 0.000000000000D+00 0.000000000000D+00 0.145433027584D-05 0.000000000000D+00  6 21 1 25 -24 2 21 4 0.30826337D-02 0.14637905D+00 0.16224398D+05 0.16224398D+05 0.16224398D+05 0.12439563D+01  1  2  4  3  6  5        2 -.167068481030D+01 0.100000000000D+01
-.452644083515D-04 0.000000000000D+00 0.000000000000D+00 0.145433027584D-05 0.000000000000D+00  6 21 1 25 -24 2 21 4 0.30826337D-02 0.14637905D+00 0.16224398D+05 0.16224398D+05 0.16224398D+05 0.12439563D+01  1  2  5  3  6  5        2 -.127547574128D+01 0.100000000000D+01
0.462742297960D-04 0.000000000000D+00 -.000000000000D+00 0.145433027584D-05 0.000000000000D+00  6 21 1 25 -24 2 21 4 0.30826337D-02 0.14637905D+00 0.16224398D+05 0.16224398D+05 0.16224398D+05 0.12439563D+01  1  2  6  3  6  5        2 0.130393083000D+01 0.100000000000D+01
0.597862591930D-04 0.000000000000D+00 0.000000000000D+00 0.145433027584D-05 0.354660611356D-04  6 21 1 25 -24 2 21 4 0.30826337D-02 0.14637905D+00 0.16218254D+05 0.16218254D+05 0.16218254D+05 0.12439749D+01  1  2 11  3  6  5        2 0.168477175340D+01 0.100000000000D+01
  </mgrwgt>
  </event>
  <event>
  6     66 0.45631637E-03 0.17598589E+03 0.75467711E-02 0.10514875E+00
        1 -1    0    0  501    0 0.00000000E+00 0.00000000E+00 0.31842492E+03 0.31842508E+03 0.32000000E+00 0.0000E+00 0.9000E+01
        1 -1    0    0  502    0 0.00000000E+00 0.00000000E+00 -.11832257E+04 0.11832257E+04 0.32000000E+00 0.0000E+00 0.9000E+01
       25  1    1    2    0    0 -.28533442E+03 -.17568968E+03 -.49100279E+03 0.60744657E+03 0.12500000E+03 0.0000E+00 0.9000E+01
      -24  1    1    2    0    0 0.11401926E+03 0.59959047E+02 -.32598560E+03 0.35962384E+03 0.80419002E+02 0.0000E+00 0.9000E+01
        2  1    1    2  501    0 -.15595049E+02 0.45056477E+02 -.24751823E+03 0.25206878E+03 0.32000000E+00 0.0000E+00 0.9000E+01
        1  1    1    2  502    0 0.18691021E+03 0.70674152E+02 0.19970588E+03 0.28251160E+03 0.32000000E+00 0.0000E+00 0.9000E+01
#aMCatNLO 2  0  0  1  1 0.19982558D+03 0.00000000D+00  -5  6  0 0.00000000D+00 0.00000000D+00 0.00000000D+00 0.00000000D+00 0.00000000D+00
  <mgrwgt>
 0.5101463992D-02    1    2    0
 0.279819469604819D+03 0.000000000000000D+00 0.000000000000000D+00 0.279819469604819D+03
 0.279819469604819D+03 0.000000000000000D+00 0.000000000000000D+00 -.279819469604819D+03
 0.271849685284032D+03 -.181906160078095D+03 -.136581773524338D+03 0.808258588300563D+02
 0.209003578464473D+03 0.172793758612639D+03 0.821825993218616D+02 -.245686224645184D+02
 0.787856754611330D+02 0.911240146545602D+01 0.543991742024760D+02 -.562572363655379D+02
 0.000000000000000D+00 0.000000000000000D+00 0.000000000000000D+00 0.000000000000000D+00
 0.122368896525722D+04 0.000000000000000D+00 0.000000000000000D+00 0.122368896525722D+04
 0.307895743717589D+03 0.000000000000000D+00 0.000000000000000D+00 -.307895743717589D+03
 0.366661372197561D+03 -.285334529538021D+03 -.175689921906461D+03 0.808258588300563D+02
 0.153838530184796D+03 0.114019259362754D+03 0.599588917477021D+02 -.245686224645184D+02
 0.737441599149327D+02 -.155949422556699D+02 0.450568779889761D+02 -.562572363655379D+02
 0.937340646677519D+03 0.186910212430936D+03 0.706741521697830D+02 0.915793221539631D+03
0.260511358867D-03 0.000000000000D+00 0.000000000000D+00 0.485682659429D-07 0.468550177708D-10  6 1 1 25 -24 2 1 4 0.48988461D-01 0.18203472D+00 0.14326638D+06 0.14326638D+06 0.14326638D+06 0.11494948D+01  1  2  1  5  6  1       21 0.510146399171D-02 0.100000000000D+01
  </mgrwgt>
  </event>
  <event>
  6     66 -.45631637E-03 0.59500476E+02 0.75467711E-02 0.12112762E+00
       21 -1    0    0  503  502 0.00000000E+00 0.00000000E+00 0.32588939E+03 0.32589025E+03 0.75000000E+00 0.0000E+00 0.9000E+01
        1 -1    0    0  502    0 0.00000000E+00 0.00000000E+00 -.71825130E+02 0.71825843E+02 0.32000000E+00 0.0000E+00 0.9000E+01
       25  1    1    2    0    0 0.72219575E+01 0.54955700E+02 0.13439565E+03 0.19172761E+03 0.12500000E+03 0.0000E+00 0.9000E+01
      -24  1    1    2    0    0 0.26181285E+02 -.35476203E+01 0.17362988E+02 0.86410269E+02 0.80419002E+02 0.0000E+00 0.9000E+01
        2  1    1    2  501    0 -.26235094E+02 -.44909902E+02 0.89427378E+02 0.10345307E+03 0.32000000E+00 0.0000E+00 0.9000E+01
       21  1    1    2  503  501 -.71681485E+01 -.64981773E+01 0.12878241E+02 0.16125143E+02 0.75000000E+00 0.0000E+00 0.9000E+01
#aMCatNLO 2  0  0  1  2 0.96751569D+01 0.00000000D+00  -5  6  0 0.00000000D+00 0.00000000D+00 0.00000000D+00 0.00000000D+00 0.00000000D+00
  <mgrwgt>
 -.3654851647D-01    3    2    0
 0.147772925174347D+03 0.000000000000000D+00 0.000000000000000D+00 0.147772925174347D+03
 0.147772925174347D+03 0.000000000000000D+00 0.000000000000000D+00 -.147772925174347D+03
 0.136487504252112D+03 0.389677910054622D+01 0.519414385040249D+02 0.170511259377294D+02
 0.968413981548321D+02 0.238271305524684D+02 -.568165173949880D+01 -.480731434936271D+02
 0.622169479417495D+02 -.277239096530146D+02 -.462597867645261D+02 0.310220175558978D+02
 0.000000000000000D+00 -.000000000000000D+00 -.000000000000000D+00 0.000000000000000D+00
 0.154723842950673D+03 0.000000000000000D+00 0.000000000000000D+00 0.154723842950673D+03
 0.151257645006230D+03 0.000000000000000D+00 0.000000000000000D+00 -.151257645006230D+03
 0.137797170828387D+03 0.722212911533792D+01 0.549559846022691D+02 0.170511259377294D+02
 0.973462547776112D+02 0.261814068690790D+02 -.354741791362836D+01 -.480731434936271D+02
 0.605607480529491D+02 -.262353875069186D+02 -.449103893754682D+02 0.310220175558978D+02
 0.102773142979554D+02 -.716814847749834D+01 -.649817731317249D+01 0.346619794444387D+01
-.716630533383D-05 0.000000000000D+00 0.000000000000D+00 0.504894029608D-06 0.000000000000D+00  6 21 1 25 -24 2 21 4 0.50676776D-01 0.10794597D-01 0.20032595D+05 0.20032595D+05 0.20032595D+05 0.12337482D+01  1  2 13  1  6  1       21 -.379536382171D-01 0.100000000000D+01
-.823467758686D-07 0.000000000000D+00 0.000000000000D+00 0.507625093383D-06 0.000000000000D+00  6 21 1 25 -24 2 21 4 0.47880271D-01 0.10794597D-01 0.18689122D+05 0.18689122D+05 0.18689122D+05 0.12370805D+01  1  2  8  1  6  1       21 -.495588749925D-03 0.100000000000D+01
0.361923580938D-06 0.000000000000D+00 0.000000000000D+00 0.507625093383D-06 0.264207229738D-06  6 21 1 25 -24 2 21 4 0.50132455D-01 0.11049151D-01 0.20032595D+05 0.20032595D+05 0.20032595D+05 0.12337482D+01  1  2  1  1  6  1       21 0.190071049770D-02 0.100000000000D+01
  </mgrwgt>
  </event>
  <event>
  5     66 -.45631637E-03 0.32680028E+02 0.75467711E-02 0.11581642E+00
       21 -1    0    0  501  502 0.00000000E+00 0.00000000E+00 0.98733572E+02 0.98736420E+02 0.75000000E+00 0.0000E+00 0.9000E+01
        1 -1    0    0  502    0 -.00000000E+00 -.00000000E+00 -.68630282E+03 0.68630289E+03 0.32000000E+00 0.0000E+00 0.9000E+01
       25  1    1    2    0    0 -.10585957E+03 -.68150515E+02 -.52674923E+03 0.55582416E+03 0.12500000E+03 0.0000E+00 0.9000E+01
      -24  1    1    2    0    0 0.13408822E+03 0.84613554E+02 -.23050255E+02 0.17926973E+03 0.80419002E+02 0.0000E+00 0.9000E+01
        2  1    1    2  501    0 -.28228650E+02 -.16463039E+02 -.37769756E+02 0.49945422E+02 0.32000000E+00 0.0000E+00 0.9000E+01
#aMCatNLO 1  0  0  5  1 0.97423569D+01 0.00000000D+00  -5  6  0 0.00000000D+00 0.00000000D+00 0.00000000D+00 0.00000000D+00 0.00000000D+00
  <mgrwgt>
 -.5076583601D+00    8    2    0
 0.260311881585945D+03 0.000000000000000D+00 0.000000000000000D+00 0.260311881585945D+03
 0.260311881585945D+03 -.000000000000000D+00 -.000000000000000D+00 -.260311881585945D+03
 0.243634605160232D+03 -.105858941061376D+03 -.681501461039586D+02 -.166979828167823D+03
 0.244303900933871D+03 0.134088859030601D+03 0.846139242227105D+02 0.167564440644909D+03
 0.326852570777874D+02 -.282299179692253D+02 -.164637781187519D+02 -.584612477085809D+00
 0.000000000000000D+00 0.000000000000000D+00 -.000000000000000D+00 0.000000000000000D+00
 0.260311881585945D+03 0.000000000000000D+00 0.000000000000000D+00 0.260311881585945D+03
 0.260311881585945D+03 -.000000000000000D+00 -.000000000000000D+00 -.260311881585945D+03
 0.245720577913547D+03 -.109231796562702D+03 -.701172061804701D+02 -.167049676525570D+03
 0.241758374609202D+03 0.130738699725543D+03 0.826601006401881D+02 0.167495062301971D+03
 0.109133451470453D+02 -.571462228215719D+01 0.364778775581281D+00 -.929037840540925D+01
 0.222314655020955D+02 -.157922808806834D+02 -.129076732352993D+02 0.884499262900779D+01
0.515599220620D-04 0.000000000000D+00 0.000000000000D+00 0.879685018681D-07 0.000000000000D+00  6 21 1 25 -24 2 21 2 0.15190005D-01 0.10558527D+00 0.37611923D+05 0.37611923D+05 0.37611923D+05 0.12047246D+01  1  2  2  3  6  5        2 0.926698557834D-01 0.100000000000D+01
0.249794647976D-05 0.272089183949D-05 -.104084627571D-06 0.879685018681D-07 0.000000000000D+00  6 21 1 25 -24 2 21 4 0.15190005D-01 0.10558527D+00 0.37611923D+05 0.37611923D+05 0.37611923D+05 0.12047246D+01  1  2  3  3  6  5        2 0.651605809637D-02 0.100000000000D+01
0.543297770706D-05 0.000000000000D+00 0.000000000000D+00 0.879685018681D-07 0.000000000000D+00  6 21 1 25 -24 2 21 4 0.15190005D-01 0.10558527D+00 0.37611923D+05 0.37611923D+05 0.37611923D+05 0.12047246D+01  1  2 15  3  6  5        2 0.141722805762D-01 0.100000000000D+01
0.976547941297D-05 0.000000000000D+00 0.000000000000D+00 0.882128001127D-07 0.000000000000D+00  6 21 1 25 -24 2 21 4 0.15190005D-01 0.10558527D+00 0.36225435D+05 0.36225435D+05 0.36225435D+05 0.12063963D+01  1  2 12  3  6  5        2 0.256358969485D-01 0.100000000000D+01
-.268504200490D-03 0.000000000000D+00 0.000000000000D+00 0.879685018681D-07 0.000000000000D+00  6 21 1 25 -24 2 21 4 0.15190005D-01 0.10558527D+00 0.37611923D+05 0.37611923D+05 0.37611923D+05 0.12047246D+01  1  2  4  3  6  5        2 -.700410910998D+00 0.100000000000D+01
-.817895495118D-05 0.000000000000D+00 0.000000000000D+00 0.879685018681D-07 0.000000000000D+00  6 21 1 25 -24 2 21 4 0.15190005D-01 0.10558527D+00 0.37611923D+05 0.37611923D+05 0.37611923D+05 0.12047246D+01  1  2  5  3  6  5        2 -.213353432755D-01 0.100000000000D+01
0.287873618534D-04 0.000000000000D+00 -.000000000000D+00 0.879685018681D-07 0.000000000000D+00  6 21 1 25 -24 2 21 4 0.15190005D-01 0.10558527D+00 0.37611923D+05 0.37611923D+05 0.37611923D+05 0.12047246D+01  1  2  6  3  6  5        2 0.750937315103D-01 0.100000000000D+01
0.271388700043D-10 0.000000000000D+00 0.000000000000D+00 0.879685018681D-07 0.630297800334D-08  6 21 1 25 -24 2 21 4 0.15190005D-01 0.10558527D+00 0.36225435D+05 0.36225435D+05 0.36225435D+05 0.12063963D+01  1  2 11  3  6  5        2 0.712437398418D-07 0.100000000000D+01
  </mgrwgt>
  </event>
  <event>
  6     66 0.45631637E-03 0.10859661E+03 0.75467711E-02 0.11747519E+00
       21 -1    0    0  501  502 0.00000000E+00 0.00000000E+00 0.42744886E+02 0.42751466E+02 0.75000000E+00 0.0000E+00 0.9000E+01
        1 -1    0    0  502    0 -.00000000E+00 -.00000000E+00 -.15480123E+04 0.15480123E+04 0.32000000E+00 0.0000E+00 0.9000E+01
       25  1    1    2    0    0 -.26398486E+02 -.59626596E+02 -.98624050E+03 0.99626680E+03 0.12500000E+03 0.0000E+00 0.9000E+01
      -24  1    1    2    0    0 0.26409271E+01 -.48731925E+02 -.45585144E+03 0.46545626E+03 0.80419002E+02 0.0000E+00 0.9000E+01
        2  1    1    2  503    0 0.22762865E+02 0.10163669E+03 -.63854798E+02 0.12217079E+03 0.32000000E+00 0.0000E+00 0.9000E+01
       21  1    1    2  501  503 0.99469319E+00 0.67218274E+01 0.67931350E+00 0.68699596E+01 0.75000000E+00 0.0000E+00 0.9000E+01
#aMCatNLO 2  0  0  5  1 0.57956430D+01 0.00000000D+00  -5  6  0 0.00000000D+00 0.00000000D+00 0.00000000D+00 0.00000000D+00 0.00000000D+00
  <mgrwgt>
 0.1184544180D+00    5    2    0
 0.257244766433282D+03 0.000000000000000D+00 0.000000000000000D+00 0.257244766433282D+03
 0.257244766433282D+03 -.000000000000000D+00 -.000000000000000D+00 -.257244766433282D+03
 0.195130362328416D+03 -.264335102356012D+02 -.597863432713941D+02 -.134824778869755D+03
 0.105554681088922D+03 0.262197861281720D+01 -.488183491453515D+02 -.477961165816839D+02
 0.213804489449226D+03 0.238115316227840D+02 0.108604692416746D+03 0.182620895451439D+03
 0.000000000000000D+00 0.000000000000000D+00 0.000000000000000D+00 0.000000000000000D+00
 0.257244766433282D+03 0.000000000000000D+00 0.000000000000000D+00 0.257244766433282D+03
 0.257244766433282D+03 -.000000000000000D+00 -.000000000000000D+00 -.257244766433282D+03
 0.194891425787269D+03 -.263985219679940D+02 -.596267613468934D+02 -.134556438770431D+03
 0.105449570528080D+03 0.264090748665652D+01 -.487320143159217D+02 -.476509428925157D+02
 0.191090839541303D+03 0.227876416303484D+02 0.101741327487518D+03 0.160140983594470D+03
 0.230576970099111D+02 0.969972850989105D+00 0.661744817529716D+01 0.220663980684766D+02
-.176896030014D-04 0.000000000000D+00 0.000000000000D+00 0.125260331645D-05 0.000000000000D+00  6 21 1 25 -24 2 21 4 0.65766450D-02 0.23815625D+00 0.29930032D+05 0.29930032D+05 0.29930032D+05 0.12150048D+01  1  2 13  3  6  5        2 -.494103686514D-01 0.100000000000D+01
-.878591633541D-06 0.000000000000D+00 0.000000000000D+00 0.125241188509D-05 0.000000000000D+00  6 21 1 25 -24 2 21 4 0.65766450D-02 0.23815625D+00 0.29991051D+05 0.29991051D+05 0.29991051D+05 0.12149120D+01  1  2  8  3  6  5        2 -.245317542566D-02 0.100000000000D+01
-.178309424564D-06 0.000000000000D+00 0.000000000000D+00 0.125241188509D-05 0.000000000000D+00  6 21 1 25 -24 2 21 4 0.65766450D-02 0.23815625D+00 0.29991051D+05 0.29991051D+05 0.29991051D+05 0.12149120D+01  1  2  9  3  6  5        2 -.497869865595D-03 0.100000000000D+01
0.198569362730D-06 0.000000000000D+00 0.000000000000D+00 0.125241188509D-05 0.000000000000D+00  6 21 1 25 -24 2 21 4 0.65766450D-02 0.23815625D+00 0.29991051D+05 0.29991051D+05 0.29991051D+05 0.12149120D+01  1  2 10  3  6  5        2 0.554439016195D-03 0.100000000000D+01
0.609559598454D-04 0.000000000000D+00 0.000000000000D+00 0.125241188509D-05 0.114030049393D-05  6 21 1 25 -24 2 21 4 0.65766450D-02 0.23815625D+00 0.29930032D+05 0.29930032D+05 0.29930032D+05 0.12150048D+01  1  2  1  3  6  5        2 0.170261392933D+00 0.100000000000D+01
  </mgrwgt>
  </event>
  <event>
  6     66 0.45631637E-03 0.63840727E+02 0.75467711E-02 0.11373220E+00
       21 -1    0    0  501  502 0.00000000E+00 0.00000000E+00 0.10191494E+03 0.10191770E+03 0.75000000E+00 0.0000E+00 0.9000E+01
        1 -1    0    0  503    0 0.00000000E+00 0.00000000E+00 -.10584060E+04 0.10584061E+04 0.32000000E+00 0.0000E+00 0.9000E+01
       25  1    1    2    0    0 -.79191306E+02 -.57974388E+02 -.14119572E+02 0.15955142E+03 0.12500000E+03 0.0000E+00 0.9000E+01
      -24  1    1    2    0    0 0.13862338E+03 0.10874800E+03 -.34374215E+03 0.39454842E+03 0.80419002E+02 0.0000E+00 0.9000E+01
        2  1    1    2  501    0 -.81864044E+01 -.50785095E+01 -.11121870E+02 0.14717570E+02 0.32000000E+00 0.0000E+00 0.9000E+01
       21  1    1    2  503  502 -.51245668E+02 -.45695105E+02 -.58750751E+03 0.59150638E+03 0.75000000E+00 0.0000E+00 0.9000E+01
#aMCatNLO 2  0  0  2  5 0.16858943D+02 0.00000000D+00  -5  6  0 0.00000000D+00 0.00000000D+00 0.00000000D+00 0.00000000D+00 0.00000000D+00
  <mgrwgt>
 0.3075232105D-01    1    2    0
 0.213711362311389D+03 0.000000000000000D+00 0.000000000000000D+00 0.213711362311389D+03
 0.213711362311389D+03 0.000000000000000D+00 0.000000000000000D+00 -.213711362311389D+03
 0.215834599230462D+03 -.103816540346952D+03 -.799328273568034D+02 0.117441233330169D+03
 0.200078788731265D+03 0.113279304685821D+03 0.861486148048810D+02 -.115371231435296D+03
 0.115093366610519D+02 -.946276433886934D+01 -.621578744807759D+01 -.207000189487307D+01
 0.000000000000000D+00 -.000000000000000D+00 -.000000000000000D+00 -.000000000000000D+00
 0.220782018193767D+03 0.000000000000000D+00 0.000000000000000D+00 0.220782018193767D+03
 0.488574778487924D+03 0.000000000000000D+00 0.000000000000000D+00 -.488574778487924D+03
 0.197609038970804D+03 -.791895720622308D+02 -.579732755108291D+02 0.117441233330169D+03
 0.225435367244175D+03 0.138625259141664D+03 0.108749277400613D+03 -.115371231435296D+03
 0.985783066321225D+01 -.819001878564638D+01 -.508089655774934D+01 -.207000189487307D+01
 0.276454559803499D+03 -.512456682937865D+02 -.456951053320345D+02 -.267792760294157D+03
0.257574545088D-04 0.000000000000D+00 0.000000000000D+00 0.390340083227D-06 0.103131906759D-08  6 21 1 25 -24 2 21 4 0.15679401D-01 0.16283155D+00 0.46418368D+05 0.46418368D+05 0.46418368D+05 0.11954919D+01  1  2  1  2  6  2        1 0.307523210547D-01 0.100000000000D+01
  </mgrwgt>
  </event>
  <event>
  6     66 0.45631637E-03 0.23469170E+02 0.75467711E-02 0.12404624E+00
       21 -1    0    0  501  502 0.00000000E+00 0.00000000E+00 0.75362972E+01 0.75735246E+01 0.75000000E+00 0.0000E+00 0.9000E+01
        1 -1    0    0  502    0 -.00000000E+00 -.00000000E+00 -.20029463E+04 0.20029463E+04 0.32000000E+00 0.0000E+00 0.9000E+01
       25  1    1    2    0    0 -.16955770E+01 0.21166333E+02 -.10655219E+04 0.10730391E+04 0.12500000E+03 0.0000E+00 0.9000E+01
      -24  1    1    2    0    0 0.19945083E+02 0.59482754E+01 -.64921337E+03 0.65450623E+03 0.80419002E+02 0.0000E+00 0.9000E+01
        2  1    1    2  503    0 -.18296811E+01 -.68489995E+01 -.25494728E+02 0.26463939E+02 0.32000000E+00 0.0000E+00 0.9000E+01
       21  1    1    2  501  503 -.16419825E+02 -.20265608E+02 -.25517996E+03 0.25651059E+03 0.75000000E+00 0.0000E+00 0.9000E+01
#aMCatNLO 2  0  0  5  1 0.60765576D+01 0.00000000D+00  -5  6  0 0.00000000D+00 0.00000000D+00 0.00000000D+00 0.00000000D+00 0.00000000D+00
  <mgrwgt>
 0.2369295426D+00    2    2    0
 0.123013198529415D+03 0.000000000000000D+00 0.000000000000000D+00 0.123013198529415D+03
 0.123013198529415D+03 -.000000000000000D+00 -.000000000000000D+00 -.123013198529415D+03
 0.127109181887264D+03 -.733922822283413D+00 0.225951315442582D+02 -.454593310972129D+01
 0.833487135333741D+02 0.205754114686536D+02 0.688479984510211D+01 0.300733557928001D+01
 0.355685016381926D+02 -.198414886463702D+02 -.294799313893603D+02 0.153859753044128D+01
 0.000000000000000D+00 -.000000000000000D+00 0.000000000000000D+00 0.000000000000000D+00
 0.123013198529415D+03 0.000000000000000D+00 0.000000000000000D+00 0.123013198529415D+03
 0.123013198529415D+03 -.000000000000000D+00 -.000000000000000D+00 -.123013198529415D+03
 0.126884686809760D+03 -.163197043910980D+01 0.212608373992842D+02 -.447629449186886D+01
 0.831392185289163D+02 0.199867591071384D+02 0.601019655605764D+01 0.305298230901172D+01
 0.886567545433953D+01 -.165530721235180D+01 -.636454895748840D+01 0.594581162350001D+01
 0.271368162658146D+02 -.166994814556768D+02 -.209064849978534D+02 -.452249944064287D+01
-.293847021322D-05 0.000000000000D+00 0.000000000000D+00 0.675150606393D-06 0.000000000000D+00  6 21 1 25 -24 2 21 4 0.11622959D-02 0.30814845D+00 0.14789290D+05 0.14789290D+05 0.14789290D+05 0.12485236D+01  1  2 13  3  6  5        2 -.814965694274D-01 0.100000000000D+01
0.114812887458D-04 0.000000000000D+00 0.000000000000D+00 0.673996628999D-06 0.867468210010D-07  6 21 1 25 -24 2 21 4 0.11622959D-02 0.30814845D+00 0.14789290D+05 0.14789290D+05 0.14789290D+05 0.12485236D+01  1  2  1  3  6  5        2 0.318426112055D+00 0.100000000000D+01
  </mgrwgt>
  </event>
  <event>
  5     66 -.45631637E-03 0.22097507E+02 0.75467711E-02 0.12335160E+00
       21 -1    0    0  501  502 0.00000000E+00 0.00000000E+00 0.91602207E+02 0.91605277E+02 0.75000000E+00 0.0000E+00 0.9000E+01
        3 -1    0    0  502    0 0.00000000E+00 0.00000000E+00 -.20653501E+03 0.20653562E+03 0.50000000E+00 0.0000E+00 0.9000E+01
       25  1    1    2    0    0 -.50640368E+02 0.33181853E+01 -.42674682E+02 0.14149765E+03 0.12500000E+03 0.0000E+00 0.9000E+01
      -24  1    1    2    0    0 0.38460112E+02 -.21736622E+02 -.89810252E+02 0.12839298E+03 0.80419002E+02 0.0000E+00 0.9000E+01
        4  1    1    2  501    0 0.12180255E+02 0.18418437E+02 0.17552128E+02 0.28250259E+02 0.15500000E+01 0.0000E+00 0.9000E+01
#aMCatNLO 1  0  0  1  5 0.33756068D+01 0.00000000D+00  -5  6  0 0.00000000D+00 0.00000000D+00 0.00000000D+00 0.00000000D+00 0.00000000D+00
  <mgrwgt>
 -.2102668437D-01   41    2    0
 0.137548576568402D+03 0.000000000000000D+00 0.000000000000000D+00 0.137548576568402D+03
 0.137548576568402D+03 0.000000000000000D+00 0.000000000000000D+00 -.137548576568402D+03
 0.135521754938497D+03 -.506453790009514D+02 0.331060724838798D+01 0.128542415998387D+02
 0.101629997712899D+03 0.384563542412910D+02 -.217423048770457D+02 -.437015042973952D+02
 0.379454004854072D+02 0.121890247596604D+02 0.184316976286577D+02 0.308472626975565D+02
 0.000000000000000D+00 0.000000000000000D+00 0.000000000000000D+00 0.000000000000000D+00
 0.169092305036210D+03 0.000000000000000D+00 0.000000000000000D+00 0.169092305036210D+03
 0.137649269939837D+03 0.000000000000000D+00 0.000000000000000D+00 -.137649269939837D+03
 0.136150389420810D+03 -.523097751818036D+02 0.322248859737836D+01 0.128542415998387D+02
 0.101180531032039D+03 0.372138379344544D+02 -.218080878090636D+02 -.437015042973952D+02
 0.377869422624806D+02 0.117250514570833D+02 0.184071333440253D+02 0.308472626975565D+02
 0.316237122607178D+02 0.337088579026584D+01 0.178465867659951D+00 0.314430350963729D+02
0.329976181306D-06 0.000000000000D+00 0.000000000000D+00 0.187805776349D-05 0.000000000000D+00  6 21 3 25 -24 4 21 2 0.14092930D-01 0.31774900D-01 0.15470693D+05 0.15470693D+05 0.15470693D+05 0.12462957D+01  1  2  2  1  6  1       21 0.104003578788D-02 0.100000000000D+01
0.279425648977D-07 0.174133214915D-07 -.666126839705D-09 0.187805776349D-05 0.000000000000D+00  6 21 3 25 -24 4 21 4 0.14092930D-01 0.31774900D-01 0.15470693D+05 0.15470693D+05 0.15470693D+05 0.12462957D+01  1  2  3  1  6  1       21 0.136796238945D-03 0.100000000000D+01
0.304024391104D-07 0.000000000000D+00 0.000000000000D+00 0.187805776349D-05 0.000000000000D+00  6 21 3 25 -24 4 21 4 0.14092930D-01 0.31774900D-01 0.15470693D+05 0.15470693D+05 0.15470693D+05 0.12462957D+01  1  2 15  1  6  1       21 0.148838853566D-03 0.100000000000D+01
0.143528014641D-05 0.000000000000D+00 0.000000000000D+00 0.187422361961D-05 0.000000000000D+00  6 21 3 25 -24 4 21 4 0.17329216D-01 0.31774900D-01 0.15875778D+05 0.15875778D+05 0.15875778D+05 0.12450229D+01  1  2 12  1  6  1       21 0.482078784042D-02 0.100000000000D+01
0.134537327694D-05 0.000000000000D+00 0.000000000000D+00 0.187422361961D-05 0.000000000000D+00  6 21 3 25 -24 4 21 4 0.17541285D-01 0.31774900D-01 0.15875778D+05 0.15875778D+05 0.15875778D+05 0.12450229D+01  1  2 12  1  6  1       21 0.441965005526D-02 0.100000000000D+01
-.796987449565D-04 0.000000000000D+00 0.000000000000D+00 0.187805776349D-05 0.000000000000D+00  6 21 3 25 -24 4 21 4 0.14092930D-01 0.31774900D-01 0.15470693D+05 0.15470693D+05 0.15470693D+05 0.12462957D+01  1  2  4  1  6  1       21 -.390174939151D+00 0.100000000000D+01
-.849122436890D-04 0.000000000000D+00 -.582502235009D-06 0.187805776349D-05 0.000000000000D+00  6 21 3 25 -24 4 21 4 0.17330849D-01 0.31774900D-01 0.15470693D+05 0.15470693D+05 0.15470693D+05 0.12462957D+01  1  2  5  1  6  1       21 -.286065656086D+00 0.100000000000D+01
0.776722605226D-04 0.000000000000D+00 0.535539364142D-06 0.187805776349D-05 0.000000000000D+00  6 21 3 25 -24 4 21 4 0.14092930D-01 0.31774900D-01 0.15470693D+05 0.15470693D+05 0.15470693D+05 0.12462957D+01  1  2  6  1  6  1       21 0.380254037120D+00 0.100000000000D+01
0.791084526013D-04 0.000000000000D+00 0.000000000000D+00 0.187805776349D-05 0.350989186762D-05  6 21 3 25 -24 4 21 4 0.17324832D-01 0.31798161D-01 0.15875778D+05 0.15875778D+05 0.15875778D+05 0.12450229D+01  1  2 11  1  6  1       21 0.265468713484D+00 0.100000000000D+01
0.893204619638D-07 0.000000000000D+00 0.000000000000D+00 0.187422361961D-05 0.000000000000D+00  6 -3 3 25 -24 4 -3 4 0.17329216D-01 0.31774900D-01 0.15875778D+05 0.15875778D+05 0.15875778D+05 0.12450229D+01  1  2 12  4  6  1       21 0.136820200436D-04 0.100000000000D+01
0.898647609458D-07 0.000000000000D+00 0.000000000000D+00 0.187422361961D-05 0.000000000000D+00  6 -3 3 25 -24 4 -3 4 0.17541285D-01 0.31774900D-01 0.15875778D+05 0.15875778D+05 0.15875778D+05 0.12450229D+01  1  2 12  4  6  1       21 0.134783747962D-04 0.100000000000D+01
-.526168888523D-05 0.000000000000D+00 -.347986776167D-07 0.187805776349D-05 0.000000000000D+00  6 -3 3 25 -24 4 -3 4 0.17330849D-01 0.31774900D-01 0.15470693D+05 0.15470693D+05 0.15470693D+05 0.12462957D+01  1  2  5  4  6  1       21 -.807537201942D-03 0.100000000000D+01
0.445498167566D-05 0.000000000000D+00 0.000000000000D+00 0.187805776349D-05 0.184201504517D-06  6 -3 3 25 -24 4 -3 4 0.17324832D-01 0.31798161D-01 0.15875778D+05 0.15875778D+05 0.15875778D+05 0.12450229D+01  1  2 11  4  6  1       21 0.681779905631D-03 0.100000000000D+01
0.893204619638D-07 0.000000000000D+00 0.000000000000D+00 0.187422361961D-05 0.000000000000D+00  6 3 3 25 -24 4 3 4 0.17329216D-01 0.31774900D-01 0.15875778D+05 0.15875778D+05 0.15875778D+05 0.12450229D+01  1  2 12  5  6  1       21 0.136804441345D-04 0.100000000000D+01
0.898647609458D-07 0.000000000000D+00 0.000000000000D+00 0.187422361961D-05 0.000000000000D+00  6 3 3 25 -24 4 3 4 0.17541285D-01 0.31774900D-01 0.15875778D+05 0.15875778D+05 0.15875778D+05 0.12450229D+01  1  2 12  5  6  1       21 0.134768382810D-04 0.100000000000D+01
-.526168888523D-05 0.000000000000D+00 -.347986776167D-07 0.187805776349D-05 0.000000000000D+00  6 3 3 25 -24 4 3 4 0.17330849D-01 0.31774900D-01 0.15470693D+05 0.15470693D+05 0.15470693D+05 0.12462957D+01  1  2  5  5  6  1       21 -.807443844473D-03 0.100000000000D+01
0.445302078593D-05 0.000000000000D+00 0.000000000000D+00 0.187805776349D-05 0.184158866803D-06  6 3 3 25 -24 4 3 4 0.17324832D-01 0.31798161D-01 0.15875778D+05 0.15875778D+05 0.15875778D+05 0.12450229D+01  1  2 11  5  6  1       21 0.681401305763D-03 0.100000000000D+01
0.893204619638D-07 0.000000000000D+00 0.000000000000D+00 0.187422361961D-05 0.000000000000D+00  6 -4 3 25 -24 4 -4 4 0.17329216D-01 0.31774900D-01 0.15875778D+05 0.15875778D+05 0.15875778D+05 0.12450229D+01  1  2 12  6  6  1       21 0.116954784935D-04 0.100000000000D+01
0.898647609458D-07 0.000000000000D+00 0.000000000000D+00 0.187422361961D-05 0.000000000000D+00  6 -4 3 25 -24 4 -4 4 0.17541285D-01 0.31774900D-01 0.15875778D+05 0.15875778D+05 0.15875778D+05 0.12450229D+01  1  2 12  6  6  1       21 0.115161932890D-04 0.100000000000D+01
-.526168888523D-05 0.000000000000D+00 -.347986776167D-07 0.187805776349D-05 0.000000000000D+00  6 -4 3 25 -24 4 -4 4 0.17330849D-01 0.31774900D-01 0.15470693D+05 0.15470693D+05 0.15470693D+05 0.12462957D+01  1  2  5  6  6  1       21 -.690078854719D-03 0.100000000000D+01
0.534663678342D-05 0.000000000000D+00 0.000000000000D+00 0.187805776349D-05 0.236245274338D-06  6 -4 3 25 -24 4 -4 4 0.17324832D-01 0.31798161D-01 0.15875778D+05 0.15875778D+05 0.15875778D+05 0.12450229D+01  1  2 11  6  6  1       21 0.699440551019D-03 0.100000000000D+01
0.893204619638D-07 0.000000000000D+00 0.000000000000D+00 0.187422361961D-05 0.000000000000D+00  6 4 3 25 -24 4 4 4 0.17329216D-01 0.31774900D-01 0.15875778D+05 0.15875778D+05 0.15875778D+05 0.12450229D+01  1  2 12  7  6  1       21 0.116954784935D-04 0.100000000000D+01
0.898647609458D-07 0.000000000000D+00 0.000000000000D+00 0.187422361961D-05 0.000000000000D+00  6 4 3 25 -24 4 4 4 0.17541285D-01 0.31774900D-01 0.15875778D+05 0.15875778D+05 0.15875778D+05 0.12450229D+01  1  2 12  7  6  1       21 0.115161932890D-04 0.100000000000D+01
-.526168888523D-05 0.000000000000D+00 -.347986776167D-07 0.187805776349D-05 0.000000000000D+00  6 4 3 25 -24 4 4 4 0.17330849D-01 0.31774900D-01 0.15470693D+05 0.15470693D+05 0.15470693D+05 0.12462957D+01  1  2  5  7  6  1       21 -.690078854719D-03 0.100000000000D+01
0.450507864965D-05 0.000000000000D+00 0.000000000000D+00 0.187805776349D-05 0.935276997525D-07  6 4 3 25 -24 4 4 4 0.17324832D-01 0.31798161D-01 0.15875778D+05 0.15875778D+05 0.15875778D+05 0.12450229D+01  1  2 11  7  6  1       21 0.589348934805D-03 0.100000000000D+01
0.893204619638D-07 0.000000000000D+00 0.000000000000D+00 0.187422361961D-05 0.000000000000D+00  6 -1 3 25 -24 4 -1 4 0.17329216D-01 0.31774900D-01 0.15875778D+05 0.15875778D+05 0.15875778D+05 0.12450229D+01  1  2 12  8  6  1       21 0.225594608633D-04 0.100000000000D+01
0.893204619638D-07 0.000000000000D+00 0.000000000000D+00 0.187422361961D-05 0.000000000000D+00  6 -2 3 25 -24 4 -2 4 0.17329216D-01 0.31774900D-01 0.15875778D+05 0.15875778D+05 0.15875778D+05 0.12450229D+01  1  2 12  8  6  1       21 0.208685286888D-04 0.100000000000D+01
0.898647609458D-07 0.000000000000D+00 0.000000000000D+00 0.187422361961D-05 0.000000000000D+00  6 -1 3 25 -24 4 -1 4 0.17541285D-01 0.31774900D-01 0.15875778D+05 0.15875778D+05 0.15875778D+05 0.12450229D+01  1  2 12  8  6  1       21 0.222641573057D-04 0.100000000000D+01
0.898647609458D-07 0.000000000000D+00 0.000000000000D+00 0.187422361961D-05 0.000000000000D+00  6 -2 3 25 -24 4 -2 4 0.17541285D-01 0.31774900D-01 0.15875778D+05 0.15875778D+05 0.15875778D+05 0.12450229D+01  1  2 12  8  6  1       21 0.205761657384D-04 0.100000000000D+01
-.526168888523D-05 0.000000000000D+00 -.347986776167D-07 0.187805776349D-05 0.000000000000D+00  6 -1 3 25 -24 4 -1 4 0.17330849D-01 0.31774900D-01 0.15470693D+05 0.15470693D+05 0.15470693D+05 0.12462957D+01  1  2  5  8  6  1       21 -.133238336182D-02 0.100000000000D+01
-.526168888523D-05 0.000000000000D+00 -.347986776167D-07 0.187805776349D-05 0.000000000000D+00  6 -2 3 25 -24 4 -2 4 0.17330849D-01 0.31774900D-01 0.15470693D+05 0.15470693D+05 0.15470693D+05 0.12462957D+01  1  2  5  8  6  1       21 -.123247685518D-02 0.100000000000D+01
0.445638786202D-05 0.000000000000D+00 0.000000000000D+00 0.187805776349D-05 0.184259646539D-06  6 -1 3 25 -24 4 -1 4 0.17324832D-01 0.31798161D-01 0.15875778D+05 0.15875778D+05 0.15875778D+05 0.12450229D+01  1  2 11  8  6  1       21 0.112445827495D-02 0.100000000000D+01
0.445638786202D-05 0.000000000000D+00 0.000000000000D+00 0.187805776349D-05 0.184259646539D-06  6 -2 3 25 -24 4 -2 4 0.17324832D-01 0.31798161D-01 0.15875778D+05 0.15875778D+05 0.15875778D+05 0.12450229D+01  1  2 11  8  6  1       21 0.104019517429D-02 0.100000000000D+01
0.893204619638D-07 0.000000000000D+00 0.000000000000D+00 0.187422361961D-05 0.000000000000D+00  6 1 3 25 -24 4 1 4 0.17329216D-01 0.31774900D-01 0.15875778D+05 0.15875778D+05 0.15875778D+05 0.12450229D+01  1  2 12  9  6  1       21 0.324258623283D-04 0.100000000000D+01
0.893204619638D-07 0.000000000000D+00 0.000000000000D+00 0.187422361961D-05 0.000000000000D+00  6 2 3 25 -24 4 2 4 0.17329216D-01 0.31774900D-01 0.15875778D+05 0.15875778D+05 0.15875778D+05 0.12450229D+01  1  2 12  9  6  1       21 0.392706915164D-04 0.100000000000D+01
0.898647609458D-07 0.000000000000D+00 0.000000000000D+00 0.187422361961D-05 0.000000000000D+00  6 1 3 25 -24 4 1 4 0.17541285D-01 0.31774900D-01 0.15875778D+05 0.15875778D+05 0.15875778D+05 0.12450229D+01  1  2 12  9  6  1       21 0.321196651181D-04 0.100000000000D+01
0.898647609458D-07 0.000000000000D+00 0.000000000000D+00 0.187422361961D-05 0.000000000000D+00  6 2 3 25 -24 4 2 4 0.17541285D-01 0.31774900D-01 0.15875778D+05 0.15875778D+05 0.15875778D+05 0.12450229D+01  1  2 12  9  6  1       21 0.389624757720D-04 0.100000000000D+01
-.526168888523D-05 0.000000000000D+00 -.347986776167D-07 0.187805776349D-05 0.000000000000D+00  6 1 3 25 -24 4 1 4 0.17330849D-01 0.31774900D-01 0.15470693D+05 0.15470693D+05 0.15470693D+05 0.12462957D+01  1  2  5  9  6  1       21 -.191521202970D-02 0.100000000000D+01
-.526168888523D-05 0.000000000000D+00 -.347986776167D-07 0.187805776349D-05 0.000000000000D+00  6 2 3 25 -24 4 2 4 0.17330849D-01 0.31774900D-01 0.15470693D+05 0.15470693D+05 0.15470693D+05 0.12462957D+01  1  2  5  9  6  1       21 -.231946879848D-02 0.100000000000D+01
0.445638786202D-05 0.000000000000D+00 0.000000000000D+00 0.187805776349D-05 0.184259646539D-06  6 1 3 25 -24 4 1 4 0.17324832D-01 0.31798161D-01 0.15875778D+05 0.15875778D+05 0.15875778D+05 0.12450229D+01  1  2 11  9  6  1       21 0.161611771512D-02 0.100000000000D+01
0.445638786202D-05 0.000000000000D+00 0.000000000000D+00 0.187805776349D-05 0.184259646539D-06  6 2 3 25 -24 4 2 4 0.17324832D-01 0.31798161D-01 0.15875778D+05 0.15875778D+05 0.15875778D+05 0.12450229D+01  1  2 11  9  6  1       21 0.195720139493D-02 0.100000000000D+01
  </mgrwgt>
  </event>
  <event>
  5     66 0.45631637E-03 0.44592878E+02 0.75467711E-02 0.11559516E+00
       21 -1    0    0  501  502 0.00000000E+00 0.00000000E+00 0.42313061E+02 0.42319707E+02 0.75000000E+00 0.0000E+00 0.9000E+01
        1 -1    0    0  502    0 0.00000000E+00 0.00000000E+00 -.15545233E+04 0.15545233E+04 0.32000000E+00 0.0000E+00 0.9000E+01
       25  1    1    2    0    0 0.41207226E+02 -.10746694E+03 -.79995340E+03 0.81780048E+03 0.12500000E+03 0.0000E+00 0.9000E+01
      -24  1    1    2    0    0 0.25742317E+01 0.98999111E+02 -.72217721E+03 0.73335843E+03 0.80419002E+02 0.0000E+00 0.9000E+01
        2  1    1    2  501    0 -.43781457E+02 0.84678308E+01 0.99204023E+01 0.45684100E+02 0.32000000E+00 0.0000E+00 0.9000E+01
#aMCatNLO 1  0  0  2  1 0.34570030D+02 0.00000000D+00  -5  6  0 0.00000000D+00 0.00000000D+00 0.00000000D+00 0.00000000D+00 0.00000000D+00
  <mgrwgt>
 0.3542730922D+00    9    2    0
 0.256479961447666D+03 0.000000000000000D+00 0.000000000000000D+00 0.256479961447666D+03
 0.256479961447666D+03 0.000000000000000D+00 0.000000000000000D+00 -.256479961447666D+03
 0.187541563225932D+03 0.412072536595772D+02 -.107466947175131D+03 -.793703688281651D+02
 0.153958536977528D+03 0.257425457174864D+01 0.989991065236179D+02 -.861891250379963D+02
 0.171459822691873D+03 -.437815082313259D+02 0.846784065151297D+01 0.165559493866161D+03
 0.000000000000000D+00 0.000000000000000D+00 0.000000000000000D+00 -.000000000000000D+00
 0.269704106080470D+03 0.000000000000000D+00 0.000000000000000D+00 0.269704106080470D+03
 0.280694344474965D+03 0.000000000000000D+00 0.000000000000000D+00 -.280694344474965D+03
 0.185675668254921D+03 0.286729250289984D+02 -.108298945997983D+03 -.793703688281651D+02
 0.153692772225571D+03 -.775807279126943D+01 0.983132712900990D+02 -.861891250379963D+02
 0.174755055833421D+03 -.554089752885499D+02 0.769603713578549D+01 0.165559493866161D+03
 0.362749542415229D+02 0.344941230508210D+02 0.228963757209869D+01 -.109902383944951D+02
0.281134248587D-04 0.000000000000D+00 0.000000000000D+00 0.201466156395D-05 0.000000000000D+00  6 21 1 25 -24 2 21 2 0.65102155D-02 0.23915794D+00 0.29255236D+05 0.29255236D+05 0.29255236D+05 0.12160459D+01  1  2  2  2  6  2        1 0.537304755156D-01 0.100000000000D+01
0.388211614419D-05 0.148358618902D-05 -.567529049529D-07 0.201466156395D-05 0.000000000000D+00  6 21 1 25 -24 2 21 4 0.65102155D-02 0.23915794D+00 0.29255236D+05 0.29255236D+05 0.29255236D+05 0.12160459D+01  1  2  3  2  6  2        1 0.109717373036D-01 0.100000000000D+01
0.258545127219D-05 0.000000000000D+00 0.000000000000D+00 0.201466156395D-05 0.000000000000D+00  6 21 1 25 -24 2 21 4 0.65102155D-02 0.23915794D+00 0.29255236D+05 0.29255236D+05 0.29255236D+05 0.12160459D+01  1  2 15  2  6  2        1 0.730706942198D-02 0.100000000000D+01
0.137958208106D-03 0.000000000000D+00 0.000000000000D+00 0.197902672406D-05 0.000000000000D+00  6 21 1 25 -24 2 21 4 0.65102155D-02 0.26744339D+00 0.37175454D+05 0.37175454D+05 0.37175454D+05 0.12052434D+01  1  2 12  2  6  2        1 0.283924089593D+00 0.100000000000D+01
-.941073067808D-04 0.000000000000D+00 0.000000000000D+00 0.201466156395D-05 0.000000000000D+00  6 21 1 25 -24 2 21 4 0.65102155D-02 0.23915794D+00 0.29255236D+05 0.29255236D+05 0.29255236D+05 0.12160459D+01  1  2  4  2  6  2        1 -.265968510472D+00 0.100000000000D+01
-.355456580720D-03 0.000000000000D+00 -.848788856051D-04 0.201466156395D-05 0.000000000000D+00  6 21 1 25 -24 2 21 4 0.65102155D-02 0.26868704D+00 0.29255236D+05 0.29255236D+05 0.29255236D+05 0.12160459D+01  1  2  5  2  6  2        1 -.755249250507D+00 0.100000000000D+01
0.363444543984D-03 0.000000000000D+00 0.843068777487D-04 0.201466156395D-05 0.000000000000D+00  6 21 1 25 -24 2 21 4 0.65102155D-02 0.23915794D+00 0.29255236D+05 0.29255236D+05 0.29255236D+05 0.12160459D+01  1  2  6  2  6  2        1 0.102717639373D+01 0.100000000000D+01
0.246523346233D-05 0.000000000000D+00 0.000000000000D+00 0.197902672406D-05 0.000000000000D+00  6 21 21 25 -24 2 -1 4 0.65102155D-02 0.26744339D+00 0.37175454D+05 0.37175454D+05 0.37175454D+05 0.12052434D+01  1  2 12 10  6  2        1 0.468924880686D-02 0.100000000000D+01
-.620323688441D-05 0.000000000000D+00 -.156991739372D-05 0.201466156395D-05 0.000000000000D+00  6 21 21 25 -24 2 -1 4 0.65102155D-02 0.26868704D+00 0.29255236D+05 0.29255236D+05 0.29255236D+05 0.12160459D+01  1  2  5 10  6  2        1 -.123081612271D-01 0.100000000000D+01
  </mgrwgt>
  </event>
  <event>
  6     66 0.45631637E-03 0.54937218E+02 0.75467711E-02 0.12157877E+00
       21 -1    0    0  501  502 0.00000000E+00 0.00000000E+00 0.54104092E+02 0.54109290E+02 0.75000000E+00 0.0000E+00 0.9000E+01
        1 -1    0    0  502    0 -.00000000E+00 -.00000000E+00 -.15758025E+04 0.15758025E+04 0.32000000E+00 0.0000E+00 0.9000E+01
       25  1    1    2    0    0 0.31491243E+02 0.35516094E+02 -.89131619E+03 0.90128943E+03 0.12500000E+03 0.0000E+00 0.9000E+01
      -24  1    1    2    0    0 0.21968310E+02 -.13268841E+02 -.65748423E+03 0.66288113E+03 0.80419002E+02 0.0000E+00 0.9000E+01
        2  1    1    2  503    0 -.52088076E+02 -.20412196E+02 0.22032562E+02 0.60127877E+02 0.32000000E+00 0.0000E+00 0.9000E+01
       21  1    1    2  501  503 -.13714762E+01 -.18350568E+01 0.50694415E+01 0.56133874E+01 0.75000000E+00 0.0000E+00 0.9000E+01
#aMCatNLO 2  0  0  5  1 0.48131421D+01 0.00000000D+00  -5  6  0 0.00000000D+00 0.00000000D+00 0.00000000D+00 0.00000000D+00 0.00000000D+00
  <mgrwgt>
 0.8650758015D-01    5    2    0
 0.291995935303693D+03 0.000000000000000D+00 0.000000000000000D+00 0.291995935303693D+03
 0.291995935303693D+03 -.000000000000000D+00 -.000000000000000D+00 -.291995935303693D+03
 0.193110614926506D+03 0.315234392107612D+02 0.355294922681353D+02 -.139322064141999D+03
 0.136979991458677D+03 0.219911472871155D+02 -.132593374469474D+02 -.107874378408930D+03
 0.253901264222203D+03 -.535145864978766D+02 -.222701548211879D+02 0.247196442550928D+03
 0.000000000000000D+00 0.000000000000000D+00 0.000000000000000D+00 0.000000000000000D+00
 0.291995935303693D+03 0.000000000000000D+00 0.000000000000000D+00 0.291995935303693D+03
 0.291995935303693D+03 -.000000000000000D+00 -.000000000000000D+00 -.291995935303693D+03
 0.192996015151609D+03 0.314913528162405D+02 0.355161394792904D+02 -.139173849550448D+03
 0.136894476713697D+03 0.219683876566135D+02 -.132688088925498D+02 -.107769246330705D+03
 0.225574617943509D+03 -.521797964309609D+02 -.204453860588830D+02 0.218502089906908D+03
 0.285267607985709D+02 -.127994404189307D+01 -.180194452785751D+01 0.284410059742447D+02
-.453970825150D-04 0.000000000000D+00 0.000000000000D+00 0.729310561236D-05 0.000000000000D+00  6 21 1 25 -24 2 21 4 0.83241088D-02 0.24243156D+00 0.19096006D+05 0.19096006D+05 0.19096006D+05 0.12360436D+01  1  2 13  3  6  5        2 -.879560287115D-01 0.100000000000D+01
-.405885721129D-07 0.000000000000D+00 0.000000000000D+00 0.729422940506D-05 0.000000000000D+00  6 21 1 25 -24 2 21 4 0.83241088D-02 0.24243156D+00 0.19058225D+05 0.19058225D+05 0.19058225D+05 0.12361389D+01  1  2  8  3  6  5        2 -.786686033452D-04 0.100000000000D+01
-.315863263155D-07 0.000000000000D+00 0.000000000000D+00 0.729422940506D-05 0.000000000000D+00  6 21 1 25 -24 2 21 4 0.83241088D-02 0.24243156D+00 0.19058225D+05 0.19058225D+05 0.19058225D+05 0.12361389D+01  1  2  9  3  6  5        2 -.612204876075D-04 0.100000000000D+01
0.353331240391D-07 0.000000000000D+00 0.000000000000D+00 0.729422940506D-05 0.000000000000D+00  6 21 1 25 -24 2 21 4 0.83241088D-02 0.24243156D+00 0.19058225D+05 0.19058225D+05 0.19058225D+05 0.12361389D+01  1  2 10  3  6  5        2 0.684825155281D-04 0.100000000000D+01
0.900834270694D-04 0.000000000000D+00 0.000000000000D+00 0.729422940506D-05 0.338951947110D-04  6 21 1 25 -24 2 21 4 0.83241088D-02 0.24243156D+00 0.19096006D+05 0.19096006D+05 0.19096006D+05 0.12360436D+01  1  2  1  3  6  5        2 0.174535015441D+00 0.100000000000D+01
  </mgrwgt>
  </event>
  <event>
  5     66 0.45631637E-03 0.57406780E+02 0.75467711E-02 0.11053165E+00
       21 -1    0    0  501  502 0.00000000E+00 0.00000000E+00 0.68820014E+02 0.68824101E+02 0.75000000E+00 0.0000E+00 0.9000E+01
        1 -1    0    0  502    0 0.00000000E+00 0.00000000E+00 -.64189401E+03 0.64189409E+03 0.32000000E+00 0.0000E+00 0.9000E+01
       25  1    1    2    0    0 -.14346285E+03 -.38723500E+02 -.29321728E+03 0.35168519E+03 0.12500000E+03 0.0000E+00 0.9000E+01
      -24  1    1    2    0    0 0.13153468E+03 -.17429750E+02 -.14456115E+03 0.21206204E+03 0.80419002E+02 0.0000E+00 0.9000E+01
        2  1    1    2  501    0 0.11928168E+02 0.56153250E+02 -.13529557E+03 0.14697095E+03 0.32000000E+00 0.0000E+00 0.9000E+01
#aMCatNLO 1  0  0  2  1 0.37705133D+01 0.00000000D+00  -5  6  0 0.00000000D+00 0.00000000D+00 0.00000000D+00 0.00000000D+00 0.00000000D+00
  <mgrwgt>
 0.1743144659D+00    6    2    0
 0.210182385670483D+03 0.000000000000000D+00 0.000000000000000D+00 0.210182385670483D+03
 0.210182385670483D+03 0.000000000000000D+00 0.000000000000000D+00 -.210182385670483D+03
 0.194863869765130D+03 -.143462921388784D+03 -.387238247403358D+02 -.163028624455084D+02
 0.161460072864821D+03 0.131534627611105D+03 -.174300192366522D+02 0.446875300700390D+02
 0.640408287110152D+02 0.119282937776783D+02 0.561538439769880D+02 -.283846676245305D+02
 0.000000000000000D+00 0.000000000000000D+00 -.000000000000000D+00 -.000000000000000D+00
 0.234281823349440D+03 0.000000000000000D+00 0.000000000000000D+00 0.234281823349440D+03
 0.380097284988755D+03 0.000000000000000D+00 0.000000000000000D+00 -.380097284988755D+03
 0.229504185605572D+03 -.191152394753746D+03 -.155611653312928D+02 -.163028624455084D+02
 0.134615369085813D+03 0.982623731983879D+02 -.126976745876150D+01 0.446875300700390D+02
 0.695752712405420D+02 -.308716593736470D+01 0.634468156688347D+02 -.283846676245305D+02
 0.180684282406268D+03 0.959771874927228D+02 -.466158828787804D+02 -.145815461639315D+03
0.111261248026D-04 0.000000000000D+00 0.000000000000D+00 0.109793751950D-06 0.000000000000D+00  6 21 1 25 -24 2 21 2 0.10588015D-01 0.98753245D-01 0.41359406D+05 0.41359406D+05 0.41359406D+05 0.12005291D+01  1  2  2  2  6  2        1 0.417258262394D-01 0.100000000000D+01
-.599353668531D-06 0.587141736642D-06 -.224604403978D-07 0.109793751950D-06 0.000000000000D+00  6 21 1 25 -24 2 21 4 0.10588015D-01 0.98753245D-01 0.41359406D+05 0.41359406D+05 0.41359406D+05 0.12005291D+01  1  2  3  2  6  2        1 -.323958654633D-02 0.100000000000D+01
0.119312507851D-05 0.000000000000D+00 0.000000000000D+00 0.109793751950D-06 0.000000000000D+00  6 21 1 25 -24 2 21 4 0.10588015D-01 0.98753245D-01 0.41359406D+05 0.41359406D+05 0.41359406D+05 0.12005291D+01  1  2 15  2  6  2        1 0.644900024039D-02 0.100000000000D+01
-.365334935299D-04 0.000000000000D+00 -.111029299308D-04 0.109793751950D-06 0.000000000000D+00  6 21 1 25 -24 2 21 4 0.10588015D-01 0.18830234D+00 0.41359406D+05 0.41359406D+05 0.41359406D+05 0.12005291D+01  1  2  5  2  6  2        1 -.690311079128D-01 0.100000000000D+01
0.375685081560D-04 0.000000000000D+00 0.913356704402D-05 0.109793751950D-06 0.000000000000D+00  6 21 1 25 -24 2 21 4 0.10588015D-01 0.98753245D-01 0.41359406D+05 0.41359406D+05 0.41359406D+05 0.12005291D+01  1  2  6  2  6  2        1 0.203062799109D+00 0.100000000000D+01
-.192445531228D-05 0.000000000000D+00 -.778319513464D-06 0.109793751950D-06 0.000000000000D+00  6 21 21 25 -24 2 -1 4 0.10588015D-01 0.18830234D+00 0.41359406D+05 0.41359406D+05 0.41359406D+05 0.12005291D+01  1  2  5 10  6  2        1 -.465246518782D-02 0.100000000000D+01
  </mgrwgt>
  </event>
  <event>
  6     66 -.45631637E-03 0.41199123E+02 0.75467711E-02 0.11462178E+00
       21 -1    0    0  501  502 0.00000000E+00 0.00000000E+00 0.15635521E+03 0.15635701E+03 0.75000000E+00 0.0000E+00 0.9000E+01
        1 -1    0    0  503    0 0.00000000E+00 0.00000000E+00 -.50858360E+03 0.50858370E+03 0.32000000E+00 0.0000E+00 0.9000E+01
       25  1    1    2    0    0 0.45540610E+02 0.13392757E+03 -.23029082E+03 0.29777408E+03 0.12500000E+03 0.0000E+00 0.9000E+01
      -24  1    1    2    0    0 -.50037364E+01 -.79419076E+02 -.16465770E+03 0.19977938E+03 0.80419002E+02 0.0000E+00 0.9000E+01
        2  1    1    2  501    0 -.60917187E+02 -.16000316E+02 0.85584921E+02 0.10626286E+03 0.32000000E+00 0.0000E+00 0.9000E+01
       21  1    1    2  503  502 0.20380313E+02 -.38508182E+02 -.42864790E+02 0.61124381E+02 0.75000000E+00 0.0000E+00 0.9000E+01
#aMCatNLO 2  0  0  2  1 0.43568764D+02 0.00000000D+00  -5  6  0 0.00000000D+00 0.00000000D+00 0.00000000D+00 0.00000000D+00 0.00000000D+00
  <mgrwgt>
 -.1828151386D+00    2    2    0
 0.258355412516099D+03 0.000000000000000D+00 0.000000000000000D+00 0.258355412516099D+03
 0.258355412516099D+03 0.000000000000000D+00 0.000000000000000D+00 -.258355412516099D+03
 0.201908125654973D+03 0.536367815371906D+02 0.118630110989726D+03 -.905090251765068D+02
 0.140595611999627D+03 0.409871639724852D+00 -.896479167160726D+02 -.725464898729513D+02
 0.174207087377597D+03 -.540466531769155D+02 -.289821942736530D+02 0.163055515049458D+03
 0.000000000000000D+00 0.000000000000000D+00 -.000000000000000D+00 -.000000000000000D+00
 0.275347155971101D+03 0.000000000000000D+00 0.000000000000000D+00 0.275347155971101D+03
 0.288793881464573D+03 0.000000000000000D+00 0.000000000000000D+00 -.288793881464573D+03
 0.209350030703155D+03 0.455406428578610D+02 0.133927598220468D+03 -.905090251765068D+02
 0.134397297115462D+03 -.500371273205670D+01 -.794190605810724D+02 -.725464898729513D+02
 0.174797090663497D+03 -.609172432950738D+02 -.160003557994025D+02 0.163055515049458D+03
 0.455966189535611D+02 0.203803131692695D+02 -.385081818399929D+02 -.134467254934721D+02
-.121243233512D-03 0.000000000000D+00 0.000000000000D+00 0.105310101738D-05 0.000000000000D+00  6 21 1 25 -24 2 21 4 0.22570117D-01 0.80328802D-01 0.41710215D+05 0.41710215D+05 0.41710215D+05 0.12001582D+01  1  2 13  2  6  2        1 -.217358445327D+00 0.100000000000D+01
0.209966033512D-04 0.000000000000D+00 0.000000000000D+00 0.107193837929D-05 0.383079682309D-08  6 21 1 25 -24 2 21 4 0.24054528D-01 0.78242915D-01 0.41710215D+05 0.41710215D+05 0.41710215D+05 0.12001582D+01  1  2  1  2  6  2        1 0.345433067637D-01 0.100000000000D+01
  </mgrwgt>
  </event>
  <event>
  5     66 -.45631637E-03 0.20007183E+02 0.75467711E-02 0.11177406E+00
       21 -1    0    0  501  502 0.00000000E+00 0.00000000E+00 0.21349257E+02 0.21362427E+02 0.75000000E+00 0.0000E+00 0.9000E+01
        1 -1    0    0  502    0 -.00000000E+00 -.00000000E+00 -.39319841E+04 0.39319842E+04 0.32000000E+00 0.0000E+00 0.9000E+01
       25  1    1    2    0    0 0.42362604E+02 -.19502989E+03 -.84241823E+03 0.87471408E+03 0.12500000E+03 0.0000E+00 0.9000E+01
      -24  1    1    2    0    0 -.34585086E+02 0.21346085E+03 -.29148409E+04 0.29239573E+04 0.80419002E+02 0.0000E+00 0.9000E+01
        2  1    1    2  501    0 -.77775186E+01 -.18430961E+02 -.15337578E+03 0.15467521E+03 0.32000000E+00 0.0000E+00 0.9000E+01
#aMCatNLO 1  0  0  5  1 0.15577865D+00 0.00000000D+00  -5  6  0 0.00000000D+00 0.00000000D+00 0.00000000D+00 0.00000000D+00 0.00000000D+00
  <mgrwgt>
 -.3526283003D+01    6    2    0
 0.289777498370345D+03 0.000000000000000D+00 0.000000000000000D+00 0.289777498370345D+03
 0.289777498370345D+03 -.000000000000000D+00 -.000000000000000D+00 -.289777498370345D+03
 0.282384663435065D+03 0.423630813695488D+02 -.195028761780975D+03 0.155837253435728D+03
 0.277003120744558D+03 -.345846176033420D+02 0.213461962188601D+03 -.153301689069875D+03
 0.201672125610673D+02 -.777846376620682D+01 -.184332004076258D+02 -.253556436585291D+01
 0.000000000000000D+00 -.000000000000000D+00 0.000000000000000D+00 0.000000000000000D+00
 0.289777498370345D+03 0.000000000000000D+00 0.000000000000000D+00 0.289777498370345D+03
 0.289777498370345D+03 -.000000000000000D+00 -.000000000000000D+00 -.289777498370345D+03
 0.282390009337443D+03 0.423589905609374D+02 -.195038456072449D+03 0.155835919945099D+03
 0.276997017772975D+03 -.345886303692231D+02 0.213452452840753D+03 -.153302997120730D+03
 0.195836434461400D+02 -.741641671260466D+01 -.179493221296359D+02 -.251747668452068D+01
 0.584326184132238D+00 -.353943479109693D+00 -.464674638668878D+00 -.154461398483725D-01
0.976064611503D-04 0.000000000000D+00 0.000000000000D+00 0.159443338494D-06 0.000000000000D+00  6 21 1 25 -24 2 21 2 0.32855152D-02 0.60492165D+00 0.59100683D+05 0.59100683D+05 0.59100683D+05 0.11851558D+01  1  2  2  3  6  5        2 0.121469064285D-01 0.100000000000D+01
0.158249741296D-04 0.515083446609D-05 -.197039323394D-06 0.159443338494D-06 0.000000000000D+00  6 21 1 25 -24 2 21 4 0.32855152D-02 0.60492165D+00 0.59100683D+05 0.59100683D+05 0.59100683D+05 0.11851558D+01  1  2  3  3  6  5        2 0.276618369889D-02 0.100000000000D+01
0.106281002768D-04 0.000000000000D+00 0.000000000000D+00 0.159443338494D-06 0.000000000000D+00  6 21 1 25 -24 2 21 4 0.32855152D-02 0.60492165D+00 0.59100683D+05 0.59100683D+05 0.59100683D+05 0.11851558D+01  1  2 15  3  6  5        2 0.185777730157D-02 0.100000000000D+01
-.217227271085D-01 0.000000000000D+00 0.000000000000D+00 0.159443338494D-06 0.000000000000D+00  6 21 1 25 -24 2 21 4 0.32855152D-02 0.60492165D+00 0.59100683D+05 0.59100683D+05 0.59100683D+05 0.11851558D+01  1  2  4  3  6  5        2 -.379710280288D+01 0.100000000000D+01
-.164768906651D-01 0.000000000000D+00 0.000000000000D+00 0.159443338494D-06 0.000000000000D+00  6 21 1 25 -24 2 21 4 0.32855152D-02 0.60492165D+00 0.59100683D+05 0.59100683D+05 0.59100683D+05 0.11851558D+01  1  2  5  3  6  5        2 -.288013781210D+01 0.100000000000D+01
0.179302712891D-01 0.000000000000D+00 -.000000000000D+00 0.159443338494D-06 0.000000000000D+00  6 21 1 25 -24 2 21 4 0.32855152D-02 0.60492165D+00 0.59100683D+05 0.59100683D+05 0.59100683D+05 0.11851558D+01  1  2  6  3  6  5        2 0.313418674497D+01 0.100000000000D+01
  </mgrwgt>
  </event>
  <event>
  5     66 0.45631637E-03 0.12044198E+03 0.75467711E-02 0.11094890E+00
       21 -1    0    0  501  502 0.00000000E+00 0.00000000E+00 0.45643974E+02 0.45650135E+02 0.75000000E+00 0.0000E+00 0.9000E+01
        1 -1    0    0  502    0 0.00000000E+00 0.00000000E+00 -.12841389E+04 0.12841390E+04 0.32000000E+00 0.0000E+00 0.9000E+01
       25  1    1    2    0    0 0.52418289E+02 -.10932660E+03 -.28815170E+03 0.33668440E+03 0.12500000E+03 0.0000E+00 0.9000E+01
      -24  1    1    2    0    0 0.25895402E+02 -.39152821E+02 -.15993589E+03 0.18506815E+03 0.80419002E+02 0.0000E+00 0.9000E+01
        2  1    1    2  501    0 -.78313690E+02 0.14847942E+03 -.79040736E+03 0.80803655E+03 0.32000000E+00 0.0000E+00 0.9000E+01
#aMCatNLO 1  0  0  1  5 0.73095393D+02 0.00000000D+00  -5  6  0 0.00000000D+00 0.00000000D+00 0.00000000D+00 0.00000000D+00 0.00000000D+00
  <mgrwgt>
 0.3469273618D-01   32    2    0
 0.242110154290062D+03 0.000000000000000D+00 0.000000000000000D+00 0.242110154290062D+03
 0.242110154290062D+03 0.000000000000000D+00 0.000000000000000D+00 -.242110154290062D+03
 0.187610581030144D+03 0.524183284733621D+02 -.109326672076212D+03 0.698049262392507D+02
 0.991735167722093D+02 0.258954225699916D+02 -.391528611002371D+02 0.341269839303777D+02
 0.197436210777771D+03 -.783137510433537D+02 0.148479533176449D+03 -.103931910169628D+03
 0.000000000000000D+00 -.000000000000000D+00 0.000000000000000D+00 0.000000000000000D+00
 0.292871391888371D+03 0.000000000000000D+00 0.000000000000000D+00 0.292871391888371D+03
 0.272670359242699D+03 0.000000000000000D+00 0.000000000000000D+00 -.272670359242699D+03
 0.201189676212042D+03 0.808364164692164D+02 -.115952713894305D+03 0.698049262392507D+02
 0.105446097629933D+03 0.408514265834759D+02 -.426400453203498D+02 0.341269839303777D+02
 0.183070509280439D+03 -.505018521255696D+02 0.141994832119267D+03 -.103931910169628D+03
 0.758354680086549D+02 -.711859909271228D+02 0.165979270953881D+02 0.202010326456716D+02
0.503460472252D-05 0.000000000000D+00 0.000000000000D+00 0.220184425632D-06 0.000000000000D+00  6 21 1 25 -24 2 21 2 0.70226269D-02 0.19756031D+00 0.47333267D+05 0.47333267D+05 0.47333267D+05 0.11946464D+01  1  2  2  1  6  1       21 0.121579649223D-01 0.100000000000D+01
-.648293025306D-06 0.265683390446D-06 -.101634164008D-07 0.220184425632D-06 0.000000000000D+00  6 21 1 25 -24 2 21 4 0.70226269D-02 0.19756031D+00 0.47333267D+05 0.47333267D+05 0.47333267D+05 0.11946464D+01  1  2  3  1  6  1       21 -.223432115962D-02 0.100000000000D+01
0.514030712149D-06 0.000000000000D+00 0.000000000000D+00 0.220184425632D-06 0.000000000000D+00  6 21 1 25 -24 2 21 4 0.70226269D-02 0.19756031D+00 0.47333267D+05 0.47333267D+05 0.47333267D+05 0.11946464D+01  1  2 15  1  6  1       21 0.177159039511D-02 0.100000000000D+01
0.421516226801D-05 0.000000000000D+00 0.000000000000D+00 0.215100158443D-06 0.000000000000D+00  6 21 1 25 -24 2 21 4 0.88623827D-02 0.19756031D+00 0.65604165D+05 0.65604165D+05 0.65604165D+05 0.11807731D+01  1  2 12  1  6  1       21 0.914396080220D-02 0.100000000000D+01
0.370091951605D-05 0.000000000000D+00 0.000000000000D+00 0.215100158443D-06 0.000000000000D+00  6 21 1 25 -24 2 21 4 0.91218853D-02 0.19756031D+00 0.65604165D+05 0.65604165D+05 0.65604165D+05 0.11807731D+01  1  2 12  1  6  1       21 0.762958816771D-02 0.100000000000D+01
-.436875897743D-05 0.000000000000D+00 0.000000000000D+00 0.220184425632D-06 0.000000000000D+00  6 21 1 25 -24 2 21 4 0.70226269D-02 0.19756031D+00 0.47333267D+05 0.47333267D+05 0.47333267D+05 0.11946464D+01  1  2  4  1  6  1       21 -.150567879701D-01 0.100000000000D+01
-.185217222267D-04 0.000000000000D+00 -.687651102622D-05 0.220184425632D-06 0.000000000000D+00  6 21 1 25 -24 2 21 4 0.96311575D-02 0.19756031D+00 0.47333267D+05 0.47333267D+05 0.47333267D+05 0.11946464D+01  1  2  5  1  6  1       21 -.367396257679D-01 0.100000000000D+01
0.170818128511D-04 0.000000000000D+00 0.567683452888D-05 0.220184425632D-06 0.000000000000D+00  6 21 1 25 -24 2 21 4 0.70226269D-02 0.19756031D+00 0.47333267D+05 0.47333267D+05 0.47333267D+05 0.11946464D+01  1  2  6  1  6  1       21 0.588719211960D-01 0.100000000000D+01
0.290562341776D-06 0.000000000000D+00 0.000000000000D+00 0.215100158443D-06 0.000000000000D+00  6 -1 1 25 -24 2 -1 4 0.88623827D-02 0.19756031D+00 0.65604165D+05 0.65604165D+05 0.65604165D+05 0.11807731D+01  1  2 12  4  6  1       21 0.416857756831D-04 0.100000000000D+01
0.294356360962D-06 0.000000000000D+00 0.000000000000D+00 0.215100158443D-06 0.000000000000D+00  6 -1 1 25 -24 2 -1 4 0.91218853D-02 0.19756031D+00 0.65604165D+05 0.65604165D+05 0.65604165D+05 0.11807731D+01  1  2 12  4  6  1       21 0.403930964713D-04 0.100000000000D+01
-.151696228631D-05 0.000000000000D+00 -.689783328201D-06 0.220184425632D-06 0.000000000000D+00  6 -1 1 25 -24 2 -1 4 0.96311575D-02 0.19756031D+00 0.47333267D+05 0.47333267D+05 0.47333267D+05 0.11946464D+01  1  2  5  4  6  1       21 -.201339180806D-03 0.100000000000D+01
0.290562341776D-06 0.000000000000D+00 0.000000000000D+00 0.215100158443D-06 0.000000000000D+00  6 1 1 25 -24 2 1 4 0.88623827D-02 0.19756031D+00 0.65604165D+05 0.65604165D+05 0.65604165D+05 0.11807731D+01  1  2 12  5  6  1       21 0.509637603529D-04 0.100000000000D+01
0.294356360962D-06 0.000000000000D+00 0.000000000000D+00 0.215100158443D-06 0.000000000000D+00  6 1 1 25 -24 2 1 4 0.91218853D-02 0.19756031D+00 0.65604165D+05 0.65604165D+05 0.65604165D+05 0.11807731D+01  1  2 12  5  6  1       21 0.496473171867D-04 0.100000000000D+01
-.151696228631D-05 0.000000000000D+00 -.689783328201D-06 0.220184425632D-06 0.000000000000D+00  6 1 1 25 -24 2 1 4 0.96311575D-02 0.19756031D+00 0.47333267D+05 0.47333267D+05 0.47333267D+05 0.11946464D+01  1  2  5  5  6  1       21 -.250148469981D-03 0.100000000000D+01
0.290562341776D-06 0.000000000000D+00 0.000000000000D+00 0.215100158443D-06 0.000000000000D+00  6 -2 1 25 -24 2 -2 4 0.88623827D-02 0.19756031D+00 0.65604165D+05 0.65604165D+05 0.65604165D+05 0.11807731D+01  1  2 12  6  6  1       21 0.400783802387D-04 0.100000000000D+01
0.294356360962D-06 0.000000000000D+00 0.000000000000D+00 0.215100158443D-06 0.000000000000D+00  6 -2 1 25 -24 2 -2 4 0.91218853D-02 0.19756031D+00 0.65604165D+05 0.65604165D+05 0.65604165D+05 0.11807731D+01  1  2 12  6  6  1       21 0.387906426259D-04 0.100000000000D+01
-.151696228631D-05 0.000000000000D+00 -.689783328201D-06 0.220184425632D-06 0.000000000000D+00  6 -2 1 25 -24 2 -2 4 0.96311575D-02 0.19756031D+00 0.47333267D+05 0.47333267D+05 0.47333267D+05 0.11946464D+01  1  2  5  6  6  1       21 -.192884229270D-03 0.100000000000D+01
0.290562341776D-06 0.000000000000D+00 0.000000000000D+00 0.215100158443D-06 0.000000000000D+00  6 2 1 25 -24 2 2 4 0.88623827D-02 0.19756031D+00 0.65604165D+05 0.65604165D+05 0.65604165D+05 0.11807731D+01  1  2 12  7  6  1       21 0.572612680262D-04 0.100000000000D+01
0.294356360962D-06 0.000000000000D+00 0.000000000000D+00 0.215100158443D-06 0.000000000000D+00  6 2 1 25 -24 2 2 4 0.91218853D-02 0.19756031D+00 0.65604165D+05 0.65604165D+05 0.65604165D+05 0.11807731D+01  1  2 12  7  6  1       21 0.559338737934D-04 0.100000000000D+01
-.151696228631D-05 0.000000000000D+00 -.689783328201D-06 0.220184425632D-06 0.000000000000D+00  6 2 1 25 -24 2 2 4 0.96311575D-02 0.19756031D+00 0.47333267D+05 0.47333267D+05 0.47333267D+05 0.11946464D+01  1  2  5  7  6  1       21 -.283295157268D-03 0.100000000000D+01
0.290562341776D-06 0.000000000000D+00 0.000000000000D+00 0.215100158443D-06 0.000000000000D+00  6 -3 1 25 -24 2 -3 4 0.88623827D-02 0.19756031D+00 0.65604165D+05 0.65604165D+05 0.65604165D+05 0.11807731D+01  1  2 12  8  6  1       21 0.285364798100D-04 0.100000000000D+01
0.290562341776D-06 0.000000000000D+00 0.000000000000D+00 0.215100158443D-06 0.000000000000D+00  6 -4 1 25 -24 2 -4 4 0.88623827D-02 0.19756031D+00 0.65604165D+05 0.65604165D+05 0.65604165D+05 0.11807731D+01  1  2 12  8  6  1       21 0.252964531228D-04 0.100000000000D+01
0.294356360962D-06 0.000000000000D+00 0.000000000000D+00 0.215100158443D-06 0.000000000000D+00  6 -3 1 25 -24 2 -3 4 0.91218853D-02 0.19756031D+00 0.65604165D+05 0.65604165D+05 0.65604165D+05 0.11807731D+01  1  2 12  8  6  1       21 0.275552794590D-04 0.100000000000D+01
0.294356360962D-06 0.000000000000D+00 0.000000000000D+00 0.215100158443D-06 0.000000000000D+00  6 -4 1 25 -24 2 -4 4 0.91218853D-02 0.19756031D+00 0.65604165D+05 0.65604165D+05 0.65604165D+05 0.11807731D+01  1  2 12  8  6  1       21 0.244051808645D-04 0.100000000000D+01
-.151696228631D-05 0.000000000000D+00 -.689783328201D-06 0.220184425632D-06 0.000000000000D+00  6 -3 1 25 -24 2 -3 4 0.96311575D-02 0.19756031D+00 0.47333267D+05 0.47333267D+05 0.47333267D+05 0.11946464D+01  1  2  5  8  6  1       21 -.135573878960D-03 0.100000000000D+01
-.151696228631D-05 0.000000000000D+00 -.689783328201D-06 0.220184425632D-06 0.000000000000D+00  6 -4 1 25 -24 2 -4 4 0.96311575D-02 0.19756031D+00 0.47333267D+05 0.47333267D+05 0.47333267D+05 0.11946464D+01  1  2  5  8  6  1       21 -.119545004673D-03 0.100000000000D+01
0.290562341776D-06 0.000000000000D+00 0.000000000000D+00 0.215100158443D-06 0.000000000000D+00  6 3 1 25 -24 2 3 4 0.88623827D-02 0.19756031D+00 0.65604165D+05 0.65604165D+05 0.65604165D+05 0.11807731D+01  1  2 12  9  6  1       21 0.285333046177D-04 0.100000000000D+01
0.290562341776D-06 0.000000000000D+00 0.000000000000D+00 0.215100158443D-06 0.000000000000D+00  6 4 1 25 -24 2 4 4 0.88623827D-02 0.19756031D+00 0.65604165D+05 0.65604165D+05 0.65604165D+05 0.11807731D+01  1  2 12  9  6  1       21 0.252964531228D-04 0.100000000000D+01
0.294356360962D-06 0.000000000000D+00 0.000000000000D+00 0.215100158443D-06 0.000000000000D+00  6 3 1 25 -24 2 3 4 0.91218853D-02 0.19756031D+00 0.65604165D+05 0.65604165D+05 0.65604165D+05 0.11807731D+01  1  2 12  9  6  1       21 0.275521958040D-04 0.100000000000D+01
0.294356360962D-06 0.000000000000D+00 0.000000000000D+00 0.215100158443D-06 0.000000000000D+00  6 4 1 25 -24 2 4 4 0.91218853D-02 0.19756031D+00 0.65604165D+05 0.65604165D+05 0.65604165D+05 0.11807731D+01  1  2 12  9  6  1       21 0.244051808645D-04 0.100000000000D+01
-.151696228631D-05 0.000000000000D+00 -.689783328201D-06 0.220184425632D-06 0.000000000000D+00  6 3 1 25 -24 2 3 4 0.96311575D-02 0.19756031D+00 0.47333267D+05 0.47333267D+05 0.47333267D+05 0.11946464D+01  1  2  5  9  6  1       21 -.135558126235D-03 0.100000000000D+01
-.151696228631D-05 0.000000000000D+00 -.689783328201D-06 0.220184425632D-06 0.000000000000D+00  6 4 1 25 -24 2 4 4 0.96311575D-02 0.19756031D+00 0.47333267D+05 0.47333267D+05 0.47333267D+05 0.11946464D+01  1  2  5  9  6  1       21 -.119545004673D-03 0.100000000000D+01
  </mgrwgt>
  </event>
  <event>
  6     66 0.45631637E-03 0.13008592E+02 0.75467711E-02 0.12355861E+00
       21 -1    0    0  501  503 0.00000000E+00 0.00000000E+00 0.20282534E+03 0.20282673E+03 0.75000000E+00 0.0000E+00 0.9000E+01
        1 -1    0    0  502    0 0.00000000E+00 0.00000000E+00 -.11176279E+03 0.11176324E+03 0.32000000E+00 0.0000E+00 0.9000E+01
       25  1    1    2    0    0 -.29069376E+02 0.11383527E+01 0.27149662E+02 0.13118090E+03 0.12500000E+03 0.0000E+00 0.9000E+01
      -24  1    1    2    0    0 0.26155970E+02 -.71386344E+01 -.19184516E+02 0.87007796E+02 0.80419002E+02 0.0000E+00 0.9000E+01
        2  1    1    2  501    0 -.14502931E+02 -.52180133E+01 0.59624686E+01 0.16529250E+02 0.32000000E+00 0.0000E+00 0.9000E+01
       21  1    1    2  502  503 0.17416337E+02 0.11218295E+02 0.77134939E+02 0.79872024E+02 0.75000000E+00 0.0000E+00 0.9000E+01
#aMCatNLO 2  0  0  1  5 0.87421261D+00 0.00000000D+00  -5  6  0 0.00000000D+00 0.00000000D+00 0.00000000D+00 0.00000000D+00 0.00000000D+00
  <mgrwgt>
 0.1068865967D+00    1    2    0
 0.116693355550513D+03 0.000000000000000D+00 0.000000000000000D+00 0.116693355550513D+03
 0.116693355550513D+03 0.000000000000000D+00 0.000000000000000D+00 -.116693355550513D+03
 0.128194083340120D+03 -.194602972329706D+02 0.732727872261044D+01 0.193992479632404D+02
 0.902582198913544D+02 0.328065257977486D+02 -.285521270701328D+01 -.243907754912571D+02
 0.149344078695509D+02 -.133462285647780D+02 -.447206601559717D+01 0.499152752801674D+01
 0.000000000000000D+00 0.000000000000000D+00 0.000000000000000D+00 0.000000000000000D+00
 0.191124829008200D+03 0.000000000000000D+00 0.000000000000000D+00 0.191124829008200D+03
 0.118602647911895D+03 0.000000000000000D+00 0.000000000000000D+00 -.118602647911895D+03
 0.129798139655874D+03 -.290676635153881D+02 0.113893561831094D+01 0.193992479632404D+02
 0.883021830489053D+02 0.261571191812950D+02 -.713826056560494D+01 -.243907754912571D+02
 0.162040431366799D+02 -.145057926043832D+02 -.521896999714070D+01 0.499152752801674D+01
 0.754231110786356D+02 0.174163369384763D+02 0.112182949444347D+02 0.725221810963056D+02
0.134812857130D-04 0.000000000000D+00 0.000000000000D+00 0.189749239124D-05 0.996003619788D-07  6 21 1 25 -24 2 21 4 0.31203555D-01 0.17194150D-01 0.15542577D+05 0.15542577D+05 0.15542577D+05 0.12460671D+01  1  2  1  1  6  1       21 0.106886596698D+00 0.100000000000D+01
  </mgrwgt>
  </event>
  <event>
  6     66 0.45631637E-03 0.11707322E+02 0.75467711E-02 0.11854697E+00
       21 -1    0    0  501  502 0.00000000E+00 0.00000000E+00 0.23384689E+02 0.23396713E+02 0.75000000E+00 0.0000E+00 0.9000E+01
        1 -1    0    0  502    0 -.00000000E+00 -.00000000E+00 -.12968062E+04 0.12968063E+04 0.32000000E+00 0.0000E+00 0.9000E+01
       25  1    1    2    0    0 -.14863751E+02 0.75767189E+02 -.74708963E+03 0.76139971E+03 0.12500000E+03 0.0000E+00 0.9000E+01
      -24  1    1    2    0    0 0.38254072E+01 -.11362438E+03 -.37405172E+03 0.39913286E+03 0.80419002E+02 0.0000E+00 0.9000E+01
        2  1    1    2  503    0 0.76169985E+01 0.20162810E+02 -.12578107E+03 0.12761480E+03 0.32000000E+00 0.0000E+00 0.9000E+01
       21  1    1    2  501  503 0.34213448E+01 0.17694378E+02 -.26499118E+02 0.32055613E+02 0.75000000E+00 0.0000E+00 0.9000E+01
#aMCatNLO 2  0  0  5  1 0.13661776D+02 0.00000000D+00  -5  6  0 0.00000000D+00 0.00000000D+00 0.00000000D+00 0.00000000D+00 0.00000000D+00
  <mgrwgt>
 0.1313603861D+00    2    2    0
 0.174164787777663D+03 0.000000000000000D+00 0.000000000000000D+00 0.174164787777663D+03
 0.174164787777663D+03 -.000000000000000D+00 -.000000000000000D+00 -.174164787777663D+03
 0.153145571988857D+03 -.159113469512371D+02 0.721743447893183D+02 -.486442104697375D+02
 0.147799858105298D+03 0.282759061680409D+01 -.117046496780718D+03 0.408620168890458D+02
 0.473841454611719D+02 0.130837563344330D+02 0.448721519914002D+02 0.778219358069173D+01
 0.000000000000000D+00 0.000000000000000D+00 0.000000000000000D+00 0.000000000000000D+00
 0.174164787777663D+03 0.000000000000000D+00 0.000000000000000D+00 0.174164787777663D+03
 0.174164787777663D+03 -.000000000000000D+00 -.000000000000000D+00 -.174164787777663D+03
 0.154567156769611D+03 -.148674898722061D+02 0.757543651069014D+02 -.480233262487271D+02
 0.145304673366293D+03 0.382189215677331D+01 -.113636432523456D+03 0.414534255689259D+02
 0.233770002593373D+02 0.746066683302523D+01 0.196354427913874D+02 -.102602133466028D+02
 0.250807451600856D+02 0.358493088240759D+01 0.182466246251672D+02 0.168301140264040D+02
-.263039205321D-05 0.000000000000D+00 0.000000000000D+00 0.238321538882D-06 0.000000000000D+00  6 21 1 25 -24 2 21 4 0.35985724D-02 0.19950958D+00 0.26533838D+05 0.26533838D+05 0.26533838D+05 0.12205348D+01  1  2 13  3  6  5        2 -.304122434266D-01 0.100000000000D+01
0.139919121763D-04 0.000000000000D+00 0.000000000000D+00 0.237426161557D-06 0.206729272038D-07  6 21 1 25 -24 2 21 4 0.35985724D-02 0.19950958D+00 0.26533838D+05 0.26533838D+05 0.26533838D+05 0.12205348D+01  1  2  1  3  6  5        2 0.161772629517D+00 0.100000000000D+01
  </mgrwgt>
  </event>
  <event>
  6     66 -.45631637E-03 0.98181379E+01 0.75467711E-02 0.11934554E+00
       21 -1    0    0  501  502 0.00000000E+00 0.00000000E+00 0.62371417E+02 0.62375926E+02 0.75000000E+00 0.0000E+00 0.9000E+01
        1 -1    0    0  502    0 -.00000000E+00 -.00000000E+00 -.40285035E+03 0.40285048E+03 0.32000000E+00 0.0000E+00 0.9000E+01
       25  1    1    2    0    0 0.73047204E+02 0.22493702E+02 -.11914203E+03 0.18884302E+03 0.12500000E+03 0.0000E+00 0.9000E+01
      -24  1    1    2    0    0 -.81983710E+02 -.49335257E+02 -.17179915E+03 0.21245579E+03 0.80419002E+02 0.0000E+00 0.9000E+01
        2  1    1    2  503    0 0.15578564E+02 0.98655855E+01 -.11482421E+02 0.21724866E+02 0.32000000E+00 0.0000E+00 0.9000E+01
       21  1    1    2  501  503 -.66420575E+01 0.16975970E+02 -.38055330E+02 0.42202738E+02 0.75000000E+00 0.0000E+00 0.9000E+01
#aMCatNLO 2  0  0  5  1 0.14341462D+02 0.00000000D+00  -5  6  0 0.00000000D+00 0.00000000D+00 0.00000000D+00 0.00000000D+00 0.00000000D+00
  <mgrwgt>
 -.3428734941D-01    1    2    0
 0.158516326503415D+03 0.000000000000000D+00 0.000000000000000D+00 0.158516326503415D+03
 0.158516326503415D+03 -.000000000000000D+00 -.000000000000000D+00 -.158516326503415D+03
 0.147725556719530D+03 0.712513981309433D+02 0.170998462951721D+02 0.287866918759779D+02
 0.130011336100326D+03 -.835398923140979D+02 -.540093828541694D+02 -.232336935522953D+02
 0.392957601869744D+02 0.122884941831546D+02 0.369095365589973D+02 -.555299832368259D+01
 0.000000000000000D+00 -.000000000000000D+00 0.000000000000000D+00 0.000000000000000D+00
 0.158516326503415D+03 0.000000000000000D+00 0.000000000000000D+00 0.158516326503415D+03
 0.158516326503415D+03 -.000000000000000D+00 -.000000000000000D+00 -.158516326503415D+03
 0.149155027457748D+03 0.730384103619905D+02 0.224672893919533D+02 0.279791660900270D+02
 0.127274428243427D+03 -.819912130394639D+02 -.493577930455805D+02 -.239335200149838D+02
 0.190546831186437D+02 0.153247895263835D+02 0.923990131570051D+01 0.654644929714485D+01
 0.215485141870114D+02 -.637198684891012D+01 0.176506023379266D+02 -.105920953721881D+02
-.263936210433D-05 0.000000000000D+00 0.000000000000D+00 0.298223656510D-06 0.000000000000D+00  6 21 1 25 -24 2 21 4 0.95959592D-02 0.61977334D-01 0.23742426D+05 0.23742426D+05 0.23742426D+05 0.12257081D+01  1  2 13  3  6  5        2 -.342873494085D-01 0.100000000000D+01
  </mgrwgt>
  </event>
  <event>
  5     66 -.45631637E-03 0.13533003E+03 0.75467711E-02 0.11572025E+00
       21 -1    0    0  501  502 0.00000000E+00 0.00000000E+00 0.24165483E+03 0.24165599E+03 0.75000000E+00 0.0000E+00 0.9000E+01
        3 -1    0    0  502    0 0.00000000E+00 0.00000000E+00 -.20589025E+03 0.20589085E+03 0.50000000E+00 0.0000E+00 0.9000E+01
       25  1    1    2    0    0 0.35701141E+02 -.60044828E+02 0.11629849E+03 0.18447301E+03 0.12500000E+03 0.0000E+00 0.9000E+01
      -24  1    1    2    0    0 0.60320434E+02 -.35309520E+02 -.69672237E+02 0.12730575E+03 0.80419002E+02 0.0000E+00 0.9000E+01
        4  1    1    2  501    0 -.96021575E+02 0.95354348E+02 -.10861674E+02 0.13576809E+03 0.15500000E+01 0.0000E+00 0.9000E+01
#aMCatNLO 1  0  0  5  1 0.62768853D+01 0.00000000D+00  -5  6  0 0.00000000D+00 0.00000000D+00 0.00000000D+00 0.00000000D+00 0.00000000D+00
  <mgrwgt>
 -.9458299040D-02    8    2    0
 0.223057769118226D+03 0.000000000000000D+00 0.000000000000000D+00 0.223057769118226D+03
 0.223057769118226D+03 -.000000000000000D+00 -.000000000000000D+00 -.223057769118226D+03
 0.175742981426609D+03 0.357035600418968D+02 -.600472293358269D+02 0.101883176089768D+03
 0.133300800628399D+03 0.603222683560478D+02 -.353113419762941D+02 -.801013143588538D+02
 0.137071756181443D+03 -.960258283979446D+02 0.953585713121211D+02 -.217818617309144D+02
 0.000000000000000D+00 0.000000000000000D+00 0.000000000000000D+00 0.000000000000000D+00
 0.223057769118226D+03 0.000000000000000D+00 0.000000000000000D+00 0.223057769118226D+03
 0.223057769118226D+03 -.000000000000000D+00 -.000000000000000D+00 -.223057769118226D+03
 0.175237594294273D+03 0.349498771160576D+02 -.592987835454660D+02 0.101712215655961D+03
 0.132971669667003D+03 0.597504845356170D+02 -.347435313244589D+02 -.802310140065880D+02
 0.128965235137292D+03 -.916686644191633D+02 0.869203456371078D+02 -.259565281181746D+02
 0.894103913788340D+01 -.303169723251129D+01 0.712196923281702D+01 0.447532646880134D+01
0.402949578444D-05 0.000000000000D+00 0.000000000000D+00 0.103413910072D-06 0.000000000000D+00  6 21 3 25 -24 4 21 2 0.37177802D-01 0.31675559D-01 0.37071084D+05 0.37071084D+05 0.37071084D+05 0.12053684D+01  1  2  2  3  6  5        4 0.195400594255D-02 0.100000000000D+01
-.418250359035D-06 0.212642334563D-06 -.813439103960D-08 0.103413910072D-06 0.000000000000D+00  6 21 3 25 -24 4 21 4 0.37177802D-01 0.31675559D-01 0.37071084D+05 0.37071084D+05 0.37071084D+05 0.12053684D+01  1  2  3  3  6  5        4 -.294680308841D-03 0.100000000000D+01
0.437885679089D-06 0.000000000000D+00 0.000000000000D+00 0.103413910072D-06 0.000000000000D+00  6 21 3 25 -24 4 21 4 0.37177802D-01 0.31675559D-01 0.37071084D+05 0.37071084D+05 0.37071084D+05 0.12053684D+01  1  2 15  3  6  5        4 0.308514468340D-03 0.100000000000D+01
0.993925033436D-05 0.000000000000D+00 0.000000000000D+00 0.103504341337D-06 0.000000000000D+00  6 21 3 25 -24 4 21 4 0.37177802D-01 0.31675559D-01 0.36634876D+05 0.36634876D+05 0.36634876D+05 0.12058953D+01  1  2 12  3  6  5        4 0.701450195774D-02 0.100000000000D+01
-.430167121308D-04 0.000000000000D+00 0.000000000000D+00 0.103413910072D-06 0.000000000000D+00  6 21 3 25 -24 4 21 4 0.37177802D-01 0.31675559D-01 0.37071084D+05 0.37071084D+05 0.37071084D+05 0.12053684D+01  1  2  4  3  6  5        4 -.303076321208D-01 0.100000000000D+01
-.346058734551D-04 0.000000000000D+00 0.000000000000D+00 0.103413910072D-06 0.000000000000D+00  6 21 3 25 -24 4 21 4 0.37177802D-01 0.31675559D-01 0.37071084D+05 0.37071084D+05 0.37071084D+05 0.12053684D+01  1  2  5  3  6  5        4 -.243817351429D-01 0.100000000000D+01
0.369366298435D-04 0.000000000000D+00 -.000000000000D+00 0.103413910072D-06 0.000000000000D+00  6 21 3 25 -24 4 21 4 0.37177802D-01 0.31675559D-01 0.37071084D+05 0.37071084D+05 0.37071084D+05 0.12053684D+01  1  2  6  3  6  5        4 0.260238808041D-01 0.100000000000D+01
0.144881701191D-04 0.000000000000D+00 0.000000000000D+00 0.103413910072D-06 0.557474362940D-07  6 21 3 25 -24 4 21 4 0.37177802D-01 0.31675559D-01 0.36634876D+05 0.36634876D+05 0.36634876D+05 0.12058953D+01  1  2 11  3  6  5        4 0.102248453601D-01 0.100000000000D+01
  </mgrwgt>
  </event>
  <event>
  6     66 0.45631637E-03 0.49966605E+02 0.75467711E-02 0.11834684E+00
       21 -1    0    0  501  502 0.00000000E+00 0.00000000E+00 0.62153452E+02 0.62157977E+02 0.75000000E+00 0.0000E+00 0.9000E+01
        1 -1    0    0  503    0 0.00000000E+00 0.00000000E+00 -.60706975E+03 0.60706983E+03 0.32000000E+00 0.0000E+00 0.9000E+01
       25  1    1    2    0    0 0.11681587E+02 -.33801825E+02 -.16290122E+03 0.20842464E+03 0.12500000E+03 0.0000E+00 0.9000E+01
      -24  1    1    2    0    0 -.14482255E+02 -.80573082E+01 -.27526937E+03 0.28725441E+03 0.80419002E+02 0.0000E+00 0.9000E+01
        2  1    1    2  501    0 0.40089217E+02 -.20219050E+02 -.41997313E+00 0.44902495E+02 0.32000000E+00 0.0000E+00 0.9000E+01
       21  1    1    2  503  502 -.37288548E+02 0.62078183E+02 -.10632573E+03 0.12864626E+03 0.75000000E+00 0.0000E+00 0.9000E+01
#aMCatNLO 2  0  0  2  1 0.14730380D+02 0.00000000D+00  -5  6  0 0.00000000D+00 0.00000000D+00 0.00000000D+00 0.00000000D+00 0.00000000D+00
  <mgrwgt>
 0.4662231864D-02    1    2    0
 0.153803926314954D+03 0.000000000000000D+00 0.000000000000000D+00 0.153803926314954D+03
 0.153803926314954D+03 0.000000000000000D+00 0.000000000000000D+00 -.153803926314954D+03
 0.125775803403191D+03 -.363896333029875D+01 -.829629069726843D+01 0.106057639171002D+02
 0.112460665714345D+03 -.277446580339418D+02 0.140218332801253D+02 -.722066999702038D+02
 0.693713835123726D+02 0.313836213642405D+02 -.572554258285690D+01 0.616009360531036D+02
 0.000000000000000D+00 -.000000000000000D+00 0.000000000000000D+00 -.000000000000000D+00
 0.192586415271443D+03 0.000000000000000D+00 0.000000000000000D+00 0.192586415271443D+03
 0.195923834108890D+03 0.000000000000000D+00 0.000000000000000D+00 -.195923834108890D+03
 0.130447306218800D+03 0.116814463169221D+02 -.338017940858302D+02 0.106057639171002D+02
 0.109342043754492D+03 -.144823556017398D+02 -.805732174338413D+01 -.722066999702038D+02
 0.762276237105507D+02 0.400894576105289D+02 -.202190672987742D+02 0.616009360531036D+02
 0.724932756964915D+02 -.372885483257112D+02 0.620781831279885D+02 -.333741883744728D+01
0.623584785505D-06 0.000000000000D+00 0.000000000000D+00 0.161023982570D-05 0.154958420838D-08  6 21 1 25 -24 2 21 4 0.95623286D-02 0.93394767D-01 0.27132744D+05 0.27132744D+05 0.27132744D+05 0.12195041D+01  1  2  1  2  6  2        1 0.466223186424D-02 0.100000000000D+01
  </mgrwgt>
  </event>
  <event>
  5     66 -.45631637E-03 0.42980678E+02 0.75467711E-02 0.12202102E+00
       21 -1    0    0  501  502 0.00000000E+00 0.00000000E+00 0.79694126E+02 0.79697655E+02 0.75000000E+00 0.0000E+00 0.9000E+01
        3 -1    0    0  502    0 -.00000000E+00 -.00000000E+00 -.28281859E+03 0.28281903E+03 0.50000000E+00 0.0000E+00 0.9000E+01
       25  1    1    2    0    0 0.90574926E+01 0.43165339E+02 -.11952517E+03 0.17848403E+03 0.12500000E+03 0.0000E+00 0.9000E+01
      -24  1    1    2    0    0 0.33391465E+02 -.36482485E+02 -.10044663E+03 0.13785029E+03 0.80419002E+02 0.0000E+00 0.9000E+01
        4  1    1    2  501    0 -.42448958E+02 -.66828540E+01 0.16847341E+02 0.46182355E+02 0.15500000E+01 0.0000E+00 0.9000E+01
#aMCatNLO 1  0  0  5  1 0.32843199D+01 0.00000000D+00  -5  6  0 0.00000000D+00 0.00000000D+00 0.00000000D+00 0.00000000D+00 0.00000000D+00
  <mgrwgt>
 -.1489835982D-01    8    2    0
 0.150132274630864D+03 0.000000000000000D+00 0.000000000000000D+00 0.150132274630864D+03
 0.150132274630864D+03 -.000000000000000D+00 -.000000000000000D+00 -.150132274630864D+03
 0.134632803982384D+03 0.906256465412875D+01 0.431661371924971D+02 -.235700324549481D+02
 0.984816936352053D+02 0.333951751987307D+02 -.364819005465469D+02 -.280225129645047D+02
 0.671500516441384D+02 -.424577398528595D+02 -.668423664595021D+01 0.515925454194528D+02
 0.000000000000000D+00 0.000000000000000D+00 0.000000000000000D+00 0.000000000000000D+00
 0.150132274630864D+03 0.000000000000000D+00 0.000000000000000D+00 0.150132274630864D+03
 0.150132274630864D+03 -.000000000000000D+00 -.000000000000000D+00 -.150132274630864D+03
 0.134602245289107D+03 0.896987859495666D+01 0.431515453758947D+02 -.234574049402909D+02
 0.984392684196561D+02 0.333273837726492D+02 -.364925731338318D+02 -.279401361766380D+02
 0.294393476497738D+02 -.198556911220306D+02 -.552425271214763D+01 0.210216400902282D+02
 0.377836879031907D+02 -.224415712455753D+02 -.113471952991533D+01 0.303759010267007D+02
0.695170952657D-06 0.000000000000D+00 0.000000000000D+00 0.993269861356D-06 0.000000000000D+00  6 21 3 25 -24 4 21 2 0.12260940D-01 0.43510857D-01 0.18217569D+05 0.18217569D+05 0.18217569D+05 0.12383142D+01  1  2  2  3  6  5        4 0.153369232653D-02 0.100000000000D+01
0.142863613204D-07 0.366851790401D-07 -.140334986579D-08 0.993269861356D-06 0.000000000000D+00  6 21 3 25 -24 4 21 4 0.12260940D-01 0.43510857D-01 0.18217569D+05 0.18217569D+05 0.18217569D+05 0.12383142D+01  1  2  3  3  6  5        4 0.483314670219D-04 0.100000000000D+01
0.630585076170D-07 0.000000000000D+00 0.000000000000D+00 0.993269861356D-06 0.000000000000D+00  6 21 3 25 -24 4 21 4 0.12260940D-01 0.43510857D-01 0.18217569D+05 0.18217569D+05 0.18217569D+05 0.12383142D+01  1  2 15  3  6  5        4 0.213330050458D-03 0.100000000000D+01
0.206744961736D-06 0.000000000000D+00 0.000000000000D+00 0.993230488805D-06 0.000000000000D+00  6 21 3 25 -24 4 21 4 0.12260940D-01 0.43510857D-01 0.18226819D+05 0.18226819D+05 0.18226819D+05 0.12382897D+01  1  2 12  3  6  5        4 0.699384465513D-03 0.100000000000D+01
-.211730066235D-04 0.000000000000D+00 0.000000000000D+00 0.993269861356D-06 0.000000000000D+00  6 21 3 25 -24 4 21 4 0.12260940D-01 0.43510857D-01 0.18217569D+05 0.18217569D+05 0.18217569D+05 0.12383142D+01  1  2  4  3  6  5        4 -.716293287303D-01 0.100000000000D+01
-.721070821186D-05 0.000000000000D+00 0.000000000000D+00 0.993269861356D-06 0.000000000000D+00  6 21 3 25 -24 4 21 4 0.12260940D-01 0.43510857D-01 0.18217569D+05 0.18217569D+05 0.18217569D+05 0.12383142D+01  1  2  5  3  6  5        4 -.243941825585D-01 0.100000000000D+01
0.128651993264D-04 0.000000000000D+00 -.000000000000D+00 0.993269861356D-06 0.000000000000D+00  6 21 3 25 -24 4 21 4 0.12260940D-01 0.43510857D-01 0.18217569D+05 0.18217569D+05 0.18217569D+05 0.12383142D+01  1  2  6  3  6  5        4 0.435236056984D-01 0.100000000000D+01
0.103779193316D-04 0.000000000000D+00 0.000000000000D+00 0.993269861356D-06 0.291459965195D-06  6 21 3 25 -24 4 21 4 0.12260940D-01 0.43510857D-01 0.18226819D+05 0.18226819D+05 0.18226819D+05 0.12382897D+01  1  2 11  3  6  5        4 0.351068074595D-01 0.100000000000D+01
  </mgrwgt>
  </event>
  <event>
  5     66 0.45631637E-03 0.40199474E+02 0.75467711E-02 0.12336124E+00
       21 -1    0    0  501  502 0.00000000E+00 0.00000000E+00 0.18437037E+02 0.18452286E+02 0.75000000E+00 0.0000E+00 0.9000E+01
        1 -1    0    0  502    0 0.00000000E+00 0.00000000E+00 -.95062008E+03 0.95062014E+03 0.32000000E+00 0.0000E+00 0.9000E+01
       25  1    1    2    0    0 0.10061537E+02 -.16645066E+02 -.54520747E+03 0.55969141E+03 0.12500000E+03 0.0000E+00 0.9000E+01
      -24  1    1    2    0    0 -.89881087E+00 -.22495615E+02 -.32462330E+03 0.33519302E+03 0.80419002E+02 0.0000E+00 0.9000E+01
        2  1    1    2  501    0 -.91627266E+01 0.39140681E+02 -.62352277E+02 0.74187986E+02 0.32000000E+00 0.0000E+00 0.9000E+01
#aMCatNLO 1  0  0  2  1 0.16106551D+01 0.00000000D+00  -5  6  0 0.00000000D+00 0.00000000D+00 0.00000000D+00 0.00000000D+00 0.00000000D+00
  <mgrwgt>
 0.2716592938D-01   11    2    0
 0.132416133645802D+03 0.000000000000000D+00 0.000000000000000D+00 0.132416133645802D+03
 0.132416133645802D+03 0.000000000000000D+00 0.000000000000000D+00 -.132416133645802D+03
 0.128943440186935D+03 0.100616219514580D+02 -.166454271166163D+02 -.249620569475555D+02
 0.838946145473833D+02 -.898755891320420D+00 -.224958500709922D+02 -.801369846667206D+01
 0.519942125572855D+02 -.916286606013762D+01 0.391412771876085D+02 0.329757554142276D+02
 0.000000000000000D+00 -.000000000000000D+00 -.000000000000000D+00 -.000000000000000D+00
 0.132576711314271D+03 0.000000000000000D+00 0.000000000000000D+00 0.132576711314271D+03
 0.136520002211835D+03 0.000000000000000D+00 0.000000000000000D+00 -.136520002211835D+03
 0.128904478975408D+03 0.105485464097258D+02 -.160308634050128D+02 -.249620569475555D+02
 0.837855358283548D+02 -.582105802969088D+00 -.220961953601381D+02 -.801369846667206D+01
 0.521471502782111D+02 -.896620371418316D+01 0.393894913391267D+02 0.329757554142276D+02
 0.425954844413286D+01 -.100023689257355D+01 -.126243257397587D+01 -.394329089756438D+01
0.325564157902D-06 0.000000000000D+00 0.000000000000D+00 0.100495403108D-05 0.000000000000D+00  6 21 1 25 -24 2 21 2 0.28376444D-02 0.14625042D+00 0.15651843D+05 0.15651843D+05 0.15651843D+05 0.12457219D+01  1  2  2  2  6  2        1 0.681629349858D-02 0.100000000000D+01
0.115756203007D-08 0.171804926199D-07 -.657220235612D-09 0.100495403108D-05 0.000000000000D+00  6 21 1 25 -24 2 21 4 0.28376444D-02 0.14625042D+00 0.15651843D+05 0.15651843D+05 0.15651843D+05 0.12457219D+01  1  2  3  2  6  2        1 0.376095550238D-04 0.100000000000D+01
0.325558234447D-07 0.000000000000D+00 0.000000000000D+00 0.100495403108D-05 0.000000000000D+00  6 21 1 25 -24 2 21 4 0.28376444D-02 0.14625042D+00 0.15651843D+05 0.15651843D+05 0.15651843D+05 0.12457219D+01  1  2 15  2  6  2        1 0.105774895978D-02 0.100000000000D+01
0.275974564239D-08 0.000000000000D+00 0.000000000000D+00 0.100390487228D-05 0.000000000000D+00  6 21 1 25 -24 2 21 4 0.28376444D-02 0.15087023D+00 0.15860081D+05 0.15860081D+05 0.15860081D+05 0.12450715D+01  1  2 12  2  6  2        1 0.850215295942D-04 0.100000000000D+01
-.524762577153D-04 0.000000000000D+00 0.000000000000D+00 0.100495403108D-05 0.000000000000D+00  6 21 1 25 -24 2 21 4 0.28376444D-02 0.14625042D+00 0.15651843D+05 0.15651843D+05 0.15651843D+05 0.12457219D+01  1  2  4  2  6  2        1 -.170497014477D+01 0.100000000000D+01
-.757352410752D-04 0.000000000000D+00 -.393840229193D-05 0.100495403108D-05 0.000000000000D+00  6 21 1 25 -24 2 21 4 0.28376444D-02 0.15086468D+00 0.15651843D+05 0.15651843D+05 0.15651843D+05 0.12457219D+01  1  2  5  2  6  2        1 -.233793183390D+01 0.100000000000D+01
0.758228948249D-04 0.000000000000D+00 0.393650296118D-05 0.100495403108D-05 0.000000000000D+00  6 21 1 25 -24 2 21 4 0.28376444D-02 0.14625042D+00 0.15651843D+05 0.15651843D+05 0.15651843D+05 0.12457219D+01  1  2  6  2  6  2        1 0.246350973936D+01 0.100000000000D+01
0.521529000732D-04 0.000000000000D+00 0.000000000000D+00 0.100495403108D-05 0.325952748911D-05  6 21 1 25 -24 2 21 4 0.28410855D-02 0.15078304D+00 0.15860081D+05 0.15860081D+05 0.15860081D+05 0.12450715D+01  1  2 11  2  6  2        1 0.160507333188D+01 0.100000000000D+01
0.898485857991D-10 0.000000000000D+00 0.000000000000D+00 0.100390487228D-05 0.000000000000D+00  6 21 21 25 -24 2 -1 4 0.28376444D-02 0.15087023D+00 0.15860081D+05 0.15860081D+05 0.15860081D+05 0.12450715D+01  1  2 12 10  6  2        1 0.452755672715D-05 0.100000000000D+01
-.419892110153D-06 0.000000000000D+00 -.219062611757D-07 0.100495403108D-05 0.000000000000D+00  6 21 21 25 -24 2 -1 4 0.28376444D-02 0.15086468D+00 0.15651843D+05 0.15651843D+05 0.15651843D+05 0.12457219D+01  1  2  5 10  6  2        1 -.212124929494D-01 0.100000000000D+01
0.291783392867D-06 0.000000000000D+00 0.000000000000D+00 0.100495403108D-05 0.176055227633D-07  6 21 21 25 -24 2 -1 4 0.28410855D-02 0.15078304D+00 0.15860081D+05 0.15860081D+05 0.15860081D+05 0.12450715D+01  1  2 11 10  6  2        1 0.146961286686D-01 0.100000000000D+01
  </mgrwgt>
  </event>
  <event>
  5     66 -.45631637E-03 0.41278782E+02 0.75467711E-02 0.11866944E+00
       21 -1    0    0  501  502 0.00000000E+00 0.00000000E+00 0.85381133E+03 0.85381166E+03 0.75000000E+00 0.0000E+00 0.9000E+01
        1 -1    0    0  502    0 0.00000000E+00 0.00000000E+00 -.23791770E+02 0.23793921E+02 0.32000000E+00 0.0000E+00 0.9000E+01
       25  1    1    2    0    0 0.13131104E+02 0.23781794E+02 0.32029293E+03 0.34489210E+03 0.12500000E+03 0.0000E+00 0.9000E+01
      -24  1    1    2    0    0 0.14871803E+02 -.54108573E+02 0.44694984E+03 0.45758091E+03 0.80419002E+02 0.0000E+00 0.9000E+01
        2  1    1    2  501    0 -.28002907E+02 0.30326779E+02 0.62776792E+02 0.75132579E+02 0.32000000E+00 0.0000E+00 0.9000E+01
#aMCatNLO 1  0  0  2  1 0.16106551D+01 0.00000000D+00  -5  6  0 0.00000000D+00 0.00000000D+00 0.00000000D+00 0.00000000D+00 0.00000000D+00
  <mgrwgt>
 -.1144738420D+00    5    2    0
 0.142529896050939D+03 0.000000000000000D+00 0.000000000000000D+00 0.142529896050939D+03
 0.142529896050939D+03 0.000000000000000D+00 0.000000000000000D+00 -.142529896050939D+03
 0.129200322517677D+03 0.131313796738206D+02 0.237814948300696D+02 -.181584886535513D+02
 0.107340688413772D+03 0.148720325159786D+02 -.541088215215025D+02 0.436562196848270D+02
 0.485187811704290D+02 -.280034121897992D+02 0.303273266914329D+02 -.254977310312757D+02
 0.000000000000000D+00 0.000000000000000D+00 -.000000000000000D+00 -.000000000000000D+00
 0.148703933059525D+03 0.000000000000000D+00 0.000000000000000D+00 0.148703933059525D+03
 0.313920321731478D+03 0.000000000000000D+00 0.000000000000000D+00 -.313920321731478D+03
 0.132937422457938D+03 -.227027881667798D+01 0.413820421641269D+02 -.181584886535513D+02
 0.999773958604502D+02 0.269125201375444D+01 -.401889956840827D+02 0.436562196848270D+02
 0.567196186280283D+02 -.341865961259133D+02 0.373932814137698D+02 -.254977310312757D+02
 0.172989817844586D+03 0.337656229288368D+02 -.385863278938140D+02 -.165216388671953D+03
0.660087000132D-05 0.000000000000D+00 0.000000000000D+00 0.275857914195D-06 0.000000000000D+00  6 21 1 25 -24 2 21 2 0.13135578D+00 0.36604631D-02 0.17856804D+05 0.17856804D+05 0.17856804D+05 0.12392825D+01  1  2  2  2  6  2        1 0.116478883122D-01 0.100000000000D+01
-.467719299657D-06 0.348337480002D-06 -.133252547377D-07 0.275857914195D-06 0.000000000000D+00  6 21 1 25 -24 2 21 4 0.13135578D+00 0.36604631D-02 0.17856804D+05 0.17856804D+05 0.17856804D+05 0.12392825D+01  1  2  3  2  6  2        1 -.126757001085D-02 0.100000000000D+01
0.681928753088D-06 0.000000000000D+00 0.000000000000D+00 0.275857914195D-06 0.000000000000D+00  6 21 1 25 -24 2 21 4 0.13135578D+00 0.36604631D-02 0.17856804D+05 0.17856804D+05 0.17856804D+05 0.12392825D+01  1  2 15  2  6  2        1 0.184810085361D-02 0.100000000000D+01
-.691975985087D-04 0.000000000000D+00 -.689485747178D-05 0.275857914195D-06 0.000000000000D+00  6 21 1 25 -24 2 21 4 0.13135578D+00 0.83807791D-02 0.17856804D+05 0.17856804D+05 0.17856804D+05 0.12392825D+01  1  2  5  2  6  2        1 -.607780590924D-01 0.100000000000D+01
-.579889391485D-05 0.000000000000D+00 -.621265229647D-06 0.275857914195D-06 0.000000000000D+00  6 21 21 25 -24 2 -1 4 0.13135578D+00 0.83807791D-02 0.17856804D+05 0.17856804D+05 0.17856804D+05 0.12392825D+01  1  2  5 10  6  2        1 -.659242020795D-01 0.100000000000D+01
  </mgrwgt>
  </event>
  <event>
  6     66 -.45631637E-03 0.10744721E+03 0.75467711E-02 0.11636261E+00
       21 -1    0    0  503  502 0.00000000E+00 0.00000000E+00 0.23697364E+03 0.23697482E+03 0.75000000E+00 0.0000E+00 0.9000E+01
        1 -1    0    0  502    0 0.00000000E+00 0.00000000E+00 -.18013110E+03 0.18013138E+03 0.32000000E+00 0.0000E+00 0.9000E+01
       25  1    1    2    0    0 -.60675992E+01 0.59187153E+02 0.62942056E+02 0.15207445E+03 0.12500000E+03 0.0000E+00 0.9000E+01
      -24  1    1    2    0    0 0.83684410E+02 0.20823469E+02 -.67244280E+02 0.13574132E+03 0.80419002E+02 0.0000E+00 0.9000E+01
        2  1    1    2  501    0 -.66654407E+02 -.75072140E+02 0.60527943E+02 0.11722786E+03 0.32000000E+00 0.0000E+00 0.9000E+01
       21  1    1    2  503  501 -.10962405E+02 -.49384822E+01 0.61681875E+00 0.12062582E+02 0.75000000E+00 0.0000E+00 0.9000E+01
#aMCatNLO 2  0  0  1  2 0.12023432D+02 0.00000000D+00  -5  6  0 0.00000000D+00 0.00000000D+00 0.00000000D+00 0.00000000D+00 0.00000000D+00
  <mgrwgt>
 -.5455769786D-01    3    2    0
 0.200470973166844D+03 0.000000000000000D+00 0.000000000000000D+00 0.200470973166844D+03
 0.200470973166844D+03 0.000000000000000D+00 0.000000000000000D+00 -.200470973166844D+03
 0.144240460321747D+03 -.100171872929485D+02 0.574079584312305D+02 0.422408885006646D+02
 0.144015464195300D+03 0.797139039702463D+02 0.190348507180679D+02 -.869287406154060D+02
 0.112686021816641D+03 -.696967166772979D+02 -.764428091492984D+02 0.446878521147414D+02
 0.000000000000000D+00 -.000000000000000D+00 -.000000000000000D+00 -.000000000000000D+00
 0.206062517003023D+03 0.000000000000000D+00 0.000000000000000D+00 0.206062517003023D+03
 0.207130432744973D+03 0.000000000000000D+00 0.000000000000000D+00 -.207130432744973D+03
 0.144738521006151D+03 -.606749752863959D+01 0.591872644701751D+02 0.422408885006646D+02
 0.146494168375019D+03 0.836845142787316D+02 0.208235813074993D+02 -.869287406154060D+02
 0.109889495556198D+03 -.666546122352597D+02 -.750723635882998D+02 0.446878521147414D+02
 0.120707648106278D+02 -.109624045148323D+02 -.493848218937464D+01 -.106791574194935D+01
-.208403858392D-04 0.000000000000D+00 0.000000000000D+00 0.190466400547D-06 0.000000000000D+00  6 21 1 25 -24 2 21 4 0.37026993D-01 0.26820090D-01 0.33997573D+05 0.33997573D+05 0.33997573D+05 0.12092376D+01  1  2 13  1  6  1       21 -.593457950258D-01 0.100000000000D+01
-.101377143587D-05 0.000000000000D+00 0.000000000000D+00 0.191454464350D-06 0.000000000000D+00  6 21 1 25 -24 2 21 4 0.35466314D-01 0.26820090D-01 0.31716749D+05 0.31716749D+05 0.31716749D+05 0.12123701D+01  1  2  8  1  6  1       21 -.318067844473D-02 0.100000000000D+01
0.282697515101D-05 0.000000000000D+00 0.000000000000D+00 0.191454464350D-06 0.215734770349D-07  6 21 1 25 -24 2 21 4 0.36455542D-01 0.27711029D-01 0.33997573D+05 0.33997573D+05 0.33997573D+05 0.12092376D+01  1  2  1  1  6  1       21 0.796877560694D-02 0.100000000000D+01
  </mgrwgt>
  </event>
  <event>
  5     66 0.45631637E-03 0.23171593E+02 0.75467711E-02 0.11730838E+00
       21 -1    0    0  501  502 0.00000000E+00 0.00000000E+00 0.18283960E+03 0.18284114E+03 0.75000000E+00 0.0000E+00 0.9000E+01
        1 -1    0    0  502    0 -.00000000E+00 -.00000000E+00 -.11281242E+04 0.11281243E+04 0.32000000E+00 0.0000E+00 0.9000E+01
       25  1    1    2    0    0 -.63367604E+02 -.91577210E+01 -.59351193E+03 0.60990223E+03 0.12500000E+03 0.0000E+00 0.9000E+01
      -24  1    1    2    0    0 0.85155536E+02 0.17044965E+02 -.51895553E+03 0.53228193E+03 0.80419002E+02 0.0000E+00 0.9000E+01
        2  1    1    2  501    0 -.21787931E+02 -.78872441E+01 0.16718281E+03 0.16878127E+03 0.32000000E+00 0.0000E+00 0.9000E+01
#aMCatNLO 1  0  0  5  1 0.11924568D+02 0.00000000D+00  -5  6  0 0.00000000D+00 0.00000000D+00 0.00000000D+00 0.00000000D+00 0.00000000D+00
  <mgrwgt>
 0.4528589219D+00    4    2    0
 0.454166072473773D+03 0.000000000000000D+00 0.000000000000000D+00 0.454166072473773D+03
 0.454166072473773D+03 -.000000000000000D+00 -.000000000000000D+00 -.454166072473773D+03
 0.262594522004851D+03 -.633676026142680D+02 -.915772036179565D+01 -.221881874166530D+03
 0.228157221471094D+03 0.851555371857170D+02 0.170449657314938D+02 -.195055134218157D+03
 0.417580401471602D+03 -.217879345714491D+02 -.788724536969819D+01 0.416937008384687D+03
 0.000000000000000D+00 0.000000000000000D+00 0.000000000000000D+00 0.000000000000000D+00
 0.454166072473773D+03 0.000000000000000D+00 0.000000000000000D+00 0.454166072473773D+03
 0.454166072473773D+03 -.000000000000000D+00 -.000000000000000D+00 -.454166072473773D+03
 0.253106907024944D+03 -.639688500666235D+02 -.937537229980209D+01 -.210376317581442D+03
 0.219464211516641D+03 0.846336630332448D+02 0.168560469756038D+02 -.185068476365322D+03
 0.522468213596495D+02 -.430891785062987D+02 0.259917894266791D+02 0.140527548985478D+02
 0.383514205046312D+03 0.224243655396772D+02 -.334724641024808D+02 0.381392039048216D+03
0.100500154505D-02 0.000000000000D+00 0.000000000000D+00 0.722633297291D-04 0.000000000000D+00  6 21 1 25 -24 2 21 2 0.28129291D-01 0.17355770D+00 0.19877531D+05 0.19877531D+05 0.19877531D+05 0.12341198D+01  1  2  2  3  6  5        2 0.276512357001D+00 0.100000000000D+01
0.454418232186D-03 0.530353885974D-04 -.202880856568D-05 0.722633297291D-04 0.000000000000D+00  6 21 1 25 -24 2 21 4 0.28129291D-01 0.17355770D+00 0.19877531D+05 0.19877531D+05 0.19877531D+05 0.12341198D+01  1  2  3  3  6  5        2 0.190422482191D+00 0.100000000000D+01
0.954225446158D-04 0.000000000000D+00 0.000000000000D+00 0.722633297291D-04 0.000000000000D+00  6 21 1 25 -24 2 21 4 0.28129291D-01 0.17355770D+00 0.19877531D+05 0.19877531D+05 0.19877531D+05 0.12341198D+01  1  2 15  3  6  5        2 0.399865069571D-01 0.100000000000D+01
-.129012871566D-03 0.000000000000D+00 0.000000000000D+00 0.722633297291D-04 0.000000000000D+00  6 21 1 25 -24 2 21 4 0.28129291D-01 0.17355770D+00 0.19877531D+05 0.19877531D+05 0.19877531D+05 0.12341198D+01  1  2  5  3  6  5        2 -.540624242124D-01 0.100000000000D+01
  </mgrwgt>
  </event>
  <event>
  5     66 0.45631637E-03 0.32144145E+02 0.75467711E-02 0.10522766E+00
       21 -1    0    0  501  502 0.00000000E+00 0.00000000E+00 0.98949912E+02 0.98952754E+02 0.75000000E+00 0.0000E+00 0.9000E+01
        1 -1    0    0  502    0 0.00000000E+00 0.00000000E+00 -.72045290E+03 0.72045297E+03 0.32000000E+00 0.0000E+00 0.9000E+01
       25  1    1    2    0    0 -.13300510E+03 -.50721337E+02 -.23397865E+03 0.30105484E+03 0.12500000E+03 0.0000E+00 0.9000E+01
      -24  1    1    2    0    0 0.13802384E+03 0.18971467E+02 -.43342414E+03 0.46231396E+03 0.80419002E+02 0.0000E+00 0.9000E+01
        2  1    1    2  501    0 -.50187444E+01 0.31749870E+02 0.45899802E+02 0.56036919E+02 0.32000000E+00 0.0000E+00 0.9000E+01
#aMCatNLO 1  0  0  2  1 0.61974876D+01 0.00000000D+00  -5  6  0 0.00000000D+00 0.00000000D+00 0.00000000D+00 0.00000000D+00 0.00000000D+00
  <mgrwgt>
 0.2818719124D+00    5    2    0
 0.267001768340503D+03 0.000000000000000D+00 0.000000000000000D+00 0.267001768340503D+03
 0.267001768340503D+03 0.000000000000000D+00 0.000000000000000D+00 -.267001768340503D+03
 0.189638515630961D+03 -.133005094826406D+03 -.507213662231056D+02 -.864606091781833D+01
 0.204958107916482D+03 0.138023848950060D+03 0.189714345263730D+02 -.127004377244866D+03
 0.139406913133564D+03 -.501875412365393D+01 0.317499316967326D+02 0.135650438162684D+03
 0.000000000000000D+00 -.000000000000000D+00 0.000000000000000D+00 -.000000000000000D+00
 0.410216269807662D+03 0.000000000000000D+00 0.000000000000000D+00 0.410216269807662D+03
 0.462085393951643D+03 0.000000000000000D+00 0.000000000000000D+00 -.462085393951643D+03
 0.152296318980446D+03 -.535312782531376D+02 -.680354073566419D+02 -.864606091781833D+01
 0.295516165857891D+03 0.254346015069186D+03 -.637033029338822D+01 -.127004377244866D+03
 0.150248717549506D+03 0.623041277011297D+02 0.170830741655116D+02 0.135650438162684D+03
 0.274240461371462D+03 -.263118864517178D+03 0.573226634845185D+02 -.518691241439810D+02
0.112186624075D-03 0.000000000000D+00 0.000000000000D+00 0.154743885406D-05 0.000000000000D+00  6 21 1 25 -24 2 21 2 0.15223287D-01 0.11083913D+00 0.36567187D+05 0.36567187D+05 0.36567187D+05 0.12059777D+01  1  2  2  2  6  2        1 0.187681228883D+00 0.100000000000D+01
0.222117154284D-04 0.592025080213D-05 -.226472471608D-06 0.154743885406D-05 0.000000000000D+00  6 21 1 25 -24 2 21 4 0.15223287D-01 0.11083913D+00 0.36567187D+05 0.36567187D+05 0.36567187D+05 0.12059777D+01  1  2  3  2  6  2        1 0.540431217999D-01 0.100000000000D+01
0.112067773036D-04 0.000000000000D+00 0.000000000000D+00 0.154743885406D-05 0.000000000000D+00  6 21 1 25 -24 2 21 4 0.15223287D-01 0.11083913D+00 0.36567187D+05 0.36567187D+05 0.36567187D+05 0.12059777D+01  1  2 15  2  6  2        1 0.272671074305D-01 0.100000000000D+01
0.166973694434D-04 0.000000000000D+00 -.104566908182D-03 0.154743885406D-05 0.000000000000D+00  6 21 1 25 -24 2 21 4 0.15223287D-01 0.25404128D+00 0.36567187D+05 0.36567187D+05 0.36567187D+05 0.12059777D+01  1  2  5  2  6  2        1 0.874342961673D-02 0.100000000000D+01
0.812189511296D-05 0.000000000000D+00 -.943525593617D-05 0.154743885406D-05 0.000000000000D+00  6 21 21 25 -24 2 -1 4 0.15223287D-01 0.25404128D+00 0.36567187D+05 0.36567187D+05 0.36567187D+05 0.12059777D+01  1  2  5 10  6  2        1 0.413702467082D-02 0.100000000000D+01
  </mgrwgt>
  </event>
  <event>
  5     66 0.45631637E-03 0.54381737E+02 0.75467711E-02 0.94262269E-01
       21 -1    0    0  501  502 0.00000000E+00 0.00000000E+00 0.76268237E+02 0.76271924E+02 0.75000000E+00 0.0000E+00 0.9000E+01
        1 -1    0    0  502    0 0.00000000E+00 0.00000000E+00 -.35547577E+03 0.35547592E+03 0.32000000E+00 0.0000E+00 0.9000E+01
       25  1    1    2    0    0 0.68696184E+02 -.61693043E+00 -.16268215E+03 0.21635626E+03 0.12500000E+03 0.0000E+00 0.9000E+01
      -24  1    1    2    0    0 -.82986105E+02 -.51852969E+02 -.84914966E+02 0.15248997E+03 0.80419002E+02 0.0000E+00 0.9000E+01
        2  1    1    2  501    0 0.14289922E+02 0.52469899E+02 -.31610417E+02 0.62901614E+02 0.32000000E+00 0.0000E+00 0.9000E+01
#aMCatNLO 1  0  0  1  5 0.45110170D+01 0.00000000D+00  -5  6  0 0.00000000D+00 0.00000000D+00 0.00000000D+00 0.00000000D+00 0.00000000D+00
  <mgrwgt>
 0.3889365119D-01   12    2    0
 0.164658244454074D+03 0.000000000000000D+00 0.000000000000000D+00 0.164658244454074D+03
 0.164658244454074D+03 0.000000000000000D+00 0.000000000000000D+00 -.164658244454074D+03
 0.145723809052374D+03 0.686960794167793D+02 -.617314070035341D+00 -.298478830210015D+02
 0.127926720979551D+03 -.829861971562045D+02 -.518533053682984D+02 0.179598382549233D+02
 0.556659588762231D+02 0.142901177394252D+02 0.524706194383337D+02 0.118880447660782D+02
 0.000000000000000D+00 -.000000000000000D+00 0.000000000000000D+00 0.000000000000000D+00
 0.140518907878489D+04 0.000000000000000D+00 0.000000000000000D+00 0.140518907878489D+04
 0.666818142044937D+03 0.000000000000000D+00 0.000000000000000D+00 -.666818142044937D+03
 0.580145027844735D+03 0.531908045340773D+03 -.192681572844658D+03 -.298478830210015D+02
 0.211389864944592D+03 0.133548106077452D+03 -.141636176946093D+03 0.179598382549233D+02
 0.139077605576147D+03 0.138565392769334D+03 0.941642774228384D+00 0.118880447660782D+02
 0.114139472246435D+04 -.804021544187559D+03 0.333376107016522D+03 0.738370936739949D+03
0.292416059206D-05 0.000000000000D+00 0.000000000000D+00 0.282396938450D-06 0.000000000000D+00  6 21 1 25 -24 2 21 2 0.11733870D-01 0.54688875D-01 0.26191496D+05 0.26191496D+05 0.26191496D+05 0.12211357D+01  1  2  2  1  6  1       21 0.206123392667D-01 0.100000000000D+01
-.816473182063D-07 0.154312193931D-06 -.590303774735D-08 0.282396938450D-06 0.000000000000D+00  6 21 1 25 -24 2 21 4 0.11733870D-01 0.54688875D-01 0.26191496D+05 0.26191496D+05 0.26191496D+05 0.12211357D+01  1  2  3  1  6  1       21 -.858214484198D-03 0.100000000000D+01
0.281698077074D-06 0.000000000000D+00 0.000000000000D+00 0.282396938450D-06 0.000000000000D+00  6 21 1 25 -24 2 21 4 0.11733870D-01 0.54688875D-01 0.26191496D+05 0.26191496D+05 0.26191496D+05 0.12211357D+01  1  2 15  1  6  1       21 0.296099584440D-02 0.100000000000D+01
0.882560768916D-03 0.000000000000D+00 -.562513519773D-03 0.282396938450D-06 0.000000000000D+00  6 21 1 25 -24 2 21 4 0.30065432D+00 0.54688875D-01 0.26191496D+05 0.26191496D+05 0.26191496D+05 0.12211357D+01  1  2  5  1  6  1       21 0.537845110619D-02 0.100000000000D+01
0.391091458439D-03 0.000000000000D+00 -.249412862933D-03 0.282396938450D-06 0.000000000000D+00  6 -1 1 25 -24 2 -1 4 0.30065432D+00 0.54688875D-01 0.26191496D+05 0.26191496D+05 0.26191496D+05 0.12211357D+01  1  2  5  4  6  1       21 0.254055088685D-03 0.100000000000D+01
0.391091458439D-03 0.000000000000D+00 -.249412862933D-03 0.282396938450D-06 0.000000000000D+00  6 1 1 25 -24 2 1 4 0.30065432D+00 0.54688875D-01 0.26191496D+05 0.26191496D+05 0.26191496D+05 0.12211357D+01  1  2  5  5  6  1       21 0.284145987075D-02 0.100000000000D+01
0.391091458439D-03 0.000000000000D+00 -.249412862933D-03 0.282396938450D-06 0.000000000000D+00  6 -2 1 25 -24 2 -2 4 0.30065432D+00 0.54688875D-01 0.26191496D+05 0.26191496D+05 0.26191496D+05 0.12211357D+01  1  2  5  6  6  1       21 0.210045654934D-03 0.100000000000D+01
0.391091458439D-03 0.000000000000D+00 -.249412862933D-03 0.282396938450D-06 0.000000000000D+00  6 2 1 25 -24 2 2 4 0.30065432D+00 0.54688875D-01 0.26191496D+05 0.26191496D+05 0.26191496D+05 0.12211357D+01  1  2  5  7  6  1       21 0.698149494263D-02 0.100000000000D+01
0.391091458439D-03 0.000000000000D+00 -.249412862933D-03 0.282396938450D-06 0.000000000000D+00  6 -3 1 25 -24 2 -3 4 0.30065432D+00 0.54688875D-01 0.26191496D+05 0.26191496D+05 0.26191496D+05 0.12211357D+01  1  2  5  8  6  1       21 0.149653119384D-03 0.100000000000D+01
0.391091458439D-03 0.000000000000D+00 -.249412862933D-03 0.282396938450D-06 0.000000000000D+00  6 -4 1 25 -24 2 -4 4 0.30065432D+00 0.54688875D-01 0.26191496D+05 0.26191496D+05 0.26191496D+05 0.12211357D+01  1  2  5  8  6  1       21 0.105643551591D-03 0.100000000000D+01
0.391091458439D-03 0.000000000000D+00 -.249412862933D-03 0.282396938450D-06 0.000000000000D+00  6 3 1 25 -24 2 3 4 0.30065432D+00 0.54688875D-01 0.26191496D+05 0.26191496D+05 0.26191496D+05 0.12211357D+01  1  2  5  9  6  1       21 0.152083676094D-03 0.100000000000D+01
0.391091458439D-03 0.000000000000D+00 -.249412862933D-03 0.282396938450D-06 0.000000000000D+00  6 4 1 25 -24 2 4 4 0.30065432D+00 0.54688875D-01 0.26191496D+05 0.26191496D+05 0.26191496D+05 0.12211357D+01  1  2  5  9  6  1       21 0.105643551591D-03 0.100000000000D+01
  </mgrwgt>
  </event>
  <event>
  5     66 0.45631637E-03 0.42908522E+02 0.75467711E-02 0.12112475E+00
       21 -1    0    0  501  502 0.00000000E+00 0.00000000E+00 0.33002792E+02 0.33011313E+02 0.75000000E+00 0.0000E+00 0.9000E+01
        1 -1    0    0  502    0 -.00000000E+00 -.00000000E+00 -.18192845E+04 0.18192845E+04 0.32000000E+00 0.0000E+00 0.9000E+01
       25  1    1    2    0    0 0.27977191E+02 -.71187266E+02 -.23390722E+03 0.27602162E+03 0.12500000E+03 0.0000E+00 0.9000E+01
      -24  1    1    2    0    0 -.26141868E+02 0.28318266E+02 -.15197669E+04 0.15223810E+04 0.80419002E+02 0.0000E+00 0.9000E+01
        2  1    1    2  501    0 -.18353234E+01 0.42869000E+02 -.32607592E+02 0.53893200E+02 0.32000000E+00 0.0000E+00 0.9000E+01
#aMCatNLO 1  0  0  5  2 0.31000217D+01 0.00000000D+00  -5  6  0 0.00000000D+00 0.00000000D+00 0.00000000D+00 0.00000000D+00 0.00000000D+00
  <mgrwgt>
 0.6012513969D-01    7    2    0
 0.245049760126607D+03 0.000000000000000D+00 0.000000000000000D+00 0.245049760126607D+03
 0.245049760126607D+03 -.000000000000000D+00 -.000000000000000D+00 -.245049760126607D+03
 0.190674494067943D+03 0.279771960833652D+02 -.711873849793554D+02 0.121989324972228D+03
 0.214585616309028D+03 -.261418619237951D+02 0.283181326113342D+02 -.195178014112551D+03
 0.848394098762432D+02 -.183533415957012D+01 0.428692523680212D+02 0.731886891403228D+02
 0.000000000000000D+00 0.000000000000000D+00 -.000000000000000D+00 0.000000000000000D+00
 0.245049760126607D+03 0.000000000000000D+00 0.000000000000000D+00 0.245049760126607D+03
 0.245049760126607D+03 -.000000000000000D+00 -.000000000000000D+00 -.245049760126607D+03
 0.194504430073115D+03 0.277605914348166D+02 -.661279905937066D+02 0.130626994688292D+03
 0.206889983987869D+03 -.263788779403846D+02 0.338542903608407D+02 -.185726388385981D+03
 0.761254130698125D+02 0.986924793374162D+00 0.398748764727042D+02 0.648390215903077D+02
 0.125796931224184D+02 -.236863828780614D+01 -.760117623983834D+01 -.973962789261872D+01
0.265928923643D-04 0.000000000000D+00 0.000000000000D+00 0.218251388306D-06 0.000000000000D+00  6 21 1 25 -24 2 21 2 0.50780103D-02 0.27989058D+00 0.19408703D+05 0.19408703D+05 0.19408703D+05 0.12352635D+01  1  2  2  3  6  5        2 0.546876373110D-01 0.100000000000D+01
0.188350073452D-06 0.140334548481D-05 -.536833879316D-07 0.218251388306D-06 0.000000000000D+00  6 21 1 25 -24 2 21 4 0.50780103D-02 0.27989058D+00 0.19408703D+05 0.19408703D+05 0.19408703D+05 0.12352635D+01  1  2  3  3  6  5        2 0.591028739317D-03 0.100000000000D+01
0.251915962915D-05 0.000000000000D+00 0.000000000000D+00 0.218251388306D-06 0.000000000000D+00  6 21 1 25 -24 2 21 4 0.50780103D-02 0.27989058D+00 0.19408703D+05 0.19408703D+05 0.19408703D+05 0.12352635D+01  1  2 15  3  6  5        2 0.790493846095D-02 0.100000000000D+01
-.276597290365D-04 0.000000000000D+00 0.000000000000D+00 0.218251388306D-06 0.000000000000D+00  6 21 1 25 -24 2 21 4 0.50780103D-02 0.27989058D+00 0.19408703D+05 0.19408703D+05 0.19408703D+05 0.12352635D+01  1  2  4  3  6  5        2 -.867942044444D-01 0.100000000000D+01
0.131253638303D-06 0.000000000000D+00 0.000000000000D+00 0.218251388306D-06 0.000000000000D+00  6 21 1 25 -24 2 21 4 0.50780103D-02 0.27989058D+00 0.19408703D+05 0.19408703D+05 0.19408703D+05 0.12352635D+01  1  2  5  3  6  5        2 0.411864306476D-03 0.100000000000D+01
-.152139953235D-06 0.000000000000D+00 0.000000000000D+00 0.218251388306D-06 0.000000000000D+00  6 21 1 25 -24 2 21 4 0.50780103D-02 0.27989058D+00 0.19408703D+05 0.19408703D+05 0.19408703D+05 0.12352635D+01  1  2  6  3  6  5        2 -.477404033415D-03 0.100000000000D+01
0.268614524186D-04 0.000000000000D+00 0.000000000000D+00 0.218251388306D-06 0.292793227586D-07  6 21 1 25 -24 2 21 4 0.50780103D-02 0.27989058D+00 0.20038732D+05 0.20038732D+05 0.20038732D+05 0.12337336D+01  1  2 11  3  6  5        2 0.838012793473D-01 0.100000000000D+01
  </mgrwgt>
  </event>
  <event>
  5     66 0.45631637E-03 0.31776075E+02 0.75467711E-02 0.12155684E+00
       21 -1    0    0  501  502 0.00000000E+00 0.00000000E+00 0.10678690E+02 0.10704995E+02 0.75000000E+00 0.0000E+00 0.9000E+01
        1 -1    0    0  502    0 0.00000000E+00 0.00000000E+00 -.17794421E+04 0.17794421E+04 0.32000000E+00 0.0000E+00 0.9000E+01
       25  1    1    2    0    0 -.53251106E+02 0.22108148E+02 -.90642116E+03 0.91681446E+03 0.12500000E+03 0.0000E+00 0.9000E+01
      -24  1    1    2    0    0 0.45068604E+02 -.52811176E+02 -.67722657E+03 0.68550947E+03 0.80419002E+02 0.0000E+00 0.9000E+01
        2  1    1    2  501    0 0.81825019E+01 0.30703027E+02 -.18511568E+03 0.18782318E+03 0.32000000E+00 0.0000E+00 0.9000E+01
#aMCatNLO 1  0  0  1  2 0.10204363D+01 0.00000000D+00  -5  6  0 0.00000000D+00 0.00000000D+00 0.00000000D+00 0.00000000D+00 0.00000000D+00
  <mgrwgt>
 0.5142892508D-01   21    2    0
 0.137933612347538D+03 0.000000000000000D+00 0.000000000000000D+00 0.137933612347538D+03
 0.137933612347538D+03 0.000000000000000D+00 0.000000000000000D+00 -.137933612347538D+03
 0.137704618062996D+03 -.532513111264095D+02 0.221073781745127D+02 -.362264122473002D+01
 0.106244239791555D+03 0.450684455941558D+02 -.528117699340779D+02 0.612129619950705D+00
 0.319183668405248D+02 0.818286553225369D+01 0.307043917595652D+02 0.301051160477931D+01
 0.000000000000000D+00 -.000000000000000D+00 0.000000000000000D+00 -.000000000000000D+00
 0.138366064939479D+03 0.000000000000000D+00 0.000000000000000D+00 0.138366064939479D+03
 0.138537840256577D+03 0.000000000000000D+00 0.000000000000000D+00 -.138537840256577D+03
 0.137601617596750D+03 -.531926001230423D+02 0.216015954954532D+02 -.362264122473002D+01
 0.106458237457270D+03 0.451138059029336D+02 -.532025392478483D+02 0.612129619950705D+00
 0.318092569378439D+02 0.819645589908745D+01 0.305873136693887D+02 0.301051160477931D+01
 0.103479320419096D+01 -.117661678978813D+00 0.101363008300640D+01 -.171775317098034D+00
0.321862252382D-05 0.000000000000D+00 0.000000000000D+00 0.560753560411D-06 0.000000000000D+00  6 21 1 25 -24 2 21 2 0.16449011D-02 0.27376235D+00 0.18999247D+05 0.18999247D+05 0.18999247D+05 0.12362880D+01  1  2  2  1  6  1       21 0.447305517667D-01 0.100000000000D+01
0.282893048271D-07 0.169851376985D-06 -.649747154933D-08 0.560753560411D-06 0.000000000000D+00  6 21 1 25 -24 2 21 4 0.16449011D-02 0.27376235D+00 0.18999247D+05 0.18999247D+05 0.18999247D+05 0.12362880D+01  1  2  3  1  6  1       21 0.600891082036D-03 0.100000000000D+01
0.298514795233D-06 0.000000000000D+00 0.000000000000D+00 0.560753560411D-06 0.000000000000D+00  6 21 1 25 -24 2 21 4 0.16449011D-02 0.27376235D+00 0.18999247D+05 0.18999247D+05 0.18999247D+05 0.12362880D+01  1  2 15  1  6  1       21 0.634073122005D-02 0.100000000000D+01
-.141219861029D-05 0.000000000000D+00 0.000000000000D+00 0.560753560411D-06 0.000000000000D+00  6 21 1 25 -24 2 21 4 0.16449011D-02 0.27376235D+00 0.18999247D+05 0.18999247D+05 0.18999247D+05 0.12362880D+01  1  2  4  1  6  1       21 -.299964087548D-01 0.100000000000D+01
0.136635502176D-05 0.000000000000D+00 0.000000000000D+00 0.560753560411D-06 0.190910580228D-04  6 21 1 25 -24 2 21 4 0.16500582D-02 0.27496158D+00 0.19140351D+05 0.19140351D+05 0.19140351D+05 0.12359321D+01  1  2 11  1  6  1       21 0.285153975263D-01 0.100000000000D+01
0.966087183346D-12 0.000000000000D+00 0.000000000000D+00 0.560430833165D-06 0.000000000000D+00  6 -1 1 25 -24 2 -1 4 0.16536475D-02 0.27376235D+00 0.19140351D+05 0.19140351D+05 0.19140351D+05 0.12359321D+01  1  2 12  4  6  1       21 0.947731375032D-09 0.100000000000D+01
0.158046458220D-06 0.000000000000D+00 0.000000000000D+00 0.560430833165D-06 0.635014209556D-08  6 -1 1 25 -24 2 -1 4 0.16500582D-02 0.27496158D+00 0.19140351D+05 0.19140351D+05 0.19140351D+05 0.12359321D+01  1  2 11  4  6  1       21 0.153761397454D-03 0.100000000000D+01
0.966087183346D-12 0.000000000000D+00 0.000000000000D+00 0.560430833165D-06 0.000000000000D+00  6 1 1 25 -24 2 1 4 0.16536475D-02 0.27376235D+00 0.19140351D+05 0.19140351D+05 0.19140351D+05 0.12359321D+01  1  2 12  5  6  1       21 0.987781242516D-09 0.100000000000D+01
0.131398801612D-06 0.000000000000D+00 0.000000000000D+00 0.560430833165D-06 0.139907101540D-07  6 1 1 25 -24 2 1 4 0.16500582D-02 0.27496158D+00 0.19140351D+05 0.19140351D+05 0.19140351D+05 0.12359321D+01  1  2 11  5  6  1       21 0.133226810103D-03 0.100000000000D+01
0.966087183346D-12 0.000000000000D+00 0.000000000000D+00 0.560430833165D-06 0.000000000000D+00  6 -2 1 25 -24 2 -2 4 0.16536475D-02 0.27376235D+00 0.19140351D+05 0.19140351D+05 0.19140351D+05 0.12359321D+01  1  2 12  6  6  1       21 0.940590114711D-09 0.100000000000D+01
0.337370137765D-06 0.000000000000D+00 0.000000000000D+00 0.560430833165D-06 0.469133830464D-05  6 -2 1 25 -24 2 -2 4 0.16500582D-02 0.27496158D+00 0.19140351D+05 0.19140351D+05 0.19140351D+05 0.12359321D+01  1  2 11  6  6  1       21 0.325755471677D-03 0.100000000000D+01
0.966087183346D-12 0.000000000000D+00 0.000000000000D+00 0.560430833165D-06 0.000000000000D+00  6 2 1 25 -24 2 2 4 0.16536475D-02 0.27376235D+00 0.19140351D+05 0.19140351D+05 0.19140351D+05 0.12359321D+01  1  2 12  7  6  1       21 0.101546583533D-08 0.100000000000D+01
0.157243129445D-06 0.000000000000D+00 0.000000000000D+00 0.560430833165D-06 0.318602252789D-08  6 2 1 25 -24 2 2 4 0.16500582D-02 0.27496158D+00 0.19140351D+05 0.19140351D+05 0.19140351D+05 0.12359321D+01  1  2 11  7  6  1       21 0.163890078314D-03 0.100000000000D+01
0.966087183346D-12 0.000000000000D+00 0.000000000000D+00 0.560430833165D-06 0.000000000000D+00  6 -3 1 25 -24 2 -3 4 0.16536475D-02 0.27376235D+00 0.19140351D+05 0.19140351D+05 0.19140351D+05 0.12359321D+01  1  2 12  8  6  1       21 0.743396083278D-09 0.100000000000D+01
0.966087183346D-12 0.000000000000D+00 0.000000000000D+00 0.560430833165D-06 0.000000000000D+00  6 -4 1 25 -24 2 -4 4 0.16536475D-02 0.27376235D+00 0.19140351D+05 0.19140351D+05 0.19140351D+05 0.12359321D+01  1  2 12  8  6  1       21 0.677633788572D-09 0.100000000000D+01
0.158027065099D-06 0.000000000000D+00 0.000000000000D+00 0.560430833165D-06 0.634936290014D-08  6 -3 1 25 -24 2 -3 4 0.16500582D-02 0.27496158D+00 0.19140351D+05 0.19140351D+05 0.19140351D+05 0.12359321D+01  1  2 11  8  6  1       21 0.120614946188D-03 0.100000000000D+01
0.158027065099D-06 0.000000000000D+00 0.000000000000D+00 0.560430833165D-06 0.634936290014D-08  6 -4 1 25 -24 2 -4 4 0.16500582D-02 0.27496158D+00 0.19140351D+05 0.19140351D+05 0.19140351D+05 0.12359321D+01  1  2 11  8  6  1       21 0.109948958988D-03 0.100000000000D+01
0.966087183346D-12 0.000000000000D+00 0.000000000000D+00 0.560430833165D-06 0.000000000000D+00  6 3 1 25 -24 2 3 4 0.16536475D-02 0.27376235D+00 0.19140351D+05 0.19140351D+05 0.19140351D+05 0.12359321D+01  1  2 12  9  6  1       21 0.743358659603D-09 0.100000000000D+01
0.966087183346D-12 0.000000000000D+00 0.000000000000D+00 0.560430833165D-06 0.000000000000D+00  6 4 1 25 -24 2 4 4 0.16536475D-02 0.27376235D+00 0.19140351D+05 0.19140351D+05 0.19140351D+05 0.12359321D+01  1  2 12  9  6  1       21 0.677633788572D-09 0.100000000000D+01
0.158027065099D-06 0.000000000000D+00 0.000000000000D+00 0.560430833165D-06 0.634936290014D-08  6 3 1 25 -24 2 3 4 0.16500582D-02 0.27496158D+00 0.19140351D+05 0.19140351D+05 0.19140351D+05 0.12359321D+01  1  2 11  9  6  1       21 0.120608883318D-03 0.100000000000D+01
0.158027065099D-06 0.000000000000D+00 0.000000000000D+00 0.560430833165D-06 0.634936290014D-08  6 4 1 25 -24 2 4 4 0.16500582D-02 0.27496158D+00 0.19140351D+05 0.19140351D+05 0.19140351D+05 0.12359321D+01  1  2 11  9  6  1       21 0.109948958988D-03 0.100000000000D+01
  </mgrwgt>
  </event>
  <event>
  5     66 0.45631637E-03 0.21009308E+02 0.75467711E-02 0.12139667E+00
       21 -1    0    0  501  502 0.00000000E+00 0.00000000E+00 0.56008642E+02 0.56013664E+02 0.75000000E+00 0.0000E+00 0.9000E+01
        1 -1    0    0  502    0 0.00000000E+00 0.00000000E+00 -.16177250E+04 0.16177250E+04 0.32000000E+00 0.0000E+00 0.9000E+01
       25  1    1    2    0    0 -.19053231E+02 0.76728420E+02 -.30254566E+03 0.33676275E+03 0.12500000E+03 0.0000E+00 0.9000E+01
      -24  1    1    2    0    0 0.38004511E+01 -.62280482E+02 -.12930824E+04 0.12970824E+04 0.80419002E+02 0.0000E+00 0.9000E+01
        2  1    1    2  501    0 0.15252780E+02 -.14447939E+02 0.33911721E+02 0.39893577E+02 0.32000000E+00 0.0000E+00 0.9000E+01
#aMCatNLO 1  0  0  1  5 0.75899972D+01 0.00000000D+00  -5  6  0 0.00000000D+00 0.00000000D+00 0.00000000D+00 0.00000000D+00 0.00000000D+00
  <mgrwgt>
 0.7660493020D+00   41    2    0
 0.301016294914208D+03 0.000000000000000D+00 0.000000000000000D+00 0.301016294914208D+03
 0.301016294914208D+03 0.000000000000000D+00 0.000000000000000D+00 -.301016294914208D+03
 0.151424261259616D+03 -.190532363189968D+02 0.767284250530694D+02 0.324658262280282D+02
 0.251728959050815D+03 0.380044287487495D+01 -.622804737843289D+02 -.230232387143057D+03
 0.198879369517984D+03 0.152527934441219D+02 -.144479512687404D+02 0.197766560915029D+03
 0.000000000000000D+00 -.000000000000000D+00 -.000000000000000D+00 0.000000000000000D+00
 0.459404411066799D+03 0.000000000000000D+00 0.000000000000000D+00 0.459404411066799D+03
 0.301131158644921D+03 0.000000000000000D+00 0.000000000000000D+00 -.301131158644921D+03
 0.151569489014734D+03 -.172777765626747D+02 0.774322837359802D+02 0.324658262280282D+02
 0.251504136174664D+03 0.674924993050979D+01 -.611114563267680D+02 -.230232387143057D+03
 0.199006807371550D+03 0.175842966319751D+02 -.135236561631142D+02 0.197766560915029D+03
 0.158455137150772D+03 -.705576999981018D+01 -.279717124609803D+01 0.158273252421878D+03
0.380647641360D-05 0.000000000000D+00 0.000000000000D+00 0.488398547670D-05 0.000000000000D+00  6 21 1 25 -24 2 21 2 0.86171029D-02 0.24888116D+00 0.18319468D+05 0.18319468D+05 0.18319468D+05 0.12380446D+01  1  2  2  1  6  1       21 0.429234749610D-02 0.100000000000D+01
0.117119293835D-05 0.200873279028D-06 -.768417918460D-08 0.488398547670D-05 0.000000000000D+00  6 21 1 25 -24 2 21 4 0.86171029D-02 0.24888116D+00 0.18319468D+05 0.18319468D+05 0.18319468D+05 0.12380446D+01  1  2  3  1  6  1       21 0.202429015142D-02 0.100000000000D+01
0.387505158098D-06 0.000000000000D+00 0.000000000000D+00 0.488398547670D-05 0.000000000000D+00  6 21 1 25 -24 2 21 4 0.86171029D-02 0.24888116D+00 0.18319468D+05 0.18319468D+05 0.18319468D+05 0.12380446D+01  1  2 15  1  6  1       21 0.669764006832D-03 0.100000000000D+01
0.146263428957D-02 0.000000000000D+00 0.000000000000D+00 0.486091928440D-05 0.000000000000D+00  6 21 1 25 -24 2 21 4 0.13152173D-01 0.24888116D+00 0.19467812D+05 0.19467812D+05 0.19467812D+05 0.12351176D+01  1  2 12  1  6  1       21 0.118713091705D+01 0.100000000000D+01
0.129471231398D-02 0.000000000000D+00 0.000000000000D+00 0.486091928440D-05 0.000000000000D+00  6 21 1 25 -24 2 21 4 0.14149073D-01 0.24888116D+00 0.19467812D+05 0.19467812D+05 0.19467812D+05 0.12351176D+01  1  2 12  1  6  1       21 0.921813585797D+00 0.100000000000D+01
-.130403529845D-02 0.000000000000D+00 0.000000000000D+00 0.488398547670D-05 0.000000000000D+00  6 21 1 25 -24 2 21 4 0.86171029D-02 0.24888116D+00 0.18319468D+05 0.18319468D+05 0.18319468D+05 0.12380446D+01  1  2  4  1  6  1       21 -.225389491800D+01 0.100000000000D+01
-.296118577738D-02 0.000000000000D+00 -.469816646579D-05 0.488398547670D-05 0.000000000000D+00  6 21 1 25 -24 2 21 4 0.13153268D-01 0.24888116D+00 0.18319468D+05 0.18319468D+05 0.18319468D+05 0.12380446D+01  1  2  5  1  6  1       21 -.243205129955D+01 0.100000000000D+01
0.192179173213D-02 0.000000000000D+00 0.336533527982D-05 0.488398547670D-05 0.000000000000D+00  6 21 1 25 -24 2 21 4 0.86171029D-02 0.24888116D+00 0.18319468D+05 0.18319468D+05 0.18319468D+05 0.12380446D+01  1  2  6  1  6  1       21 0.332162528397D+01 0.100000000000D+01
0.263112180394D-04 0.000000000000D+00 0.000000000000D+00 0.488398547670D-05 0.190868855913D-05  6 21 1 25 -24 2 21 4 0.13151232D-01 0.24897613D+00 0.19467812D+05 0.19467812D+05 0.19467812D+05 0.12351176D+01  1  2 11  1  6  1       21 0.213384615504D-01 0.100000000000D+01
0.250944386922D-03 0.000000000000D+00 0.000000000000D+00 0.486091928440D-05 0.000000000000D+00  6 -1 1 25 -24 2 -1 4 0.13152173D-01 0.24888116D+00 0.19467812D+05 0.19467812D+05 0.19467812D+05 0.12351176D+01  1  2 12  4  6  1       21 0.143928058078D-01 0.100000000000D+01
0.266250169965D-03 0.000000000000D+00 0.000000000000D+00 0.486091928440D-05 0.000000000000D+00  6 -1 1 25 -24 2 -1 4 0.14149073D-01 0.24888116D+00 0.19467812D+05 0.19467812D+05 0.19467812D+05 0.12351176D+01  1  2 12  4  6  1       21 0.136282312798D-01 0.100000000000D+01
-.507989416583D-03 0.000000000000D+00 -.672389188835D-06 0.488398547670D-05 0.000000000000D+00  6 -1 1 25 -24 2 -1 4 0.13153268D-01 0.24888116D+00 0.18319468D+05 0.18319468D+05 0.18319468D+05 0.12380446D+01  1  2  5  4  6  1       21 -.294531165933D-01 0.100000000000D+01
0.663570398912D-05 0.000000000000D+00 0.000000000000D+00 0.488398547670D-05 0.404374151041D-06  6 -1 1 25 -24 2 -1 4 0.13151232D-01 0.24897613D+00 0.19467812D+05 0.19467812D+05 0.19467812D+05 0.12351176D+01  1  2 11  4  6  1       21 0.380283061966D-03 0.100000000000D+01
0.250944386922D-03 0.000000000000D+00 0.000000000000D+00 0.486091928440D-05 0.000000000000D+00  6 1 1 25 -24 2 1 4 0.13152173D-01 0.24888116D+00 0.19467812D+05 0.19467812D+05 0.19467812D+05 0.12351176D+01  1  2 12  5  6  1       21 0.191757968421D-01 0.100000000000D+01
0.266250169965D-03 0.000000000000D+00 0.000000000000D+00 0.486091928440D-05 0.000000000000D+00  6 1 1 25 -24 2 1 4 0.14149073D-01 0.24888116D+00 0.19467812D+05 0.19467812D+05 0.19467812D+05 0.12351176D+01  1  2 12  5  6  1       21 0.184979288614D-01 0.100000000000D+01
-.507989416583D-03 0.000000000000D+00 -.672389188835D-06 0.488398547670D-05 0.000000000000D+00  6 1 1 25 -24 2 1 4 0.13153268D-01 0.24888116D+00 0.18319468D+05 0.18319468D+05 0.18319468D+05 0.12380446D+01  1  2  5  5  6  1       21 -.392449146901D-01 0.100000000000D+01
0.663537979682D-05 0.000000000000D+00 0.000000000000D+00 0.488398547670D-05 0.404364880443D-06  6 1 1 25 -24 2 1 4 0.13151232D-01 0.24897613D+00 0.19467812D+05 0.19467812D+05 0.19467812D+05 0.12351176D+01  1  2 11  5  6  1       21 0.506624303433D-03 0.100000000000D+01
0.250944386922D-03 0.000000000000D+00 0.000000000000D+00 0.486091928440D-05 0.000000000000D+00  6 -2 1 25 -24 2 -2 4 0.13152173D-01 0.24888116D+00 0.19467812D+05 0.19467812D+05 0.19467812D+05 0.12351176D+01  1  2 12  6  6  1       21 0.135660677806D-01 0.100000000000D+01
0.266250169965D-03 0.000000000000D+00 0.000000000000D+00 0.486091928440D-05 0.000000000000D+00  6 -2 1 25 -24 2 -2 4 0.14149073D-01 0.24888116D+00 0.19467812D+05 0.19467812D+05 0.19467812D+05 0.12351176D+01  1  2 12  6  6  1       21 0.127881133300D-01 0.100000000000D+01
-.507989416583D-03 0.000000000000D+00 -.672389188835D-06 0.488398547670D-05 0.000000000000D+00  6 -2 1 25 -24 2 -2 4 0.13153268D-01 0.24888116D+00 0.18319468D+05 0.18319468D+05 0.18319468D+05 0.12380446D+01  1  2  5  6  6  1       21 -.277600159666D-01 0.100000000000D+01
0.699138000578D-05 0.000000000000D+00 0.000000000000D+00 0.488398547670D-05 0.483235815123D-06  6 -2 1 25 -24 2 -2 4 0.13151232D-01 0.24897613D+00 0.19467812D+05 0.19467812D+05 0.19467812D+05 0.12351176D+01  1  2 11  6  6  1       21 0.377653261352D-03 0.100000000000D+01
0.250944386922D-03 0.000000000000D+00 0.000000000000D+00 0.486091928440D-05 0.000000000000D+00  6 2 1 25 -24 2 2 4 0.13152173D-01 0.24888116D+00 0.19467812D+05 0.19467812D+05 0.19467812D+05 0.12351176D+01  1  2 12  7  6  1       21 0.224462966151D-01 0.100000000000D+01
0.266250169965D-03 0.000000000000D+00 0.000000000000D+00 0.486091928440D-05 0.000000000000D+00  6 2 1 25 -24 2 2 4 0.14149073D-01 0.24888116D+00 0.19467812D+05 0.19467812D+05 0.19467812D+05 0.12351176D+01  1  2 12  7  6  1       21 0.218404526387D-01 0.100000000000D+01
-.507989416583D-03 0.000000000000D+00 -.672389188835D-06 0.488398547670D-05 0.000000000000D+00  6 2 1 25 -24 2 2 4 0.13153268D-01 0.24888116D+00 0.18319468D+05 0.18319468D+05 0.18319468D+05 0.12380446D+01  1  2  5  7  6  1       21 -.459373647348D-01 0.100000000000D+01
0.700901324187D-05 0.000000000000D+00 0.000000000000D+00 0.488398547670D-05 0.225555417136D-06  6 2 1 25 -24 2 2 4 0.13151232D-01 0.24897613D+00 0.19467812D+05 0.19467812D+05 0.19467812D+05 0.12351176D+01  1  2 11  7  6  1       21 0.626418809587D-03 0.100000000000D+01
0.250944386922D-03 0.000000000000D+00 0.000000000000D+00 0.486091928440D-05 0.000000000000D+00  6 -3 1 25 -24 2 -3 4 0.13152173D-01 0.24888116D+00 0.19467812D+05 0.19467812D+05 0.19467812D+05 0.12351176D+01  1  2 12  8  6  1       21 0.912655739322D-02 0.100000000000D+01
0.250944386922D-03 0.000000000000D+00 0.000000000000D+00 0.486091928440D-05 0.000000000000D+00  6 -4 1 25 -24 2 -4 4 0.13152173D-01 0.24888116D+00 0.19467812D+05 0.19467812D+05 0.19467812D+05 0.12351176D+01  1  2 12  8  6  1       21 0.789696275642D-02 0.100000000000D+01
0.266250169965D-03 0.000000000000D+00 0.000000000000D+00 0.486091928440D-05 0.000000000000D+00  6 -3 1 25 -24 2 -3 4 0.14149073D-01 0.24888116D+00 0.19467812D+05 0.19467812D+05 0.19467812D+05 0.12351176D+01  1  2 12  8  6  1       21 0.855431245393D-02 0.100000000000D+01
0.266250169965D-03 0.000000000000D+00 0.000000000000D+00 0.486091928440D-05 0.000000000000D+00  6 -4 1 25 -24 2 -4 4 0.14149073D-01 0.24888116D+00 0.19467812D+05 0.19467812D+05 0.19467812D+05 0.12351176D+01  1  2 12  8  6  1       21 0.738291967262D-02 0.100000000000D+01
-.507989416583D-03 0.000000000000D+00 -.672389188835D-06 0.488398547670D-05 0.000000000000D+00  6 -3 1 25 -24 2 -3 4 0.13153268D-01 0.24888116D+00 0.18319468D+05 0.18319468D+05 0.18319468D+05 0.12380446D+01  1  2  5  8  6  1       21 -.186494546020D-01 0.100000000000D+01
-.507989416583D-03 0.000000000000D+00 -.672389188835D-06 0.488398547670D-05 0.000000000000D+00  6 -4 1 25 -24 2 -4 4 0.13153268D-01 0.24888116D+00 0.18319468D+05 0.18319468D+05 0.18319468D+05 0.12380446D+01  1  2  5  8  6  1       21 -.161263348093D-01 0.100000000000D+01
0.663543732069D-05 0.000000000000D+00 0.000000000000D+00 0.488398547670D-05 0.404357900494D-06  6 -3 1 25 -24 2 -3 4 0.13151232D-01 0.24897613D+00 0.19467812D+05 0.19467812D+05 0.19467812D+05 0.12351176D+01  1  2 11  8  6  1       21 0.241132267737D-03 0.100000000000D+01
0.663543732069D-05 0.000000000000D+00 0.000000000000D+00 0.488398547670D-05 0.404357900494D-06  6 -4 1 25 -24 2 -4 4 0.13151232D-01 0.24897613D+00 0.19467812D+05 0.19467812D+05 0.19467812D+05 0.12351176D+01  1  2 11  8  6  1       21 0.208645733613D-03 0.100000000000D+01
0.250944386922D-03 0.000000000000D+00 0.000000000000D+00 0.486091928440D-05 0.000000000000D+00  6 3 1 25 -24 2 3 4 0.13152173D-01 0.24888116D+00 0.19467812D+05 0.19467812D+05 0.19467812D+05 0.12351176D+01  1  2 12  9  6  1       21 0.912539632399D-02 0.100000000000D+01
0.250944386922D-03 0.000000000000D+00 0.000000000000D+00 0.486091928440D-05 0.000000000000D+00  6 4 1 25 -24 2 4 4 0.13152173D-01 0.24888116D+00 0.19467812D+05 0.19467812D+05 0.19467812D+05 0.12351176D+01  1  2 12  9  6  1       21 0.789696275642D-02 0.100000000000D+01
0.266250169965D-03 0.000000000000D+00 0.000000000000D+00 0.486091928440D-05 0.000000000000D+00  6 3 1 25 -24 2 3 4 0.14149073D-01 0.24888116D+00 0.19467812D+05 0.19467812D+05 0.19467812D+05 0.12351176D+01  1  2 12  9  6  1       21 0.855324277806D-02 0.100000000000D+01
0.266250169965D-03 0.000000000000D+00 0.000000000000D+00 0.486091928440D-05 0.000000000000D+00  6 4 1 25 -24 2 4 4 0.14149073D-01 0.24888116D+00 0.19467812D+05 0.19467812D+05 0.19467812D+05 0.12351176D+01  1  2 12  9  6  1       21 0.738291967262D-02 0.100000000000D+01
-.507989416583D-03 0.000000000000D+00 -.672389188835D-06 0.488398547670D-05 0.000000000000D+00  6 3 1 25 -24 2 3 4 0.13153268D-01 0.24888116D+00 0.18319468D+05 0.18319468D+05 0.18319468D+05 0.12380446D+01  1  2  5  9  6  1       21 -.186470660147D-01 0.100000000000D+01
-.507989416583D-03 0.000000000000D+00 -.672389188835D-06 0.488398547670D-05 0.000000000000D+00  6 4 1 25 -24 2 4 4 0.13153268D-01 0.24888116D+00 0.18319468D+05 0.18319468D+05 0.18319468D+05 0.12380446D+01  1  2  5  9  6  1       21 -.161263348093D-01 0.100000000000D+01
0.663543732069D-05 0.000000000000D+00 0.000000000000D+00 0.488398547670D-05 0.404357900494D-06  6 3 1 25 -24 2 3 4 0.13151232D-01 0.24897613D+00 0.19467812D+05 0.19467812D+05 0.19467812D+05 0.12351176D+01  1  2 11  9  6  1       21 0.241101590811D-03 0.100000000000D+01
0.663543732069D-05 0.000000000000D+00 0.000000000000D+00 0.488398547670D-05 0.404357900494D-06  6 4 1 25 -24 2 4 4 0.13151232D-01 0.24897613D+00 0.19467812D+05 0.19467812D+05 0.19467812D+05 0.12351176D+01  1  2 11  9  6  1       21 0.208645733613D-03 0.100000000000D+01
  </mgrwgt>
  </event>
  <event>
  5     66 0.45631637E-03 0.48417547E+02 0.75467711E-02 0.11731210E+00
       21 -1    0    0  501  502 0.00000000E+00 0.00000000E+00 0.24978437E+02 0.24989694E+02 0.75000000E+00 0.0000E+00 0.9000E+01
        1 -1    0    0  502    0 0.00000000E+00 0.00000000E+00 -.15633428E+04 0.15633429E+04 0.32000000E+00 0.0000E+00 0.9000E+01
       25  1    1    2    0    0 -.49193425E+02 -.68641989E+02 -.64106739E+03 0.65857734E+03 0.12500000E+03 0.0000E+00 0.9000E+01
      -24  1    1    2    0    0 0.10408523E+02 0.97624250E+02 -.85817109E+03 0.86750427E+03 0.80419002E+02 0.0000E+00 0.9000E+01
        2  1    1    2  501    0 0.38784902E+02 -.28982260E+02 -.39125910E+02 0.62250938E+02 0.32000000E+00 0.0000E+00 0.9000E+01
#aMCatNLO 1  0  0  1  2 0.20307724D+02 0.00000000D+00  -5  6  0 0.00000000D+00 0.00000000D+00 0.00000000D+00 0.00000000D+00 0.00000000D+00
  <mgrwgt>
 0.3243182582D-01    4    2    0
 0.197633060144618D+03 0.000000000000000D+00 0.000000000000000D+00 0.197633060144618D+03
 0.197633060144618D+03 0.000000000000000D+00 0.000000000000000D+00 -.197633060144618D+03
 0.151403290882410D+03 -.491935042369357D+02 -.686419300868193D+02 -.128934504641131D+02
 0.145991467974476D+03 0.104084464297209D+02 0.976243070335115D+02 -.721626751591037D+02
 0.978713614323495D+02 0.387850578072148D+02 -.289823769466923D+02 0.850561256232168D+02
 0.000000000000000D+00 -.000000000000000D+00 0.000000000000000D+00 -.000000000000000D+00
 0.203740207385127D+03 0.000000000000000D+00 0.000000000000000D+00 0.203740207385127D+03
 0.215528425708608D+03 0.000000000000000D+00 0.000000000000000D+00 -.215528425708608D+03
 0.150654811239000D+03 -.420558469444412D+02 -.716724272114037D+02 -.128934504641131D+02
 0.144716064391425D+03 0.172778888442817D+02 0.947076882282467D+02 -.721626751591037D+02
 0.100416579305840D+03 0.434706178245878D+02 -.309717658424926D+02 0.850561256232168D+02
 0.234811781574706D+02 -.186926597244283D+02 0.793650482564962D+01 -.117882183234808D+02
0.106257793253D-04 0.000000000000D+00 0.000000000000D+00 0.734431069816D-06 0.000000000000D+00  6 21 1 25 -24 2 21 2 0.38437049D-02 0.24051515D+00 0.26598426D+05 0.26598426D+05 0.26598426D+05 0.12204224D+01  1  2  2  1  6  1       21 0.493016346471D-01 0.100000000000D+01
0.515134433905D-06 0.560737780394D-06 -.214503870350D-07 0.734431069816D-06 0.000000000000D+00  6 21 1 25 -24 2 21 4 0.38437049D-02 0.24051515D+00 0.26598426D+05 0.26598426D+05 0.26598426D+05 0.12204224D+01  1  2  3  1  6  1       21 0.355992991615D-02 0.100000000000D+01
0.102479791710D-05 0.000000000000D+00 0.000000000000D+00 0.734431069816D-06 0.000000000000D+00  6 21 1 25 -24 2 21 4 0.38437049D-02 0.24051515D+00 0.26598426D+05 0.26598426D+05 0.26598426D+05 0.12204224D+01  1  2 15  1  6  1       21 0.708205183534D-02 0.100000000000D+01
-.398105327872D-05 0.000000000000D+00 0.000000000000D+00 0.734431069816D-06 0.000000000000D+00  6 21 1 25 -24 2 21 4 0.38437049D-02 0.24051515D+00 0.26598426D+05 0.26598426D+05 0.26598426D+05 0.12204224D+01  1  2  4  1  6  1       21 -.275117905773D-01 0.100000000000D+01
  </mgrwgt>
  </event>
  <event>
  6     66 0.45631637E-03 0.23996044E+02 0.75467711E-02 0.12057094E+00
       21 -1    0    0  503  502 0.00000000E+00 0.00000000E+00 0.53475818E+02 0.53481077E+02 0.75000000E+00 0.0000E+00 0.9000E+01
        1 -1    0    0  502    0 0.00000000E+00 0.00000000E+00 -.15185405E+04 0.15185405E+04 0.32000000E+00 0.0000E+00 0.9000E+01
       25  1    1    2    0    0 0.26815450E+02 0.63903148E+02 -.10425094E+04 0.10522611E+04 0.12500000E+03 0.0000E+00 0.9000E+01
      -24  1    1    2    0    0 0.12426239E+01 -.78722167E+02 -.44371899E+03 0.45776903E+03 0.80419002E+02 0.0000E+00 0.9000E+01
        2  1    1    2  501    0 -.71313479E+01 -.38627627E+01 -.14496239E+02 0.16613861E+02 0.32000000E+00 0.0000E+00 0.9000E+01
       21  1    1    2  503  501 -.20926726E+02 0.18681782E+02 0.35659903E+02 0.45377616E+02 0.75000000E+00 0.0000E+00 0.9000E+01
#aMCatNLO 2  0  0  1  2 0.31532660D+03 0.00000000D+00  -5  6  0 0.00000000D+00 0.00000000D+00 0.00000000D+00 0.00000000D+00 0.00000000D+00
  <mgrwgt>
 0.1006348537D+00    1    2    0
 0.139356263779985D+03 0.000000000000000D+00 0.000000000000000D+00 0.139356263779985D+03
 0.139356263779985D+03 0.000000000000000D+00 0.000000000000000D+00 -.139356263779985D+03
 0.152636042355005D+03 0.154985451098862D+02 0.740076566428220D+02 -.442201682890717D+02
 0.112852783025930D+03 -.738733288469296D+01 -.710167878159379D+02 0.342137084146672D+02
 0.132237021790352D+02 -.811121222519326D+01 -.299086882688415D+01 0.100064598744046D+02
 0.000000000000000D+00 -.000000000000000D+00 0.000000000000000D+00 0.000000000000000D+00
 0.577960328155280D+03 0.000000000000000D+00 0.000000000000000D+00 0.577960328155280D+03
 0.140509620383793D+03 0.000000000000000D+00 0.000000000000000D+00 -.140509620383793D+03
 0.149610264027498D+03 0.268168154722255D+02 0.639035697499940D+02 -.442201682890717D+02
 0.117628471781379D+03 0.124353902432219D+01 -.787217707274376D+02 0.342137084146672D+02
 0.128819700475767D+02 -.713362854588279D+01 -.386358083362596D+01 0.100064598744046D+02
 0.438349242682619D+03 -.209267259506649D+02 0.186817818110695D+02 0.437450707771487D+03
0.476800742723D-04 0.000000000000D+00 0.000000000000D+00 0.331740876784D-05 0.230967510925D-06  6 21 1 25 -24 2 21 4 0.82274374D-02 0.23362149D+00 0.21262564D+05 0.21262564D+05 0.21262564D+05 0.12309099D+01  1  2  1  1  6  1       21 0.100634853697D+00 0.100000000000D+01
  </mgrwgt>
  </event>
  <event>
  5     66 0.45631637E-03 0.25816131E+02 0.75467711E-02 0.11773991E+00
       21 -1    0    0  501  502 0.00000000E+00 0.00000000E+00 0.24753452E+02 0.24764811E+02 0.75000000E+00 0.0000E+00 0.9000E+01
        1 -1    0    0  502    0 0.00000000E+00 0.00000000E+00 -.11397820E+04 0.11397820E+04 0.32000000E+00 0.0000E+00 0.9000E+01
       25  1    1    2    0    0 0.75112522E+02 -.61603891E+02 -.60160689E+03 0.62208744E+03 0.12500000E+03 0.0000E+00 0.9000E+01
      -24  1    1    2    0    0 -.10069174E+03 0.58124169E+02 -.35786578E+03 0.38477575E+03 0.80419002E+02 0.0000E+00 0.9000E+01
        2  1    1    2  501    0 0.25579221E+02 0.34797224E+01 -.15555586E+03 0.15768365E+03 0.32000000E+00 0.0000E+00 0.9000E+01
#aMCatNLO 1  0  0  2  1 0.15021533D+02 0.00000000D+00  -5  6  0 0.00000000D+00 0.00000000D+00 0.00000000D+00 0.00000000D+00 0.00000000D+00
  <mgrwgt>
 0.3845803070D+00    9    2    0
 0.167988626654979D+03 0.000000000000000D+00 0.000000000000000D+00 0.167988626654979D+03
 0.167988626654979D+03 0.000000000000000D+00 0.000000000000000D+00 -.167988626654979D+03
 0.159656639117557D+03 0.751118446484302D+02 -.616039834299227D+02 -.206978847564141D+02
 0.146018797277282D+03 -.100692363554909D+03 0.581240845039566D+02 0.365638062328900D+02
 0.303018169151185D+02 0.255805189064788D+02 0.347989892596616D+01 -.158659214764759D+02
 0.000000000000000D+00 -.000000000000000D+00 0.000000000000000D+00 -.000000000000000D+00
 0.172098263369632D+03 0.000000000000000D+00 0.000000000000000D+00 0.172098263369632D+03
 0.182467512473708D+03 0.000000000000000D+00 0.000000000000000D+00 -.182467512473708D+03
 0.164146655771099D+03 0.810409614782854D+02 -.657501690501313D+02 -.206978847564141D+02
 0.140986039556442D+03 -.954370581420786D+02 0.544490900051529D+02 0.365638062328900D+02
 0.311801964720956D+02 0.267063074517524D+02 0.269264368850727D+01 -.158659214764759D+02
 0.182528840437043D+02 -.123102107879592D+02 0.860843535647112D+01 -.103692491040762D+02
0.318467329669D-05 0.000000000000D+00 0.000000000000D+00 0.250509496641D-06 0.000000000000D+00  6 21 1 25 -24 2 21 2 0.38091006D-02 0.17535195D+00 0.26486304D+05 0.26486304D+05 0.26486304D+05 0.12206177D+01  1  2  2  2  6  2        1 0.288188765980D-01 0.100000000000D+01
0.234304834104D-07 0.168059827049D-06 -.642893784096D-08 0.250509496641D-06 0.000000000000D+00  6 21 1 25 -24 2 21 4 0.38091006D-02 0.17535195D+00 0.26486304D+05 0.26486304D+05 0.26486304D+05 0.12206177D+01  1  2  3  2  6  2        1 0.315902269313D-03 0.100000000000D+01
0.324946184484D-06 0.000000000000D+00 0.000000000000D+00 0.250509496641D-06 0.000000000000D+00  6 21 1 25 -24 2 21 4 0.38091006D-02 0.17535195D+00 0.26486304D+05 0.26486304D+05 0.26486304D+05 0.12206177D+01  1  2 15  2  6  2        1 0.438109770443D-02 0.100000000000D+01
0.308326114940D-04 0.000000000000D+00 0.000000000000D+00 0.248770246301D-06 0.000000000000D+00  6 21 1 25 -24 2 21 4 0.38091006D-02 0.19248437D+00 0.29046718D+05 0.29046718D+05 0.29046718D+05 0.12163730D+01  1  2 12  2  6  2        1 0.343169030991D+00 0.100000000000D+01
-.123547215554D-04 0.000000000000D+00 0.000000000000D+00 0.250509496641D-06 0.000000000000D+00  6 21 1 25 -24 2 21 4 0.38091006D-02 0.17535195D+00 0.26486304D+05 0.26486304D+05 0.26486304D+05 0.12206177D+01  1  2  4  2  6  2        1 -.166572942936D+00 0.100000000000D+01
-.769874195983D-04 0.000000000000D+00 -.125293954285D-04 0.250509496641D-06 0.000000000000D+00  6 21 1 25 -24 2 21 4 0.38091006D-02 0.19295113D+00 0.26486304D+05 0.26486304D+05 0.26486304D+05 0.12206177D+01  1  2  5  2  6  2        1 -.865596942473D+00 0.100000000000D+01
0.778863428422D-04 0.000000000000D+00 0.124723076050D-04 0.250509496641D-06 0.000000000000D+00  6 21 1 25 -24 2 21 4 0.38091006D-02 0.17535195D+00 0.26486304D+05 0.26486304D+05 0.26486304D+05 0.12206177D+01  1  2  6  2  6  2        1 0.105010519934D+01 0.100000000000D+01
0.471185226441D-06 0.000000000000D+00 0.000000000000D+00 0.248770246301D-06 0.000000000000D+00  6 21 21 25 -24 2 -1 4 0.38091006D-02 0.19248437D+00 0.29046718D+05 0.29046718D+05 0.29046718D+05 0.12163730D+01  1  2 12 10  6  2        1 0.668173700326D-02 0.100000000000D+01
-.116507341258D-05 0.000000000000D+00 -.195798408068D-06 0.250509496641D-06 0.000000000000D+00  6 21 21 25 -24 2 -1 4 0.38091006D-02 0.19295113D+00 0.26486304D+05 0.26486304D+05 0.26486304D+05 0.12206177D+01  1  2  5 10  6  2        1 -.167216515259D-01 0.100000000000D+01
  </mgrwgt>
  </event>
  <event>
  6     66 -.45631637E-03 0.22298203E+02 0.75467711E-02 0.11964767E+00
       21 -1    0    0  501  502 0.00000000E+00 0.00000000E+00 0.19878191E+03 0.19878332E+03 0.75000000E+00 0.0000E+00 0.9000E+01
        3 -1    0    0  503    0 0.00000000E+00 0.00000000E+00 -.16754739E+03 0.16754814E+03 0.50000000E+00 0.0000E+00 0.9000E+01
       25  1    1    2    0    0 -.43377312E+02 0.30655868E+02 0.74328971E+02 0.15482626E+03 0.12500000E+03 0.0000E+00 0.9000E+01
      -24  1    1    2    0    0 0.60124014E+02 0.14794919E+02 0.34206616E+02 0.10710320E+03 0.80419002E+02 0.0000E+00 0.9000E+01
        4  1    1    2  501    0 -.33032345E+02 -.18691984E+02 -.50350707E+02 0.63072358E+02 0.15500000E+01 0.0000E+00 0.9000E+01
       21  1    1    2  503  502 0.16285642E+02 -.26758802E+02 -.26950364E+02 0.41329653E+02 0.75000000E+00 0.0000E+00 0.9000E+01
#aMCatNLO 2  0  0  2  1 0.31325000D+02 0.00000000D+00  -5  6  0 0.00000000D+00 0.00000000D+00 0.00000000D+00 0.00000000D+00 0.00000000D+00
  <mgrwgt>
 -.2940062407D-01    2    2    0
 0.159106443889497D+03 0.000000000000000D+00 0.000000000000000D+00 0.159106443889497D+03
 0.159106443889497D+03 0.000000000000000D+00 0.000000000000000D+00 -.159106443889497D+03
 0.139742228762939D+03 -.361352599361772D+02 0.187636389621998D+02 0.473820571722526D+02
 0.104968603880333D+03 0.654257787902485D+02 0.608898731627054D+01 0.152834403642460D+02
 0.735020551357234D+02 -.292905188540713D+02 -.248526262784703D+02 -.626654975364986D+02
 0.000000000000000D+00 0.000000000000000D+00 -.000000000000000D+00 -.000000000000000D+00
 0.165871992504949D+03 0.000000000000000D+00 0.000000000000000D+00 0.165871992504949D+03
 0.200785039522406D+03 0.000000000000000D+00 0.000000000000000D+00 -.200785039522406D+03
 0.143844880589181D+03 -.433745384708106D+02 0.306584367227899D+02 0.473820571722526D+02
 0.102639615690695D+03 0.601260536687943D+02 0.147969211531620D+02 0.152834403642460D+02
 0.732664968146994D+02 -.330371575151913D+02 -.186965557608317D+02 -.626654975364986D+02
 0.469060389327793D+02 0.162856423172075D+02 -.267588021151202D+02 -.349130470174578D+02
-.350555380088D-04 0.000000000000D+00 0.000000000000D+00 0.210087546413D-06 0.000000000000D+00  6 21 3 25 -24 4 21 4 0.29334111D-01 0.26129113D-01 0.23500611D+05 0.23500611D+05 0.23500611D+05 0.12261880D+01  1  2 13  2  6  2        3 -.598156381815D-01 0.100000000000D+01
0.188505777090D-04 0.000000000000D+00 0.000000000000D+00 0.213798721626D-06 0.305705417883D-08  6 21 3 25 -24 4 21 4 0.30581460D-01 0.25776235D-01 0.23500611D+05 0.23500611D+05 0.23500611D+05 0.12261880D+01  1  2  1  2  6  2        3 0.304150141132D-01 0.100000000000D+01
  </mgrwgt>
  </event>
  <event>
  6     66 0.45631637E-03 0.75071063E+02 0.75467711E-02 0.11664373E+00
       21 -1    0    0  501  502 0.00000000E+00 0.00000000E+00 0.62643550E+02 0.62648039E+02 0.75000000E+00 0.0000E+00 0.9000E+01
       21 -1    0    0  502  503 0.00000000E+00 0.00000000E+00 -.67570179E+03 0.67570221E+03 0.75000000E+00 0.0000E+00 0.9000E+01
       25  1    1    2    0    0 0.10692814E+03 0.31860934E+02 -.12269338E+03 0.20767140E+03 0.12500000E+03 0.0000E+00 0.9000E+01
      -24  1    1    2    0    0 -.78048520E+02 0.39083164E+02 -.22420051E+03 0.25367725E+03 0.80419002E+02 0.0000E+00 0.9000E+01
        2  1    1    2  501    0 -.94199607E+01 -.23564585E+02 -.80971422E+02 0.84855753E+02 0.32000000E+00 0.0000E+00 0.9000E+01
       -1  1    1    2    0  503 -.19459664E+02 -.47379513E+02 -.18519294E+03 0.19214584E+03 0.32000000E+00 0.0000E+00 0.9000E+01
#aMCatNLO 2  0  0  2  5 0.51220082D+02 0.00000000D+00  -5  6  0 0.00000000D+00 0.00000000D+00 0.00000000D+00 0.00000000D+00 0.00000000D+00
  <mgrwgt>
 0.8682875606D-02    1    2    0
 0.167814660580706D+03 0.000000000000000D+00 0.000000000000000D+00 0.167814660580706D+03
 0.167814660580706D+03 0.000000000000000D+00 0.000000000000000D+00 -.167814660580706D+03
 0.170856802980810D+03 0.968307260407744D+02 0.727620445375156D+01 0.643266233218165D+02
 0.126028998842371D+03 -.853001284111151D+02 0.214272828091484D+02 -.409981980006897D+02
 0.387435193382319D+02 -.115305976296593D+02 -.287034872628999D+02 -.233284253211268D+02
 0.000000000000000D+00 -.000000000000000D+00 -.000000000000000D+00 -.000000000000000D+00
 0.179731195295059D+03 0.000000000000000D+00 0.000000000000000D+00 0.179731195295059D+03
 0.235518475774729D+03 0.000000000000000D+00 0.000000000000000D+00 -.235518475774729D+03
 0.179476303069324D+03 0.106928364184519D+03 0.318614787520577D+02 0.643266233218165D+02
 0.125567268252060D+03 -.780483785206180D+02 0.390835166395341D+02 -.409981980006897D+02
 0.344715800778956D+02 -.942032153015598D+01 -.235654821162620D+02 -.233284253211268D+02
 0.757345196705085D+02 -.194596641337454D+02 -.473795132753298D+02 -.557872804796694D+02
0.620286220012D-06 0.000000000000D+00 0.000000000000D+00 0.193501394664D-06 0.576041781947D-10  6 21 21 25 -24 2 -1 4 0.96378292D-02 0.10395431D+00 0.32912642D+05 0.32912642D+05 0.32912642D+05 0.12106975D+01  1  2  1 10  6  2        1 0.868287560627D-02 0.100000000000D+01
  </mgrwgt>
  </event>
  <event>
  5     66 -.45631637E-03 0.52318949E+02 0.75467711E-02 0.11558177E+00
       21 -1    0    0  501  502 0.00000000E+00 0.00000000E+00 0.33836518E+02 0.33844829E+02 0.75000000E+00 0.0000E+00 0.9000E+01
        1 -1    0    0  502    0 -.00000000E+00 -.00000000E+00 -.11781336E+04 0.11781337E+04 0.32000000E+00 0.0000E+00 0.9000E+01
       25  1    1    2    0    0 -.79385896E+02 -.77924340E+02 -.47062781E+03 0.49948960E+03 0.12500000E+03 0.0000E+00 0.9000E+01
      -24  1    1    2    0    0 0.13146739E+03 0.82895655E+02 -.45110246E+03 0.48385536E+03 0.80419002E+02 0.0000E+00 0.9000E+01
        2  1    1    2  501    0 -.52081494E+02 -.49713152E+01 -.22256684E+03 0.22863354E+03 0.32000000E+00 0.0000E+00 0.9000E+01
#aMCatNLO 1  0  0  5  1 0.20017948D+02 0.00000000D+00  -5  6  0 0.00000000D+00 0.00000000D+00 0.00000000D+00 0.00000000D+00 0.00000000D+00
  <mgrwgt>
 -.9424917081D-01    7    2    0
 0.199672238341492D+03 0.000000000000000D+00 0.000000000000000D+00 0.199672238341492D+03
 0.199672238341492D+03 -.000000000000000D+00 -.000000000000000D+00 -.199672238341492D+03
 0.167355611866375D+03 -.793855412834485D+02 -.779243062068647D+02 0.293924488286407D+01
 0.175856136478652D+03 0.131467762869376D+03 0.828956907993488D+02 0.173981767966649D+02
 0.561327283379579D+02 -.520822215859272D+02 -.497138459248403D+01 -.203374216795290D+02
 0.000000000000000D+00 -.000000000000000D+00 0.000000000000000D+00 0.000000000000000D+00
 0.199672238341492D+03 0.000000000000000D+00 0.000000000000000D+00 0.199672238341492D+03
 0.199672238341492D+03 -.000000000000000D+00 -.000000000000000D+00 -.199672238341492D+03
 0.170839997492511D+03 -.859688447622991D+02 -.785526997831335D+02 0.368551567241907D+00
 0.170317665680536D+03 0.124729156178527D+03 0.822524731243418D+02 0.147668396218828D+02
 0.322598308297444D+02 -.164929467276217D+02 -.132701944678863D+02 -.243429934927493D+02
 0.259269826801935D+02 -.222673646886059D+02 0.957042112667804D+01 0.920760230362462D+01
0.105524912869D-04 0.000000000000D+00 0.000000000000D+00 0.129814612749D-06 0.000000000000D+00  6 21 1 25 -24 2 21 2 0.52062609D-02 0.18125197D+00 0.38935603D+05 0.38935603D+05 0.38935603D+05 0.12031915D+01  1  2  2  3  6  5        2 0.513366011196D-01 0.100000000000D+01
-.417837952004D-06 0.556870264358D-06 -.213024396008D-07 0.129814612749D-06 0.000000000000D+00  6 21 1 25 -24 2 21 4 0.52062609D-02 0.18125197D+00 0.38935603D+05 0.38935603D+05 0.38935603D+05 0.12031915D+01  1  2  3  3  6  5        2 -.294272400757D-02 0.100000000000D+01
0.110973312760D-05 0.000000000000D+00 0.000000000000D+00 0.129814612749D-06 0.000000000000D+00  6 21 1 25 -24 2 21 4 0.52062609D-02 0.18125197D+00 0.38935603D+05 0.38935603D+05 0.38935603D+05 0.12031915D+01  1  2 15  3  6  5        2 0.781556175289D-02 0.100000000000D+01
0.436092581734D-05 0.000000000000D+00 0.000000000000D+00 0.130242653836D-06 0.000000000000D+00  6 21 1 25 -24 2 21 4 0.52062609D-02 0.18125197D+00 0.37233863D+05 0.37233863D+05 0.37233863D+05 0.12051736D+01  1  2 12  3  6  5        2 0.309405222746D-01 0.100000000000D+01
-.285504157780D-04 0.000000000000D+00 0.000000000000D+00 0.129814612749D-06 0.000000000000D+00  6 21 1 25 -24 2 21 4 0.52062609D-02 0.18125197D+00 0.38935603D+05 0.38935603D+05 0.38935603D+05 0.12031915D+01  1  2  4  3  6  5        2 -.201073151764D+00 0.100000000000D+01
-.289967656061D-05 0.000000000000D+00 0.000000000000D+00 0.129814612749D-06 0.000000000000D+00  6 21 1 25 -24 2 21 4 0.52062609D-02 0.18125197D+00 0.38935603D+05 0.38935603D+05 0.38935603D+05 0.12031915D+01  1  2  5  3  6  5        2 -.204216677499D-01 0.100000000000D+01
0.569319444619D-05 0.000000000000D+00 -.000000000000D+00 0.129814612749D-06 0.000000000000D+00  6 21 1 25 -24 2 21 4 0.52062609D-02 0.18125197D+00 0.38935603D+05 0.38935603D+05 0.38935603D+05 0.12031915D+01  1  2  6  3  6  5        2 0.400956875656D-01 0.100000000000D+01
  </mgrwgt>
  </event>
  <event>
  6     66 -.45631637E-03 0.19785633E+02 0.75467711E-02 0.12218326E+00
       21 -1    0    0  501  502 0.00000000E+00 0.00000000E+00 0.34830736E+02 0.34838810E+02 0.75000000E+00 0.0000E+00 0.9000E+01
        1 -1    0    0  502    0 -.00000000E+00 -.00000000E+00 -.63855714E+03 0.63855723E+03 0.32000000E+00 0.0000E+00 0.9000E+01
       25  1    1    2    0    0 -.74861331E+02 0.11864057E+01 -.39913055E+03 0.42489507E+03 0.12500000E+03 0.0000E+00 0.9000E+01
      -24  1    1    2    0    0 0.50256060E+02 0.74646719E+01 -.19633778E+03 0.21816767E+03 0.80419002E+02 0.0000E+00 0.9000E+01
        2  1    1    2  503    0 0.14083439E+02 -.99759870E+00 0.12844922E+01 0.14180648E+02 0.32000000E+00 0.0000E+00 0.9000E+01
       21  1    1    2  501  503 0.10521832E+02 -.76534790E+01 -.95425665E+01 0.16152640E+02 0.75000000E+00 0.0000E+00 0.9000E+01
#aMCatNLO 2  0  0  5  1 0.61633447D+01 0.00000000D+00  -5  6  0 0.00000000D+00 0.00000000D+00 0.00000000D+00 0.00000000D+00 0.00000000D+00
  <mgrwgt>
 -.9390807809D-01    1    2    0
 0.149144764486709D+03 0.000000000000000D+00 0.000000000000000D+00 0.149144764486709D+03
 0.149144764486709D+03 -.000000000000000D+00 -.000000000000000D+00 -.149144764486709D+03
 0.151797196406313D+03 -.752833776408856D+02 0.133479504811840D+01 -.418093316136027D+02
 0.950159295415867D+02 0.499913549076091D+02 0.755774071653384D+01 -.213445591295603D+01
 0.514764030255177D+02 0.252920227332765D+02 -.889253576465224D+01 0.439437875265587D+02
 0.000000000000000D+00 0.000000000000000D+00 -.000000000000000D+00 0.000000000000000D+00
 0.149144764486709D+03 0.000000000000000D+00 0.000000000000000D+00 0.149144764486709D+03
 0.149144764486709D+03 -.000000000000000D+00 -.000000000000000D+00 -.149144764486709D+03
 0.151386848322867D+03 -.748617061171664D+02 0.118653766494460D+01 -.410766957133536D+02
 0.951388030117440D+02 0.502558240880035D+02 0.746475481065725D+01 -.167495223493341D+01
 0.343370305876132D+02 0.139162543797899D+02 -.901519253426943D+00 0.313776480419958D+02
 0.174268470511936D+02 0.106896276493731D+02 -.774977322217491D+01 0.113739999062912D+02
-.467524913726D-05 0.000000000000D+00 0.000000000000D+00 0.163864385348D-05 0.000000000000D+00  6 21 1 25 -24 2 21 4 0.53592020D-02 0.98240188D-01 0.17953361D+05 0.17953361D+05 0.17953361D+05 0.12390212D+01  1  2 13  3  6  5        2 -.939080780869D-01 0.100000000000D+01
  </mgrwgt>
  </event>
  <event>
  5     66 0.45631637E-03 0.70988007E+02 0.75467711E-02 0.11486905E+00
       21 -1    0    0  501  502 0.00000000E+00 0.00000000E+00 0.47037456E+03 0.47037516E+03 0.75000000E+00 0.0000E+00 0.9000E+01
        1 -1    0    0  502    0 0.00000000E+00 0.00000000E+00 -.13021848E+03 0.13021887E+03 0.32000000E+00 0.0000E+00 0.9000E+01
       25  1    1    2    0    0 -.40679214E+02 -.18289768E+02 -.82650822E+01 0.13297603E+03 0.12500000E+03 0.0000E+00 0.9000E+01
      -24  1    1    2    0    0 0.91862047E+00 0.77097794E+02 -.63988842E+00 0.11141158E+03 0.80419002E+02 0.0000E+00 0.9000E+01
        2  1    1    2  501    0 0.39760593E+02 -.58808026E+02 0.34906105E+03 0.35620642E+03 0.32000000E+00 0.0000E+00 0.9000E+01
#aMCatNLO 1  0  0  5  1 0.95249156D+02 0.00000000D+00  -5  6  0 0.00000000D+00 0.00000000D+00 0.00000000D+00 0.00000000D+00 0.00000000D+00
  <mgrwgt>
 0.4922315226D-01    4    2    0
 0.247490919974508D+03 0.000000000000000D+00 0.000000000000000D+00 0.247490919974508D+03
 0.247490919974508D+03 -.000000000000000D+00 -.000000000000000D+00 -.247490919974508D+03
 0.167028461877625D+03 -.406792321459008D+02 -.182897409648684D+02 -.101411007906752D+03
 0.135622781241128D+03 0.918605391029326D+00 0.770978163540457D+02 -.773395481935458D+02
 0.192330596830262D+03 0.397606267548715D+02 -.588080753891773D+02 0.178750556100297D+03
 0.000000000000000D+00 0.000000000000000D+00 0.000000000000000D+00 -.000000000000000D+00
 0.247490919974508D+03 0.000000000000000D+00 0.000000000000000D+00 0.247490919974508D+03
 0.247490919974508D+03 -.000000000000000D+00 -.000000000000000D+00 -.247490919974508D+03
 0.146230109608855D+03 -.317583691278212D+02 -.314841704223837D+02 -.613057742743132D+02
 0.114116429181286D+03 0.803058727822846D+01 0.665788180100967D+02 -.453664426097328D+02
 0.138285032552650D+03 0.357698665080187D+02 0.596315245941423D+02 0.119529695693849D+03
 0.963502686062250D+02 -.120420846584260D+02 -.947261721818552D+02 -.128574788098032D+02
0.687202880974D-04 0.000000000000D+00 0.000000000000D+00 0.187972626887D-05 0.000000000000D+00  6 21 1 25 -24 2 21 2 0.72365393D-01 0.20033688D-01 0.24824632D+05 0.24824632D+05 0.24824632D+05 0.12236255D+01  1  2  2  3  6  5        2 0.490732964384D-01 0.100000000000D+01
0.317027779755D-05 0.362646923451D-05 -.138726462476D-06 0.187972626887D-05 0.000000000000D+00  6 21 1 25 -24 2 21 4 0.72365393D-01 0.20033688D-01 0.24824632D+05 0.24824632D+05 0.24824632D+05 0.12236255D+01  1  2  3  3  6  5        2 0.338964839073D-02 0.100000000000D+01
0.656556501654D-05 0.000000000000D+00 0.000000000000D+00 0.187972626887D-05 0.000000000000D+00  6 21 1 25 -24 2 21 4 0.72365393D-01 0.20033688D-01 0.24824632D+05 0.24824632D+05 0.24824632D+05 0.12236255D+01  1  2 15  3  6  5        2 0.701987595843D-02 0.100000000000D+01
-.959568533629D-05 0.000000000000D+00 0.000000000000D+00 0.187972626887D-05 0.000000000000D+00  6 21 1 25 -24 2 21 4 0.72365393D-01 0.20033688D-01 0.24824632D+05 0.24824632D+05 0.24824632D+05 0.12236255D+01  1  2  4  3  6  5        2 -.102596685323D-01 0.100000000000D+01
  </mgrwgt>
  </event>
  <event>
  5     66 0.45631637E-03 0.12188421E+03 0.75467711E-02 0.11453878E+00
       21 -1    0    0  501  502 0.00000000E+00 0.00000000E+00 0.10722886E+03 0.10723148E+03 0.75000000E+00 0.0000E+00 0.9000E+01
        3 -1    0    0  502    0 -.00000000E+00 -.00000000E+00 -.45993875E+03 0.45993903E+03 0.50000000E+00 0.0000E+00 0.9000E+01
       25  1    1    2    0    0 0.43240252E+02 0.15049693E+03 -.24152867E+03 0.31381547E+03 0.12500000E+03 0.0000E+00 0.9000E+01
      -24  1    1    2    0    0 0.10276086E+00 -.36584696E+02 -.96092695E+02 0.13053533E+03 0.80419002E+02 0.0000E+00 0.9000E+01
        4  1    1    2  501    0 -.43343013E+02 -.11391224E+03 -.15088527E+02 0.12281971E+03 0.15500000E+01 0.0000E+00 0.9000E+01
#aMCatNLO 1  0  0  5  1 0.24830365D+02 0.00000000D+00  -5  6  0 0.00000000D+00 0.00000000D+00 0.00000000D+00 0.00000000D+00 0.00000000D+00
  <mgrwgt>
 0.2746647780D-02    7    2    0
 0.222080003334447D+03 0.000000000000000D+00 0.000000000000000D+00 0.222080003334447D+03
 0.222080003334447D+03 -.000000000000000D+00 -.000000000000000D+00 -.222080003334447D+03
 0.208930736638093D+03 0.432414191233052D+02 0.150500001950176D+03 -.592197753907912D+02
 0.903791231680518D+02 0.103265837587763D+00 -.365833688032858D+02 -.190477403758271D+02
 0.144850146862749D+03 -.433446849608930D+02 -.113916633146890D+03 0.782675157666183D+02
 0.000000000000000D+00 0.000000000000000D+00 -.000000000000000D+00 0.000000000000000D+00
 0.222080003334447D+03 0.000000000000000D+00 0.000000000000000D+00 0.222080003334447D+03
 0.222080003334447D+03 -.000000000000000D+00 -.000000000000000D+00 -.222080003334447D+03
 0.205614439672679D+03 0.419651552950271D+02 0.147145780355169D+03 -.569152252621595D+02
 0.907778981498084D+02 -.454463854515266D+00 -.380491699456347D+02 -.180406476374770D+02
 0.586204127431498D+02 -.311358255818860D+02 -.270577940870556D+02 0.416507975272276D+02
 0.891472561032570D+02 -.103748658586258D+02 -.820388163224785D+02 0.333050753724090D+02
0.420820973973D-05 0.000000000000D+00 0.000000000000D+00 0.201203770265D-06 0.000000000000D+00  6 21 3 25 -24 4 21 2 0.16496970D-01 0.70760031D-01 0.42147206D+05 0.42147206D+05 0.42147206D+05 0.11997010D+01  1  2  2  3  6  5        4 0.192059391027D-02 0.100000000000D+01
-.214291805606D-06 0.222073329086D-06 -.849516302554D-08 0.201203770265D-06 0.000000000000D+00  6 21 3 25 -24 4 21 4 0.16496970D-01 0.70760031D-01 0.42147206D+05 0.42147206D+05 0.42147206D+05 0.11997010D+01  1  2  3  3  6  5        4 -.140763409401D-03 0.100000000000D+01
0.423285543312D-06 0.000000000000D+00 0.000000000000D+00 0.201203770265D-06 0.000000000000D+00  6 21 3 25 -24 4 21 4 0.16496970D-01 0.70760031D-01 0.42147206D+05 0.42147206D+05 0.42147206D+05 0.11997010D+01  1  2 15  3  6  5        4 0.278046638593D-03 0.100000000000D+01
0.315923040818D-05 0.000000000000D+00 0.000000000000D+00 0.201211364582D-06 0.000000000000D+00  6 21 3 25 -24 4 21 4 0.16496970D-01 0.70760031D-01 0.42125447D+05 0.42125447D+05 0.42125447D+05 0.11997236D+01  1  2 12  3  6  5        4 0.207537938298D-02 0.100000000000D+01
-.437894624710D-05 0.000000000000D+00 0.000000000000D+00 0.201203770265D-06 0.000000000000D+00  6 21 3 25 -24 4 21 4 0.16496970D-01 0.70760031D-01 0.42147206D+05 0.42147206D+05 0.42147206D+05 0.11997010D+01  1  2  4  3  6  5        4 -.287643011632D-02 0.100000000000D+01
-.305526004891D-05 0.000000000000D+00 0.000000000000D+00 0.201203770265D-06 0.000000000000D+00  6 21 3 25 -24 4 21 4 0.16496970D-01 0.70760031D-01 0.42147206D+05 0.42147206D+05 0.42147206D+05 0.11997010D+01  1  2  5  3  6  5        4 -.200693078241D-02 0.100000000000D+01
0.532329627812D-05 0.000000000000D+00 -.000000000000D+00 0.201203770265D-06 0.000000000000D+00  6 21 3 25 -24 4 21 4 0.16496970D-01 0.70760031D-01 0.42147206D+05 0.42147206D+05 0.42147206D+05 0.11997010D+01  1  2  6  3  6  5        4 0.349675215643D-02 0.100000000000D+01
  </mgrwgt>
  </event>
  <event>
  5     66 0.45631637E-03 0.21826340E+02 0.75467711E-02 0.12457527E+00
       21 -1    0    0  501  502 0.00000000E+00 0.00000000E+00 0.93081618E+01 0.93383283E+01 0.75000000E+00 0.0000E+00 0.9000E+01
        1 -1    0    0  502    0 0.00000000E+00 0.00000000E+00 -.15004299E+04 0.15004300E+04 0.32000000E+00 0.0000E+00 0.9000E+01
       25  1    1    2    0    0 0.96921208E+00 0.34424138E+02 -.72325231E+03 0.73478219E+03 0.12500000E+03 0.0000E+00 0.9000E+01
      -24  1    1    2    0    0 0.45587042E+01 -.13311566E+02 -.65064150E+03 0.65574351E+03 0.80419002E+02 0.0000E+00 0.9000E+01
        2  1    1    2  501    0 -.55279163E+01 -.21112572E+02 -.11722797E+03 0.11924260E+03 0.32000000E+00 0.0000E+00 0.9000E+01
#aMCatNLO 1  0  0  1  2 0.36504046D+01 0.00000000D+00  -5  6  0 0.00000000D+00 0.00000000D+00 0.00000000D+00 0.00000000D+00 0.00000000D+00
  <mgrwgt>
 0.1366192500D+00   32    2    0
 0.118275282511531D+03 0.000000000000000D+00 0.000000000000000D+00 0.118275282511531D+03
 0.118275282511531D+03 0.000000000000000D+00 0.000000000000000D+00 -.118275282511531D+03
 0.130600651724406D+03 0.969532103173176D+00 0.344253600390594D+02 0.156679553395358D+02
 0.838511743944498D+02 0.455890966086154D+01 -.133107808444482D+02 -.191270214349511D+02
 0.220987389042063D+02 -.552844176403472D+01 -.211145791946112D+02 0.345906609541536D+01
 0.000000000000000D+00 0.000000000000000D+00 0.000000000000000D+00 0.000000000000000D+00
 0.122072520688133D+03 0.000000000000000D+00 0.000000000000000D+00 0.122072520688133D+03
 0.119169942635340D+03 0.000000000000000D+00 0.000000000000000D+00 -.119169942635340D+03
 0.130085659158591D+03 0.795137241335751D+00 0.324216232007418D+02 0.156679553395358D+02
 0.840596938693632D+02 0.444658004687957D+01 -.146014093824580D+02 -.191270214349511D+02
 0.224333765025535D+02 -.555823301808018D+01 -.214568704327912D+02 0.345906609541536D+01
 0.466373379296546D+01 0.316515729864855D+00 0.363665661450745D+01 0.290257805279295D+01
0.753727647087D-06 0.000000000000D+00 0.000000000000D+00 0.109852612175D-05 0.000000000000D+00  6 21 1 25 -24 2 21 2 0.14343480D-02 0.23083770D+00 0.13586733D+05 0.13586733D+05 0.13586733D+05 0.12527518D+01  1  2  2  1  6  1       21 0.201741760297D-01 0.100000000000D+01
0.294964767941D-07 0.397753007015D-07 -.152155896091D-08 0.109852612175D-05 0.000000000000D+00  6 21 1 25 -24 2 21 4 0.14343480D-02 0.23083770D+00 0.13586733D+05 0.13586733D+05 0.13586733D+05 0.12527518D+01  1  2  3  1  6  1       21 0.123902936505D-02 0.100000000000D+01
0.759581782444D-07 0.000000000000D+00 0.000000000000D+00 0.109852612175D-05 0.000000000000D+00  6 21 1 25 -24 2 21 4 0.14343480D-02 0.23083770D+00 0.13586733D+05 0.13586733D+05 0.13586733D+05 0.12527518D+01  1  2 15  1  6  1       21 0.319070016454D-02 0.100000000000D+01
0.136522682338D-06 0.000000000000D+00 0.000000000000D+00 0.109577651335D-05 0.000000000000D+00  6 21 1 25 -24 2 21 4 0.14857122D-02 0.23083770D+00 0.14019607D+05 0.14019607D+05 0.14019607D+05 0.12511830D+01  1  2 12  1  6  1       21 0.539651786658D-02 0.100000000000D+01
-.514842553622D-05 0.000000000000D+00 0.000000000000D+00 0.109852612175D-05 0.000000000000D+00  6 21 1 25 -24 2 21 4 0.14343480D-02 0.23083770D+00 0.13586733D+05 0.13586733D+05 0.13586733D+05 0.12527518D+01  1  2  4  1  6  1       21 -.216264826056D+00 0.100000000000D+01
-.497982903410D-04 0.000000000000D+00 -.597777348474D-05 0.109852612175D-05 0.000000000000D+00  6 21 1 25 -24 2 21 4 0.14923168D-02 0.23083770D+00 0.13586733D+05 0.13586733D+05 0.13586733D+05 0.12527518D+01  1  2  5  1  6  1       21 -.196396372378D+01 0.100000000000D+01
0.498835922509D-04 0.000000000000D+00 0.595904854710D-05 0.109852612175D-05 0.000000000000D+00  6 21 1 25 -24 2 21 4 0.14343480D-02 0.23083770D+00 0.13586733D+05 0.13586733D+05 0.13586733D+05 0.12527518D+01  1  2  6  1  6  1       21 0.209541078632D+01 0.100000000000D+01
0.494984278162D-05 0.000000000000D+00 0.000000000000D+00 0.109852612175D-05 0.106363642090D-05  6 21 1 25 -24 2 21 4 0.14803979D-02 0.23258381D+00 0.14019607D+05 0.14019607D+05 0.14019607D+05 0.12511830D+01  1  2 11  1  6  1       21 0.193493285200D+00 0.100000000000D+01
0.402085630547D-08 0.000000000000D+00 0.000000000000D+00 0.109577651335D-05 0.000000000000D+00  6 -1 1 25 -24 2 -1 4 0.14857122D-02 0.23083770D+00 0.14019607D+05 0.14019607D+05 0.14019607D+05 0.12511830D+01  1  2 12  4  6  1       21 0.724915154963D-05 0.100000000000D+01
-.410850180460D-06 0.000000000000D+00 -.557654629400D-07 0.109852612175D-05 0.000000000000D+00  6 -1 1 25 -24 2 -1 4 0.14923168D-02 0.23083770D+00 0.13586733D+05 0.13586733D+05 0.13586733D+05 0.12527518D+01  1  2  5  4  6  1       21 -.739232643040D-03 0.100000000000D+01
0.121489435181D-06 0.000000000000D+00 0.000000000000D+00 0.109852612175D-05 0.103854885962D-07  6 -1 1 25 -24 2 -1 4 0.14803979D-02 0.23258381D+00 0.14019607D+05 0.14019607D+05 0.14019607D+05 0.12511830D+01  1  2 11  4  6  1       21 0.216479974403D-03 0.100000000000D+01
0.402085630547D-08 0.000000000000D+00 0.000000000000D+00 0.109577651335D-05 0.000000000000D+00  6 1 1 25 -24 2 1 4 0.14857122D-02 0.23083770D+00 0.14019607D+05 0.14019607D+05 0.14019607D+05 0.12511830D+01  1  2 12  5  6  1       21 0.752711571616D-05 0.100000000000D+01
-.410850180460D-06 0.000000000000D+00 -.557654629400D-07 0.109852612175D-05 0.000000000000D+00  6 1 1 25 -24 2 1 4 0.14923168D-02 0.23083770D+00 0.13586733D+05 0.13586733D+05 0.13586733D+05 0.12527518D+01  1  2  5  5  6  1       21 -.767727699187D-03 0.100000000000D+01
0.124105042199D-06 0.000000000000D+00 0.000000000000D+00 0.109852612175D-05 0.118442477985D-07  6 1 1 25 -24 2 1 4 0.14803979D-02 0.23258381D+00 0.14019607D+05 0.14019607D+05 0.14019607D+05 0.12511830D+01  1  2 11  5  6  1       21 0.229590319840D-03 0.100000000000D+01
0.402085630547D-08 0.000000000000D+00 0.000000000000D+00 0.109577651335D-05 0.000000000000D+00  6 -2 1 25 -24 2 -2 4 0.14857122D-02 0.23083770D+00 0.14019607D+05 0.14019607D+05 0.14019607D+05 0.12511830D+01  1  2 12  6  6  1       21 0.719984418889D-05 0.100000000000D+01
-.410850180460D-06 0.000000000000D+00 -.557654629400D-07 0.109852612175D-05 0.000000000000D+00  6 -2 1 25 -24 2 -2 4 0.14923168D-02 0.23083770D+00 0.13586733D+05 0.13586733D+05 0.13586733D+05 0.12527518D+01  1  2  5  6  6  1       21 -.734176765723D-03 0.100000000000D+01
0.102552041061D-05 0.000000000000D+00 0.000000000000D+00 0.109852612175D-05 0.207681177359D-06  6 -2 1 25 -24 2 -2 4 0.14803979D-02 0.23258381D+00 0.14019607D+05 0.14019607D+05 0.14019607D+05 0.12511830D+01  1  2 11  6  6  1       21 0.181497445939D-02 0.100000000000D+01
0.402085630547D-08 0.000000000000D+00 0.000000000000D+00 0.109577651335D-05 0.000000000000D+00  6 2 1 25 -24 2 2 4 0.14857122D-02 0.23083770D+00 0.14019607D+05 0.14019607D+05 0.14019607D+05 0.12511830D+01  1  2 12  7  6  1       21 0.771968386503D-05 0.100000000000D+01
-.410850180460D-06 0.000000000000D+00 -.557654629400D-07 0.109852612175D-05 0.000000000000D+00  6 2 1 25 -24 2 2 4 0.14923168D-02 0.23083770D+00 0.13586733D+05 0.13586733D+05 0.13586733D+05 0.12527518D+01  1  2  5  7  6  1       21 -.787465834472D-03 0.100000000000D+01
0.119534302735D-06 0.000000000000D+00 0.000000000000D+00 0.109852612175D-05 0.525365430554D-08  6 2 1 25 -24 2 2 4 0.14803979D-02 0.23258381D+00 0.14019607D+05 0.14019607D+05 0.14019607D+05 0.12511830D+01  1  2 11  7  6  1       21 0.226773219578D-03 0.100000000000D+01
0.402085630547D-08 0.000000000000D+00 0.000000000000D+00 0.109577651335D-05 0.000000000000D+00  6 -3 1 25 -24 2 -3 4 0.14857122D-02 0.23083770D+00 0.14019607D+05 0.14019607D+05 0.14019607D+05 0.12511830D+01  1  2 12  8  6  1       21 0.569591173640D-05 0.100000000000D+01
0.402085630547D-08 0.000000000000D+00 0.000000000000D+00 0.109577651335D-05 0.000000000000D+00  6 -4 1 25 -24 2 -4 4 0.14857122D-02 0.23083770D+00 0.14019607D+05 0.14019607D+05 0.14019607D+05 0.12511830D+01  1  2 12  8  6  1       21 0.518466631217D-05 0.100000000000D+01
-.410850180460D-06 0.000000000000D+00 -.557654629400D-07 0.109852612175D-05 0.000000000000D+00  6 -3 1 25 -24 2 -3 4 0.14923168D-02 0.23083770D+00 0.13586733D+05 0.13586733D+05 0.13586733D+05 0.12527518D+01  1  2  5  8  6  1       21 -.580262488017D-03 0.100000000000D+01
-.410850180460D-06 0.000000000000D+00 -.557654629400D-07 0.109852612175D-05 0.000000000000D+00  6 -4 1 25 -24 2 -4 4 0.14923168D-02 0.23083770D+00 0.13586733D+05 0.13586733D+05 0.13586733D+05 0.12527518D+01  1  2  5  8  6  1       21 -.527972354872D-03 0.100000000000D+01
0.121310322058D-06 0.000000000000D+00 0.000000000000D+00 0.109852612175D-05 0.103701771636D-07  6 -3 1 25 -24 2 -3 4 0.14803979D-02 0.23258381D+00 0.14019607D+05 0.14019607D+05 0.14019607D+05 0.12511830D+01  1  2 11  8  6  1       21 0.169890883181D-03 0.100000000000D+01
0.121310322058D-06 0.000000000000D+00 0.000000000000D+00 0.109852612175D-05 0.103701771636D-07  6 -4 1 25 -24 2 -4 4 0.14803979D-02 0.23258381D+00 0.14019607D+05 0.14019607D+05 0.14019607D+05 0.12511830D+01  1  2 11  8  6  1       21 0.154650604015D-03 0.100000000000D+01
0.402085630547D-08 0.000000000000D+00 0.000000000000D+00 0.109577651335D-05 0.000000000000D+00  6 3 1 25 -24 2 3 4 0.14857122D-02 0.23083770D+00 0.14019607D+05 0.14019607D+05 0.14019607D+05 0.12511830D+01  1  2 12  9  6  1       21 0.569563820440D-05 0.100000000000D+01
0.402085630547D-08 0.000000000000D+00 0.000000000000D+00 0.109577651335D-05 0.000000000000D+00  6 4 1 25 -24 2 4 4 0.14857122D-02 0.23083770D+00 0.14019607D+05 0.14019607D+05 0.14019607D+05 0.12511830D+01  1  2 12  9  6  1       21 0.518466631217D-05 0.100000000000D+01
-.410850180460D-06 0.000000000000D+00 -.557654629400D-07 0.109852612175D-05 0.000000000000D+00  6 3 1 25 -24 2 3 4 0.14923168D-02 0.23083770D+00 0.13586733D+05 0.13586733D+05 0.13586733D+05 0.12527518D+01  1  2  5  9  6  1       21 -.580234457435D-03 0.100000000000D+01
-.410850180460D-06 0.000000000000D+00 -.557654629400D-07 0.109852612175D-05 0.000000000000D+00  6 4 1 25 -24 2 4 4 0.14923168D-02 0.23083770D+00 0.13586733D+05 0.13586733D+05 0.13586733D+05 0.12527518D+01  1  2  5  9  6  1       21 -.527972354872D-03 0.100000000000D+01
0.121310322058D-06 0.000000000000D+00 0.000000000000D+00 0.109852612175D-05 0.103701771636D-07  6 3 1 25 -24 2 3 4 0.14803979D-02 0.23258381D+00 0.14019607D+05 0.14019607D+05 0.14019607D+05 0.12511830D+01  1  2 11  9  6  1       21 0.169882744907D-03 0.100000000000D+01
0.121310322058D-06 0.000000000000D+00 0.000000000000D+00 0.109852612175D-05 0.103701771636D-07  6 4 1 25 -24 2 4 4 0.14803979D-02 0.23258381D+00 0.14019607D+05 0.14019607D+05 0.14019607D+05 0.12511830D+01  1  2 11  9  6  1       21 0.154650604015D-03 0.100000000000D+01
  </mgrwgt>
  </event>
  <event>
  5     66 -.45631637E-03 0.40684576E+02 0.75467711E-02 0.11751132E+00
       21 -1    0    0  501  502 0.00000000E+00 0.00000000E+00 0.85190282E+03 0.85190315E+03 0.75000000E+00 0.0000E+00 0.9000E+01
        3 -1    0    0  502    0 0.00000000E+00 0.00000000E+00 -.41228837E+02 0.41231868E+02 0.50000000E+00 0.0000E+00 0.9000E+01
       25  1    1    2    0    0 0.18737856E+02 0.74555488E+01 0.16368857E+03 0.20694357E+03 0.12500000E+03 0.0000E+00 0.9000E+01
      -24  1    1    2    0    0 -.53714425E+02 -.28232666E+02 0.11597253E+03 0.15362020E+03 0.80419002E+02 0.0000E+00 0.9000E+01
        4  1    1    2  501    0 0.34976570E+02 0.20777118E+02 0.53101288E+03 0.53257124E+03 0.15500000E+01 0.0000E+00 0.9000E+01
#aMCatNLO 1  0  0  2  1 0.72983332D+01 0.00000000D+00  -5  6  0 0.00000000D+00 0.00000000D+00 0.00000000D+00 0.00000000D+00 0.00000000D+00
  <mgrwgt>
 -.8525074413D-01    7    2    0
 0.187415216442816D+03 0.000000000000000D+00 0.000000000000000D+00 0.187415216442816D+03
 0.187415216442816D+03 0.000000000000000D+00 0.000000000000000D+00 -.187415216442816D+03
 0.139078768388570D+03 0.187367825615242D+02 0.745491131825036D+01 -.575435582229733D+02
 0.115221162416155D+03 -.537153145254423D+02 -.282331945481695D+02 -.559128967698645D+02
 0.120530502080907D+03 0.349785319639181D+02 0.207782832299191D+02 0.113456454992838D+03
 0.000000000000000D+00 -.000000000000000D+00 0.000000000000000D+00 -.000000000000000D+00
 0.199101484200915D+03 0.000000000000000D+00 0.000000000000000D+00 0.199101484200915D+03
 0.314071832602624D+03 0.000000000000000D+00 0.000000000000000D+00 -.314071832602624D+03
 0.142347015790258D+03 0.346143339013813D+02 -.113251799100421D+02 -.575435582229733D+02
 0.114683820236621D+03 -.407444768461241D+02 -.435752022489086D+02 -.559128967698645D+02
 0.123568186461181D+03 0.487501537455812D+02 0.448910186402841D+01 0.113456454992838D+03
 0.132574294315479D+03 -.426200108008383D+02 0.504112802949223D+02 -.114970348401710D+03
0.330749448960D-04 0.000000000000D+00 0.000000000000D+00 0.260476057764D-05 0.000000000000D+00  6 21 3 25 -24 4 21 2 0.13106223D+00 0.63431566D-02 0.17962197D+05 0.17962197D+05 0.17962197D+05 0.12389974D+01  1  2  2  2  6  2        3 0.164887446481D-01 0.100000000000D+01
0.299247674685D-05 0.174541279467D-05 -.667687844310D-07 0.260476057764D-05 0.000000000000D+00  6 21 3 25 -24 4 21 4 0.13106223D+00 0.63431566D-02 0.17962197D+05 0.17962197D+05 0.17962197D+05 0.12389974D+01  1  2  3  2  6  2        3 0.229012944752D-02 0.100000000000D+01
0.300755042003D-05 0.000000000000D+00 0.000000000000D+00 0.260476057764D-05 0.000000000000D+00  6 21 3 25 -24 4 21 4 0.13106223D+00 0.63431566D-02 0.17962197D+05 0.17962197D+05 0.17962197D+05 0.12389974D+01  1  2 15  2  6  2        3 0.230166526409D-02 0.100000000000D+01
-.162910652525D-03 0.000000000000D+00 0.000000000000D+00 0.260476057764D-05 0.000000000000D+00  6 21 3 25 -24 4 21 4 0.13106223D+00 0.63431566D-02 0.17962197D+05 0.17962197D+05 0.17962197D+05 0.12389974D+01  1  2  4  2  6  2        3 -.124674814284D+00 0.100000000000D+01
-.172904946997D-03 0.000000000000D+00 -.381349066983D-04 0.260476057764D-05 0.000000000000D+00  6 21 3 25 -24 4 21 4 0.13106223D+00 0.11254172D-01 0.17962197D+05 0.17962197D+05 0.17962197D+05 0.12389974D+01  1  2  5  2  6  2        3 -.518788977351D-01 0.100000000000D+01
0.171337836590D-03 0.000000000000D+00 0.326239161178D-04 0.260476057764D-05 0.000000000000D+00  6 21 3 25 -24 4 21 4 0.13106223D+00 0.63431566D-02 0.17962197D+05 0.17962197D+05 0.17962197D+05 0.12389974D+01  1  2  6  2  6  2        3 0.131124101620D+00 0.100000000000D+01
-.892837650239D-05 0.000000000000D+00 -.240629951610D-05 0.260476057764D-05 0.000000000000D+00  6 21 21 25 -24 4 -3 4 0.13106223D+00 0.11254172D-01 0.17962197D+05 0.17962197D+05 0.17962197D+05 0.12389974D+01  1  2  5 10  6  2        3 -.609016730893D-01 0.100000000000D+01
  </mgrwgt>
  </event>
  <event>
  5     66 -.45631637E-03 0.48503195E+02 0.75467711E-02 0.12048736E+00
       21 -1    0    0  501  502 0.00000000E+00 0.00000000E+00 0.13551290E+02 0.13572029E+02 0.75000000E+00 0.0000E+00 0.9000E+01
        1 -1    0    0  502    0 -.00000000E+00 -.00000000E+00 -.16817904E+04 0.16817904E+04 0.32000000E+00 0.0000E+00 0.9000E+01
       25  1    1    2    0    0 0.77416852E+02 0.20383851E+02 -.10032725E+04 0.10141941E+04 0.12500000E+03 0.0000E+00 0.9000E+01
      -24  1    1    2    0    0 -.51279613E+02 0.20473620E+02 -.48925616E+03 0.49888633E+03 0.80419002E+02 0.0000E+00 0.9000E+01
        2  1    1    2  501    0 -.26137239E+02 -.40857471E+02 -.17571040E+03 0.18228202E+03 0.32000000E+00 0.0000E+00 0.9000E+01
#aMCatNLO 1  0  0  5  1 0.61510999D+01 0.00000000D+00  -5  6  0 0.00000000D+00 0.00000000D+00 0.00000000D+00 0.00000000D+00 0.00000000D+00
  <mgrwgt>
 -.2320438226D+00    8    2    0
 0.151023290394746D+03 0.000000000000000D+00 0.000000000000000D+00 0.151023290394746D+03
 0.151023290394746D+03 -.000000000000000D+00 -.000000000000000D+00 -.151023290394746D+03
 0.151394419653442D+03 0.774170938081751D+02 0.203842291868672D+02 -.297715819021448D+02
 0.979878240891708D+02 -.512794564697569D+02 0.204738646693180D+02 0.925396806934816D+01
 0.526643370468791D+02 -.261376373384182D+02 -.408580938561852D+02 0.205176138327966D+02
 0.000000000000000D+00 0.000000000000000D+00 0.000000000000000D+00 0.000000000000000D+00
 0.151023290394746D+03 0.000000000000000D+00 0.000000000000000D+00 0.151023290394746D+03
 0.151023290394746D+03 -.000000000000000D+00 -.000000000000000D+00 -.151023290394746D+03
 0.150968885255461D+03 0.769284635209010D+02 0.196204071979121D+02 -.293880151929013D+02
 0.980756792525431D+02 -.515963023449225D+02 0.199785743591096D+02 0.950268685088879D+01
 0.135361005031935D+02 -.901940178590250D+01 -.100753071610383D+02 -.603816087681778D+00
 0.394659157782943D+02 -.163127593900760D+02 -.295236743959833D+02 0.204891444296942D+02
0.320848984352D-05 0.000000000000D+00 0.000000000000D+00 0.449138311162D-06 0.000000000000D+00  6 21 1 25 -24 2 21 2 0.20864115D-02 0.25873858D+00 0.21681289D+05 0.21681289D+05 0.21681289D+05 0.12299854D+01  1  2  2  3  6  5        2 0.347010586714D-01 0.100000000000D+01
-.521522222071D-07 0.169316660755D-06 -.647701658717D-08 0.449138311162D-06 0.000000000000D+00  6 21 1 25 -24 2 21 4 0.20864115D-02 0.25873858D+00 0.21681289D+05 0.21681289D+05 0.21681289D+05 0.12299854D+01  1  2  3  3  6  5        2 -.853325558444D-03 0.100000000000D+01
0.283024776302D-06 0.000000000000D+00 0.000000000000D+00 0.449138311162D-06 0.000000000000D+00  6 21 1 25 -24 2 21 4 0.20864115D-02 0.25873858D+00 0.21681289D+05 0.21681289D+05 0.21681289D+05 0.12299854D+01  1  2 15  3  6  5        2 0.463091053593D-02 0.100000000000D+01
0.196351271012D-05 0.000000000000D+00 0.000000000000D+00 0.449501962071D-06 0.000000000000D+00  6 21 1 25 -24 2 21 4 0.20864115D-02 0.25873858D+00 0.21454683D+05 0.21454683D+05 0.21454683D+05 0.12304832D+01  1  2 12  3  6  5        2 0.321815930375D-01 0.100000000000D+01
-.226099272964D-04 0.000000000000D+00 0.000000000000D+00 0.449138311162D-06 0.000000000000D+00  6 21 1 25 -24 2 21 4 0.20864115D-02 0.25873858D+00 0.21681289D+05 0.21681289D+05 0.21681289D+05 0.12299854D+01  1  2  4  3  6  5        2 -.369948355411D+00 0.100000000000D+01
-.230052092765D-05 0.000000000000D+00 0.000000000000D+00 0.449138311162D-06 0.000000000000D+00  6 21 1 25 -24 2 21 4 0.20864115D-02 0.25873858D+00 0.21681289D+05 0.21681289D+05 0.21681289D+05 0.12299854D+01  1  2  5  3  6  5        2 -.376416041775D-01 0.100000000000D+01
0.549818091095D-05 0.000000000000D+00 -.000000000000D+00 0.449138311162D-06 0.000000000000D+00  6 21 1 25 -24 2 21 4 0.20864115D-02 0.25873858D+00 0.21681289D+05 0.21681289D+05 0.21681289D+05 0.12299854D+01  1  2  6  3  6  5        2 0.899623850664D-01 0.100000000000D+01
0.910536396559D-06 0.000000000000D+00 0.000000000000D+00 0.449138311162D-06 0.280037559650D-07  6 21 1 25 -24 2 21 4 0.20864115D-02 0.25873858D+00 0.21454683D+05 0.21454683D+05 0.21454683D+05 0.12304832D+01  1  2 11  3  6  5        2 0.149235151924D-01 0.100000000000D+01
  </mgrwgt>
  </event>
  <event>
  6     66 -.45631637E-03 0.16422645E+02 0.75467711E-02 0.12276903E+00
       21 -1    0    0  503  502 0.00000000E+00 0.00000000E+00 0.26391960E+03 0.26392066E+03 0.75000000E+00 0.0000E+00 0.9000E+01
        3 -1    0    0  502    0 0.00000000E+00 0.00000000E+00 -.92395017E+02 0.92396370E+02 0.50000000E+00 0.0000E+00 0.9000E+01
       25  1    1    2    0    0 0.38701886E+02 -.47746038E+02 -.39698216E+01 0.13934949E+03 0.12500000E+03 0.0000E+00 0.9000E+01
      -24  1    1    2    0    0 -.18180772E+02 0.43437963E+02 0.11917184E+03 0.15128298E+03 0.80419002E+02 0.0000E+00 0.9000E+01
        4  1    1    2  501    0 -.19763603E+02 -.28340926E+01 0.18780697E+02 0.27454492E+02 0.15500000E+01 0.0000E+00 0.9000E+01
       21  1    1    2  503  501 -.75751172E+00 0.71421677E+01 0.37541860E+02 0.38230068E+02 0.75000000E+00 0.0000E+00 0.9000E+01
#aMCatNLO 2  0  0  1  5 0.71822269D+01 0.00000000D+00  -5  6  0 0.00000000D+00 0.00000000D+00 0.00000000D+00 0.00000000D+00 0.00000000D+00
  <mgrwgt>
 -.4397859947D-01    3    2    0
 0.144201562906498D+03 0.000000000000000D+00 0.000000000000000D+00 0.144201562906498D+03
 0.144201562906498D+03 0.000000000000000D+00 0.000000000000000D+00 -.144201562906498D+03
 0.154263087099755D+03 0.383227358479568D+02 -.439081469653421D+02 -.691053007282661D+02
 0.112607139023786D+03 -.184548714516491D+02 0.462143588090377D+02 0.611293919839242D+02
 0.215328996894553D+02 -.198678643963077D+02 -.230621184369560D+01 0.797590874434191D+01
 0.000000000000000D+00 -.000000000000000D+00 0.000000000000000D+00 0.000000000000000D+00
 0.168416960983028D+03 0.000000000000000D+00 0.000000000000000D+00 0.168416960983028D+03
 0.144779814235467D+03 0.000000000000000D+00 0.000000000000000D+00 -.144779814235467D+03
 0.155498937231242D+03 0.387294790032970D+02 -.477431078527027D+02 -.691053007282661D+02
 0.111449102096501D+03 -.181606670775534D+02 0.434404651301043D+02 0.611293919839242D+02
 0.215445036646565D+02 -.198113002031922D+02 -.283952498093011D+01 0.797590874434191D+01
 0.247042322260953D+02 -.757511722551347D+00 0.714216770352851D+01 0.236371467475607D+02
-.399316451656D-04 0.000000000000D+00 0.000000000000D+00 0.797950710843D-06 0.000000000000D+00  6 21 3 25 -24 4 21 4 0.40664000D-01 0.14157476D-01 0.16858958D+05 0.16858958D+05 0.16858958D+05 0.12420793D+01  1  2 13  1  6  1       21 -.109844400394D+00 0.100000000000D+01
-.317156276181D-04 0.000000000000D+00 0.000000000000D+00 0.797950710843D-06 0.000000000000D+00  6 21 3 25 -24 4 21 4 0.42128532D-01 0.14157476D-01 0.16858958D+05 0.16858958D+05 0.16858958D+05 0.12420793D+01  1  2 13  1  6  1       21 -.812572289264D-01 0.100000000000D+01
0.536831261083D-04 0.000000000000D+00 0.000000000000D+00 0.801490219781D-06 0.278684615767D-06  6 21 3 25 -24 4 21 4 0.40601610D-01 0.14214247D-01 0.16858958D+05 0.16858958D+05 0.16858958D+05 0.12420793D+01  1  2  1  1  6  1       21 0.147123029853D+00 0.100000000000D+01
  </mgrwgt>
  </event>
  <event>
  5     66 0.45631637E-03 0.29716185E+02 0.75467711E-02 0.12190842E+00
       21 -1    0    0  501  502 0.00000000E+00 0.00000000E+00 0.14156329E+02 0.14176182E+02 0.75000000E+00 0.0000E+00 0.9000E+01
        1 -1    0    0  502    0 0.00000000E+00 0.00000000E+00 -.14095040E+04 0.14095040E+04 0.32000000E+00 0.0000E+00 0.9000E+01
       25  1    1    2    0    0 -.29895545E+02 0.14320220E+02 -.49491148E+03 0.51152829E+03 0.12500000E+03 0.0000E+00 0.9000E+01
      -24  1    1    2    0    0 0.41778618E+01 -.29206810E+02 -.84430734E+03 0.84864162E+03 0.80419002E+02 0.0000E+00 0.9000E+01
        2  1    1    2  501    0 0.25717683E+02 0.14886590E+02 -.56128825E+02 0.63510292E+02 0.32000000E+00 0.0000E+00 0.9000E+01
#aMCatNLO 1  0  0  2  1 0.26384625D+02 0.00000000D+00  -5  6  0 0.00000000D+00 0.00000000D+00 0.00000000D+00 0.00000000D+00 0.00000000D+00
  <mgrwgt>
 0.3503596069D+00    9    2    0
 0.141306615857612D+03 0.000000000000000D+00 0.000000000000000D+00 0.141306615857612D+03
 0.141306615857612D+03 0.000000000000000D+00 0.000000000000000D+00 -.141306615857612D+03
 0.133323924082173D+03 -.298958838167187D+02 0.143200239074090D+02 0.324259429897966D+02
 0.106477902059552D+03 0.417759113812994D+01 -.292069667483004D+02 -.632441973486844D+02
 0.428114055734990D+02 0.257182926785888D+02 0.148869428408914D+02 0.308182543588877D+02
 0.000000000000000D+00 0.000000000000000D+00 -.000000000000000D+00 -.000000000000000D+00
 0.152439352271079D+03 0.000000000000000D+00 0.000000000000000D+00 0.152439352271079D+03
 0.158467283324211D+03 0.000000000000000D+00 0.000000000000000D+00 -.158467283324211D+03
 0.136957981560071D+03 -.402251977047361D+02 0.215169794312782D+02 0.324259429897966D+02
 0.105062118776235D+03 -.390679493980017D+01 -.235741659958568D+02 -.632441973486844D+02
 0.418220867353648D+02 0.224838700655764D+02 0.171405286979589D+02 0.308182543588877D+02
 0.270644485236184D+02 0.216481225789599D+02 -.150833421333804D+02 -.602793105313189D+01
0.268921810125D-05 0.000000000000D+00 0.000000000000D+00 0.102000775231D-05 0.000000000000D+00  6 21 1 25 -24 2 21 2 0.21794267D-02 0.21684830D+00 0.14969190D+05 0.14969190D+05 0.14969190D+05 0.12479243D+01  1  2  2  2  6  2        1 0.418510193211D-01 0.100000000000D+01
0.851397668170D-07 0.141913938068D-06 -.542875654834D-08 0.102000775231D-05 0.000000000000D+00  6 21 1 25 -24 2 21 4 0.21794267D-02 0.21684830D+00 0.14969190D+05 0.14969190D+05 0.14969190D+05 0.12479243D+01  1  2  3  2  6  2        1 0.206342640490D-02 0.100000000000D+01
0.268553786430D-06 0.000000000000D+00 0.000000000000D+00 0.102000775231D-05 0.000000000000D+00  6 21 1 25 -24 2 21 4 0.21794267D-02 0.21684830D+00 0.14969190D+05 0.14969190D+05 0.14969190D+05 0.12479243D+01  1  2 15  2  6  2        1 0.650860337975D-02 0.100000000000D+01
0.928755443419D-05 0.000000000000D+00 0.000000000000D+00 0.100339172928D-05 0.000000000000D+00  6 21 1 25 -24 2 21 4 0.21794267D-02 0.25086563D+00 0.18443688D+05 0.18443688D+05 0.18443688D+05 0.12377182D+01  1  2 12  2  6  2        1 0.156716297586D+00 0.100000000000D+01
-.212788966073D-05 0.000000000000D+00 0.000000000000D+00 0.102000775231D-05 0.000000000000D+00  6 21 1 25 -24 2 21 4 0.21794267D-02 0.21684830D+00 0.14969190D+05 0.14969190D+05 0.14969190D+05 0.12479243D+01  1  2  4  2  6  2        1 -.515710093746D-01 0.100000000000D+01
-.251087638894D-04 0.000000000000D+00 -.634209213037D-05 0.102000775231D-05 0.000000000000D+00  6 21 1 25 -24 2 21 4 0.21794267D-02 0.25381115D+00 0.14969190D+05 0.14969190D+05 0.14969190D+05 0.12479243D+01  1  2  5  2  6  2        1 -.426088131440D+00 0.100000000000D+01
0.258636984690D-04 0.000000000000D+00 0.626434046061D-05 0.102000775231D-05 0.000000000000D+00  6 21 1 25 -24 2 21 4 0.21794267D-02 0.21684830D+00 0.14969190D+05 0.14969190D+05 0.14969190D+05 0.12479243D+01  1  2  6  2  6  2        1 0.626826221690D+00 0.100000000000D+01
0.206937835131D-06 0.000000000000D+00 0.000000000000D+00 0.100339172928D-05 0.000000000000D+00  6 21 21 25 -24 2 -1 4 0.21794267D-02 0.25086563D+00 0.18443688D+05 0.18443688D+05 0.18443688D+05 0.12377182D+01  1  2 12 10  6  2        1 0.357397266581D-02 0.100000000000D+01
-.547421260348D-06 0.000000000000D+00 -.150388736274D-06 0.102000775231D-05 0.000000000000D+00  6 21 21 25 -24 2 -1 4 0.21794267D-02 0.25381115D+00 0.14969190D+05 0.14969190D+05 0.14969190D+05 0.12479243D+01  1  2  5 10  6  2        1 -.952079335650D-02 0.100000000000D+01
  </mgrwgt>
  </event>
  <event>
  6     66 0.45631637E-03 0.12034920E+03 0.75467711E-02 0.10831139E+00
        1 -1    0    0  501    0 0.00000000E+00 0.00000000E+00 0.13743854E+04 0.13743854E+04 0.32000000E+00 0.0000E+00 0.9000E+01
        1 -1    0    0  502    0 0.00000000E+00 0.00000000E+00 -.14837752E+03 0.14837786E+03 0.32000000E+00 0.0000E+00 0.9000E+01
       25  1    1    2    0    0 0.32395920E+02 -.12123599E+03 0.60631331E+01 0.17722704E+03 0.12500000E+03 0.0000E+00 0.9000E+01
      -24  1    1    2    0    0 -.43184572E+02 -.84578005E+02 0.16252456E+03 0.20469439E+03 0.80419002E+02 0.0000E+00 0.9000E+01
        2  1    1    2  501    0 -.43864270E+01 -.50283971E+02 -.22820664E+01 0.50527504E+02 0.32000000E+00 0.0000E+00 0.9000E+01
        1  1    1    2  502    0 0.15175079E+02 0.25609797E+03 0.10597023E+04 0.10903144E+04 0.32000000E+00 0.0000E+00 0.9000E+01
#aMCatNLO 2  0  0  1  2 0.18975595D+02 0.00000000D+00  -5  6  0 0.00000000D+00 0.00000000D+00 0.00000000D+00 0.00000000D+00 0.00000000D+00
  <mgrwgt>
 0.1695968662D-02    1    2    0
 0.152919969135541D+03 0.000000000000000D+00 0.000000000000000D+00 0.152919969135541D+03
 0.152919969135541D+03 0.000000000000000D+00 0.000000000000000D+00 -.152919969135541D+03
 0.147386077800902D+03 0.396463774330683D+02 0.112368140061992D+01 -.672648349888578D+02
 0.128092071889534D+03 -.371119511911773D+02 0.179043302775862D+02 0.907882203960279D+02
 0.303617885806452D+02 -.253442624189103D+01 -.190280116782061D+02 -.235233854071701D+02
 0.000000000000000D+00 0.000000000000000D+00 0.000000000000000D+00 0.000000000000000D+00
 0.916308877453485D+03 0.000000000000000D+00 0.000000000000000D+00 0.916308877453485D+03
 0.222553918860657D+03 0.000000000000000D+00 0.000000000000000D+00 -.222553918860657D+03
 0.189465062027456D+03 0.323960105404818D+02 -.121235103019094D+03 -.672648349888578D+02
 0.154039029545084D+03 -.431845267456280D+02 -.845777887858228D+02 0.907882203960279D+02
 0.556882417975211D+02 -.438656274253588D+01 -.502850741352811D+02 -.235233854071701D+02
 0.739670462944081D+03 0.151750789476820D+02 0.256097965940198D+03 0.693754958592828D+03
0.412055853220D-04 0.000000000000D+00 0.000000000000D+00 0.180968802674D-06 0.847455986908D-10  6 1 1 25 -24 2 1 4 0.21144391D+00 0.22827337D-01 0.92594458D+05 0.92594458D+05 0.92594458D+05 0.11666538D+01  1  2  1  5  6  1       21 0.169596866229D-02 0.100000000000D+01
  </mgrwgt>
  </event>
  <event>
  5     66 0.45631637E-03 0.65865646E+02 0.75467711E-02 0.10624818E+00
       21 -1    0    0  501  502 0.00000000E+00 0.00000000E+00 0.41266464E+02 0.41273279E+02 0.75000000E+00 0.0000E+00 0.9000E+01
        1 -1    0    0  502    0 0.00000000E+00 0.00000000E+00 -.12659277E+04 0.12659278E+04 0.32000000E+00 0.0000E+00 0.9000E+01
       25  1    1    2    0    0 0.11710014E+03 -.75412257E+02 -.70629335E+03 0.73066733E+03 0.12500000E+03 0.0000E+00 0.9000E+01
      -24  1    1    2    0    0 -.10573538E+03 0.10534654E+02 -.48445665E+03 0.50245041E+03 0.80419002E+02 0.0000E+00 0.9000E+01
        2  1    1    2  501    0 -.11364756E+02 0.64877603E+02 -.33911272E+02 0.74083317E+02 0.32000000E+00 0.0000E+00 0.9000E+01
#aMCatNLO 1  0  0  1  5 0.18975595D+02 0.00000000D+00  -5  6  0 0.00000000D+00 0.00000000D+00 0.00000000D+00 0.00000000D+00 0.00000000D+00
  <mgrwgt>
 0.1458712052D+00    3    2    0
 0.228571304950751D+03 0.000000000000000D+00 0.000000000000000D+00 0.228571304950751D+03
 0.228571304950751D+03 0.000000000000000D+00 0.000000000000000D+00 -.228571304950751D+03
 0.197222997765990D+03 0.117100156882710D+03 -.754123548147732D+02 -.622289389845190D+02
 0.138924727715706D+03 -.105735371197038D+03 0.105345849704455D+02 -.392672613488324D+02
 0.120994884419808D+03 -.113647856856722D+02 0.648777698443277D+02 0.101496200333351D+03
 0.000000000000000D+00 -.000000000000000D+00 -.000000000000000D+00 -.000000000000000D+00
 0.326045460947061D+03 0.000000000000000D+00 0.000000000000000D+00 0.326045460947061D+03
 0.468698278097246D+03 0.000000000000000D+00 0.000000000000000D+00 -.468698278097246D+03
 0.255337100216334D+03 0.212949592352371D+03 -.187633956603277D+02 -.622289389845190D+02
 0.111958633869297D+03 -.525998237109386D+02 0.419387705500453D+02 -.392672613488324D+02
 0.148749319180948D+03 0.457653717268263D+02 0.986428508579978D+02 0.101496200333351D+03
 0.278698685777728D+03 -.206115140368259D+03 -.121818225747715D+03 -.142652817150186D+03
0.410670101114D-04 0.000000000000D+00 0.000000000000D+00 0.432798232386D-06 0.000000000000D+00  6 21 1 25 -24 2 21 2 0.63492140D-02 0.19475864D+00 0.37301835D+05 0.37301835D+05 0.37301835D+05 0.12050925D+01  1  2  2  1  6  1       21 0.124319901955D+00 0.100000000000D+01
0.121501665304D-05 0.216716566309D-05 -.829024614849D-07 0.432798232386D-06 0.000000000000D+00  6 21 1 25 -24 2 21 4 0.63492140D-02 0.19475864D+00 0.37301835D+05 0.37301835D+05 0.37301835D+05 0.12050925D+01  1  2  3  1  6  1       21 0.534159006656D-02 0.100000000000D+01
0.368711773065D-05 0.000000000000D+00 0.000000000000D+00 0.432798232386D-06 0.000000000000D+00  6 21 1 25 -24 2 21 4 0.63492140D-02 0.19475864D+00 0.37301835D+05 0.37301835D+05 0.37301835D+05 0.12050925D+01  1  2 15  1  6  1       21 0.162097131714D-01 0.100000000000D+01
  </mgrwgt>
  </event>
  <event>
  5     66 0.45631637E-03 0.23573132E+02 0.75467711E-02 0.11763898E+00
       21 -1    0    0  501  502 0.00000000E+00 0.00000000E+00 0.13237830E+02 0.13259059E+02 0.75000000E+00 0.0000E+00 0.9000E+01
        1 -1    0    0  502    0 0.00000000E+00 0.00000000E+00 -.15442905E+04 0.15442906E+04 0.32000000E+00 0.0000E+00 0.9000E+01
       25  1    1    2    0    0 0.63069154E+02 -.16711486E+02 -.85792925E+03 0.86943923E+03 0.12500000E+03 0.0000E+00 0.9000E+01
      -24  1    1    2    0    0 -.81528615E+02 0.31369157E+02 -.53806118E+03 0.55100634E+03 0.80419002E+02 0.0000E+00 0.9000E+01
        2  1    1    2  501    0 0.18459461E+02 -.14657671E+02 -.13506228E+03 0.13710405E+03 0.32000000E+00 0.0000E+00 0.9000E+01
#aMCatNLO 1  0  0  1  2 0.93883415D+02 0.00000000D+00  -5  6  0 0.00000000D+00 0.00000000D+00 0.00000000D+00 0.00000000D+00 0.00000000D+00
  <mgrwgt>
 0.1301490393D+00   14    2    0
 0.143037105537156D+03 0.000000000000000D+00 0.000000000000000D+00 0.143037105537156D+03
 0.143037105537156D+03 0.000000000000000D+00 0.000000000000000D+00 -.143037105537156D+03
 0.142130011980961D+03 0.630683126826405D+02 -.167108177063207D+02 -.178627213116873D+02
 0.120318009176259D+03 -.815293272121129D+02 0.313697221537077D+02 0.194452234265207D+02
 0.236261899170913D+02 0.184610145294724D+02 -.146589044473870D+02 -.158250211483349D+01
 0.000000000000000D+00 0.000000000000000D+00 0.000000000000000D+00 0.000000000000000D+00
 0.185179195963307D+03 0.000000000000000D+00 0.000000000000000D+00 0.185179195963307D+03
 0.164222902644439D+03 0.000000000000000D+00 0.000000000000000D+00 -.164222902644439D+03
 0.139302022345966D+03 0.458655149838805D+02 -.368419754122980D+02 -.178627213116873D+02
 0.127995640159461D+03 -.967077324906001D+02 0.136075606880474D+02 0.194452234265207D+02
 0.238870718370786D+02 0.155567217330961D+02 -.180575828095931D+02 -.158250211483349D+01
 0.582173642652410D+02 0.352854957736234D+02 0.412919975338438D+02 0.209562933188674D+02
0.385837083800D-05 0.000000000000D+00 0.000000000000D+00 0.556743932050D-06 0.000000000000D+00  6 21 1 25 -24 2 21 2 0.20382247D-02 0.23758479D+00 0.20066491D+05 0.20066491D+05 0.20066491D+05 0.12336674D+01  1  2  2  1  6  1       21 0.534633071046D-01 0.100000000000D+01
0.169862751712D-06 0.203611823040D-06 -.778893907600D-08 0.556743932050D-06 0.000000000000D+00  6 21 1 25 -24 2 21 4 0.20382247D-02 0.23758479D+00 0.20066491D+05 0.20066491D+05 0.20066491D+05 0.12336674D+01  1  2  3  1  6  1       21 0.358216987000D-02 0.100000000000D+01
0.413288517285D-06 0.000000000000D+00 0.000000000000D+00 0.556743932050D-06 0.000000000000D+00  6 21 1 25 -24 2 21 4 0.20382247D-02 0.23758479D+00 0.20066491D+05 0.20066491D+05 0.20066491D+05 0.12336674D+01  1  2 15  1  6  1       21 0.871568168603D-02 0.100000000000D+01
-.637070975324D-06 0.000000000000D+00 0.000000000000D+00 0.556743932050D-06 0.000000000000D+00  6 21 1 25 -24 2 21 4 0.20382247D-02 0.23758479D+00 0.20066491D+05 0.20066491D+05 0.20066491D+05 0.12336674D+01  1  2  4  1  6  1       21 -.134349433873D-01 0.100000000000D+01
-.121975206869D-04 0.000000000000D+00 -.482075748981D-05 0.556743932050D-06 0.000000000000D+00  6 21 1 25 -24 2 21 4 0.30745793D-02 0.23758479D+00 0.20066491D+05 0.20066491D+05 0.20066491D+05 0.12336674D+01  1  2  5  1  6  1       21 -.131539342285D+00 0.100000000000D+01
0.102045493507D-04 0.000000000000D+00 0.351329140031D-05 0.556743932050D-06 0.000000000000D+00  6 21 1 25 -24 2 21 4 0.20382247D-02 0.23758479D+00 0.20066491D+05 0.20066491D+05 0.20066491D+05 0.12336674D+01  1  2  6  1  6  1       21 0.215199794262D+00 0.100000000000D+01
-.147832494740D-05 0.000000000000D+00 -.666849189367D-06 0.556743932050D-06 0.000000000000D+00  6 -1 1 25 -24 2 -1 4 0.30745793D-02 0.23758479D+00 0.20066491D+05 0.20066491D+05 0.20066491D+05 0.12336674D+01  1  2  5  4  6  1       21 -.830161731693D-03 0.100000000000D+01
-.147832494740D-05 0.000000000000D+00 -.666849189367D-06 0.556743932050D-06 0.000000000000D+00  6 1 1 25 -24 2 1 4 0.30745793D-02 0.23758479D+00 0.20066491D+05 0.20066491D+05 0.20066491D+05 0.12336674D+01  1  2  5  5  6  1       21 -.895091546100D-03 0.100000000000D+01
-.147832494740D-05 0.000000000000D+00 -.666849189367D-06 0.556743932050D-06 0.000000000000D+00  6 -2 1 25 -24 2 -2 4 0.30745793D-02 0.23758479D+00 0.20066491D+05 0.20066491D+05 0.20066491D+05 0.12336674D+01  1  2  5  6  6  1       21 -.818539561619D-03 0.100000000000D+01
-.147832494740D-05 0.000000000000D+00 -.666849189367D-06 0.556743932050D-06 0.000000000000D+00  6 2 1 25 -24 2 2 4 0.30745793D-02 0.23758479D+00 0.20066491D+05 0.20066491D+05 0.20066491D+05 0.12336674D+01  1  2  5  7  6  1       21 -.939200302410D-03 0.100000000000D+01
-.147832494740D-05 0.000000000000D+00 -.666849189367D-06 0.556743932050D-06 0.000000000000D+00  6 -3 1 25 -24 2 -3 4 0.30745793D-02 0.23758479D+00 0.20066491D+05 0.20066491D+05 0.20066491D+05 0.12336674D+01  1  2  5  8  6  1       21 -.619160896011D-03 0.100000000000D+01
-.147832494740D-05 0.000000000000D+00 -.666849189367D-06 0.556743932050D-06 0.000000000000D+00  6 -4 1 25 -24 2 -4 4 0.30745793D-02 0.23758479D+00 0.20066491D+05 0.20066491D+05 0.20066491D+05 0.12336674D+01  1  2  5  8  6  1       21 -.558179765999D-03 0.100000000000D+01
-.147832494740D-05 0.000000000000D+00 -.666849189367D-06 0.556743932050D-06 0.000000000000D+00  6 3 1 25 -24 2 3 4 0.30745793D-02 0.23758479D+00 0.20066491D+05 0.20066491D+05 0.20066491D+05 0.12336674D+01  1  2  5  9  6  1       21 -.619114378987D-03 0.100000000000D+01
-.147832494740D-05 0.000000000000D+00 -.666849189367D-06 0.556743932050D-06 0.000000000000D+00  6 4 1 25 -24 2 4 4 0.30745793D-02 0.23758479D+00 0.20066491D+05 0.20066491D+05 0.20066491D+05 0.12336674D+01  1  2  5  9  6  1       21 -.558179765999D-03 0.100000000000D+01
  </mgrwgt>
  </event>
  <event>
  5     66 0.45631637E-03 0.25347236E+02 0.75467711E-02 0.11736592E+00
       21 -1    0    0  501  502 0.00000000E+00 0.00000000E+00 0.69037034E+03 0.69037075E+03 0.75000000E+00 0.0000E+00 0.9000E+01
        3 -1    0    0  502    0 0.00000000E+00 0.00000000E+00 -.22439741E+02 0.22445310E+02 0.50000000E+00 0.0000E+00 0.9000E+01
       25  1    1    2    0    0 -.18403214E+02 -.39824383E+02 0.35953518E+03 0.38316473E+03 0.12500000E+03 0.0000E+00 0.9000E+01
      -24  1    1    2    0    0 -.68859586E+01 0.38825408E+02 0.26034760E+03 0.27532330E+03 0.80419002E+02 0.0000E+00 0.9000E+01
        4  1    1    2  501    0 0.25289173E+02 0.99897443E+00 0.48047813E+02 0.54328032E+02 0.15500000E+01 0.0000E+00 0.9000E+01
#aMCatNLO 1  0  0  1  2 0.23216930D+03 0.00000000D+00  -5  6  0 0.00000000D+00 0.00000000D+00 0.00000000D+00 0.00000000D+00 0.00000000D+00
  <mgrwgt>
 0.5974275974D-01    4    2    0
 0.124474341600337D+03 0.000000000000000D+00 0.000000000000000D+00 0.124474341600337D+03
 0.124474341600337D+03 0.000000000000000D+00 0.000000000000000D+00 -.124474341600337D+03
 0.132486328019445D+03 -.184260455678672D+02 -.398252844471052D+02 0.143341393676197D+01
 0.898219740705932D+02 -.690143764122636D+01 0.388247966884579D+02 0.676582531195911D+01
 0.266403811106352D+02 0.253274832090936D+02 0.100048775864726D+01 -.819923924872107D+01
 0.000000000000000D+00 -.000000000000000D+00 -.000000000000000D+00 -.000000000000000D+00
 0.170635648965136D+03 0.000000000000000D+00 0.000000000000000D+00 0.170635648965136D+03
 0.179223604222070D+03 0.000000000000000D+00 0.000000000000000D+00 -.179223604222070D+03
 0.125032746400823D+03 0.186012679695033D+01 -.163490835144980D+01 0.143341393676197D+01
 0.105765503085909D+03 0.850604734965764D+01 0.678306453970355D+02 0.676582531195911D+01
 0.325979437732261D+02 0.299940069293360D+02 0.978559974184421D+01 -.819923924872107D+01
 0.864630599272484D+02 -.403601810759440D+02 -.759813367874300D+02 -.858795525693399D+01
0.272338358329D-04 0.000000000000D+00 0.000000000000D+00 0.617941599010D-06 0.000000000000D+00  6 21 3 25 -24 4 21 2 0.10621128D+00 0.34527276D-02 0.15300775D+05 0.15300775D+05 0.15300775D+05 0.12468408D+01  1  2  2  1  6  1       21 0.596108760262D-01 0.100000000000D+01
-.916121222916D-07 0.143716900089D-05 -.549772681307D-07 0.617941599010D-06 0.000000000000D+00  6 21 3 25 -24 4 21 4 0.10621128D+00 0.34527276D-02 0.15300775D+05 0.15300775D+05 0.15300775D+05 0.12468408D+01  1  2  3  1  6  1       21 -.311739359728D-03 0.100000000000D+01
0.283638193866D-05 0.000000000000D+00 0.000000000000D+00 0.617941599010D-06 0.000000000000D+00  6 21 3 25 -24 4 21 4 0.10621128D+00 0.34527276D-02 0.15300775D+05 0.15300775D+05 0.15300775D+05 0.12468408D+01  1  2 15  1  6  1       21 0.965169092674D-02 0.100000000000D+01
-.270601260876D-05 0.000000000000D+00 0.000000000000D+00 0.617941599010D-06 0.000000000000D+00  6 21 3 25 -24 4 21 4 0.10621128D+00 0.34527276D-02 0.15300775D+05 0.15300775D+05 0.15300775D+05 0.12468408D+01  1  2  4  1  6  1       21 -.920806785140D-02 0.100000000000D+01
  </mgrwgt>
  </event>
  <event>
  6     66 0.45631637E-03 0.69531787E+02 0.75467711E-02 0.11946467E+00
       21 -1    0    0  501  502 0.00000000E+00 0.00000000E+00 0.27859479E+02 0.27869572E+02 0.75000000E+00 0.0000E+00 0.9000E+01
        1 -1    0    0  502    0 -.00000000E+00 -.00000000E+00 -.91662229E+03 0.91662234E+03 0.32000000E+00 0.0000E+00 0.9000E+01
       25  1    1    2    0    0 0.52522342E+02 -.21667798E+02 -.31573796E+03 0.34430153E+03 0.12500000E+03 0.0000E+00 0.9000E+01
      -24  1    1    2    0    0 -.63931508E+01 -.43996871E+02 -.31325230E+03 0.32645185E+03 0.80419002E+02 0.0000E+00 0.9000E+01
        2  1    1    2  503    0 -.33906926E+02 0.43088375E+02 -.12434758E+03 0.13589963E+03 0.32000000E+00 0.0000E+00 0.9000E+01
       21  1    1    2  501  503 -.12222266E+02 0.22576294E+02 -.13542498E+03 0.13783889E+03 0.75000000E+00 0.0000E+00 0.9000E+01
#aMCatNLO 2  0  0  5  1 0.15164548D+02 0.00000000D+00  -5  6  0 0.00000000D+00 0.00000000D+00 0.00000000D+00 0.00000000D+00 0.00000000D+00
  <mgrwgt>
 0.1751157931D-01    2    2    0
 0.159816807697500D+03 0.000000000000000D+00 0.000000000000000D+00 0.159816807697500D+03
 0.159816807697500D+03 -.000000000000000D+00 -.000000000000000D+00 -.159816807697500D+03
 0.140429162737547D+03 0.540552920761214D+02 -.238499443028976D+02 0.245877063282106D+02
 0.942258657763229D+02 -.536429458785642D+01 -.454614426834140D+02 -.177701828815699D+02
 0.849785868811311D+02 -.486909974882649D+02 0.693113869863115D+02 -.681752344664064D+01
 0.000000000000000D+00 0.000000000000000D+00 0.000000000000000D+00 -.000000000000000D+00
 0.159816807697500D+03 0.000000000000000D+00 0.000000000000000D+00 0.159816807697500D+03
 0.159816807697500D+03 -.000000000000000D+00 -.000000000000000D+00 -.159816807697500D+03
 0.139450404312628D+03 0.525181870190616D+02 -.216618830812280D+02 0.243724868768329D+02
 0.936185517178294D+02 -.639594047438496D+01 -.439929000171593D+02 -.179146299124966D+02
 0.555415917988822D+02 -.337472938880700D+02 0.428375826638635D+02 0.105323352729846D+02
 0.310230675656616D+02 -.123749526566067D+02 0.228172004345237D+02 -.169901922373209D+02
-.391443033520D-05 0.000000000000D+00 0.000000000000D+00 0.277603302426D-06 0.000000000000D+00  6 21 1 25 -24 2 21 4 0.42868544D-02 0.14101959D+00 0.23975943D+05 0.23975943D+05 0.23975943D+05 0.12252499D+01  1  2 13  3  6  5        2 -.640010349943D-01 0.100000000000D+01
0.498547328439D-05 0.000000000000D+00 0.000000000000D+00 0.276816531653D-06 0.653074862937D-08  6 21 1 25 -24 2 21 4 0.42868544D-02 0.14101959D+00 0.23975943D+05 0.23975943D+05 0.23975943D+05 0.12252499D+01  1  2  1  3  6  5        2 0.815126143051D-01 0.100000000000D+01
  </mgrwgt>
  </event>
  <event>
  5     66 0.45631637E-03 0.13439589E+03 0.75467711E-02 0.10653289E+00
       21 -1    0    0  501  502 0.00000000E+00 0.00000000E+00 0.27747156E+03 0.27747257E+03 0.75000000E+00 0.0000E+00 0.9000E+01
        1 -1    0    0  502    0 -.00000000E+00 -.00000000E+00 -.59155289E+03 0.59155297E+03 0.32000000E+00 0.0000E+00 0.9000E+01
       25  1    1    2    0    0 -.42391418E+02 -.22551677E+03 -.20055182E+03 0.32939472E+03 0.12500000E+03 0.0000E+00 0.9000E+01
      -24  1    1    2    0    0 -.91627717E+02 0.23557182E+03 -.23805791E+03 0.35641058E+03 0.80419002E+02 0.0000E+00 0.9000E+01
        2  1    1    2  501    0 0.13401914E+03 -.10055047E+02 0.12452840E+03 0.18322025E+03 0.32000000E+00 0.0000E+00 0.9000E+01
#aMCatNLO 1  0  0  5  2 0.87024160D+02 0.00000000D+00  -5  6  0 0.00000000D+00 0.00000000D+00 0.00000000D+00 0.00000000D+00 0.00000000D+00
  <mgrwgt>
 0.1080868821D+00    4    2    0
 0.405141431343007D+03 0.000000000000000D+00 0.000000000000000D+00 0.405141431343007D+03
 0.405141431343007D+03 -.000000000000000D+00 -.000000000000000D+00 -.405141431343007D+03
 0.275536937602668D+03 -.423914567961837D+02 -.225516767460101D+03 -.874114178382922D+02
 0.289973293495523D+03 -.916277583145883D+02 0.235571820245490D+03 -.117164697749535D+03
 0.244772631587824D+03 0.134019215110772D+03 -.100550527853890D+02 0.204576115587827D+03
 0.000000000000000D+00 0.000000000000000D+00 0.000000000000000D+00 0.000000000000000D+00
 0.405141431343007D+03 0.000000000000000D+00 0.000000000000000D+00 0.405141431343007D+03
 0.405141431343007D+03 -.000000000000000D+00 -.000000000000000D+00 -.405141431343007D+03
 0.267498765523254D+03 -.257496534129051D+02 -.226765351189864D+03 -.620082285291059D+02
 0.274079138597865D+03 -.743418789171123D+02 0.234274913457610D+03 -.907783466674728D+02
 0.915844637246904D+02 0.572025733865415D+02 -.711968170529013D+02 -.682589446389138D+01
 0.177120494840204D+03 0.428889589434759D+02 0.636872547851552D+02 0.159612469660470D+03
0.514281095581D-03 0.000000000000D+00 0.000000000000D+00 0.119373138676D-06 0.000000000000D+00  6 21 1 25 -24 2 21 2 0.42688017D-01 0.91008221D-01 0.10921335D+06 0.10921335D+06 0.10921335D+06 0.11600719D+01  1  2  2  3  6  5        2 0.138680494053D+00 0.100000000000D+01
0.748501517722D-05 0.271393590256D-04 -.103818536103D-05 0.119373138676D-06 0.000000000000D+00  6 21 1 25 -24 2 21 4 0.42688017D-01 0.91008221D-01 0.10921335D+06 0.10921335D+06 0.10921335D+06 0.11600719D+01  1  2  3  3  6  5        2 0.271629720981D-02 0.100000000000D+01
0.481749321472D-04 0.000000000000D+00 0.000000000000D+00 0.119373138676D-06 0.000000000000D+00  6 21 1 25 -24 2 21 4 0.42688017D-01 0.91008221D-01 0.10921335D+06 0.10921335D+06 0.10921335D+06 0.11600719D+01  1  2 15  3  6  5        2 0.174825876336D-01 0.100000000000D+01
-.139963553397D-03 0.000000000000D+00 0.000000000000D+00 0.119373138676D-06 0.000000000000D+00  6 21 1 25 -24 2 21 4 0.42688017D-01 0.91008221D-01 0.10921335D+06 0.10921335D+06 0.10921335D+06 0.11600719D+01  1  2  4  3  6  5        2 -.507924968175D-01 0.100000000000D+01
  </mgrwgt>
  </event>
  <event>
  5     66 0.45631637E-03 0.22842661E+02 0.75467711E-02 0.10839052E+00
       21 -1    0    0  501  502 0.00000000E+00 0.00000000E+00 0.81107764E+01 0.81453787E+01 0.75000000E+00 0.0000E+00 0.9000E+01
        1 -1    0    0  502    0 0.00000000E+00 0.00000000E+00 -.31062920E+04 0.31062920E+04 0.32000000E+00 0.0000E+00 0.9000E+01
       25  1    1    2    0    0 0.95965068E+02 0.12828616E+02 -.14095955E+04 0.14184352E+04 0.12500000E+03 0.0000E+00 0.9000E+01
      -24  1    1    2    0    0 -.82925046E+02 -.31582333E+02 -.16014659E+04 0.16059372E+04 0.80419002E+02 0.0000E+00 0.9000E+01
        2  1    1    2  501    0 -.13040021E+02 0.18753718E+02 -.87119794E+02 0.90065004E+02 0.32000000E+00 0.0000E+00 0.9000E+01
#aMCatNLO 1  0  0  1  1 0.43595966D+02 0.00000000D+00  -5  6  0 0.00000000D+00 0.00000000D+00 0.00000000D+00 0.00000000D+00 0.00000000D+00
  <mgrwgt>
 0.5747738289D+00   12    2    0
 0.158897288896887D+03 0.000000000000000D+00 0.000000000000000D+00 0.158897288896887D+03
 0.158897288896887D+03 0.000000000000000D+00 0.000000000000000D+00 -.158897288896887D+03
 0.158735453611731D+03 0.959653679998347D+02 0.128281836777956D+02 0.140723161386798D+02
 0.125739311406346D+03 -.829248085392126D+02 -.315826754658439D+02 -.383297432514955D+02
 0.333198127756978D+02 -.130405594606221D+02 0.187544917880483D+02 0.242574271128157D+02
 0.000000000000000D+00 -.000000000000000D+00 -.000000000000000D+00 0.000000000000000D+00
 0.312732983484173D+03 0.000000000000000D+00 0.000000000000000D+00 0.312732983484173D+03
 0.309786444598767D+03 0.000000000000000D+00 0.000000000000000D+00 -.309786444598767D+03
 0.261321920931499D+03 0.215156695258190D+03 0.785729773102432D+02 0.140723161386798D+02
 0.916180642967699D+02 -.212496287435508D+02 0.243676253505005D+01 -.383297432514955D+02
 0.394294155379225D+02 0.760204225337101D+01 0.301407530281936D+02 0.242574271128157D+02
 0.230150027316748D+03 -.201509108768010D+03 -.111150492873487D+03 0.294653888540553D+01
0.443769040602D-04 0.000000000000D+00 0.000000000000D+00 0.113225912967D-05 0.000000000000D+00  6 21 1 25 -24 2 21 2 0.12504747D-02 0.47789374D+00 0.22606307D+05 0.22606307D+05 0.22606307D+05 0.12280119D+01  1  2  2  1  6  1       21 0.126676763136D+00 0.100000000000D+01
0.422268128820D-05 0.234183356550D-05 -.895841837447D-07 0.113225912967D-05 0.000000000000D+00  6 21 1 25 -24 2 21 4 0.12504747D-02 0.47789374D+00 0.22606307D+05 0.22606307D+05 0.22606307D+05 0.12280119D+01  1  2  3  1  6  1       21 0.181774681057D-01 0.100000000000D+01
0.439548145652D-05 0.000000000000D+00 0.000000000000D+00 0.113225912967D-05 0.000000000000D+00  6 21 1 25 -24 2 21 4 0.12504747D-02 0.47789374D+00 0.22606307D+05 0.22606307D+05 0.22606307D+05 0.12280119D+01  1  2 15  1  6  1       21 0.189213247536D-01 0.100000000000D+01
0.146661570193D-01 0.000000000000D+00 -.621923017710D-02 0.113225912967D-05 0.000000000000D+00  6 21 1 25 -24 2 21 4 0.27284088D-01 0.47789374D+00 0.22606307D+05 0.22606307D+05 0.22606307D+05 0.12280119D+01  1  2  5  1  6  1       21 0.317444220065D+00 0.100000000000D+01
0.649598011510D-02 0.000000000000D+00 -.275500152969D-02 0.113225912967D-05 0.000000000000D+00  6 -1 1 25 -24 2 -1 4 0.27284088D-01 0.47789374D+00 0.22606307D+05 0.22606307D+05 0.22606307D+05 0.12280119D+01  1  2  5  4  6  1       21 0.119053449451D-01 0.100000000000D+01
0.649598011510D-02 0.000000000000D+00 -.275500152969D-02 0.113225912967D-05 0.000000000000D+00  6 1 1 25 -24 2 1 4 0.27284088D-01 0.47789374D+00 0.22606307D+05 0.22606307D+05 0.22606307D+05 0.12280119D+01  1  2  5  5  6  1       21 0.200965294535D-01 0.100000000000D+01
0.649598011510D-02 0.000000000000D+00 -.275500152969D-02 0.113225912967D-05 0.000000000000D+00  6 -2 1 25 -24 2 -2 4 0.27284088D-01 0.47789374D+00 0.22606307D+05 0.22606307D+05 0.22606307D+05 0.12280119D+01  1  2  5  6  6  1       21 0.105624802282D-01 0.100000000000D+01
0.649598011510D-02 0.000000000000D+00 -.275500152969D-02 0.113225912967D-05 0.000000000000D+00  6 2 1 25 -24 2 2 4 0.27284088D-01 0.47789374D+00 0.22606307D+05 0.22606307D+05 0.22606307D+05 0.12280119D+01  1  2  5  7  6  1       21 0.260048360598D-01 0.100000000000D+01
0.649598011510D-02 0.000000000000D+00 -.275500152969D-02 0.113225912967D-05 0.000000000000D+00  6 -3 1 25 -24 2 -3 4 0.27284088D-01 0.47789374D+00 0.22606307D+05 0.22606307D+05 0.22606307D+05 0.12280119D+01  1  2  5  8  6  1       21 0.677735967660D-02 0.100000000000D+01
0.649598011510D-02 0.000000000000D+00 -.275500152969D-02 0.113225912967D-05 0.000000000000D+00  6 -4 1 25 -24 2 -4 4 0.27284088D-01 0.47789374D+00 0.22606307D+05 0.22606307D+05 0.22606307D+05 0.12280119D+01  1  2  5  8  6  1       21 0.571512266405D-02 0.100000000000D+01
0.649598011510D-02 0.000000000000D+00 -.275500152969D-02 0.113225912967D-05 0.000000000000D+00  6 3 1 25 -24 2 3 4 0.27284088D-01 0.47789374D+00 0.22606307D+05 0.22606307D+05 0.22606307D+05 0.12280119D+01  1  2  5  9  6  1       21 0.677725715190D-02 0.100000000000D+01
0.649598011510D-02 0.000000000000D+00 -.275500152969D-02 0.113225912967D-05 0.000000000000D+00  6 4 1 25 -24 2 4 4 0.27284088D-01 0.47789374D+00 0.22606307D+05 0.22606307D+05 0.22606307D+05 0.12280119D+01  1  2  5  9  6  1       21 0.571512266405D-02 0.100000000000D+01
  </mgrwgt>
  </event>
  <event>
  5     66 0.45631637E-03 0.72000197E+02 0.75467711E-02 0.11905328E+00
       21 -1    0    0  501  502 0.00000000E+00 0.00000000E+00 0.22434161E+04 0.22434163E+04 0.75000000E+00 0.0000E+00 0.9000E+01
        3 -1    0    0  502    0 0.00000000E+00 0.00000000E+00 -.12924753E+02 0.12934421E+02 0.50000000E+00 0.0000E+00 0.9000E+01
       25  1    1    2    0    0 0.20605853E+02 0.17458001E+02 0.84732092E+03 0.85691722E+03 0.12500000E+03 0.0000E+00 0.9000E+01
      -24  1    1    2    0    0 0.41140047E+02 0.36055873E+02 0.35693314E+03 0.36994731E+03 0.80419002E+02 0.0000E+00 0.9000E+01
        4  1    1    2  501    0 -.61745900E+02 -.53513874E+02 0.10262373E+04 0.10294861E+04 0.15500000E+01 0.0000E+00 0.9000E+01
#aMCatNLO 1  0  0  1  2 0.98567131D+01 0.00000000D+00  -5  6  0 0.00000000D+00 0.00000000D+00 0.00000000D+00 0.00000000D+00 0.00000000D+00
  <mgrwgt>
 0.5309452968D-01   32    2    0
 0.170313382259895D+03 0.000000000000000D+00 0.000000000000000D+00 0.170313382259895D+03
 0.170313382259895D+03 0.000000000000000D+00 0.000000000000000D+00 -.170313382259895D+03
 0.127893663436448D+03 0.206086707937757D+02 0.174604430932116D+02 0.148484419988646D+01
 0.113307344844919D+03 0.411425429037897D+02 0.360580360181343D+02 -.581244152087529D+02
 0.994257562384234D+02 -.617512136975655D+02 -.535184791113459D+02 0.566395710088665D+02
 0.000000000000000D+00 -.000000000000000D+00 0.000000000000000D+00 0.000000000000000D+00
 0.177859415577553D+03 0.000000000000000D+00 0.000000000000000D+00 0.177859415577553D+03
 0.173634109466340D+03 0.000000000000000D+00 0.000000000000000D+00 -.173634109466340D+03
 0.128284953069572D+03 0.239907421849977D+02 0.159458054414718D+02 0.148484419988646D+01
 0.114014858985925D+03 0.441436517888779D+02 0.347140098316607D+02 -.581244152087529D+02
 0.984695344258559D+02 -.591385990689847D+02 -.546885207894149D+02 0.566395710088665D+02
 0.107241785625399D+02 -.899579490489084D+01 0.402870551628247D+01 0.422530611121320D+01
0.394685063269D-04 0.000000000000D+00 0.000000000000D+00 0.444745379493D-06 0.000000000000D+00  6 21 3 25 -24 4 21 2 0.34514170D+00 0.19891769D-02 0.23541337D+05 0.23541337D+05 0.23541337D+05 0.12261068D+01  1  2  2  1  6  1       21 0.540290815313D-02 0.100000000000D+01
-.172339343403D-05 0.208281030085D-05 -.796755428933D-07 0.444745379493D-06 0.000000000000D+00  6 21 3 25 -24 4 21 4 0.34514170D+00 0.19891769D-02 0.23541337D+05 0.23541337D+05 0.23541337D+05 0.12261068D+01  1  2  3  1  6  1       21 -.354664658830D-03 0.100000000000D+01
0.427654787184D-05 0.000000000000D+00 0.000000000000D+00 0.444745379493D-06 0.000000000000D+00  6 21 3 25 -24 4 21 4 0.34514170D+00 0.19891769D-02 0.23541337D+05 0.23541337D+05 0.23541337D+05 0.12261068D+01  1  2 15  1  6  1       21 0.880089457224D-03 0.100000000000D+01
0.107430149148D-03 0.000000000000D+00 0.000000000000D+00 0.442594593308D-06 0.000000000000D+00  6 21 3 25 -24 4 21 4 0.36368918D+00 0.19891769D-02 0.25085631D+05 0.25085631D+05 0.25085631D+05 0.12231385D+01  1  2 12  1  6  1       21 0.169717745667D-01 0.100000000000D+01
-.424338647392D-04 0.000000000000D+00 0.000000000000D+00 0.444745379493D-06 0.000000000000D+00  6 21 3 25 -24 4 21 4 0.34514170D+00 0.19891769D-02 0.23541337D+05 0.23541337D+05 0.23541337D+05 0.12261068D+01  1  2  4  1  6  1       21 -.873265028370D-02 0.100000000000D+01
-.107111710593D-02 0.000000000000D+00 -.160540107385D-03 0.444745379493D-06 0.000000000000D+00  6 21 3 25 -24 4 21 4 0.36322031D+00 0.19891769D-02 0.23541337D+05 0.23541337D+05 0.23541337D+05 0.12261068D+01  1  2  5  1  6  1       21 -.172767836629D+00 0.100000000000D+01
0.107346275778D-02 0.000000000000D+00 0.159706271739D-03 0.444745379493D-06 0.000000000000D+00  6 21 3 25 -24 4 21 4 0.34514170D+00 0.19891769D-02 0.23541337D+05 0.23541337D+05 0.23541337D+05 0.12261068D+01  1  2  6  1  6  1       21 0.220912587478D+00 0.100000000000D+01
0.317593311901D-11 0.000000000000D+00 0.000000000000D+00 0.444745379493D-06 0.607867535147D-07  6 21 3 25 -24 4 21 4 0.36043381D+00 0.20279614D-02 0.25085631D+05 0.25085631D+05 0.25085631D+05 0.12231385D+01  1  2 11  1  6  1       21 0.509205165469D-09 0.100000000000D+01
0.191113157138D-05 0.000000000000D+00 0.000000000000D+00 0.442594593308D-06 0.000000000000D+00  6 -3 3 25 -24 4 -3 4 0.36368918D+00 0.19891769D-02 0.25085631D+05 0.25085631D+05 0.25085631D+05 0.12231385D+01  1  2 12  4  6  1       21 0.204021978229D-04 0.100000000000D+01
-.114250048430D-04 0.000000000000D+00 -.196121154652D-05 0.444745379493D-06 0.000000000000D+00  6 -3 3 25 -24 4 -3 4 0.36322031D+00 0.19891769D-02 0.23541337D+05 0.23541337D+05 0.23541337D+05 0.12261068D+01  1  2  5  4  6  1       21 -.123684523839D-03 0.100000000000D+01
0.191619545746D-12 0.000000000000D+00 0.000000000000D+00 0.444745379493D-06 0.760724086942D-09  6 -3 3 25 -24 4 -3 4 0.36043381D+00 0.20279614D-02 0.25085631D+05 0.25085631D+05 0.25085631D+05 0.12231385D+01  1  2 11  4  6  1       21 0.206585665460D-11 0.100000000000D+01
0.191113157138D-05 0.000000000000D+00 0.000000000000D+00 0.442594593308D-06 0.000000000000D+00  6 3 3 25 -24 4 3 4 0.36368918D+00 0.19891769D-02 0.25085631D+05 0.25085631D+05 0.25085631D+05 0.12231385D+01  1  2 12  5  6  1       21 0.210323949329D-04 0.100000000000D+01
-.114250048430D-04 0.000000000000D+00 -.196121154652D-05 0.444745379493D-06 0.000000000000D+00  6 3 3 25 -24 4 3 4 0.36322031D+00 0.19891769D-02 0.23541337D+05 0.23541337D+05 0.23541337D+05 0.12261068D+01  1  2  5  5  6  1       21 -.127477438696D-03 0.100000000000D+01
0.167288061825D-12 0.000000000000D+00 0.000000000000D+00 0.444745379493D-06 0.861476792486D-09  6 3 3 25 -24 4 3 4 0.36043381D+00 0.20279614D-02 0.25085631D+05 0.25085631D+05 0.25085631D+05 0.12231385D+01  1  2 11  5  6  1       21 0.185739888675D-11 0.100000000000D+01
0.191113157138D-05 0.000000000000D+00 0.000000000000D+00 0.442594593308D-06 0.000000000000D+00  6 -4 3 25 -24 4 -4 4 0.36368918D+00 0.19891769D-02 0.25085631D+05 0.25085631D+05 0.25085631D+05 0.12231385D+01  1  2 12  6  6  1       21 0.128991808815D-04 0.100000000000D+01
-.114250048430D-04 0.000000000000D+00 -.196121154652D-05 0.444745379493D-06 0.000000000000D+00  6 -4 3 25 -24 4 -4 4 0.36322031D+00 0.19891769D-02 0.23541337D+05 0.23541337D+05 0.23541337D+05 0.12261068D+01  1  2  5  6  6  1       21 -.782785402663D-04 0.100000000000D+01
0.367501018521D-12 0.000000000000D+00 0.000000000000D+00 0.444745379493D-06 0.651101687701D-08  6 -4 3 25 -24 4 -4 4 0.36043381D+00 0.20279614D-02 0.25085631D+05 0.25085631D+05 0.25085631D+05 0.12231385D+01  1  2 11  6  6  1       21 0.252339035760D-11 0.100000000000D+01
0.191113157138D-05 0.000000000000D+00 0.000000000000D+00 0.442594593308D-06 0.000000000000D+00  6 4 3 25 -24 4 4 4 0.36368918D+00 0.19891769D-02 0.25085631D+05 0.25085631D+05 0.25085631D+05 0.12231385D+01  1  2 12  7  6  1       21 0.128991808815D-04 0.100000000000D+01
-.114250048430D-04 0.000000000000D+00 -.196121154652D-05 0.444745379493D-06 0.000000000000D+00  6 4 3 25 -24 4 4 4 0.36322031D+00 0.19891769D-02 0.23541337D+05 0.23541337D+05 0.23541337D+05 0.12261068D+01  1  2  5  7  6  1       21 -.782785402663D-04 0.100000000000D+01
0.202086200325D-12 0.000000000000D+00 0.000000000000D+00 0.444745379493D-06 0.425703374769D-09  6 4 3 25 -24 4 4 4 0.36043381D+00 0.20279614D-02 0.25085631D+05 0.25085631D+05 0.25085631D+05 0.12231385D+01  1  2 11  7  6  1       21 0.138759443812D-11 0.100000000000D+01
0.191113157138D-05 0.000000000000D+00 0.000000000000D+00 0.442594593308D-06 0.000000000000D+00  6 -1 3 25 -24 4 -1 4 0.36368918D+00 0.19891769D-02 0.25085631D+05 0.25085631D+05 0.25085631D+05 0.12231385D+01  1  2 12  8  6  1       21 0.298797195720D-04 0.100000000000D+01
0.191113157138D-05 0.000000000000D+00 0.000000000000D+00 0.442594593308D-06 0.000000000000D+00  6 -2 3 25 -24 4 -2 4 0.36368918D+00 0.19891769D-02 0.25085631D+05 0.25085631D+05 0.25085631D+05 0.12231385D+01  1  2 12  8  6  1       21 0.260821003413D-04 0.100000000000D+01
-.114250048430D-04 0.000000000000D+00 -.196121154652D-05 0.444745379493D-06 0.000000000000D+00  6 -1 3 25 -24 4 -1 4 0.36322031D+00 0.19891769D-02 0.23541337D+05 0.23541337D+05 0.23541337D+05 0.12261068D+01  1  2  5  8  6  1       21 -.181554024583D-03 0.100000000000D+01
-.114250048430D-04 0.000000000000D+00 -.196121154652D-05 0.444745379493D-06 0.000000000000D+00  6 -2 3 25 -24 4 -2 4 0.36322031D+00 0.19891769D-02 0.23541337D+05 0.23541337D+05 0.23541337D+05 0.12261068D+01  1  2  5  8  6  1       21 -.158379621592D-03 0.100000000000D+01
0.191329131878D-12 0.000000000000D+00 0.000000000000D+00 0.444745379493D-06 0.759571152238D-09  6 -1 3 25 -24 4 -1 4 0.36043381D+00 0.20279614D-02 0.25085631D+05 0.25085631D+05 0.25085631D+05 0.12231385D+01  1  2 11  8  6  1       21 0.304711140818D-11 0.100000000000D+01
0.191329131878D-12 0.000000000000D+00 0.000000000000D+00 0.444745379493D-06 0.759571152238D-09  6 -2 3 25 -24 4 -2 4 0.36043381D+00 0.20279614D-02 0.25085631D+05 0.25085631D+05 0.25085631D+05 0.12231385D+01  1  2 11  8  6  1       21 0.265296323179D-11 0.100000000000D+01
0.191113157138D-05 0.000000000000D+00 0.000000000000D+00 0.442594593308D-06 0.000000000000D+00  6 1 3 25 -24 4 1 4 0.36368918D+00 0.19891769D-02 0.25085631D+05 0.25085631D+05 0.25085631D+05 0.12231385D+01  1  2 12  9  6  1       21 0.452640164494D-03 0.100000000000D+01
0.191113157138D-05 0.000000000000D+00 0.000000000000D+00 0.442594593308D-06 0.000000000000D+00  6 2 3 25 -24 4 2 4 0.36368918D+00 0.19891769D-02 0.25085631D+05 0.25085631D+05 0.25085631D+05 0.12231385D+01  1  2 12  9  6  1       21 0.124760941229D-02 0.100000000000D+01
-.114250048430D-04 0.000000000000D+00 -.196121154652D-05 0.444745379493D-06 0.000000000000D+00  6 1 3 25 -24 4 1 4 0.36322031D+00 0.19891769D-02 0.23541337D+05 0.23541337D+05 0.23541337D+05 0.12261068D+01  1  2  5  9  6  1       21 -.274283122806D-02 0.100000000000D+01
-.114250048430D-04 0.000000000000D+00 -.196121154652D-05 0.444745379493D-06 0.000000000000D+00  6 2 3 25 -24 4 2 4 0.36322031D+00 0.19891769D-02 0.23541337D+05 0.23541337D+05 0.23541337D+05 0.12261068D+01  1  2  5  9  6  1       21 -.755063953254D-02 0.100000000000D+01
0.191329131878D-12 0.000000000000D+00 0.000000000000D+00 0.444745379493D-06 0.759571152238D-09  6 1 3 25 -24 4 1 4 0.36043381D+00 0.20279614D-02 0.25085631D+05 0.25085631D+05 0.25085631D+05 0.12231385D+01  1  2 11  9  6  1       21 0.454096907153D-10 0.100000000000D+01
0.191329131878D-12 0.000000000000D+00 0.000000000000D+00 0.444745379493D-06 0.759571152238D-09  6 2 3 25 -24 4 2 4 0.36043381D+00 0.20279614D-02 0.25085631D+05 0.25085631D+05 0.25085631D+05 0.12231385D+01  1  2 11  9  6  1       21 0.124432615677D-09 0.100000000000D+01
  </mgrwgt>
  </event>
  <event>
  5     66 -.45631637E-03 0.44809049E+02 0.75467711E-02 0.11479546E+00
       21 -1    0    0  501  502 0.00000000E+00 0.00000000E+00 0.13101322E+04 0.13101324E+04 0.75000000E+00 0.0000E+00 0.9000E+01
        1 -1    0    0  502    0 0.00000000E+00 0.00000000E+00 -.57286022E+02 0.57286915E+02 0.32000000E+00 0.0000E+00 0.9000E+01
       25  1    1    2    0    0 -.72761151E+02 0.10099853E+03 0.28379636E+03 0.33415604E+03 0.12500000E+03 0.0000E+00 0.9000E+01
      -24  1    1    2    0    0 0.11756004E+03 -.10004711E+03 0.20941515E+03 0.27230811E+03 0.80419002E+02 0.0000E+00 0.9000E+01
        2  1    1    2  501    0 -.44798886E+02 -.95142616E+00 0.75963464E+03 0.76095514E+03 0.32000000E+00 0.0000E+00 0.9000E+01
#aMCatNLO 1  0  0  5  2 0.99095522D+01 0.00000000D+00  -5  6  0 0.00000000D+00 0.00000000D+00 0.00000000D+00 0.00000000D+00 0.00000000D+00
  <mgrwgt>
 -.1747048841D-01    7    2    0
 0.273958057698190D+03 0.000000000000000D+00 0.000000000000000D+00 0.273958057698190D+03
 0.273958057698190D+03 -.000000000000000D+00 -.000000000000000D+00 -.273958057698190D+03
 0.185025147821885D+03 -.727611217042847D+02 0.100998533467900D+03 -.558069953695597D+02
 0.200750512332251D+03 0.117560069243303D+03 -.100047106004226D+03 -.100018792969020D+03
 0.162140455242244D+03 -.447989475390178D+02 -.951427463673651D+00 0.155825788338580D+03
 0.000000000000000D+00 0.000000000000000D+00 0.000000000000000D+00 0.000000000000000D+00
 0.273958057698190D+03 0.000000000000000D+00 0.000000000000000D+00 0.273958057698190D+03
 0.273958057698190D+03 -.000000000000000D+00 -.000000000000000D+00 -.273958057698190D+03
 0.184757266319515D+03 -.731710810831949D+02 0.100989826865769D+03 -.543810189367464D+02
 0.199729608904548D+03 0.117116076842665D+03 -.100056535390112D+03 -.984744382543165D+02
 0.149281417492467D+03 -.432983755751989D+02 0.878488971873883D+01 0.142593891852838D+03
 0.141478226798497D+02 -.646620184271234D+00 -.971818119439609D+01 0.102615653382244D+02
0.454437419094D-04 0.000000000000D+00 0.000000000000D+00 0.115895206025D-05 0.000000000000D+00  6 21 1 25 -24 2 21 2 0.20155888D+00 0.88133193D-02 0.39061115D+05 0.39061115D+05 0.39061115D+05 0.12030492D+01  1  2  2  3  6  5        2 0.695336333197D-02 0.100000000000D+01
0.658392579555D-05 0.239813214552D-05 -.917378219926D-07 0.115895206025D-05 0.000000000000D+00  6 21 1 25 -24 2 21 4 0.20155888D+00 0.88133193D-02 0.39061115D+05 0.39061115D+05 0.39061115D+05 0.12030492D+01  1  2  3  3  6  5        2 0.145805040257D-02 0.100000000000D+01
0.430217696072D-05 0.000000000000D+00 0.000000000000D+00 0.115895206025D-05 0.000000000000D+00  6 21 1 25 -24 2 21 4 0.20155888D+00 0.88133193D-02 0.39061115D+05 0.39061115D+05 0.39061115D+05 0.12030492D+01  1  2 15  3  6  5        2 0.952743248372D-03 0.100000000000D+01
-.146267714199D-03 0.000000000000D+00 0.000000000000D+00 0.115895206025D-05 0.000000000000D+00  6 21 1 25 -24 2 21 4 0.20155888D+00 0.88133193D-02 0.39061115D+05 0.39061115D+05 0.39061115D+05 0.12030492D+01  1  2  4  3  6  5        2 -.323918747253D-01 0.100000000000D+01
-.275614477451D-03 0.000000000000D+00 0.000000000000D+00 0.115895206025D-05 0.000000000000D+00  6 21 1 25 -24 2 21 4 0.20155888D+00 0.88133193D-02 0.39061115D+05 0.39061115D+05 0.39061115D+05 0.12030492D+01  1  2  5  3  6  5        2 -.610365019715D-01 0.100000000000D+01
0.300708522681D-03 0.000000000000D+00 -.000000000000D+00 0.115895206025D-05 0.000000000000D+00  6 21 1 25 -24 2 21 4 0.20155888D+00 0.88133193D-02 0.39061115D+05 0.39061115D+05 0.39061115D+05 0.12030492D+01  1  2  6  3  6  5        2 0.665937308782D-01 0.100000000000D+01
0.192476668768D-11 0.000000000000D+00 0.000000000000D+00 0.115895206025D-05 0.972238123763D-07  6 21 1 25 -24 2 21 4 0.20155888D+00 0.88133193D-02 0.40856390D+05 0.40856390D+05 0.40856390D+05 0.12010671D+01  1  2 11  3  6  5        2 0.422311220130D-09 0.100000000000D+01
  </mgrwgt>
  </event>
  <event>
  5     66 0.45631637E-03 0.15785087E+03 0.75467711E-02 0.93116814E-01
       21 -1    0    0  501  502 0.00000000E+00 0.00000000E+00 0.11532736E+03 0.11532980E+03 0.75000000E+00 0.0000E+00 0.9000E+01
        1 -1    0    0  502    0 0.00000000E+00 0.00000000E+00 -.62660221E+03 0.62660229E+03 0.32000000E+00 0.0000E+00 0.9000E+01
       25  1    1    2    0    0 0.13876034E+03 0.14780763E+03 -.20486842E+03 0.31416174E+03 0.12500000E+03 0.0000E+00 0.9000E+01
      -24  1    1    2    0    0 0.36813505E+00 -.73241560E+02 -.22556574E+03 0.25042281E+03 0.80419002E+02 0.0000E+00 0.9000E+01
        2  1    1    2  501    0 -.13912848E+03 -.74566075E+02 -.80840684E+02 0.17734755E+03 0.32000000E+00 0.0000E+00 0.9000E+01
#aMCatNLO 1  0  0  1  1 0.94177732D+03 0.00000000D+00  -5  6  0 0.00000000D+00 0.00000000D+00 0.00000000D+00 0.00000000D+00 0.00000000D+00
  <mgrwgt>
 0.2478221920D-01    3    2    0
 0.268822088898828D+03 0.000000000000000D+00 0.000000000000000D+00 0.268822088898828D+03
 0.268822088898828D+03 0.000000000000000D+00 0.000000000000000D+00 -.268822088898828D+03
 0.238713012978024D+03 0.138760457069953D+03 0.147807694515775D+03 0.160413079490113D+02
 0.131072978894411D+03 0.368196688202048D+00 -.732415264851101D+02 -.731331188396470D+02
 0.167858185925221D+03 -.139128653758155D+03 -.745661680306652D+02 0.570918108906357D+02
 0.000000000000000D+00 -.000000000000000D+00 -.000000000000000D+00 -.000000000000000D+00
 0.986889243026770D+03 0.000000000000000D+00 0.000000000000000D+00 0.986889243026770D+03
 0.104087196289058D+04 0.000000000000000D+00 0.000000000000000D+00 -.104087196289058D+04
 0.739289180144393D+03 0.705612873374021D+03 0.181043202707836D+03 0.160413079490113D+02
 0.257511146596734D+03 0.225592487616237D+03 -.600362484429071D+02 -.731331188396470D+02
 0.876376788941544D+02 0.895736214961534D+01 -.658836364699418D+02 0.570918108906357D+02
 0.943323200282069D+03 -.940162723139873D+03 -.551233177949873D+02 -.539827198638109D+02
0.161462644800D-04 0.000000000000D+00 0.000000000000D+00 0.807298404243D-07 0.000000000000D+00  6 21 1 25 -24 2 21 2 0.17742865D-01 0.96400534D-01 0.63705200D+05 0.63705200D+05 0.63705200D+05 0.11820011D+01  1  2  2  1  6  1       21 0.235846013287D-01 0.100000000000D+01
-.113100311262D-05 0.852061785683D-06 -.325946560400D-07 0.807298404243D-07 0.000000000000D+00  6 21 1 25 -24 2 21 4 0.17742865D-01 0.96400534D-01 0.63705200D+05 0.63705200D+05 0.63705200D+05 0.11820011D+01  1  2  3  1  6  1       21 -.230810765293D-02 0.100000000000D+01
0.171785162638D-05 0.000000000000D+00 0.000000000000D+00 0.807298404243D-07 0.000000000000D+00  6 21 1 25 -24 2 21 4 0.17742865D-01 0.96400534D-01 0.63705200D+05 0.63705200D+05 0.63705200D+05 0.11820011D+01  1  2 15  1  6  1       21 0.350572552913D-02 0.100000000000D+01
  </mgrwgt>
  </event>
</LesHouchesEvents>
