<event>
 5    0  0.4257006E+000  0.2442756E+03  0.7546771E-02  0.1116977E+00
         21   -1    0    0  504  501  0.00000000000E+00  0.00000000000E+00  0.30364484235E+03  0.30364484235E+03  0.00000000000E+00 0. -1.
         21   -1    0    0  501  502 -0.00000000000E+00 -0.00000000000E+00 -0.35541017630E+03  0.35541017630E+03  0.00000000000E+00 0. -1.
         25    1    1    2    0    0  0.16146837168E+03  0.16611837472E+03 -0.13138482204E+03  0.29420115726E+03  0.12500000000E+03 0.  0.
         21    1    1    2  503  502 -0.22549188376E+02 -0.15364628834E+02 -0.92960081374E+02  0.96881961400E+02  0.00000000000E+00 0. -1.
         21    1    1    2  504  503 -0.13891918330E+03 -0.15075374588E+03  0.17257956946E+03  0.26797189999E+03  0.00000000000E+00 0. -1.
<mgrwt>
<rscale>  4 0.24427559E+03</rscale>
<asrwt>0</asrwt>
<pdfrwt beam="1">  1       21 0.46714591E-01 0.24427559E+03</pdfrwt>
<pdfrwt beam="2">  1       21 0.54678489E-01 0.24427559E+03</pdfrwt>
<totfact> 0.13435556E+04</totfact>
</mgrwt>
</event>
<event>
 5    0  0.4257006E+000  0.2766987E+03  0.7546771E-02  0.1097506E+00
         21   -1    0    0  504  501  0.00000000000E+00  0.00000000000E+00  0.12446532626E+04  0.12446532626E+04  0.00000000000E+00 0.  1.
         21   -1    0    0  503  502 -0.00000000000E+00 -0.00000000000E+00 -0.41344770504E+03  0.41344770504E+03  0.00000000000E+00 0.  1.
         25    1    1    2    0    0  0.24702984128E+03 -0.57343377079E+02  0.11077512498E+04  0.11432628031E+04  0.12500000000E+03 0.  0.
         21    1    1    2  503  501 -0.20874930397E+03  0.32475308479E+02  0.22384226763E+02  0.21244286568E+03  0.00000000000E+00 0.  1.
         21    1    1    2  504  502 -0.38280537310E+02  0.24868068599E+02 -0.29892991898E+03  0.30239529896E+03  0.00000000000E+00 0.  1.
<mgrwt>
<rscale>  4 0.27669875E+03</rscale>
<asrwt>0</asrwt>
<pdfrwt beam="1">  1       21 0.19148512E+00 0.27669875E+03</pdfrwt>
<pdfrwt beam="2">  1       21 0.63607340E-01 0.27669875E+03</pdfrwt>
<totfact> 0.31886748E+02</totfact>
</mgrwt>
</event>
<event>
 5    0  0.9221534E+000  0.3110027E+03  0.7546771E-02  0.1079866E+00
         21   -1    0    0  502  501  0.00000000000E+00  0.00000000000E+00  0.28571189964E+04  0.28571189964E+04  0.00000000000E+00 0. -1.
         21   -1    0    0  503  502 -0.00000000000E+00 -0.00000000000E+00 -0.32270247284E+03  0.32270247284E+03  0.00000000000E+00 0.  1.
         25    1    1    2    0    0  0.83556782249E+02 -0.30261659471E+03  0.26728224295E+04  0.26940978599E+04  0.12500000000E+03 0.  0.
         21    1    1    2  503  504 -0.45473345513E+02  0.28044476297E+03 -0.24196326294E+03  0.37317999791E+03  0.00000000000E+00 0.  1.
         21    1    1    2  504  501 -0.38083436736E+02  0.22171831739E+02  0.10355735700E+03  0.11254361139E+03  0.00000000000E+00 0.  1.
<mgrwt>
<rscale>  4 0.31100265E+03</rscale>
<asrwt>0</asrwt>
<pdfrwt beam="1">  1       21 0.43955675E+00 0.31100265E+03</pdfrwt>
<pdfrwt beam="2">  1       21 0.49646536E-01 0.31100265E+03</pdfrwt>
<totfact> 0.15607768E+01</totfact>
</mgrwt>
</event>
<event>
 5    0  0.4257006E+000  0.2592619E+03  0.7546771E-02  0.1107587E+00
         21   -1    0    0  504  501  0.00000000000E+00  0.00000000000E+00  0.23287612253E+03  0.23287612253E+03  0.00000000000E+00 0. -1.
         21   -1    0    0  503  502 -0.00000000000E+00 -0.00000000000E+00 -0.31633499217E+03  0.31633499217E+03  0.00000000000E+00 0. -1.
         25    1    1    2    0    0 -0.70240294459E+02  0.20827497249E+03  0.62503555022E+01  0.25293522901E+03  0.12500000000E+03 0.  0.
         21    1    1    2  503  501  0.37518138443E+02 -0.23600546189E+03 -0.82330791839E+02  0.25275392784E+03  0.00000000000E+00 0. -1.
         21    1    1    2  504  502  0.32722156016E+02  0.27730489406E+02 -0.73784333039E+01  0.43521957849E+02  0.00000000000E+00 0.  1.
<mgrwt>
<rscale>  4 0.25926191E+03</rscale>
<asrwt>0</asrwt>
<pdfrwt beam="1">  1       21 0.35827096E-01 0.25926191E+03</pdfrwt>
<pdfrwt beam="2">  1       21 0.48666922E-01 0.25926191E+03</pdfrwt>
<totfact> 0.29302956E+04</totfact>
</mgrwt>
</event>
<event>
 5    0  0.4257006E+000  0.2444260E+03  0.7546771E-02  0.1116879E+00
         21   -1    0    0  503  501  0.00000000000E+00  0.00000000000E+00  0.14174124648E+04  0.14174124648E+04  0.00000000000E+00 0. -1.
         21   -1    0    0  504  502 -0.00000000000E+00 -0.00000000000E+00 -0.12257221966E+03  0.12257221966E+03  0.00000000000E+00 0. -1.
         25    1    1    2    0    0  0.19201777233E+03  0.11917762429E+03  0.10384546627E+04  0.10700874812E+04  0.12500000000E+03 0.  0.
         21    1    1    2  503  502 -0.14984262986E+03  0.89912427403E+02  0.76050754029E+02  0.19058010261E+03  0.00000000000E+00 0. -1.
         21    1    1    2  504  501 -0.42175142469E+02 -0.20909005169E+03  0.18033482843E+03  0.27931710063E+03  0.00000000000E+00 0. -1.
<mgrwt>
<rscale>  4 0.24442596E+03</rscale>
<asrwt>0</asrwt>
<pdfrwt beam="1">  1       21 0.21806344E+00 0.24442596E+03</pdfrwt>
<pdfrwt beam="2">  1       21 0.18857266E-01 0.24442596E+03</pdfrwt>
<totfact> 0.25360848E+03</totfact>
</mgrwt>
</event>
<event>
 5    0  0.4257006E+000  0.2792328E+03  0.7546771E-02  0.1096109E+00
         21   -1    0    0  504  501  0.00000000000E+00  0.00000000000E+00  0.26281438387E+03  0.26281438387E+03  0.00000000000E+00 0.  1.
         21   -1    0    0  501  502 -0.00000000000E+00 -0.00000000000E+00 -0.28198999698E+03  0.28198999698E+03  0.00000000000E+00 0. -1.
         25    1    1    2    0    0  0.14415018669E+03  0.20387914616E+03  0.29466556602E+02  0.28078329815E+03  0.12500000000E+03 0.  0.
         21    1    1    2  503  502 -0.27547759015E+02 -0.43379238103E+02 -0.40571278862E+02  0.65472635456E+02  0.00000000000E+00 0. -1.
         21    1    1    2  504  503 -0.11660242767E+03 -0.16049990806E+03 -0.80708908514E+01  0.19854844725E+03  0.00000000000E+00 0.  1.
<mgrwt>
<rscale>  4 0.27923285E+03</rscale>
<asrwt>0</asrwt>
<pdfrwt beam="1">  1       21 0.40432982E-01 0.27923285E+03</pdfrwt>
<pdfrwt beam="2">  1       21 0.43383077E-01 0.27923285E+03</pdfrwt>
<totfact> 0.28890162E+04</totfact>
</mgrwt>
</event>
<event>
 5    0  0.4257006E+000  0.2477149E+03  0.7546771E-02  0.1114758E+00
         21   -1    0    0  504  501  0.00000000000E+00  0.00000000000E+00  0.22944519531E+03  0.22944519531E+03  0.00000000000E+00 0.  1.
         21   -1    0    0  501  502 -0.00000000000E+00 -0.00000000000E+00 -0.69216512563E+03  0.69216512563E+03  0.00000000000E+00 0. -1.
         25    1    1    2    0    0 -0.19164081334E+03  0.94928634116E+02  0.13733804474E+03  0.28323909590E+03  0.12500000000E+03 0.  0.
         21    1    1    2  503  502  0.17535145312E+03 -0.79376427925E+02 -0.49904769149E+03  0.53488068558E+03  0.00000000000E+00 0. -1.
         21    1    1    2  504  503  0.16289360223E+02 -0.15552206191E+02 -0.10101028356E+03  0.10349053947E+03  0.00000000000E+00 0. -1.
<mgrwt>
<rscale>  4 0.24771485E+03</rscale>
<asrwt>0</asrwt>
<pdfrwt beam="1">  1       21 0.35299261E-01 0.24771485E+03</pdfrwt>
<pdfrwt beam="2">  1       21 0.10648694E+00 0.24771485E+03</pdfrwt>
<totfact> 0.52539655E+03</totfact>
</mgrwt>
</event>
<event>
 5    0  0.4257006E+000  0.3675418E+03  0.7546771E-02  0.1055637E+00
         21   -1    0    0  502  501  0.00000000000E+00  0.00000000000E+00  0.15011617199E+03  0.15011617199E+03  0.00000000000E+00 0. -1.
         21   -1    0    0  503  502 -0.00000000000E+00 -0.00000000000E+00 -0.14589049589E+04  0.14589049589E+04  0.00000000000E+00 0.  1.
         25    1    1    2    0    0 -0.20056781393E+03  0.28708602147E+03 -0.17194426961E+03  0.40967751166E+03  0.12500000000E+03 0.  0.
         21    1    1    2  503  504  0.15320238508E+03 -0.29501722491E+03 -0.95232866111E+03  0.10086803322E+04  0.00000000000E+00 0.  1.
         21    1    1    2  504  501  0.47365428847E+02  0.79312034368E+01 -0.18451585623E+03  0.19066328708E+03  0.00000000000E+00 0.  1.
<mgrwt>
<rscale>  4 0.36754184E+03</rscale>
<asrwt>0</asrwt>
<pdfrwt beam="1">  1       21 0.23094795E-01 0.36754184E+03</pdfrwt>
<pdfrwt beam="2">  1       21 0.22444692E+00 0.36754184E+03</pdfrwt>
<totfact> 0.14472061E+03</totfact>
</mgrwt>
</event>
<event>
 5    0  0.4257006E+000  0.2787996E+03  0.7546771E-02  0.1096346E+00
         21   -1    0    0  503  501  0.00000000000E+00  0.00000000000E+00  0.11515219999E+04  0.11515219999E+04  0.00000000000E+00 0.  1.
         21   -1    0    0  504  502 -0.00000000000E+00 -0.00000000000E+00 -0.30323137165E+03  0.30323137165E+03  0.00000000000E+00 0. -1.
         25    1    1    2    0    0  0.91113928906E+02  0.38280088645E+03  0.84084206330E+03  0.93673829970E+03  0.12500000000E+03 0.  0.
         21    1    1    2  503  502 -0.13538011035E+03 -0.19795635070E+03 -0.13978707908E+03  0.27758767721E+03  0.00000000000E+00 0. -1.
         21    1    1    2  504  501  0.44266181445E+02 -0.18484453575E+03  0.14723564398E+03  0.24042739460E+03  0.00000000000E+00 0.  1.
<mgrwt>
<rscale>  4 0.27879964E+03</rscale>
<asrwt>0</asrwt>
<pdfrwt beam="1">  1       21 0.17715723E+00 0.27879964E+03</pdfrwt>
<pdfrwt beam="2">  1       21 0.46650981E-01 0.27879964E+03</pdfrwt>
<totfact> 0.77235851E+02</totfact>
</mgrwt>
</event>
<event>
 5    0  0.4257006E+000  0.2520112E+03  0.7546771E-02  0.1112040E+00
         21   -1    0    0  503  501  0.00000000000E+00  0.00000000000E+00  0.69274051153E+02  0.69274051153E+02  0.00000000000E+00 0. -1.
         21   -1    0    0  504  502 -0.00000000000E+00 -0.00000000000E+00 -0.16240297223E+04  0.16240297223E+04  0.00000000000E+00 0. -1.
         25    1    1    2    0    0 -0.83561436328E+02 -0.21070608478E+03 -0.79657181231E+03  0.83757460561E+03  0.12500000000E+03 0.  0.
         21    1    1    2  503  502 -0.11517734046E+03  0.93845285188E+02 -0.42773507085E+03  0.45280243831E+03  0.00000000000E+00 0. -1.
         21    1    1    2  504  501  0.19873877679E+03  0.11686079959E+03 -0.33044878797E+03  0.40292672951E+03  0.00000000000E+00 0. -1.
<mgrwt>
<rscale>  4 0.25201119E+03</rscale>
<asrwt>0</asrwt>
<pdfrwt beam="1">  1       21 0.10657547E-01 0.25201119E+03</pdfrwt>
<pdfrwt beam="2">  1       21 0.24985070E+00 0.25201119E+03</pdfrwt>
<totfact> 0.45717536E+03</totfact>
</mgrwt>
</event>
<event>
 5    0  0.4257006E+000  0.2330534E+03  0.7546771E-02  0.1124509E+00
         21   -1    0    0  504  501  0.00000000000E+00  0.00000000000E+00  0.10466094232E+03  0.10466094232E+03  0.00000000000E+00 0. -1.
         21   -1    0    0  503  502 -0.00000000000E+00 -0.00000000000E+00 -0.97162563101E+03  0.97162563101E+03  0.00000000000E+00 0. -1.
         25    1    1    2    0    0 -0.36446329750E+02 -0.19746888911E+03 -0.66116377198E+02  0.24559860026E+03  0.12500000000E+03 0.  0.
         21    1    1    2  503  501  0.16003532537E+02  0.18125999853E+03 -0.56927818152E+03  0.59765286586E+03  0.00000000000E+00 0. -1.
         21    1    1    2  504  502  0.20442797212E+02  0.16208890582E+02 -0.23157012998E+03  0.23303510720E+03  0.00000000000E+00 0. -1.
<mgrwt>
<rscale>  4 0.23305343E+03</rscale>
<asrwt>0</asrwt>
<pdfrwt beam="1">  1       21 0.16101684E-01 0.23305343E+03</pdfrwt>
<pdfrwt beam="2">  1       21 0.14948087E+00 0.23305343E+03</pdfrwt>
<totfact> 0.10102230E+04</totfact>
</mgrwt>
</event>
<event>
 5    0  0.4257006E+000  0.2741985E+03  0.7546771E-02  0.1098900E+00
         21   -1    0    0  503  501  0.00000000000E+00  0.00000000000E+00  0.45447452687E+03  0.45447452687E+03  0.00000000000E+00 0.  1.
         21   -1    0    0  504  502 -0.00000000000E+00 -0.00000000000E+00 -0.94422683296E+03  0.94422683296E+03  0.00000000000E+00 0.  1.
         25    1    1    2    0    0 -0.24846470026E+03  0.62538777031E+01  0.38344267231E+03  0.47373737577E+03  0.12500000000E+03 0.  0.
         21    1    1    2  503  502  0.18023585070E+03  0.74456608290E+02 -0.63748597611E+03  0.66664617162E+03  0.00000000000E+00 0.  1.
         21    1    1    2  504  501  0.68228849562E+02 -0.80710485993E+02 -0.23570900229E+03  0.25831781244E+03  0.00000000000E+00 0.  1.
<mgrwt>
<rscale>  4 0.27419848E+03</rscale>
<asrwt>0</asrwt>
<pdfrwt beam="1">  1       21 0.69919158E-01 0.27419848E+03</pdfrwt>
<pdfrwt beam="2">  1       21 0.14526567E+00 0.27419848E+03</pdfrwt>
<totfact> 0.55916217E+02</totfact>
</mgrwt>
</event>
<event>
 5    0  0.4257006E+000  0.3473984E+03  0.7546771E-02  0.1063688E+00
         21   -1    0    0  504  501  0.00000000000E+00  0.00000000000E+00  0.14026438375E+04  0.14026438375E+04  0.00000000000E+00 0. -1.
         21   -1    0    0  501  502 -0.00000000000E+00 -0.00000000000E+00 -0.22059813528E+03  0.22059813528E+03  0.00000000000E+00 0.  1.
         25    1    1    2    0    0  0.22588404106E+03 -0.23439412141E+03  0.12291154472E+04  0.12776204392E+04  0.12500000000E+03 0.  0.
         21    1    1    2  503  502  0.97927839942E+01  0.25813959829E+02 -0.57272208167E+01  0.28196811854E+02  0.00000000000E+00 0. -1.
         21    1    1    2  504  503 -0.23567682505E+03  0.20858016158E+03 -0.41342524126E+02  0.31742472174E+03  0.00000000000E+00 0.  1.
<mgrwt>
<rscale>  4 0.34739845E+03</rscale>
<asrwt>0</asrwt>
<pdfrwt beam="1">  1       21 0.21579135E+00 0.34739845E+03</pdfrwt>
<pdfrwt beam="2">  1       21 0.33938176E-01 0.34739845E+03</pdfrwt>
<totfact> 0.78088889E+02</totfact>
</mgrwt>
</event>
<event>
 5    0  0.4257006E+000  0.2636745E+03  0.7546771E-02  0.1104955E+00
         21   -1    0    0  503  501  0.00000000000E+00  0.00000000000E+00  0.33419059882E+03  0.33419059882E+03  0.00000000000E+00 0. -1.
         21   -1    0    0  504  502 -0.00000000000E+00 -0.00000000000E+00 -0.27506741674E+03  0.27506741674E+03  0.00000000000E+00 0. -1.
         25    1    1    2    0    0  0.20781187713E+03 -0.13706287216E+03  0.40341881416E+02  0.28146842558E+03  0.12500000000E+03 0.  0.
         21    1    1    2  503  502 -0.44642151657E+02 -0.14981763076E+02 -0.72790173409E+02  0.86693623032E+02  0.00000000000E+00 0. -1.
         21    1    1    2  504  501 -0.16316972547E+03  0.15204463523E+03  0.91571474074E+02  0.24109596695E+03  0.00000000000E+00 0. -1.
<mgrwt>
<rscale>  4 0.26367445E+03</rscale>
<asrwt>0</asrwt>
<pdfrwt beam="1">  1       21 0.51413938E-01 0.26367445E+03</pdfrwt>
<pdfrwt beam="2">  1       21 0.42318064E-01 0.26367445E+03</pdfrwt>
<totfact> 0.18591830E+04</totfact>
</mgrwt>
</event>
<event>
 5    0  0.4257006E+000  0.2876079E+03  0.7546771E-02  0.1091605E+00
         21   -1    0    0  502  501  0.00000000000E+00  0.00000000000E+00  0.11125347271E+04  0.11125347271E+04  0.00000000000E+00 0.  1.
         21   -1    0    0  503  502 -0.00000000000E+00 -0.00000000000E+00 -0.21946638014E+03  0.21946638014E+03  0.00000000000E+00 0.  1.
         25    1    1    2    0    0 -0.23153733088E+03 -0.12591804835E+03  0.98483039516E+03  0.10271225816E+04  0.12500000000E+03 0.  0.
         21    1    1    2  503  504  0.21084224829E+03  0.74468838160E+02 -0.10624323138E+03  0.24756349839E+03  0.00000000000E+00 0.  1.
         21    1    1    2  504  501  0.20695082591E+02  0.51449210189E+02  0.14481183137E+02  0.57315027153E+02  0.00000000000E+00 0.  1.
<mgrwt>
<rscale>  4 0.28760789E+03</rscale>
<asrwt>0</asrwt>
<pdfrwt beam="1">  1       21 0.17115919E+00 0.28760789E+03</pdfrwt>
<pdfrwt beam="2">  1       21 0.33764059E-01 0.28760789E+03</pdfrwt>
<totfact> 0.16346637E+03</totfact>
</mgrwt>
</event>
<event>
 5    0  0.4257006E+000  0.4049121E+03  0.7546771E-02  0.1042092E+00
         21   -1    0    0  503  501  0.00000000000E+00  0.00000000000E+00  0.35796907410E+03  0.35796907410E+03  0.00000000000E+00 0.  1.
         21   -1    0    0  504  502 -0.00000000000E+00 -0.00000000000E+00 -0.11253878488E+04  0.11253878488E+04  0.00000000000E+00 0.  1.
         25    1    1    2    0    0  0.14451913634E+03 -0.35631238385E+03 -0.44816272309E+03  0.60358853702E+03  0.12500000000E+03 0.  0.
         21    1    1    2  503  502  0.14066223913E+03  0.86077439495E+02 -0.43907530906E+03  0.46902272667E+03  0.00000000000E+00 0.  1.
         21    1    1    2  504  501 -0.28518137547E+03  0.27023494436E+03  0.11981925748E+03  0.41074565917E+03  0.00000000000E+00 0.  1.
<mgrwt>
<rscale>  4 0.40491206E+03</rscale>
<asrwt>0</asrwt>
<pdfrwt beam="1">  1       21 0.55072164E-01 0.40491206E+03</pdfrwt>
<pdfrwt beam="2">  1       21 0.17313660E+00 0.40491206E+03</pdfrwt>
<totfact> 0.53552203E+02</totfact>
</mgrwt>
</event>
<event>
 5    0  0.4257006E+000  0.2854230E+03  0.7546771E-02  0.1092763E+00
         21   -1    0    0  504  501  0.00000000000E+00  0.00000000000E+00  0.51597512569E+03  0.51597512569E+03  0.00000000000E+00 0.  1.
         21   -1    0    0  503  502 -0.00000000000E+00 -0.00000000000E+00 -0.47990930232E+03  0.47990930232E+03  0.00000000000E+00 0.  1.
         25    1    1    2    0    0  0.27545666857E+02 -0.25720716041E+03  0.39650593968E+03  0.48964910633E+03  0.12500000000E+03 0.  0.
         21    1    1    2  503  501 -0.83115594262E+02  0.23769137892E+03 -0.16242157123E+03  0.29964338876E+03  0.00000000000E+00 0.  1.
         21    1    1    2  504  502  0.55569927405E+02  0.19515781492E+02 -0.19801854507E+03  0.20659193293E+03  0.00000000000E+00 0.  1.
<mgrwt>
<rscale>  4 0.28542303E+03</rscale>
<asrwt>0</asrwt>
<pdfrwt beam="1">  1       21 0.79380789E-01 0.28542303E+03</pdfrwt>
<pdfrwt beam="2">  1       21 0.73832200E-01 0.28542303E+03</pdfrwt>
<totfact> 0.21509819E+03</totfact>
</mgrwt>
</event>
<event>
 5    0  0.4257006E+000  0.3038238E+03  0.7546771E-02  0.1083345E+00
         21   -1    0    0  503  501  0.00000000000E+00  0.00000000000E+00  0.47089931925E+03  0.47089931925E+03  0.00000000000E+00 0.  1.
         21   -1    0    0  504  502 -0.00000000000E+00 -0.00000000000E+00 -0.11435946894E+04  0.11435946894E+04  0.00000000000E+00 0. -1.
         25    1    1    2    0    0 -0.52951310454E+01 -0.25798106524E+03  0.51074421856E+02  0.29123163462E+03  0.12500000000E+03 0.  0.
         21    1    1    2  503  502 -0.22871481878E+02  0.28742031798E+03  0.22987395304E+03  0.36874866529E+03  0.00000000000E+00 0.  1.
         21    1    1    2  504  501  0.28166612924E+02 -0.29439252736E+02 -0.95364374507E+03  0.95451370875E+03  0.00000000000E+00 0. -1.
<mgrwt>
<rscale>  4 0.30382379E+03</rscale>
<asrwt>0</asrwt>
<pdfrwt beam="1">  1       21 0.72446050E-01 0.30382379E+03</pdfrwt>
<pdfrwt beam="2">  1       21 0.17593764E+00 0.30382379E+03</pdfrwt>
<totfact> 0.29866900E+02</totfact>
</mgrwt>
</event>
<event>
 5    0  0.4257006E+000  0.2447168E+03  0.7546771E-02  0.1116690E+00
         21   -1    0    0  504  501  0.00000000000E+00  0.00000000000E+00  0.99396432089E+03  0.99396432089E+03  0.00000000000E+00 0. -1.
         21   -1    0    0  501  502 -0.00000000000E+00 -0.00000000000E+00 -0.20564579475E+03  0.20564579475E+03  0.00000000000E+00 0.  1.
         25    1    1    2    0    0  0.18062158303E+03 -0.11916506067E+03  0.89309599735E+03  0.92739955166E+03  0.12500000000E+03 0.  0.
         21    1    1    2  503  502 -0.73439569323E+02  0.14128450331E+00  0.11431126738E+02  0.74324026816E+02  0.00000000000E+00 0.  1.
         21    1    1    2  504  503 -0.10718201371E+03  0.11902377616E+03 -0.11620859795E+03  0.19788653717E+03  0.00000000000E+00 0.  1.
<mgrwt>
<rscale>  4 0.24471682E+03</rscale>
<asrwt>0</asrwt>
<pdfrwt beam="1">  1       21 0.15291758E+00 0.24471682E+03</pdfrwt>
<pdfrwt beam="2">  1       21 0.31637815E-01 0.24471682E+03</pdfrwt>
<totfact> 0.26116162E+03</totfact>
</mgrwt>
</event>
<event>
 5    0  0.4257006E+000  0.3274888E+03  0.7546771E-02  0.1072253E+00
         21   -1    0    0  504  501  0.00000000000E+00  0.00000000000E+00  0.47284869088E+03  0.47284869088E+03  0.00000000000E+00 0.  1.
         21   -1    0    0  501  502 -0.00000000000E+00 -0.00000000000E+00 -0.85058098824E+03  0.85058098824E+03  0.00000000000E+00 0.  1.
         25    1    1    2    0    0 -0.11154008980E+03 -0.28139423590E+03  0.38086775894E+03  0.50230384971E+03  0.12500000000E+03 0.  0.
         21    1    1    2  503  502  0.11907339832E+03  0.22489328431E+03 -0.57286900510E+03  0.62684476589E+03  0.00000000000E+00 0.  1.
         21    1    1    2  504  503 -0.75333085189E+01  0.56500951588E+02 -0.18573105120E+03  0.19428106353E+03  0.00000000000E+00 0. -1.
<mgrwt>
<rscale>  4 0.32748879E+03</rscale>
<asrwt>0</asrwt>
<pdfrwt beam="1">  1       21 0.72745952E-01 0.32748879E+03</pdfrwt>
<pdfrwt beam="2">  1       21 0.13085861E+00 0.32748879E+03</pdfrwt>
<totfact> 0.64729675E+02</totfact>
</mgrwt>
</event>
<event>
 5    0  0.4257006E+000  0.2628935E+03  0.7546771E-02  0.1105417E+00
         21   -1    0    0  504  501  0.00000000000E+00  0.00000000000E+00  0.91089935464E+03  0.91089935464E+03  0.00000000000E+00 0.  1.
         21   -1    0    0  503  502 -0.00000000000E+00 -0.00000000000E+00 -0.19803862414E+03  0.19803862414E+03  0.00000000000E+00 0.  1.
         25    1    1    2    0    0  0.19375250957E+03  0.21254520701E+03  0.53491891603E+03  0.62006350216E+03  0.12500000000E+03 0.  0.
         21    1    1    2  503  501 -0.12080652707E+03 -0.14992189736E+03  0.28566278094E+03  0.34449095301E+03  0.00000000000E+00 0.  1.
         21    1    1    2  504  502 -0.72945982505E+02 -0.62623309650E+02 -0.10772096646E+03  0.14438352361E+03  0.00000000000E+00 0.  1.
<mgrwt>
<rscale>  4 0.26289353E+03</rscale>
<asrwt>0</asrwt>
<pdfrwt beam="1">  1       21 0.14013836E+00 0.26289353E+03</pdfrwt>
<pdfrwt beam="2">  1       21 0.30467481E-01 0.26289353E+03</pdfrwt>
<totfact> 0.34978903E+03</totfact>
</mgrwt>
</event>
<event>
 5    0  0.4257006E+000  0.2501623E+03  0.7546771E-02  0.1113202E+00
         21   -1    0    0  504  501  0.00000000000E+00  0.00000000000E+00  0.43590913676E+02  0.43590913676E+02  0.00000000000E+00 0. -1.
         21   -1    0    0  501  502 -0.00000000000E+00 -0.00000000000E+00 -0.16450401640E+04  0.16450401640E+04  0.00000000000E+00 0. -1.
         25    1    1    2    0    0  0.36531945704E+02  0.21359210439E+03 -0.43821139786E+03  0.50458933731E+03  0.12500000000E+03 0.  0.
         21    1    1    2  503  502 -0.44780640990E+02 -0.18879219807E+03 -0.10549097738E+04  0.10726054404E+04  0.00000000000E+00 0. -1.
         21    1    1    2  504  503  0.82486952853E+01 -0.24799906326E+02 -0.10832807857E+03  0.11143629990E+03  0.00000000000E+00 0. -1.
<mgrwt>
<rscale>  4 0.25016229E+03</rscale>
<asrwt>0</asrwt>
<pdfrwt beam="1">  1       21 0.67062940E-02 0.25016229E+03</pdfrwt>
<pdfrwt beam="2">  1       21 0.25308312E+00 0.25016229E+03</pdfrwt>
<totfact> 0.98876778E+03</totfact>
</mgrwt>
</event>
<event>
 5    0  0.4257006E+000  0.2779438E+03  0.7546771E-02  0.1096817E+00
         21   -1    0    0  504  501  0.00000000000E+00  0.00000000000E+00  0.14673707994E+04  0.14673707994E+04  0.00000000000E+00 0.  1.
         21   -1    0    0  503  502 -0.00000000000E+00 -0.00000000000E+00 -0.17675638083E+03  0.17675638083E+03  0.00000000000E+00 0.  1.
         25    1    1    2    0    0  0.10735897249E+03  0.22398312875E+03  0.13077693860E+04  0.13370041727E+04  0.12500000000E+03 0.  0.
         21    1    1    2  503  501 -0.66985150791E+02 -0.24151520591E+03  0.17294801006E+02  0.25122841251E+03  0.00000000000E+00 0.  1.
         21    1    1    2  504  502 -0.40373821703E+02  0.17532077159E+02 -0.34449768412E+02  0.55894595017E+02  0.00000000000E+00 0. -1.
<mgrwt>
<rscale>  4 0.27794377E+03</rscale>
<asrwt>0</asrwt>
<pdfrwt beam="1">  1       21 0.22574935E+00 0.27794377E+03</pdfrwt>
<pdfrwt beam="2">  1       21 0.27193290E-01 0.27794377E+03</pdfrwt>
<totfact> 0.11006856E+03</totfact>
</mgrwt>
</event>
<event>
 5    0  0.4257006E+000  0.2471127E+03  0.7546771E-02  0.1115143E+00
         21   -1    0    0  504  501  0.00000000000E+00  0.00000000000E+00  0.49766137523E+03  0.49766137523E+03  0.00000000000E+00 0.  1.
         21   -1    0    0  501  502 -0.00000000000E+00 -0.00000000000E+00 -0.23814879535E+03  0.23814879535E+03  0.00000000000E+00 0. -1.
         25    1    1    2    0    0 -0.21266766559E+03  0.14565418797E+02  0.40167603114E+03  0.47160186747E+03  0.12500000000E+03 0.  0.
         21    1    1    2  503  502  0.17224133952E+03 -0.24245956313E+02 -0.85187240272E+02  0.19367966166E+03  0.00000000000E+00 0. -1.
         21    1    1    2  504  503  0.40426326078E+02  0.96805375165E+01 -0.56976210979E+02  0.70528641446E+02  0.00000000000E+00 0. -1.
<mgrwt>
<rscale>  4 0.24711270E+03</rscale>
<asrwt>0</asrwt>
<pdfrwt beam="1">  1       21 0.76563289E-01 0.24711270E+03</pdfrwt>
<pdfrwt beam="2">  1       21 0.36638276E-01 0.24711270E+03</pdfrwt>
<totfact> 0.10542768E+04</totfact>
</mgrwt>
</event>
<event>
 5    0  0.4257006E+000  0.2851140E+03  0.7546771E-02  0.1092928E+00
         21   -1    0    0  503  501  0.00000000000E+00  0.00000000000E+00  0.11622126873E+04  0.11622126873E+04  0.00000000000E+00 0.  1.
         21   -1    0    0  504  502 -0.00000000000E+00 -0.00000000000E+00 -0.34868861020E+03  0.34868861020E+03  0.00000000000E+00 0.  1.
         25    1    1    2    0    0  0.14816769769E+03  0.20998993543E+03  0.10699559947E+04  0.11074656971E+04  0.12500000000E+03 0.  0.
         21    1    1    2  503  502 -0.24066189041E+02  0.54963671872E+01 -0.11446446393E+03  0.11709613576E+03  0.00000000000E+00 0.  1.
         21    1    1    2  504  501 -0.12410150865E+03 -0.21548630261E+03 -0.14196745373E+03  0.28633946459E+03  0.00000000000E+00 0.  1.
<mgrwt>
<rscale>  4 0.28511401E+03</rscale>
<asrwt>0</asrwt>
<pdfrwt beam="1">  1       21 0.17880195E+00 0.28511401E+03</pdfrwt>
<pdfrwt beam="2">  1       21 0.53644402E-01 0.28511401E+03</pdfrwt>
<totfact> 0.55786966E+02</totfact>
</mgrwt>
</event>
<event>
 5    0  0.4257006E+000  0.2730557E+03  0.7546771E-02  0.1099543E+00
         21   -1    0    0  503  501  0.00000000000E+00  0.00000000000E+00  0.11984435744E+03  0.11984435744E+03  0.00000000000E+00 0. -1.
         21   -1    0    0  504  502 -0.00000000000E+00 -0.00000000000E+00 -0.78364534845E+03  0.78364534845E+03  0.00000000000E+00 0. -1.
         25    1    1    2    0    0 -0.11681070944E+03  0.23887895410E+03 -0.22956891167E+03  0.37287368070E+03  0.12500000000E+03 0.  0.
         21    1    1    2  503  502  0.95382838943E+02 -0.20061892559E+03 -0.22256251835E+03  0.31445176711E+03  0.00000000000E+00 0. -1.
         21    1    1    2  504  501  0.21427870492E+02 -0.38260028513E+02 -0.21166956100E+03  0.21616425807E+03  0.00000000000E+00 0. -1.
<mgrwt>
<rscale>  4 0.27305566E+03</rscale>
<asrwt>0</asrwt>
<pdfrwt beam="1">  1       21 0.18437594E-01 0.27305566E+03</pdfrwt>
<pdfrwt beam="2">  1       21 0.12056082E+00 0.27305566E+03</pdfrwt>
<totfact> 0.13366162E+04</totfact>
</mgrwt>
</event>
<event>
 5    0  0.4257006E+000  0.2742694E+03  0.7546771E-02  0.1098861E+00
         21   -1    0    0  504  501  0.00000000000E+00  0.00000000000E+00  0.15778442613E+03  0.15778442613E+03  0.00000000000E+00 0. -1.
         21   -1    0    0  501  502 -0.00000000000E+00 -0.00000000000E+00 -0.74905756332E+03  0.74905756332E+03  0.00000000000E+00 0.  1.
         25    1    1    2    0    0  0.51945989954E+02 -0.23956221597E+03 -0.90694756019E+02  0.28972224623E+03  0.12500000000E+03 0.  0.
         21    1    1    2  503  502 -0.97128192960E+02 -0.11087232933E+02 -0.20383827313E+03  0.22606825119E+03  0.00000000000E+00 0.  1.
         21    1    1    2  504  503  0.45182203005E+02  0.25064944890E+03 -0.29674010804E+03  0.39105149204E+03  0.00000000000E+00 0.  1.
<mgrwt>
<rscale>  4 0.27426936E+03</rscale>
<asrwt>0</asrwt>
<pdfrwt beam="1">  1       21 0.24274528E-01 0.27426936E+03</pdfrwt>
<pdfrwt beam="2">  1       21 0.11523962E+00 0.27426936E+03</pdfrwt>
<totfact> 0.88776522E+03</totfact>
</mgrwt>
</event>
<event>
 5    0  0.4257006E+000  0.2440315E+03  0.7546771E-02  0.1117136E+00
         21   -1    0    0  504  501  0.00000000000E+00  0.00000000000E+00  0.13945352528E+04  0.13945352528E+04  0.00000000000E+00 0. -1.
         21   -1    0    0  503  502 -0.00000000000E+00 -0.00000000000E+00 -0.45730174894E+02  0.45730174894E+02  0.00000000000E+00 0. -1.
         25    1    1    2    0    0 -0.30097699344E+02 -0.21508201621E+03  0.84503841849E+03  0.88140857377E+03  0.12500000000E+03 0.  0.
         21    1    1    2  503  501 -0.67518098361E+00  0.20201628741E+03  0.46882517616E+03  0.51049787663E+03  0.00000000000E+00 0. -1.
         21    1    1    2  504  502  0.30772880328E+02  0.13065728800E+02  0.34941483291E+02  0.48358977319E+02  0.00000000000E+00 0.  1.
<mgrwt>
<rscale>  4 0.24403146E+03</rscale>
<asrwt>0</asrwt>
<pdfrwt beam="1">  1       21 0.21454385E+00 0.24403146E+03</pdfrwt>
<pdfrwt beam="2">  1       21 0.70354126E-02 0.24403146E+03</pdfrwt>
<totfact> 0.15687489E+04</totfact>
</mgrwt>
</event>
<event>
 5    0  0.4257006E+000  0.3229302E+03  0.7546771E-02  0.1074309E+00
         21   -1    0    0  503  501  0.00000000000E+00  0.00000000000E+00  0.74722679739E+03  0.74722679739E+03  0.00000000000E+00 0.  1.
         21   -1    0    0  504  502 -0.00000000000E+00 -0.00000000000E+00 -0.80175353776E+03  0.80175353776E+03  0.00000000000E+00 0.  1.
         25    1    1    2    0    0 -0.29464175847E+03 -0.22700601043E+01  0.62952477414E+03  0.70621905969E+03  0.12500000000E+03 0.  0.
         21    1    1    2  503  502 -0.30642552907E+02  0.25064418715E+02 -0.42356042214E+03  0.42540642019E+03  0.00000000000E+00 0.  1.
         21    1    1    2  504  501  0.32528431138E+03 -0.22794358611E+02 -0.26049109237E+03  0.41735485527E+03  0.00000000000E+00 0.  1.
<mgrwt>
<rscale>  4 0.32293024E+03</rscale>
<asrwt>0</asrwt>
<pdfrwt beam="1">  1       21 0.11495797E+00 0.32293024E+03</pdfrwt>
<pdfrwt beam="2">  1       21 0.12334670E+00 0.32293024E+03</pdfrwt>
<totfact> 0.25631439E+02</totfact>
</mgrwt>
</event>
<event>
 5    0  0.4257006E+000  0.3220361E+03  0.7546771E-02  0.1074716E+00
         21   -1    0    0  503  501  0.00000000000E+00  0.00000000000E+00  0.25770839273E+03  0.25770839273E+03  0.00000000000E+00 0.  1.
         21   -1    0    0  504  502 -0.00000000000E+00 -0.00000000000E+00 -0.42427114015E+03  0.42427114015E+03  0.00000000000E+00 0.  1.
         25    1    1    2    0    0  0.10417952246E+03  0.28614718072E+03 -0.18983161197E+02  0.32972555609E+03  0.12500000000E+03 0.  0.
         21    1    1    2  503  502 -0.80304679481E+02 -0.27634156041E+03 -0.11313795930E+03  0.30921464615E+03  0.00000000000E+00 0.  1.
         21    1    1    2  504  501 -0.23874842982E+02 -0.98056203025E+01 -0.34441626925E+02  0.43039330643E+02  0.00000000000E+00 0. -1.
<mgrwt>
<rscale>  4 0.32203610E+03</rscale>
<asrwt>0</asrwt>
<pdfrwt beam="1">  1       21 0.39647445E-01 0.32203610E+03</pdfrwt>
<pdfrwt beam="2">  1       21 0.65272482E-01 0.32203610E+03</pdfrwt>
<totfact> 0.12381879E+04</totfact>
</mgrwt>
</event>
<event>
 5    0  0.4257006E+000  0.2627240E+03  0.7546771E-02  0.1105518E+00
         21   -1    0    0  504  501  0.00000000000E+00  0.00000000000E+00  0.34623567809E+03  0.34623567809E+03  0.00000000000E+00 0. -1.
         21   -1    0    0  501  502 -0.00000000000E+00 -0.00000000000E+00 -0.21091112374E+03  0.21091112374E+03  0.00000000000E+00 0.  1.
         25    1    1    2    0    0 -0.17909615732E+03  0.15898407743E+03  0.12422591445E+03  0.29733558190E+03  0.12500000000E+03 0.  0.
         21    1    1    2  503  502  0.33770631356E+02  0.93126775594E+01 -0.10063456303E+02  0.36447971936E+02  0.00000000000E+00 0. -1.
         21    1    1    2  504  503  0.14532552596E+03 -0.16829675499E+03  0.21162096206E+02  0.22336324799E+03  0.00000000000E+00 0.  1.
<mgrwt>
<rscale>  4 0.26272395E+03</rscale>
<asrwt>0</asrwt>
<pdfrwt beam="1">  1       21 0.53267027E-01 0.26272395E+03</pdfrwt>
<pdfrwt beam="2">  1       21 0.32447865E-01 0.26272395E+03</pdfrwt>
<totfact> 0.29470908E+04</totfact>
</mgrwt>
</event>
<event>
 5    0  0.4257006E+000  0.3180244E+03  0.7546771E-02  0.1076562E+00
         21   -1    0    0  503  501  0.00000000000E+00  0.00000000000E+00  0.77278535407E+03  0.77278535407E+03  0.00000000000E+00 0.  1.
         21   -1    0    0  504  502 -0.00000000000E+00 -0.00000000000E+00 -0.21407593454E+03  0.21407593454E+03  0.00000000000E+00 0.  1.
         25    1    1    2    0    0  0.81657091896E+02 -0.28367130745E+03  0.51853781859E+03  0.60962591860E+03  0.12500000000E+03 0.  0.
         21    1    1    2  503  502 -0.11839188215E+03  0.26281056483E+03  0.99032119901E+02  0.30478417203E+03  0.00000000000E+00 0.  1.
         21    1    1    2  504  501  0.36734790253E+02  0.20860742619E+02 -0.58860518952E+02  0.72451197981E+02  0.00000000000E+00 0.  1.
<mgrwt>
<rscale>  4 0.31802444E+03</rscale>
<asrwt>0</asrwt>
<pdfrwt beam="1">  1       21 0.11889005E+00 0.31802444E+03</pdfrwt>
<pdfrwt beam="2">  1       21 0.32934759E-01 0.31802444E+03</pdfrwt>
<totfact> 0.44238852E+03</totfact>
</mgrwt>
</event>
<event>
 5    0  0.4257006E+000  0.2587120E+03  0.7546771E-02  0.1107920E+00
         21   -1    0    0  503  501  0.00000000000E+00  0.00000000000E+00  0.10492156952E+04  0.10492156952E+04  0.00000000000E+00 0.  1.
         21   -1    0    0  504  502 -0.00000000000E+00 -0.00000000000E+00 -0.15199333916E+03  0.15199333916E+03  0.00000000000E+00 0.  1.
         25    1    1    2    0    0  0.37531250589E+02  0.21620664365E+03  0.87317337177E+03  0.90896129989E+03  0.12500000000E+03 0.  0.
         21    1    1    2  503  502  0.33118057902E+00 -0.22765755702E+03 -0.25235766543E+02  0.22905221427E+03  0.00000000000E+00 0.  1.
         21    1    1    2  504  501 -0.37862431168E+02  0.11450913366E+02  0.49284750850E+02  0.63195520231E+02  0.00000000000E+00 0.  1.
<mgrwt>
<rscale>  4 0.25871199E+03</rscale>
<asrwt>0</asrwt>
<pdfrwt beam="1">  1       21 0.16141779E+00 0.25871199E+03</pdfrwt>
<pdfrwt beam="2">  1       21 0.23383591E-01 0.25871199E+03</pdfrwt>
<totfact> 0.40152675E+03</totfact>
</mgrwt>
</event>
<event>
 5    0  0.4257006E+000  0.2669628E+03  0.7546771E-02  0.1103031E+00
         21   -1    0    0  503  501  0.00000000000E+00  0.00000000000E+00  0.18300833274E+04  0.18300833274E+04  0.00000000000E+00 0. -1.
         21   -1    0    0  504  502 -0.00000000000E+00 -0.00000000000E+00 -0.12870160063E+03  0.12870160063E+03  0.00000000000E+00 0.  1.
         25    1    1    2    0    0  0.17279557146E+03  0.15595895309E+03  0.13295944448E+04  0.13555913441E+04  0.12500000000E+03 0.  0.
         21    1    1    2  503  502 -0.51949636377E+02 -0.23476488991E+03  0.43152495935E+02  0.24428560367E+03  0.00000000000E+00 0.  1.
         21    1    1    2  504  501 -0.12084593508E+03  0.78805936822E+02  0.32863478602E+03  0.35890798025E+03  0.00000000000E+00 0.  1.
<mgrwt>
<rscale>  4 0.26696278E+03</rscale>
<asrwt>0</asrwt>
<pdfrwt beam="1">  1       21 0.28155126E+00 0.26696278E+03</pdfrwt>
<pdfrwt beam="2">  1       21 0.19800248E-01 0.26696278E+03</pdfrwt>
<totfact> 0.94375365E+02</totfact>
</mgrwt>
</event>
<event>
 5    0  0.4257006E+000  0.2327685E+03  0.7546771E-02  0.1124706E+00
         21   -1    0    0  503  501  0.00000000000E+00  0.00000000000E+00  0.24430833924E+03  0.24430833924E+03  0.00000000000E+00 0.  1.
         21   -1    0    0  504  502 -0.00000000000E+00 -0.00000000000E+00 -0.44956803008E+03  0.44956803008E+03  0.00000000000E+00 0.  1.
         25    1    1    2    0    0 -0.19823332042E+03  0.39467215751E+02  0.14235235878E+03  0.27702581918E+03  0.12500000000E+03 0.  0.
         21    1    1    2  503  502  0.15754505347E+03 -0.62033447792E+02 -0.32184287505E+03  0.36366389529E+03  0.00000000000E+00 0.  1.
         21    1    1    2  504  501  0.40688266946E+02  0.22566232041E+02 -0.25769174574E+02  0.53186654847E+02  0.00000000000E+00 0.  1.
<mgrwt>
<rscale>  4 0.23276847E+03</rscale>
<asrwt>0</asrwt>
<pdfrwt beam="1">  1       21 0.37585898E-01 0.23276847E+03</pdfrwt>
<pdfrwt beam="2">  1       21 0.69164313E-01 0.23276847E+03</pdfrwt>
<totfact> 0.12668094E+04</totfact>
</mgrwt>
</event>
<event>
 5    0  0.4257006E+000  0.6253266E+03  0.7546771E-02  0.9854211E-01
         21   -1    0    0  504  501  0.00000000000E+00  0.00000000000E+00  0.14400110629E+04  0.14400110629E+04  0.00000000000E+00 0.  1.
         21   -1    0    0  501  502 -0.00000000000E+00 -0.00000000000E+00 -0.40938320623E+03  0.40938320623E+03  0.00000000000E+00 0.  1.
         25    1    1    2    0    0 -0.61659013761E+03 -0.71968235895E+02  0.85299737382E+03  0.10623522695E+04  0.12500000000E+03 0.  0.
         21    1    1    2  503  502  0.18370060360E+02  0.40712430871E+02 -0.11279467193E+03  0.12131611254E+03  0.00000000000E+00 0.  1.
         21    1    1    2  504  503  0.59822007725E+03  0.31255805023E+02  0.29042515475E+03  0.66572588704E+03  0.00000000000E+00 0.  1.
<mgrwt>
<rscale>  4 0.62532664E+03</rscale>
<asrwt>0</asrwt>
<pdfrwt beam="1">  1       21 0.22154016E+00 0.62532664E+03</pdfrwt>
<pdfrwt beam="2">  1       21 0.62982032E-01 0.62532664E+03</pdfrwt>
<totfact> 0.16987929E+02</totfact>
</mgrwt>
</event>
<event>
 5    0  0.4257006E+000  0.4306082E+03  0.7546771E-02  0.1033668E+00
         21   -1    0    0  503  501  0.00000000000E+00  0.00000000000E+00  0.90546824014E+03  0.90546824014E+03  0.00000000000E+00 0.  1.
         21   -1    0    0  504  502 -0.00000000000E+00 -0.00000000000E+00 -0.50967720682E+03  0.50967720682E+03  0.00000000000E+00 0.  1.
         25    1    1    2    0    0  0.40987451831E+03  0.27606977894E+03  0.55303112526E+03  0.75211705812E+03  0.12500000000E+03 0.  0.
         21    1    1    2  503  502 -0.18649804108E+03 -0.26375814648E+03  0.84250140405E+02  0.33383823226E+03  0.00000000000E+00 0.  1.
         21    1    1    2  504  501 -0.22337647723E+03 -0.12311632462E+02 -0.24149023234E+03  0.32919015658E+03  0.00000000000E+00 0.  1.
<mgrwt>
<rscale>  4 0.43060824E+03</rscale>
<asrwt>0</asrwt>
<pdfrwt beam="1">  1       21 0.13930281E+00 0.43060824E+03</pdfrwt>
<pdfrwt beam="2">  1       21 0.78411878E-01 0.43060824E+03</pdfrwt>
<totfact> 0.43792877E+02</totfact>
</mgrwt>
</event>
<event>
 5    0  0.4257006E+000  0.1905278E+03  0.7546771E-02  0.1157986E+00
         21   -1    0    0  504  501  0.00000000000E+00  0.00000000000E+00  0.47425901591E+02  0.47425901591E+02  0.00000000000E+00 0. -1.
         21   -1    0    0  501  502 -0.00000000000E+00 -0.00000000000E+00 -0.22422022942E+04  0.22422022942E+04  0.00000000000E+00 0. -1.
         25    1    1    2    0    0  0.22251808221E+03 -0.11385433180E+03 -0.53881342509E+03  0.60697776964E+03  0.12500000000E+03 0.  0.
         21    1    1    2  503  502 -0.11326891461E+03  0.70452205529E+02 -0.13198414593E+04  0.13265650523E+04  0.00000000000E+00 0. -1.
         21    1    1    2  504  503 -0.10924916760E+03  0.43402126270E+02 -0.33612150820E+03  0.35608537384E+03  0.00000000000E+00 0. -1.
<mgrwt>
<rscale>  4 0.19052780E+03</rscale>
<asrwt>0</asrwt>
<pdfrwt beam="1">  1       21 0.72962916E-02 0.19052780E+03</pdfrwt>
<pdfrwt beam="2">  1       21 0.34495424E+00 0.19052780E+03</pdfrwt>
<totfact> 0.26440638E+03</totfact>
</mgrwt>
</event>
<event>
 5    0  0.4257006E+000  0.3227552E+03  0.7546771E-02  0.1074388E+00
         21   -1    0    0  504  501  0.00000000000E+00  0.00000000000E+00  0.58269046233E+03  0.58269046233E+03  0.00000000000E+00 0. -1.
         21   -1    0    0  503  502 -0.00000000000E+00 -0.00000000000E+00 -0.20278103994E+03  0.20278103994E+03  0.00000000000E+00 0.  1.
         25    1    1    2    0    0  0.26868088657E+03 -0.15151871839E+03  0.21404871280E+03  0.39571352300E+03  0.12500000000E+03 0.  0.
         21    1    1    2  503  501 -0.24500051100E+03  0.15248711190E+03  0.19789158159E+03  0.34991234295E+03  0.00000000000E+00 0. -1.
         21    1    1    2  504  502 -0.23680375571E+02 -0.96839350683E+00 -0.32030871998E+02  0.39845636325E+02  0.00000000000E+00 0.  1.
<mgrwt>
<rscale>  4 0.32275516E+03</rscale>
<asrwt>0</asrwt>
<pdfrwt beam="1">  1       21 0.89644686E-01 0.32275516E+03</pdfrwt>
<pdfrwt beam="2">  1       21 0.31197083E-01 0.32275516E+03</pdfrwt>
<totfact> 0.97445702E+03</totfact>
</mgrwt>
</event>
<event>
 5    0  0.4257006E+000  0.3475396E+03  0.7546771E-02  0.1063629E+00
         21   -1    0    0  503  501  0.00000000000E+00  0.00000000000E+00  0.12794547302E+04  0.12794547302E+04  0.00000000000E+00 0.  1.
         21   -1    0    0  504  502 -0.00000000000E+00 -0.00000000000E+00 -0.35228616158E+03  0.35228616158E+03  0.00000000000E+00 0. -1.
         25    1    1    2    0    0  0.31772927435E+03 -0.12366704627E+03  0.10516661708E+04  0.11125970362E+04  0.12500000000E+03 0.  0.
         21    1    1    2  503  502 -0.24594080175E+03  0.11616099969E+03  0.94981764105E+02  0.28810031469E+03  0.00000000000E+00 0.  1.
         21    1    1    2  504  501 -0.71788472602E+02  0.75060465743E+01 -0.21947936632E+03  0.23104354087E+03  0.00000000000E+00 0. -1.
<mgrwt>
<rscale>  4 0.34753957E+03</rscale>
<asrwt>0</asrwt>
<pdfrwt beam="1">  1       21 0.19683919E+00 0.34753957E+03</pdfrwt>
<pdfrwt beam="2">  1       21 0.54197871E-01 0.34753957E+03</pdfrwt>
<totfact> 0.39354505E+02</totfact>
</mgrwt>
</event>
<event>
 5    0  0.4257006E+000  0.2522603E+03  0.7546771E-02  0.1111885E+00
         21   -1    0    0  503  501  0.00000000000E+00  0.00000000000E+00  0.43664094450E+03  0.43664094450E+03  0.00000000000E+00 0. -1.
         21   -1    0    0  504  502 -0.00000000000E+00 -0.00000000000E+00 -0.30134873198E+03  0.30134873198E+03  0.00000000000E+00 0. -1.
         25    1    1    2    0    0 -0.14202912336E+02 -0.25324396881E+03  0.12541649605E+03  0.30933562346E+03  0.12500000000E+03 0.  0.
         21    1    1    2  503  502  0.11070636295E+03  0.66451110955E+02 -0.12431056860E+03  0.17923383166E+03  0.00000000000E+00 0. -1.
         21    1    1    2  504  501 -0.96503450609E+02  0.18679285786E+03  0.13418628507E+03  0.24942022137E+03  0.00000000000E+00 0. -1.
<mgrwt>
<rscale>  4 0.25226034E+03</rscale>
<asrwt>0</asrwt>
<pdfrwt beam="1">  1       21 0.67175531E-01 0.25226034E+03</pdfrwt>
<pdfrwt beam="2">  1       21 0.46361343E-01 0.25226034E+03</pdfrwt>
<totfact> 0.87035583E+03</totfact>
</mgrwt>
</event>
