<event>
 5    0  0.1911311E+001  0.2754520E+03  0.7546771E-02  0.1098199E+00
         21   -1    0    0  504  501  0.00000000000E+00  0.00000000000E+00  0.23623157255E+04  0.23623157255E+04  0.00000000000E+00 0. -1.
         21   -1    0    0  503  502 -0.00000000000E+00 -0.00000000000E+00 -0.10286796470E+03  0.10286796470E+03  0.00000000000E+00 0.  1.
         25    1    1    2    0    0  0.27239895887E+03  0.83262160378E+01  0.18017566930E+03  0.34979821394E+03  0.12500000000E+03 0.  0.
         21    1    1    2  503  501 -0.19074035345E+03 -0.26315338131E+01  0.51864796047E+03  0.55261606410E+03  0.00000000000E+00 0.  1.
         21    1    1    2  504  502 -0.81658605422E+02 -0.56946822248E+01  0.15606241310E+04  0.15627694121E+04  0.00000000000E+00 0. -1.
<mgrwt>
<rscale>  4 0.27545200E+03</rscale>
<asrwt>0</asrwt>
<pdfrwt beam="1">  1       21 0.36343315E+00 0.27545200E+03</pdfrwt>
<pdfrwt beam="2">  1       21 0.15825842E-01 0.27545200E+03</pdfrwt>
<totfact> 0.46459278E+02</totfact>
</mgrwt>
</event>
<event>
 5    0  0.1911311E+001  0.3159264E+03  0.7546771E-02  0.1077540E+00
         21   -1    0    0  504  501  0.00000000000E+00  0.00000000000E+00  0.44832791508E+03  0.44832791508E+03  0.00000000000E+00 0. -1.
         21   -1    0    0  503  502 -0.00000000000E+00 -0.00000000000E+00 -0.10103455045E+04  0.10103455045E+04  0.00000000000E+00 0. -1.
         25    1    1    2    0    0 -0.33865080869E+03 -0.93608854090E+02  0.26859846659E+03  0.45958364206E+03  0.12500000000E+03 0.  0.
         21    1    1    2  503  501  0.28514121119E+03  0.28383989772E+02 -0.86253475726E+03  0.90888798467E+03  0.00000000000E+00 0. -1.
         21    1    1    2  504  502  0.53509597499E+02  0.65224864318E+02  0.31918701220E+02  0.90201792872E+02  0.00000000000E+00 0. -1.
<mgrwt>
<rscale>  4 0.31592641E+03</rscale>
<asrwt>0</asrwt>
<pdfrwt beam="1">  1       21 0.68973526E-01 0.31592641E+03</pdfrwt>
<pdfrwt beam="2">  1       21 0.15543777E+00 0.31592641E+03</pdfrwt>
<totfact> 0.46630674E+02</totfact>
</mgrwt>
</event>
<event>
 5    0  0.2285926E+001  0.2886365E+03  0.7546771E-02  0.1091063E+00
         21   -1    0    0  502  501  0.00000000000E+00  0.00000000000E+00  0.23013329892E+03  0.23013329892E+03  0.00000000000E+00 0. -1.
         21   -1    0    0  504  502 -0.00000000000E+00 -0.00000000000E+00 -0.44565878688E+03  0.44565878688E+03  0.00000000000E+00 0. -1.
         25    1    1    2    0    0 -0.26557312378E+03 -0.40690241078E+02  0.38414115010E+01  0.29635204780E+03  0.12500000000E+03 0.  0.
         21    1    1    2  503  501  0.24376109994E+03  0.50352938136E+02 -0.11828933557E+03  0.27558530282E+03  0.00000000000E+00 0. -1.
         21    1    1    2  504  503  0.21812023841E+02 -0.96626970578E+01 -0.10107756389E+03  0.10385473518E+03  0.00000000000E+00 0. -1.
<mgrwt>
<rscale>  4 0.28863649E+03</rscale>
<asrwt>0</asrwt>
<pdfrwt beam="1">  1       21 0.35405123E-01 0.28863649E+03</pdfrwt>
<pdfrwt beam="2">  1       21 0.68562889E-01 0.28863649E+03</pdfrwt>
<totfact> 0.14162107E+04</totfact>
</mgrwt>
</event>
<event>
 5    0  0.1911311E+001  0.2825392E+03  0.7546771E-02  0.1094310E+00
         21   -1    0    0  502  501  0.00000000000E+00  0.00000000000E+00  0.23861979394E+03  0.23861979394E+03  0.00000000000E+00 0.  1.
         21   -1    0    0  504  502 -0.00000000000E+00 -0.00000000000E+00 -0.34272552699E+03  0.34272552699E+03  0.00000000000E+00 0.  1.
         25    1    1    2    0    0  0.20535950627E+03  0.14842801704E+03 -0.13584730595E+03  0.31350102646E+03  0.12500000000E+03 0.  0.
         21    1    1    2  503  501 -0.16487459635E+03 -0.11987734884E+03  0.57779252319E+02  0.21187886465E+03  0.00000000000E+00 0.  1.
         21    1    1    2  504  503 -0.40484909927E+02 -0.28550668200E+02 -0.26037679415E+02  0.55965429827E+02  0.00000000000E+00 0.  1.
<mgrwt>
<rscale>  4 0.28253921E+03</rscale>
<asrwt>0</asrwt>
<pdfrwt beam="1">  1       21 0.36710737E-01 0.28253921E+03</pdfrwt>
<pdfrwt beam="2">  1       21 0.52727004E-01 0.28253921E+03</pdfrwt>
<totfact> 0.23338740E+04</totfact>
</mgrwt>
</event>
<event>
 5    0  0.1911311E+001  0.2374599E+03  0.7546771E-02  0.1121497E+00
         21   -1    0    0  502  501  0.00000000000E+00  0.00000000000E+00  0.44122916896E+03  0.44122916896E+03  0.00000000000E+00 0. -1.
         21   -1    0    0  504  502 -0.00000000000E+00 -0.00000000000E+00 -0.73773763835E+03  0.73773763835E+03  0.00000000000E+00 0.  1.
         25    1    1    2    0    0  0.21808569383E+03  0.19918003631E+02  0.28823441756E+03  0.38296498036E+03  0.12500000000E+03 0.  0.
         21    1    1    2  503  501 -0.16901295176E+02 -0.19638608914E+02  0.89087482207E+02  0.92778813448E+02  0.00000000000E+00 0.  1.
         21    1    1    2  504  503 -0.20118439865E+03 -0.27939471741E+00 -0.67383036915E+03  0.70322301350E+03  0.00000000000E+00 0.  1.
<mgrwt>
<rscale>  4 0.23745988E+03</rscale>
<asrwt>0</asrwt>
<pdfrwt beam="1">  1       21 0.67881411E-01 0.23745988E+03</pdfrwt>
<pdfrwt beam="2">  1       21 0.11349810E+00 0.23745988E+03</pdfrwt>
<totfact> 0.11518564E+03</totfact>
</mgrwt>
</event>
