<event>
 5    0  0.1856407E+000  0.2651119E+03  0.7546771E-02  0.1104110E+00
         21   -1    0    0  502  501  0.00000000000E+00  0.00000000000E+00  0.57572347993E+02  0.57572347993E+02  0.00000000000E+00 0. -1.
         21   -1    0    0  503  502 -0.00000000000E+00 -0.00000000000E+00 -0.11231635007E+04  0.11231635007E+04  0.00000000000E+00 0. -1.
         25    1    1    2    0    0  0.63057599411E+02  0.22512898108E+03 -0.55831278811E+03  0.61805945372E+03  0.12500000000E+03 0.  0.
         21    1    1    2  503  504  0.29657062197E+01 -0.68027877742E+02 -0.20047189447E+03  0.21172049508E+03  0.00000000000E+00 0. -1.
         21    1    1    2  504  501 -0.66023305630E+02 -0.15710110334E+03 -0.30680647007E+03  0.35095589984E+03  0.00000000000E+00 0. -1.
<mgrwt>
<rscale>  4 0.26511190E+03</rscale>
<asrwt>0</asrwt>
<pdfrwt beam="1">  1       21 0.88572842E-02 0.26511190E+03</pdfrwt>
<pdfrwt beam="2">  1       21 0.17279439E+00 0.26511190E+03</pdfrwt>
<totfact> 0.19586498E+04</totfact>
</mgrwt>
</event>
<event>
 5    0  0.1856407E+000  0.2559472E+03  0.7546771E-02  0.1109603E+00
         21   -1    0    0  502  501  0.00000000000E+00  0.00000000000E+00  0.14870303789E+04  0.14870303789E+04  0.00000000000E+00 0.  1.
         21   -1    0    0  503  502 -0.00000000000E+00 -0.00000000000E+00 -0.40260790636E+02  0.40260790636E+02  0.00000000000E+00 0.  1.
         25    1    1    2    0    0  0.18873812139E+03 -0.11942313615E+03  0.68961150544E+03  0.73557663934E+03  0.12500000000E+03 0.  0.
         21    1    1    2  503  504 -0.52402416036E+02  0.43502365215E+02  0.14853868361E+03  0.16340810725E+03  0.00000000000E+00 0.  1.
         21    1    1    2  504  501 -0.13633570535E+03  0.75920770934E+02  0.60861939918E+03  0.62830642291E+03  0.00000000000E+00 0.  1.
<mgrwt>
<rscale>  4 0.25594719E+03</rscale>
<asrwt>0</asrwt>
<pdfrwt beam="1">  1       21 0.22877386E+00 0.25594719E+03</pdfrwt>
<pdfrwt beam="2">  1       21 0.61939689E-02 0.25594719E+03</pdfrwt>
<totfact> 0.15837613E+04</totfact>
</mgrwt>
</event>
<event>
 5    0  0.1856407E+000  0.3442274E+03  0.7546771E-02  0.1065010E+00
         21   -1    0    0  502  501  0.00000000000E+00  0.00000000000E+00  0.47797379164E+03  0.47797379164E+03  0.00000000000E+00 0.  1.
         21   -1    0    0  503  502 -0.00000000000E+00 -0.00000000000E+00 -0.24721114196E+03  0.24721114196E+03  0.00000000000E+00 0.  1.
         25    1    1    2    0    0 -0.25365823307E+03 -0.19627791376E+03  0.18215781571E+03  0.38945344838E+03  0.12500000000E+03 0.  0.
         21    1    1    2  503  504  0.11256459822E+03  0.11709675929E+03  0.60907957248E+02  0.17347109000E+03  0.00000000000E+00 0.  1.
         21    1    1    2  504  501  0.14109363484E+03  0.79181154473E+02 -0.12303123270E+02  0.16226039523E+03  0.00000000000E+00 0.  1.
<mgrwt>
<rscale>  4 0.34422742E+03</rscale>
<asrwt>0</asrwt>
<pdfrwt beam="1">  1       21 0.73534429E-01 0.34422742E+03</pdfrwt>
<pdfrwt beam="2">  1       21 0.38032483E-01 0.34422742E+03</pdfrwt>
<totfact> 0.10238067E+04</totfact>
</mgrwt>
</event>
<event>
 5    0  0.1856407E+000  0.3503782E+03  0.7546771E-02  0.1062460E+00
         21   -1    0    0  502  501  0.00000000000E+00  0.00000000000E+00  0.17650295222E+03  0.17650295222E+03  0.00000000000E+00 0. -1.
         21   -1    0    0  503  502 -0.00000000000E+00 -0.00000000000E+00 -0.66678449880E+03  0.66678449880E+03  0.00000000000E+00 0. -1.
         25    1    1    2    0    0 -0.23425163320E+03  0.22861763907E+03 -0.27877405465E+03  0.44774973601E+03  0.12500000000E+03 0.  0.
         21    1    1    2  503  504  0.54558350560E+02 -0.83530613284E+02 -0.90987950617E+02  0.13502882703E+03  0.00000000000E+00 0. -1.
         21    1    1    2  504  501  0.17969328264E+03 -0.14508702579E+03 -0.12051954131E+03  0.26050888798E+03  0.00000000000E+00 0. -1.
<mgrwt>
<rscale>  4 0.35037816E+03</rscale>
<asrwt>0</asrwt>
<pdfrwt beam="1">  1       21 0.27154301E-01 0.35037816E+03</pdfrwt>
<pdfrwt beam="2">  1       21 0.10258223E+00 0.35037816E+03</pdfrwt>
<totfact> 0.91777047E+03</totfact>
</mgrwt>
</event>
<event>
 5    0  0.1856407E+000  0.3026836E+03  0.7546771E-02  0.1083907E+00
         21   -1    0    0  502  501  0.00000000000E+00  0.00000000000E+00  0.35395695186E+03  0.35395695186E+03  0.00000000000E+00 0.  1.
         21   -1    0    0  503  502 -0.00000000000E+00 -0.00000000000E+00 -0.43917722810E+03  0.43917722810E+03  0.00000000000E+00 0.  1.
         25    1    1    2    0    0  0.76451606957E+02 -0.26485380261E+03  0.22197871980E+03  0.37535574727E+03  0.12500000000E+03 0.  0.
         21    1    1    2  503  504  0.94939333721E+00  0.36999878437E+02 -0.73703733762E+02  0.82475043028E+02  0.00000000000E+00 0.  1.
         21    1    1    2  504  501 -0.77401000295E+02  0.22785392418E+03 -0.23349526228E+03  0.33530338966E+03  0.00000000000E+00 0.  1.
<mgrwt>
<rscale>  4 0.30268364E+03</rscale>
<asrwt>0</asrwt>
<pdfrwt beam="1">  1       21 0.54454916E-01 0.30268364E+03</pdfrwt>
<pdfrwt beam="2">  1       21 0.67565727E-01 0.30268364E+03</pdfrwt>
<totfact> 0.59647737E+03</totfact>
</mgrwt>
</event>
<event>
 5    0  0.1856407E+000  0.2605359E+03  0.7546771E-02  0.1106822E+00
         21   -1    0    0  502  501  0.00000000000E+00  0.00000000000E+00  0.19005893258E+04  0.19005893258E+04  0.00000000000E+00 0.  1.
         21   -1    0    0  503  502 -0.00000000000E+00 -0.00000000000E+00 -0.51746459510E+02  0.51746459510E+02  0.00000000000E+00 0.  1.
         25    1    1    2    0    0 -0.10687822029E+03 -0.20206678735E+03  0.15487665568E+04  0.15705275508E+04  0.12500000000E+03 0.  0.
         21    1    1    2  503  504  0.27191581245E+02  0.46695235630E+02  0.11665438772E+03  0.12856155450E+03  0.00000000000E+00 0.  1.
         21    1    1    2  504  501  0.79686639044E+02  0.15537155172E+03  0.18342192178E+03  0.25324667997E+03  0.00000000000E+00 0.  1.
<mgrwt>
<rscale>  4 0.26053587E+03</rscale>
<asrwt>0</asrwt>
<pdfrwt beam="1">  1       21 0.29239830E+00 0.26053587E+03</pdfrwt>
<pdfrwt beam="2">  1       21 0.79609952E-02 0.26053587E+03</pdfrwt>
<totfact> 0.42695979E+03</totfact>
</mgrwt>
</event>
<event>
 5    0  0.1856407E+000  0.4615964E+03  0.7546771E-02  0.1024319E+00
         21   -1    0    0  502  501  0.00000000000E+00  0.00000000000E+00  0.46261439306E+03  0.46261439306E+03  0.00000000000E+00 0.  1.
         21   -1    0    0  503  502 -0.00000000000E+00 -0.00000000000E+00 -0.91401267298E+03  0.91401267298E+03  0.00000000000E+00 0.  1.
         25    1    1    2    0    0  0.54757748718E+01  0.44431550440E+03  0.26151686061E+03  0.53053022529E+03  0.12500000000E+03 0.  0.
         21    1    1    2  503  504 -0.38441853946E+02 -0.26584781614E+03 -0.48849049821E+03  0.55747269379E+03  0.00000000000E+00 0.  1.
         21    1    1    2  504  501  0.32966079075E+02 -0.17846768826E+03 -0.22442464232E+03  0.28862414695E+03  0.00000000000E+00 0.  1.
<mgrwt>
<rscale>  4 0.46159642E+03</rscale>
<asrwt>0</asrwt>
<pdfrwt beam="1">  1       21 0.71171445E-01 0.46159642E+03</pdfrwt>
<pdfrwt beam="2">  1       21 0.14061733E+00 0.46159642E+03</pdfrwt>
<totfact> 0.52501360E+02</totfact>
</mgrwt>
</event>
<event>
 5    0  0.1856407E+000  0.2825395E+03  0.7546771E-02  0.1094310E+00
         21   -1    0    0  502  501  0.00000000000E+00  0.00000000000E+00  0.94198950899E+03  0.94198950899E+03  0.00000000000E+00 0. -1.
         21   -1    0    0  503  502 -0.00000000000E+00 -0.00000000000E+00 -0.25340680124E+03  0.25340680124E+03  0.00000000000E+00 0. -1.
         25    1    1    2    0    0  0.25423523532E+03 -0.30737983018E+02  0.78704820730E+03  0.83704854046E+03  0.12500000000E+03 0.  0.
         21    1    1    2  503  504 -0.22025983620E+03  0.95145838068E+02 -0.13665772085E+03  0.27612036979E+03  0.00000000000E+00 0. -1.
         21    1    1    2  504  501 -0.33975399123E+02 -0.64407855050E+02  0.38192221303E+02  0.82227399970E+02  0.00000000000E+00 0.  1.
<mgrwt>
<rscale>  4 0.28253951E+03</rscale>
<asrwt>0</asrwt>
<pdfrwt beam="1">  1       21 0.14492146E+00 0.28253951E+03</pdfrwt>
<pdfrwt beam="2">  1       21 0.38985662E-01 0.28253951E+03</pdfrwt>
<totfact> 0.19315784E+03</totfact>
</mgrwt>
</event>
<event>
 5    0  0.1856407E+000  0.5767718E+03  0.7546771E-02  0.9956628E-01
         21   -1    0    0  502  501  0.00000000000E+00  0.00000000000E+00  0.93856731795E+03  0.93856731795E+03  0.00000000000E+00 0. -1.
         21   -1    0    0  503  502 -0.00000000000E+00 -0.00000000000E+00 -0.76874791671E+03  0.76874791671E+03  0.00000000000E+00 0.  1.
         25    1    1    2    0    0 -0.30455875385E+03  0.46951902191E+03  0.71303265374E+03  0.91501077141E+03  0.12500000000E+03 0.  0.
         21    1    1    2  503  504  0.84080838579E+02 -0.59872496195E+02 -0.15587085209E+03  0.18694925982E+03  0.00000000000E+00 0.  1.
         21    1    1    2  504  501  0.22047791528E+03 -0.40964652572E+03 -0.38734240041E+03  0.60535520342E+03  0.00000000000E+00 0.  1.
<mgrwt>
<rscale>  4 0.57593611E+03</rscale>
<asrwt>0</asrwt>
<pdfrwt beam="1">  1       21 0.14439497E+00 0.57677181E+03</pdfrwt>
<pdfrwt beam="2">  1       21 0.11826891E+00 0.57677181E+03</pdfrwt>
<totfact> 0.13814419E+02</totfact>
</mgrwt>
</event>
<event>
 5    0  0.2633479E+000  0.2954715E+03  0.7546771E-02  0.1087527E+00
         21   -1    0    0  502  501  0.00000000000E+00  0.00000000000E+00  0.39123542576E+03  0.39123542576E+03  0.00000000000E+00 0.  1.
         21   -1    0    0  503  502 -0.00000000000E+00 -0.00000000000E+00 -0.33700462442E+03  0.33700462442E+03  0.00000000000E+00 0.  1.
         25    1    1    2    0    0  0.19847344375E+03  0.17416030078E+03  0.23028585106E+03  0.37199474652E+03  0.12500000000E+03 0.  0.
         21    1    1    2  503  504 -0.22080270535E+03 -0.15350497113E+03 -0.18269950238E+03  0.32511031823E+03  0.00000000000E+00 0.  1.
         21    1    1    2  504  501  0.22329261599E+02 -0.20655329646E+02  0.66444526621E+01  0.31134985426E+02  0.00000000000E+00 0.  1.
<mgrwt>
<rscale>  4 0.29547154E+03</rscale>
<asrwt>0</asrwt>
<pdfrwt beam="1">  1       21 0.60190065E-01 0.29547154E+03</pdfrwt>
<pdfrwt beam="2">  1       21 0.51846865E-01 0.29547154E+03</pdfrwt>
<totfact> 0.85617230E+03</totfact>
</mgrwt>
</event>
<event>
 5    0  0.1856407E+000  0.3024430E+03  0.7546771E-02  0.1084026E+00
         21   -1    0    0  502  501  0.00000000000E+00  0.00000000000E+00  0.35104966599E+03  0.35104966599E+03  0.00000000000E+00 0. -1.
         21   -1    0    0  503  502 -0.00000000000E+00 -0.00000000000E+00 -0.38950214529E+03  0.38950214529E+03  0.00000000000E+00 0.  1.
         25    1    1    2    0    0 -0.86809406442E+02  0.26136355711E+03  0.20742994356E+03  0.36674100332E+03  0.12500000000E+03 0.  0.
         21    1    1    2  503  504  0.67439729339E+02 -0.12691657383E+03 -0.10411047588E+03  0.17746809571E+03  0.00000000000E+00 0.  1.
         21    1    1    2  504  501  0.19369677104E+02 -0.13444698328E+03 -0.14177194697E+03  0.19634271225E+03  0.00000000000E+00 0.  1.
<mgrwt>
<rscale>  4 0.30244302E+03</rscale>
<asrwt>0</asrwt>
<pdfrwt beam="1">  1       21 0.54007641E-01 0.30244302E+03</pdfrwt>
<pdfrwt beam="2">  1       21 0.59923407E-01 0.30244302E+03</pdfrwt>
<totfact> 0.79002042E+03</totfact>
</mgrwt>
</event>
