<event>
 5    0  0.1856407E+000  0.2671598E+03  0.7546771E-02  0.1102916E+00
         21   -1    0    0  502  501  0.00000000000E+00  0.00000000000E+00  0.84525222085E+02  0.84525222085E+02  0.00000000000E+00 0. -1.
         21   -1    0    0  503  502 -0.00000000000E+00 -0.00000000000E+00 -0.77825906621E+03  0.77825906621E+03  0.00000000000E+00 0.  1.
         25    1    1    2    0    0 -0.88115519700E+02 -0.21905484589E+03 -0.32220508351E+03  0.41855762586E+03  0.12500000000E+03 0.  0.
         21    1    1    2  503  504  0.70234414004E+02  0.17387646559E+03 -0.24386828788E+03  0.30763231304E+03  0.00000000000E+00 0.  1.
         21    1    1    2  504  501  0.17881105696E+02  0.45178380307E+02 -0.12766047274E+03  0.13659434940E+03  0.00000000000E+00 0.  1.
<mgrwt>
<rscale>  4 0.26715982E+03</rscale>
<asrwt>0</asrwt>
<pdfrwt beam="1">  1       21 0.13003881E-01 0.26715982E+03</pdfrwt>
<pdfrwt beam="2">  1       21 0.11973216E+00 0.26715982E+03</pdfrwt>
<totfact> 0.25929135E+04</totfact>
</mgrwt>
</event>
<event>
 5    0  0.1856407E+000  0.2441387E+03  0.7546771E-02  0.1117066E+00
         21   -1    0    0  502  501  0.00000000000E+00  0.00000000000E+00  0.68134140234E+03  0.68134140234E+03  0.00000000000E+00 0. -1.
         21   -1    0    0  503  502 -0.00000000000E+00 -0.00000000000E+00 -0.20238863378E+03  0.20238863378E+03  0.00000000000E+00 0. -1.
         25    1    1    2    0    0 -0.17179561887E+03 -0.12027030599E+03  0.59218364731E+03  0.64053505236E+03  0.12500000000E+03 0.  0.
         21    1    1    2  503  504  0.13426031498E+03  0.94115333967E+02 -0.64057376721E+02  0.17603089438E+03  0.00000000000E+00 0. -1.
         21    1    1    2  504  501  0.37535303894E+02  0.26154972019E+02 -0.49173502025E+02  0.67164089372E+02  0.00000000000E+00 0. -1.
<mgrwt>
<rscale>  4 0.24413865E+03</rscale>
<asrwt>0</asrwt>
<pdfrwt beam="1">  1       21 0.10482175E+00 0.24413865E+03</pdfrwt>
<pdfrwt beam="2">  1       21 0.31136713E-01 0.24413865E+03</pdfrwt>
<totfact> 0.70164283E+03</totfact>
</mgrwt>
</event>
<event>
 5    0  0.1856407E+000  0.3131940E+03  0.7546771E-02  0.1078825E+00
         21   -1    0    0  502  501  0.00000000000E+00  0.00000000000E+00  0.16766598781E+03  0.16766598781E+03  0.00000000000E+00 0.  1.
         21   -1    0    0  503  502 -0.00000000000E+00 -0.00000000000E+00 -0.56198990758E+03  0.56198990758E+03  0.00000000000E+00 0.  1.
         25    1    1    2    0    0 -0.14031059636E+03 -0.25055618269E+03 -0.15169765010E+03  0.34799804766E+03  0.12500000000E+03 0.  0.
         21    1    1    2  503  504  0.70035459182E+02  0.90847049555E+02 -0.61490335728E+02  0.13015073317E+03  0.00000000000E+00 0.  1.
         21    1    1    2  504  501  0.70275137174E+02  0.15970913313E+03 -0.18113593394E+03  0.25150711456E+03  0.00000000000E+00 0.  1.
<mgrwt>
<rscale>  4 0.31319397E+03</rscale>
<asrwt>0</asrwt>
<pdfrwt beam="1">  1       21 0.25794767E-01 0.31319397E+03</pdfrwt>
<pdfrwt beam="2">  1       21 0.86459987E-01 0.31319397E+03</pdfrwt>
<totfact> 0.15452562E+04</totfact>
</mgrwt>
</event>
<event>
 5    0  0.1856407E+000  0.2942047E+03  0.7546771E-02  0.1088174E+00
         21   -1    0    0  502  501  0.00000000000E+00  0.00000000000E+00  0.11697959907E+04  0.11697959907E+04  0.00000000000E+00 0. -1.
         21   -1    0    0  503  502 -0.00000000000E+00 -0.00000000000E+00 -0.61329699685E+03  0.61329699685E+03  0.00000000000E+00 0. -1.
         25    1    1    2    0    0  0.94568521364E+02 -0.24213899156E+03  0.10025493191E+04  0.10432184017E+04  0.12500000000E+03 0.  0.
         21    1    1    2  503  504 -0.13640131317E+03  0.39484985012E+03 -0.39116389047E+03  0.57229442735E+03  0.00000000000E+00 0. -1.
         21    1    1    2  504  501  0.41832791802E+02 -0.15271085856E+03 -0.54886434775E+02  0.16758015847E+03  0.00000000000E+00 0.  1.
<mgrwt>
<rscale>  4 0.29420465E+03</rscale>
<asrwt>0</asrwt>
<pdfrwt beam="1">  1       21 0.17996861E+00 0.29420465E+03</pdfrwt>
<pdfrwt beam="2">  1       21 0.94353384E-01 0.29420465E+03</pdfrwt>
<totfact> 0.15351810E+02</totfact>
</mgrwt>
</event>
<event>
 5    0  0.1856407E+000  0.2299679E+03  0.7546771E-02  0.1126662E+00
         21   -1    0    0  502  501  0.00000000000E+00  0.00000000000E+00  0.36990357806E+03  0.36990357806E+03  0.00000000000E+00 0. -1.
         21   -1    0    0  503  502 -0.00000000000E+00 -0.00000000000E+00 -0.17470025675E+03  0.17470025675E+03  0.00000000000E+00 0.  1.
         25    1    1    2    0    0 -0.20419807849E+03 -0.46017612791E+02  0.11677298784E+03  0.27032463194E+03  0.12500000000E+03 0.  0.
         21    1    1    2  503  504  0.41921131040E+02 -0.47773854604E+02  0.57453229911E+02  0.85677278427E+02  0.00000000000E+00 0.  1.
         21    1    1    2  504  501  0.16227694745E+03  0.93791467396E+02  0.20977103554E+02  0.18860192444E+03  0.00000000000E+00 0.  1.
<mgrwt>
<rscale>  4 0.22996793E+03</rscale>
<asrwt>0</asrwt>
<pdfrwt beam="1">  1       21 0.56908243E-01 0.22996793E+03</pdfrwt>
<pdfrwt beam="2">  1       21 0.26876963E-01 0.22996793E+03</pdfrwt>
<totfact> 0.37549628E+04</totfact>
</mgrwt>
</event>
<event>
 5    0  0.1727980E+001  0.2754643E+03  0.7546771E-02  0.1098192E+00
         21   -1    0    0  502  501  0.00000000000E+00  0.00000000000E+00  0.20555099844E+03  0.20555099844E+03  0.00000000000E+00 0. -1.
         21   -1    0    0  503  502 -0.00000000000E+00 -0.00000000000E+00 -0.34095036914E+03  0.34095036914E+03  0.00000000000E+00 0. -1.
         25    1    1    2    0    0 -0.24513689443E+03  0.12786178521E+02 -0.10412223408E+03  0.29448603193E+03  0.12500000000E+03 0.  0.
         21    1    1    2  503  504  0.22611170833E+03 -0.24429515982E+02 -0.32173548618E+02  0.22969206152E+03  0.00000000000E+00 0. -1.
         21    1    1    2  504  501  0.19025186103E+02  0.11643337461E+02  0.89641200316E+00  0.22323274132E+02  0.00000000000E+00 0.  1.
<mgrwt>
<rscale>  4 0.27546431E+03</rscale>
<asrwt>0</asrwt>
<pdfrwt beam="1">  1       21 0.31623231E-01 0.27546431E+03</pdfrwt>
<pdfrwt beam="2">  1       21 0.52453903E-01 0.27546431E+03</pdfrwt>
<totfact> 0.31872913E+04</totfact>
</mgrwt>
</event>
<event>
 5    0  0.1856407E+000  0.3027811E+03  0.7546771E-02  0.1083859E+00
         21   -1    0    0  502  501  0.00000000000E+00  0.00000000000E+00  0.16428426663E+03  0.16428426663E+03  0.00000000000E+00 0. -1.
         21   -1    0    0  503  502 -0.00000000000E+00 -0.00000000000E+00 -0.12581891485E+04  0.12581891485E+04  0.00000000000E+00 0. -1.
         25    1    1    2    0    0 -0.28526437290E+03 -0.14197306797E+03 -0.11789167296E+03  0.36201596791E+03  0.12500000000E+03 0.  0.
         21    1    1    2  503  504  0.25592855444E+03  0.84880240739E+02 -0.95588500997E+03  0.99318690715E+03  0.00000000000E+00 0. -1.
         21    1    1    2  504  501  0.29335818454E+02  0.57092827226E+02 -0.20128198908E+02  0.67270540033E+02  0.00000000000E+00 0. -1.
<mgrwt>
<rscale>  4 0.30278109E+03</rscale>
<asrwt>0</asrwt>
<pdfrwt beam="1">  1       21 0.25274502E-01 0.30278109E+03</pdfrwt>
<pdfrwt beam="2">  1       21 0.19356757E+00 0.30278109E+03</pdfrwt>
<totfact> 0.20030662E+03</totfact>
</mgrwt>
</event>
<event>
 5    0  0.1856407E+000  0.2413060E+03  0.7546771E-02  0.1118926E+00
         21   -1    0    0  502  501  0.00000000000E+00  0.00000000000E+00  0.94203092689E+03  0.94203092689E+03  0.00000000000E+00 0.  1.
         21   -1    0    0  503  502 -0.00000000000E+00 -0.00000000000E+00 -0.83839435084E+02  0.83839435084E+02  0.00000000000E+00 0. -1.
         25    1    1    2    0    0  0.20055548450E+03 -0.48796114467E+02  0.75356704840E+03  0.79125966635E+03  0.12500000000E+03 0.  0.
         21    1    1    2  503  504 -0.17079497541E+03  0.40450863327E+02  0.10332625658E+03  0.20367501385E+03  0.00000000000E+00 0. -1.
         21    1    1    2  504  501 -0.29760509097E+02  0.83452511401E+01  0.12981868304E+01  0.30935681782E+02  0.00000000000E+00 0. -1.
<mgrwt>
<rscale>  4 0.24130595E+03</rscale>
<asrwt>0</asrwt>
<pdfrwt beam="1">  1       21 0.14492783E+00 0.24130595E+03</pdfrwt>
<pdfrwt beam="2">  1       21 0.12898375E-01 0.24130595E+03</pdfrwt>
<totfact> 0.16347118E+04</totfact>
</mgrwt>
</event>
<event>
 5    0  0.1856407E+000  0.2489595E+03  0.7546771E-02  0.1113964E+00
         21   -1    0    0  502  501  0.00000000000E+00  0.00000000000E+00  0.45508226106E+03  0.45508226106E+03  0.00000000000E+00 0. -1.
         21   -1    0    0  503  502 -0.00000000000E+00 -0.00000000000E+00 -0.27955302654E+03  0.27955302654E+03  0.00000000000E+00 0.  1.
         25    1    1    2    0    0  0.53482344917E+02 -0.25145426444E+03  0.28055417718E+03  0.40053121558E+03  0.12500000000E+03 0.  0.
         21    1    1    2  503  504 -0.29074477458E+01  0.91991654507E+02 -0.13575621222E+03  0.16401422776E+03  0.00000000000E+00 0.  1.
         21    1    1    2  504  501 -0.50574897171E+02  0.15946260994E+03  0.30731269560E+02  0.17008984426E+03  0.00000000000E+00 0.  1.
<mgrwt>
<rscale>  4 0.24895946E+03</rscale>
<asrwt>0</asrwt>
<pdfrwt beam="1">  1       21 0.70012655E-01 0.24895946E+03</pdfrwt>
<pdfrwt beam="2">  1       21 0.43008158E-01 0.24895946E+03</pdfrwt>
<totfact> 0.92913291E+03</totfact>
</mgrwt>
</event>
<event>
 5    0  0.1856407E+000  0.2613782E+03  0.7546771E-02  0.1106318E+00
         21   -1    0    0  502  501  0.00000000000E+00  0.00000000000E+00  0.60408698717E+03  0.60408698717E+03  0.00000000000E+00 0. -1.
         21   -1    0    0  503  502 -0.00000000000E+00 -0.00000000000E+00 -0.12383445976E+03  0.12383445976E+03  0.00000000000E+00 0.  1.
         25    1    1    2    0    0 -0.22115552397E+03  0.61512743822E+02  0.40058928539E+03  0.47832035186E+03  0.12500000000E+03 0.  0.
         21    1    1    2  503  504  0.82552877152E+02 -0.31921338019E+02  0.32080028002E+01  0.88567717758E+02  0.00000000000E+00 0.  1.
         21    1    1    2  504  501  0.13860264682E+03 -0.29591405802E+02  0.76455239220E+02  0.16103337731E+03  0.00000000000E+00 0.  1.
<mgrwt>
<rscale>  4 0.26137824E+03</rscale>
<asrwt>0</asrwt>
<pdfrwt beam="1">  1       21 0.92936457E-01 0.26137824E+03</pdfrwt>
<pdfrwt beam="2">  1       21 0.19051456E-01 0.26137824E+03</pdfrwt>
<totfact> 0.23763315E+04</totfact>
</mgrwt>
</event>
<event>
 5    0  0.2417721E+000  0.2861627E+03  0.7546771E-02  0.1092370E+00
         21   -1    0    0  502  501  0.00000000000E+00  0.00000000000E+00  0.47545241200E+02  0.47545241200E+02  0.00000000000E+00 0. -1.
         21   -1    0    0  503  502 -0.00000000000E+00 -0.00000000000E+00 -0.27332473100E+04  0.27332473100E+04  0.00000000000E+00 0. -1.
         25    1    1    2    0    0  0.24750805718E+03  0.70737929135E+02 -0.47243186280E+03  0.55234134190E+03  0.12500000000E+03 0.  0.
         21    1    1    2  503  504 -0.27658131113E+02 -0.11404743897E+02 -0.36060981261E+03  0.36184869401E+03  0.00000000000E+00 0.  1.
         21    1    1    2  504  501 -0.21984992607E+03 -0.59333185239E+02 -0.18526603934E+04  0.18666025153E+04  0.00000000000E+00 0. -1.
<mgrwt>
<rscale>  4 0.28616270E+03</rscale>
<asrwt>0</asrwt>
<pdfrwt beam="1">  1       21 0.73146526E-02 0.28616270E+03</pdfrwt>
<pdfrwt beam="2">  1       21 0.42049958E+00 0.28616270E+03</pdfrwt>
<totfact> 0.80427415E+02</totfact>
</mgrwt>
</event>
<event>
 5    0  0.1856407E+000  0.2410201E+03  0.7546771E-02  0.1119115E+00
         21   -1    0    0  502  501  0.00000000000E+00  0.00000000000E+00  0.57107130520E+02  0.57107130520E+02  0.00000000000E+00 0. -1.
         21   -1    0    0  503  502 -0.00000000000E+00 -0.00000000000E+00 -0.14499735811E+04  0.14499735811E+04  0.00000000000E+00 0. -1.
         25    1    1    2    0    0  0.21075383210E+03  0.13793397164E+03 -0.59914655945E+03  0.66184934689E+03  0.12500000000E+03 0.  0.
         21    1    1    2  503  504 -0.12492201186E+03 -0.13054429459E+03 -0.35728072495E+03  0.40037087596E+03  0.00000000000E+00 0. -1.
         21    1    1    2  504  501 -0.85831820237E+02 -0.73896770515E+01 -0.43643916617E+03  0.44486048876E+03  0.00000000000E+00 0. -1.
<mgrwt>
<rscale>  4 0.24102006E+03</rscale>
<asrwt>0</asrwt>
<pdfrwt beam="1">  1       21 0.87857127E-02 0.24102006E+03</pdfrwt>
<pdfrwt beam="2">  1       21 0.22307285E+00 0.24102006E+03</pdfrwt>
<totfact> 0.94338087E+03</totfact>
</mgrwt>
</event>
<event>
 5    0  0.1856407E+000  0.2417708E+03  0.7546771E-02  0.1118619E+00
         21   -1    0    0  502  501  0.00000000000E+00  0.00000000000E+00  0.26708656454E+03  0.26708656454E+03  0.00000000000E+00 0.  1.
         21   -1    0    0  503  502 -0.00000000000E+00 -0.00000000000E+00 -0.15493253747E+04  0.15493253747E+04  0.00000000000E+00 0.  1.
         25    1    1    2    0    0 -0.20569702152E+03 -0.22734675894E+02  0.20211330518E+03  0.31512365554E+03  0.12500000000E+03 0.  0.
         21    1    1    2  503  504  0.16950502858E+03 -0.11921864618E+02 -0.99811661746E+03  0.10124775887E+04  0.00000000000E+00 0.  1.
         21    1    1    2  504  501  0.36191992934E+02  0.34656540512E+02 -0.48623549787E+03  0.48881069500E+03  0.00000000000E+00 0.  1.
<mgrwt>
<rscale>  4 0.24177082E+03</rscale>
<asrwt>0</asrwt>
<pdfrwt beam="1">  1       21 0.41090242E-01 0.24177082E+03</pdfrwt>
<pdfrwt beam="2">  1       21 0.23835774E+00 0.24177082E+03</pdfrwt>
<totfact> 0.41932319E+02</totfact>
</mgrwt>
</event>
