<event>
 5    0  0.2349231E+000  0.8239125E+03  0.7546771E-02  0.9526035E-01
         21   -1    0    0  503  501  0.00000000000E+00  0.00000000000E+00  0.12968786468E+04  0.12968786468E+04  0.00000000000E+00 0. -1.
         21   -1    0    0  504  502 -0.00000000000E+00 -0.00000000000E+00 -0.55126518292E+03  0.55126518292E+03  0.00000000000E+00 0.  1.
         25    1    1    2    0    0 -0.29014786383E+03  0.15825674029E+03  0.13431768672E+03  0.37801748597E+03  0.12500000000E+03 0.  0.
         21    1    1    2  503  502  0.26738165148E+03 -0.13232319396E+03 -0.37726183584E+03  0.48096659758E+03  0.00000000000E+00 0.  1.
         21    1    1    2  504  501  0.22766212353E+02 -0.25933546331E+02  0.98855761303E+03  0.98915974621E+03  0.00000000000E+00 0. -1.
<mgrwt>
<rscale>  4 0.82391249E+03</rscale>
<asrwt>0</asrwt>
<pdfrwt beam="1">  1       21 0.19951979E+00 0.82391249E+03</pdfrwt>
<pdfrwt beam="2">  1       21 0.84810029E-01 0.82391249E+03</pdfrwt>
<totfact> 0.11243018E+02</totfact>
</mgrwt>
</event>
<event>
 5    0  0.2349231E+000  0.4891871E+03  0.7546771E-02  0.1016640E+00
         21   -1    0    0  502  501  0.00000000000E+00  0.00000000000E+00  0.28370031903E+03  0.28370031903E+03  0.00000000000E+00 0.  1.
         21   -1    0    0  504  502 -0.00000000000E+00 -0.00000000000E+00 -0.96747506788E+03  0.96747506788E+03  0.00000000000E+00 0. -1.
         25    1    1    2    0    0 -0.97002330140E+02 -0.18518560830E+03 -0.69781321949E+03  0.73910178654E+03  0.12500000000E+03 0.  0.
         21    1    1    2  503  501 -0.36010373941E+02  0.33320950262E+02  0.21897464603E+03  0.22440349454E+03  0.00000000000E+00 0.  1.
         21    1    1    2  504  503  0.13301270408E+03  0.15186465803E+03 -0.20493617540E+03  0.28767010584E+03  0.00000000000E+00 0.  1.
<mgrwt>
<rscale>  4 0.48918713E+03</rscale>
<asrwt>0</asrwt>
<pdfrwt beam="1">  1       21 0.43646204E-01 0.48918713E+03</pdfrwt>
<pdfrwt beam="2">  1       21 0.14884232E+00 0.48918713E+03</pdfrwt>
<totfact> 0.12866536E+03</totfact>
</mgrwt>
</event>
<event>
 5    0  0.2349231E+000  0.1302077E+04  0.7546771E-02  0.9027920E-01
         21   -1    0    0  504  501  0.00000000000E+00  0.00000000000E+00  0.87151710809E+03  0.87151710809E+03  0.00000000000E+00 0.  1.
         21   -1    0    0  503  502 -0.00000000000E+00 -0.00000000000E+00 -0.83539598186E+03  0.83539598186E+03  0.00000000000E+00 0. -1.
         25    1    1    2    0    0 -0.30121775368E+03  0.23163849818E+03  0.36658876620E+03  0.54258718422E+03  0.12500000000E+03 0.  0.
         21    1    1    2  503  501  0.32149182408E+03 -0.23427697041E+03 -0.69415803988E+03  0.80006129525E+03  0.00000000000E+00 0. -1.
         21    1    1    2  504  502 -0.20274070398E+02  0.26384722282E+01  0.36369039992E+03  0.36426461049E+03  0.00000000000E+00 0.  1.
<mgrwt>
<rscale>  4 0.13020765E+04</rscale>
<asrwt>0</asrwt>
<pdfrwt beam="1">  1       21 0.13407956E+00 0.13020765E+04</pdfrwt>
<pdfrwt beam="2">  1       21 0.12852246E+00 0.13020765E+04</pdfrwt>
<totfact> 0.11296908E+02</totfact>
</mgrwt>
</event>
