<event>
 5    0  0.1994886E+000  0.2392095E+03  0.7546771E-02  0.1120321E+00
         21   -1    0    0  502  501  0.00000000000E+00  0.00000000000E+00  0.94745288745E+02  0.94745288745E+02  0.00000000000E+00 0. -1.
         21   -1    0    0  503  502 -0.00000000000E+00 -0.00000000000E+00 -0.60987021394E+03  0.60987021394E+03  0.00000000000E+00 0. -1.
         25    1    1    2    0    0  0.91879922489E+02 -0.18208318673E+03 -0.14699215217E+03  0.28076306709E+03  0.12500000000E+03 0.  0.
         21    1    1    2  503  504 -0.64580472513E+01  0.44972366148E+02 -0.53634785549E+02  0.70291609116E+02  0.00000000000E+00 0. -1.
         21    1    1    2  504  501 -0.85421875238E+02  0.13711082058E+03 -0.31449798748E+03  0.35356082647E+03  0.00000000000E+00 0. -1.
<mgrwt>
<rscale>  4 0.23920955E+03</rscale>
<asrwt>0</asrwt>
<pdfrwt beam="1">  1       21 0.14576199E-01 0.23920955E+03</pdfrwt>
<pdfrwt beam="2">  1       21 0.93826183E-01 0.23920955E+03</pdfrwt>
<totfact> 0.38501323E+04</totfact>
</mgrwt>
</event>
<event>
 5    0  0.1856407E+000  0.1893318E+03  0.7546771E-02  0.1159065E+00
         21   -1    0    0  502  501  0.00000000000E+00  0.00000000000E+00  0.20349968225E+03  0.20349968225E+03  0.00000000000E+00 0.  1.
         21   -1    0    0  503  502 -0.00000000000E+00 -0.00000000000E+00 -0.27977452903E+03  0.27977452903E+03  0.00000000000E+00 0.  1.
         25    1    1    2    0    0 -0.18677317304E+03 -0.72984689100E+02 -0.30995917795E+02  0.23832064521E+03  0.12500000000E+03 0.  0.
         21    1    1    2  503  504  0.73904440740E+02  0.24275451821E+02 -0.85517833686E+02  0.11560477413E+03  0.00000000000E+00 0.  1.
         21    1    1    2  504  501  0.11286873230E+03  0.48709237279E+02  0.40238904695E+02  0.12934879195E+03  0.00000000000E+00 0.  1.
<mgrwt>
<rscale>  4 0.18933180E+03</rscale>
<asrwt>0</asrwt>
<pdfrwt beam="1">  1       21 0.31307644E-01 0.18933180E+03</pdfrwt>
<pdfrwt beam="2">  1       21 0.43042235E-01 0.18933180E+03</pdfrwt>
<totfact> 0.50966171E+04</totfact>
</mgrwt>
</event>
<event>
 5    0  0.1856407E+000  0.2626090E+03  0.7546771E-02  0.1105586E+00
         21   -1    0    0  502  501  0.00000000000E+00  0.00000000000E+00  0.19524880669E+03  0.19524880669E+03  0.00000000000E+00 0.  1.
         21   -1    0    0  503  502 -0.00000000000E+00 -0.00000000000E+00 -0.48120138553E+03  0.48120138553E+03  0.00000000000E+00 0. -1.
         25    1    1    2    0    0 -0.93827281709E+02  0.21103302161E+03  0.48618292658E+02  0.26707158850E+03  0.12500000000E+03 0.  0.
         21    1    1    2  503  504  0.81667587242E+02 -0.16474511115E+03 -0.23070822458E+03  0.29502005244E+03  0.00000000000E+00 0. -1.
         21    1    1    2  504  501  0.12159694467E+02 -0.46287910468E+02 -0.10386264691E+03  0.11435855127E+03  0.00000000000E+00 0. -1.
<mgrwt>
<rscale>  4 0.26260902E+03</rscale>
<asrwt>0</asrwt>
<pdfrwt beam="1">  1       21 0.30038278E-01 0.26260902E+03</pdfrwt>
<pdfrwt beam="2">  1       21 0.74030982E-01 0.26260902E+03</pdfrwt>
<totfact> 0.16735893E+04</totfact>
</mgrwt>
</event>
<event>
 5    0  0.1856407E+000  0.2396691E+03  0.7546771E-02  0.1120013E+00
         21   -1    0    0  502  501  0.00000000000E+00  0.00000000000E+00  0.46019240889E+02  0.46019240889E+02  0.00000000000E+00 0.  1.
         21   -1    0    0  503  502 -0.00000000000E+00 -0.00000000000E+00 -0.20315125018E+04  0.20315125018E+04  0.00000000000E+00 0.  1.
         25    1    1    2    0    0 -0.14609977070E+03 -0.14307744013E+03 -0.32598552712E+03  0.40460828064E+03  0.12500000000E+03 0.  0.
         21    1    1    2  503  504  0.12911393483E+03  0.11012119558E+03 -0.12025866636E+04  0.12145006255E+04  0.00000000000E+00 0.  1.
         21    1    1    2  504  501  0.16985835870E+02  0.32956244549E+02 -0.45692107021E+03  0.45842283656E+03  0.00000000000E+00 0.  1.
<mgrwt>
<rscale>  4 0.23966914E+03</rscale>
<asrwt>0</asrwt>
<pdfrwt beam="1">  1       21 0.70798855E-02 0.23966914E+03</pdfrwt>
<pdfrwt beam="2">  1       21 0.31254028E+00 0.23966914E+03</pdfrwt>
<totfact> 0.40717618E+03</totfact>
</mgrwt>
</event>
<event>
 5    0  0.1856407E+000  0.2750731E+03  0.7546771E-02  0.1098638E+00
         21   -1    0    0  502  501  0.00000000000E+00  0.00000000000E+00  0.43530308528E+03  0.43530308528E+03  0.00000000000E+00 0. -1.
         21   -1    0    0  503  502 -0.00000000000E+00 -0.00000000000E+00 -0.61677767349E+03  0.61677767349E+03  0.00000000000E+00 0. -1.
         25    1    1    2    0    0 -0.23141992614E+03 -0.74799550857E+02  0.35564702172E+03  0.44862006094E+03  0.12500000000E+03 0.  0.
         21    1    1    2  503  504  0.10375564394E+03  0.96188975975E+02 -0.22799929752E+03  0.26833045377E+03  0.00000000000E+00 0. -1.
         21    1    1    2  504  501  0.12766428220E+03 -0.21389425118E+02 -0.30912231240E+03  0.33513024406E+03  0.00000000000E+00 0. -1.
<mgrwt>
<rscale>  4 0.27466651E+03</rscale>
<asrwt>0</asrwt>
<pdfrwt beam="1">  1       21 0.66969705E-01 0.27507306E+03</pdfrwt>
<pdfrwt beam="2">  1       21 0.94888873E-01 0.27507306E+03</pdfrwt>
<totfact> 0.17780675E+03</totfact>
</mgrwt>
</event>
<event>
 5    0  0.4000392E+000  0.2852514E+03  0.7546771E-02  0.1092855E+00
         21   -1    0    0  502  501  0.00000000000E+00  0.00000000000E+00  0.12567931776E+04  0.12567931776E+04  0.00000000000E+00 0.  1.
         21   -1    0    0  503  502 -0.00000000000E+00 -0.00000000000E+00 -0.69556035324E+02  0.69556035324E+02  0.00000000000E+00 0.  1.
         25    1    1    2    0    0 -0.67415610322E+01 -0.26800974639E+03  0.72619188271E+03  0.78412647151E+03  0.12500000000E+03 0.  0.
         21    1    1    2  503  504 -0.34519569833E+01  0.25032506248E+03  0.35600360401E+03  0.43521617500E+03  0.00000000000E+00 0.  1.
         21    1    1    2  504  501  0.10193518016E+02  0.17684683908E+02  0.10504165557E+03  0.10700656644E+03  0.00000000000E+00 0.  1.
<mgrwt>
<rscale>  4 0.28525140E+03</rscale>
<asrwt>0</asrwt>
<pdfrwt beam="1">  1       21 0.19335278E+00 0.28525140E+03</pdfrwt>
<pdfrwt beam="2">  1       21 0.10700929E-01 0.28525140E+03</pdfrwt>
<totfact> 0.10007314E+04</totfact>
</mgrwt>
</event>
<event>
 5    0  0.3217430E+000  0.2649222E+03  0.7546771E-02  0.1104221E+00
         21   -1    0    0  502  501  0.00000000000E+00  0.00000000000E+00  0.20165386580E+04  0.20165386580E+04  0.00000000000E+00 0.  1.
         21   -1    0    0  503  502 -0.00000000000E+00 -0.00000000000E+00 -0.32708309669E+02  0.32708309669E+02  0.00000000000E+00 0.  1.
         25    1    1    2    0    0  0.41600485192E+02  0.22984379311E+03  0.12234903591E+04  0.12518436118E+04  0.12500000000E+03 0.  0.
         21    1    1    2  503  504 -0.16733106928E+02 -0.11074345805E+02  0.67500503865E+02  0.70419855329E+02  0.00000000000E+00 0.  1.
         21    1    1    2  504  501 -0.24867378264E+02 -0.21876944730E+03  0.69283948534E+03  0.72698350052E+03  0.00000000000E+00 0.  1.
<mgrwt>
<rscale>  4 0.26492220E+03</rscale>
<asrwt>0</asrwt>
<pdfrwt beam="1">  1       21 0.31023662E+00 0.26492220E+03</pdfrwt>
<pdfrwt beam="2">  1       21 0.50320492E-02 0.26492220E+03</pdfrwt>
<totfact> 0.73923397E+03</totfact>
</mgrwt>
</event>
<event>
 5    0  0.1856407E+000  0.2531044E+03  0.7546771E-02  0.1111358E+00
         21   -1    0    0  502  501  0.00000000000E+00  0.00000000000E+00  0.16747061828E+04  0.16747061828E+04  0.00000000000E+00 0. -1.
         21   -1    0    0  503  502 -0.00000000000E+00 -0.00000000000E+00 -0.38778738362E+02  0.38778738362E+02  0.00000000000E+00 0. -1.
         25    1    1    2    0    0 -0.38858100006E+02 -0.21662613580E+03  0.57130397932E+03  0.62486004148E+03  0.12500000000E+03 0.  0.
         21    1    1    2  503  504  0.22796065122E+02  0.14186962784E+03  0.55508174726E+03  0.57337805855E+03  0.00000000000E+00 0. -1.
         21    1    1    2  504  501  0.16062034884E+02  0.74756507969E+02  0.50954171782E+03  0.51524682109E+03  0.00000000000E+00 0. -1.
<mgrwt>
<rscale>  4 0.25310439E+03</rscale>
<asrwt>0</asrwt>
<pdfrwt beam="1">  1       21 0.25764705E+00 0.25310439E+03</pdfrwt>
<pdfrwt beam="2">  1       21 0.59659610E-02 0.25310439E+03</pdfrwt>
<totfact> 0.11344756E+04</totfact>
</mgrwt>
</event>
<event>
 5    0  0.1856407E+000  0.2617768E+03  0.7546771E-02  0.1106080E+00
         21   -1    0    0  502  501  0.00000000000E+00  0.00000000000E+00  0.93230765511E+03  0.93230765511E+03  0.00000000000E+00 0. -1.
         21   -1    0    0  503  502 -0.00000000000E+00 -0.00000000000E+00 -0.11571498335E+04  0.11571498335E+04  0.00000000000E+00 0.  1.
         25    1    1    2    0    0 -0.72438650148E+02 -0.21829964483E+03  0.90116410741E+03  0.93841560166E+03  0.12500000000E+03 0.  0.
         21    1    1    2  503  504  0.64470393170E+02  0.19863573394E+03 -0.10845320183E+04  0.11044556510E+04  0.00000000000E+00 0.  1.
         21    1    1    2  504  501  0.79682569779E+01  0.19663910897E+02 -0.41474267497E+02  0.46586235901E+02  0.00000000000E+00 0.  1.
<mgrwt>
<rscale>  4 0.26177680E+03</rscale>
<asrwt>0</asrwt>
<pdfrwt beam="1">  1       21 0.14343195E+00 0.26177680E+03</pdfrwt>
<pdfrwt beam="2">  1       21 0.17802305E+00 0.26177680E+03</pdfrwt>
<totfact> 0.57665888E+01</totfact>
</mgrwt>
</event>
<event>
 5    0  0.1856407E+000  0.3465361E+03  0.7546771E-02  0.1064046E+00
         21   -1    0    0  502  501  0.00000000000E+00  0.00000000000E+00  0.27972326602E+03  0.27972326602E+03  0.00000000000E+00 0. -1.
         21   -1    0    0  503  502 -0.00000000000E+00 -0.00000000000E+00 -0.78373713759E+03  0.78373713759E+03  0.00000000000E+00 0. -1.
         25    1    1    2    0    0 -0.11509369003E+03  0.37174636356E+03 -0.18324873149E+02  0.40914877157E+03  0.12500000000E+03 0.  0.
         21    1    1    2  503  504  0.17414851563E+02 -0.79587546019E+02 -0.27869885490E+01  0.81518230117E+02  0.00000000000E+00 0.  1.
         21    1    1    2  504  501  0.97678838470E+02 -0.29215881754E+03 -0.48290200987E+03  0.57279340192E+03  0.00000000000E+00 0. -1.
<mgrwt>
<rscale>  4 0.34653614E+03</rscale>
<asrwt>0</asrwt>
<pdfrwt beam="1">  1       21 0.43034349E-01 0.34653614E+03</pdfrwt>
<pdfrwt beam="2">  1       21 0.12057494E+00 0.34653614E+03</pdfrwt>
<totfact> 0.24454207E+03</totfact>
</mgrwt>
</event>
<event>
 5    0  0.1856407E+000  0.4844125E+03  0.7546771E-02  0.1018071E+00
         21   -1    0    0  502  501  0.00000000000E+00  0.00000000000E+00  0.31314534449E+03  0.31314534449E+03  0.00000000000E+00 0.  1.
         21   -1    0    0  503  502 -0.00000000000E+00 -0.00000000000E+00 -0.14785899117E+04  0.14785899117E+04  0.00000000000E+00 0. -1.
         25    1    1    2    0    0 -0.42970002352E+03 -0.17995434196E+03  0.48440001883E+02  0.48476500408E+03  0.12500000000E+03 0.  0.
         21    1    1    2  503  504  0.28672004822E+03  0.16689747592E+03 -0.95434750750E+03  0.10103674176E+04  0.00000000000E+00 0. -1.
         21    1    1    2  504  501  0.14297997530E+03  0.13056866040E+02 -0.25953706159E+03  0.29660283449E+03  0.00000000000E+00 0. -1.
<mgrwt>
<rscale>  4 0.48389325E+03</rscale>
<asrwt>0</asrwt>
<pdfrwt beam="1">  1       21 0.48176207E-01 0.48441252E+03</pdfrwt>
<pdfrwt beam="2">  1       21 0.22747537E+00 0.48441252E+03</pdfrwt>
<totfact> 0.29616204E+02</totfact>
</mgrwt>
</event>
<event>
 5    0  0.1856407E+000  0.2380460E+03  0.7546771E-02  0.1121101E+00
         21   -1    0    0  502  501  0.00000000000E+00  0.00000000000E+00  0.12640691195E+03  0.12640691195E+03  0.00000000000E+00 0. -1.
         21   -1    0    0  503  502 -0.00000000000E+00 -0.00000000000E+00 -0.14951150890E+04  0.14951150890E+04  0.00000000000E+00 0. -1.
         25    1    1    2    0    0  0.11872192109E+03  0.16913434067E+03 -0.29210350148E+02  0.24326850247E+03  0.12500000000E+03 0.  0.
         21    1    1    2  503  504  0.41098297177E+02 -0.79311209761E+02 -0.14902099564E+03  0.17374289961E+03  0.00000000000E+00 0. -1.
         21    1    1    2  504  501 -0.15982021827E+03 -0.89823130907E+02 -0.11904768313E+04  0.12045105989E+04  0.00000000000E+00 0. -1.
<mgrwt>
<rscale>  4 0.23804601E+03</rscale>
<asrwt>0</asrwt>
<pdfrwt beam="1">  1       21 0.19447217E-01 0.23804601E+03</pdfrwt>
<pdfrwt beam="2">  1       21 0.23001771E+00 0.23804601E+03</pdfrwt>
<totfact> 0.20315721E+03</totfact>
</mgrwt>
</event>
<event>
 5    0  0.2440853E+000  0.2449385E+03  0.7546771E-02  0.1116546E+00
         21   -1    0    0  502  501  0.00000000000E+00  0.00000000000E+00  0.35175775197E+03  0.35175775197E+03  0.00000000000E+00 0. -1.
         21   -1    0    0  503  502 -0.00000000000E+00 -0.00000000000E+00 -0.15338745129E+03  0.15338745129E+03  0.00000000000E+00 0. -1.
         25    1    1    2    0    0 -0.13510354206E+03 -0.16160729327E+03  0.14461559634E+03  0.28444429159E+03  0.12500000000E+03 0.  0.
         21    1    1    2  503  504  0.23114893544E+02  0.10249393950E+02  0.16416375063E+01  0.25338574419E+02  0.00000000000E+00 0. -1.
         21    1    1    2  504  501  0.11198864851E+03  0.15135789932E+03  0.52113066823E+02  0.19536233725E+03  0.00000000000E+00 0. -1.
<mgrwt>
<rscale>  4 0.24493853E+03</rscale>
<asrwt>0</asrwt>
<pdfrwt beam="1">  1       21 0.54116577E-01 0.24493853E+03</pdfrwt>
<pdfrwt beam="2">  1       21 0.23598070E-01 0.24493853E+03</pdfrwt>
<totfact> 0.53315354E+04</totfact>
</mgrwt>
</event>
<event>
 5    0  0.1856407E+000  0.2780527E+03  0.7546771E-02  0.1096757E+00
         21   -1    0    0  502  501  0.00000000000E+00  0.00000000000E+00  0.49219976210E+03  0.49219976210E+03  0.00000000000E+00 0. -1.
         21   -1    0    0  503  502 -0.00000000000E+00 -0.00000000000E+00 -0.20148564633E+03  0.20148564633E+03  0.00000000000E+00 0. -1.
         25    1    1    2    0    0  0.80446517665E+02  0.23498221301E+03  0.32001436078E+03  0.42393687471E+03  0.12500000000E+03 0.  0.
         21    1    1    2  503  504 -0.70021545969E+02 -0.14552641961E+03  0.26711838152E+02  0.16369018908E+03  0.00000000000E+00 0. -1.
         21    1    1    2  504  501 -0.10424971695E+02 -0.89455793397E+02 -0.56012083158E+02  0.10605834464E+03  0.00000000000E+00 0. -1.
<mgrwt>
<rscale>  4 0.27805266E+03</rscale>
<asrwt>0</asrwt>
<pdfrwt beam="1">  1       21 0.75723040E-01 0.27805266E+03</pdfrwt>
<pdfrwt beam="2">  1       21 0.30997792E-01 0.27805266E+03</pdfrwt>
<totfact> 0.14842516E+04</totfact>
</mgrwt>
</event>
