<event>
 5    0  0.1911311E+001  0.2127336E+03  0.7546771E-02  0.1139419E+00
         21   -1    0    0  502  501  0.00000000000E+00  0.00000000000E+00  0.85643976154E+02  0.85643976154E+02  0.00000000000E+00 0.  1.
         21   -1    0    0  504  502 -0.00000000000E+00 -0.00000000000E+00 -0.11359157578E+04  0.11359157578E+04  0.00000000000E+00 0.  1.
         25    1    1    2    0    0  0.21673235609E+03 -0.16311712430E+02 -0.78106623902E+03  0.82032216591E+03  0.12500000000E+03 0.  0.
         21    1    1    2  503  501 -0.16595604983E+03  0.36240482488E+01 -0.46387471599E+02  0.17235527761E+03  0.00000000000E+00 0.  1.
         21    1    1    2  504  503 -0.50776306264E+02  0.12687664181E+02 -0.22281807105E+03  0.22888229047E+03  0.00000000000E+00 0.  1.
<mgrwt>
<rscale>  4 0.21273359E+03</rscale>
<asrwt>0</asrwt>
<pdfrwt beam="1">  1       21 0.13175998E-01 0.21273359E+03</pdfrwt>
<pdfrwt beam="2">  1       21 0.17475625E+00 0.21273359E+03</pdfrwt>
<totfact> 0.96555449E+03</totfact>
</mgrwt>
</event>
<event>
 5    0  0.1911311E+001  0.2181966E+03  0.7546771E-02  0.1135235E+00
         21   -1    0    0  502  501  0.00000000000E+00  0.00000000000E+00  0.18589688463E+03  0.18589688463E+03  0.00000000000E+00 0.  1.
         21   -1    0    0  504  502 -0.00000000000E+00 -0.00000000000E+00 -0.16460504610E+04  0.16460504610E+04  0.00000000000E+00 0.  1.
         25    1    1    2    0    0  0.32877731833E+02 -0.26130054739E+03 -0.33512996187E+03  0.44418015788E+03  0.12500000000E+03 0.  0.
         21    1    1    2  503  501  0.37223255728E+01  0.16737006011E+03  0.75051955421E+02  0.18346495236E+03  0.00000000000E+00 0.  1.
         21    1    1    2  504  503 -0.36600057406E+02  0.93930487272E+02 -0.12000755699E+04  0.12043022354E+04  0.00000000000E+00 0.  1.
<mgrwt>
<rscale>  4 0.21819663E+03</rscale>
<asrwt>0</asrwt>
<pdfrwt beam="1">  1       21 0.28599520E-01 0.21819663E+03</pdfrwt>
<pdfrwt beam="2">  1       21 0.25323854E+00 0.21819663E+03</pdfrwt>
<totfact> 0.72142794E+02</totfact>
</mgrwt>
</event>
<event>
 5    0  0.1911311E+001  0.2592392E+03  0.7546771E-02  0.1107601E+00
         21   -1    0    0  502  501  0.00000000000E+00  0.00000000000E+00  0.15961965398E+03  0.15961965398E+03  0.00000000000E+00 0. -1.
         21   -1    0    0  504  502 -0.00000000000E+00 -0.00000000000E+00 -0.50962548614E+03  0.50962548614E+03  0.00000000000E+00 0.  1.
         25    1    1    2    0    0 -0.20998454573E+03  0.34351472916E+02 -0.18270998507E+03  0.30705288108E+03  0.12500000000E+03 0.  0.
         21    1    1    2  503  501  0.22817051036E+03 -0.60513471813E+02 -0.50859683320E+02  0.24147540134E+03  0.00000000000E+00 0. -1.
         21    1    1    2  504  503 -0.18185964625E+02  0.26161998897E+02 -0.11643616378E+03  0.12071685769E+03  0.00000000000E+00 0. -1.
<mgrwt>
<rscale>  4 0.25923919E+03</rscale>
<asrwt>0</asrwt>
<pdfrwt beam="1">  1       21 0.24556870E-01 0.25923919E+03</pdfrwt>
<pdfrwt beam="2">  1       21 0.78403920E-01 0.25923919E+03</pdfrwt>
<totfact> 0.21772110E+04</totfact>
</mgrwt>
</event>
