<event>
 5    0  0.1856407E+000  0.2569474E+03  0.7546771E-02  0.1108991E+00
         21   -1    0    0  502  501  0.00000000000E+00  0.00000000000E+00  0.19506845090E+03  0.19506845090E+03  0.00000000000E+00 0.  1.
         21   -1    0    0  503  502 -0.00000000000E+00 -0.00000000000E+00 -0.41912372566E+03  0.41912372566E+03  0.00000000000E+00 0.  1.
         25    1    1    2    0    0  0.20264310644E+03  0.96606193370E+02  0.33605817382E+02  0.25913574849E+03  0.12500000000E+03 0.  0.
         21    1    1    2  503  504 -0.88462960840E+02 -0.56138639783E+02 -0.18824551380E+03  0.21543819481E+03  0.00000000000E+00 0.  1.
         21    1    1    2  504  501 -0.11418014560E+03 -0.40467553587E+02 -0.69415578343E+02  0.13961823326E+03  0.00000000000E+00 0.  1.
<mgrwt>
<rscale>  4 0.25694744E+03</rscale>
<asrwt>0</asrwt>
<pdfrwt beam="1">  1       21 0.30010532E-01 0.25694744E+03</pdfrwt>
<pdfrwt beam="2">  1       21 0.64480572E-01 0.25694744E+03</pdfrwt>
<totfact> 0.22833792E+04</totfact>
</mgrwt>
</event>
<event>
 5    0  0.2320748E+000  0.2720155E+03  0.7546771E-02  0.1100132E+00
         21   -1    0    0  502  501  0.00000000000E+00  0.00000000000E+00  0.96684879293E+03  0.96684879293E+03  0.00000000000E+00 0.  1.
         21   -1    0    0  503  502 -0.00000000000E+00 -0.00000000000E+00 -0.15781798470E+03  0.15781798470E+03  0.00000000000E+00 0.  1.
         25    1    1    2    0    0 -0.22021824283E+03 -0.99354792932E+02  0.82819654467E+03  0.87172356051E+03  0.12500000000E+03 0.  0.
         21    1    1    2  503  504  0.25777660793E+02  0.28271517723E+01 -0.24668369328E+02  0.35791186463E+02  0.00000000000E+00 0.  1.
         21    1    1    2  504  501  0.19444058204E+03  0.96527641160E+02  0.55026328941E+01  0.21715203066E+03  0.00000000000E+00 0.  1.
<mgrwt>
<rscale>  4 0.27201553E+03</rscale>
<asrwt>0</asrwt>
<pdfrwt beam="1">  1       21 0.14874596E+00 0.27201553E+03</pdfrwt>
<pdfrwt beam="2">  1       21 0.24279691E-01 0.27201553E+03</pdfrwt>
<totfact> 0.46185109E+03</totfact>
</mgrwt>
</event>
<event>
 5    0  0.1856407E+000  0.2565681E+03  0.7546771E-02  0.1109223E+00
         21   -1    0    0  502  501  0.00000000000E+00  0.00000000000E+00  0.21263738521E+04  0.21263738521E+04  0.00000000000E+00 0. -1.
         21   -1    0    0  503  502 -0.00000000000E+00 -0.00000000000E+00 -0.44696745430E+03  0.44696745430E+03  0.00000000000E+00 0. -1.
         25    1    1    2    0    0  0.10843042628E+03 -0.20367743233E+03  0.20241968062E+04  0.20411367823E+04  0.12500000000E+03 0.  0.
         21    1    1    2  503  504 -0.11140129294E+03  0.12438838068E+03  0.11317473210E+02  0.16736428088E+03  0.00000000000E+00 0. -1.
         21    1    1    2  504  501  0.29708666582E+01  0.79289051654E+02 -0.35610788160E+03  0.36484024325E+03  0.00000000000E+00 0. -1.
<mgrwt>
<rscale>  4 0.25656814E+03</rscale>
<asrwt>0</asrwt>
<pdfrwt beam="1">  1       21 0.32713443E+00 0.25656814E+03</pdfrwt>
<pdfrwt beam="2">  1       21 0.68764225E-01 0.25656814E+03</pdfrwt>
<totfact> 0.41495117E+01</totfact>
</mgrwt>
</event>
<event>
 5    0  0.1856407E+000  0.2184039E+03  0.7546771E-02  0.1135079E+00
         21   -1    0    0  502  501  0.00000000000E+00  0.00000000000E+00  0.57961751313E+02  0.57961751313E+02  0.00000000000E+00 0. -1.
         21   -1    0    0  503  502 -0.00000000000E+00 -0.00000000000E+00 -0.16846740719E+04  0.16846740719E+04  0.00000000000E+00 0. -1.
         25    1    1    2    0    0 -0.18666001794E+03 -0.10701201174E+03 -0.31685355732E+03  0.40288299758E+03  0.12500000000E+03 0.  0.
         21    1    1    2  503  504  0.17297135675E+03  0.28003049007E+02 -0.11204698571E+04  0.11340881631E+04  0.00000000000E+00 0. -1.
         21    1    1    2  504  501  0.13688661192E+02  0.79008962737E+02 -0.18938890622E+03  0.20566466259E+03  0.00000000000E+00 0. -1.
<mgrwt>
<rscale>  4 0.21840390E+03</rscale>
<asrwt>0</asrwt>
<pdfrwt beam="1">  1       21 0.89171913E-02 0.21840390E+03</pdfrwt>
<pdfrwt beam="2">  1       21 0.25918066E+00 0.21840390E+03</pdfrwt>
<totfact> 0.56850938E+03</totfact>
</mgrwt>
</event>
<event>
 5    0  0.3090416E+000  0.3479822E+03  0.7546771E-02  0.1063446E+00
         21   -1    0    0  502  501  0.00000000000E+00  0.00000000000E+00  0.33650361367E+03  0.33650361367E+03  0.00000000000E+00 0. -1.
         21   -1    0    0  503  502 -0.00000000000E+00 -0.00000000000E+00 -0.39172413668E+03  0.39172413668E+03  0.00000000000E+00 0. -1.
         25    1    1    2    0    0  0.33016040853E+03  0.68831136467E+02  0.90892068657E+01  0.35979332177E+03  0.12500000000E+03 0.  0.
         21    1    1    2  503  504 -0.30627711324E+03 -0.81262201527E+02 -0.91851759586E+02  0.32991811292E+03  0.00000000000E+00 0. -1.
         21    1    1    2  504  501 -0.23883295292E+02  0.12431065061E+02  0.27542029710E+02  0.38516315674E+02  0.00000000000E+00 0. -1.
<mgrwt>
<rscale>  4 0.34798220E+03</rscale>
<asrwt>0</asrwt>
<pdfrwt beam="1">  1       21 0.51769787E-01 0.34798220E+03</pdfrwt>
<pdfrwt beam="2">  1       21 0.60265251E-01 0.34798220E+03</pdfrwt>
<totfact> 0.83730391E+03</totfact>
</mgrwt>
</event>
<event>
 5    0  0.1856407E+000  0.3747650E+03  0.7546771E-02  0.1053783E+00
         21   -1    0    0  502  501  0.00000000000E+00  0.00000000000E+00  0.42118840712E+03  0.42118840712E+03  0.00000000000E+00 0.  1.
         21   -1    0    0  503  502 -0.00000000000E+00 -0.00000000000E+00 -0.49768100366E+03  0.49768100366E+03  0.00000000000E+00 0.  1.
         25    1    1    2    0    0  0.26029002363E+03  0.22384553263E+03 -0.30843408947E+03  0.47813628437E+03  0.12500000000E+03 0.  0.
         21    1    1    2  503  504 -0.14990554410E+03 -0.41147512822E+02  0.13664842505E+03  0.20697241853E+03  0.00000000000E+00 0.  1.
         21    1    1    2  504  501 -0.11038447953E+03 -0.18269801981E+03  0.95293067886E+02  0.23376070789E+03  0.00000000000E+00 0.  1.
<mgrwt>
<rscale>  4 0.37238950E+03</rscale>
<asrwt>0</asrwt>
<pdfrwt beam="1">  1       21 0.64798216E-01 0.37476504E+03</pdfrwt>
<pdfrwt beam="2">  1       21 0.76566309E-01 0.37476504E+03</pdfrwt>
<totfact> 0.29854092E+03</totfact>
</mgrwt>
</event>
<event>
 5    0  0.1856407E+000  0.2985624E+03  0.7546771E-02  0.1085961E+00
         21   -1    0    0  502  501  0.00000000000E+00  0.00000000000E+00  0.76367711908E+03  0.76367711908E+03  0.00000000000E+00 0. -1.
         21   -1    0    0  503  502 -0.00000000000E+00 -0.00000000000E+00 -0.31988332111E+03  0.31988332111E+03  0.00000000000E+00 0. -1.
         25    1    1    2    0    0  0.88564511096E+02  0.25626316538E+03  0.66633900228E+03  0.73016926019E+03  0.12500000000E+03 0.  0.
         21    1    1    2  503  504 -0.24683490147E+02 -0.30134745349E+02 -0.40048618455E+02  0.55868322002E+02  0.00000000000E+00 0.  1.
         21    1    1    2  504  501 -0.63881020949E+02 -0.22612842004E+03 -0.18249658586E+03  0.29752285800E+03  0.00000000000E+00 0. -1.
<mgrwt>
<rscale>  4 0.29856236E+03</rscale>
<asrwt>0</asrwt>
<pdfrwt beam="1">  1       21 0.11748879E+00 0.29856236E+03</pdfrwt>
<pdfrwt beam="2">  1       21 0.49212819E-01 0.29856236E+03</pdfrwt>
<totfact> 0.20250812E+03</totfact>
</mgrwt>
</event>
<event>
 5    0  0.1856407E+000  0.3531947E+03  0.7546771E-02  0.1061311E+00
         21   -1    0    0  502  501  0.00000000000E+00  0.00000000000E+00  0.27547710268E+03  0.27547710268E+03  0.00000000000E+00 0. -1.
         21   -1    0    0  503  502 -0.00000000000E+00 -0.00000000000E+00 -0.12833099598E+04  0.12833099598E+04  0.00000000000E+00 0.  1.
         25    1    1    2    0    0  0.23489708915E+03 -0.23490054695E+03  0.12226852723E+03  0.37540578338E+03  0.12500000000E+03 0.  0.
         21    1    1    2  503  504 -0.25230527864E+02  0.81575878059E+00 -0.29659723366E+02  0.38947967712E+02  0.00000000000E+00 0.  1.
         21    1    1    2  504  501 -0.20966656129E+03  0.23408478816E+03 -0.11004416610E+04  0.11444333114E+04  0.00000000000E+00 0.  1.
<mgrwt>
<rscale>  4 0.35319467E+03</rscale>
<asrwt>0</asrwt>
<pdfrwt beam="1">  1       21 0.42381093E-01 0.35319467E+03</pdfrwt>
<pdfrwt beam="2">  1       21 0.19743230E+00 0.35319467E+03</pdfrwt>
<totfact> 0.65173926E+02</totfact>
</mgrwt>
</event>
<event>
 5    0  0.1856407E+000  0.3862413E+03  0.7546771E-02  0.1048651E+00
         21   -1    0    0  502  501  0.00000000000E+00  0.00000000000E+00  0.31144570019E+03  0.31144570019E+03  0.00000000000E+00 0. -1.
         21   -1    0    0  503  502 -0.00000000000E+00 -0.00000000000E+00 -0.49568509899E+03  0.49568509899E+03  0.00000000000E+00 0.  1.
         25    1    1    2    0    0  0.34189489987E+03 -0.12909378041E+03 -0.98132043611E+01  0.38636592199E+03  0.12500000000E+03 0.  0.
         21    1    1    2  503  504 -0.24784835074E+03  0.13572985842E+03 -0.96994515045E+02  0.29876300872E+03  0.00000000000E+00 0.  1.
         21    1    1    2  504  501 -0.94046549132E+02 -0.66360780124E+01 -0.77431679400E+02  0.12200186847E+03  0.00000000000E+00 0.  1.
<mgrwt>
<rscale>  4 0.38624128E+03</rscale>
<asrwt>0</asrwt>
<pdfrwt beam="1">  1       21 0.47914723E-01 0.38624128E+03</pdfrwt>
<pdfrwt beam="2">  1       21 0.76259246E-01 0.38624128E+03</pdfrwt>
<totfact> 0.57507689E+03</totfact>
</mgrwt>
</event>
<event>
 5    0  0.1856407E+000  0.2681761E+03  0.7546771E-02  0.1102328E+00
         21   -1    0    0  502  501  0.00000000000E+00  0.00000000000E+00  0.71975785963E+03  0.71975785963E+03  0.00000000000E+00 0. -1.
         21   -1    0    0  503  502 -0.00000000000E+00 -0.00000000000E+00 -0.64448196915E+03  0.64448196915E+03  0.00000000000E+00 0. -1.
         25    1    1    2    0    0  0.14685136463E+03 -0.18559070811E+03  0.66205548110E+03  0.71410902129E+03  0.12500000000E+03 0.  0.
         21    1    1    2  503  504 -0.53902766744E+01 -0.22375224166E+02 -0.21826620137E+02  0.31719191127E+02  0.00000000000E+00 0. -1.
         21    1    1    2  504  501 -0.14146108796E+03  0.20796593227E+03 -0.56495297048E+03  0.61841161636E+03  0.00000000000E+00 0. -1.
<mgrwt>
<rscale>  4 0.26817607E+03</rscale>
<asrwt>0</asrwt>
<pdfrwt beam="1">  1       21 0.11073198E+00 0.26817607E+03</pdfrwt>
<pdfrwt beam="2">  1       21 0.99151072E-01 0.26817607E+03</pdfrwt>
<totfact> 0.50108746E+02</totfact>
</mgrwt>
</event>
<event>
 5    0  0.2031185E+000  0.2678166E+03  0.7546771E-02  0.1102536E+00
         21   -1    0    0  502  501  0.00000000000E+00  0.00000000000E+00  0.10454617231E+04  0.10454617231E+04  0.00000000000E+00 0. -1.
         21   -1    0    0  503  502 -0.00000000000E+00 -0.00000000000E+00 -0.14162578260E+03  0.14162578260E+03  0.00000000000E+00 0. -1.
         25    1    1    2    0    0  0.53363809325E+02  0.23076616633E+03  0.90661872842E+03  0.94534821013E+03  0.12500000000E+03 0.  0.
         21    1    1    2  503  504 -0.58654313139E+02 -0.20304319925E+03 -0.12946990719E+02  0.21174157311E+03  0.00000000000E+00 0. -1.
         21    1    1    2  504  501  0.52905038140E+01 -0.27722967079E+02  0.10164202804E+02  0.29997722462E+02  0.00000000000E+00 0. -1.
<mgrwt>
<rscale>  4 0.26781658E+03</rscale>
<asrwt>0</asrwt>
<pdfrwt beam="1">  1       21 0.16084026E+00 0.26781658E+03</pdfrwt>
<pdfrwt beam="2">  1       21 0.21788583E-01 0.26781658E+03</pdfrwt>
<totfact> 0.46108707E+03</totfact>
</mgrwt>
</event>
