<event>
 5    0  0.2324070E+000  0.7338516E+03  0.7546771E-02  0.9661031E-01
         21   -1    0    0  503  501  0.00000000000E+00  0.00000000000E+00  0.74842085866E+03  0.74842085866E+03  0.00000000000E+00 0.  1.
         21   -1    0    0  504  502 -0.00000000000E+00 -0.00000000000E+00 -0.20880642032E+03  0.20880642032E+03  0.00000000000E+00 0.  1.
         25    1    1    2    0    0  0.22978626148E+03 -0.24550114736E+03  0.19543794227E+03  0.40852604396E+03  0.12500000000E+03 0.  0.
         21    1    1    2  503  502  0.34617921308E+02 -0.47145040046E+01 -0.14343078851E+02  0.37767061503E+02  0.00000000000E+00 0.  1.
         21    1    1    2  504  501 -0.26440418279E+03  0.25021565136E+03  0.35851957492E+03  0.51093417352E+03  0.00000000000E+00 0.  1.
<mgrwt>
<rscale>  4 0.73385159E+03</rscale>
<asrwt>0</asrwt>
<pdfrwt beam="1">  1       21 0.11514167E+00 0.73385159E+03</pdfrwt>
<pdfrwt beam="2">  1       21 0.32124065E-01 0.73385159E+03</pdfrwt>
<totfact> 0.44309022E+03</totfact>
</mgrwt>
</event>
<event>
 5    0  0.2324070E+000  0.4438238E+03  0.7546771E-02  0.1029580E+00
         21   -1    0    0  503  501  0.00000000000E+00  0.00000000000E+00  0.11913613454E+04  0.11913613454E+04  0.00000000000E+00 0. -1.
         21   -1    0    0  504  502 -0.00000000000E+00 -0.00000000000E+00 -0.49445209869E+02  0.49445209869E+02  0.00000000000E+00 0.  1.
         25    1    1    2    0    0  0.17096617064E+03  0.11594013180E+03  0.55862133608E+03  0.60856745131E+03  0.12500000000E+03 0.  0.
         21    1    1    2  503  502 -0.23340105189E+02  0.20282355010E+02  0.27948226885E+02  0.41680184992E+02  0.00000000000E+00 0.  1.
         21    1    1    2  504  501 -0.14762606545E+03 -0.13622248681E+03  0.55534657253E+03  0.59055891894E+03  0.00000000000E+00 0. -1.
<mgrwt>
<rscale>  4 0.44382378E+03</rscale>
<asrwt>0</asrwt>
<pdfrwt beam="1">  1       21 0.18328634E+00 0.44382378E+03</pdfrwt>
<pdfrwt beam="2">  1       21 0.76069563E-02 0.44382378E+03</pdfrwt>
<totfact> 0.20107779E+04</totfact>
</mgrwt>
</event>
<event>
 5    0  0.2324070E+000  0.6613914E+03  0.7546771E-02  0.9785636E-01
         21   -1    0    0  503  501  0.00000000000E+00  0.00000000000E+00  0.39933091555E+03  0.39933091555E+03  0.00000000000E+00 0. -1.
         21   -1    0    0  504  502 -0.00000000000E+00 -0.00000000000E+00 -0.34217956135E+03  0.34217956135E+03  0.00000000000E+00 0. -1.
         25    1    1    2    0    0  0.29498702362E+03  0.99584930284E+02 -0.53153074457E+02  0.33968331100E+03  0.12500000000E+03 0.  0.
         21    1    1    2  503  502 -0.26374219364E+03 -0.10614877627E+03  0.17205539086E+03  0.33231094616E+03  0.00000000000E+00 0. -1.
         21    1    1    2  504  501 -0.31244829979E+02  0.65638459899E+01 -0.61750962200E+02  0.69516219743E+02  0.00000000000E+00 0. -1.
<mgrwt>
<rscale>  4 0.66139135E+03</rscale>
<asrwt>0</asrwt>
<pdfrwt beam="1">  1       21 0.61435525E-01 0.66139135E+03</pdfrwt>
<pdfrwt beam="2">  1       21 0.52643010E-01 0.66139135E+03</pdfrwt>
<totfact> 0.70907658E+03</totfact>
</mgrwt>
</event>
<event>
 5    0  0.2324070E+000  0.3646994E+03  0.7546771E-02  0.1056738E+00
         21   -1    0    0  503  501  0.00000000000E+00  0.00000000000E+00  0.15868360207E+03  0.15868360207E+03  0.00000000000E+00 0. -1.
         21   -1    0    0  504  502 -0.00000000000E+00 -0.00000000000E+00 -0.10253137406E+04  0.10253137406E+04  0.00000000000E+00 0.  1.
         25    1    1    2    0    0  0.17686179235E+03  0.17003012199E+03 -0.31992615361E+02  0.27719823848E+03  0.12500000000E+03 0.  0.
         21    1    1    2  503  502 -0.79443296718E+02 -0.31902839913E+02 -0.40197741554E+02  0.94577412811E+02  0.00000000000E+00 0.  1.
         21    1    1    2  504  501 -0.97418495634E+02 -0.13812728208E+03 -0.79443978159E+03  0.81222169136E+03  0.00000000000E+00 0.  1.
<mgrwt>
<rscale>  4 0.36469945E+03</rscale>
<asrwt>0</asrwt>
<pdfrwt beam="1">  1       21 0.24412861E-01 0.36469945E+03</pdfrwt>
<pdfrwt beam="2">  1       21 0.15774058E+00 0.36469945E+03</pdfrwt>
<totfact> 0.37118069E+03</totfact>
</mgrwt>
</event>
<event>
 5    0  0.2324070E+000  0.8512027E+03  0.7546771E-02  0.9488724E-01
         21   -1    0    0  503  501  0.00000000000E+00  0.00000000000E+00  0.55567766867E+03  0.55567766867E+03  0.00000000000E+00 0. -1.
         21   -1    0    0  504  502 -0.00000000000E+00 -0.00000000000E+00 -0.36166283421E+03  0.36166283421E+03  0.00000000000E+00 0. -1.
         25    1    1    2    0    0 -0.29528500143E+03  0.61943237324E+02 -0.18364497796E+03  0.37467409124E+03  0.12500000000E+03 0.  0.
         21    1    1    2  503  502  0.28751553978E+03 -0.83235503640E+02  0.40723529628E+03  0.50540471032E+03  0.00000000000E+00 0. -1.
         21    1    1    2  504  501  0.77694616581E+01  0.21292266316E+02 -0.29575483864E+02  0.37261701318E+02  0.00000000000E+00 0. -1.
<mgrwt>
<rscale>  4 0.85120272E+03</rscale>
<asrwt>0</asrwt>
<pdfrwt beam="1">  1       21 0.85488873E-01 0.85120272E+03</pdfrwt>
<pdfrwt beam="2">  1       21 0.55640436E-01 0.85120272E+03</pdfrwt>
<totfact> 0.28396419E+03</totfact>
</mgrwt>
</event>
<event>
 5    0  0.2324070E+000  0.5972201E+03  0.7546771E-02  0.9911190E-01
         21   -1    0    0  503  501  0.00000000000E+00  0.00000000000E+00  0.21560364190E+04  0.21560364190E+04  0.00000000000E+00 0. -1.
         21   -1    0    0  504  502 -0.00000000000E+00 -0.00000000000E+00 -0.45742411189E+02  0.45742411189E+02  0.00000000000E+00 0. -1.
         25    1    1    2    0    0  0.14581031584E+03 -0.13705693000E+03  0.33183048864E+03  0.40716301828E+03  0.12500000000E+03 0.  0.
         21    1    1    2  503  502 -0.14350351922E+03  0.11054747085E+03  0.17288731352E+04  0.17383372288E+04  0.00000000000E+00 0. -1.
         21    1    1    2  504  501 -0.23067966195E+01  0.26509459158E+02  0.49590383899E+02  0.56278583055E+02  0.00000000000E+00 0. -1.
<mgrwt>
<rscale>  4 0.59722013E+03</rscale>
<asrwt>0</asrwt>
<pdfrwt beam="1">  1       21 0.33169783E+00 0.59722013E+03</pdfrwt>
<pdfrwt beam="2">  1       21 0.70372957E-02 0.59722013E+03</pdfrwt>
<totfact> 0.25576767E+03</totfact>
</mgrwt>
</event>
<event>
 5    0  0.2324070E+000  0.4263115E+03  0.7546771E-02  0.1035032E+00
         21   -1    0    0  503  501  0.00000000000E+00  0.00000000000E+00  0.21430495440E+03  0.21430495440E+03  0.00000000000E+00 0.  1.
         21   -1    0    0  504  502 -0.00000000000E+00 -0.00000000000E+00 -0.34054551810E+03  0.34054551810E+03  0.00000000000E+00 0.  1.
         25    1    1    2    0    0  0.19268792136E+03 -0.56445971955E+02 -0.44998247923E+02  0.24075843724E+03  0.12500000000E+03 0.  0.
         21    1    1    2  503  502 -0.22957262725E+02 -0.33856446722E+01 -0.12642686713E+03  0.12853890942E+03  0.00000000000E+00 0.  1.
         21    1    1    2  504  501 -0.16973065863E+03  0.59831616627E+02  0.45184551360E+02  0.18555312584E+03  0.00000000000E+00 0.  1.
<mgrwt>
<rscale>  4 0.42631152E+03</rscale>
<asrwt>0</asrwt>
<pdfrwt beam="1">  1       21 0.32969993E-01 0.42631152E+03</pdfrwt>
<pdfrwt beam="2">  1       21 0.52391619E-01 0.42631152E+03</pdfrwt>
<totfact> 0.28033019E+04</totfact>
</mgrwt>
</event>
<event>
 5    0  0.2324070E+000  0.3962632E+03  0.7546771E-02  0.1045081E+00
         21   -1    0    0  503  501  0.00000000000E+00  0.00000000000E+00  0.47174841231E+02  0.47174841231E+02  0.00000000000E+00 0.  1.
         21   -1    0    0  504  502 -0.00000000000E+00 -0.00000000000E+00 -0.29061616678E+04  0.29061616678E+04  0.00000000000E+00 0.  1.
         25    1    1    2    0    0 -0.11743276200E+03  0.16372044089E+03 -0.61678589087E+03  0.66079094389E+03  0.12500000000E+03 0.  0.
         21    1    1    2  503  502  0.12210359337E+03 -0.74206441000E+02 -0.18675111800E+03  0.23514221967E+03  0.00000000000E+00 0.  1.
         21    1    1    2  504  501 -0.46708313644E+01 -0.89513999887E+02 -0.20554498177E+04  0.20574033454E+04  0.00000000000E+00 0.  1.
<mgrwt>
<rscale>  4 0.39626318E+03</rscale>
<asrwt>0</asrwt>
<pdfrwt beam="1">  1       21 0.72576679E-02 0.39626318E+03</pdfrwt>
<pdfrwt beam="2">  1       21 0.44710179E+00 0.39626318E+03</pdfrwt>
<totfact> 0.49426071E+02</totfact>
</mgrwt>
</event>
<event>
 5    0  0.2324070E+000  0.6199043E+03  0.7546771E-02  0.9864950E-01
         21   -1    0    0  503  501  0.00000000000E+00  0.00000000000E+00  0.36254143016E+03  0.36254143016E+03  0.00000000000E+00 0. -1.
         21   -1    0    0  504  502 -0.00000000000E+00 -0.00000000000E+00 -0.10812597887E+04  0.10812597887E+04  0.00000000000E+00 0.  1.
         25    1    1    2    0    0 -0.22547887763E+03 -0.56677336541E+01 -0.75762342756E+02  0.26877086903E+03  0.12500000000E+03 0.  0.
         21    1    1    2  503  502  0.28029564318E+03  0.15208361192E+03  0.16014770850E+03  0.35685061459E+03  0.00000000000E+00 0. -1.
         21    1    1    2  504  501 -0.54816765553E+02 -0.14641587827E+03 -0.80310372431E+03  0.81817973527E+03  0.00000000000E+00 0.  1.
<mgrwt>
<rscale>  4 0.61990431E+03</rscale>
<asrwt>0</asrwt>
<pdfrwt beam="1">  1       21 0.55775606E-01 0.61990431E+03</pdfrwt>
<pdfrwt beam="2">  1       21 0.16634766E+00 0.61990431E+03</pdfrwt>
<totfact> 0.53421621E+02</totfact>
</mgrwt>
</event>
<event>
 5    0  0.2324070E+000  0.5815107E+03  0.7546771E-02  0.9944526E-01
         21   -1    0    0  503  501  0.00000000000E+00  0.00000000000E+00  0.37328497853E+03  0.37328497853E+03  0.00000000000E+00 0. -1.
         21   -1    0    0  504  502 -0.00000000000E+00 -0.00000000000E+00 -0.28024366840E+03  0.28024366840E+03  0.00000000000E+00 0. -1.
         25    1    1    2    0    0  0.32435848137E+02  0.24245757867E+03 -0.39757700775E+02  0.27756699456E+03  0.12500000000E+03 0.  0.
         21    1    1    2  503  502 -0.44469205943E+02 -0.26035428769E+03  0.18299841288E+03  0.32132582298E+03  0.00000000000E+00 0. -1.
         21    1    1    2  504  501  0.12033357806E+02  0.17896709020E+02 -0.50199401974E+02  0.54635829383E+02  0.00000000000E+00 0. -1.
<mgrwt>
<rscale>  4 0.58151071E+03</rscale>
<asrwt>0</asrwt>
<pdfrwt beam="1">  1       21 0.57428458E-01 0.58151071E+03</pdfrwt>
<pdfrwt beam="2">  1       21 0.43114410E-01 0.58151071E+03</pdfrwt>
<totfact> 0.12792382E+04</totfact>
</mgrwt>
</event>
<event>
 5    0  0.2324070E+000  0.6332187E+03  0.7546771E-02  0.9838788E-01
         21   -1    0    0  503  501  0.00000000000E+00  0.00000000000E+00  0.27941234109E+03  0.27941234109E+03  0.00000000000E+00 0.  1.
         21   -1    0    0  504  502 -0.00000000000E+00 -0.00000000000E+00 -0.40478828321E+03  0.40478828321E+03  0.00000000000E+00 0.  1.
         25    1    1    2    0    0 -0.21524348412E+03 -0.49351589305E+02  0.14602914723E+03  0.29277098330E+03  0.12500000000E+03 0.  0.
         21    1    1    2  503  502 -0.30184662760E+02 -0.51034470723E+01 -0.31737940071E+02  0.44095984828E+02  0.00000000000E+00 0.  1.
         21    1    1    2  504  501  0.24542814688E+03  0.54455036377E+02 -0.23966714928E+03  0.34733365618E+03  0.00000000000E+00 0.  1.
<mgrwt>
<rscale>  4 0.63321866E+03</rscale>
<asrwt>0</asrwt>
<pdfrwt beam="1">  1       21 0.42986514E-01 0.63321866E+03</pdfrwt>
<pdfrwt beam="2">  1       21 0.62275120E-01 0.63321866E+03</pdfrwt>
<totfact> 0.10651131E+04</totfact>
</mgrwt>
</event>
<event>
 5    0  0.2324070E+000  0.4501753E+03  0.7546771E-02  0.1027670E+00
         21   -1    0    0  503  501  0.00000000000E+00  0.00000000000E+00  0.12114349277E+04  0.12114349277E+04  0.00000000000E+00 0.  1.
         21   -1    0    0  504  502 -0.00000000000E+00 -0.00000000000E+00 -0.15420998105E+03  0.15420998105E+03  0.00000000000E+00 0.  1.
         25    1    1    2    0    0  0.17990897858E+03  0.26868000206E+03  0.61830527887E+03  0.70886007220E+03  0.12500000000E+03 0.  0.
         21    1    1    2  503  502 -0.17211066083E+03 -0.20000441237E+03  0.58673443591E+02  0.27030800492E+03  0.00000000000E+00 0.  1.
         21    1    1    2  504  501 -0.77983177473E+01 -0.68675589688E+02  0.38024622423E+03  0.38647683167E+03  0.00000000000E+00 0.  1.
<mgrwt>
<rscale>  4 0.45017533E+03</rscale>
<asrwt>0</asrwt>
<pdfrwt beam="1">  1       21 0.18637460E+00 0.45017533E+03</pdfrwt>
<pdfrwt beam="2">  1       21 0.23724613E-01 0.45017533E+03</pdfrwt>
<totfact> 0.23482946E+03</totfact>
</mgrwt>
</event>
<event>
 5    0  0.2324070E+000  0.4756803E+03  0.7546771E-02  0.1020329E+00
         21   -1    0    0  503  501  0.00000000000E+00  0.00000000000E+00  0.41881276871E+03  0.41881276871E+03  0.00000000000E+00 0. -1.
         21   -1    0    0  504  502 -0.00000000000E+00 -0.00000000000E+00 -0.30505388351E+03  0.30505388351E+03  0.00000000000E+00 0. -1.
         25    1    1    2    0    0 -0.18284297381E+02 -0.26122756927E+03  0.16215691906E+03  0.33240641522E+03  0.12500000000E+03 0.  0.
         21    1    1    2  503  502  0.10737401695E+03  0.39439430014E+02 -0.94097427889E+02  0.14811810858E+03  0.00000000000E+00 0.  1.
         21    1    1    2  504  501 -0.89089719566E+02  0.22178813926E+03  0.45699394035E+02  0.24334212842E+03  0.00000000000E+00 0. -1.
<mgrwt>
<rscale>  4 0.47568027E+03</rscale>
<asrwt>0</asrwt>
<pdfrwt beam="1">  1       21 0.64432734E-01 0.47568027E+03</pdfrwt>
<pdfrwt beam="2">  1       21 0.46931367E-01 0.47568027E+03</pdfrwt>
<totfact> 0.85244595E+03</totfact>
</mgrwt>
</event>
<event>
 5    0  0.2324070E+000  0.7334932E+03  0.7546771E-02  0.9661609E-01
         21   -1    0    0  503  501  0.00000000000E+00  0.00000000000E+00  0.19433922674E+03  0.19433922674E+03  0.00000000000E+00 0. -1.
         21   -1    0    0  504  502 -0.00000000000E+00 -0.00000000000E+00 -0.95464685631E+03  0.95464685631E+03  0.00000000000E+00 0. -1.
         25    1    1    2    0    0  0.24346778992E+03 -0.15507021545E+03 -0.49121189329E+03  0.58329877469E+03  0.12500000000E+03 0.  0.
         21    1    1    2  503  502  0.56343617685E+01 -0.19212570709E+02 -0.26078935864E+03  0.26155679782E+03  0.00000000000E+00 0. -1.
         21    1    1    2  504  501 -0.24910215169E+03  0.17428278616E+03 -0.83063776380E+01  0.30413051053E+03  0.00000000000E+00 0. -1.
<mgrwt>
<rscale>  4 0.73349317E+03</rscale>
<asrwt>0</asrwt>
<pdfrwt beam="1">  1       21 0.29898343E-01 0.73349317E+03</pdfrwt>
<pdfrwt beam="2">  1       21 0.14686875E+00 0.73349317E+03</pdfrwt>
<totfact> 0.26947221E+03</totfact>
</mgrwt>
</event>
<event>
 5    0  0.2324070E+000  0.4483696E+03  0.7546771E-02  0.1028209E+00
         21   -1    0    0  503  501  0.00000000000E+00  0.00000000000E+00  0.58140842485E+03  0.58140842485E+03  0.00000000000E+00 0.  1.
         21   -1    0    0  504  502 -0.00000000000E+00 -0.00000000000E+00 -0.12792121772E+03  0.12792121772E+03  0.00000000000E+00 0.  1.
         25    1    1    2    0    0  0.20079677622E+03  0.26997490272E+02  0.28831948774E+03  0.37390016960E+03  0.12500000000E+03 0.  0.
         21    1    1    2  503  502 -0.26321352668E+02  0.77849010225E+02  0.17679059516E+02  0.84058498349E+02  0.00000000000E+00 0. -1.
         21    1    1    2  504  501 -0.17447542355E+03 -0.10484650050E+03  0.14748865988E+03  0.25137097462E+03  0.00000000000E+00 0.  1.
<mgrwt>
<rscale>  4 0.44836956E+03</rscale>
<asrwt>0</asrwt>
<pdfrwt beam="1">  1       21 0.89447448E-01 0.44836956E+03</pdfrwt>
<pdfrwt beam="2">  1       21 0.19680188E-01 0.44836956E+03</pdfrwt>
<totfact> 0.22951172E+04</totfact>
</mgrwt>
</event>
<event>
 5    0  0.2324070E+000  0.4888122E+03  0.7546771E-02  0.1016741E+00
         21   -1    0    0  503  501  0.00000000000E+00  0.00000000000E+00  0.65118706255E+02  0.65118706255E+02  0.00000000000E+00 0.  1.
         21   -1    0    0  504  502 -0.00000000000E+00 -0.00000000000E+00 -0.11542585300E+04  0.11542585300E+04  0.00000000000E+00 0.  1.
         25    1    1    2    0    0  0.40204764991E+02 -0.22386397759E+03 -0.50976344844E+03  0.57202733935E+03  0.12500000000E+03 0.  0.
         21    1    1    2  503  502 -0.66873452562E+02  0.21685835351E+03 -0.35534076640E+03  0.42162384232E+03  0.00000000000E+00 0.  1.
         21    1    1    2  504  501  0.26668687571E+02  0.70056240870E+01 -0.22403560894E+03  0.22572605463E+03  0.00000000000E+00 0.  1.
<mgrwt>
<rscale>  4 0.48881220E+03</rscale>
<asrwt>0</asrwt>
<pdfrwt beam="1">  1       21 0.10018263E-01 0.48881220E+03</pdfrwt>
<pdfrwt beam="2">  1       21 0.17757823E+00 0.48881220E+03</pdfrwt>
<totfact> 0.13311706E+04</totfact>
</mgrwt>
</event>
<event>
 5    0  0.2324070E+000  0.5836749E+03  0.7546771E-02  0.9939866E-01
         21   -1    0    0  503  501  0.00000000000E+00  0.00000000000E+00  0.22025125294E+03  0.22025125294E+03  0.00000000000E+00 0. -1.
         21   -1    0    0  504  502 -0.00000000000E+00 -0.00000000000E+00 -0.80621133689E+03  0.80621133689E+03  0.00000000000E+00 0.  1.
         25    1    1    2    0    0  0.10100476780E+03 -0.23429915094E+03  0.30160515805E+02  0.28571438879E+03  0.12500000000E+03 0.  0.
         21    1    1    2  503  502 -0.19553879780E+03  0.48903961896E+02 -0.33534469505E+03  0.39125833337E+03  0.00000000000E+00 0.  1.
         21    1    1    2  504  501  0.94534029997E+02  0.18539518904E+03 -0.28077590471E+03  0.34948986768E+03  0.00000000000E+00 0.  1.
<mgrwt>
<rscale>  4 0.58367489E+03</rscale>
<asrwt>0</asrwt>
<pdfrwt beam="1">  1       21 0.33884808E-01 0.58367489E+03</pdfrwt>
<pdfrwt beam="2">  1       21 0.12403251E+00 0.58367489E+03</pdfrwt>
<totfact> 0.34046031E+03</totfact>
</mgrwt>
</event>
<event>
 5    0  0.2324070E+000  0.4317233E+03  0.7546771E-02  0.1033317E+00
         21   -1    0    0  503  501  0.00000000000E+00  0.00000000000E+00  0.86573058440E+02  0.86573058440E+02  0.00000000000E+00 0. -1.
         21   -1    0    0  504  502 -0.00000000000E+00 -0.00000000000E+00 -0.90269050379E+03  0.90269050379E+03  0.00000000000E+00 0.  1.
         25    1    1    2    0    0  0.24943520028E+02  0.22111376417E+03 -0.34435899264E+03  0.42862756760E+03  0.12500000000E+03 0.  0.
         21    1    1    2  503  502 -0.10346320420E+02 -0.16708344239E+03 -0.12380576197E+03  0.20821092614E+03  0.00000000000E+00 0. -1.
         21    1    1    2  504  501 -0.14597199608E+02 -0.54030321780E+02 -0.34795269074E+03  0.35242506849E+03  0.00000000000E+00 0.  1.
<mgrwt>
<rscale>  4 0.43172333E+03</rscale>
<asrwt>0</asrwt>
<pdfrwt beam="1">  1       21 0.13318931E-01 0.43172333E+03</pdfrwt>
<pdfrwt beam="2">  1       21 0.13887547E+00 0.43172333E+03</pdfrwt>
<totfact> 0.15947666E+04</totfact>
</mgrwt>
</event>
<event>
 5    0  0.2324070E+000  0.3921952E+03  0.7546771E-02  0.1046516E+00
         21   -1    0    0  503  501  0.00000000000E+00  0.00000000000E+00  0.21337295152E+04  0.21337295152E+04  0.00000000000E+00 0. -1.
         21   -1    0    0  504  502 -0.00000000000E+00 -0.00000000000E+00 -0.83770464221E+02  0.83770464221E+02  0.00000000000E+00 0.  1.
         25    1    1    2    0    0  0.12741687926E+03  0.18607201913E+03  0.17063373365E+04  0.17257085395E+04  0.12500000000E+03 0.  0.
         21    1    1    2  503  502 -0.98642854161E+02 -0.51486518754E+02  0.33600919673E+03  0.35395402891E+03  0.00000000000E+00 0.  1.
         21    1    1    2  504  501 -0.28774025094E+02 -0.13458550037E+03  0.76125176916E+01  0.13783741095E+03  0.00000000000E+00 0.  1.
<mgrwt>
<rscale>  4 0.39219515E+03</rscale>
<asrwt>0</asrwt>
<pdfrwt beam="1">  1       21 0.32826604E+00 0.39219515E+03</pdfrwt>
<pdfrwt beam="2">  1       21 0.12887765E-01 0.39219515E+03</pdfrwt>
<totfact> 0.10020758E+03</totfact>
</mgrwt>
</event>
<event>
 5    0  0.3513999E+000  0.1173973E+04  0.7546771E-02  0.9135948E-01
         21   -1    0    0  503  501  0.00000000000E+00  0.00000000000E+00  0.44013100361E+03  0.44013100361E+03  0.00000000000E+00 0. -1.
         21   -1    0    0  504  502 -0.00000000000E+00 -0.00000000000E+00 -0.20702085940E+04  0.20702085940E+04  0.00000000000E+00 0.  1.
         25    1    1    2    0    0  0.14991216040E+03  0.14970928568E+03 -0.72495575507E+03  0.76555363813E+03  0.12500000000E+03 0.  0.
         21    1    1    2  503  502 -0.11153690684E+03 -0.23575570566E+03  0.37743169673E+03  0.45877654696E+03  0.00000000000E+00 0. -1.
         21    1    1    2  504  501 -0.38375253557E+02  0.86046419974E+02 -0.12825535321E+04  0.12860094126E+04  0.00000000000E+00 0.  1.
<mgrwt>
<rscale>  4 0.11739725E+04</rscale>
<asrwt>0</asrwt>
<pdfrwt beam="1">  1       21 0.67712462E-01 0.11739725E+04</pdfrwt>
<pdfrwt beam="2">  1       21 0.31849363E+00 0.11739725E+04</pdfrwt>
<totfact> 0.30089378E+01</totfact>
</mgrwt>
</event>
<event>
 5    0  0.2324070E+000  0.7404508E+03  0.7546771E-02  0.9650452E-01
         21   -1    0    0  503  501  0.00000000000E+00  0.00000000000E+00  0.19495088846E+03  0.19495088846E+03  0.00000000000E+00 0.  1.
         21   -1    0    0  504  502 -0.00000000000E+00 -0.00000000000E+00 -0.98799929009E+03  0.98799929009E+03  0.00000000000E+00 0. -1.
         25    1    1    2    0    0  0.72626174541E+02  0.24944512629E+03  0.40876379460E+02  0.29119290970E+03  0.12500000000E+03 0.  0.
         21    1    1    2  503  502  0.19275296422E+02 -0.93827916310E+01 -0.28304505628E+03  0.28385573398E+03  0.00000000000E+00 0. -1.
         21    1    1    2  504  501 -0.91901470963E+02 -0.24006233466E+03 -0.55087972482E+03  0.60790153488E+03  0.00000000000E+00 0. -1.
<mgrwt>
<rscale>  4 0.74045081E+03</rscale>
<asrwt>0</asrwt>
<pdfrwt beam="1">  1       21 0.29992444E-01 0.74045081E+03</pdfrwt>
<pdfrwt beam="2">  1       21 0.15199989E+00 0.74045081E+03</pdfrwt>
<totfact> 0.24322169E+03</totfact>
</mgrwt>
</event>
<event>
 5    0  0.2324070E+000  0.4271931E+03  0.7546771E-02  0.1034750E+00
         21   -1    0    0  503  501  0.00000000000E+00  0.00000000000E+00  0.22584619732E+03  0.22584619732E+03  0.00000000000E+00 0.  1.
         21   -1    0    0  504  502 -0.00000000000E+00 -0.00000000000E+00 -0.43093549650E+03  0.43093549650E+03  0.00000000000E+00 0.  1.
         25    1    1    2    0    0  0.24048354545E+03  0.93342471934E+02 -0.19751133761E+03  0.34811044395E+03  0.12500000000E+03 0.  0.
         21    1    1    2  503  502 -0.46434474892E+02 -0.96912725541E+02  0.28697124769E+02  0.11122842173E+03  0.00000000000E+00 0. -1.
         21    1    1    2  504  501 -0.19404907056E+03  0.35702536068E+01 -0.36275086341E+02  0.19744282814E+03  0.00000000000E+00 0.  1.
<mgrwt>
<rscale>  4 0.42719311E+03</rscale>
<asrwt>0</asrwt>
<pdfrwt beam="1">  1       21 0.34745569E-01 0.42719311E+03</pdfrwt>
<pdfrwt beam="2">  1       21 0.66297768E-01 0.42719311E+03</pdfrwt>
<totfact> 0.15085739E+04</totfact>
</mgrwt>
</event>
<event>
 5    0  0.2324070E+000  0.8128434E+03  0.7546771E-02  0.9541611E-01
         21   -1    0    0  503  501  0.00000000000E+00  0.00000000000E+00  0.13958819383E+04  0.13958819383E+04  0.00000000000E+00 0.  1.
         21   -1    0    0  504  502 -0.00000000000E+00 -0.00000000000E+00 -0.17512774360E+03  0.17512774360E+03  0.00000000000E+00 0. -1.
         25    1    1    2    0    0 -0.49004219047E+01  0.32323464892E+03  0.25640659534E+03  0.43113106422E+03  0.12500000000E+03 0.  0.
         21    1    1    2  503  502 -0.24136312499E+02  0.39716968971E+02 -0.46323623900E+02  0.65619184211E+02  0.00000000000E+00 0. -1.
         21    1    1    2  504  501  0.29036734403E+02 -0.36295161789E+03  0.10106712232E+04  0.10742594334E+04  0.00000000000E+00 0.  1.
<mgrwt>
<rscale>  4 0.81284337E+03</rscale>
<asrwt>0</asrwt>
<pdfrwt beam="1">  1       21 0.21475106E+00 0.81284337E+03</pdfrwt>
<pdfrwt beam="2">  1       21 0.26942731E-01 0.81284337E+03</pdfrwt>
<totfact> 0.10511576E+03</totfact>
</mgrwt>
</event>
<event>
 5    0  0.2324070E+000  0.4842982E+03  0.7546771E-02  0.1017961E+00
         21   -1    0    0  503  501  0.00000000000E+00  0.00000000000E+00  0.70188574623E+03  0.70188574623E+03  0.00000000000E+00 0. -1.
         21   -1    0    0  504  502 -0.00000000000E+00 -0.00000000000E+00 -0.21412969317E+03  0.21412969317E+03  0.00000000000E+00 0. -1.
         25    1    1    2    0    0 -0.60666599663E+02  0.22691646009E+03  0.21733913519E+03  0.34355904276E+03  0.12500000000E+03 0.  0.
         21    1    1    2  503  502  0.93716788714E+01 -0.47100667419E+02 -0.12562452336E+03  0.13449097407E+03  0.00000000000E+00 0. -1.
         21    1    1    2  504  501  0.51294920791E+02 -0.17981579267E+03  0.39604144124E+03  0.43796542258E+03  0.00000000000E+00 0. -1.
<mgrwt>
<rscale>  4 0.48429821E+03</rscale>
<asrwt>0</asrwt>
<pdfrwt beam="1">  1       21 0.10798242E+00 0.48429821E+03</pdfrwt>
<pdfrwt beam="2">  1       21 0.32943030E-01 0.48429821E+03</pdfrwt>
<totfact> 0.52633795E+03</totfact>
</mgrwt>
</event>
<event>
 5    0  0.2324070E+000  0.6012631E+03  0.7546771E-02  0.9902789E-01
         21   -1    0    0  503  501  0.00000000000E+00  0.00000000000E+00  0.45192761932E+03  0.45192761932E+03  0.00000000000E+00 0. -1.
         21   -1    0    0  504  502 -0.00000000000E+00 -0.00000000000E+00 -0.57232557750E+03  0.57232557750E+03  0.00000000000E+00 0. -1.
         25    1    1    2    0    0 -0.29655781524E+03 -0.20053592719E+03  0.21770246073E+03  0.43724198938E+03  0.12500000000E+03 0.  0.
         21    1    1    2  503  502  0.10928591892E+03  0.11717251315E+03 -0.34660352009E+03  0.38184657921E+03  0.00000000000E+00 0. -1.
         21    1    1    2  504  501  0.18727189631E+03  0.83363414040E+02  0.85031011775E+01  0.20516462823E+03  0.00000000000E+00 0.  1.
<mgrwt>
<rscale>  4 0.60126309E+03</rscale>
<asrwt>0</asrwt>
<pdfrwt beam="1">  1       21 0.69527326E-01 0.60126309E+03</pdfrwt>
<pdfrwt beam="2">  1       21 0.88050089E-01 0.60126309E+03</pdfrwt>
<totfact> 0.17037895E+03</totfact>
</mgrwt>
</event>
