<LesHouchesEvents version="3.0">
  <!--
  <scalesfunctionalform>
    muR  H_T/2 := sum_i mT(i)/2, i=final state
    muF1 H_T/2 := sum_i mT(i)/2, i=final state
    muF2 H_T/2 := sum_i mT(i)/2, i=final state
    QES  H_T/2 := sum_i mT(i)/2, i=final state
  </scalesfunctionalform>
HERWIG6   
  -->
  <header>
       42
  </header>
  <init>
   2212   2212 0.65000000D+04 0.65000000D+04 -1 -1   244800   244800 -4   1
 0.48653288D-04 0.17916436D-05 0.20977079D-05     66
  </init>
  <event>
  6     66 0.20977079E-05 0.24441475E+03 0.75467711E-02 0.91575841E-01
        3 -1    0    0  501    0 0.00000000E+00 0.00000000E+00 0.51098468E+03 0.51098492E+03 0.50000000E+00 0.0000E+00 0.9000E+01
        1 -1    0    0  502    0 -.00000000E+00 -.00000000E+00 -.27167311E+04 0.27167311E+04 0.32000000E+00 0.0000E+00 0.9000E+01
       25  1    1    2    0    0 -.56805340E+03 -.20217155E+03 -.18019607E+04 0.19042703E+04 0.12500000E+03 0.0000E+00 0.9000E+01
        3  1    1    2  503    0 0.31884971E+03 0.25034097E+03 0.23024427E+03 0.46620640E+03 0.50000000E+00 0.0000E+00 0.9000E+01
        1  1    1    2  502    0 0.64463488E+00 0.36707531E+02 -.58973657E+03 0.59087831E+03 0.32000000E+00 0.0000E+00 0.9000E+01
       21  1    1    2  501  503 0.24855906E+03 -.84876947E+02 -.44293350E+02 0.26636097E+03 0.75000000E+00 0.0000E+00 0.9000E+01
#aMCatNLO 2  0  0  4  1 0.42899846D+02 0.00000000D+00  -5  6  0 0.00000000D+00 0.00000000D+00 0.00000000D+00 0.00000000D+00 0.00000000D+00
  <mgrwgt>
 0.1747967589D-03    1    2    0
 0.117822255098367D+04 0.000000000000000D+00 0.000000000000000D+00 0.117822255098367D+04
 0.117822255098367D+04 -.000000000000000D+00 -.000000000000000D+00 -.117822255098367D+04
 0.947813469542384D+03 -.581768144796081D+03 -.206181207509370D+03 -.708350554751302D+03
 0.114506004239763D+04 0.584944877964139D+03 0.170577785935628D+03 0.969487085723417D+03
 0.263571590027319D+03 -.317673316805791D+01 0.356034215737415D+02 -.261136530972115D+03
 0.000000000000000D+00 0.000000000000000D+00 0.000000000000000D+00 0.000000000000000D+00
 0.117822255098367D+04 0.000000000000000D+00 0.000000000000000D+00 0.117822255098367D+04
 0.117822255098367D+04 -.000000000000000D+00 -.000000000000000D+00 -.117822255098367D+04
 0.921534673986601D+03 -.568043352907534D+03 -.202178873783628D+03 -.685603097697744D+03
 0.853920185948494D+03 0.318709765331341D+03 0.250356956575138D+03 0.751615036935257D+03
 0.257429657802681D+03 0.648468533879227D+00 0.367189017867568D+02 -.254796645300798D+03
 0.323560584229558D+03 0.248685119042314D+03 -.848969845782667D+02 0.188784706063285D+03
0.137450825294D-02 0.000000000000D+00 0.000000000000D+00 0.834167916829D-05 0.300191480487D-09  6 3 1 25 3 1 21 2 0.78613048D-01 0.41795865D+00 0.43596734D+06 0.43596734D+06 0.43596734D+06 0.10727423D+01  1  2  1  3  6  4        3 0.174796758942D-03 0.100000000000D+01
  </mgrwgt>
  </event>
  <event>
  5     66 -.20977079E-05 0.12880025E+03 0.75467711E-02 0.94609393E-01
        3 -1    0    0  501    0 0.00000000E+00 0.00000000E+00 0.18884920E+04 0.18884921E+04 0.50000000E+00 0.0000E+00 0.9000E+01
        1 -1    0    0  502    0 0.00000000E+00 0.00000000E+00 -.27362842E+04 0.27362842E+04 0.32000000E+00 0.0000E+00 0.9000E+01
       25  1    1    2    0    0 -.21930566E+03 -.43413109E+03 0.52622756E+03 0.72739619E+03 0.12500000E+03 0.0000E+00 0.9000E+01
        3  1    1    2  501    0 0.69742333E+02 0.10830092E+03 0.12461531E+04 0.12527932E+04 0.50000000E+00 0.0000E+00 0.9000E+01
        1  1    1    2  502    0 0.14956333E+03 0.32583016E+03 -.26201728E+04 0.26445869E+04 0.32000000E+00 0.0000E+00 0.9000E+01
#aMCatNLO 1  0  0  2  5 0.16832022D+02 0.00000000D+00  -5  6  0 0.00000000D+00 0.00000000D+00 0.00000000D+00 0.00000000D+00 0.00000000D+00
  <mgrwgt>
 -.4432892093D-03    9    2    0
 0.227320283272037D+04 0.000000000000000D+00 0.000000000000000D+00 0.227320283272037D+04
 0.227320283272037D+04 0.000000000000000D+00 0.000000000000000D+00 -.227320283272037D+04
 0.838212927788610D+03 -.219314356607457D+03 -.434154556010176D+03 0.671108744387538D+03
 0.150660293827136D+04 0.697348135552658D+02 0.108289245192058D+03 0.150108724222213D+04
 0.220158979938076D+04 0.149579543052191D+03 0.325865310818118D+03 -.217219598660967D+04
 0.000000000000000D+00 0.000000000000000D+00 0.000000000000000D+00 -.000000000000000D+00
 0.227334992433139D+04 0.000000000000000D+00 0.000000000000000D+00 0.227334992433139D+04
 0.281179262907646D+04 0.000000000000000D+00 0.000000000000000D+00 -.281179262907646D+04
 0.839042421725905D+03 -.222419088285111D+03 -.434177369088571D+03 0.671108744387538D+03
 0.150635214766021D+04 0.641575965254625D+02 0.108248264681490D+03 0.150108724222213D+04
 0.220104225429257D+04 0.141429924566222D+03 0.325805428707612D+03 -.217219598660967D+04
 0.538705729729183D+03 0.168315671934273D+02 0.123675699468852D+00 -.538442704745069D+03
0.134848011926D-02 0.000000000000D+00 0.000000000000D+00 0.576692959671D-03 0.000000000000D+00  6 3 1 25 3 1 21 0 0.29053724D+00 0.42096681D+00 0.24480978D+06 0.24480978D+06 0.24480978D+06 0.10911452D+01  1  2  2  2  6  2        1 0.185576606960D-05 0.100000000000D+01
0.221741401158D-03 0.000000000000D+00 -.517851872094D-05 0.576692959671D-03 0.000000000000D+00  6 3 1 25 3 1 21 2 0.29053724D+00 0.42096681D+00 0.24480978D+06 0.24480978D+06 0.24480978D+06 0.10911452D+01  1  2  3  2  6  2        1 0.363321055592D-06 0.100000000000D+01
-.820444037738D-03 0.000000000000D+00 0.000000000000D+00 0.576692959671D-03 0.000000000000D+00  6 3 1 25 3 1 21 2 0.29053724D+00 0.42096681D+00 0.24480978D+06 0.24480978D+06 0.24480978D+06 0.10911452D+01  1  2 15  2  6  2        1 -.134428930407D-05 0.100000000000D+01
0.167807728553D+01 0.000000000000D+00 0.000000000000D+00 0.576692959671D-03 0.000000000000D+00  6 3 1 25 3 1 21 2 0.29053724D+00 0.52302227D+00 0.25071821D+06 0.25071821D+06 0.25071821D+06 0.10903654D+01  1  2 12  2  6  2        1 0.865386078017D-03 0.100000000000D+01
-.192312780486D+01 0.000000000000D+00 0.000000000000D+00 0.576692959671D-03 0.000000000000D+00  6 3 1 25 3 1 21 2 0.29053724D+00 0.42096681D+00 0.24480978D+06 0.24480978D+06 0.24480978D+06 0.10911452D+01  1  2  4  2  6  2        1 -.315102556606D-02 0.100000000000D+01
-.172188251282D+01 0.000000000000D+00 -.104020087601D-02 0.576692959671D-03 0.000000000000D+00  6 3 1 25 3 1 21 2 0.29053724D+00 0.52071366D+00 0.24480978D+06 0.24480978D+06 0.24480978D+06 0.10911452D+01  1  2  5  2  6  2        1 -.917353704709D-03 0.100000000000D+01
0.168391117991D+01 0.000000000000D+00 0.101711784167D-02 0.576692959671D-03 0.000000000000D+00  6 3 1 25 3 1 21 2 0.29053724D+00 0.42096681D+00 0.24480978D+06 0.24480978D+06 0.24480978D+06 0.10911452D+01  1  2  6  2  6  2        1 0.275907153204D-02 0.100000000000D+01
0.511101641466D-01 0.000000000000D+00 0.000000000000D+00 0.576692959671D-03 0.000000000000D+00  6 3 21 25 3 1 -1 2 0.29053724D+00 0.52302227D+00 0.25071821D+06 0.25071821D+06 0.25071821D+06 0.10903654D+01  1  2 12  6  6  2        1 0.393418845665D-05 0.100000000000D+01
-.516201381516D-01 0.000000000000D+00 -.311921116211D-04 0.576692959671D-03 0.000000000000D+00  6 3 21 25 3 1 -1 2 0.29053724D+00 0.52071366D+00 0.24480978D+06 0.24480978D+06 0.24480978D+06 0.10911452D+01  1  2  5  6  6  2        1 -.417653485036D-05 0.100000000000D+01
  </mgrwgt>
  </event>
  <event>
  5     66 0.20977079E-05 0.27048749E+02 0.75467711E-02 0.92117343E-01
        3 -1    0    0  501    0 0.00000000E+00 0.00000000E+00 0.12610493E+04 0.12610494E+04 0.50000000E+00 0.0000E+00 0.9000E+01
        1 -1    0    0  502    0 0.00000000E+00 0.00000000E+00 -.61454977E+03 0.61454986E+03 0.32000000E+00 0.0000E+00 0.9000E+01
       25  1    1    2    0    0 -.49658589E+03 0.30115687E+03 0.69952828E+03 0.91774605E+03 0.12500000E+03 0.0000E+00 0.9000E+01
        3  1    1    2  501    0 0.23821006E+02 0.12918547E+02 0.29224613E+03 0.29350022E+03 0.50000000E+00 0.0000E+00 0.9000E+01
        1  1    1    2  502    0 0.47276488E+03 -.31407542E+03 -.34527490E+03 0.66435296E+03 0.32000000E+00 0.0000E+00 0.9000E+01
#aMCatNLO 1  0  0  5  2 0.53824202D+01 0.00000000D+00  -5  6  0 0.00000000D+00 0.00000000D+00 0.00000000D+00 0.00000000D+00 0.00000000D+00
  <mgrwgt>
 0.1085248054D-03    3    2    0
 0.880328189394974D+03 0.000000000000000D+00 0.000000000000000D+00 0.880328189394974D+03
 0.880328189394974D+03 -.000000000000000D+00 -.000000000000000D+00 -.880328189394974D+03
 0.721097747269560D+03 -.496684447147553D+03 0.301265104752658D+03 0.408535014089777D+03
 0.204972896784268D+03 0.237772642015796D+02 0.128948247681965D+02 0.203180347517716D+03
 0.834585734736120D+03 0.472907182945973D+03 -.314159929520855D+03 -.611715361607493D+03
 0.000000000000000D+00 -.000000000000000D+00 0.000000000000000D+00 0.000000000000000D+00
 0.880328189394974D+03 0.000000000000000D+00 0.000000000000000D+00 0.880328189394974D+03
 0.880328189394974D+03 -.000000000000000D+00 -.000000000000000D+00 -.880328189394974D+03
 0.586968815911081D+03 -.417022591951085D+03 0.248344439310192D+03 0.305490733277070D+03
 0.179252440073850D+03 0.471767638976655D+02 -.264984327755280D+01 0.172912603795031D+03
 0.483326298538879D+03 0.480254979237861D+03 -.510111336457411D+02 -.189031748844313D+02
 0.511108824266138D+03 -.110409151184441D+03 -.194683462386898D+03 -.459500162187670D+03
0.540407071559D-03 0.000000000000D+00 0.000000000000D+00 0.405983921436D-05 0.000000000000D+00  6 3 1 25 3 1 21 0 0.19400760D+00 0.94546133D-01 0.35343198D+06 0.35343198D+06 0.35343198D+06 0.10793243D+01  1  2  2  4  6  5        1 0.168979836460D-03 0.100000000000D+01
0.219909666719D-03 0.000000000000D+00 -.207530544724D-05 0.405983921436D-05 0.000000000000D+00  6 3 1 25 3 1 21 2 0.19400760D+00 0.94546133D-01 0.35343198D+06 0.35343198D+06 0.35343198D+06 0.10793243D+01  1  2  3  4  6  5        1 0.801054522023D-04 0.100000000000D+01
-.385873972122D-03 0.000000000000D+00 0.000000000000D+00 0.405983921436D-05 0.000000000000D+00  6 3 1 25 3 1 21 2 0.19400760D+00 0.94546133D-01 0.35343198D+06 0.35343198D+06 0.35343198D+06 0.10793243D+01  1  2 15  4  6  5        1 -.140560483270D-03 0.100000000000D+01
  </mgrwgt>
  </event>
  <event>
  6     66 0.20977079E-05 0.30941407E+02 0.75467711E-02 0.94177307E-01
        1 -1    0    0  501    0 0.00000000E+00 0.00000000E+00 0.15450988E+04 0.15450988E+04 0.32000000E+00 0.0000E+00 0.9000E+01
        3 -1    0    0  502    0 0.00000000E+00 0.00000000E+00 -.74579497E+03 0.74579514E+03 0.50000000E+00 0.0000E+00 0.9000E+01
       25  1    1    2    0    0 -.33178859E+03 -.33876228E+03 0.75894293E+02 0.49621416E+03 0.12500000E+03 0.0000E+00 0.9000E+01
        1  1    1    2  501    0 0.36162831E+03 0.34883241E+03 0.12075680E+04 0.13079295E+04 0.32000000E+00 0.0000E+00 0.9000E+01
        3  1    1    2  503    0 -.11212453E+00 0.11164377E+02 -.19043211E+03 0.19075978E+03 0.50000000E+00 0.0000E+00 0.9000E+01
       21  1    1    2  502  503 -.29727597E+02 -.21234509E+02 -.29372635E+03 0.29599049E+03 0.75000000E+00 0.0000E+00 0.9000E+01
#aMCatNLO 2  0  0  5  4 0.19027077D+02 0.00000000D+00  -5  6  0 0.00000000D+00 0.00000000D+00 0.00000000D+00 0.00000000D+00 0.00000000D+00
  <mgrwgt>
 0.4143866610D-03    1    2    0
 0.107346502022747D+04 0.000000000000000D+00 0.000000000000000D+00 0.107346502022747D+04
 0.107346502022747D+04 -.000000000000000D+00 -.000000000000000D+00 -.107346502022747D+04
 0.501206529186719D+03 -.331792720351732D+03 -.338770961619547D+03 -.103589628749030D+03
 0.946499836440930D+03 0.361659471753899D+03 0.348849601934466D+03 0.802102438659528D+03
 0.699223674827287D+03 -.298667514021682D+02 -.100786403149185D+02 -.698512809910498D+03
 0.000000000000000D+00 0.000000000000000D+00 -.000000000000000D+00 0.000000000000000D+00
 0.107346502022747D+04 0.000000000000000D+00 0.000000000000000D+00 0.107346502022747D+04
 0.107346502022747D+04 -.000000000000000D+00 -.000000000000000D+00 -.107346502022747D+04
 0.501268636587449D+03 -.331803560440220D+03 -.338774619645537D+03 -.103843152828944D+03
 0.946083889960288D+03 0.361639006633400D+03 0.348842695907569D+03 0.801623807802349D+03
 0.274175942426625D+03 -.115484346117549D+00 0.111477967898368D+02 -.273949193639306D+03
 0.425401571480574D+03 -.297199618470641D+02 -.212158730518689D+02 -.423831461334099D+03
0.121360089126D-02 0.000000000000D+00 0.000000000000D+00 0.556424775180D-04 0.479234955460D-07  6 1 3 25 1 3 21 2 0.23770752D+00 0.11473770D+00 0.27067384D+06 0.27067384D+06 0.27067384D+06 0.10878727D+01  1  2  1  4  6  5        3 0.414386661006D-03 0.100000000000D+01
  </mgrwgt>
  </event>
  <event>
  5     66 0.20977079E-05 0.51746040E+02 0.75467711E-02 0.94160428E-01
        3 -1    0    0  501    0 0.00000000E+00 0.00000000E+00 0.31373991E+03 0.31374031E+03 0.50000000E+00 0.0000E+00 0.9000E+01
        1 -1    0    0  502    0 0.00000000E+00 0.00000000E+00 -.41890265E+04 0.41890265E+04 0.32000000E+00 0.0000E+00 0.9000E+01
       25  1    1    2    0    0 -.46999907E+03 0.13975868E+03 -.50966833E+03 0.71820500E+03 0.12500000E+03 0.0000E+00 0.9000E+01
        3  1    1    2  501    0 0.24580666E+02 -.45549673E+02 0.19152804E+03 0.19839915E+03 0.50000000E+00 0.0000E+00 0.9000E+01
        1  1    1    2  502    0 0.44541840E+03 -.94209011E+02 -.35571463E+04 0.35861627E+04 0.32000000E+00 0.0000E+00 0.9000E+01
#aMCatNLO 1  0  0  2  5 0.24644739D+02 0.00000000D+00  -5  6  0 0.00000000D+00 0.00000000D+00 0.00000000D+00 0.00000000D+00 0.00000000D+00
  <mgrwgt>
 0.9938829802D-03    9    2    0
 0.114641429245643D+04 0.000000000000000D+00 0.000000000000000D+00 0.114641429245643D+04
 0.114641429245643D+04 0.000000000000000D+00 0.000000000000000D+00 -.114641429245643D+04
 0.549158501865379D+03 -.470086869269910D+03 0.139769475433657D+03 0.213149921998678D+03
 0.713164918692070D+03 0.245745672115113D+02 -.455383715987368D+02 0.711285138753488D+03
 0.103050516435542D+04 0.445512302058398D+03 -.942311038349201D+02 -.924435060752166D+03
 0.000000000000000D+00 0.000000000000000D+00 0.000000000000000D+00 -.000000000000000D+00
 0.114983534432654D+04 0.000000000000000D+00 0.000000000000000D+00 0.114983534432654D+04
 0.119174087378797D+04 0.000000000000000D+00 0.000000000000000D+00 -.119174087378797D+04
 0.549563903689768D+03 -.472166669579273D+03 0.134243179078538D+03 0.213149921998678D+03
 0.713571182362676D+03 0.218738612193967D+02 -.527144940434156D+02 0.711285138753488D+03
 0.102982594348010D+04 0.441612247546174D+03 -.104594049228590D+03 -.924435060752166D+03
 0.486151885819684D+02 0.868056081370185D+01 0.230653641934683D+02 -.419055294614284D+02
0.451111752037D-02 0.000000000000D+00 0.000000000000D+00 0.689049238831D-04 0.000000000000D+00  6 3 1 25 3 1 21 0 0.48267711D-01 0.64446564D+00 0.25665354D+06 0.25665354D+06 0.25665354D+06 0.10896020D+01  1  2  2  2  6  2        1 0.896795407258D-04 0.100000000000D+01
0.176937326966D-02 0.000000000000D+00 -.173238790828D-04 0.689049238831D-04 0.000000000000D+00  6 3 1 25 3 1 21 2 0.48267711D-01 0.64446564D+00 0.25665354D+06 0.25665354D+06 0.25665354D+06 0.10896020D+01  1  2  3  2  6  2        1 0.417603821478D-04 0.100000000000D+01
-.279476214649D-02 0.000000000000D+00 0.000000000000D+00 0.689049238831D-04 0.000000000000D+00  6 3 1 25 3 1 21 2 0.48267711D-01 0.64446564D+00 0.25665354D+06 0.25665354D+06 0.25665354D+06 0.10896020D+01  1  2 15  2  6  2        1 -.659613984517D-04 0.100000000000D+01
0.136718416985D-01 0.000000000000D+00 0.000000000000D+00 0.689049238831D-04 0.000000000000D+00  6 3 1 25 3 1 21 2 0.48267711D-01 0.69046607D+00 0.27148878D+06 0.27148878D+06 0.27148878D+06 0.10877752D+01  1  2 12  2  6  2        1 0.156904008145D-03 0.100000000000D+01
-.754969282461D-02 0.000000000000D+00 0.000000000000D+00 0.689049238831D-04 0.000000000000D+00  6 3 1 25 3 1 21 2 0.48267711D-01 0.64446564D+00 0.25665354D+06 0.25665354D+06 0.25665354D+06 0.10896020D+01  1  2  4  2  6  2        1 -.178186289383D-03 0.100000000000D+01
-.116036209830D+00 0.000000000000D+00 -.104014752023D-01 0.689049238831D-04 0.000000000000D+00  6 3 1 25 3 1 21 2 0.48267711D-01 0.67027530D+00 0.25665354D+06 0.25665354D+06 0.25665354D+06 0.10896020D+01  1  2  5  2  6  2        1 -.185427768332D-02 0.100000000000D+01
0.118823005657D+00 0.000000000000D+00 0.107772962556D-01 0.689049238831D-04 0.000000000000D+00  6 3 1 25 3 1 21 2 0.48267711D-01 0.64446564D+00 0.25665354D+06 0.25665354D+06 0.25665354D+06 0.10896020D+01  1  2  6  2  6  2        1 0.280443601658D-02 0.100000000000D+01
0.493689046212D-03 0.000000000000D+00 0.000000000000D+00 0.689049238831D-04 0.000000000000D+00  6 3 21 25 3 1 -1 2 0.48267711D-01 0.69046607D+00 0.27148878D+06 0.27148878D+06 0.27148878D+06 0.10877752D+01  1  2 12  6  6  2        1 0.311596516458D-06 0.100000000000D+01
-.800456009812D-03 0.000000000000D+00 -.722658375877D-04 0.689049238831D-04 0.000000000000D+00  6 3 21 25 3 1 -1 2 0.48267711D-01 0.67027530D+00 0.25665354D+06 0.25665354D+06 0.25665354D+06 0.10896020D+01  1  2  5  6  6  2        1 -.783192730514D-06 0.100000000000D+01
  </mgrwgt>
  </event>
  <event>
  5     66 0.20977079E-05 0.15108259E+03 0.75467711E-02 0.90824469E-01
        3 -1    0    0  501    0 0.00000000E+00 0.00000000E+00 0.88318018E+03 0.88318032E+03 0.50000000E+00 0.0000E+00 0.9000E+01
        1 -1    0    0  502    0 -.00000000E+00 -.00000000E+00 -.18853227E+04 0.18853227E+04 0.32000000E+00 0.0000E+00 0.9000E+01
       25  1    1    2    0    0 0.43865870E+03 -.55059092E+03 -.86955376E+03 0.11257533E+04 0.12500000E+03 0.0000E+00 0.9000E+01
        3  1    1    2  501    0 -.13584857E+03 0.66153452E+02 0.65364179E+03 0.67087924E+03 0.50000000E+00 0.0000E+00 0.9000E+01
        1  1    1    2  502    0 -.30281012E+03 0.48443747E+03 -.78623051E+03 0.97187043E+03 0.32000000E+00 0.0000E+00 0.9000E+01
#aMCatNLO 1  0  0  5  2 0.67873491D+02 0.00000000D+00  -5  6  0 0.00000000D+00 0.00000000D+00 0.00000000D+00 0.00000000D+00 0.00000000D+00
  <mgrwgt>
 0.9529698629D-04    7    2    0
 0.129037972097621D+04 0.000000000000000D+00 0.000000000000000D+00 0.129037972097621D+04
 0.129037972097621D+04 -.000000000000000D+00 -.000000000000000D+00 -.129037972097621D+04
 0.870014108949870D+03 0.438713399412237D+03 -.550677296644972D+03 -.495564948223521D+03
 0.973391331091146D+03 -.135833208509095D+03 0.661459695805611D+02 0.961594890594665D+03
 0.737354001911412D+03 -.302880190903141D+03 0.484531327064411D+03 -.466029942371144D+03
 0.000000000000000D+00 0.000000000000000D+00 0.000000000000000D+00 -.000000000000000D+00
 0.129037972097621D+04 0.000000000000000D+00 0.000000000000000D+00 0.129037972097621D+04
 0.129037972097621D+04 -.000000000000000D+00 -.000000000000000D+00 -.129037972097621D+04
 0.866914191635202D+03 0.433750362820523D+03 -.542737699476594D+03 -.503201379149973D+03
 0.966410826572914D+03 -.141375929579349D+03 0.750129145851507D+02 0.953066521759294D+03
 0.659723624436577D+03 -.293063016790321D+03 0.467108159486773D+03 -.362159213841604D+03
 0.877107993077354D+02 0.688583549146923D+00 0.616625404670252D+00 -.877059287677179D+02
0.198877243712D-03 0.000000000000D+00 0.000000000000D+00 0.929177839243D-06 0.000000000000D+00  6 3 1 25 3 1 21 0 0.13587389D+00 0.29004965D+00 0.51665251D+06 0.51665251D+06 0.51665251D+06 0.10675063D+01  1  2  2  4  6  5        1 0.207790699935D-04 0.100000000000D+01
0.412542579270D-04 0.000000000000D+00 -.763740981437D-06 0.929177839243D-06 0.000000000000D+00  6 3 1 25 3 1 21 2 0.13587389D+00 0.29004965D+00 0.51665251D+06 0.51665251D+06 0.51665251D+06 0.10675063D+01  1  2  3  4  6  5        1 0.491191277813D-05 0.100000000000D+01
-.107921335634D-03 0.000000000000D+00 0.000000000000D+00 0.929177839243D-06 0.000000000000D+00  6 3 1 25 3 1 21 2 0.13587389D+00 0.29004965D+00 0.51665251D+06 0.51665251D+06 0.51665251D+06 0.10675063D+01  1  2 15  4  6  5        1 -.128495872711D-04 0.100000000000D+01
0.753319986726D-03 0.000000000000D+00 0.000000000000D+00 0.929177839243D-06 0.000000000000D+00  6 3 1 25 3 1 21 2 0.13587389D+00 0.29004965D+00 0.50291011D+06 0.50291011D+06 0.50291011D+06 0.10683323D+01  1  2 12  4  6  5        1 0.900076748102D-04 0.100000000000D+01
-.194553429194D-03 0.000000000000D+00 0.000000000000D+00 0.929177839243D-06 0.000000000000D+00  6 3 1 25 3 1 21 2 0.13587389D+00 0.29004965D+00 0.51665251D+06 0.51665251D+06 0.51665251D+06 0.10675063D+01  1  2  4  4  6  5        1 -.231643840638D-04 0.100000000000D+01
-.104090438489D-02 0.000000000000D+00 0.000000000000D+00 0.929177839243D-06 0.000000000000D+00  6 3 1 25 3 1 21 2 0.13587389D+00 0.29004965D+00 0.51665251D+06 0.51665251D+06 0.51665251D+06 0.10675063D+01  1  2  5  4  6  5        1 -.123934638650D-03 0.100000000000D+01
0.117202924029D-02 0.000000000000D+00 -.000000000000D+00 0.929177839243D-06 0.000000000000D+00  6 3 1 25 3 1 21 2 0.13587389D+00 0.29004965D+00 0.51665251D+06 0.51665251D+06 0.51665251D+06 0.10675063D+01  1  2  6  4  6  5        1 0.139546938692D-03 0.100000000000D+01
  </mgrwgt>
  </event>
  <event>
  5     66 0.20977079E-05 0.71543873E+02 0.75467711E-02 0.84592605E-01
        3 -1    0    0  501    0 0.00000000E+00 0.00000000E+00 0.17308718E+04 0.17308719E+04 0.50000000E+00 0.0000E+00 0.9000E+01
        1 -1    0    0  502    0 0.00000000E+00 0.00000000E+00 -.21674364E+04 0.21674364E+04 0.32000000E+00 0.0000E+00 0.9000E+01
       25  1    1    2    0    0 0.33737155E+03 0.61790848E+03 -.60989014E+02 0.71761767E+03 0.12500000E+03 0.0000E+00 0.9000E+01
        3  1    1    2  501    0 -.43599437E+02 0.56730602E+02 0.13254264E+04 0.13273563E+04 0.50000000E+00 0.0000E+00 0.9000E+01
        1  1    1    2  502    0 -.29377212E+03 -.67463908E+03 -.17010020E+04 0.18533343E+04 0.32000000E+00 0.0000E+00 0.9000E+01
#aMCatNLO 1  0  0  1  4 0.18335661D+02 0.00000000D+00  -5  6  0 0.00000000D+00 0.00000000D+00 0.00000000D+00 0.00000000D+00 0.00000000D+00
  <mgrwgt>
 0.5942740117D-03    7    2    0
 0.193689304129242D+04 0.000000000000000D+00 0.000000000000000D+00 0.193689304129242D+04
 0.193689304129242D+04 0.000000000000000D+00 0.000000000000000D+00 -.193689304129242D+04
 0.715377723683099D+03 0.337405495364672D+03 0.617992163570784D+03 0.195832838112990D+02
 0.148502228521642D+04 -.435962590613263D+02 0.567264666516912D+02 0.148329790054678D+04
 0.167338607368532D+04 -.293809236303346D+03 -.674718630222476D+03 -.150288118435807D+04
 0.000000000000000D+00 -.000000000000000D+00 -.000000000000000D+00 0.000000000000000D+00
 0.263534924176041D+04 0.000000000000000D+00 0.000000000000000D+00 0.263534924176041D+04
 0.238641005284694D+04 0.000000000000000D+00 0.000000000000000D+00 -.238641005284694D+04
 0.908618988919966D+03 0.489469789117259D+03 0.754982971703742D+03 0.195832838112990D+02
 0.153438629641497D+04 0.239128594968906D+03 0.311426010358447D+03 0.148329790054678D+04
 0.155582380529422D+04 0.856053810267036D+01 -.402321483406045D+03 -.150288118435807D+04
 0.102293020397820D+04 -.737158922188835D+03 -.664087498656145D+03 0.248939188913467D+03
0.833147308505D-01 0.000000000000D+00 0.000000000000D+00 0.678045540263D-04 0.000000000000D+00  6 3 1 25 3 1 21 0 0.26628797D+00 0.33345176D+00 0.57955279D+06 0.57955279D+06 0.57955279D+06 0.10640078D+01  1  2  2  1  6  1        3 0.437759873785D-03 0.100000000000D+01
0.402821572782D-01 0.000000000000D+00 -.319950503738D-03 0.678045540263D-04 0.000000000000D+00  6 3 1 25 3 1 21 2 0.26628797D+00 0.33345176D+00 0.57955279D+06 0.57955279D+06 0.57955279D+06 0.10640078D+01  1  2  3  1  6  1        3 0.239616388772D-03 0.100000000000D+01
-.500769145541D-01 0.000000000000D+00 0.000000000000D+00 0.678045540263D-04 0.000000000000D+00  6 3 1 25 3 1 21 2 0.26628797D+00 0.33345176D+00 0.57955279D+06 0.57955279D+06 0.57955279D+06 0.10640078D+01  1  2 15  1  6  1        3 -.297880010333D-03 0.100000000000D+01
-.106190859936D-02 0.000000000000D+00 0.000000000000D+00 0.678045540263D-04 0.000000000000D+00  6 3 1 25 3 1 21 2 0.26628797D+00 0.33345176D+00 0.57955279D+06 0.57955279D+06 0.57955279D+06 0.10640078D+01  1  2  4  1  6  1        3 -.631670995242D-05 0.100000000000D+01
-.197059429571D-01 0.000000000000D+00 -.448836338469D-01 0.678045540263D-04 0.000000000000D+00  6 3 1 25 3 1 21 2 0.39640951D+00 0.33345176D+00 0.57955279D+06 0.57955279D+06 0.57955279D+06 0.10640078D+01  1  2  5  1  6  1        3 -.114234926241D-04 0.100000000000D+01
0.378598201202D-01 0.000000000000D+00 0.415512372626D-01 0.678045540263D-04 0.000000000000D+00  6 3 1 25 3 1 21 2 0.26628797D+00 0.33345176D+00 0.57955279D+06 0.57955279D+06 0.57955279D+06 0.10640078D+01  1  2  6  1  6  1        3 0.225207237887D-03 0.100000000000D+01
0.586570358308D-03 0.000000000000D+00 -.212809735133D-02 0.678045540263D-04 0.000000000000D+00  6 21 1 25 3 1 -3 2 0.39640951D+00 0.33345176D+00 0.57955279D+06 0.57955279D+06 0.57955279D+06 0.10640078D+01  1  2  5  5  6  1        3 0.731072420338D-05 0.100000000000D+01
  </mgrwgt>
  </event>
  <event>
  5     66 0.20977079E-05 0.11973651E+03 0.75467711E-02 0.93365100E-01
        1 -1    0    0  501    0 0.00000000E+00 0.00000000E+00 0.29724048E+03 0.29724065E+03 0.32000000E+00 0.0000E+00 0.9000E+01
        3 -1    0    0  502    0 0.00000000E+00 0.00000000E+00 -.14782667E+04 0.14782668E+04 0.50000000E+00 0.0000E+00 0.9000E+01
       25  1    1    2    0    0 0.18132602E+03 0.43243522E+03 -.50977947E+03 0.70383198E+03 0.12500000E+03 0.0000E+00 0.9000E+01
        1  1    1    2  501    0 -.63666441E+02 -.45460700E+03 -.76963318E+02 0.46545074E+03 0.32000000E+00 0.0000E+00 0.9000E+01
        3  1    1    2  502    0 -.11765957E+03 0.22171774E+02 -.59428348E+03 0.60622477E+03 0.50000000E+00 0.0000E+00 0.9000E+01
#aMCatNLO 1  0  0  2  4 0.57416955D+02 0.00000000D+00  -5  6  0 0.00000000D+00 0.00000000D+00 0.00000000D+00 0.00000000D+00 0.00000000D+00
  <mgrwgt>
 0.1058737906D-03    7    2    0
 0.662873253089560D+03 0.000000000000000D+00 0.000000000000000D+00 0.662873253089560D+03
 0.662873253089560D+03 0.000000000000000D+00 0.000000000000000D+00 -.662873253089560D+03
 0.488469693329848D+03 0.181331300892304D+03 0.432428109076205D+03 -.557003689326895D+02
 0.554783605729982D+03 -.636653130160765D+02 -.454598945799528D+03 0.311562795569822D+03
 0.282493207119291D+03 -.117665987876227D+03 0.221708367233230D+02 -.255862426637132D+03
 0.000000000000000D+00 -.000000000000000D+00 -.000000000000000D+00 -.000000000000000D+00
 0.677189932162664D+03 0.000000000000000D+00 0.000000000000000D+00 0.677189932162664D+03
 0.723674156247090D+03 0.000000000000000D+00 0.000000000000000D+00 -.723674156247090D+03
 0.508574788261405D+03 0.184369544627346D+03 0.453793626189043D+03 -.557003689326895D+02
 0.535423273423220D+03 -.603431801708092D+02 -.431237065599453D+03 0.311562795569822D+03
 0.282991201768471D+03 -.115942815546117D+03 0.342885175672630D+02 -.255862426637132D+03
 0.738748249566584D+02 -.808354891041951D+01 -.568450781568530D+02 -.464842240844251D+02
0.666229376677D-04 0.000000000000D+00 0.000000000000D+00 0.193332840212D-06 0.000000000000D+00  6 1 3 25 1 3 21 0 0.45729325D-01 0.22742567D+00 0.28305348D+06 0.28305348D+06 0.28305348D+06 0.10864251D+01  1  2  2  2  6  2        3 0.306038154035D-04 0.100000000000D+01
0.712127674533D-05 0.000000000000D+00 -.255849622866D-06 0.193332840212D-06 0.000000000000D+00  6 1 3 25 1 3 21 2 0.45729325D-01 0.22742567D+00 0.28305348D+06 0.28305348D+06 0.28305348D+06 0.10864251D+01  1  2  3  2  6  2        3 0.386108415037D-05 0.100000000000D+01
-.368962909966D-04 0.000000000000D+00 0.000000000000D+00 0.193332840212D-06 0.000000000000D+00  6 1 3 25 1 3 21 2 0.45729325D-01 0.22742567D+00 0.28305348D+06 0.28305348D+06 0.28305348D+06 0.10864251D+01  1  2 15  2  6  2        3 -.200047954137D-04 0.100000000000D+01
-.283949773091D-04 0.000000000000D+00 0.000000000000D+00 0.193332840212D-06 0.000000000000D+00  6 1 3 25 1 3 21 2 0.45729325D-01 0.22742567D+00 0.28305348D+06 0.28305348D+06 0.28305348D+06 0.10864251D+01  1  2  4  2  6  2        3 -.153954692058D-04 0.100000000000D+01
-.844392297847D-03 0.000000000000D+00 -.139001996570D-03 0.193332840212D-06 0.000000000000D+00  6 1 3 25 1 3 21 2 0.45729325D-01 0.25070011D+00 0.28305348D+06 0.28305348D+06 0.28305348D+06 0.10864251D+01  1  2  5  2  6  2        3 -.290404389895D-03 0.100000000000D+01
0.854533599521D-03 0.000000000000D+00 0.138344796887D-03 0.193332840212D-06 0.000000000000D+00  6 1 3 25 1 3 21 2 0.45729325D-01 0.22742567D+00 0.28305348D+06 0.28305348D+06 0.28305348D+06 0.10864251D+01  1  2  6  2  6  2        3 0.463319465745D-03 0.100000000000D+01
-.129730820428D-04 0.000000000000D+00 -.220748922978D-05 0.193332840212D-06 0.000000000000D+00  6 1 21 25 1 3 -3 2 0.45729325D-01 0.25070011D+00 0.28305348D+06 0.28305348D+06 0.28305348D+06 0.10864251D+01  1  2  5  6  6  2        3 -.661059202253D-04 0.100000000000D+01
  </mgrwgt>
  </event>
  <event>
  6     66 0.20977079E-05 0.93077951E+02 0.75467711E-02 0.93727004E-01
        3 -1    0    0  501    0 0.00000000E+00 0.00000000E+00 0.31176362E+04 0.31176362E+04 0.50000000E+00 0.0000E+00 0.9000E+01
        1 -1    0    0  502    0 0.00000000E+00 0.00000000E+00 -.22723213E+04 0.22723213E+04 0.32000000E+00 0.0000E+00 0.9000E+01
       25  1    1    2    0    0 -.38658376E+03 -.26865132E+03 0.72059947E+03 0.86977533E+03 0.12500000E+03 0.0000E+00 0.9000E+01
        3  1    1    2  503    0 0.31794143E+03 0.32369436E+03 0.20364930E+04 0.20864249E+04 0.50000000E+00 0.0000E+00 0.9000E+01
        1  1    1    2  502    0 0.45093979E+02 -.89890057E+02 -.21699004E+04 0.21722296E+04 0.32000000E+00 0.0000E+00 0.9000E+01
       21  1    1    2  501  503 0.23548351E+02 0.34847009E+02 0.25812272E+03 0.26152771E+03 0.75000000E+00 0.0000E+00 0.9000E+01
#aMCatNLO 2  0  0  4  1 0.15550450D+02 0.00000000D+00  -5  6  0 0.00000000D+00 0.00000000D+00 0.00000000D+00 0.00000000D+00 0.00000000D+00
  <mgrwgt>
 0.1468131297D-02    5    2    0
 0.266162942693514D+04 0.000000000000000D+00 0.000000000000000D+00 0.266162942693514D+04
 0.266162942693514D+04 -.000000000000000D+00 -.000000000000000D+00 -.266162942693514D+04
 0.766421864563248D+03 -.386558603830428D+03 -.268593186738454D+03 0.591783423494573D+03
 0.201246571905932D+04 0.341503409257273D+03 0.358555686706524D+03 0.195059773182095D+04
 0.254437127024772D+04 0.450551945731555D+02 -.899624999680696D+02 -.254238115531552D+04
 0.000000000000000D+00 0.000000000000000D+00 0.000000000000000D+00 0.000000000000000D+00
 0.266162942693514D+04 0.000000000000000D+00 0.000000000000000D+00 0.266162942693514D+04
 0.266162942693514D+04 -.000000000000000D+00 -.000000000000000D+00 -.266162942693514D+04
 0.766474516392519D+03 -.386543722832894D+03 -.268577562688605D+03 0.591868420713490D+03
 0.178911837111714D+04 0.317936168289817D+03 0.323685277061453D+03 0.173063253759303D+04
 0.254408838396914D+04 0.451045921426898D+02 -.899106358314728D+02 -.254209900648631D+04
 0.223577582391490D+03 0.235029624003876D+02 0.348029214586248D+02 0.219598048179792D+03
-.650140172409D+01 0.000000000000D+00 0.000000000000D+00 0.673153330746D-03 0.000000000000D+00  6 3 1 25 3 1 21 2 0.47963634D+00 0.34958790D+00 0.29338733D+06 0.29338733D+06 0.29338733D+06 0.10852688D+01  1  2 13  3  6  4        3 -.204859129671D-02 0.100000000000D+01
-.482394704801D+00 0.000000000000D+00 0.000000000000D+00 0.673153330746D-03 0.000000000000D+00  6 3 1 25 3 1 21 2 0.47963634D+00 0.34958790D+00 0.29311620D+06 0.29311620D+06 0.29311620D+06 0.10852985D+01  1  2  8  3  6  4        3 -.152025012551D-03 0.100000000000D+01
-.244177344442D+00 0.000000000000D+00 0.000000000000D+00 0.673153330746D-03 0.000000000000D+00  6 3 1 25 3 1 21 2 0.47963634D+00 0.34958790D+00 0.29311620D+06 0.29311620D+06 0.29311620D+06 0.10852985D+01  1  2  9  3  6  4        3 -.769516403977D-04 0.100000000000D+01
0.272801032176D+00 0.000000000000D+00 0.000000000000D+00 0.673153330746D-03 0.000000000000D+00  6 3 1 25 3 1 21 2 0.47963634D+00 0.34958790D+00 0.29311620D+06 0.29311620D+06 0.29311620D+06 0.10852985D+01  1  2 10  3  6  4        3 0.859722959805D-04 0.100000000000D+01
0.116144958470D+02 0.000000000000D+00 0.000000000000D+00 0.673153330746D-03 0.240541542971D-04  6 3 1 25 3 1 21 2 0.47963634D+00 0.34958790D+00 0.29338733D+06 0.29338733D+06 0.29338733D+06 0.10852688D+01  1  2  1  3  6  4        3 0.365972695083D-02 0.100000000000D+01
  </mgrwgt>
  </event>
  <event>
  6     66 0.20977079E-05 0.11964587E+02 0.75467711E-02 0.92691997E-01
        1 -1    0    0  501    0 0.00000000E+00 0.00000000E+00 0.85481496E+03 0.85481502E+03 0.32000000E+00 0.0000E+00 0.9000E+01
        3 -1    0    0  502    0 0.00000000E+00 0.00000000E+00 -.72671773E+03 0.72671790E+03 0.50000000E+00 0.0000E+00 0.9000E+01
       25  1    1    2    0    0 -.55350519E+03 0.19233007E+03 0.28624708E+03 0.66401901E+03 0.12500000E+03 0.0000E+00 0.9000E+01
        1  1    1    2  501    0 0.14142651E+02 0.65321247E+01 0.22522171E+03 0.22576006E+03 0.32000000E+00 0.0000E+00 0.9000E+01
        3  1    1    2  503    0 0.39413801E+03 -.15584208E+03 -.29508942E+03 0.51643929E+03 0.50000000E+00 0.0000E+00 0.9000E+01
       21  1    1    2  502  503 0.14522453E+03 -.43020117E+02 -.88282146E+02 0.17531456E+03 0.75000000E+00 0.0000E+00 0.9000E+01
#aMCatNLO 2  0  0  5  2 0.46257747D+01 0.00000000D+00  -5  6  0 0.00000000D+00 0.00000000D+00 0.00000000D+00 0.00000000D+00 0.00000000D+00
  <mgrwgt>
 0.3380020118D-03    1    2    0
 0.788168362886777D+03 0.000000000000000D+00 0.000000000000000D+00 0.788168362886777D+03
 0.788168362886777D+03 -.000000000000000D+00 -.000000000000000D+00 -.788168362886777D+03
 0.643385336041182D+03 -.553822780438308D+03 0.192455518616098D+03 0.233582730214833D+03
 0.208049738468307D+03 0.140546140318158D+02 0.655283502716494D+01 0.207471014491795D+03
 0.724901651264064D+03 0.539768166406492D+03 -.199008353643263D+03 -.441053744706627D+03
 0.000000000000000D+00 0.000000000000000D+00 0.000000000000000D+00 0.000000000000000D+00
 0.788168362886777D+03 0.000000000000000D+00 0.000000000000000D+00 0.788168362886777D+03
 0.788168362886777D+03 -.000000000000000D+00 -.000000000000000D+00 -.788168362886777D+03
 0.643095589926481D+03 -.553594220526662D+03 0.192371250342131D+03 0.233395970025560D+03
 0.207993659960291D+03 0.141285295018911D+02 0.652558296429063D+01 0.207410616904650D+03
 0.542055783062766D+03 0.394126071432381D+03 -.155843712429828D+03 -.337937640793616D+03
 0.183191692824016D+03 0.145339619592389D+03 -.430531208765931D+02 -.102868946136594D+03
0.301869657088D-03 0.000000000000D+00 0.000000000000D+00 0.318438806891D-05 0.499964332348D-07  6 1 3 25 1 3 21 2 0.13151001D+00 0.11180275D+00 0.35415124D+06 0.35415124D+06 0.35415124D+06 0.10792599D+01  1  2  1  4  6  5        3 0.338002011800D-03 0.100000000000D+01
  </mgrwgt>
  </event>
  <event>
  5     66 0.20977079E-05 0.88212740E+02 0.75467711E-02 0.90246150E-01
        3 -1    0    0  501    0 0.00000000E+00 0.00000000E+00 0.61372070E+03 0.61372091E+03 0.50000000E+00 0.0000E+00 0.9000E+01
        1 -1    0    0  502    0 0.00000000E+00 0.00000000E+00 -.89238258E+03 0.89238264E+03 0.32000000E+00 0.0000E+00 0.9000E+01
       25  1    1    2    0    0 0.27015388E+03 0.38368088E+03 -.45535497E+03 0.66570811E+03 0.12500000E+03 0.0000E+00 0.9000E+01
        3  1    1    2  501    0 -.18248955E+03 -.39339865E+03 0.40640527E+03 0.59433191E+03 0.50000000E+00 0.0000E+00 0.9000E+01
        1  1    1    2  502    0 -.87664329E+02 0.97177661E+01 -.22971218E+03 0.24606352E+03 0.32000000E+00 0.0000E+00 0.9000E+01
#aMCatNLO 1  0  0  2  5 0.44162489D+01 0.00000000D+00  -5  6  0 0.00000000D+00 0.00000000D+00 0.00000000D+00 0.00000000D+00 0.00000000D+00
  <mgrwgt>
 0.3973626995D-03    7    2    0
 0.740049906174179D+03 0.000000000000000D+00 0.000000000000000D+00 0.740049906174179D+03
 0.740049906174179D+03 0.000000000000000D+00 0.000000000000000D+00 -.740049906174179D+03
 0.591651694572836D+03 0.270162645170112D+03 0.383676735572620D+03 -.337980821091870D+03
 0.681277164660908D+03 -.182486549705344D+03 -.393392177665753D+03 0.525432991747227D+03
 0.207170953114613D+03 -.876760954647682D+02 0.971544209313322D+01 -.187452170655357D+03
 0.000000000000000D+00 0.000000000000000D+00 -.000000000000000D+00 -.000000000000000D+00
 0.855678772833020D+03 0.000000000000000D+00 0.000000000000000D+00 0.855678772833020D+03
 0.121320458949151D+04 0.000000000000000D+00 0.000000000000000D+00 -.121320458949151D+04
 0.588784876873284D+03 0.127530753030726D+03 0.447825303930192D+03 -.337980821091870D+03
 0.706988734081209D+03 -.350230413899246D+03 -.317949521907599D+03 0.525432991747227D+03
 0.237214963305349D+03 -.141371148322564D+03 0.338647450088210D+02 -.187452170655357D+03
 0.535894788064684D+03 0.364070809191084D+03 -.163740527031414D+03 -.357525816658485D+03
0.203328071646D-03 0.000000000000D+00 0.000000000000D+00 0.596748261361D-06 0.000000000000D+00  6 3 1 25 3 1 21 0 0.94418590D-01 0.13728965D+00 0.25375594D+06 0.25375594D+06 0.25375594D+06 0.10899722D+01  1  2  2  2  6  2        1 0.279013995957D-03 0.100000000000D+01
0.237751110809D-04 0.000000000000D+00 -.780833332632D-06 0.596748261361D-06 0.000000000000D+00  6 3 1 25 3 1 21 2 0.94418590D-01 0.13728965D+00 0.25375594D+06 0.25375594D+06 0.25375594D+06 0.10899722D+01  1  2  3  2  6  2        1 0.387598489331D-04 0.100000000000D+01
-.123279318985D-03 0.000000000000D+00 0.000000000000D+00 0.596748261361D-06 0.000000000000D+00  6 3 1 25 3 1 21 2 0.94418590D-01 0.13728965D+00 0.25375594D+06 0.25375594D+06 0.25375594D+06 0.10899722D+01  1  2 15  2  6  2        1 -.200978568057D-03 0.100000000000D+01
-.926515260498D-05 0.000000000000D+00 0.000000000000D+00 0.596748261361D-06 0.000000000000D+00  6 3 1 25 3 1 21 2 0.94418590D-01 0.13728965D+00 0.25375594D+06 0.25375594D+06 0.25375594D+06 0.10899722D+01  1  2  4  2  6  2        1 -.151046997883D-04 0.100000000000D+01
-.209561366036D-03 0.000000000000D+00 -.117977161352D-03 0.596748261361D-06 0.000000000000D+00  6 3 1 25 3 1 21 2 0.94418590D-01 0.24168096D+00 0.25375594D+06 0.25375594D+06 0.25375594D+06 0.10899722D+01  1  2  5  2  6  2        1 -.111773513778D-03 0.100000000000D+01
0.251603910884D-03 0.000000000000D+00 0.101336046789D-03 0.596748261361D-06 0.000000000000D+00  6 3 1 25 3 1 21 2 0.94418590D-01 0.13728965D+00 0.25375594D+06 0.25375594D+06 0.25375594D+06 0.10899722D+01  1  2  6  2  6  2        1 0.410182292889D-03 0.100000000000D+01
-.701712182797D-05 0.000000000000D+00 -.735758653553D-05 0.596748261361D-06 0.000000000000D+00  6 3 21 25 3 1 -1 2 0.94418590D-01 0.24168096D+00 0.25375594D+06 0.25375594D+06 0.25375594D+06 0.10899722D+01  1  2  5  6  6  2        1 -.273665665401D-05 0.100000000000D+01
  </mgrwgt>
  </event>
  <event>
  5     66 0.20977079E-05 0.36618883E+02 0.75467711E-02 0.93495438E-01
        3 -1    0    0  501    0 0.00000000E+00 0.00000000E+00 0.14912169E+03 0.14912253E+03 0.50000000E+00 0.0000E+00 0.9000E+01
        1 -1    0    0  502    0 -.00000000E+00 -.00000000E+00 -.25359976E+04 0.25359976E+04 0.32000000E+00 0.0000E+00 0.9000E+01
       25  1    1    2    0    0 0.23248374E+03 0.45285068E+03 -.93365941E+03 0.10707321E+04 0.12500000E+03 0.0000E+00 0.9000E+01
        3  1    1    2  501    0 -.20165987E+03 -.47260371E+03 -.74378143E+03 0.90400887E+03 0.50000000E+00 0.0000E+00 0.9000E+01
        1  1    1    2  502    0 -.30823871E+02 0.19753033E+02 -.70943509E+03 0.71037915E+03 0.32000000E+00 0.0000E+00 0.9000E+01
#aMCatNLO 1  0  0  5  4 0.30597986D+02 0.00000000D+00  -5  6  0 0.00000000D+00 0.00000000D+00 0.00000000D+00 0.00000000D+00 0.00000000D+00
  <mgrwgt>
 0.3732259750D-02    6    2    0
 0.614958048691128D+03 0.000000000000000D+00 0.000000000000000D+00 0.614958048691128D+03
 0.614958048691128D+03 -.000000000000000D+00 -.000000000000000D+00 -.614958048691128D+03
 0.525630246191230D+03 0.232478197664752D+03 0.452814884499088D+03 0.396827884312381D+02
 0.530128794406405D+03 -.201646191370211D+03 -.472571655756062D+03 0.130580941720649D+03
 0.174157056784621D+03 -.308320062945410D+02 0.197567712569732D+02 -.170263730151887D+03
 0.000000000000000D+00 0.000000000000000D+00 0.000000000000000D+00 -.000000000000000D+00
 0.614958048691128D+03 0.000000000000000D+00 0.000000000000000D+00 0.614958048691128D+03
 0.614958048691128D+03 -.000000000000000D+00 -.000000000000000D+00 -.614958048691128D+03
 0.525187234169617D+03 0.230737052996555D+03 0.453930588634792D+03 0.300676572228029D+02
 0.527496499109297D+03 -.203398616196759D+03 -.471448723433319D+03 0.120903518041875D+03
 0.337498556158818D+02 -.247521291048489D+02 -.193483457551526D+02 -.123298976236152D+02
 0.143482508487460D+03 -.258630769494673D+01 0.368664805536788D+02 -.138641277641063D+03
0.224141845371D-02 0.000000000000D+00 0.000000000000D+00 0.397400250585D-06 0.000000000000D+00  6 3 1 25 3 1 21 0 0.22941864D-01 0.39015355D+00 0.28866115D+06 0.28866115D+06 0.28866115D+06 0.10857920D+01  1  2  2  4  6  5        1 0.398905971434D-02 0.100000000000D+01
0.715084982981D-03 0.000000000000D+00 -.860763704128D-05 0.397400250585D-06 0.000000000000D+00  6 3 1 25 3 1 21 2 0.22941864D-01 0.39015355D+00 0.28866115D+06 0.28866115D+06 0.28866115D+06 0.10857920D+01  1  2  3  4  6  5        1 0.150037057755D-02 0.100000000000D+01
-.154445247260D-02 0.000000000000D+00 0.000000000000D+00 0.397400250585D-06 0.000000000000D+00  6 3 1 25 3 1 21 2 0.22941864D-01 0.39015355D+00 0.28866115D+06 0.28866115D+06 0.28866115D+06 0.10857920D+01  1  2 15  4  6  5        1 -.324052539692D-02 0.100000000000D+01
-.339003015796D-03 0.000000000000D+00 0.000000000000D+00 0.397400250585D-06 0.000000000000D+00  6 3 1 25 3 1 21 2 0.22941864D-01 0.39015355D+00 0.28866115D+06 0.28866115D+06 0.28866115D+06 0.10857920D+01  1  2  4  4  6  5        1 -.711286298419D-03 0.100000000000D+01
-.565915395040D-03 0.000000000000D+00 0.000000000000D+00 0.397400250585D-06 0.000000000000D+00  6 3 1 25 3 1 21 2 0.22941864D-01 0.39015355D+00 0.28866115D+06 0.28866115D+06 0.28866115D+06 0.10857920D+01  1  2  5  4  6  5        1 -.118738727327D-02 0.100000000000D+01
0.161189360546D-02 0.000000000000D+00 -.000000000000D+00 0.397400250585D-06 0.000000000000D+00  6 3 1 25 3 1 21 2 0.22941864D-01 0.39015355D+00 0.28866115D+06 0.28866115D+06 0.28866115D+06 0.10857920D+01  1  2  6  4  6  5        1 0.338202842644D-02 0.100000000000D+01
  </mgrwgt>
  </event>
  <event>
  5     66 0.20977079E-05 0.13047584E+03 0.75467711E-02 0.94487568E-01
        1 -1    0    0  501    0 0.00000000E+00 0.00000000E+00 0.70936209E+03 0.70936216E+03 0.32000000E+00 0.0000E+00 0.9000E+01
        3 -1    0    0  502    0 0.00000000E+00 0.00000000E+00 -.75578096E+03 0.75578113E+03 0.50000000E+00 0.0000E+00 0.9000E+01
       25  1    1    2    0    0 -.55884877E+02 0.47495164E+03 0.13864128E+03 0.51336983E+03 0.12500000E+03 0.0000E+00 0.9000E+01
        1  1    1    2  501    0 0.86455681E+02 -.34813367E+03 0.28865323E+03 0.46042635E+03 0.32000000E+00 0.0000E+00 0.9000E+01
        3  1    1    2  502    0 -.30570804E+02 -.12681797E+03 -.47371338E+03 0.49134711E+03 0.50000000E+00 0.0000E+00 0.9000E+01
#aMCatNLO 1  0  0  2  5 0.23026173D+02 0.00000000D+00  -5  6  0 0.00000000D+00 0.00000000D+00 0.00000000D+00 0.00000000D+00 0.00000000D+00
  <mgrwgt>
 0.5472482495D-03    9    2    0
 0.732203889871400D+03 0.000000000000000D+00 0.000000000000000D+00 0.732203889871400D+03
 0.732203889871400D+03 0.000000000000000D+00 0.000000000000000D+00 -.732203889871400D+03
 0.518025104194187D+03 -.558647590322112D+02 0.474913145231287D+03 0.155118154192854D+03
 0.469721749624190D+03 0.864399495820037D+02 -.348070319903317D+03 0.303337616507866D+03
 0.476660925924424D+03 -.305751905497925D+02 -.126842825327970D+03 -.458455770700720D+03
 0.000000000000000D+00 0.000000000000000D+00 0.000000000000000D+00 -.000000000000000D+00
 0.733135085485307D+03 0.000000000000000D+00 0.000000000000000D+00 0.733135085485307D+03
 0.889964640314730D+03 0.000000000000000D+00 0.000000000000000D+00 -.889964640314730D+03
 0.512880995846452D+03 -.610142801968135D+02 0.468655024247383D+03 0.155118154192854D+03
 0.473142386979262D+03 0.817302104247782D+02 -.353793981678153D+03 0.303337616507866D+03
 0.478565416131771D+03 -.353466806643723D+02 -.132641531937004D+03 -.458455770700720D+03
 0.158510926842552D+03 0.146307504364076D+02 0.177804893677732D+02 -.156829554829423D+03
0.101954845834D-04 0.000000000000D+00 0.000000000000D+00 0.857563925198D-06 0.000000000000D+00  6 1 3 25 1 3 21 0 0.10913265D+00 0.11627401D+00 0.24175621D+06 0.24175621D+06 0.24175621D+06 0.10915563D+01  1  2  2  2  6  2        3 0.121110447416D-04 0.100000000000D+01
0.137634825445D-05 0.000000000000D+00 -.391533453331D-07 0.857563925198D-06 0.000000000000D+00  6 1 3 25 1 3 21 2 0.10913265D+00 0.11627401D+00 0.24175621D+06 0.24175621D+06 0.24175621D+06 0.10915563D+01  1  2  3  2  6  2        3 0.194802430648D-05 0.100000000000D+01
-.534984927268D-05 0.000000000000D+00 0.000000000000D+00 0.857563925198D-06 0.000000000000D+00  6 1 3 25 1 3 21 2 0.10913265D+00 0.11627401D+00 0.24175621D+06 0.24175621D+06 0.24175621D+06 0.10915563D+01  1  2 15  2  6  2        3 -.757194727824D-05 0.100000000000D+01
0.781857771355D-03 0.000000000000D+00 0.000000000000D+00 0.857563925198D-06 0.000000000000D+00  6 1 3 25 1 3 21 2 0.10913265D+00 0.14755878D+00 0.25617231D+06 0.25617231D+06 0.25617231D+06 0.10896632D+01  1  2 12  2  6  2        3 0.575782397003D-03 0.100000000000D+01
-.379396323984D-03 0.000000000000D+00 0.000000000000D+00 0.857563925198D-06 0.000000000000D+00  6 1 3 25 1 3 21 2 0.10913265D+00 0.11627401D+00 0.24175621D+06 0.24175621D+06 0.24175621D+06 0.10915563D+01  1  2  4  2  6  2        3 -.536981289816D-03 0.100000000000D+01
-.102528914992D-02 0.000000000000D+00 -.128965096435D-04 0.857563925198D-06 0.000000000000D+00  6 1 3 25 1 3 21 2 0.10913265D+00 0.14139722D+00 0.24175621D+06 0.24175621D+06 0.24175621D+06 0.10915563D+01  1  2  5  2  6  2        3 -.858633572845D-03 0.100000000000D+01
0.100869266031D-02 0.000000000000D+00 0.126536185937D-04 0.857563925198D-06 0.000000000000D+00  6 1 3 25 1 3 21 2 0.10913265D+00 0.11627401D+00 0.24175621D+06 0.24175621D+06 0.24175621D+06 0.10915563D+01  1  2  6  2  6  2        3 0.142766034229D-02 0.100000000000D+01
0.255361208377D-04 0.000000000000D+00 0.000000000000D+00 0.857563925198D-06 0.000000000000D+00  6 1 21 25 1 3 -3 2 0.10913265D+00 0.14755878D+00 0.25617231D+06 0.25617231D+06 0.25617231D+06 0.10896632D+01  1  2 12  6  6  2        3 0.235465631198D-03 0.100000000000D+01
-.287028317767D-04 0.000000000000D+00 -.362834354527D-06 0.857563925198D-06 0.000000000000D+00  6 1 21 25 1 3 -3 2 0.10913265D+00 0.14139722D+00 0.24175621D+06 0.24175621D+06 0.24175621D+06 0.10915563D+01  1  2  5  6  6  2        3 -.302532380055D-03 0.100000000000D+01
  </mgrwgt>
  </event>
  <event>
  5     66 0.20977079E-05 0.39982747E+02 0.75467711E-02 0.87094898E-01
        3 -1    0    0  501    0 0.00000000E+00 0.00000000E+00 0.57122336E+03 0.57122358E+03 0.50000000E+00 0.0000E+00 0.9000E+01
        1 -1    0    0  502    0 -.00000000E+00 -.00000000E+00 -.26460481E+04 0.26460481E+04 0.32000000E+00 0.0000E+00 0.9000E+01
       25  1    1    2    0    0 0.41979006E+03 0.76150696E+03 -.15647757E+03 0.89231540E+03 0.12500000E+03 0.0000E+00 0.9000E+01
        3  1    1    2  501    0 -.38172812E+03 -.77372574E+03 -.71385869E+03 0.11198046E+04 0.50000000E+00 0.0000E+00 0.9000E+01
        1  1    1    2  502    0 -.38061938E+02 0.12218775E+02 -.12044884E+04 0.12051517E+04 0.32000000E+00 0.0000E+00 0.9000E+01
#aMCatNLO 1  0  0  5  1 0.10477549D+03 0.00000000D+00  -5  6  0 0.00000000D+00 0.00000000D+00 0.00000000D+00 0.00000000D+00 0.00000000D+00
  <mgrwgt>
 0.3633061295D-04    6    2    0
 0.122942460599968D+04 0.000000000000000D+00 0.000000000000000D+00 0.122942460599968D+04
 0.122942460599968D+04 -.000000000000000D+00 -.000000000000000D+00 -.122942460599968D+04
 0.103548177402259D+04 0.419736960339921D+03 0.761382376154309D+03 0.548375114077211D+03
 0.862699339347039D+03 -.381667656819180D+03 -.773603186478657D+03 0.108655288892387D+02
 0.560668098629721D+03 -.380693035207409D+02 0.122208103243484D+02 -.559240642966450D+03
 0.000000000000000D+00 0.000000000000000D+00 0.000000000000000D+00 -.000000000000000D+00
 0.122942460599968D+04 0.000000000000000D+00 0.000000000000000D+00 0.122942460599968D+04
 0.122942460599968D+04 -.000000000000000D+00 -.000000000000000D+00 -.122942460599968D+04
 0.101444204240816D+04 0.417019709492431D+03 0.762254653925105D+03 0.508458515387050D+03
 0.863287437793469D+03 -.383955516980299D+03 -.772868749478452D+03 -.227432915827339D+02
 0.323601640418579D+03 -.112948574244712D+03 0.131905636615385D+03 -.273059598415387D+03
 0.257518091379145D+03 0.798843817325800D+02 -.121291541062038D+03 -.212655625388930D+03
0.385097516658D-03 0.000000000000D+00 0.000000000000D+00 0.454728309233D-06 0.000000000000D+00  6 3 1 25 3 1 21 0 0.87880536D-01 0.40708434D+00 0.79296221D+06 0.79296221D+06 0.79296221D+06 0.10546370D+01  1  2  2  4  6  5        1 0.354117102403D-04 0.100000000000D+01
0.218500394555D-03 0.000000000000D+00 -.147887586247D-05 0.454728309233D-06 0.000000000000D+00  6 3 1 25 3 1 21 2 0.87880536D-01 0.40708434D+00 0.79296221D+06 0.79296221D+06 0.79296221D+06 0.10546370D+01  1  2  3  4  6  5        1 0.223477794272D-04 0.100000000000D+01
-.220221530252D-03 0.000000000000D+00 0.000000000000D+00 0.454728309233D-06 0.000000000000D+00  6 3 1 25 3 1 21 2 0.87880536D-01 0.40708434D+00 0.79296221D+06 0.79296221D+06 0.79296221D+06 0.10546370D+01  1  2 15  4  6  5        1 -.225238137130D-04 0.100000000000D+01
-.162741033947D-03 0.000000000000D+00 0.000000000000D+00 0.454728309233D-06 0.000000000000D+00  6 3 1 25 3 1 21 2 0.87880536D-01 0.40708434D+00 0.79296221D+06 0.79296221D+06 0.79296221D+06 0.10546370D+01  1  2  4  4  6  5        1 -.166448245450D-04 0.100000000000D+01
-.282956146118D-03 0.000000000000D+00 0.000000000000D+00 0.454728309233D-06 0.000000000000D+00  6 3 1 25 3 1 21 2 0.87880536D-01 0.40708434D+00 0.79296221D+06 0.79296221D+06 0.79296221D+06 0.10546370D+01  1  2  5  4  6  5        1 -.289401836271D-04 0.100000000000D+01
0.456402680612D-03 0.000000000000D+00 -.000000000000D+00 0.454728309233D-06 0.000000000000D+00  6 3 1 25 3 1 21 2 0.87880536D-01 0.40708434D+00 0.79296221D+06 0.79296221D+06 0.79296221D+06 0.10546370D+01  1  2  6  4  6  5        1 0.466799451646D-04 0.100000000000D+01
  </mgrwgt>
  </event>
  <event>
  5     66 0.20977079E-05 0.62609379E+02 0.75467711E-02 0.89172485E-01
        3 -1    0    0  501    0 0.00000000E+00 0.00000000E+00 0.59083854E+03 0.59083875E+03 0.50000000E+00 0.0000E+00 0.9000E+01
        1 -1    0    0  502    0 0.00000000E+00 0.00000000E+00 -.11558603E+04 0.11558604E+04 0.32000000E+00 0.0000E+00 0.9000E+01
       25  1    1    2    0    0 0.38618617E+03 -.24389679E+03 0.92999114E+02 0.48259635E+03 0.12500000E+03 0.0000E+00 0.9000E+01
        3  1    1    2  501    0 -.40729153E+03 0.18497067E+03 0.13605844E+03 0.46756036E+03 0.50000000E+00 0.0000E+00 0.9000E+01
        1  1    1    2  502    0 0.21105359E+02 0.58926117E+02 -.79407936E+03 0.79654244E+03 0.32000000E+00 0.0000E+00 0.9000E+01
#aMCatNLO 1  0  0  2  4 0.17352185D+03 0.00000000D+00  -5  6  0 0.00000000D+00 0.00000000D+00 0.00000000D+00 0.00000000D+00 0.00000000D+00
  <mgrwgt>
 0.1311835445D-02    6    2    0
 0.826394013065192D+03 0.000000000000000D+00 0.000000000000000D+00 0.826394013065192D+03
 0.826394013065192D+03 0.000000000000000D+00 0.000000000000000D+00 -.826394013065192D+03
 0.541819710734083D+03 0.386064499788915D+03 -.243860762861343D+03 0.263495216805513D+03
 0.540484751023856D+03 -.407174768940848D+03 0.184917647602005D+03 0.303542315390502D+03
 0.570483564372445D+03 0.211102691519333D+02 0.589431152593380D+02 -.567037532196015D+03
 0.000000000000000D+00 -.000000000000000D+00 0.000000000000000D+00 -.000000000000000D+00
 0.975922768936896D+03 0.000000000000000D+00 0.000000000000000D+00 0.975922768936896D+03
 0.154782941641458D+04 0.000000000000000D+00 0.000000000000000D+00 -.154782941641458D+04
 0.673051553504387D+03 0.425026556090811D+03 -.432777184025301D+03 0.263495216805513D+03
 0.482650244959987D+03 -.374361873870069D+03 0.258168379124879D+02 0.303542315390502D+03
 0.582574287017297D+03 0.580899115614943D+02 -.120361119758599D+03 -.567037532196015D+03
 0.785476099869801D+03 -.108754593782236D+03 0.527321465871412D+03 -.571906647477680D+03
0.837417626432D-03 0.000000000000D+00 0.000000000000D+00 0.399091906388D-05 0.000000000000D+00  6 3 1 25 3 1 21 0 0.90898257D-01 0.17782469D+00 0.24169032D+06 0.24169032D+06 0.24169032D+06 0.10915653D+01  1  2  2  2  6  2        1 0.794686951241D-03 0.100000000000D+01
0.275136162266D-03 0.000000000000D+00 -.321590418262D-05 0.399091906388D-05 0.000000000000D+00  6 3 1 25 3 1 21 2 0.90898257D-01 0.17782469D+00 0.24169032D+06 0.24169032D+06 0.24169032D+06 0.10915653D+01  1  2  3  2  6  2        1 0.311100756416D-03 0.100000000000D+01
-.472201619650D-03 0.000000000000D+00 0.000000000000D+00 0.399091906388D-05 0.000000000000D+00  6 3 1 25 3 1 21 2 0.90898257D-01 0.17782469D+00 0.24169032D+06 0.24169032D+06 0.24169032D+06 0.10915653D+01  1  2 15  2  6  2        1 -.533925747325D-03 0.100000000000D+01
-.552595968604D-03 0.000000000000D+00 -.430451011924D-03 0.399091906388D-05 0.000000000000D+00  6 3 1 25 3 1 21 2 0.90898257D-01 0.35373638D+00 0.24169032D+06 0.24169032D+06 0.24169032D+06 0.10915653D+01  1  2  5  2  6  2        1 -.106090383221D-03 0.100000000000D+01
0.749307931554D-03 0.000000000000D+00 0.345473756297D-03 0.399091906388D-05 0.000000000000D+00  6 3 1 25 3 1 21 2 0.90898257D-01 0.17782469D+00 0.24169032D+06 0.24169032D+06 0.24169032D+06 0.10915653D+01  1  2  6  2  6  2        1 0.847254182710D-03 0.100000000000D+01
-.154190432150D-04 0.000000000000D+00 -.320406777401D-04 0.399091906388D-05 0.000000000000D+00  6 3 21 25 3 1 -1 2 0.90898257D-01 0.35373638D+00 0.24169032D+06 0.24169032D+06 0.24169032D+06 0.10915653D+01  1  2  5  6  6  2        1 -.119031513378D-05 0.100000000000D+01
  </mgrwgt>
  </event>
  <event>
  5     66 0.20977079E-05 0.44125847E+02 0.75467711E-02 0.94546523E-01
        1 -1    0    0  501    0 0.00000000E+00 0.00000000E+00 0.18870261E+04 0.18870261E+04 0.32000000E+00 0.0000E+00 0.9000E+01
        3 -1    0    0  502    0 0.00000000E+00 0.00000000E+00 -.11235308E+04 0.11235309E+04 0.50000000E+00 0.0000E+00 0.9000E+01
       25  1    1    2    0    0 0.38846337E+03 0.22896590E+03 0.14278352E+04 0.15025536E+04 0.12500000E+03 0.0000E+00 0.9000E+01
        1  1    1    2  501    0 0.40380898E+02 0.17887262E+02 0.36407302E+03 0.36674220E+03 0.32000000E+00 0.0000E+00 0.9000E+01
        3  1    1    2  502    0 -.42884427E+03 -.24685316E+03 -.10284129E+04 0.11412612E+04 0.50000000E+00 0.0000E+00 0.9000E+01
#aMCatNLO 1  0  0  2  2 0.34358541D+03 0.00000000D+00  -5  6  0 0.00000000D+00 0.00000000D+00 0.00000000D+00 0.00000000D+00 0.00000000D+00
  <mgrwgt>
 0.1180462175D-02    3    2    0
 0.145606736615579D+04 0.000000000000000D+00 0.000000000000000D+00 0.145606736615579D+04
 0.145606736615579D+04 0.000000000000000D+00 0.000000000000000D+00 -.145606736615579D+04
 0.117924036108865D+04 0.388544481327495D+03 0.229008004598220D+03 0.108239149529197D+04
 0.283432051479729D+03 0.403448532936850D+02 0.178712956705296D+02 0.279976137214898D+03
 0.144946231974320D+04 -.428889334621180D+03 -.246879300268750D+03 -.136236763250687D+04
 0.000000000000000D+00 0.000000000000000D+00 0.000000000000000D+00 0.000000000000000D+00
 0.375340506381164D+04 0.000000000000000D+00 0.000000000000000D+00 0.375340506381164D+04
 0.147906995651949D+04 0.000000000000000D+00 0.000000000000000D+00 -.147906995651949D+04
 0.113792872873986D+04 0.253984863100325D+03 0.207791077592455D+03 0.108239149529197D+04
 0.280367587765616D+03 0.760461670651186D+01 0.127089206655053D+02 0.279976137214898D+03
 0.151403716220468D+04 -.600981807569210D+03 -.274014286863434D+03 -.136236763250687D+04
 0.230014154162097D+04 0.339392327762374D+03 0.535142886054736D+02 0.227433510729215D+04
0.728187322081D-01 0.000000000000D+00 0.000000000000D+00 0.285230133345D-04 0.000000000000D+00  6 1 3 25 1 3 21 0 0.29031172D+00 0.17285090D+00 0.25351643D+06 0.25351643D+06 0.25351643D+06 0.10900031D+01  1  2  2  2  6  2        3 0.389436020914D-02 0.100000000000D+01
0.107339639776D-01 0.000000000000D+00 -.279643105292D-03 0.285230133345D-04 0.000000000000D+00  6 1 3 25 1 3 21 2 0.29031172D+00 0.17285090D+00 0.25351643D+06 0.25351643D+06 0.25351643D+06 0.10900031D+01  1  2  3  2  6  2        3 0.682037989576D-03 0.100000000000D+01
-.534454905843D-01 0.000000000000D+00 0.000000000000D+00 0.285230133345D-04 0.000000000000D+00  6 1 3 25 1 3 21 2 0.29031172D+00 0.17285090D+00 0.25351643D+06 0.25351643D+06 0.25351643D+06 0.10900031D+01  1  2 15  2  6  2        3 -.339593602384D-02 0.100000000000D+01
  </mgrwgt>
  </event>
  <event>
  6     66 0.20977079E-05 0.10173153E+03 0.75467711E-02 0.93570890E-01
        1 -1    0    0  501    0 0.00000000E+00 0.00000000E+00 0.20998483E+04 0.20998484E+04 0.32000000E+00 0.0000E+00 0.9000E+01
        3 -1    0    0  502    0 0.00000000E+00 0.00000000E+00 -.45627485E+03 0.45627513E+03 0.50000000E+00 0.0000E+00 0.9000E+01
       25  1    1    2    0    0 -.28409776E+03 -.37126956E+03 0.11192082E+03 0.49669296E+03 0.12500000E+03 0.0000E+00 0.9000E+01
        1  1    1    2  501    0 0.37208074E+03 0.32993870E+03 0.17417619E+04 0.18113637E+04 0.32000000E+00 0.0000E+00 0.9000E+01
        3  1    1    2  503    0 -.98405867E+02 0.42029257E+02 -.13516762E+03 0.17239695E+03 0.50000000E+00 0.0000E+00 0.9000E+01
       21  1    1    2  502  503 0.10422889E+02 -.69839708E+00 -.74941638E+02 0.75669915E+02 0.75000000E+00 0.0000E+00 0.9000E+01
#aMCatNLO 2  0  0  5  2 0.41603936D+02 0.00000000D+00  -5  6  0 0.00000000D+00 0.00000000D+00 0.00000000D+00 0.00000000D+00 0.00000000D+00
  <mgrwgt>
 0.3113814905D-03    1    2    0
 0.978830106984538D+03 0.000000000000000D+00 0.000000000000000D+00 0.978830106984538D+03
 0.978830106984538D+03 -.000000000000000D+00 -.000000000000000D+00 -.978830106984538D+03
 0.553544564856607D+03 -.283745641266895D+03 -.371459903646261D+03 -.268872713988310D+03
 0.906032620486262D+03 0.372763961673797D+03 0.329646718805198D+03 0.757149376968261D+03
 0.498083028626208D+03 -.890183204069029D+02 0.418131848410632D+02 -.488276662979951D+03
 0.000000000000000D+00 0.000000000000000D+00 0.000000000000000D+00 -.000000000000000D+00
 0.978830106984538D+03 0.000000000000000D+00 0.000000000000000D+00 0.978830106984538D+03
 0.978830106984538D+03 -.000000000000000D+00 -.000000000000000D+00 -.978830106984538D+03
 0.554709052676762D+03 -.284151367447581D+03 -.371269328226388D+03 -.271098173025100D+03
 0.902839819447297D+03 0.372101742399443D+03 0.329957772718565D+03 0.753517021112018D+03
 0.338148647059675D+03 -.983525751364545D+02 0.419972876009599D+02 -.320791998507568D+03
 0.161962694785343D+03 0.104022001845931D+02 -.685732093136311D+00 -.161626849579351D+03
0.683151572741D-03 0.000000000000D+00 0.000000000000D+00 0.453562763726D-05 0.567169397596D-07  6 1 3 25 1 3 21 2 0.32305361D+00 0.70196154D-01 0.30175449D+06 0.30175449D+06 0.30175449D+06 0.10843646D+01  1  2  1  4  6  5        3 0.311381490545D-03 0.100000000000D+01
  </mgrwgt>
  </event>
  <event>
  5     66 0.20977079E-05 0.44732037E+02 0.75467711E-02 0.90019240E-01
        1 -1    0    0  501    0 0.00000000E+00 0.00000000E+00 0.14542474E+04 0.14542474E+04 0.32000000E+00 0.0000E+00 0.9000E+01
        3 -1    0    0  502    0 0.00000000E+00 0.00000000E+00 -.84143384E+03 0.84143399E+03 0.50000000E+00 0.0000E+00 0.9000E+01
       25  1    1    2    0    0 0.69665298E+02 -.51166631E+03 -.71250147E+02 0.53605714E+03 0.12500000E+03 0.0000E+00 0.9000E+01
        1  1    1    2  501    0 -.86798818E+02 0.47034756E+03 0.11739794E+04 0.12676705E+04 0.32000000E+00 0.0000E+00 0.9000E+01
        3  1    1    2  502    0 0.17133520E+02 0.41318751E+02 -.48991572E+03 0.49195372E+03 0.50000000E+00 0.0000E+00 0.9000E+01
#aMCatNLO 1  0  0  2  2 0.32871056D+03 0.00000000D+00  -5  6  0 0.00000000D+00 0.00000000D+00 0.00000000D+00 0.00000000D+00 0.00000000D+00
  <mgrwgt>
 0.1941318391D-02    3    2    0
 0.110618857286110D+04 0.000000000000000D+00 0.000000000000000D+00 0.110618857286110D+04
 0.110618857286110D+04 0.000000000000000D+00 0.000000000000000D+00 -.110618857286110D+04
 0.575966218303907D+03 0.696641511529261D+02 -.511664604769365D+03 -.222392272567316D+03
 0.990211460637103D+03 -.867981886441937D+02 0.470344151399204D+03 0.867041631335955D+03
 0.646199466781183D+03 0.171340374912676D+02 0.413204533701607D+02 -.644649358768639D+03
 0.000000000000000D+00 -.000000000000000D+00 -.000000000000000D+00 0.000000000000000D+00
 0.325417439398256D+04 0.000000000000000D+00 0.000000000000000D+00 0.325417439398256D+04
 0.113679500553739D+04 0.000000000000000D+00 0.000000000000000D+00 -.113679500553739D+04
 0.588036572668246D+03 0.164752045545346D+03 -.503547864047090D+03 -.222392272567316D+03
 0.995940655801159D+03 0.754514418205503D+02 0.484193844792691D+03 0.867041631335955D+03
 0.658344185792203D+03 0.123702776010012D+03 0.504172035420261D+02 -.644649358768639D+03
 0.214864798525835D+04 -.363906263375908D+03 -.310631842876268D+02 0.211737938844517D+04
0.111616362635D-01 0.000000000000D+00 0.000000000000D+00 0.510032633737D-04 0.000000000000D+00  6 1 3 25 1 3 21 0 0.22373038D+00 0.12945137D+00 0.27789620D+06 0.27789620D+06 0.27789620D+06 0.10870196D+01  1  2  2  2  6  2        3 0.269874860635D-02 0.100000000000D+01
0.486697661953D-02 0.000000000000D+00 -.428636221782D-04 0.510032633737D-04 0.000000000000D+00  6 1 3 25 1 3 21 2 0.22373038D+00 0.12945137D+00 0.27789620D+06 0.27789620D+06 0.27789620D+06 0.10870196D+01  1  2  3  2  6  2        3 0.139049227235D-02 0.100000000000D+01
-.751812054921D-02 0.000000000000D+00 0.000000000000D+00 0.510032633737D-04 0.000000000000D+00  6 1 3 25 1 3 21 2 0.22373038D+00 0.12945137D+00 0.27789620D+06 0.27789620D+06 0.27789620D+06 0.10870196D+01  1  2 15  2  6  2        3 -.214792248730D-02 0.100000000000D+01
  </mgrwgt>
  </event>
  <event>
  5     66 -.20977079E-05 0.76919375E+02 0.75467711E-02 0.95297552E-01
        3 -1    0    0  501    0 0.00000000E+00 0.00000000E+00 0.30570073E+03 0.30570114E+03 0.50000000E+00 0.0000E+00 0.9000E+01
        1 -1    0    0  502    0 -.00000000E+00 -.00000000E+00 -.24563134E+04 0.24563134E+04 0.32000000E+00 0.0000E+00 0.9000E+01
       25  1    1    2    0    0 -.70057361E+02 0.44754060E+03 -.24218577E+03 0.52865827E+03 0.12500000E+03 0.0000E+00 0.9000E+01
        3  1    1    2  501    0 0.37248622E+02 -.67351630E+02 0.13457008E+03 0.15502599E+03 0.50000000E+00 0.0000E+00 0.9000E+01
        1  1    1    2  502    0 0.32808739E+02 -.38018897E+03 -.20429970E+04 0.20783303E+04 0.32000000E+00 0.0000E+00 0.9000E+01
#aMCatNLO 1  0  0  4  2 0.22703061D+02 0.00000000D+00  -5  6  0 0.00000000D+00 0.00000000D+00 0.00000000D+00 0.00000000D+00 0.00000000D+00
  <mgrwgt>
 -.9368979743D-03    6    2    0
 0.866543358896952D+03 0.000000000000000D+00 0.000000000000000D+00 0.866543358896952D+03
 0.866543358896952D+03 -.000000000000000D+00 -.000000000000000D+00 -.866543358896952D+03
 0.542174173550474D+03 -.700477817820665D+02 0.447613291981727D+03 0.270302577815737D+03
 0.413805467018951D+03 0.372262557744456D+02 -.673111882753678D+02 0.406593623103887D+03
 0.777107077224478D+03 0.328215260076208D+02 -.380302103706359D+03 -.676896200919624D+03
 0.000000000000000D+00 0.000000000000000D+00 0.000000000000000D+00 0.000000000000000D+00
 0.866543358896952D+03 0.000000000000000D+00 0.000000000000000D+00 0.866543358896952D+03
 0.866543358896952D+03 -.000000000000000D+00 -.000000000000000D+00 -.866543358896952D+03
 0.542572184080297D+03 -.699439637796686D+02 0.447425571971740D+03 0.271436501624623D+03
 0.323978813115637D+03 0.308106640973120D+02 -.748764856480062D+02 0.313698081318174D+03
 0.775831576050810D+03 0.329701533689347D+02 -.380570846401324D+03 -.675272859112295D+03
 0.907041445471577D+02 0.616314631342180D+01 0.802176007759063D+01 0.901382761694975D+02
0.331311962895D-03 0.000000000000D+00 0.000000000000D+00 0.114754014391D-04 0.000000000000D+00  6 3 1 25 3 1 21 0 0.47030914D-01 0.37789440D+00 0.21558556D+06 0.21558556D+06 0.21558556D+06 0.10953312D+01  1  2  2  3  6  4        3 0.173554002144D-03 0.100000000000D+01
0.654233337182D-04 0.000000000000D+00 -.127232517396D-05 0.114754014391D-04 0.000000000000D+00  6 3 1 25 3 1 21 2 0.47030914D-01 0.37789440D+00 0.21558556D+06 0.21558556D+06 0.21558556D+06 0.10953312D+01  1  2  3  3  6  4        3 0.411169662232D-04 0.100000000000D+01
-.240114425295D-03 0.000000000000D+00 0.000000000000D+00 0.114754014391D-04 0.000000000000D+00  6 3 1 25 3 1 21 2 0.47030914D-01 0.37789440D+00 0.21558556D+06 0.21558556D+06 0.21558556D+06 0.10953312D+01  1  2 15  3  6  4        3 -.150906047635D-03 0.100000000000D+01
-.350006341744D-02 0.000000000000D+00 0.000000000000D+00 0.114754014391D-04 0.000000000000D+00  6 3 1 25 3 1 21 2 0.47030914D-01 0.37789440D+00 0.21558556D+06 0.21558556D+06 0.21558556D+06 0.10953312D+01  1  2  4  3  6  4        3 -.219970431244D-02 0.100000000000D+01
-.748117605453D-02 0.000000000000D+00 0.000000000000D+00 0.114754014391D-04 0.000000000000D+00  6 3 1 25 3 1 21 2 0.47030914D-01 0.37789440D+00 0.21558556D+06 0.21558556D+06 0.21558556D+06 0.10953312D+01  1  2  5  3  6  4        3 -.470173630205D-02 0.100000000000D+01
0.938903293215D-02 0.000000000000D+00 -.000000000000D+00 0.114754014391D-04 0.000000000000D+00  6 3 1 25 3 1 21 2 0.47030914D-01 0.37789440D+00 0.21558556D+06 0.21558556D+06 0.21558556D+06 0.10953312D+01  1  2  6  3  6  4        3 0.590077771950D-02 0.100000000000D+01
  </mgrwgt>
  </event>
  <event>
  5     66 0.20977079E-05 0.12239960E+03 0.75467711E-02 0.93132532E-01
        1 -1    0    0  501    0 0.00000000E+00 0.00000000E+00 0.15039399E+04 0.15039400E+04 0.32000000E+00 0.0000E+00 0.9000E+01
        3 -1    0    0  502    0 0.00000000E+00 0.00000000E+00 -.71050224E+03 0.71050242E+03 0.50000000E+00 0.0000E+00 0.9000E+01
       25  1    1    2    0    0 0.66831751E+02 0.45797618E+03 0.14062109E+03 0.49960780E+03 0.12500000E+03 0.0000E+00 0.9000E+01
        1  1    1    2  501    0 -.11886788E+03 -.34720131E+03 0.11477501E+04 0.12049932E+04 0.32000000E+00 0.0000E+00 0.9000E+01
        3  1    1    2  502    0 0.52036128E+02 -.11077487E+03 -.49493347E+03 0.50984136E+03 0.50000000E+00 0.0000E+00 0.9000E+01
#aMCatNLO 1  0  0  4  2 0.22703061D+02 0.00000000D+00  -5  6  0 0.00000000D+00 0.00000000D+00 0.00000000D+00 0.00000000D+00 0.00000000D+00
  <mgrwgt>
 0.9023456893D-03    6    2    0
 0.103370833257928D+04 0.000000000000000D+00 0.000000000000000D+00 0.103370833257928D+04
 0.103370833257928D+04 -.000000000000000D+00 -.000000000000000D+00 -.103370833257928D+04
 0.481161372168620D+03 0.668232337925733D+02 0.457974406942894D+03 -.410531859664590D+02
 0.850170205080887D+03 -.118863571346132D+03 -.347188730611403D+03 0.766890353538603D+03
 0.736085087909045D+03 0.520403375535590D+02 -.110785676331491D+03 -.725837167572144D+03
 0.000000000000000D+00 0.000000000000000D+00 -.000000000000000D+00 0.000000000000000D+00
 0.103370833257928D+04 0.000000000000000D+00 0.000000000000000D+00 0.103370833257928D+04
 0.103370833257928D+04 -.000000000000000D+00 -.000000000000000D+00 -.103370833257928D+04
 0.469337303077511D+03 0.632628774162864D+02 0.447574958257243D+03 -.180822880772890D+02
 0.418543409778833D+03 -.221428902129866D+03 -.248223663541212D+02 0.354304497994925D+03
 0.704070264195081D+03 0.466458363046437D+02 -.126542480705462D+03 -.691032635594065D+03
 0.475465688107126D+03 0.111520188408936D+03 -.296210111197660D+03 0.354810425676428D+03
0.254193134270D-02 0.000000000000D+00 0.000000000000D+00 0.166589168509D-04 0.000000000000D+00  6 1 3 25 1 3 21 0 0.23137539D+00 0.10930805D+00 0.23463299D+06 0.23463299D+06 0.23463299D+06 0.10925378D+01  1  2  2  3  6  4        1 0.890329246574D-03 0.100000000000D+01
0.456811624523D-03 0.000000000000D+00 -.976168566188D-05 0.166589168509D-04 0.000000000000D+00  6 1 3 25 1 3 21 2 0.23137539D+00 0.10930805D+00 0.23463299D+06 0.23463299D+06 0.23463299D+06 0.10925378D+01  1  2  3  3  6  4        1 0.190983978347D-03 0.100000000000D+01
-.143715651606D-02 0.000000000000D+00 0.000000000000D+00 0.166589168509D-04 0.000000000000D+00  6 1 3 25 1 3 21 2 0.23137539D+00 0.10930805D+00 0.23463299D+06 0.23463299D+06 0.23463299D+06 0.10925378D+01  1  2 15  3  6  4        1 -.600846944799D-03 0.100000000000D+01
-.270504474527D-03 0.000000000000D+00 0.000000000000D+00 0.166589168509D-04 0.000000000000D+00  6 1 3 25 1 3 21 2 0.23137539D+00 0.10930805D+00 0.23463299D+06 0.23463299D+06 0.23463299D+06 0.10925378D+01  1  2  4  3  6  4        1 -.113092613963D-03 0.100000000000D+01
-.189656732410D-02 0.000000000000D+00 0.000000000000D+00 0.166589168509D-04 0.000000000000D+00  6 1 3 25 1 3 21 2 0.23137539D+00 0.10930805D+00 0.23463299D+06 0.23463299D+06 0.23463299D+06 0.10925378D+01  1  2  5  3  6  4        1 -.792917590782D-03 0.100000000000D+01
0.317615863377D-02 0.000000000000D+00 -.000000000000D+00 0.166589168509D-04 0.000000000000D+00  6 1 3 25 1 3 21 2 0.23137539D+00 0.10930805D+00 0.23463299D+06 0.23463299D+06 0.23463299D+06 0.10925378D+01  1  2  6  3  6  4        1 0.132788961395D-02 0.100000000000D+01
  </mgrwgt>
  </event>
  <event>
  5     66 -.20977079E-05 0.63929851E+02 0.75467711E-02 0.92806590E-01
        3 -1    0    0  501    0 0.00000000E+00 0.00000000E+00 0.43080901E+03 0.43080930E+03 0.50000000E+00 0.0000E+00 0.9000E+01
        1 -1    0    0  502    0 0.00000000E+00 0.00000000E+00 -.11379358E+04 0.11379358E+04 0.32000000E+00 0.0000E+00 0.9000E+01
       25  1    1    2    0    0 -.90674812E+02 -.55310087E+03 -.42527404E+03 0.71458065E+03 0.12500000E+03 0.0000E+00 0.9000E+01
        3  1    1    2  501    0 0.44422548E+02 0.46064910E+02 0.16485239E+03 0.17683862E+03 0.50000000E+00 0.0000E+00 0.9000E+01
        1  1    1    2  502    0 0.46252264E+02 0.50703597E+03 -.44670508E+03 0.67732583E+03 0.32000000E+00 0.0000E+00 0.9000E+01
#aMCatNLO 1  0  0  2  5 0.35274131D+02 0.00000000D+00  -5  6  0 0.00000000D+00 0.00000000D+00 0.00000000D+00 0.00000000D+00 0.00000000D+00
  <mgrwgt>
 -.1340405118D-03    9    2    0
 0.700166580300933D+03 0.000000000000000D+00 0.000000000000000D+00 0.700166580300933D+03
 0.700166580300933D+03 0.000000000000000D+00 0.000000000000000D+00 -.700166580300933D+03
 0.585879442115553D+03 -.906726668148815D+02 -.553259669290477D+03 -.115377322394398D+03
 0.281065657413009D+03 0.443774395878834D+02 0.460181340180965D+02 0.273698516572748D+03
 0.533388061073305D+03 0.462952272269981D+02 0.507241535272380D+03 -.158321194178351D+03
 0.000000000000000D+00 0.000000000000000D+00 0.000000000000000D+00 -.000000000000000D+00
 0.702726165203390D+03 0.000000000000000D+00 0.000000000000000D+00 0.702726165203390D+03
 0.833466052378457D+03 0.000000000000000D+00 0.000000000000000D+00 -.833466052378457D+03
 0.596215360381279D+03 -.102616981921578D+03 -.562143740028282D+03 -.115377322394398D+03
 0.279566050156933D+03 0.387126132474947D+02 0.418046887534805D+02 0.273698516572748D+03
 0.524995954001587D+03 0.356009308361816D+02 0.499287216855764D+03 -.158321194178351D+03
 0.135414853042049D+03 0.283034378379014D+02 0.210518344190368D+02 -.130739887175067D+03
0.799609832238D-05 0.000000000000D+00 0.000000000000D+00 0.322111876315D-06 0.000000000000D+00  6 3 1 25 3 1 21 0 0.66278335D-01 0.17506706D+00 0.32929586D+06 0.32929586D+06 0.32929586D+06 0.10815707D+01  1  2  2  2  6  2        1 0.156713674599D-04 0.100000000000D+01
0.196435028801D-05 0.000000000000D+00 -.307071229790D-07 0.322111876315D-06 0.000000000000D+00  6 3 1 25 3 1 21 2 0.66278335D-01 0.17506706D+00 0.32929586D+06 0.32929586D+06 0.32929586D+06 0.10815707D+01  1  2  3  2  6  2        1 0.450357654743D-05 0.100000000000D+01
-.531658528316D-05 0.000000000000D+00 0.000000000000D+00 0.322111876315D-06 0.000000000000D+00  6 3 1 25 3 1 21 2 0.66278335D-01 0.17506706D+00 0.32929586D+06 0.32929586D+06 0.32929586D+06 0.10815707D+01  1  2 15  2  6  2        1 -.121890932283D-04 0.100000000000D+01
0.248498193621D-03 0.000000000000D+00 0.000000000000D+00 0.322111876315D-06 0.000000000000D+00  6 3 1 25 3 1 21 2 0.66278335D-01 0.20962145D+00 0.34677401D+06 0.34677401D+06 0.34677401D+06 0.10799269D+01  1  2 12  2  6  2        1 0.393791766863D-03 0.100000000000D+01
-.314184418482D-03 0.000000000000D+00 0.000000000000D+00 0.322111876315D-06 0.000000000000D+00  6 3 1 25 3 1 21 2 0.66278335D-01 0.17506706D+00 0.32929586D+06 0.32929586D+06 0.32929586D+06 0.10815707D+01  1  2  4  2  6  2        1 -.720316324068D-03 0.100000000000D+01
-.278818539220D-03 0.000000000000D+00 -.103763861864D-04 0.322111876315D-06 0.000000000000D+00  6 3 1 25 3 1 21 2 0.66278335D-01 0.20868121D+00 0.32929586D+06 0.32929586D+06 0.32929586D+06 0.10815707D+01  1  2  5  2  6  2        1 -.448459843374D-03 0.100000000000D+01
0.276522857765D-03 0.000000000000D+00 0.102183676829D-04 0.322111876315D-06 0.000000000000D+00  6 3 1 25 3 1 21 2 0.66278335D-01 0.17506706D+00 0.32929586D+06 0.32929586D+06 0.32929586D+06 0.10815707D+01  1  2  6  2  6  2        1 0.633971377029D-03 0.100000000000D+01
0.655768381053D-05 0.000000000000D+00 0.000000000000D+00 0.322111876315D-06 0.000000000000D+00  6 3 21 25 3 1 -1 2 0.66278335D-01 0.20962145D+00 0.34677401D+06 0.34677401D+06 0.34677401D+06 0.10799269D+01  1  2 12  6  6  2        1 0.914437201801D-05 0.100000000000D+01
-.711808299818D-05 0.000000000000D+00 -.268451364978D-06 0.322111876315D-06 0.000000000000D+00  6 3 21 25 3 1 -1 2 0.66278335D-01 0.20868121D+00 0.32929586D+06 0.32929586D+06 0.32929586D+06 0.10815707D+01  1  2  5  6  6  2        1 -.101577109981D-04 0.100000000000D+01
  </mgrwgt>
  </event>
  <event>
  5     66 0.20977079E-05 0.38445248E+02 0.75467711E-02 0.89069609E-01
        1 -1    0    0  501    0 0.00000000E+00 0.00000000E+00 0.13069631E+04 0.13069631E+04 0.32000000E+00 0.0000E+00 0.9000E+01
        3 -1    0    0  502    0 0.00000000E+00 0.00000000E+00 -.11606654E+04 0.11606655E+04 0.50000000E+00 0.0000E+00 0.9000E+01
       25  1    1    2    0    0 -.45904615E+01 -.53192075E+03 -.41773000E+03 0.68781109E+03 0.12500000E+03 0.0000E+00 0.9000E+01
        1  1    1    2  501    0 -.98845159E+01 0.49630295E+03 0.11186609E+04 0.12238532E+04 0.32000000E+00 0.0000E+00 0.9000E+01
        3  1    1    2  502    0 0.14474977E+02 0.35617799E+02 -.55463316E+03 0.55596433E+03 0.50000000E+00 0.0000E+00 0.9000E+01
#aMCatNLO 1  0  0  2  5 0.35274131D+02 0.00000000D+00  -5  6  0 0.00000000D+00 0.00000000D+00 0.00000000D+00 0.00000000D+00 0.00000000D+00
  <mgrwgt>
 0.1530585132D-02    7    2    0
 0.123164400418409D+04 0.000000000000000D+00 0.000000000000000D+00 0.123164400418409D+04
 0.123164400418409D+04 0.000000000000000D+00 0.000000000000000D+00 -.123164400418409D+04
 0.713855529427308D+03 -.458975260122342D+01 -.531921992932294D+03 -.459350241645674D+03
 0.115957710005805D+04 -.988456766651006D+01 0.496305547638042D+03 0.104795140616575D+04
 0.589855378882829D+03 0.144743202677335D+02 0.356164452942518D+02 -.588601164520080D+03
 0.000000000000000D+00 0.000000000000000D+00 0.000000000000000D+00 -.000000000000000D+00
 0.150717952919847D+04 0.000000000000000D+00 0.000000000000000D+00 0.150717952919847D+04
 0.166429726841695D+04 0.000000000000000D+00 0.000000000000000D+00 -.166429726841695D+04
 0.868061437618838D+03 -.652450072699848D+01 -.725851531562212D+03 -.459350241645674D+03
 0.107144830017707D+04 -.126132015338877D+02 0.222800846979121D+03 0.104795140616575D+04
 0.598955452634096D+03 0.130203567689582D+02 -.110121631278007D+03 -.588601164520080D+03
 0.633011607185410D+03 0.611734549192802D+01 0.613172315861098D+03 -.157117739218479D+03
0.887845816921D-02 0.000000000000D+00 0.000000000000D+00 0.715967101762D-04 0.000000000000D+00  6 1 3 25 1 3 21 0 0.20107125D+00 0.17856391D+00 0.29229184D+06 0.29229184D+06 0.29229184D+06 0.10853892D+01  1  2  2  2  6  2        3 0.103305141011D-02 0.100000000000D+01
0.385148722289D-02 0.000000000000D+00 -.340956171215D-04 0.715967101762D-04 0.000000000000D+00  6 1 3 25 1 3 21 2 0.20107125D+00 0.17856391D+00 0.29229184D+06 0.29229184D+06 0.29229184D+06 0.10853892D+01  1  2  3  2  6  2        3 0.527939127115D-03 0.100000000000D+01
-.540537863818D-02 0.000000000000D+00 0.000000000000D+00 0.715967101762D-04 0.000000000000D+00  6 1 3 25 1 3 21 2 0.20107125D+00 0.17856391D+00 0.29229184D+06 0.29229184D+06 0.29229184D+06 0.10853892D+01  1  2 15  2  6  2        3 -.740937387253D-03 0.100000000000D+01
-.952409422097D-04 0.000000000000D+00 0.000000000000D+00 0.715967101762D-04 0.000000000000D+00  6 1 3 25 1 3 21 2 0.20107125D+00 0.17856391D+00 0.29229184D+06 0.29229184D+06 0.29229184D+06 0.10853892D+01  1  2  4  2  6  2        3 -.130550660007D-04 0.100000000000D+01
-.331682594973D-02 0.000000000000D+00 -.581575383099D-02 0.715967101762D-04 0.000000000000D+00  6 1 3 25 1 3 21 2 0.20107125D+00 0.27071641D+00 0.29229184D+06 0.29229184D+06 0.29229184D+06 0.10853892D+01  1  2  5  2  6  2        3 -.760481842453D-04 0.100000000000D+01
0.570535750984D-02 0.000000000000D+00 0.534616444866D-02 0.715967101762D-04 0.000000000000D+00  6 1 3 25 1 3 21 2 0.20107125D+00 0.17856391D+00 0.29229184D+06 0.29229184D+06 0.29229184D+06 0.10853892D+01  1  2  6  2  6  2        3 0.782056719732D-03 0.100000000000D+01
0.467444418240D-04 0.000000000000D+00 -.285012259607D-03 0.715967101762D-04 0.000000000000D+00  6 1 21 25 1 3 -3 2 0.20107125D+00 0.27071641D+00 0.29229184D+06 0.29229184D+06 0.29229184D+06 0.10853892D+01  1  2  5  6  6  2        3 0.175785123439D-04 0.100000000000D+01
  </mgrwgt>
  </event>
  <event>
  5     66 0.20977079E-05 0.18420138E+02 0.75467711E-02 0.92263443E-01
        1 -1    0    0  501    0 0.00000000E+00 0.00000000E+00 0.17005948E+04 0.17005949E+04 0.32000000E+00 0.0000E+00 0.9000E+01
        3 -1    0    0  502    0 0.00000000E+00 0.00000000E+00 -.90057477E+03 0.90057491E+03 0.50000000E+00 0.0000E+00 0.9000E+01
       25  1    1    2    0    0 0.34240890E+03 0.39230943E+03 0.71706113E+02 0.54029373E+03 0.12500000E+03 0.0000E+00 0.9000E+01
        1  1    1    2  501    0 -.33413334E+03 -.40876484E+03 0.13444855E+04 0.14444290E+04 0.32000000E+00 0.0000E+00 0.9000E+01
        3  1    1    2  502    0 -.82755632E+01 0.16455406E+02 -.61617158E+03 0.61644702E+03 0.50000000E+00 0.0000E+00 0.9000E+01
#aMCatNLO 1  0  0  5  2 0.32549420D+01 0.00000000D+00  -5  6  0 0.00000000D+00 0.00000000D+00 0.00000000D+00 0.00000000D+00 0.00000000D+00
  <mgrwgt>
 0.1048382109D-02    6    2    0
 0.123754314458728D+04 0.000000000000000D+00 0.000000000000000D+00 0.123754314458728D+04
 0.123754314458728D+04 -.000000000000000D+00 -.000000000000000D+00 -.123754314458728D+04
 0.544622387789058D+03 0.342404285136449D+03 0.392302257504899D+03 -.992309909141884D+02
 0.108341588672143D+04 -.334128123225873D+03 -.408758461151162D+03 0.946078697206140D+03
 0.847048014664079D+03 -.827616191057611D+01 0.164562036462636D+02 -.846847706291952D+03
 0.000000000000000D+00 0.000000000000000D+00 0.000000000000000D+00 0.000000000000000D+00
 0.123754314458728D+04 0.000000000000000D+00 0.000000000000000D+00 0.123754314458728D+04
 0.123754314458728D+04 -.000000000000000D+00 -.000000000000000D+00 -.123754314458728D+04
 0.545612239857672D+03 0.342354561805386D+03 0.392401126675269D+03 -.104318867313289D+03
 0.107458898086283D+04 -.334226545334056D+03 -.408562760019037D+03 0.936007780582784D+03
 0.616364994644504D+03 -.748078932121894D+02 -.425330053236776D+02 -.610328214319483D+03
 0.238520073809556D+03 0.666798767408589D+02 0.586946386674467D+02 -.221360698950012D+03
0.216254327100D-02 0.000000000000D+00 0.000000000000D+00 0.107465943786D-03 0.000000000000D+00  6 1 3 25 1 3 21 0 0.26162999D+00 0.13854998D+00 0.29261090D+06 0.29261090D+06 0.29261090D+06 0.10853541D+01  1  2  2  4  6  5        3 0.295848016503D-03 0.100000000000D+01
0.190410875781D-02 0.000000000000D+00 -.830473557137D-05 0.107465943786D-03 0.000000000000D+00  6 1 3 25 1 3 21 2 0.26162999D+00 0.13854998D+00 0.29261090D+06 0.29261090D+06 0.29261090D+06 0.10853541D+01  1  2  3  4  6  5        3 0.306858738341D-03 0.100000000000D+01
-.159999487221D-02 0.000000000000D+00 0.000000000000D+00 0.107465943786D-03 0.000000000000D+00  6 1 3 25 1 3 21 2 0.26162999D+00 0.13854998D+00 0.29261090D+06 0.29261090D+06 0.29261090D+06 0.10853541D+01  1  2 15  4  6  5        3 -.257848931068D-03 0.100000000000D+01
-.728802602493D-04 0.000000000000D+00 0.000000000000D+00 0.107465943786D-03 0.000000000000D+00  6 1 3 25 1 3 21 2 0.26162999D+00 0.13854998D+00 0.29261090D+06 0.29261090D+06 0.29261090D+06 0.10853541D+01  1  2  4  4  6  5        3 -.117450983923D-04 0.100000000000D+01
-.139062738585D-01 0.000000000000D+00 0.000000000000D+00 0.107465943786D-03 0.000000000000D+00  6 1 3 25 1 3 21 2 0.26162999D+00 0.13854998D+00 0.29261090D+06 0.29261090D+06 0.29261090D+06 0.10853541D+01  1  2  5  4  6  5        3 -.224108083834D-02 0.100000000000D+01
0.183446375959D-01 0.000000000000D+00 -.000000000000D+00 0.107465943786D-03 0.000000000000D+00  6 1 3 25 1 3 21 2 0.26162999D+00 0.13854998D+00 0.29261090D+06 0.29261090D+06 0.29261090D+06 0.10853541D+01  1  2  6  4  6  5        3 0.295635022155D-02 0.100000000000D+01
  </mgrwgt>
  </event>
  <event>
  5     66 0.20977079E-05 0.22954232E+03 0.75467711E-02 0.90207175E-01
        1 -1    0    0  501    0 0.00000000E+00 0.00000000E+00 0.11599041E+04 0.11599042E+04 0.32000000E+00 0.0000E+00 0.9000E+01
        3 -1    0    0  502    0 0.00000000E+00 0.00000000E+00 -.52679866E+03 0.52679889E+03 0.50000000E+00 0.0000E+00 0.9000E+01
       25  1    1    2    0    0 -.58716675E+03 -.11650852E+02 0.31008393E+03 0.67577924E+03 0.12500000E+03 0.0000E+00 0.9000E+01
        1  1    1    2  501    0 0.61294885E+03 -.21642835E+03 0.40650931E+03 0.76667950E+03 0.32000000E+00 0.0000E+00 0.9000E+01
        3  1    1    2  502    0 -.25782099E+02 0.22807921E+03 -.83487760E+02 0.24424434E+03 0.50000000E+00 0.0000E+00 0.9000E+01
#aMCatNLO 1  0  0  5  2 0.94069197D+02 0.00000000D+00  -5  6  0 0.00000000D+00 0.00000000D+00 0.00000000D+00 0.00000000D+00 0.00000000D+00
  <mgrwgt>
 0.8995622968D-05    7    2    0
 0.781688030598854D+03 0.000000000000000D+00 0.000000000000000D+00 0.781688030598854D+03
 0.781688030598854D+03 -.000000000000000D+00 -.000000000000000D+00 -.781688030598854D+03
 0.603511984609641D+03 -.587160091034613D+03 -.116662247040991D+02 0.608986228485099D+02
 0.662525962355300D+03 0.612936992522268D+03 -.216424166697722D+03 0.128099469404715D+03
 0.297338114232768D+03 -.257769014876551D+02 0.228090391401821D+03 -.188998092253224D+03
 0.000000000000000D+00 0.000000000000000D+00 0.000000000000000D+00 0.000000000000000D+00
 0.781688030598854D+03 0.000000000000000D+00 0.000000000000000D+00 0.781688030598854D+03
 0.781688030598854D+03 -.000000000000000D+00 -.000000000000000D+00 -.781688030598854D+03
 0.604264985616732D+03 -.589508358650474D+03 0.911273819314422D+01 0.436809561048850D+02
 0.649703408893849D+03 0.610385639240124D+03 -.193848172875992D+03 0.109392763976204D+03
 0.184702782940300D+03 -.103487621087670D+03 0.985595757714422D+02 -.117010428301326D+03
 0.124704883746827D+03 0.826103404980202D+02 0.861758589114052D+02 -.360632917797630D+02
0.202768197911D-04 0.000000000000D+00 0.000000000000D+00 0.293075742354D-08 0.000000000000D+00  6 1 3 25 1 3 21 0 0.17844681D+00 0.81045969D-01 0.54759842D+06 0.54759842D+06 0.54759842D+06 0.10657304D+01  1  2  2  4  6  5        3 0.240458554975D-04 0.100000000000D+01
0.514053902408D-06 0.000000000000D+00 -.778683270069D-07 0.293075742354D-08 0.000000000000D+00  6 1 3 25 1 3 21 2 0.17844681D+00 0.81045969D-01 0.54759842D+06 0.54759842D+06 0.54759842D+06 0.10657304D+01  1  2  3  4  6  5        3 0.692378856398D-06 0.100000000000D+01
-.119607756815D-04 0.000000000000D+00 0.000000000000D+00 0.293075742354D-08 0.000000000000D+00  6 1 3 25 1 3 21 2 0.17844681D+00 0.81045969D-01 0.54759842D+06 0.54759842D+06 0.54759842D+06 0.10657304D+01  1  2 15  4  6  5        3 -.161099607437D-04 0.100000000000D+01
0.127178497319D-04 0.000000000000D+00 0.000000000000D+00 0.293075742354D-08 0.000000000000D+00  6 1 3 25 1 3 21 2 0.17844681D+00 0.81045969D-01 0.56655716D+06 0.56655716D+06 0.56655716D+06 0.10646956D+01  1  2 12  4  6  5        3 0.170721100261D-04 0.100000000000D+01
-.207004635931D-04 0.000000000000D+00 0.000000000000D+00 0.293075742354D-08 0.000000000000D+00  6 1 3 25 1 3 21 2 0.17844681D+00 0.81045969D-01 0.54759842D+06 0.54759842D+06 0.54759842D+06 0.10657304D+01  1  2  4  4  6  5        3 -.278814405306D-04 0.100000000000D+01
-.124348867900D-04 0.000000000000D+00 0.000000000000D+00 0.293075742354D-08 0.000000000000D+00  6 1 3 25 1 3 21 2 0.17844681D+00 0.81045969D-01 0.54759842D+06 0.54759842D+06 0.54759842D+06 0.10657304D+01  1  2  5  4  6  5        3 -.167485406779D-04 0.100000000000D+01
0.207329678858D-04 0.000000000000D+00 -.000000000000D+00 0.293075742354D-08 0.000000000000D+00  6 1 3 25 1 3 21 2 0.17844681D+00 0.81045969D-01 0.54759842D+06 0.54759842D+06 0.54759842D+06 0.10657304D+01  1  2  6  4  6  5        3 0.279252205406D-04 0.100000000000D+01
  </mgrwgt>
  </event>
  <event>
  5     66 -.20977079E-05 0.16932325E+03 0.75467711E-02 0.94783353E-01
        3 -1    0    0  501    0 0.00000000E+00 0.00000000E+00 0.15211511E+04 0.15211512E+04 0.50000000E+00 0.0000E+00 0.9000E+01
        1 -1    0    0  502    0 0.00000000E+00 0.00000000E+00 -.13628669E+04 0.13628670E+04 0.32000000E+00 0.0000E+00 0.9000E+01
       25  1    1    2    0    0 0.19369345E+03 0.41758340E+03 -.24075292E+03 0.53430330E+03 0.12500000E+03 0.0000E+00 0.9000E+01
        3  1    1    2  501    0 -.14668198E+03 -.84597095E+02 0.13399008E+04 0.13505579E+04 0.50000000E+00 0.0000E+00 0.9000E+01
        1  1    1    2  502    0 -.47011464E+02 -.33298631E+03 -.94086371E+03 0.99915694E+03 0.32000000E+00 0.0000E+00 0.9000E+01
#aMCatNLO 1  0  0  2  5 0.71432326D+01 0.00000000D+00  -5  6  0 0.00000000D+00 0.00000000D+00 0.00000000D+00 0.00000000D+00 0.00000000D+00
  <mgrwgt>
 -.3857588360D-03   11    2    0
 0.143983565209263D+04 0.000000000000000D+00 0.000000000000000D+00 0.143983565209263D+04
 0.143983565209263D+04 0.000000000000000D+00 0.000000000000000D+00 -.143983565209263D+04
 0.548346175589470D+03 0.193699061607423D+03 0.417628621134650D+03 -.270417337878274D+03
 0.127890480459339D+04 -.146677097432974D+03 -.845942767952764D+02 0.126764629792153D+04
 0.105242032400241D+04 -.470219641744488D+02 -.333034344339373D+03 -.997228960043260D+03
 0.000000000000000D+00 -.000000000000000D+00 -.000000000000000D+00 -.000000000000000D+00
 0.143987859285380D+04 0.000000000000000D+00 0.000000000000000D+00 0.143987859285380D+04
 0.177108212043827D+04 0.000000000000000D+00 0.000000000000000D+00 -.177108212043827D+04
 0.549244351238360D+03 0.194913704800672D+03 0.418243312466502D+03 -.270417337878274D+03
 0.127848934780499D+04 -.143846969690670D+03 -.831620413858192D+02 0.126764629792153D+04
 0.105194646478036D+04 -.446931769504175D+02 -.331855821026276D+03 -.997228960043260D+03
 0.331280549468359D+03 -.637355815958445D+01 -.322545005440638D+01 -.331203527584461D+03
0.270899692233D-04 0.000000000000D+00 0.000000000000D+00 0.441655221335D-04 0.000000000000D+00  6 3 1 25 3 1 21 0 0.23402325D+00 0.20967185D+00 0.24142049D+06 0.24142049D+06 0.24142049D+06 0.10916019D+01  1  2  2  2  6  2        1 0.103172722466D-05 0.100000000000D+01
0.411026361428D-05 0.000000000000D+00 -.104032614770D-06 0.441655221335D-04 0.000000000000D+00  6 3 1 25 3 1 21 2 0.23402325D+00 0.20967185D+00 0.24142049D+06 0.24142049D+06 0.24142049D+06 0.10916019D+01  1  2  3  2  6  2        1 0.186532536746D-06 0.100000000000D+01
-.183043351405D-04 0.000000000000D+00 0.000000000000D+00 0.441655221335D-04 0.000000000000D+00  6 3 1 25 3 1 21 2 0.23402325D+00 0.20967185D+00 0.24142049D+06 0.24142049D+06 0.24142049D+06 0.10916019D+01  1  2 15  2  6  2        1 -.830689801829D-06 0.100000000000D+01
0.982505741466D-01 0.000000000000D+00 0.000000000000D+00 0.441655221335D-04 0.000000000000D+00  6 3 1 25 3 1 21 2 0.23402325D+00 0.25808768D+00 0.24315443D+06 0.24315443D+06 0.24315443D+06 0.10913674D+01  1  2 12  2  6  2        1 0.273811918441D-02 0.100000000000D+01
-.108272834934D+00 0.000000000000D+00 0.000000000000D+00 0.441655221335D-04 0.000000000000D+00  6 3 1 25 3 1 21 2 0.23402325D+00 0.20967185D+00 0.24142049D+06 0.24142049D+06 0.24142049D+06 0.10916019D+01  1  2  4  2  6  2        1 -.491365237274D-02 0.100000000000D+01
-.102039637684D+00 0.000000000000D+00 -.291778562435D-04 0.441655221335D-04 0.000000000000D+00  6 3 1 25 3 1 21 2 0.23402325D+00 0.25791120D+00 0.24142049D+06 0.24142049D+06 0.24142049D+06 0.10916019D+01  1  2  5  2  6  2        1 -.285185490259D-02 0.100000000000D+01
0.998969066449D-01 0.000000000000D+00 0.285632869397D-04 0.441655221335D-04 0.000000000000D+00  6 3 1 25 3 1 21 2 0.23402325D+00 0.20967185D+00 0.24142049D+06 0.24142049D+06 0.24142049D+06 0.10916019D+01  1  2  6  2  6  2        1 0.453353486740D-02 0.100000000000D+01
0.386547532126D-02 0.000000000000D+00 0.000000000000D+00 0.441655221335D-04 0.643910857489D-05  6 3 1 25 3 1 21 2 0.23403023D+00 0.25790864D+00 0.24315443D+06 0.24315443D+06 0.24315443D+06 0.10913674D+01  1  2 11  2  6  2        1 0.107903133976D-03 0.100000000000D+01
0.289456958981D-02 0.000000000000D+00 0.000000000000D+00 0.441655221335D-04 0.000000000000D+00  6 3 21 25 3 1 -1 2 0.23402325D+00 0.25808768D+00 0.24315443D+06 0.24315443D+06 0.24315443D+06 0.10913674D+01  1  2 12  6  6  2        1 0.537552213243D-04 0.100000000000D+01
-.299829998669D-02 0.000000000000D+00 -.857454753973D-06 0.441655221335D-04 0.000000000000D+00  6 3 21 25 3 1 -1 2 0.23402325D+00 0.25791120D+00 0.24142049D+06 0.24142049D+06 0.24142049D+06 0.10916019D+01  1  2  5  6  6  2        1 -.559146121819D-04 0.100000000000D+01
0.105425680075D-03 0.000000000000D+00 0.000000000000D+00 0.441655221335D-04 0.175498879838D-06  6 3 21 25 3 1 -1 2 0.23403023D+00 0.25790864D+00 0.24315443D+06 0.24315443D+06 0.24315443D+06 0.10913674D+01  1  2 11  6  6  2        1 0.196307444787D-05 0.100000000000D+01
  </mgrwgt>
  </event>
  <event>
  5     66 0.20977079E-05 0.47523802E+02 0.75467711E-02 0.91093370E-01
        1 -1    0    0  501    0 0.00000000E+00 0.00000000E+00 0.21048532E+04 0.21048532E+04 0.32000000E+00 0.0000E+00 0.9000E+01
        3 -1    0    0  502    0 0.00000000E+00 0.00000000E+00 -.34252527E+03 0.34252564E+03 0.50000000E+00 0.0000E+00 0.9000E+01
       25  1    1    2    0    0 -.54547613E+03 0.18466475E+03 0.10496125E+04 0.12037261E+04 0.12500000E+03 0.0000E+00 0.9000E+01
        1  1    1    2  501    0 0.41073097E+02 0.23973149E+02 0.69592106E+03 0.69754422E+03 0.32000000E+00 0.0000E+00 0.9000E+01
        3  1    1    2  502    0 0.50440304E+03 -.20863790E+03 0.16794398E+02 0.54610851E+03 0.50000000E+00 0.0000E+00 0.9000E+01
#aMCatNLO 1  0  0  4  1 0.33880462D+02 0.00000000D+00  -5  6  0 0.00000000D+00 0.00000000D+00 0.00000000D+00 0.00000000D+00 0.00000000D+00
  <mgrwgt>
 0.2845199808D-03    4    2    0
 0.849097106033595D+03 0.000000000000000D+00 0.000000000000000D+00 0.849097106033595D+03
 0.849097106033595D+03 -.000000000000000D+00 -.000000000000000D+00 -.849097106033595D+03
 0.645660378909661D+03 -.545545173353231D+03 0.184715046262523D+03 0.263653447557574D+03
 0.282873074759231D+03 0.410440359616344D+02 0.239561871659329D+02 0.278852406538284D+03
 0.769660758398298D+03 0.504501137391596D+03 -.208671233428456D+03 -.542505854095858D+03
 0.000000000000000D+00 -.000000000000000D+00 0.000000000000000D+00 0.000000000000000D+00
 0.849097106033595D+03 0.000000000000000D+00 0.000000000000000D+00 0.849097106033595D+03
 0.849097106033595D+03 -.000000000000000D+00 -.000000000000000D+00 -.849097106033595D+03
 0.679600386641681D+03 -.532100970301407D+03 0.192562029071605D+03 0.354993109634046D+03
 0.182448834741115D+03 0.123694894134325D+03 -.329216412346621D+02 0.130012753227924D+03
 0.709876625485289D+03 0.519510410682366D+03 -.199910765512620D+03 -.440533134321562D+03
 0.126268365199104D+03 -.111104334515283D+03 0.402703776756773D+02 -.444727285404071D+02
0.133052676008D-02 0.000000000000D+00 0.000000000000D+00 0.275094273442D-05 0.000000000000D+00  6 1 3 25 1 3 21 0 0.32382360D+00 0.52696226D-01 0.34978546D+06 0.34978546D+06 0.34978546D+06 0.10796528D+01  1  2  2  3  6  4        1 0.931911847188D-03 0.100000000000D+01
0.415299519840D-03 0.000000000000D+00 -.510957309446D-05 0.275094273442D-05 0.000000000000D+00  6 1 3 25 1 3 21 2 0.32382360D+00 0.52696226D-01 0.34978546D+06 0.34978546D+06 0.34978546D+06 0.10796528D+01  1  2  3  3  6  4        1 0.339063346255D-03 0.100000000000D+01
-.940813021941D-03 0.000000000000D+00 0.000000000000D+00 0.275094273442D-05 0.000000000000D+00  6 1 3 25 1 3 21 2 0.32382360D+00 0.52696226D-01 0.34978546D+06 0.34978546D+06 0.34978546D+06 0.10796528D+01  1  2 15  3  6  4        1 -.768108789393D-03 0.100000000000D+01
-.267440187017D-03 0.000000000000D+00 0.000000000000D+00 0.275094273442D-05 0.000000000000D+00  6 1 3 25 1 3 21 2 0.32382360D+00 0.52696226D-01 0.34978546D+06 0.34978546D+06 0.34978546D+06 0.10796528D+01  1  2  4  3  6  4        1 -.218346423247D-03 0.100000000000D+01
  </mgrwgt>
  </event>
  <event>
  5     66 0.20977079E-05 0.83720292E+02 0.75467711E-02 0.94169602E-01
        1 -1    0    0  501    0 0.00000000E+00 0.00000000E+00 0.20215731E+04 0.20215731E+04 0.32000000E+00 0.0000E+00 0.9000E+01
        3 -1    0    0  502    0 0.00000000E+00 0.00000000E+00 -.18863519E+03 0.18863585E+03 0.50000000E+00 0.0000E+00 0.9000E+01
       25  1    1    2    0    0 -.44926162E+03 -.31212164E+02 0.86739837E+03 0.98529951E+03 0.12500000E+03 0.0000E+00 0.9000E+01
        1  1    1    2  501    0 0.82578481E+02 -.14094380E+02 0.82557601E+03 0.82981547E+03 0.32000000E+00 0.0000E+00 0.9000E+01
        3  1    1    2  502    0 0.36668313E+03 0.45306544E+02 0.13996348E+03 0.39509395E+03 0.50000000E+00 0.0000E+00 0.9000E+01
#aMCatNLO 1  0  0  1  4 0.14796521D+03 0.00000000D+00  -5  6  0 0.00000000D+00 0.00000000D+00 0.00000000D+00 0.00000000D+00 0.00000000D+00
  <mgrwgt>
 0.1133078839D-02    7    2    0
 0.617527796180880D+03 0.000000000000000D+00 0.000000000000000D+00 0.617527796180880D+03
 0.617527796180880D+03 0.000000000000000D+00 0.000000000000000D+00 -.617527796180880D+03
 0.476034580020579D+03 -.449312179120476D+03 -.312289512589595D+02 0.901512044991298D+02
 0.259612006312483D+03 0.825268685112754D+02 -.140855711847925D+02 0.245742357927390D+03
 0.499409006028697D+03 0.366785310609200D+03 0.453145224437519D+02 -.335893562426520D+03
 0.000000000000000D+00 0.000000000000000D+00 -.000000000000000D+00 0.000000000000000D+00
 0.104458236893007D+04 0.000000000000000D+00 0.000000000000000D+00 0.104458236893007D+04
 0.634894336365428D+03 0.000000000000000D+00 0.000000000000000D+00 -.634894336365428D+03
 0.530485224925072D+03 -.507360285387202D+03 -.157440465883957D+02 0.901512044991298D+02
 0.251480507860749D+03 0.530510922482757D+02 -.622261725092663D+01 0.245742357927390D+03
 0.461921730092819D+03 0.311343352633157D+03 0.601042113625193D+02 -.335893562426520D+03
 0.435589242416854D+03 0.142965840505769D+03 -.381375475231970D+02 0.409688032564638D+03
0.955657278417D-04 0.000000000000D+00 0.000000000000D+00 0.941539125528D-06 0.000000000000D+00  6 1 3 25 1 3 21 0 0.31101129D+00 0.29020852D-01 0.21192877D+06 0.21192877D+06 0.21192877D+06 0.10958982D+01  1  2  2  1  6  1        1 0.249850221753D-03 0.100000000000D+01
0.147826477064D-04 0.000000000000D+00 -.366997557946D-06 0.941539125528D-06 0.000000000000D+00  6 1 3 25 1 3 21 2 0.31101129D+00 0.29020852D-01 0.21192877D+06 0.21192877D+06 0.21192877D+06 0.10958982D+01  1  2  3  1  6  1        1 0.464162724219D-04 0.100000000000D+01
-.670250297839D-04 0.000000000000D+00 0.000000000000D+00 0.941539125528D-06 0.000000000000D+00  6 1 3 25 1 3 21 2 0.31101129D+00 0.29020852D-01 0.21192877D+06 0.21192877D+06 0.21192877D+06 0.10958982D+01  1  2 15  1  6  1        1 -.210452965079D-03 0.100000000000D+01
-.151635773141D-04 0.000000000000D+00 0.000000000000D+00 0.941539125528D-06 0.000000000000D+00  6 1 3 25 1 3 21 2 0.31101129D+00 0.29020852D-01 0.21192877D+06 0.21192877D+06 0.21192877D+06 0.10958982D+01  1  2  4  1  6  1        1 -.476123594015D-04 0.100000000000D+01
-.418499737213D-03 0.000000000000D+00 -.408125885568D-04 0.941539125528D-06 0.000000000000D+00  6 1 3 25 1 3 21 2 0.52882687D+00 0.29020852D-01 0.21192877D+06 0.21192877D+06 0.21192877D+06 0.10958982D+01  1  2  5  1  6  1        1 -.126115338661D-03 0.100000000000D+01
0.389177411574D-03 0.000000000000D+00 0.356681415264D-04 0.941539125528D-06 0.000000000000D+00  6 1 3 25 1 3 21 2 0.31101129D+00 0.29020852D-01 0.21192877D+06 0.21192877D+06 0.21192877D+06 0.10958982D+01  1  2  6  1  6  1        1 0.122198439108D-02 0.100000000000D+01
-.227950900799D-04 0.000000000000D+00 -.241461213827D-05 0.941539125528D-06 0.000000000000D+00  6 21 3 25 1 3 -1 2 0.52882687D+00 0.29020852D-01 0.21192877D+06 0.21192877D+06 0.21192877D+06 0.10958982D+01  1  2  5  5  6  1        1 -.991382977767D-06 0.100000000000D+01
  </mgrwgt>
  </event>
  <event>
  5     66 0.20977079E-05 0.48499706E+02 0.75467711E-02 0.94279272E-01
        1 -1    0    0  501    0 0.00000000E+00 0.00000000E+00 0.10583335E+04 0.10583335E+04 0.32000000E+00 0.0000E+00 0.9000E+01
        3 -1    0    0  502    0 0.00000000E+00 0.00000000E+00 -.80989360E+03 0.80989375E+03 0.50000000E+00 0.0000E+00 0.9000E+01
       25  1    1    2    0    0 0.50554295E+03 -.16347552E+02 -.13767387E+03 0.53890632E+03 0.12500000E+03 0.0000E+00 0.9000E+01
        1  1    1    2  501    0 -.44076171E+02 0.20248808E+02 0.74384286E+03 0.74542271E+03 0.32000000E+00 0.0000E+00 0.9000E+01
        3  1    1    2  502    0 -.46146678E+03 -.39012552E+01 -.35772910E+03 0.58389826E+03 0.50000000E+00 0.0000E+00 0.9000E+01
#aMCatNLO 1  0  0  4  1 0.15093429D+01 0.00000000D+00  -5  6  0 0.00000000D+00 0.00000000D+00 0.00000000D+00 0.00000000D+00 0.00000000D+00
  <mgrwgt>
 0.3620857898D-03    8    2    0
 0.925817315905734D+03 0.000000000000000D+00 0.000000000000000D+00 0.925817315905734D+03
 0.925817315905734D+03 -.000000000000000D+00 -.000000000000000D+00 -.925817315905734D+03
 0.562240528264151D+03 0.505602638826936D+03 -.163465926876761D+02 -.211159115695946D+03
 0.652229061484596D+03 -.440714723690669D+02 0.202466490061080D+02 0.650423344578224D+03
 0.637165042062722D+03 -.461531166457869D+03 -.390005631843200D+01 -.439264228882278D+03
 0.000000000000000D+00 -.000000000000000D+00 0.000000000000000D+00 0.000000000000000D+00
 0.925817315905734D+03 0.000000000000000D+00 0.000000000000000D+00 0.925817315905734D+03
 0.925817315905734D+03 -.000000000000000D+00 -.000000000000000D+00 -.925817315905734D+03
 0.562239450209061D+03 0.505602471825302D+03 -.163465159663126D+02 -.211156651023109D+03
 0.448898885145781D+03 -.288650929703793D+02 0.135975209390078D+02 0.447763467600082D+03
 0.637163253036807D+03 -.461531355714156D+03 -.389996937317180D+01 -.439261435766888D+03
 0.203333043419818D+03 -.152060231407664D+02 0.664896440047650D+01 0.202654619189915D+03
0.330935028135D-06 0.000000000000D+00 0.000000000000D+00 0.117495612084D-04 0.000000000000D+00  6 1 3 25 1 3 21 0 0.16282055D+00 0.12459903D+00 0.26580683D+06 0.26580683D+06 0.26580683D+06 0.10884617D+01  1  2  2  3  6  4        1 0.168701853791D-06 0.100000000000D+01
0.146890507950D-06 0.000000000000D+00 -.127087764523D-08 0.117495612084D-04 0.000000000000D+00  6 1 3 25 1 3 21 2 0.16282055D+00 0.12459903D+00 0.26580683D+06 0.26580683D+06 0.26580683D+06 0.10884617D+01  1  2  3  3  6  4        1 0.887150149541D-07 0.100000000000D+01
-.210252520301D-06 0.000000000000D+00 0.000000000000D+00 0.117495612084D-04 0.000000000000D+00  6 1 3 25 1 3 21 2 0.16282055D+00 0.12459903D+00 0.26580683D+06 0.26580683D+06 0.26580683D+06 0.10884617D+01  1  2 15  3  6  4        1 -.126982714833D-06 0.100000000000D+01
0.854593285800D-06 0.000000000000D+00 0.000000000000D+00 0.117495612084D-04 0.000000000000D+00  6 1 3 25 1 3 21 2 0.16282055D+00 0.12459903D+00 0.26580885D+06 0.26580885D+06 0.26580885D+06 0.10884614D+01  1  2 12  3  6  4        1 0.516134042792D-06 0.100000000000D+01
-.444705488689D-02 0.000000000000D+00 0.000000000000D+00 0.117495612084D-04 0.000000000000D+00  6 1 3 25 1 3 21 2 0.16282055D+00 0.12459903D+00 0.26580683D+06 0.26580683D+06 0.26580683D+06 0.10884617D+01  1  2  4  3  6  4        1 -.268581371457D-02 0.100000000000D+01
-.428007026083D-02 0.000000000000D+00 0.000000000000D+00 0.117495612084D-04 0.000000000000D+00  6 1 3 25 1 3 21 2 0.16282055D+00 0.12459903D+00 0.26580683D+06 0.26580683D+06 0.26580683D+06 0.10884617D+01  1  2  5  3  6  4        1 -.258496278958D-02 0.100000000000D+01
0.580865686946D-02 0.000000000000D+00 -.000000000000D+00 0.117495612084D-04 0.000000000000D+00  6 1 3 25 1 3 21 2 0.16282055D+00 0.12459903D+00 0.26580683D+06 0.26580683D+06 0.26580683D+06 0.10884617D+01  1  2  6  3  6  4        1 0.350815779882D-02 0.100000000000D+01
0.351692679140D-02 0.000000000000D+00 0.000000000000D+00 0.117495612084D-04 0.135932205191D-04  6 1 3 25 1 3 21 2 0.16282055D+00 0.12459903D+00 0.26580885D+06 0.26580885D+06 0.26580885D+06 0.10884614D+01  1  2 11  3  6  4        1 0.212405792698D-02 0.100000000000D+01
  </mgrwgt>
  </event>
  <event>
  5     66 0.20977079E-05 0.36353475E+02 0.75467711E-02 0.89006282E-01
        3 -1    0    0  501    0 0.00000000E+00 0.00000000E+00 0.63043679E+03 0.63043699E+03 0.50000000E+00 0.0000E+00 0.9000E+01
        1 -1    0    0  502    0 0.00000000E+00 0.00000000E+00 -.33196691E+04 0.33196691E+04 0.32000000E+00 0.0000E+00 0.9000E+01
       25  1    1    2    0    0 -.56862468E+03 -.34318147E+02 0.13912337E+03 0.59957658E+03 0.12500000E+03 0.0000E+00 0.9000E+01
        3  1    1    2  501    0 0.60479475E+03 0.37904719E+02 -.90816463E+02 0.61274900E+03 0.50000000E+00 0.0000E+00 0.9000E+01
        1  1    1    2  502    0 -.36170070E+02 -.35865716E+01 -.27375392E+04 0.27377805E+04 0.32000000E+00 0.0000E+00 0.9000E+01
#aMCatNLO 1  0  0  2  5 0.20212996D+03 0.00000000D+00  -5  6  0 0.00000000D+00 0.00000000D+00 0.00000000D+00 0.00000000D+00 0.00000000D+00
  <mgrwgt>
 0.5601999318D-03    4    2    0
 0.144666580160584D+04 0.000000000000000D+00 0.000000000000000D+00 0.144666580160584D+04
 0.144666580160584D+04 0.000000000000000D+00 0.000000000000000D+00 -.144666580160584D+04
 0.947976471385837D+03 -.568431913485368D+03 -.343058433494862D+02 0.747490909071533D+03
 0.751909817382907D+03 0.604607973749977D+03 0.378930128624004D+02 0.445400596240008D+03
 0.119344531444294D+04 -.361760602646085D+02 -.358716951291417D+01 -.119289150531154D+04
 0.000000000000000D+00 -.000000000000000D+00 -.000000000000000D+00 0.000000000000000D+00
 0.176965510508358D+04 0.000000000000000D+00 0.000000000000000D+00 0.176965510508358D+04
 0.157720291201638D+04 0.000000000000000D+00 0.000000000000000D+00 -.157720291201638D+04
 0.893152601027205D+03 -.471079135937451D+03 0.379256807651394D+02 0.747490909071533D+03
 0.825661323596709D+03 0.688024685079462D+03 0.997845823452828D+02 0.445400596240008D+03
 0.119971270637448D+04 0.903661707655600D+02 0.903016587506175D+02 -.119289150531154D+04
 0.428331386101564D+03 -.307311719907570D+03 -.228011921861040D+03 0.192452193067197D+03
0.237375977074D-01 0.000000000000D+00 0.000000000000D+00 0.147621586781D-04 0.000000000000D+00  6 3 1 25 3 1 21 0 0.96990292D-01 0.51071833D+00 0.37526131D+06 0.37526131D+06 0.37526131D+06 0.10774321D+01  1  2  2  2  6  2        1 0.574489592352D-03 0.100000000000D+01
0.159683382452D-01 0.000000000000D+00 -.911586254495D-04 0.147621586781D-04 0.000000000000D+00  6 3 1 25 3 1 21 2 0.96990292D-01 0.51071833D+00 0.37526131D+06 0.37526131D+06 0.37526131D+06 0.10774321D+01  1  2  3  2  6  2        1 0.448626520425D-03 0.100000000000D+01
-.153185330757D-01 0.000000000000D+00 0.000000000000D+00 0.147621586781D-04 0.000000000000D+00  6 3 1 25 3 1 21 2 0.96990292D-01 0.51071833D+00 0.37526131D+06 0.37526131D+06 0.37526131D+06 0.10774321D+01  1  2 15  2  6  2        1 -.430370404624D-03 0.100000000000D+01
-.115842898460D-02 0.000000000000D+00 0.000000000000D+00 0.147621586781D-04 0.000000000000D+00  6 3 1 25 3 1 21 2 0.96990292D-01 0.51071833D+00 0.37526131D+06 0.37526131D+06 0.37526131D+06 0.10774321D+01  1  2  4  2  6  2        1 -.325457763067D-04 0.100000000000D+01
  </mgrwgt>
  </event>
  <event>
  5     66 0.20977079E-05 0.17158791E+03 0.75467711E-02 0.93597314E-01
        3 -1    0    0  501    0 0.00000000E+00 0.00000000E+00 0.55203003E+03 0.55203025E+03 0.50000000E+00 0.0000E+00 0.9000E+01
        1 -1    0    0  502    0 0.00000000E+00 0.00000000E+00 -.15156784E+04 0.15156784E+04 0.32000000E+00 0.0000E+00 0.9000E+01
       25  1    1    2    0    0 0.36687733E+03 0.27912333E+03 0.16079468E+03 0.50397295E+03 0.12500000E+03 0.0000E+00 0.9000E+01
        3  1    1    2  501    0 -.37340296E+03 -.10770638E+03 0.36362040E+02 0.39032407E+03 0.50000000E+00 0.0000E+00 0.9000E+01
        1  1    1    2  502    0 0.65256296E+01 -.17141695E+03 -.11608051E+04 0.11734116E+04 0.32000000E+00 0.0000E+00 0.9000E+01
#aMCatNLO 1  0  0  2  2 0.47388658D+02 0.00000000D+00  -5  6  0 0.00000000D+00 0.00000000D+00 0.00000000D+00 0.00000000D+00 0.00000000D+00
  <mgrwgt>
 0.4437089621D-03    7    2    0
 0.914713197102039D+03 0.000000000000000D+00 0.000000000000000D+00 0.914713197102039D+03
 0.914713197102039D+03 0.000000000000000D+00 0.000000000000000D+00 -.914713197102039D+03
 0.654393643880005D+03 0.366689529516649D+03 0.279115062766175D+03 0.447481409480264D+03
 0.460081030850713D+03 -.373211495003088D+03 -.107651149659037D+03 0.246574461214665D+03
 0.714951719473360D+03 0.652196548643963D+01 -.171463913107138D+03 -.694055870694929D+03
 0.000000000000000D+00 -.000000000000000D+00 0.000000000000000D+00 -.000000000000000D+00
 0.929044604495339D+03 0.000000000000000D+00 0.000000000000000D+00 0.929044604495339D+03
 0.955051275876856D+03 0.000000000000000D+00 0.000000000000000D+00 -.955051275876856D+03
 0.655829793960613D+03 0.378288443674888D+03 0.266732000701092D+03 0.447481409480264D+03
 0.455661637655612D+03 -.365104770381715D+03 -.116305931715484D+03 0.246574461214665D+03
 0.718548627153874D+03 0.192122036443980D+02 -.185012078442861D+03 -.694055870694929D+03
 0.540558216020962D+02 -.323958769375713D+02 0.345860094572531D+02 -.260066713815166D+02
0.218476647588D-03 0.000000000000D+00 0.000000000000D+00 0.451586031257D-06 0.000000000000D+00  6 3 1 25 3 1 21 0 0.84927716D-01 0.23318131D+00 0.26910128D+06 0.26910128D+06 0.26910128D+06 0.10880617D+01  1  2  2  2  6  2        1 0.136285251265D-03 0.100000000000D+01
0.228806571684D-04 0.000000000000D+00 -.839007852960D-06 0.451586031257D-06 0.000000000000D+00  6 3 1 25 3 1 21 2 0.84927716D-01 0.23318131D+00 0.26910128D+06 0.26910128D+06 0.26910128D+06 0.10880617D+01  1  2  3  2  6  2        1 0.168973804383D-04 0.100000000000D+01
-.131778346093D-03 0.000000000000D+00 0.000000000000D+00 0.451586031257D-06 0.000000000000D+00  6 3 1 25 3 1 21 2 0.84927716D-01 0.23318131D+00 0.26910128D+06 0.26910128D+06 0.26910128D+06 0.10880617D+01  1  2 15  2  6  2        1 -.973183956685D-04 0.100000000000D+01
-.670295921721D-04 0.000000000000D+00 0.000000000000D+00 0.451586031257D-06 0.000000000000D+00  6 3 1 25 3 1 21 2 0.84927716D-01 0.23318131D+00 0.26910128D+06 0.26910128D+06 0.26910128D+06 0.10880617D+01  1  2  4  2  6  2        1 -.495013981119D-04 0.100000000000D+01
-.507832561161D-02 0.000000000000D+00 -.844064832804D-03 0.451586031257D-06 0.000000000000D+00  6 3 1 25 3 1 21 2 0.84927716D-01 0.24534850D+00 0.26910128D+06 0.26910128D+06 0.26910128D+06 0.10880617D+01  1  2  5  2  6  2        1 -.332000903260D-02 0.100000000000D+01
0.511572940580D-02 0.000000000000D+00 0.842974176628D-03 0.451586031257D-06 0.000000000000D+00  6 3 1 25 3 1 21 2 0.84927716D-01 0.23318131D+00 0.26910128D+06 0.26910128D+06 0.26910128D+06 0.10880617D+01  1  2  6  2  6  2        1 0.377796954663D-02 0.100000000000D+01
-.441748461685D-04 0.000000000000D+00 -.746988053042D-05 0.451586031257D-06 0.000000000000D+00  6 3 21 25 3 1 -1 2 0.84927716D-01 0.24534850D+00 0.26910128D+06 0.26910128D+06 0.26910128D+06 0.10880617D+01  1  2  5  6  6  2        1 -.206143898975D-04 0.100000000000D+01
  </mgrwgt>
  </event>
  <event>
  5     66 0.20977079E-05 0.46006335E+02 0.75467711E-02 0.94579936E-01
        1 -1    0    0  501    0 0.00000000E+00 0.00000000E+00 0.86357007E+03 0.86357013E+03 0.32000000E+00 0.0000E+00 0.9000E+01
        3 -1    0    0  502    0 0.00000000E+00 0.00000000E+00 -.10821990E+04 0.10821991E+04 0.50000000E+00 0.0000E+00 0.9000E+01
       25  1    1    2    0    0 -.44935969E+03 0.15101473E+03 0.34816210E+03 0.60130810E+03 0.12500000E+03 0.0000E+00 0.9000E+01
        1  1    1    2  501    0 -.50394915E+00 -.46026092E+02 0.33132358E+03 0.33450571E+03 0.32000000E+00 0.0000E+00 0.9000E+01
        3  1    1    2  502    0 0.44986364E+03 -.10498864E+03 -.89811462E+03 0.10099555E+04 0.50000000E+00 0.0000E+00 0.9000E+01
#aMCatNLO 1  0  0  2  1 0.72842452D+01 0.00000000D+00  -5  6  0 0.00000000D+00 0.00000000D+00 0.00000000D+00 0.00000000D+00 0.00000000D+00
  <mgrwgt>
 0.1124353872D-02    9    2    0
 0.966723771685997D+03 0.000000000000000D+00 0.000000000000000D+00 0.966723771685997D+03
 0.966723771685997D+03 0.000000000000000D+00 0.000000000000000D+00 -.966723771685997D+03
 0.644667267499972D+03 -.449430400113624D+03 0.151011797225544D+03 0.418543472459314D+03
 0.373919514450886D+03 -.503702632342397D+00 -.460035774279248D+02 0.371078455902088D+03
 0.914860761421136D+03 0.449934102745966D+03 -.105008219797619D+03 -.789621928361402D+03
 0.000000000000000D+00 0.000000000000000D+00 -.000000000000000D+00 -.000000000000000D+00
 0.970091803474434D+03 0.000000000000000D+00 0.000000000000000D+00 0.970091803474434D+03
 0.970677190751094D+03 0.000000000000000D+00 0.000000000000000D+00 -.970677190751094D+03
 0.646446224415052D+03 -.451631376230337D+03 0.152046646547917D+03 0.418543472459314D+03
 0.373850139932897D+03 -.177843421899810D+01 -.454042273901662D+02 0.371078455902088D+03
 0.913164900637617D+03 0.446817846237050D+03 -.103543026280932D+03 -.789621928361402D+03
 0.730772923996175D+01 0.659196421228492D+01 -.309939287681835D+01 -.585387276659220D+00
0.126686139524D-02 0.000000000000D+00 0.000000000000D+00 0.189075278525D-04 0.000000000000D+00  6 1 3 25 1 3 21 0 0.13285695D+00 0.16649217D+00 0.24917833D+06 0.24917833D+06 0.24917833D+06 0.10905667D+01  1  2  2  2  6  2        3 0.400034409256D-03 0.100000000000D+01
0.376247734601D-03 0.000000000000D+00 -.486508133000D-05 0.189075278525D-04 0.000000000000D+00  6 1 3 25 1 3 21 2 0.13285695D+00 0.16649217D+00 0.24917833D+06 0.24917833D+06 0.24917833D+06 0.10905667D+01  1  2  3  2  6  2        3 0.141301441427D-03 0.100000000000D+01
-.796329569982D-03 0.000000000000D+00 0.000000000000D+00 0.189075278525D-04 0.000000000000D+00  6 1 3 25 1 3 21 2 0.13285695D+00 0.16649217D+00 0.24917833D+06 0.24917833D+06 0.24917833D+06 0.10905667D+01  1  2 15  2  6  2        3 -.299064966354D-03 0.100000000000D+01
-.408822587524D-04 0.000000000000D+00 0.000000000000D+00 0.189075278525D-04 0.000000000000D+00  6 1 3 25 1 3 21 2 0.13285695D+00 0.16649217D+00 0.24917833D+06 0.24917833D+06 0.24917833D+06 0.10905667D+01  1  2  4  2  6  2        3 -.153535066374D-04 0.100000000000D+01
-.371393277961D+00 0.000000000000D+00 -.406272792522D-01 0.189075278525D-04 0.000000000000D+00  6 1 3 25 1 3 21 2 0.13285695D+00 0.16757903D+00 0.24917833D+06 0.24917833D+06 0.24917833D+06 0.10905667D+01  1  2  5  2  6  2        3 -.136635327594D+00 0.100000000000D+01
0.371650623103D+00 0.000000000000D+00 0.406264192255D-01 0.189075278525D-04 0.000000000000D+00  6 1 3 25 1 3 21 2 0.13285695D+00 0.16649217D+00 0.24917833D+06 0.24917833D+06 0.24917833D+06 0.10905667D+01  1  2  6  2  6  2        3 0.139574976597D+00 0.100000000000D+01
0.401196259486D-04 0.000000000000D+00 0.000000000000D+00 0.189075278525D-04 0.380904445765D-06  6 1 3 25 1 3 21 2 0.13331982D+00 0.16717304D+00 0.25202493D+06 0.25202493D+06 0.25202493D+06 0.10901956D+01  1  2 11  2  6  2        3 0.147693489374D-04 0.100000000000D+01
-.448077199966D-03 0.000000000000D+00 -.490858393098D-04 0.189075278525D-04 0.000000000000D+00  6 1 21 25 1 3 -3 2 0.13285695D+00 0.16757903D+00 0.24917833D+06 0.24917833D+06 0.24917833D+06 0.10905667D+01  1  2  5  6  6  2        3 -.206411066308D-02 0.100000000000D+01
0.154736720808D-05 0.000000000000D+00 0.000000000000D+00 0.189075278525D-04 0.173042690915D-08  6 1 21 25 1 3 -3 2 0.13331982D+00 0.16717304D+00 0.25202493D+06 0.25202493D+06 0.25202493D+06 0.10901956D+01  1  2 11  6  6  2        3 0.712880595489D-05 0.100000000000D+01
  </mgrwgt>
  </event>
  <event>
  5     66 -.20977079E-05 0.69267506E+02 0.75467711E-02 0.92986309E-01
        3 -1    0    0  501    0 0.00000000E+00 0.00000000E+00 0.83953111E+03 0.83953126E+03 0.50000000E+00 0.0000E+00 0.9000E+01
        1 -1    0    0  502    0 0.00000000E+00 0.00000000E+00 -.14186793E+04 0.14186793E+04 0.32000000E+00 0.0000E+00 0.9000E+01
       25  1    1    2    0    0 -.15086652E+02 -.56718886E+03 -.55559767E+02 0.58364604E+03 0.12500000E+03 0.0000E+00 0.9000E+01
        3  1    1    2  501    0 0.15661945E+02 0.49793877E+03 0.46623452E+03 0.68232192E+03 0.50000000E+00 0.0000E+00 0.9000E+01
        1  1    1    2  502    0 -.57529332E+00 0.69250090E+02 -.98982293E+03 0.99224264E+03 0.32000000E+00 0.0000E+00 0.9000E+01
#aMCatNLO 1  0  0  1  4 0.18772550D+02 0.00000000D+00  -5  6  0 0.00000000D+00 0.00000000D+00 0.00000000D+00 0.00000000D+00 0.00000000D+00
  <mgrwgt>
 -.7969988312D-03    9    2    0
 0.109134120126177D+04 0.000000000000000D+00 0.000000000000000D+00 0.109134120126177D+04
 0.109134120126177D+04 0.000000000000000D+00 0.000000000000000D+00 -.109134120126177D+04
 0.589087199951904D+03 -.150845840201289D+02 -.567141112118861D+03 0.975814706627044D+02
 0.829537465616388D+03 0.156599709294165D+02 0.497875996387485D+03 0.663329981527233D+03
 0.764057736955249D+03 -.575386909287603D+00 0.692651157313761D+02 -.760911452189937D+03
 0.000000000000000D+00 0.000000000000000D+00 0.000000000000000D+00 0.000000000000000D+00
 0.117089585898607D+04 0.000000000000000D+00 0.000000000000000D+00 0.117089585898607D+04
 0.109248956871719D+04 0.000000000000000D+00 0.000000000000000D+00 -.109248956871719D+04
 0.593937727628128D+03 -.159502330145064D+02 -.572154237028925D+03 0.975814706627044D+02
 0.825325603285272D+03 0.144490661394748D+02 0.490863434707634D+03 0.663329981527233D+03
 0.763499798452984D+03 -.169313904920640D+01 0.627920173597503D+02 -.760911452189937D+03
 0.806222983368669D+02 0.319430592423801D+01 0.184987849615405D+02 0.784062902688798D+02
0.362778270826D-04 0.000000000000D+00 0.000000000000D+00 0.159211032569D-04 0.000000000000D+00  6 3 1 25 3 1 21 0 0.12915865D+00 0.21825837D+00 0.32967038D+06 0.32967038D+06 0.32967038D+06 0.10815345D+01  1  2  2  1  6  1        3 0.923109735196D-05 0.100000000000D+01
0.132348130366D-04 0.000000000000D+00 -.139316408168D-06 0.159211032569D-04 0.000000000000D+00  6 3 1 25 3 1 21 2 0.12915865D+00 0.21825837D+00 0.32967038D+06 0.32967038D+06 0.32967038D+06 0.10815345D+01  1  2  3  1  6  1        3 0.393922364604D-05 0.100000000000D+01
-.202182135784D-04 0.000000000000D+00 0.000000000000D+00 0.159211032569D-04 0.000000000000D+00  6 3 1 25 3 1 21 2 0.12915865D+00 0.21825837D+00 0.32967038D+06 0.32967038D+06 0.32967038D+06 0.10815345D+01  1  2 15  1  6  1        3 -.601777031444D-05 0.100000000000D+01
0.268284719050D-02 0.000000000000D+00 0.000000000000D+00 0.159211032569D-04 0.000000000000D+00  6 3 1 25 3 1 21 2 0.13948641D+00 0.21825837D+00 0.33554807D+06 0.33554807D+06 0.33554807D+06 0.10809720D+01  1  2 12  1  6  1        3 0.644728487480D-03 0.100000000000D+01
-.540590607273D-02 0.000000000000D+00 0.000000000000D+00 0.159211032569D-04 0.000000000000D+00  6 3 1 25 3 1 21 2 0.12915865D+00 0.21825837D+00 0.32967038D+06 0.32967038D+06 0.32967038D+06 0.10815345D+01  1  2  4  1  6  1        3 -.160901955857D-02 0.100000000000D+01
-.334950639548D-02 0.000000000000D+00 -.103368505215D-03 0.159211032569D-04 0.000000000000D+00  6 3 1 25 3 1 21 2 0.13863625D+00 0.21825837D+00 0.32967038D+06 0.32967038D+06 0.32967038D+06 0.10815345D+01  1  2  5  1  6  1        3 -.820695229081D-03 0.100000000000D+01
0.334868550181D-02 0.000000000000D+00 0.103109882355D-03 0.159211032569D-04 0.000000000000D+00  6 3 1 25 3 1 21 2 0.12915865D+00 0.21825837D+00 0.32967038D+06 0.32967038D+06 0.32967038D+06 0.10815345D+01  1  2  6  1  6  1        3 0.996706268187D-03 0.100000000000D+01
0.416411294978D-04 0.000000000000D+00 0.000000000000D+00 0.159211032569D-04 0.000000000000D+00  6 21 1 25 3 1 -3 2 0.13948641D+00 0.21825837D+00 0.33554807D+06 0.33554807D+06 0.33554807D+06 0.10809720D+01  1  2 12  5  6  1        3 0.124552894024D-03 0.100000000000D+01
-.459903170107D-04 0.000000000000D+00 -.123794717540D-05 0.159211032569D-04 0.000000000000D+00  6 21 1 25 3 1 -3 2 0.13863625D+00 0.21825837D+00 0.32967038D+06 0.32967038D+06 0.32967038D+06 0.10815345D+01  1  2  5  5  6  1        3 -.140424243918D-03 0.100000000000D+01
  </mgrwgt>
  </event>
  <event>
  6     66 0.20977079E-05 0.13896730E+02 0.75467711E-02 0.94253981E-01
        3 -1    0    0  501    0 0.00000000E+00 0.00000000E+00 0.12775479E+04 0.12775480E+04 0.50000000E+00 0.0000E+00 0.9000E+01
        1 -1    0    0  502    0 0.00000000E+00 0.00000000E+00 -.10140991E+04 0.10140992E+04 0.32000000E+00 0.0000E+00 0.9000E+01
       25  1    1    2    0    0 0.44881397E+03 -.22926338E+03 0.85772138E+03 0.10026498E+04 0.12500000E+03 0.0000E+00 0.9000E+01
        3  1    1    2  503    0 -.11584537E+02 0.18905923E+02 0.65846394E+02 0.69481170E+02 0.50000000E+00 0.0000E+00 0.9000E+01
        1  1    1    2  502    0 -.43426202E+03 0.19485940E+03 -.87924967E+03 0.99981687E+03 0.32000000E+00 0.0000E+00 0.9000E+01
       21  1    1    2  501  503 -.29674103E+01 0.15498056E+02 0.21913068E+03 0.21969937E+03 0.75000000E+00 0.0000E+00 0.9000E+01
#aMCatNLO 2  0  0  4  1 0.13413682D+02 0.00000000D+00  -5  6  0 0.00000000D+00 0.00000000D+00 0.00000000D+00 0.00000000D+00 0.00000000D+00
  <mgrwgt>
 0.1950498813D-03    2    2    0
 0.113822687833608D+04 0.000000000000000D+00 0.000000000000000D+00 0.113822687833608D+04
 0.113822687833608D+04 -.000000000000000D+00 -.000000000000000D+00 -.113822687833608D+04
 0.910345592941189D+03 0.449047360870699D+03 -.229356863096372D+03 0.747566716509702D+03
 0.256944512663689D+03 -.145970112400864D+02 0.345105198861425D+02 0.254197627581427D+03
 0.110916365106728D+04 -.434450349630613D+03 0.194846343210230D+03 -.100176434409113D+04
 0.000000000000000D+00 0.000000000000000D+00 0.000000000000000D+00 0.000000000000000D+00
 0.113822687833608D+04 0.000000000000000D+00 0.000000000000000D+00 0.113822687833608D+04
 0.113822687833608D+04 -.000000000000000D+00 -.000000000000000D+00 -.113822687833608D+04
 0.910928973491805D+03 0.449003215053313D+03 -.229252492750707D+03 0.748335487723394D+03
 0.614652284108826D+02 -.114231386905752D+02 0.186431967751098D+02 0.574449076947853D+02
 0.110836174602429D+04 -.434504100159520D+03 0.194973421189839D+03 -.100082831296088D+04
 0.195697808745172D+03 -.307597620321788D+01 0.156358747857577D+02 0.195047917542699D+03
-.164623916468D-02 0.000000000000D+00 0.000000000000D+00 0.193226435698D-04 0.000000000000D+00  6 3 1 25 3 1 21 2 0.19654585D+00 0.15601526D+00 0.26700631D+06 0.26700631D+06 0.26700631D+06 0.10883154D+01  1  2 13  3  6  4        3 -.265411609268D-03 0.100000000000D+01
0.285605344004D-02 0.000000000000D+00 0.000000000000D+00 0.193226435698D-04 0.206714818494D-06  6 3 1 25 3 1 21 2 0.19654585D+00 0.15601526D+00 0.26700631D+06 0.26700631D+06 0.26700631D+06 0.10883154D+01  1  2  1  3  6  4        3 0.460461490614D-03 0.100000000000D+01
  </mgrwgt>
  </event>
  <event>
  5     66 0.20977079E-05 0.55945619E+02 0.75467711E-02 0.93376685E-01
        3 -1    0    0  501    0 0.00000000E+00 0.00000000E+00 0.16942106E+04 0.16942107E+04 0.50000000E+00 0.0000E+00 0.9000E+01
        1 -1    0    0  502    0 0.00000000E+00 0.00000000E+00 -.17292284E+04 0.17292284E+04 0.32000000E+00 0.0000E+00 0.9000E+01
       25  1    1    2    0    0 0.45432414E+03 0.18448727E+03 -.59496479E+03 0.78105959E+03 0.12500000E+03 0.0000E+00 0.9000E+01
        3  1    1    2  501    0 -.49279426E+02 0.26487227E+02 0.15505556E+04 0.15515647E+04 0.50000000E+00 0.0000E+00 0.9000E+01
        1  1    1    2  502    0 -.40504472E+03 -.21097450E+03 -.99060858E+03 0.10908148E+04 0.32000000E+00 0.0000E+00 0.9000E+01
#aMCatNLO 1  0  0  2  1 0.24939643D+02 0.00000000D+00  -5  6  0 0.00000000D+00 0.00000000D+00 0.00000000D+00 0.00000000D+00 0.00000000D+00
  <mgrwgt>
 0.3744421013D-04    7    2    0
 0.171163000613095D+04 0.000000000000000D+00 0.000000000000000D+00 0.171163000613095D+04
 0.171163000613095D+04 0.000000000000000D+00 0.000000000000000D+00 -.171163000613095D+04
 0.775023625570858D+03 0.454370028163154D+03 0.184509882324288D+03 -.586975809573690D+03
 0.156747627301441D+04 -.492784604313507D+02 0.264867074216988D+02 0.156647756260044D+04
 0.108076011367663D+04 -.405091567731803D+03 -.210996589745987D+03 -.979501753026748D+03
 0.000000000000000D+00 0.000000000000000D+00 0.000000000000000D+00 -.000000000000000D+00
 0.171583768993279D+04 0.000000000000000D+00 0.000000000000000D+00 0.171583768993279D+04
 0.205800129950693D+04 0.000000000000000D+00 0.000000000000000D+00 -.205800129950693D+04
 0.765272308426176D+03 0.441797641589367D+03 0.174042951323263D+03 -.586975809573690D+03
 0.156827446599820D+04 -.748734578729139D+02 0.517801868388780D+01 0.156647756260044D+04
 0.109048561889810D+04 -.422813967755140D+03 -.225751078651346D+03 -.979501753026748D+03
 0.349806596117244D+03 0.558897840386865D+02 0.465301086441959D+02 -.342163609574135D+03
0.401026927311D-02 0.000000000000D+00 0.000000000000D+00 0.208274355400D-03 0.000000000000D+00  6 3 1 25 3 1 21 0 0.26064780D+00 0.26603514D+00 0.25947696D+06 0.25947696D+06 0.25947696D+06 0.10892456D+01  1  2  2  2  6  2        1 0.507155229709D-04 0.100000000000D+01
0.186629727276D-02 0.000000000000D+00 -.154004899369D-04 0.208274355400D-03 0.000000000000D+00  6 3 1 25 3 1 21 2 0.26064780D+00 0.26603514D+00 0.25947696D+06 0.25947696D+06 0.25947696D+06 0.10892456D+01  1  2  3  2  6  2        1 0.280026928148D-04 0.100000000000D+01
-.256140679664D-02 0.000000000000D+00 0.000000000000D+00 0.208274355400D-03 0.000000000000D+00  6 3 1 25 3 1 21 2 0.26064780D+00 0.26603514D+00 0.25947696D+06 0.25947696D+06 0.25947696D+06 0.10892456D+01  1  2 15  2  6  2        1 -.384324023546D-04 0.100000000000D+01
-.676542442728D-01 0.000000000000D+00 0.000000000000D+00 0.208274355400D-03 0.000000000000D+00  6 3 1 25 3 1 21 2 0.26064780D+00 0.26603514D+00 0.25947696D+06 0.25947696D+06 0.25947696D+06 0.10892456D+01  1  2  4  2  6  2        1 -.101511214084D-02 0.100000000000D+01
-.170157715833D+00 0.000000000000D+00 -.442205772097D-02 0.208274355400D-03 0.000000000000D+00  6 3 1 25 3 1 21 2 0.26064780D+00 0.32011692D+00 0.25947696D+06 0.25947696D+06 0.25947696D+06 0.10892456D+01  1  2  5  2  6  2        1 -.149195444291D-02 0.100000000000D+01
0.168162988820D+00 0.000000000000D+00 0.434740351013D-02 0.208274355400D-03 0.000000000000D+00  6 3 1 25 3 1 21 2 0.26064780D+00 0.26603514D+00 0.25947696D+06 0.25947696D+06 0.25947696D+06 0.10892456D+01  1  2  6  2  6  2        1 0.252318673314D-02 0.100000000000D+01
-.454131041814D-02 0.000000000000D+00 -.119176518817D-03 0.208274355400D-03 0.000000000000D+00  6 3 21 25 3 1 -1 2 0.26064780D+00 0.32011692D+00 0.25947696D+06 0.25947696D+06 0.25947696D+06 0.10892456D+01  1  2  5  6  6  2        1 -.189617527008D-04 0.100000000000D+01
  </mgrwgt>
  </event>
  <event>
  5     66 0.20977079E-05 0.11598078E+02 0.75467711E-02 0.94058558E-01
        1 -1    0    0  501    0 0.00000000E+00 0.00000000E+00 0.59332801E+03 0.59332809E+03 0.32000000E+00 0.0000E+00 0.9000E+01
        3 -1    0    0  502    0 0.00000000E+00 0.00000000E+00 -.82035911E+03 0.82035926E+03 0.50000000E+00 0.0000E+00 0.9000E+01
       25  1    1    2    0    0 -.19857059E+03 -.46891759E+03 0.12372756E+03 0.53874623E+03 0.12500000E+03 0.0000E+00 0.9000E+01
        1  1    1    2  501    0 0.67165500E+01 -.94730055E+01 0.15345975E+03 0.15389882E+03 0.32000000E+00 0.0000E+00 0.9000E+01
        3  1    1    2  502    0 0.19185404E+03 0.47839060E+03 -.50421842E+03 0.72104230E+03 0.50000000E+00 0.0000E+00 0.9000E+01
#aMCatNLO 1  0  0  1  1 0.21414991D+02 0.00000000D+00  -5  6  0 0.00000000D+00 0.00000000D+00 0.00000000D+00 0.00000000D+00 0.00000000D+00
  <mgrwgt>
 0.2081860687D-03    7    2    0
 0.697669120248749D+03 0.000000000000000D+00 0.000000000000000D+00 0.697669120248749D+03
 0.697669120248749D+03 0.000000000000000D+00 0.000000000000000D+00 -.697669120248749D+03
 0.566132812055465D+03 -.198607330172243D+03 -.469032305529163D+03 0.213178764556134D+03
 0.180666834588022D+03 0.670821523095765D+01 -.946125018410960D+01 0.180294175483914D+03
 0.648538593854012D+03 0.191899114941285D+03 0.478493555713273D+03 -.393472940040048D+03
 0.000000000000000D+00 -.000000000000000D+00 -.000000000000000D+00 0.000000000000000D+00
 0.885135497227695D+03 0.000000000000000D+00 0.000000000000000D+00 0.885135497227695D+03
 0.787911264012508D+03 0.000000000000000D+00 0.000000000000000D+00 -.787911264012508D+03
 0.507269668775206D+03 -.117816962478415D+03 -.427049756531938D+03 0.213178764556134D+03
 0.183557001953105D+03 0.341217699809361D+02 0.478414735932802D+01 0.180294175483914D+03
 0.724734994641860D+03 0.295259485482767D+03 0.532204560434453D+03 -.393472940040048D+03
 0.257485095870033D+03 -.211564292985288D+03 -.109938951261843D+03 0.972242332151874D+02
0.838334150239D-04 0.000000000000D+00 0.000000000000D+00 0.344592899829D-05 0.000000000000D+00  6 1 3 25 1 3 21 0 0.91281250D-01 0.12620911D+00 0.27646600D+06 0.27646600D+06 0.27646600D+06 0.10871866D+01  1  2  2  1  6  1        1 0.104334708329D-03 0.100000000000D+01
0.591683962921D-04 0.000000000000D+00 -.321942387537D-06 0.344592899829D-05 0.000000000000D+00  6 1 3 25 1 3 21 2 0.91281250D-01 0.12620911D+00 0.27646600D+06 0.27646600D+06 0.27646600D+06 0.10871866D+01  1  2  3  1  6  1        1 0.870381447245D-04 0.100000000000D+01
-.583443686341D-04 0.000000000000D+00 0.000000000000D+00 0.344592899829D-05 0.000000000000D+00  6 1 3 25 1 3 21 2 0.91281250D-01 0.12620911D+00 0.27646600D+06 0.27646600D+06 0.27646600D+06 0.10871866D+01  1  2 15  1  6  1        1 -.858259800717D-04 0.100000000000D+01
-.115755610008D-05 0.000000000000D+00 0.000000000000D+00 0.344592899829D-05 0.000000000000D+00  6 1 3 25 1 3 21 2 0.91281250D-01 0.12620911D+00 0.27646600D+06 0.27646600D+06 0.27646600D+06 0.10871866D+01  1  2  4  1  6  1        1 -.170279307332D-05 0.100000000000D+01
-.154207119492D-03 0.000000000000D+00 -.642177518182D-04 0.344592899829D-05 0.000000000000D+00  6 1 3 25 1 3 21 2 0.12659878D+00 0.12620911D+00 0.27646600D+06 0.27646600D+06 0.27646600D+06 0.10871866D+01  1  2  5  1  6  1        1 -.137705360607D-03 0.100000000000D+01
0.169359503950D-03 0.000000000000D+00 0.609294855200D-04 0.344592899829D-05 0.000000000000D+00  6 1 3 25 1 3 21 2 0.91281250D-01 0.12620911D+00 0.27646600D+06 0.27646600D+06 0.27646600D+06 0.10871866D+01  1  2  6  1  6  1        1 0.249131934259D-03 0.100000000000D+01
-.470125379621D-05 0.000000000000D+00 -.264195600058D-05 0.344592899829D-05 0.000000000000D+00  6 21 3 25 1 3 -1 2 0.12659878D+00 0.12620911D+00 0.27646600D+06 0.27646600D+06 0.27646600D+06 0.10871866D+01  1  2  5  5  6  1        1 -.708458481509D-05 0.100000000000D+01
  </mgrwgt>
  </event>
  <event>
  5     66 0.20977079E-05 0.44491698E+02 0.75467711E-02 0.94624364E-01
        3 -1    0    0  501    0 0.00000000E+00 0.00000000E+00 0.15588290E+04 0.15588291E+04 0.50000000E+00 0.0000E+00 0.9000E+01
        1 -1    0    0  502    0 0.00000000E+00 0.00000000E+00 -.11489144E+04 0.11489144E+04 0.32000000E+00 0.0000E+00 0.9000E+01
       25  1    1    2    0    0 0.96037344E+02 -.44938584E+03 0.81331494E+03 0.94248448E+03 0.12500000E+03 0.0000E+00 0.9000E+01
        3  1    1    2  501    0 -.60328222E+02 0.47591234E+03 0.59588105E+03 0.76498792E+03 0.50000000E+00 0.0000E+00 0.9000E+01
        1  1    1    2  502    0 -.35709122E+02 -.26526503E+02 -.99928140E+03 0.10002711E+04 0.32000000E+00 0.0000E+00 0.9000E+01
#aMCatNLO 1  0  0  2  5 0.27554431D+02 0.00000000D+00  -5  6  0 0.00000000D+00 0.00000000D+00 0.00000000D+00 0.00000000D+00 0.00000000D+00
  <mgrwgt>
 0.1537482378D-03    7    2    0
 0.133826797987323D+04 0.000000000000000D+00 0.000000000000000D+00 0.133826797987323D+04
 0.133826797987323D+04 0.000000000000000D+00 0.000000000000000D+00 -.133826797987323D+04
 0.829044244621660D+03 0.960229545960658D+02 -.449216157071922D+03 0.678729545516088D+03
 0.682410692833352D+03 -.603073056082220D+02 0.475747338543734D+03 0.485501650308344D+03
 0.116508102229145D+04 -.357156489878438D+02 -.265311814718125D+02 -.116423119582443D+04
 0.000000000000000D+00 -.000000000000000D+00 -.000000000000000D+00 -.000000000000000D+00
 0.139107588280234D+04 0.000000000000000D+00 0.000000000000000D+00 0.139107588280234D+04
 0.149390099815268D+04 0.000000000000000D+00 0.000000000000000D+00 -.149390099815268D+04
 0.802123783398668D+03 0.100557174666423D+03 -.396222188374685D+03 0.678729545516088D+03
 0.714473109403919D+03 -.564243343488182D+02 0.521129797749535D+03 0.485501650308344D+03
 0.116563661923702D+04 -.292368641373459D+02 0.491900045835325D+02 -.116423119582443D+04
 0.202743368915424D+03 -.148959761802592D+02 -.174097613958383D+03 -.102825115350340D+03
0.131621946659D-02 0.000000000000D+00 0.000000000000D+00 0.292855464156D-04 0.000000000000D+00  6 3 1 25 3 1 21 0 0.23981985D+00 0.17675607D+00 0.25005700D+06 0.25005700D+06 0.25005700D+06 0.10904517D+01  1  2  2  2  6  2        1 0.630453440728D-04 0.100000000000D+01
0.685413930287D-03 0.000000000000D+00 -.505462932025D-05 0.292855464156D-04 0.000000000000D+00  6 3 1 25 3 1 21 2 0.23981985D+00 0.17675607D+00 0.25005700D+06 0.25005700D+06 0.25005700D+06 0.10904517D+01  1  2  3  2  6  2        1 0.390382617485D-04 0.100000000000D+01
-.848409399405D-03 0.000000000000D+00 0.000000000000D+00 0.292855464156D-04 0.000000000000D+00  6 3 1 25 3 1 21 2 0.23981985D+00 0.17675607D+00 0.25005700D+06 0.25005700D+06 0.25005700D+06 0.10904517D+01  1  2 15  2  6  2        1 -.483217902940D-04 0.100000000000D+01
-.781090740780D-04 0.000000000000D+00 0.000000000000D+00 0.292855464156D-04 0.000000000000D+00  6 3 1 25 3 1 21 2 0.23981985D+00 0.17675607D+00 0.25005700D+06 0.25005700D+06 0.25005700D+06 0.10904517D+01  1  2  4  2  6  2        1 -.444876058693D-05 0.100000000000D+01
-.734484032352D-02 0.000000000000D+00 -.221697686600D-02 0.292855464156D-04 0.000000000000D+00  6 3 1 25 3 1 21 2 0.23981985D+00 0.20154917D+00 0.25005700D+06 0.25005700D+06 0.25005700D+06 0.10904517D+01  1  2  5  2  6  2        1 -.322122906755D-03 0.100000000000D+01
0.758933411510D-02 0.000000000000D+00 0.219801386833D-02 0.292855464156D-04 0.000000000000D+00  6 3 1 25 3 1 21 2 0.23981985D+00 0.17675607D+00 0.25005700D+06 0.25005700D+06 0.25005700D+06 0.10904517D+01  1  2  6  2  6  2        1 0.432256186504D-03 0.100000000000D+01
-.138110877969D-03 0.000000000000D+00 -.453353197095D-04 0.292855464156D-04 0.000000000000D+00  6 3 21 25 3 1 -1 2 0.23981985D+00 0.20154917D+00 0.25005700D+06 0.25005700D+06 0.25005700D+06 0.10904517D+01  1  2  5  6  6  2        1 -.569809691064D-05 0.100000000000D+01
  </mgrwgt>
  </event>
  <event>
  5     66 0.20977079E-05 0.17423403E+03 0.75467711E-02 0.91922845E-01
        1 -1    0    0  501    0 0.00000000E+00 0.00000000E+00 0.13421808E+04 0.13421808E+04 0.32000000E+00 0.0000E+00 0.9000E+01
        3 -1    0    0  502    0 0.00000000E+00 0.00000000E+00 -.22561996E+04 0.22561996E+04 0.50000000E+00 0.0000E+00 0.9000E+01
       25  1    1    2    0    0 -.22575244E+03 0.46553458E+03 -.37580206E+03 0.65156642E+03 0.12500000E+03 0.0000E+00 0.9000E+01
        1  1    1    2  501    0 0.38459979E+03 -.39395775E+03 0.11366181E+04 0.12629412E+04 0.32000000E+00 0.0000E+00 0.9000E+01
        3  1    1    2  502    0 -.15884735E+03 -.71576835E+02 -.16748348E+04 0.16838728E+04 0.50000000E+00 0.0000E+00 0.9000E+01
#aMCatNLO 1  0  0  2  5 0.21207169D+02 0.00000000D+00  -5  6  0 0.00000000D+00 0.00000000D+00 0.00000000D+00 0.00000000D+00 0.00000000D+00
  <mgrwgt>
 0.6161522587D-03    7    2    0
 0.174018043713078D+04 0.000000000000000D+00 0.000000000000000D+00 0.174018043713078D+04
 0.174018043713078D+04 0.000000000000000D+00 0.000000000000000D+00 -.174018043713078D+04
 0.574955180489698D+03 -.225746169217198D+03 0.465535357816408D+03 -.217402753612852D+03
 0.160426050914335D+04 0.384597872837612D+03 -.393955788824399D+03 0.150682948400189D+04
 0.130114518462851D+04 -.158851703620414D+03 -.715795689920085D+02 -.128942673038904D+04
 0.000000000000000D+00 -.000000000000000D+00 0.000000000000000D+00 -.000000000000000D+00
 0.174452666243303D+04 0.000000000000000D+00 0.000000000000000D+00 0.174452666243303D+04
 0.176627627899366D+04 0.000000000000000D+00 0.000000000000000D+00 -.176627627899366D+04
 0.572968496561124D+03 -.222344661114145D+03 0.464722274532973D+03 -.217402753612852D+03
 0.160712766952926D+04 0.394113804192792D+03 -.396230440089898D+03 0.150682948400189D+04
 0.130032931926447D+04 -.151143058192339D+03 -.734222136500853D+02 -.128942673038904D+04
 0.303774560718405D+02 -.206260848863076D+02 0.493037920701029D+01 -.217496165606319D+02
0.571257747016D-01 0.000000000000D+00 0.000000000000D+00 0.162196542383D-04 0.000000000000D+00  6 1 3 25 1 3 21 0 0.20648936D+00 0.34710764D+00 0.39505162D+06 0.39505162D+06 0.39505162D+06 0.10758176D+01  1  2  2  2  6  2        3 0.208000902594D-03 0.100000000000D+01
0.934496402661D-02 0.000000000000D+00 -.219378016416D-03 0.162196542383D-04 0.000000000000D+00  6 1 3 25 1 3 21 2 0.20648936D+00 0.34710764D+00 0.39505162D+06 0.39505162D+06 0.39505162D+06 0.10758176D+01  1  2  3  2  6  2        3 0.393811152370D-04 0.100000000000D+01
-.393027749580D-01 0.000000000000D+00 0.000000000000D+00 0.162196542383D-04 0.000000000000D+00  6 1 3 25 1 3 21 2 0.20648936D+00 0.34710764D+00 0.39505162D+06 0.39505162D+06 0.39505162D+06 0.10758176D+01  1  2 15  2  6  2        3 -.165627936646D-03 0.100000000000D+01
-.115877740976D-02 0.000000000000D+00 0.000000000000D+00 0.162196542383D-04 0.000000000000D+00  6 1 3 25 1 3 21 2 0.20648936D+00 0.34710764D+00 0.39505162D+06 0.39505162D+06 0.39505162D+06 0.10758176D+01  1  2  4  2  6  2        3 -.488326617179D-05 0.100000000000D+01
-.538474556266D+01 0.000000000000D+00 -.594821712920D+00 0.162196542383D-04 0.000000000000D+00  6 1 3 25 1 3 21 2 0.20648936D+00 0.35262559D+00 0.39505162D+06 0.39505162D+06 0.39505162D+06 0.10758176D+01  1  2  5  2  6  2        3 -.207021741990D-01 0.100000000000D+01
0.539353017708D+01 0.000000000000D+00 0.594747738550D+00 0.162196542383D-04 0.000000000000D+00  6 1 3 25 1 3 21 2 0.20648936D+00 0.34710764D+00 0.39505162D+06 0.39505162D+06 0.39505162D+06 0.10758176D+01  1  2  6  2  6  2        3 0.227291654450D-01 0.100000000000D+01
-.154994160552D-01 0.000000000000D+00 -.171814002415D-02 0.162196542383D-04 0.000000000000D+00  6 1 21 25 1 3 -3 2 0.20648936D+00 0.35262559D+00 0.39505162D+06 0.39505162D+06 0.39505162D+06 0.10758176D+01  1  2  5  6  6  2        3 -.148770980230D-02 0.100000000000D+01
  </mgrwgt>
  </event>
  <event>
  5     66 -.20977079E-05 0.11981828E+02 0.75467711E-02 0.90152729E-01
        3 -1    0    0  501    0 0.00000000E+00 0.00000000E+00 0.12885508E+04 0.12885509E+04 0.50000000E+00 0.0000E+00 0.9000E+01
        1 -1    0    0  502    0 0.00000000E+00 0.00000000E+00 -.80194863E+03 0.80194870E+03 0.32000000E+00 0.0000E+00 0.9000E+01
       25  1    1    2    0    0 -.39588512E+03 -.63195826E+03 0.64837546E+03 0.99604819E+03 0.12500000E+03 0.0000E+00 0.9000E+01
        3  1    1    2  501    0 0.10793231E+02 0.52582013E+01 0.25079874E+03 0.25108644E+03 0.50000000E+00 0.0000E+00 0.9000E+01
        1  1    1    2  502    0 0.38509189E+03 0.62670006E+03 -.41257201E+03 0.84336498E+03 0.32000000E+00 0.0000E+00 0.9000E+01
#aMCatNLO 1  0  0  5  2 0.89145804D+02 0.00000000D+00  -5  6  0 0.00000000D+00 0.00000000D+00 0.00000000D+00 0.00000000D+00 0.00000000D+00
  <mgrwgt>
 -.2196825741D-04    6    2    0
 0.101653909839986D+04 0.000000000000000D+00 0.000000000000000D+00 0.101653909839986D+04
 0.101653909839986D+04 -.000000000000000D+00 -.000000000000000D+00 -.101653909839986D+04
 0.869299122241682D+03 -.395963123515101D+03 -.632104166220912D+03 0.428618118833641D+03
 0.197752677263696D+03 0.107715573101142D+02 0.524764256079624D+01 0.197389354235806D+03
 0.966026397294344D+03 0.385191566204987D+03 0.626856523660116D+03 -.626007473069447D+03
 0.000000000000000D+00 0.000000000000000D+00 0.000000000000000D+00 -.000000000000000D+00
 0.101653909839986D+04 0.000000000000000D+00 0.000000000000000D+00 0.101653909839986D+04
 0.101653909839986D+04 -.000000000000000D+00 -.000000000000000D+00 -.101653909839986D+04
 0.863181322176359D+03 -.393455489055394D+03 -.628023269446590D+03 0.424542749461022D+03
 0.196885130682045D+03 0.113427657006599D+02 0.617722082106478D+01 0.196461035049889D+03
 0.890804956359995D+03 0.323279595262599D+03 0.607802643199011D+03 -.565331513788748D+03
 0.822067875813233D+02 0.588331280921353D+02 0.140434054265137D+02 -.556722707221627D+02
0.136749713734D-04 0.000000000000D+00 0.000000000000D+00 0.303819068194D-05 0.000000000000D+00  6 3 1 25 3 1 21 0 0.19823860D+00 0.12337673D+00 0.56551361D+06 0.56551361D+06 0.56551361D+06 0.10647516D+01  1  2  2  4  6  5        1 0.255064590506D-05 0.100000000000D+01
0.103314674139D-04 0.000000000000D+00 -.525154907765D-07 0.303819068194D-05 0.000000000000D+00  6 3 1 25 3 1 21 2 0.19823860D+00 0.12337673D+00 0.56551361D+06 0.56551361D+06 0.56551361D+06 0.10647516D+01  1  2  3  4  6  5        1 0.218465248821D-05 0.100000000000D+01
-.902961165721D-05 0.000000000000D+00 0.000000000000D+00 0.303819068194D-05 0.000000000000D+00  6 3 1 25 3 1 21 2 0.19823860D+00 0.12337673D+00 0.56551361D+06 0.56551361D+06 0.56551361D+06 0.10647516D+01  1  2 15  4  6  5        1 -.190936706124D-05 0.100000000000D+01
-.138532604803D-03 0.000000000000D+00 0.000000000000D+00 0.303819068194D-05 0.000000000000D+00  6 3 1 25 3 1 21 2 0.19823860D+00 0.12337673D+00 0.56551361D+06 0.56551361D+06 0.56551361D+06 0.10647516D+01  1  2  4  4  6  5        1 -.292935734737D-04 0.100000000000D+01
-.239876399115D-03 0.000000000000D+00 0.000000000000D+00 0.303819068194D-05 0.000000000000D+00  6 3 1 25 3 1 21 2 0.19823860D+00 0.12337673D+00 0.56551361D+06 0.56551361D+06 0.56551361D+06 0.10647516D+01  1  2  5  4  6  5        1 -.507233436639D-04 0.100000000000D+01
0.261154495752D-03 0.000000000000D+00 -.000000000000D+00 0.303819068194D-05 0.000000000000D+00  6 3 1 25 3 1 21 2 0.19823860D+00 0.12337673D+00 0.56551361D+06 0.56551361D+06 0.56551361D+06 0.10647516D+01  1  2  6  4  6  5        1 0.552227283978D-04 0.100000000000D+01
  </mgrwgt>
  </event>
  <event>
  5     66 0.20977079E-05 0.58857860E+02 0.75467711E-02 0.90077324E-01
        3 -1    0    0  501    0 0.00000000E+00 0.00000000E+00 0.78258264E+03 0.78258280E+03 0.50000000E+00 0.0000E+00 0.9000E+01
        1 -1    0    0  502    0 0.00000000E+00 0.00000000E+00 -.17270123E+04 0.17270124E+04 0.32000000E+00 0.0000E+00 0.9000E+01
       25  1    1    2    0    0 0.45086050E+03 -.54796143E+03 -.13980943E+04 0.15728412E+04 0.12500000E+03 0.0000E+00 0.9000E+01
        3  1    1    2  501    0 -.43538316E+03 0.60474408E+03 0.46280959E+03 0.87719260E+03 0.50000000E+00 0.0000E+00 0.9000E+01
        1  1    1    2  502    0 -.15477336E+02 -.56782652E+02 -.91449909E+01 0.59561319E+02 0.32000000E+00 0.0000E+00 0.9000E+01
#aMCatNLO 1  0  0  2  4 0.82516281D+03 0.00000000D+00  -5  6  0 0.00000000D+00 0.00000000D+00 0.00000000D+00 0.00000000D+00 0.00000000D+00
  <mgrwgt>
 0.9151888593D-06    6    2    0
 0.116255326660278D+04 0.000000000000000D+00 0.000000000000000D+00 0.116255326660278D+04
 0.116255326660278D+04 0.000000000000000D+00 0.000000000000000D+00 -.116255326660278D+04
 0.112974416019937D+04 0.450849435929174D+03 -.547957364771853D+03 -.870157675377980D+03
 0.113478844366656D+04 -.435385614930371D+03 0.604747486963544D+03 0.855841489530711D+03
 0.605739293396407D+02 -.154638209988030D+02 -.567901221916911D+02 0.143161858472686D+02
 0.000000000000000D+00 0.000000000000000D+00 -.000000000000000D+00 -.000000000000000D+00
 0.149479164262412D+04 0.000000000000000D+00 0.000000000000000D+00 0.149479164262412D+04
 0.188529658627572D+04 0.000000000000000D+00 0.000000000000000D+00 -.188529658627572D+04
 0.960539730169463D+03 0.144446168251188D+03 -.359127411502331D+03 -.870157675377980D+03
 0.144827427537749D+04 -.814022632313033D+03 0.838093595966597D+03 0.855841489530711D+03
 0.583734738039473D+02 -.328996693890306D+02 -.460447719162453D+02 0.143161858472686D+02
 0.912900749548935D+03 0.702476133450875D+03 -.432921412548021D+03 -.390504943651603D+03
0.419656226475D-05 0.000000000000D+00 0.000000000000D+00 0.295834044579D-08 0.000000000000D+00  6 3 1 25 3 1 21 0 0.12039734D+00 0.26569422D+00 0.58106164D+06 0.58106164D+06 0.58106164D+06 0.10639291D+01  1  2  2  2  6  2        1 0.769793608336D-06 0.100000000000D+01
0.940065384202D-06 0.000000000000D+00 -.161159040769D-07 0.295834044579D-08 0.000000000000D+00  6 3 1 25 3 1 21 2 0.12039734D+00 0.26569422D+00 0.58106164D+06 0.58106164D+06 0.58106164D+06 0.10639291D+01  1  2  3  2  6  2        1 0.195192905597D-06 0.100000000000D+01
-.288698064755D-05 0.000000000000D+00 0.000000000000D+00 0.295834044579D-08 0.000000000000D+00  6 3 1 25 3 1 21 2 0.12039734D+00 0.26569422D+00 0.58106164D+06 0.58106164D+06 0.58106164D+06 0.10639291D+01  1  2 15  2  6  2        1 -.599445687999D-06 0.100000000000D+01
-.187722921839D-05 0.000000000000D+00 -.206620051103D-05 0.295834044579D-08 0.000000000000D+00  6 3 1 25 3 1 21 2 0.12039734D+00 0.46952930D+00 0.58106164D+06 0.58106164D+06 0.58106164D+06 0.10639291D+01  1  2  5  2  6  2        1 -.463442434006D-07 0.100000000000D+01
0.287061704144D-05 0.000000000000D+00 0.177124197422D-05 0.295834044579D-08 0.000000000000D+00  6 3 1 25 3 1 21 2 0.12039734D+00 0.26569422D+00 0.58106164D+06 0.58106164D+06 0.58106164D+06 0.10639291D+01  1  2  6  2  6  2        1 0.596047988354D-06 0.100000000000D+01
-.110705500265D-07 0.000000000000D+00 -.129604330529D-06 0.295834044579D-08 0.000000000000D+00  6 3 21 25 3 1 -1 2 0.12039734D+00 0.46952930D+00 0.58106164D+06 0.58106164D+06 0.58106164D+06 0.10639291D+01  1  2  5  6  6  2        1 -.557115578746D-10 0.100000000000D+01
  </mgrwgt>
  </event>
  <event>
  5     66 0.20977079E-05 0.89903299E+02 0.75467711E-02 0.92402312E-01
        3 -1    0    0  501    0 0.00000000E+00 0.00000000E+00 0.17730556E+03 0.17730626E+03 0.50000000E+00 0.0000E+00 0.9000E+01
        1 -1    0    0  502    0 -.00000000E+00 -.00000000E+00 -.33623420E+04 0.33623420E+04 0.32000000E+00 0.0000E+00 0.9000E+01
       25  1    1    2    0    0 -.48268078E+03 -.97913428E+01 -.10635533E+04 0.11746690E+04 0.12500000E+03 0.0000E+00 0.9000E+01
        3  1    1    2  501    0 -.82793532E+02 0.35186817E+02 0.62040039E+02 0.10927990E+03 0.50000000E+00 0.0000E+00 0.9000E+01
        1  1    1    2  502    0 0.56547431E+03 -.25395475E+02 -.21835231E+04 0.22556993E+04 0.32000000E+00 0.0000E+00 0.9000E+01
#aMCatNLO 1  0  0  4  4 0.56556943D+02 0.00000000D+00  -5  6  0 0.00000000D+00 0.00000000D+00 0.00000000D+00 0.00000000D+00 0.00000000D+00
  <mgrwgt>
 0.6975960480D-03    6    2    0
 0.772116045501600D+03 0.000000000000000D+00 0.000000000000000D+00 0.772116045501600D+03
 0.772116045501600D+03 -.000000000000000D+00 -.000000000000000D+00 -.772116045501600D+03
 0.499116534905295D+03 -.482880044032645D+03 -.977406577951298D+01 -.149548028752623D+02
 0.378207704539617D+03 -.827409416368139D+02 0.351644666989991D+02 0.367366934592587D+03
 0.666907851558288D+03 0.565620985669459D+03 -.253904009194861D+02 -.352412131717325D+03
 0.000000000000000D+00 0.000000000000000D+00 0.000000000000000D+00 0.000000000000000D+00
 0.772116045501600D+03 0.000000000000000D+00 0.000000000000000D+00 0.772116045501600D+03
 0.772116045501600D+03 -.000000000000000D+00 -.000000000000000D+00 -.772116045501600D+03
 0.500579307020329D+03 -.484580078578840D+03 -.905156000420746D+01 -.740670797106788D+01
 0.286940929435053D+03 -.114100065776633D+03 0.422048854382938D+02 0.259875007686312D+03
 0.659705873828854D+03 0.563365010333730D+03 -.244316232213159D+02 -.342395678831874D+03
 0.970059807189637D+02 0.353151340217417D+02 -.872170221277047D+01 0.899273791166302D+02
0.253575711885D-02 0.000000000000D+00 0.000000000000D+00 0.637001651565D-06 0.000000000000D+00  6 3 1 25 3 1 21 0 0.27277833D-01 0.51728343D+00 0.33349835D+06 0.33349835D+06 0.33349835D+06 0.10811669D+01  1  2  2  3  6  4        3 0.795786491799D-03 0.100000000000D+01
0.506250634490D-03 0.000000000000D+00 -.973797501655D-05 0.637001651565D-06 0.000000000000D+00  6 3 1 25 3 1 21 2 0.27277833D-01 0.51728343D+00 0.33349835D+06 0.33349835D+06 0.33349835D+06 0.10811669D+01  1  2  3  3  6  4        3 0.185712010255D-03 0.100000000000D+01
-.177431945289D-02 0.000000000000D+00 0.000000000000D+00 0.637001651565D-06 0.000000000000D+00  6 3 1 25 3 1 21 2 0.27277833D-01 0.51728343D+00 0.33349835D+06 0.33349835D+06 0.33349835D+06 0.10811669D+01  1  2 15  3  6  4        3 -.650887939652D-03 0.100000000000D+01
-.126124446949D-02 0.000000000000D+00 0.000000000000D+00 0.637001651565D-06 0.000000000000D+00  6 3 1 25 3 1 21 2 0.27277833D-01 0.51728343D+00 0.33349835D+06 0.33349835D+06 0.33349835D+06 0.10811669D+01  1  2  4  3  6  4        3 -.462672498354D-03 0.100000000000D+01
-.767244565632D-02 0.000000000000D+00 0.000000000000D+00 0.637001651565D-06 0.000000000000D+00  6 3 1 25 3 1 21 2 0.27277833D-01 0.51728343D+00 0.33349835D+06 0.33349835D+06 0.33349835D+06 0.10811669D+01  1  2  5  3  6  4        3 -.281454522590D-02 0.100000000000D+01
0.993409195587D-02 0.000000000000D+00 -.000000000000D+00 0.637001651565D-06 0.000000000000D+00  6 3 1 25 3 1 21 2 0.27277833D-01 0.51728343D+00 0.33349835D+06 0.33349835D+06 0.33349835D+06 0.10811669D+01  1  2  6  3  6  4        3 0.364420320983D-02 0.100000000000D+01
  </mgrwgt>
  </event>
  <event>
  6     66 0.20977079E-05 0.11780430E+03 0.75467711E-02 0.94892096E-01
        3 -1    0    0  501    0 0.00000000E+00 0.00000000E+00 0.10378352E+04 0.10378353E+04 0.50000000E+00 0.0000E+00 0.9000E+01
        1 -1    0    0  502    0 0.00000000E+00 0.00000000E+00 -.54385588E+03 0.54385598E+03 0.32000000E+00 0.0000E+00 0.9000E+01
       25  1    1    2    0    0 0.46659502E+03 0.10430204E+03 0.30065428E+03 0.57845296E+03 0.12500000E+03 0.0000E+00 0.9000E+01
        3  1    1    2  501    0 -.34408821E+03 -.10593736E+03 0.53180043E+03 0.64220820E+03 0.50000000E+00 0.0000E+00 0.9000E+01
        1  1    1    2  503    0 -.10931370E+03 0.36610722E+01 -.27093516E+03 0.29217948E+03 0.32000000E+00 0.0000E+00 0.9000E+01
       21  1    1    2  502  503 -.13193117E+02 -.20257525E+01 -.67540256E+02 0.68850640E+02 0.75000000E+00 0.0000E+00 0.9000E+01
#aMCatNLO 2  0  0  5  2 0.10906960D+02 0.00000000D+00  -5  6  0 0.00000000D+00 0.00000000D+00 0.00000000D+00 0.00000000D+00 0.00000000D+00
  <mgrwgt>
 0.1205529739D-02    2    2    0
 0.751287521110612D+03 0.000000000000000D+00 0.000000000000000D+00 0.751287521110612D+03
 0.751287521110612D+03 -.000000000000000D+00 -.000000000000000D+00 -.751287521110612D+03
 0.510194136896254D+03 0.466620605658305D+03 0.104280070536957D+03 0.126743578090556D+03
 0.501217501889134D+03 -.343951973327717D+03 -.105916283374171D+03 0.348852067730944D+03
 0.491163403435838D+03 -.122668632330588D+03 0.163621283721343D+01 -.475595645821500D+03
 0.000000000000000D+00 0.000000000000000D+00 0.000000000000000D+00 -.000000000000000D+00
 0.751287521110612D+03 0.000000000000000D+00 0.000000000000000D+00 0.751287521110612D+03
 0.751287521110612D+03 -.000000000000000D+00 -.000000000000000D+00 -.751287521110612D+03
 0.510070099009667D+03 0.466554424162734D+03 0.104280953297371D+03 0.126486987383299D+03
 0.501086539835556D+03 -.344016989799102D+03 -.105915416153406D+03 0.348599993911338D+03
 0.396743573191969D+03 -.109362465980924D+03 0.366442992895118D+01 -.381355327558169D+03
 0.946748301840332D+02 -.131749683827073D+02 -.202996707291610D+01 -.937316537364676D+02
-.941419121861D-03 0.000000000000D+00 0.000000000000D+00 0.142527197900D-05 0.000000000000D+00  6 3 1 25 3 1 21 2 0.15966697D+00 0.83670152D-01 0.23855650D+06 0.23855650D+06 0.23855650D+06 0.10919932D+01  1  2 13  4  6  5        1 -.816277205153D-03 0.100000000000D+01
0.233176634866D-02 0.000000000000D+00 0.000000000000D+00 0.142527197900D-05 0.160197105021D-06  6 3 1 25 3 1 21 2 0.15966697D+00 0.83670152D-01 0.23855650D+06 0.23855650D+06 0.23855650D+06 0.10919932D+01  1  2  1  4  6  5        1 0.202180694439D-02 0.100000000000D+01
  </mgrwgt>
  </event>
  <event>
  5     66 0.20977079E-05 0.23312682E+03 0.75467711E-02 0.92276831E-01
        3 -1    0    0  501    0 0.00000000E+00 0.00000000E+00 0.32489536E+03 0.32489574E+03 0.50000000E+00 0.0000E+00 0.9000E+01
        1 -1    0    0  502    0 -.00000000E+00 -.00000000E+00 -.26379897E+04 0.26379897E+04 0.32000000E+00 0.0000E+00 0.9000E+01
       25  1    1    2    0    0 -.43290767E+03 0.42213967E+03 -.76888682E+03 0.98611506E+03 0.12500000E+03 0.0000E+00 0.9000E+01
        3  1    1    2  501    0 0.25740686E+03 -.26879311E+03 0.41094462E+02 0.37442894E+03 0.50000000E+00 0.0000E+00 0.9000E+01
        1  1    1    2  502    0 0.17550081E+03 -.15334656E+03 -.15853019E+04 0.16023414E+04 0.32000000E+00 0.0000E+00 0.9000E+01
#aMCatNLO 1  0  0  5  2 0.60231607D+02 0.00000000D+00  -5  6  0 0.00000000D+00 0.00000000D+00 0.00000000D+00 0.00000000D+00 0.00000000D+00
  <mgrwgt>
 0.5011600158D-04    7    2    0
 0.925781396861640D+03 0.000000000000000D+00 0.000000000000000D+00 0.925781396861640D+03
 0.925781396861640D+03 -.000000000000000D+00 -.000000000000000D+00 -.925781396861640D+03
 0.617439889466025D+03 -.432907196542475D+03 0.422131790781355D+03 0.176847314877595D+01
 0.650370146748374D+03 0.257354735050676D+03 -.268738682100319D+03 0.533412962789133D+03
 0.583752757508883D+03 0.175552461491799D+03 -.153393108681035D+03 -.535181435937909D+03
 0.000000000000000D+00 0.000000000000000D+00 0.000000000000000D+00 0.000000000000000D+00
 0.925781396861640D+03 0.000000000000000D+00 0.000000000000000D+00 0.925781396861640D+03
 0.925781396861640D+03 -.000000000000000D+00 -.000000000000000D+00 -.925781396861640D+03
 0.615530307793387D+03 -.431433819780070D+03 0.420844393043247D+03 -.272319780064296D+01
 0.647680501378058D+03 0.258905881757730D+03 -.270094033164004D+03 0.528684205841055D+03
 0.404516819773942D+03 0.632022925096721D+02 -.116462514409923D+03 -.382198653109694D+03
 0.183835164777893D+03 0.109325645512668D+03 -.342878454693201D+02 -.143762354930718D+03
0.257351754815D-04 0.000000000000D+00 0.000000000000D+00 0.393169582033D-06 0.000000000000D+00  6 3 1 25 3 1 21 0 0.49983933D-01 0.40584459D+00 0.37372160D+06 0.37372160D+06 0.37372160D+06 0.10775616D+01  1  2  2  4  6  5        1 0.861620348743D-05 0.100000000000D+01
0.227306458061D-05 0.000000000000D+00 -.988298500764D-07 0.393169582033D-06 0.000000000000D+00  6 3 1 25 3 1 21 2 0.49983933D-01 0.40584459D+00 0.37372160D+06 0.37372160D+06 0.37372160D+06 0.10775616D+01  1  2  3  4  6  5        1 0.883659165751D-06 0.100000000000D+01
-.173427776566D-04 0.000000000000D+00 0.000000000000D+00 0.393169582033D-06 0.000000000000D+00  6 3 1 25 3 1 21 2 0.49983933D-01 0.40584459D+00 0.37372160D+06 0.37372160D+06 0.37372160D+06 0.10775616D+01  1  2 15  4  6  5        1 -.674204532793D-05 0.100000000000D+01
0.117469316295D-03 0.000000000000D+00 0.000000000000D+00 0.393169582033D-06 0.000000000000D+00  6 3 1 25 3 1 21 2 0.49983933D-01 0.40584459D+00 0.38238798D+06 0.38238798D+06 0.38238798D+06 0.10768402D+01  1  2 12  4  6  5        1 0.455404010287D-04 0.100000000000D+01
-.550002583432D-04 0.000000000000D+00 0.000000000000D+00 0.393169582033D-06 0.000000000000D+00  6 3 1 25 3 1 21 2 0.49983933D-01 0.40584459D+00 0.37372160D+06 0.37372160D+06 0.37372160D+06 0.10775616D+01  1  2  4  4  6  5        1 -.213814789154D-04 0.100000000000D+01
-.165234893236D-03 0.000000000000D+00 0.000000000000D+00 0.393169582033D-06 0.000000000000D+00  6 3 1 25 3 1 21 2 0.49983933D-01 0.40584459D+00 0.37372160D+06 0.37372160D+06 0.37372160D+06 0.10775616D+01  1  2  5  4  6  5        1 -.642354507458D-04 0.100000000000D+01
0.224911093190D-03 0.000000000000D+00 -.000000000000D+00 0.393169582033D-06 0.000000000000D+00  6 3 1 25 3 1 21 2 0.49983933D-01 0.40584459D+00 0.37372160D+06 0.37372160D+06 0.37372160D+06 0.10775616D+01  1  2  6  4  6  5        1 0.874347128857D-04 0.100000000000D+01
  </mgrwgt>
  </event>
</LesHouchesEvents>
