<event>
 5    0  0.2159162E+000  0.2639811E+03  0.7546771E-02  0.1104775E+00
         21   -1    0    0  502  501  0.00000000000E+00  0.00000000000E+00  0.30125372683E+03  0.30125372683E+03  0.00000000000E+00 0.  1.
         21   -1    0    0  503  502 -0.00000000000E+00 -0.00000000000E+00 -0.27250315946E+03  0.27250315946E+03  0.00000000000E+00 0. -1.
         25    1    1    2    0    0  0.10949603760E+03  0.20511376132E+03  0.15404146934E+03  0.30563836737E+03  0.12500000000E+03 0.  0.
         21    1    1    2  503  504 -0.48841983407E+02 -0.51000472309E+02 -0.47758853922E+02  0.85249607898E+02  0.00000000000E+00 0. -1.
         21    1    1    2  504  501 -0.60654054195E+02 -0.15411328901E+03 -0.77532048050E+02  0.18286891101E+03  0.00000000000E+00 0. -1.
<mgrwt>
<rscale>  4 0.26398113E+03</rscale>
<asrwt>0</asrwt>
<pdfrwt beam="1">  1       21 0.46346727E-01 0.26398113E+03</pdfrwt>
<pdfrwt beam="2">  1       21 0.41923563E-01 0.26398113E+03</pdfrwt>
<totfact> 0.23548446E+04</totfact>
</mgrwt>
</event>
<event>
 5    0  0.2895510E+000  0.2566000E+03  0.7546771E-02  0.1109203E+00
         21   -1    0    0  502  501  0.00000000000E+00  0.00000000000E+00  0.12162918850E+04  0.12162918850E+04  0.00000000000E+00 0.  1.
         21   -1    0    0  503  502 -0.00000000000E+00 -0.00000000000E+00 -0.55241644879E+02  0.55241644879E+02  0.00000000000E+00 0.  1.
         25    1    1    2    0    0  0.77194599889E+02  0.21037957688E+03  0.79943379679E+03  0.83960584090E+03  0.12500000000E+03 0.  0.
         21    1    1    2  503  504  0.14097541357E+02 -0.27699306669E+02  0.61655321613E+02  0.69046150837E+02  0.00000000000E+00 0.  1.
         21    1    1    2  504  501 -0.91292141246E+02 -0.18268027021E+03  0.29996112168E+03  0.36288153810E+03  0.00000000000E+00 0.  1.
<mgrwt>
<rscale>  4 0.25660002E+03</rscale>
<asrwt>0</asrwt>
<pdfrwt beam="1">  1       21 0.18712181E+00 0.25660002E+03</pdfrwt>
<pdfrwt beam="2">  1       21 0.84987155E-02 0.25660002E+03</pdfrwt>
<totfact> 0.16857972E+04</totfact>
</mgrwt>
</event>
<event>
 5    0  0.2159162E+000  0.2111870E+03  0.7546771E-02  0.1140629E+00
         21   -1    0    0  502  501  0.00000000000E+00  0.00000000000E+00  0.24369789826E+03  0.24369789826E+03  0.00000000000E+00 0. -1.
         21   -1    0    0  503  502 -0.00000000000E+00 -0.00000000000E+00 -0.29543713503E+03  0.29543713503E+03  0.00000000000E+00 0.  1.
         25    1    1    2    0    0  0.20207744116E+03  0.62392689442E+02  0.82878613676E+02  0.25927206662E+03  0.12500000000E+03 0.  0.
         21    1    1    2  503  504 -0.61377093081E+02  0.18313848235E+02  0.71347319358E+01  0.64447257444E+02  0.00000000000E+00 0.  1.
         21    1    1    2  504  501 -0.14070034808E+03 -0.80706537678E+02 -0.14175258238E+03  0.21541570924E+03  0.00000000000E+00 0.  1.
<mgrwt>
<rscale>  4 0.21118695E+03</rscale>
<asrwt>0</asrwt>
<pdfrwt beam="1">  1       21 0.37491984E-01 0.21118695E+03</pdfrwt>
<pdfrwt beam="2">  1       21 0.45451867E-01 0.21118695E+03</pdfrwt>
<totfact> 0.31536206E+04</totfact>
</mgrwt>
</event>
<event>
 5    0  0.2159162E+000  0.2386866E+03  0.7546771E-02  0.1120671E+00
         21   -1    0    0  502  501  0.00000000000E+00  0.00000000000E+00  0.91560933444E+03  0.91560933444E+03  0.00000000000E+00 0. -1.
         21   -1    0    0  503  502 -0.00000000000E+00 -0.00000000000E+00 -0.16877055585E+03  0.16877055585E+03  0.00000000000E+00 0.  1.
         25    1    1    2    0    0 -0.10591746058E+03 -0.18094097895E+03  0.80499806186E+03  0.84119262117E+03  0.12500000000E+03 0.  0.
         21    1    1    2  503  504  0.12345689568E+03  0.11801412501E+03 -0.43321004638E+02  0.17619775320E+03  0.00000000000E+00 0.  1.
         21    1    1    2  504  501 -0.17539435099E+02  0.62926853943E+02 -0.14838278621E+02  0.66989515920E+02  0.00000000000E+00 0.  1.
<mgrwt>
<rscale>  4 0.23868662E+03</rscale>
<asrwt>0</asrwt>
<pdfrwt beam="1">  1       21 0.14086297E+00 0.23868662E+03</pdfrwt>
<pdfrwt beam="2">  1       21 0.25964701E-01 0.23868662E+03</pdfrwt>
<totfact> 0.47886070E+03</totfact>
</mgrwt>
</event>
<event>
 5    0  0.2159162E+000  0.1758533E+03  0.7546771E-02  0.1171878E+00
         21   -1    0    0  502  501  0.00000000000E+00  0.00000000000E+00  0.43122704130E+03  0.43122704130E+03  0.00000000000E+00 0.  1.
         21   -1    0    0  503  502 -0.00000000000E+00 -0.00000000000E+00 -0.19484654066E+03  0.19484654066E+03  0.00000000000E+00 0.  1.
         25    1    1    2    0    0  0.72106852557E+02  0.19582623578E+03  0.22683471428E+03  0.33260532228E+03  0.12500000000E+03 0.  0.
         21    1    1    2  503  504 -0.68712966918E+02 -0.93371171508E+02 -0.92886329317E+02  0.14855139739E+03  0.00000000000E+00 0.  1.
         21    1    1    2  504  501 -0.33938856393E+01 -0.10245506427E+03  0.10243211568E+03  0.14491686230E+03  0.00000000000E+00 0.  1.
<mgrwt>
<rscale>  4 0.17585325E+03</rscale>
<asrwt>0</asrwt>
<pdfrwt beam="1">  1       21 0.66342621E-01 0.17585325E+03</pdfrwt>
<pdfrwt beam="2">  1       21 0.29976391E-01 0.17585325E+03</pdfrwt>
<totfact> 0.22468013E+04</totfact>
</mgrwt>
</event>
<event>
 5    0  0.2159162E+000  0.4187069E+03  0.7546771E-02  0.1037488E+00
         21   -1    0    0  502  501  0.00000000000E+00  0.00000000000E+00  0.25385630971E+03  0.25385630971E+03  0.00000000000E+00 0.  1.
         21   -1    0    0  503  502 -0.00000000000E+00 -0.00000000000E+00 -0.68310676131E+03  0.68310676131E+03  0.00000000000E+00 0.  1.
         25    1    1    2    0    0  0.46215960710E+02  0.39693144051E+03 -0.14366394472E+03  0.44266783541E+03  0.12500000000E+03 0.  0.
         21    1    1    2  503  504 -0.31019670235E+02 -0.37500046365E+03 -0.27241322375E+03  0.46453905342E+03  0.00000000000E+00 0.  1.
         21    1    1    2  504  501 -0.15196290475E+02 -0.21930976859E+02 -0.13173283122E+02  0.29756182188E+02  0.00000000000E+00 0. -1.
<mgrwt>
<rscale>  4 0.41870692E+03</rscale>
<asrwt>0</asrwt>
<pdfrwt beam="1">  1       21 0.39054817E-01 0.41870692E+03</pdfrwt>
<pdfrwt beam="2">  1       21 0.10509335E+00 0.41870692E+03</pdfrwt>
<totfact> 0.40731024E+03</totfact>
</mgrwt>
</event>
<event>
 5    0  0.2159162E+000  0.4275970E+03  0.7546771E-02  0.1034622E+00
         21   -1    0    0  502  501  0.00000000000E+00  0.00000000000E+00  0.10481763739E+04  0.10481763739E+04  0.00000000000E+00 0.  1.
         21   -1    0    0  503  502 -0.00000000000E+00 -0.00000000000E+00 -0.28302725923E+03  0.28302725923E+03  0.00000000000E+00 0.  1.
         25    1    1    2    0    0 -0.25191113003E+03 -0.32211018317E+03  0.79854601749E+03  0.90582279149E+03  0.12500000000E+03 0.  0.
         21    1    1    2  503  504  0.19989396440E+03  0.24254623374E+03 -0.72561367726E+02  0.32257003052E+03  0.00000000000E+00 0.  1.
         21    1    1    2  504  501  0.52017165630E+02  0.79563949438E+02  0.39164464892E+02  0.10281081111E+03  0.00000000000E+00 0.  1.
<mgrwt>
<rscale>  4 0.42759699E+03</rscale>
<asrwt>0</asrwt>
<pdfrwt beam="1">  1       21 0.16125790E+00 0.42759699E+03</pdfrwt>
<pdfrwt beam="2">  1       21 0.43542656E-01 0.42759699E+03</pdfrwt>
<totfact> 0.10643028E+03</totfact>
</mgrwt>
</event>
<event>
 5    0  0.2411851E+000  0.2602723E+03  0.7546771E-02  0.1106980E+00
         21   -1    0    0  502  501  0.00000000000E+00  0.00000000000E+00  0.28658464658E+02  0.28658464658E+02  0.00000000000E+00 0. -1.
         21   -1    0    0  503  502 -0.00000000000E+00 -0.00000000000E+00 -0.23657639360E+04  0.23657639360E+04  0.00000000000E+00 0. -1.
         25    1    1    2    0    0 -0.19592998209E+02 -0.22744843051E+03 -0.88767119744E+03  0.92504152819E+03  0.12500000000E+03 0.  0.
         21    1    1    2  503  504  0.43858174570E+02  0.16761025145E+03 -0.93569934485E+03  0.95160390911E+03  0.00000000000E+00 0. -1.
         21    1    1    2  504  501 -0.24265176361E+02  0.59838179063E+02 -0.51373492904E+03  0.51777696335E+03  0.00000000000E+00 0. -1.
<mgrwt>
<rscale>  4 0.26027231E+03</rscale>
<asrwt>0</asrwt>
<pdfrwt beam="1">  1       21 0.44089956E-02 0.26027231E+03</pdfrwt>
<pdfrwt beam="2">  1       21 0.36396360E+00 0.26027231E+03</pdfrwt>
<totfact> 0.44546712E+03</totfact>
</mgrwt>
</event>
<event>
 5    0  0.2159162E+000  0.8415285E+03  0.7546771E-02  0.9502375E-01
         21   -1    0    0  502  501  0.00000000000E+00  0.00000000000E+00  0.60625562236E+03  0.60625562236E+03  0.00000000000E+00 0. -1.
         21   -1    0    0  503  502 -0.00000000000E+00 -0.00000000000E+00 -0.11705531261E+04  0.11705531261E+04  0.00000000000E+00 0. -1.
         25    1    1    2    0    0  0.41899414661E+03  0.71696430432E+03 -0.33923759528E+03  0.90570472817E+03  0.12500000000E+03 0.  0.
         21    1    1    2  503  504 -0.42113961727E+03 -0.66779162618E+03 -0.19426794921E+03  0.81304628978E+03  0.00000000000E+00 0. -1.
         21    1    1    2  504  501  0.21454706580E+01 -0.49172678143E+02 -0.30791959254E+02  0.58057730534E+02  0.00000000000E+00 0.  1.
<mgrwt>
<rscale>  4 0.84108933E+03</rscale>
<asrwt>0</asrwt>
<pdfrwt beam="1">  1       21 0.93270096E-01 0.84152852E+03</pdfrwt>
<pdfrwt beam="2">  1       21 0.18008510E+00 0.84152852E+03</pdfrwt>
<totfact> 0.12189062E+02</totfact>
</mgrwt>
</event>
<event>
 5    0  0.2159162E+000  0.2556449E+03  0.7546771E-02  0.1109788E+00
         21   -1    0    0  502  501  0.00000000000E+00  0.00000000000E+00  0.56445876883E+02  0.56445876883E+02  0.00000000000E+00 0. -1.
         21   -1    0    0  503  502 -0.00000000000E+00 -0.00000000000E+00 -0.10830250272E+04  0.10830250272E+04  0.00000000000E+00 0. -1.
         25    1    1    2    0    0  0.50258018359E+02 -0.21726354824E+03 -0.43408630086E+03  0.50377101386E+03  0.12500000000E+03 0.  0.
         21    1    1    2  503  504 -0.48186257978E+02  0.15033397230E+03 -0.47396676856E+03  0.49956652849E+03  0.00000000000E+00 0. -1.
         21    1    1    2  504  501 -0.20717603803E+01  0.66929575938E+02 -0.11852608089E+03  0.13613336173E+03  0.00000000000E+00 0. -1.
<mgrwt>
<rscale>  4 0.25564491E+03</rscale>
<asrwt>0</asrwt>
<pdfrwt beam="1">  1       21 0.86839814E-02 0.25564491E+03</pdfrwt>
<pdfrwt beam="2">  1       21 0.16661923E+00 0.25564491E+03</pdfrwt>
<totfact> 0.22558055E+04</totfact>
</mgrwt>
</event>
<event>
 5    0  0.2181152E+000  0.2743707E+03  0.7546771E-02  0.1098804E+00
         21   -1    0    0  502  501  0.00000000000E+00  0.00000000000E+00  0.24033186915E+03  0.24033186915E+03  0.00000000000E+00 0.  1.
         21   -1    0    0  503  502 -0.00000000000E+00 -0.00000000000E+00 -0.35030288719E+03  0.35030288719E+03  0.00000000000E+00 0.  1.
         25    1    1    2    0    0 -0.46554739089E+02  0.23976436510E+03 -0.18369807610E+03  0.33018824581E+03  0.12500000000E+03 0.  0.
         21    1    1    2  503  504 -0.89205015986E+01 -0.35598114802E+02  0.95237989464E+00  0.36711144816E+02  0.00000000000E+00 0.  1.
         21    1    1    2  504  501  0.55475240687E+02 -0.20416625030E+03  0.72774678172E+02  0.22373536572E+03  0.00000000000E+00 0.  1.
<mgrwt>
<rscale>  4 0.27437072E+03</rscale>
<asrwt>0</asrwt>
<pdfrwt beam="1">  1       21 0.36974134E-01 0.27437072E+03</pdfrwt>
<pdfrwt beam="2">  1       21 0.53892752E-01 0.27437072E+03</pdfrwt>
<totfact> 0.22036117E+04</totfact>
</mgrwt>
</event>
<event>
 5    0  0.2159162E+000  0.2814966E+03  0.7546771E-02  0.1094874E+00
         21   -1    0    0  502  501  0.00000000000E+00  0.00000000000E+00  0.18455543435E+03  0.18455543435E+03  0.00000000000E+00 0. -1.
         21   -1    0    0  503  502 -0.00000000000E+00 -0.00000000000E+00 -0.61608756027E+03  0.61608756027E+03  0.00000000000E+00 0. -1.
         25    1    1    2    0    0 -0.17511284103E+03 -0.18152365591E+03  0.17720342488E+02  0.28205381630E+03  0.12500000000E+03 0.  0.
         21    1    1    2  503  504  0.87765146593E+02  0.65509156189E+02 -0.14752125679E+03  0.18372994232E+03  0.00000000000E+00 0. -1.
         21    1    1    2  504  501  0.87347694440E+02  0.11601449972E+03 -0.30173121162E+03  0.33485923600E+03  0.00000000000E+00 0. -1.
<mgrwt>
<rscale>  4 0.28149662E+03</rscale>
<asrwt>0</asrwt>
<pdfrwt beam="1">  1       21 0.28393144E-01 0.28149662E+03</pdfrwt>
<pdfrwt beam="2">  1       21 0.94782701E-01 0.28149662E+03</pdfrwt>
<totfact> 0.10480447E+04</totfact>
</mgrwt>
</event>
<event>
 5    0  0.2159162E+000  0.2894419E+03  0.7546771E-02  0.1090641E+00
         21   -1    0    0  502  501  0.00000000000E+00  0.00000000000E+00  0.85669226577E+03  0.85669226577E+03  0.00000000000E+00 0.  1.
         21   -1    0    0  503  502 -0.00000000000E+00 -0.00000000000E+00 -0.15563195774E+04  0.15563195774E+04  0.00000000000E+00 0.  1.
         25    1    1    2    0    0 -0.25701754670E+03 -0.45415890112E+02  0.81825839657E+03  0.86792420519E+03  0.12500000000E+03 0.  0.
         21    1    1    2  503  504  0.26436243898E+03  0.23365182637E+02 -0.13912837632E+04  0.14163699872E+04  0.00000000000E+00 0.  1.
         21    1    1    2  504  501 -0.73448922797E+01  0.22050707475E+02 -0.12660194499E+03  0.12871765076E+03  0.00000000000E+00 0. -1.
<mgrwt>
<rscale>  4 0.28944187E+03</rscale>
<asrwt>0</asrwt>
<pdfrwt beam="1">  1       21 0.13179881E+00 0.28944187E+03</pdfrwt>
<pdfrwt beam="2">  1       21 0.23943378E+00 0.28944187E+03</pdfrwt>
<totfact> 0.28049306E+01</totfact>
</mgrwt>
</event>
<event>
 5    0  0.2159162E+000  0.2977829E+03  0.7546771E-02  0.1086354E+00
         21   -1    0    0  502  501  0.00000000000E+00  0.00000000000E+00  0.27817212778E+03  0.27817212778E+03  0.00000000000E+00 0.  1.
         21   -1    0    0  503  502 -0.00000000000E+00 -0.00000000000E+00 -0.85876025427E+03  0.85876025427E+03  0.00000000000E+00 0. -1.
         25    1    1    2    0    0 -0.21174529957E+03 -0.16796892861E+03  0.16597882968E+03  0.34091583239E+03  0.12500000000E+03 0.  0.
         21    1    1    2  503  504  0.35467821503E+02  0.25548920776E+02 -0.70230660664E+02  0.82722786536E+02  0.00000000000E+00 0. -1.
         21    1    1    2  504  501  0.17627747807E+03  0.14242000784E+03 -0.67633629551E+03  0.71329376313E+03  0.00000000000E+00 0. -1.
<mgrwt>
<rscale>  4 0.29778286E+03</rscale>
<asrwt>0</asrwt>
<pdfrwt beam="1">  1       21 0.42795712E-01 0.29778286E+03</pdfrwt>
<pdfrwt beam="2">  1       21 0.13211696E+00 0.29778286E+03</pdfrwt>
<totfact> 0.20124296E+03</totfact>
</mgrwt>
</event>
<event>
 5    0  0.2159162E+000  0.4418963E+03  0.7546771E-02  0.1030167E+00
         21   -1    0    0  502  501  0.00000000000E+00  0.00000000000E+00  0.40840175954E+03  0.40840175954E+03  0.00000000000E+00 0. -1.
         21   -1    0    0  503  502 -0.00000000000E+00 -0.00000000000E+00 -0.48541011089E+03  0.48541011089E+03  0.00000000000E+00 0. -1.
         25    1    1    2    0    0  0.29723685825E+03 -0.30215492428E+03 -0.12842870051E+03  0.46018070286E+03  0.12500000000E+03 0.  0.
         21    1    1    2  503  504 -0.25026940653E+03  0.22052274174E+03  0.60531963929E+02  0.33901205602E+03  0.00000000000E+00 0. -1.
         21    1    1    2  504  501 -0.46967451726E+02  0.81632182538E+02 -0.91116147717E+01  0.94619111554E+02  0.00000000000E+00 0. -1.
<mgrwt>
<rscale>  4 0.44189631E+03</rscale>
<asrwt>0</asrwt>
<pdfrwt beam="1">  1       21 0.62831040E-01 0.44189631E+03</pdfrwt>
<pdfrwt beam="2">  1       21 0.74678478E-01 0.44189631E+03</pdfrwt>
<totfact> 0.32952317E+03</totfact>
</mgrwt>
</event>
