<event>
 5    0  0.1911311E+001  0.3012541E+03  0.7546771E-02  0.1084615E+00
         21   -1    0    0  502  501  0.00000000000E+00  0.00000000000E+00  0.10557007924E+04  0.10557007924E+04  0.00000000000E+00 0. -1.
         21   -1    0    0  504  502 -0.00000000000E+00 -0.00000000000E+00 -0.29111851114E+03  0.29111851114E+03  0.00000000000E+00 0. -1.
         25    1    1    2    0    0  0.10618567504E+01 -0.29695707081E+03  0.80393503260E+03  0.86609535623E+03  0.12500000000E+03 0.  0.
         21    1    1    2  503  501 -0.10977346835E+02  0.24981403302E+02  0.14788420463E+03  0.15038055271E+03  0.00000000000E+00 0. -1.
         21    1    1    2  504  503  0.99154900842E+01  0.27197566751E+03 -0.18723695599E+03  0.33034339459E+03  0.00000000000E+00 0. -1.
<mgrwt>
<rscale>  4 0.30125414E+03</rscale>
<asrwt>0</asrwt>
<pdfrwt beam="1">  1       21 0.16241551E+00 0.30125414E+03</pdfrwt>
<pdfrwt beam="2">  1       21 0.44787464E-01 0.30125414E+03</pdfrwt>
<totfact> 0.10551023E+03</totfact>
</mgrwt>
</event>
<event>
 5    0  0.1911311E+001  0.2526124E+03  0.7546771E-02  0.1111665E+00
         21   -1    0    0  504  501  0.00000000000E+00  0.00000000000E+00  0.25021228182E+04  0.25021228182E+04  0.00000000000E+00 0. -1.
         21   -1    0    0  503  502 -0.00000000000E+00 -0.00000000000E+00 -0.53581570950E+03  0.53581570950E+03  0.00000000000E+00 0.  1.
         25    1    1    2    0    0 -0.29224602714E+03 -0.38607541364E+02  0.54630061500E+03  0.63322006016E+03  0.12500000000E+03 0.  0.
         21    1    1    2  503  501  0.21652723914E+03  0.31479376166E+01 -0.46757471762E+03  0.51528639741E+03  0.00000000000E+00 0.  1.
         21    1    1    2  504  502  0.75718788009E+02  0.35459603748E+02  0.18875812113E+04  0.18894320701E+04  0.00000000000E+00 0. -1.
<mgrwt>
<rscale>  4 0.25261236E+03</rscale>
<asrwt>0</asrwt>
<pdfrwt beam="1">  1       21 0.38494197E+00 0.25261236E+03</pdfrwt>
<pdfrwt beam="2">  1       21 0.82433187E-01 0.25261236E+03</pdfrwt>
<totfact> 0.12446556E+01</totfact>
</mgrwt>
</event>
<event>
 5    0  0.1911311E+001  0.2541451E+03  0.7546771E-02  0.1110713E+00
         21   -1    0    0  504  501  0.00000000000E+00  0.00000000000E+00  0.17835476739E+03  0.17835476739E+03  0.00000000000E+00 0. -1.
         21   -1    0    0  501  502 -0.00000000000E+00 -0.00000000000E+00 -0.39582878520E+03  0.39582878520E+03  0.00000000000E+00 0. -1.
         25    1    1    2    0    0  0.17905266868E+03  0.13001864740E+03 -0.22958453350E+03  0.34248907260E+03  0.12500000000E+03 0.  0.
         21    1    1    2  503  502 -0.14695226125E+03 -0.72225447596E+02  0.20635970574E+02  0.16503734623E+03  0.00000000000E+00 0. -1.
         21    1    1    2  504  503 -0.32100407425E+02 -0.57793199803E+02 -0.85254548856E+01  0.66657133761E+02  0.00000000000E+00 0.  1.
<mgrwt>
<rscale>  4 0.25414505E+03</rscale>
<asrwt>0</asrwt>
<pdfrwt beam="1">  1       21 0.27439195E-01 0.25414505E+03</pdfrwt>
<pdfrwt beam="2">  1       21 0.60896736E-01 0.25414505E+03</pdfrwt>
<totfact> 0.30844408E+04</totfact>
</mgrwt>
</event>
