<event>
 5    0  0.2822696E+000  0.2672718E+03  0.7546771E-02  0.1102851E+00
         21   -1    0    0  502  501  0.00000000000E+00  0.00000000000E+00  0.11130373345E+03  0.11130373345E+03  0.00000000000E+00 0. -1.
         21   -1    0    0  503  502 -0.00000000000E+00 -0.00000000000E+00 -0.10647125914E+04  0.10647125914E+04  0.00000000000E+00 0.  1.
         25    1    1    2    0    0 -0.23282628819E+03  0.40014465238E+02 -0.96277635771E+02  0.28408382751E+03  0.12500000000E+03 0.  0.
         21    1    1    2  503  504  0.20887411379E+03 -0.57666141837E+02 -0.76667713346E+03  0.79671049089E+03  0.00000000000E+00 0.  1.
         21    1    1    2  504  501  0.23952174400E+02  0.17651676599E+02 -0.90454088714E+02  0.95222006439E+02  0.00000000000E+00 0.  1.
<mgrwt>
<rscale>  4 0.26727184E+03</rscale>
<asrwt>0</asrwt>
<pdfrwt beam="1">  1       21 0.17123651E-01 0.26727184E+03</pdfrwt>
<pdfrwt beam="2">  1       21 0.16380194E+00 0.26727184E+03</pdfrwt>
<totfact> 0.68937839E+03</totfact>
</mgrwt>
</event>
<event>
 5    0  0.1856407E+000  0.3950519E+03  0.7546771E-02  0.1045507E+00
         21   -1    0    0  502  501  0.00000000000E+00  0.00000000000E+00  0.18604880240E+03  0.18604880240E+03  0.00000000000E+00 0. -1.
         21   -1    0    0  503  502 -0.00000000000E+00 -0.00000000000E+00 -0.84521500283E+03  0.84521500283E+03  0.00000000000E+00 0. -1.
         25    1    1    2    0    0  0.34416536280E+03  0.14829427811E+03 -0.44300203996E+03  0.59356279978E+03  0.12500000000E+03 0.  0.
         21    1    1    2  503  504 -0.28134497891E+03 -0.14204279035E+03 -0.19722192079E+03  0.37178977593E+03  0.00000000000E+00 0. -1.
         21    1    1    2  504  501 -0.62820383894E+02 -0.62514877632E+01 -0.18942239685E+02  0.65911229515E+02  0.00000000000E+00 0.  1.
<mgrwt>
<rscale>  4 0.39505188E+03</rscale>
<asrwt>0</asrwt>
<pdfrwt beam="1">  1       21 0.28622892E-01 0.39505188E+03</pdfrwt>
<pdfrwt beam="2">  1       21 0.13003308E+00 0.39505188E+03</pdfrwt>
<totfact> 0.44914631E+03</totfact>
</mgrwt>
</event>
<event>
 5    0  0.1856407E+000  0.5354047E+03  0.7546771E-02  0.1004930E+00
         21   -1    0    0  502  501  0.00000000000E+00  0.00000000000E+00  0.82288446634E+03  0.82288446634E+03  0.00000000000E+00 0.  1.
         21   -1    0    0  503  502 -0.00000000000E+00 -0.00000000000E+00 -0.44785995555E+03  0.44785995555E+03  0.00000000000E+00 0.  1.
         25    1    1    2    0    0  0.31695895577E+03  0.41300147820E+03  0.49162831459E+03  0.72688142110E+03  0.12500000000E+03 0.  0.
         21    1    1    2  503  504 -0.21673248514E+03 -0.35319310060E+03 -0.86341034532E+02  0.42328844855E+03  0.00000000000E+00 0.  1.
         21    1    1    2  504  501 -0.10022647062E+03 -0.59808377595E+02 -0.30262769273E+02  0.12057455224E+03  0.00000000000E+00 0.  1.
<mgrwt>
<rscale>  4 0.53540471E+03</rscale>
<asrwt>0</asrwt>
<pdfrwt beam="1">  1       21 0.12659761E+00 0.53540471E+03</pdfrwt>
<pdfrwt beam="2">  1       21 0.68901532E-01 0.53540471E+03</pdfrwt>
<totfact> 0.72244696E+02</totfact>
</mgrwt>
</event>
<event>
 5    0  0.1858497E+000  0.2916140E+03  0.7546771E-02  0.1090163E+00
         21   -1    0    0  502  501  0.00000000000E+00  0.00000000000E+00  0.46563473872E+03  0.46563473872E+03  0.00000000000E+00 0.  1.
         21   -1    0    0  503  502 -0.00000000000E+00 -0.00000000000E+00 -0.25290799166E+03  0.25290799166E+03  0.00000000000E+00 0.  1.
         25    1    1    2    0    0  0.48077249405E+02  0.25340371833E+03  0.29924603852E+03  0.41436464369E+03  0.12500000000E+03 0.  0.
         21    1    1    2  503  504 -0.82253247310E+02 -0.14358512120E+03 -0.94805909640E+01  0.16574729358E+03  0.00000000000E+00 0.  1.
         21    1    1    2  504  501  0.34175997905E+02 -0.10981859712E+03 -0.77038700501E+02  0.13843079311E+03  0.00000000000E+00 0.  1.
<mgrwt>
<rscale>  4 0.29035688E+03</rscale>
<asrwt>0</asrwt>
<pdfrwt beam="1">  1       21 0.71636113E-01 0.29161399E+03</pdfrwt>
<pdfrwt beam="2">  1       21 0.38908922E-01 0.29161399E+03</pdfrwt>
<totfact> 0.10601127E+04</totfact>
</mgrwt>
</event>
<event>
 5    0  0.1856407E+000  0.3331969E+03  0.7546771E-02  0.1069731E+00
         21   -1    0    0  502  501  0.00000000000E+00  0.00000000000E+00  0.79495727386E+03  0.79495727386E+03  0.00000000000E+00 0. -1.
         21   -1    0    0  503  502 -0.00000000000E+00 -0.00000000000E+00 -0.27316697099E+03  0.27316697099E+03  0.00000000000E+00 0. -1.
         25    1    1    2    0    0  0.49517346787E+02 -0.31280243652E+03  0.62405168052E+03  0.71088876196E+03  0.12500000000E+03 0.  0.
         21    1    1    2  503  504  0.18704292284E+02  0.49875897763E+02  0.23111070110E+02  0.58065284716E+02  0.00000000000E+00 0. -1.
         21    1    1    2  504  501 -0.68221639071E+02  0.26292653876E+03 -0.12537244776E+03  0.29917019818E+03  0.00000000000E+00 0. -1.
<mgrwt>
<rscale>  4 0.33319695E+03</rscale>
<asrwt>0</asrwt>
<pdfrwt beam="1">  1       21 0.12230112E+00 0.33319695E+03</pdfrwt>
<pdfrwt beam="2">  1       21 0.42025688E-01 0.33319695E+03</pdfrwt>
<totfact> 0.24941539E+03</totfact>
</mgrwt>
</event>
<event>
 5    0  0.1856407E+000  0.2986136E+03  0.7546771E-02  0.1085936E+00
         21   -1    0    0  502  501  0.00000000000E+00  0.00000000000E+00  0.64568107534E+03  0.64568107534E+03  0.00000000000E+00 0. -1.
         21   -1    0    0  503  502 -0.00000000000E+00 -0.00000000000E+00 -0.12886096759E+03  0.12886096759E+03  0.00000000000E+00 0.  1.
         25    1    1    2    0    0 -0.27090326929E+03 -0.12509806567E+02  0.22470187771E+03  0.37371247025E+03  0.12500000000E+03 0.  0.
         21    1    1    2  503  504  0.30501322021E+02 -0.24864820881E+01  0.54357815187E+02  0.62380167603E+02  0.00000000000E+00 0.  1.
         21    1    1    2  504  501  0.24040194727E+03  0.14996288655E+02  0.23776041486E+03  0.33844940508E+03  0.00000000000E+00 0.  1.
<mgrwt>
<rscale>  4 0.29861359E+03</rscale>
<asrwt>0</asrwt>
<pdfrwt beam="1">  1       21 0.99335548E-01 0.29861359E+03</pdfrwt>
<pdfrwt beam="2">  1       21 0.19824765E-01 0.29861359E+03</pdfrwt>
<totfact> 0.18525271E+04</totfact>
</mgrwt>
</event>
<event>
 5    0  0.1856407E+000  0.4528460E+03  0.7546771E-02  0.1026877E+00
         21   -1    0    0  502  501  0.00000000000E+00  0.00000000000E+00  0.29509466175E+03  0.29509466175E+03  0.00000000000E+00 0.  1.
         21   -1    0    0  503  502 -0.00000000000E+00 -0.00000000000E+00 -0.68270721449E+03  0.68270721449E+03  0.00000000000E+00 0.  1.
         25    1    1    2    0    0  0.50873386429E+02  0.43226884560E+03 -0.17747641310E+03  0.48638188035E+03  0.12500000000E+03 0.  0.
         21    1    1    2  503  504 -0.65692990785E+02 -0.41879297342E+03 -0.19689478693E+03  0.46740847312E+03  0.00000000000E+00 0.  1.
         21    1    1    2  504  501  0.14819604357E+02 -0.13475872181E+02 -0.13241352705E+02  0.24011522771E+02  0.00000000000E+00 0.  1.
<mgrwt>
<rscale>  4 0.45284595E+03</rscale>
<asrwt>0</asrwt>
<pdfrwt beam="1">  1       21 0.45399180E-01 0.45284595E+03</pdfrwt>
<pdfrwt beam="2">  1       21 0.10503188E+00 0.45284595E+03</pdfrwt>
<totfact> 0.29483738E+03</totfact>
</mgrwt>
</event>
<event>
 5    0  0.1856407E+000  0.2866579E+03  0.7546771E-02  0.1092107E+00
         21   -1    0    0  502  501  0.00000000000E+00  0.00000000000E+00  0.19706508679E+04  0.19706508679E+04  0.00000000000E+00 0.  1.
         21   -1    0    0  503  502 -0.00000000000E+00 -0.00000000000E+00 -0.25340426923E+03  0.25340426923E+03  0.00000000000E+00 0.  1.
         25    1    1    2    0    0  0.24102246399E+03 -0.15659394378E+03  0.17545450579E+04  0.17823206366E+04  0.12500000000E+03 0.  0.
         21    1    1    2  503  504 -0.55451264119E+02 -0.21177425648E+02  0.12459350241E+03  0.13801038690E+03  0.00000000000E+00 0.  1.
         21    1    1    2  504  501 -0.18557119988E+03  0.17777136943E+03 -0.16189196159E+03  0.30372411369E+03  0.00000000000E+00 0.  1.
<mgrwt>
<rscale>  4 0.28665788E+03</rscale>
<asrwt>0</asrwt>
<pdfrwt beam="1">  1       21 0.30317705E+00 0.28665788E+03</pdfrwt>
<pdfrwt beam="2">  1       21 0.38985273E-01 0.28665788E+03</pdfrwt>
<totfact> 0.18423001E+02</totfact>
</mgrwt>
</event>
<event>
 5    0  0.1856407E+000  0.2356258E+03  0.7546771E-02  0.1122742E+00
         21   -1    0    0  502  501  0.00000000000E+00  0.00000000000E+00  0.47910781271E+03  0.47910781271E+03  0.00000000000E+00 0. -1.
         21   -1    0    0  503  502 -0.00000000000E+00 -0.00000000000E+00 -0.40098733525E+03  0.40098733525E+03  0.00000000000E+00 0. -1.
         25    1    1    2    0    0  0.19711237744E+03  0.41181037171E+02  0.41352321033E+03  0.47662942906E+03  0.12500000000E+03 0.  0.
         21    1    1    2  503  504 -0.17613169331E+03 -0.42646922238E+02 -0.33672369772E+03  0.38239244497E+03  0.00000000000E+00 0. -1.
         21    1    1    2  504  501 -0.20980684132E+02  0.14658850663E+01  0.13209648483E+01  0.21073273923E+02  0.00000000000E+00 0.  1.
<mgrwt>
<rscale>  4 0.23562578E+03</rscale>
<asrwt>0</asrwt>
<pdfrwt beam="1">  1       21 0.73708895E-01 0.23562578E+03</pdfrwt>
<pdfrwt beam="2">  1       21 0.61690359E-01 0.23562578E+03</pdfrwt>
<totfact> 0.39047474E+03</totfact>
</mgrwt>
</event>
<event>
 5    0  0.1856407E+000  0.2293664E+03  0.7546771E-02  0.1127086E+00
         21   -1    0    0  502  501  0.00000000000E+00  0.00000000000E+00  0.78174426157E+02  0.78174426157E+02  0.00000000000E+00 0. -1.
         21   -1    0    0  503  502 -0.00000000000E+00 -0.00000000000E+00 -0.10792572150E+04  0.10792572150E+04  0.00000000000E+00 0.  1.
         25    1    1    2    0    0 -0.99432562804E+02  0.19870197854E+03 -0.24557709080E+03  0.35398081635E+03  0.12500000000E+03 0.  0.
         21    1    1    2  503  504  0.91005850894E+02 -0.16222475244E+03 -0.73984512041E+03  0.76286941045E+03  0.00000000000E+00 0.  1.
         21    1    1    2  504  501  0.84267119100E+01 -0.36477226095E+02 -0.15660577587E+02  0.40581414312E+02  0.00000000000E+00 0.  1.
<mgrwt>
<rscale>  4 0.22936645E+03</rscale>
<asrwt>0</asrwt>
<pdfrwt beam="1">  1       21 0.12026836E-01 0.22936645E+03</pdfrwt>
<pdfrwt beam="2">  1       21 0.16603955E+00 0.22936645E+03</pdfrwt>
<totfact> 0.12961161E+04</totfact>
</mgrwt>
</event>
<event>
 5    0  0.1805391E+001  0.2510374E+03  0.7546771E-02  0.1112651E+00
         21   -1    0    0  502  501  0.00000000000E+00  0.00000000000E+00  0.13728134867E+03  0.13728134867E+03  0.00000000000E+00 0.  1.
         21   -1    0    0  503  502 -0.00000000000E+00 -0.00000000000E+00 -0.42861845153E+03  0.42861845153E+03  0.00000000000E+00 0.  1.
         25    1    1    2    0    0 -0.15010482246E+01 -0.21769821376E+03 -0.21567201021E+03  0.33095948605E+03  0.12500000000E+03 0.  0.
         21    1    1    2  503  504 -0.53835844821E+01  0.31224535770E+02  0.42083157951E+01  0.31963487572E+02  0.00000000000E+00 0. -1.
         21    1    1    2  504  501  0.68846327067E+01  0.18647367799E+03 -0.79873408446E+02  0.20297682658E+03  0.00000000000E+00 0.  1.
<mgrwt>
<rscale>  4 0.25103738E+03</rscale>
<asrwt>0</asrwt>
<pdfrwt beam="1">  1       21 0.21120208E-01 0.25103738E+03</pdfrwt>
<pdfrwt beam="2">  1       21 0.65941300E-01 0.25103738E+03</pdfrwt>
<totfact> 0.42848480E+04</totfact>
</mgrwt>
</event>
