<event>
 5    0  0.1014204E+000  0.5473470E+03  0.7546771E-02  0.1002110E+00
          2   -1    0    0  503    0 -0.00000000000E+00  0.00000000000E+00  0.35447949100E+04  0.35447949100E+04  0.00000000000E+00 0. -1.
         21   -1    0    0  501  502  0.00000000000E+00 -0.00000000000E+00 -0.39236997334E+03  0.39236997334E+03  0.00000000000E+00 0. -1.
         25    1    1    2    0    0 -0.52373105587E+03  0.91483906082E+02 -0.15570811983E+03  0.56792036637E+03  0.12500000000E+03 0.  0.
         21    1    1    2  503  502 -0.19405772994E+02 -0.19001759389E+02  0.86462441323E+03  0.86505088107E+03  0.00000000000E+00 0.  1.
          2    1    1    2  501    0  0.54313682887E+03 -0.72482146694E+02  0.24435086433E+04  0.25041936359E+04  0.00000000000E+00 0. -1.
<mgrwt>
<rscale>  4 0.54734703E+03</rscale>
<asrwt>0</asrwt>
<pdfrwt beam="1">  1       21 0.60364614E-01 0.54734703E+03</pdfrwt>
<pdfrwt beam="2">  1        2 0.54535304E+00 0.54734703E+03</pdfrwt>
<totfact> 0.25105124E+01</totfact>
</mgrwt>
</event>
<event>
 5    0  0.1014204E+000  0.2719807E+03  0.7546771E-02  0.1100151E+00
          2   -1    0    0  503    0 -0.00000000000E+00  0.00000000000E+00  0.14645784205E+04  0.14645784205E+04  0.00000000000E+00 0. -1.
         21   -1    0    0  501  502  0.00000000000E+00 -0.00000000000E+00 -0.90350591419E+02  0.90350591419E+02  0.00000000000E+00 0.  1.
         25    1    1    2    0    0  0.21525804241E+03 -0.99261015125E+02  0.18504366514E+03  0.32566076208E+03  0.12500000000E+03 0.  0.
         21    1    1    2  503  502  0.14958180929E+02 -0.13335580154E+02  0.37874180694E+03  0.37927159292E+03  0.00000000000E+00 0.  1.
          2    1    1    2  501    0 -0.23021622334E+03  0.11259659528E+03  0.81044235702E+03  0.84999665694E+03  0.00000000000E+00 0. -1.
<mgrwt>
<rscale>  4 0.27198071E+03</rscale>
<asrwt>0</asrwt>
<pdfrwt beam="1">  1       21 0.13900092E-01 0.27198071E+03</pdfrwt>
<pdfrwt beam="2">  1        2 0.22531974E+00 0.27198071E+03</pdfrwt>
<totfact> 0.80338913E+03</totfact>
</mgrwt>
</event>
<event>
 5    0  0.1014204E+000  0.3248921E+03  0.7546771E-02  0.1073420E+00
         -2   -1    0    0    0  501 -0.00000000000E+00  0.00000000000E+00  0.70278539188E+03  0.70278539188E+03  0.00000000000E+00 0. -1.
         21   -1    0    0  503  502  0.00000000000E+00 -0.00000000000E+00 -0.69736640471E+03  0.69736640471E+03  0.00000000000E+00 0.  1.
         25    1    1    2    0    0 -0.47127019350E+02 -0.29381749197E+03 -0.60459805604E+03  0.68535646485E+03  0.12500000000E+03 0.  0.
         21    1    1    2  503  501  0.85177419975E+01 -0.36804790692E+02  0.86847254001E+02  0.94707919807E+02  0.00000000000E+00 0. -1.
         -2    1    1    2    0  502  0.38609277353E+02  0.33062228267E+03  0.52316978921E+03  0.62008741193E+03  0.00000000000E+00 0. -1.
<mgrwt>
<rscale>  4 0.32489211E+03</rscale>
<asrwt>0</asrwt>
<pdfrwt beam="1">  1       21 0.10728714E+00 0.32489211E+03</pdfrwt>
<pdfrwt beam="2">  1       -2 0.10812083E+00 0.32489211E+03</pdfrwt>
<totfact> 0.37764437E+01</totfact>
</mgrwt>
</event>
<event>
 5    0  0.1014204E+000  0.2374066E+03  0.7546771E-02  0.1121533E+00
         21   -1    0    0  501  502  0.00000000000E+00  0.00000000000E+00  0.65021108606E+02  0.65021108606E+02  0.00000000000E+00 0. -1.
          2   -1    0    0  503    0 -0.00000000000E+00 -0.00000000000E+00 -0.20107326695E+04  0.20107326695E+04  0.00000000000E+00 0. -1.
         25    1    1    2    0    0  0.18076835365E+03  0.95668990005E+02 -0.20097672404E+03  0.31280408715E+03  0.12500000000E+03 0.  0.
         21    1    1    2  503  502 -0.29854332609E+02  0.24898868385E+02 -0.66048528771E+03  0.66162833230E+03  0.00000000000E+00 0. -1.
          2    1    1    2  501    0 -0.15091402104E+03 -0.12056785839E+03 -0.10842495492E+04  0.11013213587E+04  0.00000000000E+00 0. -1.
<mgrwt>
<rscale>  4 0.23740663E+03</rscale>
<asrwt>0</asrwt>
<pdfrwt beam="1">  1       21 0.10003247E-01 0.23740663E+03</pdfrwt>
<pdfrwt beam="2">  1        2 0.30934350E+00 0.23740663E+03</pdfrwt>
<totfact> 0.75682751E+03</totfact>
</mgrwt>
</event>
<event>
 5    0  0.1014204E+000  0.2645935E+03  0.7546771E-02  0.1104414E+00
          2   -1    0    0  503    0 -0.00000000000E+00  0.00000000000E+00  0.33296006232E+03  0.33296006232E+03  0.00000000000E+00 0. -1.
         21   -1    0    0  501  502  0.00000000000E+00 -0.00000000000E+00 -0.41895288085E+03  0.41895288085E+03  0.00000000000E+00 0.  1.
         25    1    1    2    0    0 -0.47106374253E+02 -0.22931334023E+03 -0.31425674384E+03  0.41132216030E+03  0.12500000000E+03 0.  0.
         21    1    1    2  503  502 -0.20972646818E+02  0.10243066566E+02  0.22740902684E+02  0.32587129087E+02  0.00000000000E+00 0.  1.
          2    1    1    2  501    0  0.68079021072E+02  0.21907027366E+03  0.20552302263E+03  0.30800365378E+03  0.00000000000E+00 0. -1.
<mgrwt>
<rscale>  4 0.26459345E+03</rscale>
<asrwt>0</asrwt>
<pdfrwt beam="1">  1       21 0.64454289E-01 0.26459345E+03</pdfrwt>
<pdfrwt beam="2">  1        2 0.51224625E-01 0.26459345E+03</pdfrwt>
<totfact> 0.26253372E+03</totfact>
</mgrwt>
</event>
<event>
 5    0  0.1014204E+000  0.2904440E+03  0.7546771E-02  0.1090118E+00
         21   -1    0    0  501  502  0.00000000000E+00  0.00000000000E+00  0.22845274450E+03  0.22845274450E+03  0.00000000000E+00 0.  1.
          2   -1    0    0  503    0 -0.00000000000E+00 -0.00000000000E+00 -0.11670663597E+04  0.11670663597E+04  0.00000000000E+00 0.  1.
         25    1    1    2    0    0  0.82304110857E+02  0.20992444019E+03 -0.37289025183E+02  0.26049512213E+03  0.12500000000E+03 0.  0.
         21    1    1    2  503  502 -0.13272394095E+03  0.16751772394E+03 -0.63589352130E+03  0.67084901637E+03  0.00000000000E+00 0.  1.
          2    1    1    2  501    0  0.50419830097E+02 -0.37744216413E+03 -0.26543106870E+03  0.46417496568E+03  0.00000000000E+00 0.  1.
<mgrwt>
<rscale>  4 0.29044396E+03</rscale>
<asrwt>0</asrwt>
<pdfrwt beam="1">  1       21 0.35146576E-01 0.29044396E+03</pdfrwt>
<pdfrwt beam="2">  1        2 0.17954867E+00 0.29044396E+03</pdfrwt>
<totfact> 0.19931040E+03</totfact>
</mgrwt>
</event>
<event>
 5    0  0.1014204E+000  0.2913805E+03  0.7546771E-02  0.1089631E+00
         21   -1    0    0  501  502  0.00000000000E+00  0.00000000000E+00  0.20073609884E+03  0.20073609884E+03  0.00000000000E+00 0.  1.
          2   -1    0    0  503    0 -0.00000000000E+00 -0.00000000000E+00 -0.19118739791E+04  0.19118739791E+04  0.00000000000E+00 0.  1.
         25    1    1    2    0    0 -0.21825768944E+03 -0.14389541916E+03  0.63152925849E+02  0.29657309840E+03  0.12500000000E+03 0.  0.
         21    1    1    2  503  502  0.22735228747E+02 -0.78950166317E+02 -0.24904816932E+03  0.26224989996E+03  0.00000000000E+00 0. -1.
          2    1    1    2  501    0  0.19552246069E+03  0.22284558548E+03 -0.15252426368E+04  0.15537870796E+04  0.00000000000E+00 0.  1.
<mgrwt>
<rscale>  4 0.29138049E+03</rscale>
<asrwt>0</asrwt>
<pdfrwt beam="1">  1       21 0.30882477E-01 0.29138049E+03</pdfrwt>
<pdfrwt beam="2">  1        2 0.29413446E+00 0.29138049E+03</pdfrwt>
<totfact> 0.10192310E+03</totfact>
</mgrwt>
</event>
<event>
 5    0  0.1014204E+000  0.3101372E+03  0.7546771E-02  0.1080280E+00
         21   -1    0    0  501  502  0.00000000000E+00  0.00000000000E+00  0.15034363228E+03  0.15034363228E+03  0.00000000000E+00 0. -1.
          1   -1    0    0  503    0 -0.00000000000E+00 -0.00000000000E+00 -0.13465438930E+04  0.13465438930E+04  0.00000000000E+00 0. -1.
         25    1    1    2    0    0 -0.26121068557E+03 -0.11195943047E+03 -0.73832552738E+02  0.31912721941E+03  0.12500000000E+03 0.  0.
         21    1    1    2  503  502 -0.17370200242E+02  0.47404466286E+02 -0.36003818380E+03  0.36356072543E+03  0.00000000000E+00 0.  1.
          1    1    1    2  501    0  0.27858088581E+03  0.64554964179E+02 -0.76232952421E+03  0.81419958046E+03  0.00000000000E+00 0. -1.
<mgrwt>
<rscale>  4 0.31013723E+03</rscale>
<asrwt>0</asrwt>
<pdfrwt beam="1">  1       21 0.23129790E-01 0.31013723E+03</pdfrwt>
<pdfrwt beam="2">  1        1 0.20716059E+00 0.31013723E+03</pdfrwt>
<totfact> 0.17149815E+03</totfact>
</mgrwt>
</event>
<event>
 5    0  0.1014204E+000  0.2512316E+03  0.7546771E-02  0.1112529E+00
          3   -1    0    0  503    0 -0.00000000000E+00  0.00000000000E+00  0.19545514649E+03  0.19545514649E+03  0.00000000000E+00 0.  1.
         21   -1    0    0  501  502  0.00000000000E+00 -0.00000000000E+00 -0.60903859933E+03  0.60903859933E+03  0.00000000000E+00 0.  1.
         25    1    1    2    0    0  0.97408435519E+02 -0.19244238549E+03 -0.44486786097E+03  0.50995577138E+03  0.12500000000E+03 0.  0.
         21    1    1    2  503  502  0.21902330522E+02  0.13062809873E+01  0.63265204687E+02  0.66961963654E+02  0.00000000000E+00 0.  1.
          3    1    1    2  501    0 -0.11931076604E+03  0.19113610450E+03 -0.31980796564E+02  0.22757601079E+03  0.00000000000E+00 0.  1.
<mgrwt>
<rscale>  4 0.25123164E+03</rscale>
<asrwt>0</asrwt>
<pdfrwt beam="1">  1       21 0.93698244E-01 0.25123164E+03</pdfrwt>
<pdfrwt beam="2">  1        3 0.30070023E-01 0.25123164E+03</pdfrwt>
<totfact> 0.49794898E+02</totfact>
</mgrwt>
</event>
<event>
 5    0  0.1014204E+000  0.2504248E+03  0.7546771E-02  0.1113037E+00
         21   -1    0    0  501  502  0.00000000000E+00  0.00000000000E+00  0.11207065474E+03  0.11207065474E+03  0.00000000000E+00 0. -1.
          1   -1    0    0  503    0 -0.00000000000E+00 -0.00000000000E+00 -0.84891031238E+03  0.84891031238E+03  0.00000000000E+00 0. -1.
         25    1    1    2    0    0 -0.15742420887E+03  0.16858398810E+03 -0.17411224179E+03  0.31486983870E+03  0.12500000000E+03 0.  0.
         21    1    1    2  503  502 -0.31812614749E+02 -0.80527002810E+02 -0.29018732563E+03  0.30282887015E+03  0.00000000000E+00 0. -1.
          1    1    1    2  501    0  0.18923682362E+03 -0.88056985291E+02 -0.27254009022E+03  0.34328225827E+03  0.00000000000E+00 0. -1.
<mgrwt>
<rscale>  4 0.25042483E+03</rscale>
<asrwt>0</asrwt>
<pdfrwt beam="1">  1       21 0.17241640E-01 0.25042483E+03</pdfrwt>
<pdfrwt beam="2">  1        1 0.13060158E+00 0.25042483E+03</pdfrwt>
<totfact> 0.70211164E+03</totfact>
</mgrwt>
</event>
<event>
 5    0  0.1014204E+000  0.2643952E+03  0.7546771E-02  0.1104531E+00
         21   -1    0    0  501  502  0.00000000000E+00  0.00000000000E+00  0.31712000895E+03  0.31712000895E+03  0.00000000000E+00 0. -1.
          2   -1    0    0  503    0 -0.00000000000E+00 -0.00000000000E+00 -0.13530782770E+04  0.13530782770E+04  0.00000000000E+00 0. -1.
         25    1    1    2    0    0  0.17971393541E+03 -0.14691073516E+03  0.24544605386E+03  0.36020636869E+03  0.12500000000E+03 0.  0.
         21    1    1    2  503  502  0.20113489898E+02 -0.42795598712E+01 -0.13186773320E+03  0.13346147822E+03  0.00000000000E+00 0. -1.
          2    1    1    2  501    0 -0.19982742531E+03  0.15119029503E+03 -0.11495365887E+04  0.11765304391E+04  0.00000000000E+00 0. -1.
<mgrwt>
<rscale>  4 0.26439520E+03</rscale>
<asrwt>0</asrwt>
<pdfrwt beam="1">  1       21 0.48787693E-01 0.26439520E+03</pdfrwt>
<pdfrwt beam="2">  1        2 0.20816589E+00 0.26439520E+03</pdfrwt>
<totfact> 0.80922508E+02</totfact>
</mgrwt>
</event>
<event>
 5    0  0.1014204E+000  0.2511650E+03  0.7546771E-02  0.1112571E+00
         21   -1    0    0  503  502  0.00000000000E+00  0.00000000000E+00  0.81870344643E+02  0.81870344643E+02  0.00000000000E+00 0. -1.
         -4   -1    0    0    0  501 -0.00000000000E+00 -0.00000000000E+00 -0.13806682428E+04  0.13806682428E+04  0.00000000000E+00 0.  1.
         25    1    1    2    0    0 -0.20544600311E+03 -0.74225138101E+02 -0.16785309677E+03  0.30251792247E+03  0.12500000000E+03 0.  0.
         21    1    1    2  503  501 -0.99348314205E+01  0.38442992737E+02 -0.18272918220E+03  0.18699336510E+03  0.00000000000E+00 0.  1.
         -4    1    1    2    0  502  0.21538083453E+03  0.35782145364E+02 -0.94821561915E+03  0.97302729983E+03  0.00000000000E+00 0.  1.
<mgrwt>
<rscale>  4 0.25116503E+03</rscale>
<asrwt>0</asrwt>
<pdfrwt beam="1">  1       21 0.12595439E-01 0.25116503E+03</pdfrwt>
<pdfrwt beam="2">  1       -4 0.21241047E+00 0.25116503E+03</pdfrwt>
<totfact> 0.27252512E+02</totfact>
</mgrwt>
</event>
<event>
 5    0  0.1014204E+000  0.2868024E+03  0.7546771E-02  0.1092031E+00
         -2   -1    0    0    0  501 -0.00000000000E+00  0.00000000000E+00  0.85016373908E+03  0.85016373908E+03  0.00000000000E+00 0.  1.
         21   -1    0    0  503  502  0.00000000000E+00 -0.00000000000E+00 -0.18480257661E+03  0.18480257661E+03  0.00000000000E+00 0. -1.
         25    1    1    2    0    0  0.51832794170E+01 -0.25807697293E+03 -0.27304014665E+02  0.28809911413E+03  0.12500000000E+03 0.  0.
         21    1    1    2  503  501 -0.38168652081E+02  0.32920150710E+02  0.99236191579E+02  0.11130320770E+03  0.00000000000E+00 0.  1.
         -2    1    1    2    0  502  0.32985372664E+02  0.22515682222E+03  0.59342898555E+03  0.63556399386E+03  0.00000000000E+00 0.  1.
<mgrwt>
<rscale>  4 0.28680235E+03</rscale>
<asrwt>0</asrwt>
<pdfrwt beam="1">  1       21 0.28431166E-01 0.28680235E+03</pdfrwt>
<pdfrwt beam="2">  1       -2 0.13079442E+00 0.28680235E+03</pdfrwt>
<totfact> 0.42474103E+02</totfact>
</mgrwt>
</event>
<event>
 5    0  0.1014204E+000  0.2714355E+03  0.7546771E-02  0.1100461E+00
         21   -1    0    0  501  502  0.00000000000E+00  0.00000000000E+00  0.99761708511E+03  0.99761708511E+03  0.00000000000E+00 0.  1.
          1   -1    0    0  503    0 -0.00000000000E+00 -0.00000000000E+00 -0.50334120450E+03  0.50334120450E+03  0.00000000000E+00 0.  1.
         25    1    1    2    0    0 -0.19817152923E+03  0.13616330470E+03  0.93978111877E+03  0.97807256977E+03  0.12500000000E+03 0.  0.
         21    1    1    2  503  502 -0.58876169964E+00  0.20591980080E+02 -0.32675724637E+02  0.38627441858E+02  0.00000000000E+00 0.  1.
          1    1    1    2  501    0  0.19876029093E+03 -0.15675528477E+03 -0.41282951352E+03  0.48425827797E+03  0.00000000000E+00 0.  1.
<mgrwt>
<rscale>  4 0.27143549E+03</rscale>
<asrwt>0</asrwt>
<pdfrwt beam="1">  1       21 0.15347955E+00 0.27143549E+03</pdfrwt>
<pdfrwt beam="2">  1        1 0.77437108E-01 0.27143549E+03</pdfrwt>
<totfact> 0.13149215E+02</totfact>
</mgrwt>
</event>
<event>
 5    0  0.1014204E+000  0.3269741E+03  0.7546771E-02  0.1072484E+00
         21   -1    0    0  503  502  0.00000000000E+00  0.00000000000E+00  0.11051387770E+03  0.11051387770E+03  0.00000000000E+00 0. -1.
         -3   -1    0    0    0  501 -0.00000000000E+00 -0.00000000000E+00 -0.14741858317E+04  0.14741858317E+04  0.00000000000E+00 0. -1.
         25    1    1    2    0    0 -0.24882700873E+03  0.17138314584E+03 -0.20715359241E+03  0.38707192329E+03  0.12500000000E+03 0.  0.
         21    1    1    2  503  501  0.33052370139E+01 -0.23957441752E+02 -0.11038953610E+03  0.11300766915E+03  0.00000000000E+00 0. -1.
         -3    1    1    2    0  502  0.24552177171E+03 -0.14742570408E+03 -0.10461288255E+04  0.10846201170E+04  0.00000000000E+00 0. -1.
<mgrwt>
<rscale>  4 0.32697410E+03</rscale>
<asrwt>0</asrwt>
<pdfrwt beam="1">  1       21 0.17002136E-01 0.32697410E+03</pdfrwt>
<pdfrwt beam="2">  1       -3 0.22679781E+00 0.32697410E+03</pdfrwt>
<totfact> 0.16598699E+02</totfact>
</mgrwt>
</event>
<event>
 5    0  0.1014204E+000  0.3579238E+03  0.7546771E-02  0.1059409E+00
         21   -1    0    0  501  502  0.00000000000E+00  0.00000000000E+00  0.67470467989E+02  0.67470467989E+02  0.00000000000E+00 0. -1.
          2   -1    0    0  503    0 -0.00000000000E+00 -0.00000000000E+00 -0.34946801177E+04  0.34946801177E+04  0.00000000000E+00 0. -1.
         25    1    1    2    0    0 -0.40078177071E+02  0.34994552549E+03 -0.17936224629E+04  0.18321502860E+04  0.12500000000E+03 0.  0.
         21    1    1    2  503  502  0.64927396427E+01 -0.21529666087E+02 -0.11151504284E+04  0.11153771381E+04  0.00000000000E+00 0. -1.
          2    1    1    2  501    0  0.33585437428E+02 -0.32841585940E+03 -0.51843675844E+03  0.61462316163E+03  0.00000000000E+00 0. -1.
<mgrwt>
<rscale>  4 0.35792383E+03</rscale>
<asrwt>0</asrwt>
<pdfrwt beam="1">  1       21 0.10380070E-01 0.35792383E+03</pdfrwt>
<pdfrwt beam="2">  1        2 0.53764318E+00 0.35792383E+03</pdfrwt>
<totfact> 0.93388428E+02</totfact>
</mgrwt>
</event>
<event>
 5    0  0.1014204E+000  0.2261438E+03  0.7546771E-02  0.1129384E+00
          2   -1    0    0  503    0 -0.00000000000E+00  0.00000000000E+00  0.19984815237E+03  0.19984815237E+03  0.00000000000E+00 0. -1.
         21   -1    0    0  501  502  0.00000000000E+00 -0.00000000000E+00 -0.71485210496E+03  0.71485210496E+03  0.00000000000E+00 0. -1.
         25    1    1    2    0    0 -0.13648700136E+03  0.15394415184E+03 -0.62083323214E+03  0.66587266467E+03  0.12500000000E+03 0.  0.
         21    1    1    2  503  502  0.58618068248E+01 -0.19980165101E+02 -0.15383427617E+02  0.25888561605E+02  0.00000000000E+00 0.  1.
          2    1    1    2  501    0  0.13062519453E+03 -0.13396398673E+03  0.12121270717E+03  0.22293903106E+03  0.00000000000E+00 0. -1.
<mgrwt>
<rscale>  4 0.22614384E+03</rscale>
<asrwt>0</asrwt>
<pdfrwt beam="1">  1       21 0.10997725E+00 0.22614384E+03</pdfrwt>
<pdfrwt beam="2">  1        2 0.30745869E-01 0.22614384E+03</pdfrwt>
<totfact> 0.13523980E+03</totfact>
</mgrwt>
</event>
<event>
 5    0  0.1014204E+000  0.2549271E+03  0.7546771E-02  0.1110230E+00
          1   -1    0    0  503    0 -0.00000000000E+00  0.00000000000E+00  0.40869075665E+03  0.40869075665E+03  0.00000000000E+00 0.  1.
         21   -1    0    0  501  502  0.00000000000E+00 -0.00000000000E+00 -0.10824064538E+04  0.10824064538E+04  0.00000000000E+00 0. -1.
         25    1    1    2    0    0 -0.20645289764E+03 -0.79796183817E+02 -0.10225759291E+04  0.10536967119E+04  0.12500000000E+03 0.  0.
         21    1    1    2  503  502 -0.22092625767E+02  0.11648784416E+01  0.31139474060E+02  0.38198270901E+02  0.00000000000E+00 0.  1.
          1    1    1    2  501    0  0.22854552340E+03  0.78631305375E+02  0.31772075797E+03  0.39920222757E+03  0.00000000000E+00 0.  1.
<mgrwt>
<rscale>  4 0.25492715E+03</rscale>
<asrwt>0</asrwt>
<pdfrwt beam="1">  1       21 0.16652407E+00 0.25492715E+03</pdfrwt>
<pdfrwt beam="2">  1        1 0.62875502E-01 0.25492715E+03</pdfrwt>
<totfact> 0.13975109E+02</totfact>
</mgrwt>
</event>
<event>
 5    0  0.1014204E+000  0.3235504E+03  0.7546771E-02  0.1074027E+00
         21   -1    0    0  503  502  0.00000000000E+00  0.00000000000E+00  0.38048581516E+03  0.38048581516E+03  0.00000000000E+00 0. -1.
         -1   -1    0    0    0  501 -0.00000000000E+00 -0.00000000000E+00 -0.75751950708E+03  0.75751950708E+03  0.00000000000E+00 0.  1.
         25    1    1    2    0    0  0.29786569473E+03 -0.10879518637E+03  0.25016823362E+03  0.42281143526E+03  0.12500000000E+03 0.  0.
         21    1    1    2  503  501 -0.25667714251E+02 -0.90386611220E+01 -0.75962109752E+01  0.28252988708E+02  0.00000000000E+00 0. -1.
         -1    1    1    2    0  502 -0.27219798048E+03  0.11783384749E+03 -0.61960571457E+03  0.68694089827E+03  0.00000000000E+00 0.  1.
<mgrwt>
<rscale>  4 0.32355044E+03</rscale>
<asrwt>0</asrwt>
<pdfrwt beam="1">  1       21 0.58536280E-01 0.32355044E+03</pdfrwt>
<pdfrwt beam="2">  1       -1 0.11654146E+00 0.32355044E+03</pdfrwt>
<totfact> 0.17123417E+02</totfact>
</mgrwt>
</event>
<event>
 5    0  0.1014204E+000  0.3599030E+03  0.7546771E-02  0.1058622E+00
         21   -1    0    0  501  502  0.00000000000E+00  0.00000000000E+00  0.19452222637E+03  0.19452222637E+03  0.00000000000E+00 0.  1.
          2   -1    0    0  503    0 -0.00000000000E+00 -0.00000000000E+00 -0.31562588297E+04  0.31562588297E+04  0.00000000000E+00 0.  1.
         25    1    1    2    0    0 -0.35810910015E+02  0.33722326252E+03  0.23217869051E+01  0.36143096264E+03  0.12500000000E+03 0.  0.
         21    1    1    2  503  502 -0.32177373751E+02 -0.31053040256E+02 -0.12017428884E+03  0.12822454675E+03  0.00000000000E+00 0.  1.
          2    1    1    2  501    0  0.67988283766E+02 -0.30617022226E+03 -0.28438841014E+04  0.28611255467E+04  0.00000000000E+00 0.  1.
<mgrwt>
<rscale>  4 0.35990302E+03</rscale>
<asrwt>0</asrwt>
<pdfrwt beam="1">  1       21 0.29926495E-01 0.35990302E+03</pdfrwt>
<pdfrwt beam="2">  1        2 0.48557831E+00 0.35990302E+03</pdfrwt>
<totfact> 0.21078226E+02</totfact>
</mgrwt>
</event>
<event>
 5    0  0.1014204E+000  0.2669515E+03  0.7546771E-02  0.1103037E+00
         21   -1    0    0  501  502  0.00000000000E+00  0.00000000000E+00  0.41476233682E+02  0.41476233682E+02  0.00000000000E+00 0.  1.
          2   -1    0    0  503    0 -0.00000000000E+00 -0.00000000000E+00 -0.24558253040E+04  0.24558253040E+04  0.00000000000E+00 0. -1.
         25    1    1    2    0    0 -0.19773913322E+03  0.12859753049E+03 -0.49043949881E+03  0.55838516425E+03  0.12500000000E+03 0.  0.
         21    1    1    2  503  502  0.96028144588E+02 -0.34366111416E+02 -0.84597672261E+03  0.85210272231E+03  0.00000000000E+00 0.  1.
          2    1    1    2  501    0  0.10171098863E+03 -0.94231419073E+02 -0.10779328489E+04  0.10868136512E+04  0.00000000000E+00 0. -1.
<mgrwt>
<rscale>  4 0.26695147E+03</rscale>
<asrwt>0</asrwt>
<pdfrwt beam="1">  1       21 0.63809592E-02 0.26695147E+03</pdfrwt>
<pdfrwt beam="2">  1        2 0.37781927E+00 0.26695147E+03</pdfrwt>
<totfact> 0.95296631E+03</totfact>
</mgrwt>
</event>
<event>
 5    0  0.1014204E+000  0.3001060E+03  0.7546771E-02  0.1085188E+00
         21   -1    0    0  501  502  0.00000000000E+00  0.00000000000E+00  0.35364839681E+03  0.35364839681E+03  0.00000000000E+00 0. -1.
          1   -1    0    0  503    0 -0.00000000000E+00 -0.00000000000E+00 -0.36661755893E+03  0.36661755893E+03  0.00000000000E+00 0. -1.
         25    1    1    2    0    0  0.23789605228E+03 -0.10276496964E+03  0.49158466933E+02  0.29188478129E+03  0.12500000000E+03 0.  0.
         21    1    1    2  503  502  0.63293684203E+02  0.94032955979E+02 -0.57336914428E+02  0.12702680436E+03  0.00000000000E+00 0. -1.
          1    1    1    2  501    0 -0.30118973648E+03  0.87320136650E+01 -0.47907146225E+01  0.30135437009E+03  0.00000000000E+00 0. -1.
<mgrwt>
<rscale>  4 0.30010603E+03</rscale>
<asrwt>0</asrwt>
<pdfrwt beam="1">  1       21 0.54407446E-01 0.30010603E+03</pdfrwt>
<pdfrwt beam="2">  1        1 0.56402701E-01 0.30010603E+03</pdfrwt>
<totfact> 0.22926109E+03</totfact>
</mgrwt>
</event>
<event>
 5    0  0.1014204E+000  0.2353825E+03  0.7546771E-02  0.1122908E+00
         21   -1    0    0  501  502  0.00000000000E+00  0.00000000000E+00  0.47539607052E+02  0.47539607052E+02  0.00000000000E+00 0. -1.
          2   -1    0    0  503    0 -0.00000000000E+00 -0.00000000000E+00 -0.18347506292E+04  0.18347506292E+04  0.00000000000E+00 0. -1.
         25    1    1    2    0    0  0.68235446529E+01  0.20917218609E+03 -0.78101781827E+03  0.81817687370E+03  0.12500000000E+03 0.  0.
         21    1    1    2  503  502  0.18606892666E+02 -0.15188092852E+02 -0.70216337504E+03  0.70257405294E+03  0.00000000000E+00 0. -1.
          2    1    1    2  501    0 -0.25430437319E+02 -0.19398409323E+03 -0.30402982880E+03  0.36153930958E+03  0.00000000000E+00 0. -1.
<mgrwt>
<rscale>  4 0.23538252E+03</rscale>
<asrwt>0</asrwt>
<pdfrwt beam="1">  1       21 0.73137880E-02 0.23538252E+03</pdfrwt>
<pdfrwt beam="2">  1        2 0.28226924E+00 0.23538252E+03</pdfrwt>
<totfact> 0.16226529E+04</totfact>
</mgrwt>
</event>
<event>
 5    0  0.1014204E+000  0.3498936E+03  0.7546771E-02  0.1062659E+00
         21   -1    0    0  501  502  0.00000000000E+00  0.00000000000E+00  0.24331019806E+03  0.24331019806E+03  0.00000000000E+00 0.  1.
          2   -1    0    0  503    0 -0.00000000000E+00 -0.00000000000E+00 -0.55313056514E+03  0.55313056514E+03  0.00000000000E+00 0. -1.
         25    1    1    2    0    0 -0.16524617377E+03  0.28194718517E+03 -0.15856967896E+02  0.35025270392E+03  0.12500000000E+03 0.  0.
         21    1    1    2  503  502 -0.55764239185E+01 -0.19554884908E+02 -0.32196523686E+02  0.38080259518E+02  0.00000000000E+00 0. -1.
          2    1    1    2  501    0  0.17082259768E+03 -0.26239230026E+03 -0.26176687550E+03  0.40810779976E+03  0.00000000000E+00 0. -1.
<mgrwt>
<rscale>  4 0.34989357E+03</rscale>
<asrwt>0</asrwt>
<pdfrwt beam="1">  1       21 0.37432338E-01 0.34989357E+03</pdfrwt>
<pdfrwt beam="2">  1        2 0.85097010E-01 0.34989357E+03</pdfrwt>
<totfact> 0.45951209E+03</totfact>
</mgrwt>
</event>
<event>
 5    0  0.1014204E+000  0.2504323E+03  0.7546771E-02  0.1113032E+00
         21   -1    0    0  501  502  0.00000000000E+00  0.00000000000E+00  0.17253775278E+03  0.17253775278E+03  0.00000000000E+00 0. -1.
          2   -1    0    0  503    0 -0.00000000000E+00 -0.00000000000E+00 -0.85359413501E+03  0.85359413501E+03  0.00000000000E+00 0. -1.
         25    1    1    2    0    0 -0.10243969760E+03  0.19093745600E+03  0.48484708368E+02  0.25480732072E+03  0.12500000000E+03 0.  0.
         21    1    1    2  503  502  0.22165214525E+02  0.14519360118E+02 -0.46148416475E+02  0.53214517721E+02  0.00000000000E+00 0. -1.
          2    1    1    2  501    0  0.80274483074E+02 -0.20545681611E+03 -0.68339267412E+03  0.71811004934E+03  0.00000000000E+00 0. -1.
<mgrwt>
<rscale>  4 0.25043227E+03</rscale>
<asrwt>0</asrwt>
<pdfrwt beam="1">  1       21 0.26544270E-01 0.25043227E+03</pdfrwt>
<pdfrwt beam="2">  1        2 0.13132217E+00 0.25043227E+03</pdfrwt>
<totfact> 0.54717051E+03</totfact>
</mgrwt>
</event>
<event>
 5    0  0.1014204E+000  0.2897312E+03  0.7546771E-02  0.1090490E+00
          2   -1    0    0  503    0 -0.00000000000E+00  0.00000000000E+00  0.93415931436E+03  0.93415931436E+03  0.00000000000E+00 0. -1.
         21   -1    0    0  501  502  0.00000000000E+00 -0.00000000000E+00 -0.14035230010E+03  0.14035230010E+03  0.00000000000E+00 0. -1.
         25    1    1    2    0    0 -0.26700525849E+03 -0.83450808870E+02  0.43685067811E+03  0.53359100492E+03  0.12500000000E+03 0.  0.
         21    1    1    2  503  502  0.26398373279E+02 -0.84637087902E-01  0.27074637625E+03  0.27203029523E+03  0.00000000000E+00 0. -1.
          2    1    1    2  501    0  0.24060688521E+03  0.83535445958E+02  0.86209959902E+02  0.26889031431E+03  0.00000000000E+00 0. -1.
<mgrwt>
<rscale>  4 0.28973117E+03</rscale>
<asrwt>0</asrwt>
<pdfrwt beam="1">  1       21 0.21592662E-01 0.28973117E+03</pdfrwt>
<pdfrwt beam="2">  1        2 0.14371681E+00 0.28973117E+03</pdfrwt>
<totfact> 0.71269893E+03</totfact>
</mgrwt>
</event>
<event>
 5    0  0.1014204E+000  0.2588892E+03  0.7546771E-02  0.1107812E+00
         21   -1    0    0  501  502  0.00000000000E+00  0.00000000000E+00  0.86337731603E+03  0.86337731603E+03  0.00000000000E+00 0.  1.
          2   -1    0    0  503    0 -0.00000000000E+00 -0.00000000000E+00 -0.13098105984E+04  0.13098105984E+04  0.00000000000E+00 0. -1.
         25    1    1    2    0    0  0.16536828000E+03  0.17081470726E+03  0.81356465598E+03  0.85675946549E+03  0.12500000000E+03 0.  0.
         21    1    1    2  503  502 -0.11596475713E+03 -0.72439093693E+02 -0.15800921845E+03  0.20895492411E+03  0.00000000000E+00 0.  1.
          2    1    1    2  501    0 -0.49403522866E+02 -0.98375613566E+02 -0.11019887199E+04  0.11074735248E+04  0.00000000000E+00 0. -1.
<mgrwt>
<rscale>  4 0.25888924E+03</rscale>
<asrwt>0</asrwt>
<pdfrwt beam="1">  1       21 0.13282728E+00 0.25888924E+03</pdfrwt>
<pdfrwt beam="2">  1        2 0.20150932E+00 0.25888924E+03</pdfrwt>
<totfact> 0.85853965E+01</totfact>
</mgrwt>
</event>
<event>
 5    0  0.1014204E+000  0.3300319E+03  0.7546771E-02  0.1071123E+00
         21   -1    0    0  501  502  0.00000000000E+00  0.00000000000E+00  0.22032524694E+03  0.22032524694E+03  0.00000000000E+00 0. -1.
          2   -1    0    0  503    0 -0.00000000000E+00 -0.00000000000E+00 -0.11461556380E+04  0.11461556380E+04  0.00000000000E+00 0.  1.
         25    1    1    2    0    0  0.23344841712E+03  0.16535134770E+03 -0.11086551205E+02  0.31238940964E+03  0.12500000000E+03 0.  0.
         21    1    1    2  503  502  0.12520645306E+03  0.76973681992E+01 -0.22902406747E+03  0.26112818470E+03  0.00000000000E+00 0. -1.
          2    1    1    2  501    0 -0.35865487017E+03 -0.17304871590E+03 -0.68571977234E+03  0.79296329054E+03  0.00000000000E+00 0.  1.
<mgrwt>
<rscale>  4 0.33003188E+03</rscale>
<asrwt>0</asrwt>
<pdfrwt beam="1">  1       21 0.33896191E-01 0.33003188E+03</pdfrwt>
<pdfrwt beam="2">  1        2 0.17633164E+00 0.33003188E+03</pdfrwt>
<totfact> 0.21753192E+03</totfact>
</mgrwt>
</event>
<event>
 5    0  0.1014204E+000  0.2563332E+03  0.7546771E-02  0.1109367E+00
         21   -1    0    0  501  502  0.00000000000E+00  0.00000000000E+00  0.31265984574E+03  0.31265984574E+03  0.00000000000E+00 0. -1.
          2   -1    0    0  503    0 -0.00000000000E+00 -0.00000000000E+00 -0.21071727361E+04  0.21071727361E+04  0.00000000000E+00 0.  1.
         25    1    1    2    0    0  0.22304920471E+03 -0.16503134235E+02  0.25035178826E+03  0.35822383931E+03  0.12500000000E+03 0.  0.
         21    1    1    2  503  502  0.57851684651E+01  0.23406072974E+02 -0.42042864678E+03  0.42111941235E+03  0.00000000000E+00 0.  1.
          2    1    1    2  501    0 -0.22883437317E+03 -0.69029387389E+01 -0.16244360319E+04  0.16404893302E+04  0.00000000000E+00 0.  1.
<mgrwt>
<rscale>  4 0.25633324E+03</rscale>
<asrwt>0</asrwt>
<pdfrwt beam="1">  1       21 0.48101516E-01 0.25633324E+03</pdfrwt>
<pdfrwt beam="2">  1        2 0.32418041E+00 0.25633324E+03</pdfrwt>
<totfact> 0.33368054E+02</totfact>
</mgrwt>
</event>
<event>
 5    0  0.1014204E+000  0.2849536E+03  0.7546771E-02  0.1093014E+00
         21   -1    0    0  501  502  0.00000000000E+00  0.00000000000E+00  0.11824492850E+03  0.11824492850E+03  0.00000000000E+00 0. -1.
          1   -1    0    0  503    0 -0.00000000000E+00 -0.00000000000E+00 -0.29277821387E+04  0.29277821387E+04  0.00000000000E+00 0.  1.
         25    1    1    2    0    0 -0.19527914725E+02 -0.25759532768E+03 -0.79171384170E+02  0.29770757526E+03  0.12500000000E+03 0.  0.
         21    1    1    2  503  502  0.29391118311E+01  0.21090745204E+02 -0.11565571097E+04  0.11567531310E+04  0.00000000000E+00 0. -1.
          1    1    1    2  501    0  0.16588802894E+02  0.23650458248E+03 -0.15738087163E+04  0.15915663609E+04  0.00000000000E+00 0.  1.
<mgrwt>
<rscale>  4 0.28495359E+03</rscale>
<asrwt>0</asrwt>
<pdfrwt beam="1">  1       21 0.18191529E-01 0.28495359E+03</pdfrwt>
<pdfrwt beam="2">  1        1 0.45042799E+00 0.28495359E+03</pdfrwt>
<totfact> 0.24310474E+02</totfact>
</mgrwt>
</event>
<event>
 5    0  0.1014204E+000  0.2814632E+03  0.7546771E-02  0.1094892E+00
          4   -1    0    0  503    0 -0.00000000000E+00  0.00000000000E+00  0.25662028511E+03  0.25662028511E+03  0.00000000000E+00 0.  1.
         21   -1    0    0  501  502  0.00000000000E+00 -0.00000000000E+00 -0.13043368728E+04  0.13043368728E+04  0.00000000000E+00 0. -1.
         25    1    1    2    0    0 -0.26866113573E+02  0.25128892632E+03 -0.11689108620E+04  0.12024331649E+04  0.12500000000E+03 0.  0.
         21    1    1    2  503  502  0.64885668777E+02 -0.11734688551E+01 -0.21129595936E+02  0.68249445904E+02  0.00000000000E+00 0. -1.
          4    1    1    2  501    0 -0.38019555203E+02 -0.25011545747E+03  0.14232387032E+03  0.29027454712E+03  0.00000000000E+00 0.  1.
<mgrwt>
<rscale>  4 0.28146322E+03</rscale>
<asrwt>0</asrwt>
<pdfrwt beam="1">  1       21 0.20066721E+00 0.28146322E+03</pdfrwt>
<pdfrwt beam="2">  1        4 0.39480043E-01 0.28146322E+03</pdfrwt>
<totfact> 0.33418999E+01</totfact>
</mgrwt>
</event>
<event>
 5    0  0.1014204E+000  0.3569528E+03  0.7546771E-02  0.1059797E+00
          2   -1    0    0  503    0 -0.00000000000E+00  0.00000000000E+00  0.18391827638E+04  0.18391827638E+04  0.00000000000E+00 0. -1.
         21   -1    0    0  501  502  0.00000000000E+00 -0.00000000000E+00 -0.97203602220E+02  0.97203602220E+02  0.00000000000E+00 0. -1.
         25    1    1    2    0    0 -0.42635650331E+02  0.34890241896E+03  0.42974949462E+03  0.56908727341E+03  0.12500000000E+03 0.  0.
         21    1    1    2  503  502  0.56087075476E+02 -0.44884946482E+02  0.37767440772E+03  0.38444554452E+03  0.00000000000E+00 0. -1.
          2    1    1    2  501    0 -0.13451425146E+02 -0.30401747247E+03  0.93455525919E+03  0.98285354804E+03  0.00000000000E+00 0. -1.
<mgrwt>
<rscale>  4 0.35695284E+03</rscale>
<asrwt>0</asrwt>
<pdfrwt beam="1">  1       21 0.14954402E-01 0.35695284E+03</pdfrwt>
<pdfrwt beam="2">  1        2 0.28295117E+00 0.35695284E+03</pdfrwt>
<totfact> 0.43297673E+03</totfact>
</mgrwt>
</event>
<event>
 5    0  0.1014204E+000  0.2595050E+03  0.7546771E-02  0.1107441E+00
         21   -1    0    0  501  502  0.00000000000E+00  0.00000000000E+00  0.39759388426E+03  0.39759388426E+03  0.00000000000E+00 0.  1.
          2   -1    0    0  503    0 -0.00000000000E+00 -0.00000000000E+00 -0.20130869833E+03  0.20130869833E+03  0.00000000000E+00 0.  1.
         25    1    1    2    0    0  0.17590755820E+03 -0.14413319000E+03  0.24701113030E+03  0.35826993174E+03  0.12500000000E+03 0.  0.
         21    1    1    2  503  502 -0.21846407972E+02  0.26049481235E+02 -0.30140363803E+02  0.45434376237E+02  0.00000000000E+00 0. -1.
          2    1    1    2  501    0 -0.15406115023E+03  0.11808370876E+03 -0.20585580568E+02  0.19519827461E+03  0.00000000000E+00 0.  1.
<mgrwt>
<rscale>  4 0.25950500E+03</rscale>
<asrwt>0</asrwt>
<pdfrwt beam="1">  1       21 0.61168290E-01 0.25950500E+03</pdfrwt>
<pdfrwt beam="2">  1        2 0.30970569E-01 0.25950500E+03</pdfrwt>
<totfact> 0.50921488E+03</totfact>
</mgrwt>
</event>
<event>
 5    0  0.1014204E+000  0.3483123E+03  0.7546771E-02  0.1063310E+00
          3   -1    0    0  503    0 -0.00000000000E+00  0.00000000000E+00  0.75646106276E+03  0.75646106276E+03  0.00000000000E+00 0. -1.
         21   -1    0    0  501  502  0.00000000000E+00 -0.00000000000E+00 -0.63898588638E+03  0.63898588638E+03  0.00000000000E+00 0.  1.
         25    1    1    2    0    0  0.53946303402E+02  0.32194757183E+03 -0.52103807193E+03  0.62742817522E+03  0.12500000000E+03 0.  0.
         21    1    1    2  503  502 -0.41374111209E+02 -0.47602357092E+01  0.30408719729E+03  0.30692588759E+03  0.00000000000E+00 0.  1.
          3    1    1    2  501    0 -0.12572192193E+02 -0.31718733612E+03  0.33442605103E+03  0.46109288633E+03  0.00000000000E+00 0. -1.
<mgrwt>
<rscale>  4 0.34831228E+03</rscale>
<asrwt>0</asrwt>
<pdfrwt beam="1">  1       21 0.98305521E-01 0.34831228E+03</pdfrwt>
<pdfrwt beam="2">  1        3 0.11637862E+00 0.34831228E+03</pdfrwt>
<totfact> 0.25247712E+01</totfact>
</mgrwt>
</event>
<event>
 5    0  0.1014204E+000  0.2494919E+03  0.7546771E-02  0.1113626E+00
         21   -1    0    0  501  502  0.00000000000E+00  0.00000000000E+00  0.13745336182E+04  0.13745336182E+04  0.00000000000E+00 0. -1.
          2   -1    0    0  503    0 -0.00000000000E+00 -0.00000000000E+00 -0.14677878340E+04  0.14677878340E+04  0.00000000000E+00 0.  1.
         25    1    1    2    0    0 -0.13675772351E+02  0.21526818861E+03  0.13447003163E+04  0.13676152092E+04  0.12500000000E+03 0.  0.
         21    1    1    2  503  502  0.33294090027E+02  0.28774189810E+02 -0.55945176334E+02  0.71178038643E+02  0.00000000000E+00 0. -1.
          2    1    1    2  501    0 -0.19618317677E+02 -0.24404237842E+03 -0.13820093558E+04  0.14035282044E+04  0.00000000000E+00 0.  1.
<mgrwt>
<rscale>  4 0.24949188E+03</rscale>
<asrwt>0</asrwt>
<pdfrwt beam="1">  1       21 0.21146671E+00 0.24949188E+03</pdfrwt>
<pdfrwt beam="2">  1        2 0.22581351E+00 0.24949188E+03</pdfrwt>
<totfact> 0.19413932E+01</totfact>
</mgrwt>
</event>
