<event>
 5    0  0.1856407E+000  0.2359635E+03  0.7546771E-02  0.1122511E+00
         21   -1    0    0  502  501  0.00000000000E+00  0.00000000000E+00  0.16350397568E+04  0.16350397568E+04  0.00000000000E+00 0.  1.
         21   -1    0    0  503  502 -0.00000000000E+00 -0.00000000000E+00 -0.77942931476E+02  0.77942931476E+02  0.00000000000E+00 0.  1.
         25    1    1    2    0    0 -0.19766584308E+03 -0.31336840592E+02  0.14621641525E+04  0.14810816291E+04  0.12500000000E+03 0.  0.
         21    1    1    2  503  504  0.66165095604E+02 -0.99703706401E+01  0.45333733123E+01  0.67065487701E+02  0.00000000000E+00 0.  1.
         21    1    1    2  504  501  0.13150074747E+03  0.41307211232E+02  0.90399299534E+02  0.16483557153E+03  0.00000000000E+00 0.  1.
<mgrwt>
<rscale>  4 0.23596352E+03</rscale>
<asrwt>0</asrwt>
<pdfrwt beam="1">  1       21 0.25154455E+00 0.23596352E+03</pdfrwt>
<pdfrwt beam="2">  1       21 0.11991221E-01 0.23596352E+03</pdfrwt>
<totfact> 0.36653869E+03</totfact>
</mgrwt>
</event>
<event>
 5    0  0.1856407E+000  0.3253477E+03  0.7546771E-02  0.1074262E+00
         21   -1    0    0  502  501  0.00000000000E+00  0.00000000000E+00  0.15920101388E+03  0.15920101388E+03  0.00000000000E+00 0.  1.
         21   -1    0    0  503  502 -0.00000000000E+00 -0.00000000000E+00 -0.84113679613E+03  0.84113679613E+03  0.00000000000E+00 0.  1.
         25    1    1    2    0    0  0.27372320514E+03  0.97079249350E+02 -0.96521200173E+02  0.33059055608E+03  0.12500000000E+03 0.  0.
         21    1    1    2  503  504 -0.22587787794E+03 -0.11078665974E+02 -0.38597529246E+03  0.44734827480E+03  0.00000000000E+00 0.  1.
         21    1    1    2  504  501 -0.47845327200E+02 -0.86000583377E+02 -0.19943928961E+03  0.22239897913E+03  0.00000000000E+00 0.  1.
<mgrwt>
<rscale>  4 0.32303279E+03</rscale>
<asrwt>0</asrwt>
<pdfrwt beam="1">  1       21 0.24492464E-01 0.32534774E+03</pdfrwt>
<pdfrwt beam="2">  1       21 0.12940566E+00 0.32534774E+03</pdfrwt>
<totfact> 0.63512402E+03</totfact>
</mgrwt>
</event>
<event>
 5    0  0.1856407E+000  0.2627447E+03  0.7546771E-02  0.1105505E+00
         21   -1    0    0  502  501  0.00000000000E+00  0.00000000000E+00  0.68400201814E+03  0.68400201814E+03  0.00000000000E+00 0. -1.
         21   -1    0    0  503  502 -0.00000000000E+00 -0.00000000000E+00 -0.46960533101E+03  0.46960533101E+03  0.00000000000E+00 0. -1.
         25    1    1    2    0    0  0.22375759829E+03  0.57812774361E+02  0.62306569048E+03  0.67619940426E+03  0.12500000000E+03 0.  0.
         21    1    1    2  503  504 -0.12662098885E+03 -0.12199422084E+02 -0.14588408698E+03  0.19355585125E+03  0.00000000000E+00 0.  1.
         21    1    1    2  504  501 -0.97136609439E+02 -0.45613352277E+02 -0.26278491637E+03  0.28385209365E+03  0.00000000000E+00 0. -1.
<mgrwt>
<rscale>  4 0.26274470E+03</rscale>
<asrwt>0</asrwt>
<pdfrwt beam="1">  1       21 0.10523108E+00 0.26274470E+03</pdfrwt>
<pdfrwt beam="2">  1       21 0.72246974E-01 0.26274470E+03</pdfrwt>
<totfact> 0.11826915E+03</totfact>
</mgrwt>
</event>
<event>
 5    0  0.2373983E+000  0.2358746E+03  0.7546771E-02  0.1122572E+00
         21   -1    0    0  502  501  0.00000000000E+00  0.00000000000E+00  0.58654170348E+03  0.58654170348E+03  0.00000000000E+00 0.  1.
         21   -1    0    0  503  502 -0.00000000000E+00 -0.00000000000E+00 -0.11049637596E+03  0.11049637596E+03  0.00000000000E+00 0.  1.
         25    1    1    2    0    0  0.18277283493E+03  0.81276854553E+02  0.41885027869E+03  0.48069989831E+03  0.12500000000E+03 0.  0.
         21    1    1    2  503  504 -0.15359732995E+03 -0.86130974521E+02  0.61332825328E+02  0.18647359063E+03  0.00000000000E+00 0.  1.
         21    1    1    2  504  501 -0.29175504981E+02  0.48541199684E+01 -0.41377765084E+01  0.29864590504E+02  0.00000000000E+00 0.  1.
<mgrwt>
<rscale>  4 0.23587462E+03</rscale>
<asrwt>0</asrwt>
<pdfrwt beam="1">  1       21 0.90237184E-01 0.23587462E+03</pdfrwt>
<pdfrwt beam="2">  1       21 0.16999443E-01 0.23587462E+03</pdfrwt>
<totfact> 0.31847348E+04</totfact>
</mgrwt>
</event>
<event>
 5    0  0.1856407E+000  0.3074644E+03  0.7546771E-02  0.1081568E+00
         21   -1    0    0  502  501  0.00000000000E+00  0.00000000000E+00  0.12394077256E+04  0.12394077256E+04  0.00000000000E+00 0.  1.
         21   -1    0    0  503  502 -0.00000000000E+00 -0.00000000000E+00 -0.41230760027E+03  0.41230760027E+03  0.00000000000E+00 0.  1.
         25    1    1    2    0    0 -0.78498036503E+02  0.27429963800E+03  0.11212916389E+04  0.11637534844E+04  0.12500000000E+03 0.  0.
         21    1    1    2  503  504  0.65735822127E+02 -0.19420636503E+03 -0.33834420271E+03  0.39561864217E+03  0.00000000000E+00 0.  1.
         21    1    1    2  504  501  0.12762214376E+02 -0.80093272969E+02  0.44152689197E+02  0.92343199284E+02  0.00000000000E+00 0. -1.
<mgrwt>
<rscale>  4 0.30746438E+03</rscale>
<asrwt>0</asrwt>
<pdfrwt beam="1">  1       21 0.19067811E+00 0.30746438E+03</pdfrwt>
<pdfrwt beam="2">  1       21 0.63431939E-01 0.30746438E+03</pdfrwt>
<totfact> 0.31675295E+02</totfact>
</mgrwt>
</event>
<event>
 5    0  0.2038348E+000  0.2686858E+03  0.7546771E-02  0.1102034E+00
         21   -1    0    0  502  501  0.00000000000E+00  0.00000000000E+00  0.11198796257E+03  0.11198796257E+03  0.00000000000E+00 0.  1.
         21   -1    0    0  503  502 -0.00000000000E+00 -0.00000000000E+00 -0.83588347724E+03  0.83588347724E+03  0.00000000000E+00 0.  1.
         25    1    1    2    0    0 -0.83965400140E+02 -0.22252381212E+03 -0.11585733445E+03  0.29260033720E+03  0.12500000000E+03 0.  0.
         21    1    1    2  503  504  0.24341789274E+02  0.39600737236E+02 -0.71510895710E+02  0.85290968455E+02  0.00000000000E+00 0.  1.
         21    1    1    2  504  501  0.59623610866E+02  0.18292307489E+03 -0.53652728451E+03  0.56998013415E+03  0.00000000000E+00 0.  1.
<mgrwt>
<rscale>  4 0.26868576E+03</rscale>
<asrwt>0</asrwt>
<pdfrwt beam="1">  1       21 0.17228918E-01 0.26868576E+03</pdfrwt>
<pdfrwt beam="2">  1       21 0.12859745E+00 0.26868576E+03</pdfrwt>
<totfact> 0.12909950E+04</totfact>
</mgrwt>
</event>
<event>
 5    0  0.2043487E+000  0.2428729E+03  0.7546771E-02  0.1117894E+00
         21   -1    0    0  502  501  0.00000000000E+00  0.00000000000E+00  0.30274925158E+03  0.30274925158E+03  0.00000000000E+00 0.  1.
         21   -1    0    0  503  502 -0.00000000000E+00 -0.00000000000E+00 -0.22366598161E+03  0.22366598161E+03  0.00000000000E+00 0.  1.
         25    1    1    2    0    0  0.48013952239E+02  0.20262509105E+03  0.16201117831E+03  0.29195014819E+03  0.12500000000E+03 0.  0.
         21    1    1    2  503  504 -0.65213864407E+02 -0.16687847601E+03 -0.61848203161E+02  0.18954280282E+03  0.00000000000E+00 0.  1.
         21    1    1    2  504  501  0.17199912168E+02 -0.35746615034E+02 -0.21079705175E+02  0.44922282169E+02  0.00000000000E+00 0.  1.
<mgrwt>
<rscale>  4 0.24287294E+03</rscale>
<asrwt>0</asrwt>
<pdfrwt beam="1">  1       21 0.46576808E-01 0.24287294E+03</pdfrwt>
<pdfrwt beam="2">  1       21 0.34410151E-01 0.24287294E+03</pdfrwt>
<totfact> 0.35054367E+04</totfact>
</mgrwt>
</event>
<event>
 5    0  0.1856407E+000  0.3894294E+03  0.7546771E-02  0.1047503E+00
         21   -1    0    0  502  501  0.00000000000E+00  0.00000000000E+00  0.24406231738E+03  0.24406231738E+03  0.00000000000E+00 0. -1.
         21   -1    0    0  503  502 -0.00000000000E+00 -0.00000000000E+00 -0.61926975173E+03  0.61926975173E+03  0.00000000000E+00 0. -1.
         25    1    1    2    0    0 -0.29466938666E+03  0.22181126002E+03 -0.11774143112E+03  0.40683943652E+03  0.12500000000E+03 0.  0.
         21    1    1    2  503  504  0.11100008369E+03 -0.11978932952E+03 -0.81920240307E+02  0.18270585053E+03  0.00000000000E+00 0. -1.
         21    1    1    2  504  501  0.18366930296E+03 -0.10202193051E+03 -0.17554576292E+03  0.27378678207E+03  0.00000000000E+00 0. -1.
<mgrwt>
<rscale>  4 0.38942943E+03</rscale>
<asrwt>0</asrwt>
<pdfrwt beam="1">  1       21 0.37548050E-01 0.38942943E+03</pdfrwt>
<pdfrwt beam="2">  1       21 0.95272267E-01 0.38942943E+03</pdfrwt>
<totfact> 0.56611270E+03</totfact>
</mgrwt>
</event>
<event>
 5    0  0.1856407E+000  0.2412994E+03  0.7546771E-02  0.1118930E+00
         21   -1    0    0  502  501  0.00000000000E+00  0.00000000000E+00  0.21256179018E+04  0.21256179018E+04  0.00000000000E+00 0. -1.
         21   -1    0    0  503  502 -0.00000000000E+00 -0.00000000000E+00 -0.38848511446E+02  0.38848511446E+02  0.00000000000E+00 0. -1.
         25    1    1    2    0    0 -0.16768225644E+03 -0.12034568338E+03  0.17574592311E+04  0.17739471164E+04  0.12500000000E+03 0.  0.
         21    1    1    2  503  504  0.27032297339E+02  0.73473529588E+01  0.61821031987E+02  0.67871707587E+02  0.00000000000E+00 0. -1.
         21    1    1    2  504  501  0.14064995910E+03  0.11299833043E+03  0.26748912721E+03  0.32264758925E+03  0.00000000000E+00 0. -1.
<mgrwt>
<rscale>  4 0.24129945E+03</rscale>
<asrwt>0</asrwt>
<pdfrwt beam="1">  1       21 0.32701805E+00 0.24129945E+03</pdfrwt>
<pdfrwt beam="2">  1       21 0.59766957E-02 0.24129945E+03</pdfrwt>
<totfact> 0.44818823E+03</totfact>
</mgrwt>
</event>
<event>
 5    0  0.2402804E+000  0.2656640E+03  0.7546771E-02  0.1103787E+00
         21   -1    0    0  502  501  0.00000000000E+00  0.00000000000E+00  0.17253617423E+03  0.17253617423E+03  0.00000000000E+00 0.  1.
         21   -1    0    0  503  502 -0.00000000000E+00 -0.00000000000E+00 -0.38540547212E+03  0.38540547212E+03  0.00000000000E+00 0.  1.
         25    1    1    2    0    0 -0.10388028230E+03 -0.21014572040E+03 -0.77745898941E+02  0.27680636130E+03  0.12500000000E+03 0.  0.
         21    1    1    2  503  504  0.57011962908E+02  0.15184614016E+03 -0.54385636881E+02  0.17107136433E+03  0.00000000000E+00 0.  1.
         21    1    1    2  504  501  0.46868319388E+02  0.58299580246E+02 -0.80737762073E+02  0.11006392072E+03  0.00000000000E+00 0.  1.
<mgrwt>
<rscale>  4 0.26566395E+03</rscale>
<asrwt>0</asrwt>
<pdfrwt beam="1">  1       21 0.26544027E-01 0.26566395E+03</pdfrwt>
<pdfrwt beam="2">  1       21 0.59293149E-01 0.26566395E+03</pdfrwt>
<totfact> 0.34680650E+04</totfact>
</mgrwt>
</event>
<event>
 5    0  0.1856407E+000  0.3355875E+03  0.7546771E-02  0.1068691E+00
         21   -1    0    0  502  501  0.00000000000E+00  0.00000000000E+00  0.26722252116E+03  0.26722252116E+03  0.00000000000E+00 0. -1.
         21   -1    0    0  503  502 -0.00000000000E+00 -0.00000000000E+00 -0.41092498324E+03  0.41092498324E+03  0.00000000000E+00 0.  1.
         25    1    1    2    0    0 -0.22775597481E+03 -0.21241742682E+03 -0.13342981512E+03  0.36114050291E+03  0.12500000000E+03 0.  0.
         21    1    1    2  503  504  0.49445065939E+02  0.45064909628E+02  0.21814480623E+02  0.70367124357E+02  0.00000000000E+00 0. -1.
         21    1    1    2  504  501  0.17831090887E+03  0.16735251719E+03 -0.32087127585E+02  0.24663987713E+03  0.00000000000E+00 0.  1.
<mgrwt>
<rscale>  4 0.33558747E+03</rscale>
<asrwt>0</asrwt>
<pdfrwt beam="1">  1       21 0.41111157E-01 0.33558747E+03</pdfrwt>
<pdfrwt beam="2">  1       21 0.63219228E-01 0.33558747E+03</pdfrwt>
<totfact> 0.12266982E+04</totfact>
</mgrwt>
</event>
<event>
 5    0  0.1856407E+000  0.3362973E+03  0.7546771E-02  0.1068384E+00
         21   -1    0    0  502  501  0.00000000000E+00  0.00000000000E+00  0.50287530445E+03  0.50287530445E+03  0.00000000000E+00 0. -1.
         21   -1    0    0  503  502 -0.00000000000E+00 -0.00000000000E+00 -0.41466438933E+03  0.41466438933E+03  0.00000000000E+00 0. -1.
         25    1    1    2    0    0  0.70538963574E+02  0.30413008372E+03  0.35954811255E+03  0.49231158674E+03  0.12500000000E+03 0.  0.
         21    1    1    2  503  504 -0.32554985885E+02 -0.16836517014E+03 -0.84505903892E+02  0.19117506484E+03  0.00000000000E+00 0. -1.
         21    1    1    2  504  501 -0.37983977689E+02 -0.13576491358E+03 -0.18683129354E+03  0.23405304220E+03  0.00000000000E+00 0. -1.
<mgrwt>
<rscale>  4 0.33629727E+03</rscale>
<asrwt>0</asrwt>
<pdfrwt beam="1">  1       21 0.77365431E-01 0.33629727E+03</pdfrwt>
<pdfrwt beam="2">  1       21 0.63794521E-01 0.33629727E+03</pdfrwt>
<totfact> 0.30709562E+03</totfact>
</mgrwt>
</event>
<event>
 5    0  0.1856407E+000  0.4250085E+03  0.7546771E-02  0.1035589E+00
         21   -1    0    0  502  501  0.00000000000E+00  0.00000000000E+00  0.15138596492E+03  0.15138596492E+03  0.00000000000E+00 0.  1.
         21   -1    0    0  503  502 -0.00000000000E+00 -0.00000000000E+00 -0.27792029507E+04  0.27792029507E+04  0.00000000000E+00 0.  1.
         25    1    1    2    0    0  0.40269532274E+03 -0.36807204774E+02 -0.20410566211E+03  0.46989617426E+03  0.12500000000E+03 0.  0.
         21    1    1    2  503  504 -0.15563206570E+03  0.47736932385E+00 -0.13166428318E+04  0.13258091546E+04  0.00000000000E+00 0. -1.
         21    1    1    2  504  501 -0.24706325704E+03  0.36329835450E+02 -0.11070684918E+04  0.11348835868E+04  0.00000000000E+00 0.  1.
<mgrwt>
<rscale>  4 0.42456897E+03</rscale>
<asrwt>0</asrwt>
<pdfrwt beam="1">  1       21 0.23290148E-01 0.42500846E+03</pdfrwt>
<pdfrwt beam="2">  1       21 0.42756970E+00 0.42500846E+03</pdfrwt>
<totfact> 0.76829021E+01</totfact>
</mgrwt>
</event>
<event>
 5    0  0.1856407E+000  0.2767373E+03  0.7546771E-02  0.1097484E+00
         21   -1    0    0  502  501  0.00000000000E+00  0.00000000000E+00  0.24623233062E+03  0.24623233062E+03  0.00000000000E+00 0. -1.
         21   -1    0    0  503  502 -0.00000000000E+00 -0.00000000000E+00 -0.28467530504E+03  0.28467530504E+03  0.00000000000E+00 0. -1.
         25    1    1    2    0    0 -0.73110671657E+02 -0.23582487993E+03 -0.42859968185E+02  0.28003664256E+03  0.12500000000E+03 0.  0.
         21    1    1    2  503  504  0.65848108354E+02  0.18639809860E+03 -0.12616689483E+02  0.19808938737E+03  0.00000000000E+00 0. -1.
         21    1    1    2  504  501  0.72625633027E+01  0.49426781326E+02  0.17033683245E+02  0.52781605724E+02  0.00000000000E+00 0. -1.
<mgrwt>
<rscale>  4 0.27673732E+03</rscale>
<asrwt>0</asrwt>
<pdfrwt beam="1">  1       21 0.37881897E-01 0.27673732E+03</pdfrwt>
<pdfrwt beam="2">  1       21 0.43796201E-01 0.27673732E+03</pdfrwt>
<totfact> 0.32373861E+04</totfact>
</mgrwt>
</event>
<event>
 5    0  0.1912794E+000  0.2234513E+03  0.7546771E-02  0.1131336E+00
         21   -1    0    0  502  501  0.00000000000E+00  0.00000000000E+00  0.11018475554E+04  0.11018475554E+04  0.00000000000E+00 0.  1.
         21   -1    0    0  503  502 -0.00000000000E+00 -0.00000000000E+00 -0.11336622788E+03  0.11336622788E+03  0.00000000000E+00 0.  1.
         25    1    1    2    0    0 -0.20970385069E+03  0.21185026638E+02  0.89273244868E+03  0.92575414408E+03  0.12500000000E+03 0.  0.
         21    1    1    2  503  504  0.81681838951E+02  0.41917716652E+02 -0.32682988098E+02  0.97453555578E+02  0.00000000000E+00 0.  1.
         21    1    1    2  504  501  0.12802201173E+03 -0.63102743290E+02  0.12843186692E+03  0.19200608360E+03  0.00000000000E+00 0.  1.
<mgrwt>
<rscale>  4 0.22345130E+03</rscale>
<asrwt>0</asrwt>
<pdfrwt beam="1">  1       21 0.16951500E+00 0.22345130E+03</pdfrwt>
<pdfrwt beam="2">  1       21 0.17440959E-01 0.22345130E+03</pdfrwt>
<totfact> 0.62432547E+03</totfact>
</mgrwt>
</event>
