<LesHouchesEvents version="3.0">
  <!--
  <scalesfunctionalform>
    muR  H_T/2 := sum_i mT(i)/2, i=final state
    muF1 H_T/2 := sum_i mT(i)/2, i=final state
    muF2 H_T/2 := sum_i mT(i)/2, i=final state
    QES  H_T/2 := sum_i mT(i)/2, i=final state
  </scalesfunctionalform>
HERWIG6   
  -->
  <header>
       94
  </header>
  <init>
   2212   2212 0.65000000D+04 0.65000000D+04 -1 -1   244800   244800 -4   1
 0.16410471D-03 0.91877932D-05 0.18996412D-05     66
  </init>
  <event>
  7     66 0.18996412E-05 0.55350696E+02 0.75467711E-02 0.93969896E-01
       -2 -1    0    0    0  503 0.00000000E+00 0.00000000E+00 0.78392764E+03 0.78392770E+03 0.32000000E+00 0.0000E+00 0.9000E+01
        1 -1    0    0  501    0 0.00000000E+00 0.00000000E+00 -.48551422E+03 0.48551432E+03 0.32000000E+00 0.0000E+00 0.9000E+01
      -24  2    1    2    0    0 -.46532233E+03 -.19199772E+03 0.28170563E+03 0.58239363E+03 0.80226447E+02 0.0000E+00 0.0000E+00
       25  1    1    2    0    0 0.46998601E+03 0.15089560E+03 -.13746100E+03 0.52742474E+03 0.12500000E+03 0.0000E+00 0.9000E+01
       -2  1    3    3    0  502 -.20412131E+03 -.12640338E+03 0.14320531E+03 0.27955534E+03 0.32000000E+00 0.0000E+00 0.9000E+01
        1  1    3    3  502    0 -.26120102E+03 -.65594339E+02 0.13850032E+03 0.30283829E+03 0.32000000E+00 0.0000E+00 0.9000E+01
       21  1    1    2  501  503 -.46636743E+01 0.41102112E+02 0.15416879E+03 0.15962366E+03 0.75000000E+00 0.0000E+00 0.9000E+01
#aMCatNLO 2  0  0  0  0 0.00000000D+00 0.00000000D+00  -5  6  0 0.00000000D+00 0.00000000D+00 0.00000000D+00 0.00000000D+00 0.00000000D+00
  <mgrwgt>
 0.7809681417D-03    1    2    0
 0.549813415426055D+03 0.000000000000000D+00 0.000000000000000D+00 0.549813415426055D+03
 0.549813415426055D+03 0.000000000000000D+00 0.000000000000000D+00 -.549813415426055D+03
 0.553991522435568D+03 0.467645835534523D+03 0.171520107672986D+03 -.207773511549339D+03
 0.259501757069233D+03 -.205228383420792D+03 -.116639435419963D+03 0.107785503039230D+03
 0.286133551347310D+03 -.262417452113731D+03 -.548806722530234D+02 0.999880085101090D+02
 0.000000000000000D+00 -.000000000000000D+00 0.000000000000000D+00 0.000000000000000D+00
 0.687873044464612D+03 0.000000000000000D+00 0.000000000000000D+00 0.687873044464612D+03
 0.553309597179079D+03 0.000000000000000D+00 0.000000000000000D+00 -.553309597179079D+03
 0.549955599540943D+03 0.469986006551937D+03 0.150895603018304D+03 -.207773511549339D+03
 0.263174678816653D+03 -.204120402592366D+03 -.126404343874564D+03 0.107785503039230D+03
 0.287274329333601D+03 -.261201929669935D+03 -.655933715016623D+02 0.999880085101090D+02
 0.140778033952493D+03 -.466367428963576D+01 0.411021123579220D+02 0.134563447285533D+03
0.248140866470D-03 0.000000000000D+00 0.000000000000D+00 0.255796365643D-03 0.964332769727D-06  6 -2 1 25 -2 1 21 2 0.12060405D+00 0.74694374D-01 0.28088121D+06 0.28088121D+06 0.28088121D+06 0.10866741D+01  1  2  1  1  6  1       -2 0.780968141673D-03 0.100000000000D+01
  </mgrwgt>
  </event>
  <event>
  7     66 0.18996412E-05 0.70250775E+02 0.75467711E-02 0.89443038E-01
       -2 -1    0    0    0  501 0.00000000E+00 0.00000000E+00 0.44631555E+03 0.44631567E+03 0.32000000E+00 0.0000E+00 0.9000E+01
        1 -1    0    0  503    0 0.00000000E+00 0.00000000E+00 -.18459555E+04 0.18459555E+04 0.32000000E+00 0.0000E+00 0.9000E+01
      -24  2    1    2    0    0 0.88232908E+02 -.79950902E+03 -.21771135E+03 0.83722665E+03 0.80935214E+02 0.0000E+00 0.0000E+00
       25  1    1    2    0    0 -.88461045E+02 0.78279482E+03 -.10326498E+04 0.13048309E+04 0.12500000E+03 0.0000E+00 0.9000E+01
       -2  1    3    3    0  502 0.66008213E+01 -.41640088E+03 -.12284764E+03 0.43419455E+03 0.32000000E+00 0.0000E+00 0.9000E+01
        1  1    3    3  502    0 0.81632087E+02 -.38310814E+03 -.94863708E+02 0.40303209E+03 0.32000000E+00 0.0000E+00 0.9000E+01
       21  1    1    2  503  501 0.22813675E+00 0.16714197E+02 -.14927879E+03 0.15021363E+03 0.75000000E+00 0.0000E+00 0.9000E+01
#aMCatNLO 2  0  0  2  5 0.76422947D+02 0.00000000D+00  -5  6  0 0.00000000D+00 0.00000000D+00 0.00000000D+00 0.00000000D+00 0.00000000D+00
  <mgrwgt>
 0.2725743715D-02    1    2    0
 0.869587276091454D+03 0.000000000000000D+00 0.000000000000000D+00 0.869587276091454D+03
 0.869587276091454D+03 0.000000000000000D+00 0.000000000000000D+00 -.869587276091454D+03
 0.872196126126216D+03 -.883471322827214D+02 0.791140512360259D+03 -.333755234190185D+03
 0.442455864883725D+03 0.665794738905803D+01 -.412130184448210D+03 0.160846433511142D+03
 0.424522561172966D+03 0.816891848936634D+02 -.379010327912049D+03 0.172908800679043D+03
 0.000000000000000D+00 0.000000000000000D+00 0.000000000000000D+00 -.000000000000000D+00
 0.870537339736956D+03 0.000000000000000D+00 0.000000000000000D+00 0.870537339736956D+03
 0.946398672084524D+03 0.000000000000000D+00 0.000000000000000D+00 -.946398672084524D+03
 0.864644807710104D+03 -.884610449727505D+02 0.782794820290111D+03 -.333755234190185D+03
 0.446436171380259D+03 0.659964839286116D+01 -.416401398394026D+03 0.160846433511142D+03
 0.428173901419374D+03 0.816332598253742D+02 -.383107618554769D+03 0.172908800679043D+03
 0.776811313117421D+02 0.228136754515165D+00 0.167141966586835D+02 -.758613323475683D+02
0.298309191106D-02 0.000000000000D+00 0.000000000000D+00 0.185904138688D-03 0.399974960345D-05  6 -2 1 25 -2 1 21 2 0.68663800D-01 0.28399257D+00 0.65813517D+06 0.65813517D+06 0.65813517D+06 0.10601766D+01  1  2  1  2  6  2        1 0.272574371490D-02 0.100000000000D+01
  </mgrwgt>
  </event>
  <event>
  7     66 0.18996412E-05 0.54314246E+02 0.75467711E-02 0.94819387E-01
       -2 -1    0    0    0  501 0.00000000E+00 0.00000000E+00 0.11592263E+03 0.11592308E+03 0.32000000E+00 0.0000E+00 0.9000E+01
        1 -1    0    0  503    0 0.00000000E+00 0.00000000E+00 -.21110949E+04 0.21110949E+04 0.32000000E+00 0.0000E+00 0.9000E+01
      -24  2    1    2    0    0 0.19388313E+03 -.43998554E+03 -.88842743E+03 0.10133501E+04 0.79982004E+02 0.0000E+00 0.0000E+00
       25  1    1    2    0    0 -.18685290E+03 0.42973152E+03 -.10875421E+04 0.11907796E+04 0.12500000E+03 0.0000E+00 0.9000E+01
       -2  1    3    3    0  502 0.93854714E+02 -.29475105E+03 -.60607107E+03 0.68044774E+03 0.32000000E+00 0.0000E+00 0.9000E+01
        1  1    3    3  502    0 0.10002842E+03 -.14523449E+03 -.28235636E+03 0.33290233E+03 0.32000000E+00 0.0000E+00 0.9000E+01
       21  1    1    2  503  501 -.70302308E+01 0.10254019E+02 -.19202764E+02 0.22888375E+02 0.75000000E+00 0.0000E+00 0.9000E+01
#aMCatNLO 2  0  0  2  5 0.76422947D+02 0.00000000D+00  -5  6  0 0.00000000D+00 0.00000000D+00 0.00000000D+00 0.00000000D+00 0.00000000D+00
  <mgrwgt>
 0.1203436464D-01    1    2    0
 0.488256430701563D+03 0.000000000000000D+00 0.000000000000000D+00 0.488256430701563D+03
 0.488256430701563D+03 0.000000000000000D+00 0.000000000000000D+00 -.488256430701563D+03
 0.492981344964158D+03 -.190380664925913D+03 0.434876977576343D+03 -.451976025813657D+02
 0.305717303887487D+03 0.916402644971944D+02 -.291523678135595D+03 0.889251963240888D+01
 0.177814212551481D+03 0.987404004287186D+02 -.143353299440748D+03 0.363050829489569D+02
 0.000000000000000D+00 -.000000000000000D+00 0.000000000000000D+00 0.000000000000000D+00
 0.496172713572264D+03 0.000000000000000D+00 0.000000000000000D+00 0.496172713572264D+03
 0.493201887718509D+03 0.000000000000000D+00 0.000000000000000D+00 -.493201887718509D+03
 0.487084195652180D+03 -.186852904042584D+03 0.429731523891233D+03 -.451976025813657D+02
 0.309463015991411D+03 0.938546154550885D+02 -.294753443608154D+03 0.889251963240888D+01
 0.180044789928729D+03 0.100028519374216D+03 -.145232099221734D+03 0.363050829489569D+02
 0.127825997184528D+02 -.703023078672083D+01 0.102540189386546D+02 0.297082585375585D+01
0.144532148640D-02 0.000000000000D+00 0.000000000000D+00 0.185692078773D-03 0.763460061287D-05  6 -2 1 25 -2 1 21 2 0.17833891D-01 0.32477665D+00 0.24161989D+06 0.24161989D+06 0.24161989D+06 0.10915748D+01  1  2  1  2  6  2        1 0.120343646402D-01 0.100000000000D+01
  </mgrwgt>
  </event>
  <event>
  7     66 0.18996412E-05 0.20616269E+02 0.75467711E-02 0.95291315E-01
       21 -1    0    0  503  501 0.00000000E+00 0.00000000E+00 0.42661897E+03 0.42661963E+03 0.75000000E+00 0.0000E+00 0.9000E+01
        1 -1    0    0  501    0 0.00000000E+00 0.00000000E+00 -.68917589E+03 0.68917597E+03 0.32000000E+00 0.0000E+00 0.9000E+01
      -24  2    1    2    0    0 0.32866586E+03 0.26324955E+03 -.51519653E+02 0.43284521E+03 0.85901854E+02 0.0000E+00 0.0000E+00
       25  1    1    2    0    0 -.34248832E+03 -.30146538E+03 -.31699579E+03 0.56946550E+03 0.12500000E+03 0.0000E+00 0.9000E+01
       -2  1    3    3    0  502 0.25550092E+03 0.24560357E+03 -.46056068E+02 0.35738368E+03 0.32000000E+00 0.0000E+00 0.9000E+01
        1  1    3    3  502    0 0.73164936E+02 0.17645981E+02 -.54635853E+01 0.75461525E+02 0.32000000E+00 0.0000E+00 0.9000E+01
        2  1    1    2  503    0 0.13822457E+02 0.38215829E+02 0.10595852E+03 0.11348489E+03 0.32000000E+00 0.0000E+00 0.9000E+01
#aMCatNLO 2  0  0  1  2 0.88512314D+01 0.00000000D+00  -5  6  0 0.00000000D+00 0.00000000D+00 0.00000000D+00 0.00000000D+00 0.00000000D+00
  <mgrwgt>
 0.2706810222D-03    1    2    0
 0.465610245990718D+03 0.000000000000000D+00 0.000000000000000D+00 0.465610245990718D+03
 0.465610245990718D+03 0.000000000000000D+00 0.000000000000000D+00 -.465610245990718D+03
 0.470037700926257D+03 -.335388640735381D+03 -.281836449603470D+03 -.115728629269621D+03
 0.380316569276371D+03 0.261040464389813D+03 0.260915247919114D+03 0.917703776858707D+02
 0.808662217788089D+02 0.743481763455682D+02 0.209212016843560D+02 0.239582515837506D+02
 0.000000000000000D+00 0.000000000000000D+00 0.000000000000000D+00 0.000000000000000D+00
 0.627418161021260D+03 0.000000000000000D+00 0.000000000000000D+00 0.627418161021260D+03
 0.468612067055238D+03 0.000000000000000D+00 0.000000000000000D+00 -.468612067055238D+03
 0.487029502495826D+03 -.342488316925556D+03 -.301465376848165D+03 -.115728629269621D+03
 0.366096274700595D+03 0.255503455622324D+03 0.245606726890973D+03 0.917703776858707D+02
 0.789810377992948D+02 0.731624040415613D+02 0.176428214229662D+02 0.239582515837506D+02
 0.163923413080783D+03 0.138224572616700D+02 0.382158285342258D+02 0.158806093966022D+03
0.337903237782D-05 0.000000000000D+00 0.000000000000D+00 0.456090670333D-05 0.713737722458D-09  6 21 1 25 -2 1 2 2 0.65633722D-01 0.10602708D+00 0.22249419D+06 0.22249419D+06 0.22249419D+06 0.10942879D+01  1  2  1  5  6  1       -2 0.270681022245D-03 0.100000000000D+01
  </mgrwgt>
  </event>
  <event>
  7     66 0.18996412E-05 0.26458543E+02 0.75467711E-02 0.93644974E-01
       21 -1    0    0  503  501 0.00000000E+00 0.00000000E+00 0.15880159E+03 0.15880336E+03 0.75000000E+00 0.0000E+00 0.9000E+01
        1 -1    0    0  501    0 0.00000000E+00 0.00000000E+00 -.26531184E+04 0.26531184E+04 0.32000000E+00 0.0000E+00 0.9000E+01
      -24  2    1    2    0    0 0.47429201E+03 -.16521538E+03 -.16880172E+04 0.17629269E+04 0.79121865E+02 0.0000E+00 0.0000E+00
       25  1    1    2    0    0 -.49817042E+03 0.19515788E+03 -.83609545E+03 0.10004704E+04 0.12500000E+03 0.0000E+00 0.9000E+01
       -2  1    3    3    0  502 0.43915470E+03 -.14226437E+03 -.16025333E+04 0.16676958E+04 0.32000000E+00 0.0000E+00 0.9000E+01
        1  1    3    3  502    0 0.35137319E+02 -.22951009E+02 -.85483822E+02 0.95231120E+02 0.32000000E+00 0.0000E+00 0.9000E+01
        2  1    1    2  503    0 0.23878408E+02 -.29942507E+02 0.29795819E+02 0.48524482E+02 0.32000000E+00 0.0000E+00 0.9000E+01
#aMCatNLO 2  0  0  1  2 0.18591490D+02 0.00000000D+00  -5  6  0 0.00000000D+00 0.00000000D+00 0.00000000D+00 0.00000000D+00 0.00000000D+00
  <mgrwgt>
 0.1507605344D-03    1    2    0
 0.562083906782567D+03 0.000000000000000D+00 0.000000000000000D+00 0.562083906782567D+03
 0.562083906782567D+03 0.000000000000000D+00 0.000000000000000D+00 -.562083906782567D+03
 0.566249090268516D+03 -.485982277088624D+03 0.179874468981365D+03 0.190995900464772D+03
 0.514412586617328D+03 0.449942394908370D+03 -.155785348973756D+03 -.194687122274625D+03
 0.435061366792906D+02 0.360398821802543D+02 -.240891200076086D+02 0.369122180985286D+01
 0.000000000000000D+00 0.000000000000000D+00 -.000000000000000D+00 0.000000000000000D+00
 0.746492317033154D+03 0.000000000000000D+00 0.000000000000000D+00 0.746492317033154D+03
 0.564401945274183D+03 0.000000000000000D+00 0.000000000000000D+00 -.564401945274183D+03
 0.581691329901475D+03 -.498170422146221D+03 0.195157884254910D+03 0.190995900464772D+03
 0.501004423602341D+03 0.439161304185320D+03 -.142266319962903D+03 -.194687122274625D+03
 0.421242343905987D+02 0.351307100964095D+02 -.229490569014632D+02 0.369122180985286D+01
 0.186074274412923D+03 0.238784078644913D+02 -.299425073905436D+02 0.182090371758971D+03
0.614966555927D-05 0.000000000000D+00 0.000000000000D+00 0.183108699205D-04 0.301944803258D-08  6 21 1 25 -2 1 2 2 0.24431145D-01 0.40817210D+00 0.29775095D+06 0.29775095D+06 0.29775095D+06 0.10847937D+01  1  2  1  5  6  1       -2 0.150760534399D-03 0.100000000000D+01
  </mgrwgt>
  </event>
  <event>
  7     66 0.18996412E-05 0.64264369E+02 0.75467711E-02 0.92804529E-01
       -2 -1    0    0    0  501 0.00000000E+00 0.00000000E+00 0.13117628E+04 0.13117629E+04 0.32000000E+00 0.0000E+00 0.9000E+01
        1 -1    0    0  503    0 0.00000000E+00 0.00000000E+00 -.28671772E+03 0.28671790E+03 0.32000000E+00 0.0000E+00 0.9000E+01
      -24  2    1    2    0    0 -.25435255E+02 -.57885879E+03 0.43174583E+03 0.72757470E+03 0.85064885E+02 0.0000E+00 0.0000E+00
       25  1    1    2    0    0 0.31161630E+02 0.56317692E+03 0.61481694E+03 0.84366117E+03 0.12500000E+03 0.0000E+00 0.9000E+01
       -2  1    3    3    0  502 -.48965569E+02 -.33435743E+03 0.27997371E+03 0.43883699E+03 0.32000000E+00 0.0000E+00 0.9000E+01
        1  1    3    3  502    0 0.23530314E+02 -.24450136E+03 0.15177211E+03 0.28873771E+03 0.32000000E+00 0.0000E+00 0.9000E+01
       21  1    1    2  503  501 -.57263751E+01 0.15681870E+02 -.21517662E+02 0.27244903E+02 0.75000000E+00 0.0000E+00 0.9000E+01
#aMCatNLO 2  0  0  2  1 0.81249366D+00 0.00000000D+00  -5  6  0 0.00000000D+00 0.00000000D+00 0.00000000D+00 0.00000000D+00 0.00000000D+00
  <mgrwgt>
 0.7168511933D-03    1    2    0
 0.585920173381141D+03 0.000000000000000D+00 0.000000000000000D+00 0.585920173381141D+03
 0.585920173381141D+03 0.000000000000000D+00 0.000000000000000D+00 -.585920173381141D+03
 0.589499571354812D+03 0.282992828966538D+02 0.571015551730527D+03 0.708881858769433D+02
 0.334128123900023D+03 -.506095418532335D+02 -.329859432604336D+03 -.165236853123094D+02
 0.248212651507447D+03 0.223102589565797D+02 -.241156119126191D+03 -.543645005646339D+02
 0.000000000000000D+00 -.000000000000000D+00 0.000000000000000D+00 -.000000000000000D+00
 0.587259123962627D+03 0.000000000000000D+00 0.000000000000000D+00 0.587259123962627D+03
 0.640437215344353D+03 0.000000000000000D+00 0.000000000000000D+00 -.640437215344353D+03
 0.582056202965270D+03 0.311616299325437D+02 0.563176918324402D+03 0.708881858769433D+02
 0.338328983226423D+03 -.489665935194561D+02 -.334358701746829D+03 -.165236853123094D+02
 0.251574075358718D+03 0.235313387272400D+02 -.244500087052451D+03 -.543645005646339D+02
 0.557370777565689D+02 -.572637514032768D+01 0.156818704748777D+02 -.531780913817260D+02
0.487396564873D-03 0.000000000000D+00 0.000000000000D+00 0.143057105140D-04 0.320635238803D-06  6 -2 1 25 -2 1 21 2 0.20180882D+00 0.44110246D-01 0.34690517D+06 0.34690517D+06 0.34690517D+06 0.10799149D+01  1  2  1  2  6  2        1 0.716851193321D-03 0.100000000000D+01
  </mgrwgt>
  </event>
  <event>
  6     66 0.18996412E-05 0.11313799E+03 0.75467711E-02 0.93686474E-01
       21 -1    0    0  503  501 0.00000000E+00 0.00000000E+00 0.35445633E+03 0.35445712E+03 0.75000000E+00 0.0000E+00 0.9000E+01
        1 -1    0    0  501    0 0.00000000E+00 0.00000000E+00 -.15909084E+04 0.15909085E+04 0.32000000E+00 0.0000E+00 0.9000E+01
       25  1    1    2    0    0 -.12951977E+03 0.49867630E+03 -.10268495E+04 0.11556377E+04 0.12500000E+03 0.0000E+00 0.9000E+01
       -2  1    1    2    0  502 0.22522073E+02 -.34986293E+03 -.19337373E+03 0.40038084E+03 0.32000000E+00 0.0000E+00 0.9000E+01
        1  1    1    2  502    0 0.11628004E+03 -.15613932E+03 -.15575547E+03 0.24931989E+03 0.32000000E+00 0.0000E+00 0.9000E+01
        2  1    1    2  503    0 -.92823517E+01 0.73259457E+01 0.13952664E+03 0.14002720E+03 0.32000000E+00 0.0000E+00 0.9000E+01
#aMCatNLO 2  0  0  1  2 0.26828553D+02 0.00000000D+00  -5  6  0 0.00000000D+00 0.00000000D+00 0.00000000D+00 0.00000000D+00 0.00000000D+00
  <mgrwgt>
 0.4861319899D-03    1    2    0
 0.584334952978158D+03 0.000000000000000D+00 0.000000000000000D+00 0.584334952978158D+03
 0.584334952978158D+03 0.000000000000000D+00 0.000000000000000D+00 -.584334952978158D+03
 0.580360289370809D+03 -.134112676027662D+03 0.502301302005200D+03 -.225610854373520D+03
 0.388453109887807D+03 0.194276358490410D+02 -.347421327755646D+03 0.172675437070042D+03
 0.199856506697700D+03 0.114685040178621D+03 -.154879974249554D+03 0.529354173034780D+02
 0.000000000000000D+00 -.000000000000000D+00 0.000000000000000D+00 0.000000000000000D+00
 0.964841693955380D+03 0.000000000000000D+00 0.000000000000000D+00 0.964841693955380D+03
 0.584456743889749D+03 0.000000000000000D+00 0.000000000000000D+00 -.584456743889749D+03
 0.576176050634638D+03 -.129519804152225D+03 0.498676452267549D+03 -.225610854373520D+03
 0.390805153495175D+03 0.225222496867497D+02 -.349863701604074D+03 0.172675437070042D+03
 0.201748525372075D+03 0.116279906153017D+03 -.156138696388047D+03 0.529354173034780D+02
 0.380568708343242D+03 -.928235168754202D+01 0.732594572457320D+01 0.380384950065631D+03
0.196961201500D-04 0.000000000000D+00 0.000000000000D+00 0.207295537458D-07 0.596934025354D-10  6 21 1 25 -2 1 2 2 0.54531800D-01 0.24475518D+00 0.29553433D+06 0.29553433D+06 0.29553433D+06 0.10850341D+01  1  2  1  5  6  1       -2 0.486131989867D-03 0.100000000000D+01
  </mgrwgt>
  </event>
  <event>
  7     66 0.18996412E-05 0.65237358E+02 0.75467711E-02 0.87374113E-01
       -2 -1    0    0    0  501 0.00000000E+00 0.00000000E+00 0.80715576E+03 0.80715582E+03 0.32000000E+00 0.0000E+00 0.9000E+01
        1 -1    0    0  503    0 0.00000000E+00 0.00000000E+00 -.13860719E+04 0.13860719E+04 0.32000000E+00 0.0000E+00 0.9000E+01
      -24  2    1    2    0    0 0.94647981E+03 -.29134504E+03 -.90974891E+02 0.99783844E+03 0.81848410E+02 0.0000E+00 0.0000E+00
       25  1    1    2    0    0 -.94348954E+03 0.30187332E+03 -.35152744E+03 0.10585351E+04 0.12500000E+03 0.0000E+00 0.9000E+01
       -2  1    3    3    0  502 0.54839103E+03 -.14571353E+03 -.86133825E+02 0.57392011E+03 0.32000000E+00 0.0000E+00 0.9000E+01
        1  1    3    3  502    0 0.39808878E+03 -.14563151E+03 -.48410665E+01 0.42391833E+03 0.32000000E+00 0.0000E+00 0.9000E+01
       21  1    1    2  503  501 -.29902706E+01 -.10528274E+02 -.13641380E+03 0.13685421E+03 0.75000000E+00 0.0000E+00 0.9000E+01
#aMCatNLO 2  0  0  2  1 0.81249366D+00 0.00000000D+00  -5  6  0 0.00000000D+00 0.00000000D+00 0.00000000D+00 0.00000000D+00 0.00000000D+00
  <mgrwgt>
 0.2828270638D-02    1    2    0
 0.100408466252432D+04 0.000000000000000D+00 0.000000000000000D+00 0.100408466252432D+04
 0.100408466252432D+04 0.000000000000000D+00 0.000000000000000D+00 -.100408466252432D+04
 0.100630704430488D+04 -.944988094270209D+03 0.296597141416656D+03 -.126714264424565D+03
 0.568666265666432D+03 0.547546530648583D+03 -.148694984090557D+03 0.382612099653736D+02
 0.433196015077329D+03 0.397441563621626D+03 -.147902157326099D+03 0.884530544591909D+02
 0.000000000000000D+00 -.000000000000000D+00 -.000000000000000D+00 -.000000000000000D+00
 0.100437230405112D+04 0.000000000000000D+00 0.000000000000000D+00 0.100437230405112D+04
 0.111390285126212D+04 0.000000000000000D+00 0.000000000000000D+00 -.111390285126212D+04
 0.100646982861482D+04 -.943489539669593D+03 0.301873317200022D+03 -.126714264424565D+03
 0.568710470588121D+03 0.548393331485616D+03 -.145713531117240D+03 0.382612099653736D+02
 0.433018850367227D+03 0.398086478758121D+03 -.145631512249767D+03 0.884530544591909D+02
 0.110076005743078D+03 -.299027057414391D+01 -.105282738330146D+02 -.109530547210998D+03
0.649100306321D-02 0.000000000000D+00 0.000000000000D+00 0.807886042188D-04 0.397096459089D-05  6 -2 1 25 -2 1 21 2 0.12417766D+00 0.21324157D+00 0.10007165D+07 0.10007165D+07 0.10007165D+07 0.10478433D+01  1  2  1  2  6  2        1 0.282827063784D-02 0.100000000000D+01
  </mgrwgt>
  </event>
  <event>
  7     66 0.18996412E-05 0.27622474E+02 0.75467711E-02 0.93761948E-01
       21 -1    0    0  503  501 0.00000000E+00 0.00000000E+00 0.30528812E+03 0.30528904E+03 0.75000000E+00 0.0000E+00 0.9000E+01
        1 -1    0    0  501    0 0.00000000E+00 0.00000000E+00 -.10837667E+04 0.10837668E+04 0.32000000E+00 0.0000E+00 0.9000E+01
      -24  2    1    2    0    0 0.31874703E+03 0.36268459E+03 -.33990913E+03 0.59594393E+03 0.80443525E+02 0.0000E+00 0.0000E+00
       25  1    1    2    0    0 -.36464795E+03 -.38007949E+03 -.48404959E+03 0.72619388E+03 0.12500000E+03 0.0000E+00 0.9000E+01
       -2  1    3    3    0  502 0.92254798E+02 0.54956274E+02 -.76993592E+02 0.13213348E+03 0.32000000E+00 0.0000E+00 0.9000E+01
        1  1    3    3  502    0 0.22649223E+03 0.30772832E+03 -.26291554E+03 0.46381045E+03 0.32000000E+00 0.0000E+00 0.9000E+01
        2  1    1    2  503    0 0.45900916E+02 0.17394898E+02 0.45480109E+02 0.66918004E+02 0.32000000E+00 0.0000E+00 0.9000E+01
#aMCatNLO 2  0  0  1  2 0.17702724D+02 0.00000000D+00  -5  6  0 0.00000000D+00 0.00000000D+00 0.00000000D+00 0.00000000D+00 0.00000000D+00
  <mgrwgt>
 0.3168855850D-03    1    2    0
 0.516413334697781D+03 0.000000000000000D+00 0.000000000000000D+00 0.516413334697781D+03
 0.516413334697781D+03 0.000000000000000D+00 0.000000000000000D+00 -.516413334697781D+03
 0.520844784614471D+03 -.341025144327563D+03 -.371127246558974D+03 -.402580111035547D+02
 0.112743969792970D+03 0.971461150127298D+02 0.568067235070311D+02 0.684333449477718D+01
 0.399237914988120D+03 0.243879029314833D+03 0.314320523051943D+03 0.334146766087775D+02
 0.000000000000000D+00 0.000000000000000D+00 0.000000000000000D+00 0.000000000000000D+00
 0.633639574348659D+03 0.000000000000000D+00 0.000000000000000D+00 0.633639574348659D+03
 0.522160425897602D+03 0.000000000000000D+00 0.000000000000000D+00 -.522160425897602D+03
 0.542839068101453D+03 -.364647948075048D+03 -.380079492164332D+03 -.402580111035547D+02
 0.107597116800996D+03 0.922526739467339D+02 0.549522744438963D+02 0.684333449477718D+01
 0.383556274232069D+03 0.226494358616482D+03 0.307732319402473D+03 0.334146766087775D+02
 0.121807541111745D+03 0.459009155118325D+02 0.173948983179635D+02 0.111479148451057D+03
0.411920386559D-05 0.000000000000D+00 0.000000000000D+00 0.192213385594D-03 0.149335397586D-07  6 21 1 25 -2 1 2 2 0.46967458D-01 0.16673335D+00 0.29155026D+06 0.29155026D+06 0.29155026D+06 0.10854710D+01  1  2  1  5  6  1       -2 0.316885585030D-03 0.100000000000D+01
  </mgrwgt>
  </event>
  <event>
  7     66 0.18996412E-05 0.18410585E+02 0.75467711E-02 0.95367972E-01
       21 -1    0    0  503  501 0.00000000E+00 0.00000000E+00 0.96060219E+03 0.96060248E+03 0.75000000E+00 0.0000E+00 0.9000E+01
        1 -1    0    0  501    0 0.00000000E+00 0.00000000E+00 -.32583853E+03 0.32583869E+03 0.32000000E+00 0.0000E+00 0.9000E+01
      -24  2    1    2    0    0 0.30621165E+03 -.31646895E+03 -.11253607E+02 0.44744455E+03 0.78497242E+02 0.0000E+00 0.0000E+00
       25  1    1    2    0    0 -.30238242E+03 0.33760417E+03 0.48106571E+03 0.67265216E+03 0.12500000E+03 0.0000E+00 0.9000E+01
       -2  1    3    3    0  502 -.36186878E+01 -.49584288E+01 0.47944393E+01 0.77955093E+01 0.32000000E+00 0.0000E+00 0.9000E+01
        1  1    3    3  502    0 0.30983033E+03 -.31151052E+03 -.16048046E+02 0.43964905E+03 0.32000000E+00 0.0000E+00 0.9000E+01
        2  1    1    2  503    0 -.38292217E+01 -.21135221E+02 0.16495155E+03 0.16634446E+03 0.32000000E+00 0.0000E+00 0.9000E+01
#aMCatNLO 2  0  0  1  2 0.17702724D+02 0.00000000D+00  -5  6  0 0.00000000D+00 0.00000000D+00 0.00000000D+00 0.00000000D+00 0.00000000D+00
  <mgrwgt>
 0.3056584555D-04    1    2    0
 0.508289256053475D+03 0.000000000000000D+00 0.000000000000000D+00 0.508289256053475D+03
 0.508289256053475D+03 0.000000000000000D+00 0.000000000000000D+00 -.508289256053475D+03
 0.512943684067735D+03 -.304325206158626D+03 0.326881069645202D+03 0.219137304512715D+03
 0.648213925397352D+01 -.364808877175776D+01 -.508685924866367D+01 0.168328268735957D+01
 0.497152688785241D+03 0.307973294930384D+03 -.321794210396539D+03 -.220820587200074D+03
 0.000000000000000D+00 -.000000000000000D+00 -.000000000000000D+00 0.000000000000000D+00
 0.614340431343166D+03 0.000000000000000D+00 0.000000000000000D+00 0.614340431343166D+03
 0.509491456530860D+03 0.000000000000000D+00 0.000000000000000D+00 -.509491456530860D+03
 0.518707880520808D+03 -.302382423727694D+03 0.337604171931947D+03 0.219137304512715D+03
 0.636408591970923D+01 -.362389705681457D+01 -.495333414070642D+01 0.168328268735957D+01
 0.491733438629582D+03 0.309835542476434D+03 -.311515616869236D+03 -.220820587200074D+03
 0.107026482803928D+03 -.382922169192546D+01 -.211352209220049D+02 0.104848974812306D+03
0.109499035982D-05 0.000000000000D+00 0.000000000000D+00 0.617450180276D-05 0.249835967326D-08  6 21 1 25 -2 1 2 2 0.14778492D+00 0.50129016D-01 0.21955099D+06 0.21955099D+06 0.21955099D+06 0.10947279D+01  1  2  1  5  6  1       -2 0.305658455486D-04 0.100000000000D+01
  </mgrwgt>
  </event>
  <event>
  7     66 0.18996412E-05 0.47821248E+02 0.75467711E-02 0.93627558E-01
       -2 -1    0    0    0  503 0.00000000E+00 0.00000000E+00 0.10460952E+04 0.10460953E+04 0.32000000E+00 0.0000E+00 0.9000E+01
        1 -1    0    0  501    0 0.00000000E+00 0.00000000E+00 -.31468109E+03 0.31468125E+03 0.32000000E+00 0.0000E+00 0.9000E+01
      -24  2    1    2    0    0 -.27614280E+03 -.45999512E+03 0.52773238E+03 0.75669573E+03 0.78972143E+02 0.0000E+00 0.0000E+00
       25  1    1    2    0    0 0.27184084E+03 0.44029963E+03 0.15983840E+03 0.55581878E+03 0.12500000E+03 0.0000E+00 0.9000E+01
       -2  1    3    3    0  502 -.68828898E+02 -.17559943E+03 0.21363708E+03 0.28497979E+03 0.32000000E+00 0.0000E+00 0.9000E+01
        1  1    3    3  502    0 -.20731390E+03 -.28439569E+03 0.31409530E+03 0.47171593E+03 0.32000000E+00 0.0000E+00 0.9000E+01
       21  1    1    2  501  503 0.43019647E+01 0.19695496E+02 0.43843368E+02 0.48262024E+02 0.75000000E+00 0.0000E+00 0.9000E+01
#aMCatNLO 2  0  0  1  2 0.17702724D+02 0.00000000D+00  -5  6  0 0.00000000D+00 0.00000000D+00 0.00000000D+00 0.00000000D+00 0.00000000D+00
  <mgrwgt>
 0.2038338219D-02    1    2    0
 0.558912858424520D+03 0.000000000000000D+00 0.000000000000000D+00 0.558912858424520D+03
 0.558912858424520D+03 0.000000000000000D+00 0.000000000000000D+00 -.558912858424520D+03
 0.563112261149914D+03 0.273990690713483D+03 0.450142210927974D+03 -.154180121937273D+03
 0.199845138013480D+03 -.680511811249763D+02 -.172047469165021D+03 0.755432610431527D+02
 0.354868317685645D+03 -.205939509588507D+03 -.278094741762954D+03 0.786368608941208D+02
 0.000000000000000D+00 0.000000000000000D+00 0.000000000000000D+00 0.000000000000000D+00
 0.584741383415775D+03 0.000000000000000D+00 0.000000000000000D+00 0.584741383415775D+03
 0.562951461556355D+03 0.000000000000000D+00 0.000000000000000D+00 -.562951461556355D+03
 0.554218108513409D+03 0.271840836316894D+03 0.440299626974768D+03 -.154180121937273D+03
 0.203170916739916D+03 -.688266239668897D+02 -.175597645067422D+03 0.755432610431527D+02
 0.360618466993857D+03 -.207316177091251D+03 -.284397478121708D+03 0.786368608941208D+02
 0.296853527249470D+02 0.430196474124747D+01 0.196954962143617D+02 0.217899218594203D+02
0.786547249833D-03 0.000000000000D+00 0.000000000000D+00 0.963614760072D-04 0.148915558807D-05  6 -2 1 25 -2 1 21 2 0.16093640D+00 0.48412086D-01 0.29868675D+06 0.29868675D+06 0.29868675D+06 0.10846929D+01  1  2  1  1  6  1       -2 0.203833821902D-02 0.100000000000D+01
  </mgrwgt>
  </event>
  <event>
  7     66 0.18996412E-05 0.41069032E+02 0.75467711E-02 0.93175818E-01
       -2 -1    0    0    0  501 0.00000000E+00 0.00000000E+00 0.35939043E+03 0.35939057E+03 0.32000000E+00 0.0000E+00 0.9000E+01
        1 -1    0    0  503    0 0.00000000E+00 0.00000000E+00 -.11772315E+04 0.11772315E+04 0.32000000E+00 0.0000E+00 0.9000E+01
      -24  2    1    2    0    0 -.18174845E+03 -.52387706E+03 -.26004343E+03 0.61769470E+03 0.80277587E+02 0.0000E+00 0.0000E+00
       25  1    1    2    0    0 0.16994072E+03 0.52979061E+03 -.27019647E+03 0.63102225E+03 0.12500000E+03 0.0000E+00 0.9000E+01
       -2  1    3    3    0  502 -.35768986E+02 -.14100973E+03 -.10576589E+03 0.17986019E+03 0.32000000E+00 0.0000E+00 0.9000E+01
        1  1    3    3  502    0 -.14597946E+03 -.38286733E+03 -.15427754E+03 0.43783451E+03 0.32000000E+00 0.0000E+00 0.9000E+01
       21  1    1    2  503  501 0.11807725E+02 -.59135584E+01 -.28760112E+03 0.28790512E+03 0.75000000E+00 0.0000E+00 0.9000E+01
#aMCatNLO 2  0  0  2  5 0.53806136D+03 0.00000000D+00  -5  6  0 0.00000000D+00 0.00000000D+00 0.00000000D+00 0.00000000D+00 0.00000000D+00
  <mgrwgt>
 0.3691932246D-02    1    2    0
 0.565235630112965D+03 0.000000000000000D+00 0.000000000000000D+00 0.565235630112965D+03
 0.565235630112965D+03 0.000000000000000D+00 0.000000000000000D+00 -.565235630112965D+03
 0.569296108834703D+03 0.175891792332585D+03 0.526810191477423D+03 -.248174935994731D+01
 0.149424395009249D+03 -.342085101654019D+02 -.141786526271179D+03 -.324654989811603D+02
 0.411750756381977D+03 -.141683282167183D+03 -.385023665206244D+03 0.349472483411076D+02
 0.000000000000000D+00 0.000000000000000D+00 -.000000000000000D+00 -.000000000000000D+00
 0.565512606280048D+03 0.000000000000000D+00 0.000000000000000D+00 0.565512606280048D+03
 0.748143734008400D+03 0.000000000000000D+00 0.000000000000000D+00 -.748143734008400D+03
 0.570253542034918D+03 0.169940721089532D+03 0.529790613770247D+03 -.248174935994731D+01
 0.149050203184137D+03 -.357672343480078D+02 -.141005884246834D+03 -.324654989811603D+02
 0.411244645050694D+03 -.145981211847469D+03 -.382871171157872D+03 0.349472483411076D+02
 0.183107950018698D+03 0.118077251059447D+02 -.591355836554076D+01 -.182631127728353D+03
0.829559829262D-03 0.000000000000D+00 0.000000000000D+00 0.158394076346D-03 0.589338285678D-05  6 -2 1 25 -2 1 21 2 0.55290775D-01 0.18111230D+00 0.32414944D+06 0.32414944D+06 0.32414944D+06 0.10820729D+01  1  2  1  2  6  2        1 0.369193224643D-02 0.100000000000D+01
  </mgrwgt>
  </event>
  <event>
  6     66 0.18996412E-05 0.52642751E+02 0.75467711E-02 0.94429389E-01
       -2 -1    0    0    0  501 0.00000000E+00 0.00000000E+00 0.38901998E+03 0.38902011E+03 0.32000000E+00 0.0000E+00 0.9000E+01
        1 -1    0    0  501    0 -.00000000E+00 -.00000000E+00 -.76861210E+03 0.76861216E+03 0.32000000E+00 0.0000E+00 0.9000E+01
       25  1    1    2    0    0 0.41813197E+03 0.17431960E+03 -.38421070E+03 0.60701279E+03 0.12500000E+03 0.0000E+00 0.9000E+01
       -2  1    1    2    0  502 -.23493891E+03 -.86198676E+02 0.28729636E+02 0.25189680E+03 0.32000000E+00 0.0000E+00 0.9000E+01
        1  1    1    2  503    0 -.19227161E+03 -.14428449E+03 -.12920894E+02 0.24073520E+03 0.32000000E+00 0.0000E+00 0.9000E+01
       21  1    1    2  502  503 0.90785505E+01 0.56163567E+02 -.11190165E+02 0.57987486E+02 0.75000000E+00 0.0000E+00 0.9000E+01
#aMCatNLO 2  0  0  5  4 0.10808947D+02 0.00000000D+00  -5  6  0 0.00000000D+00 0.00000000D+00 0.00000000D+00 0.00000000D+00 0.00000000D+00
  <mgrwgt>
 0.3527158054D-02    1    2    0
 0.546814021252895D+03 0.000000000000000D+00 0.000000000000000D+00 0.546814021252895D+03
 0.546814021252895D+03 -.000000000000000D+00 -.000000000000000D+00 -.546814021252895D+03
 0.553435394345435D+03 0.456505746693982D+03 0.192778431605493D+03 -.212378707165722D+03
 0.254223244971390D+03 -.215972120836511D+03 -.770517588177409D+02 0.109765785963822D+03
 0.285969403188965D+03 -.240533625857471D+03 -.115726672787752D+03 0.102612921201900D+03
 0.000000000000000D+00 0.000000000000000D+00 0.000000000000000D+00 0.000000000000000D+00
 0.546814021252895D+03 0.000000000000000D+00 0.000000000000000D+00 0.546814021252895D+03
 0.546814021252895D+03 -.000000000000000D+00 -.000000000000000D+00 -.546814021252895D+03
 0.509111731084703D+03 0.418072334172942D+03 0.174287166864094D+03 -.195982809434241D+03
 0.276898680815290D+03 -.235183342234775D+03 -.862947522856374D+02 0.117961394958219D+03
 0.250023712223394D+03 -.191944648960296D+03 -.144258474899242D+03 0.697036643887529D+02
 0.575939183824029D+02 0.905565702212914D+01 0.562660603207848D+02 0.831775008726882D+01
0.435961448492D-03 0.000000000000D+00 0.000000000000D+00 0.257412473953D-06 0.945608089077D-07  6 -2 1 25 -2 1 21 2 0.59849242D-01 0.11824803D+00 0.25882385D+06 0.25882385D+06 0.25882385D+06 0.10893276D+01  1  2  1  4  6  5        1 0.352715805420D-02 0.100000000000D+01
  </mgrwgt>
  </event>
  <event>
  7     66 0.18996412E-05 0.16367868E+03 0.75467711E-02 0.94680859E-01
       -2 -1    0    0    0  503 0.00000000E+00 0.00000000E+00 0.72712459E+03 0.72712466E+03 0.32000000E+00 0.0000E+00 0.9000E+01
        1 -1    0    0  501    0 0.00000000E+00 0.00000000E+00 -.12401853E+04 0.12401853E+04 0.32000000E+00 0.0000E+00 0.9000E+01
      -24  2    1    2    0    0 -.20579415E+03 0.24009168E+03 -.47264785E+03 0.57439582E+03 0.80866032E+02 0.0000E+00 0.0000E+00
       25  1    1    2    0    0 0.20151623E+03 -.42888707E+03 -.61598332E+03 0.78715523E+03 0.12500000E+03 0.0000E+00 0.9000E+01
       -2  1    3    3    0  502 -.58042901E+02 0.68729878E+02 -.76070236E+02 0.11781153E+03 0.32000000E+00 0.0000E+00 0.9000E+01
        1  1    3    3  502    0 -.14775125E+03 0.17136180E+03 -.39657762E+03 0.45658428E+03 0.32000000E+00 0.0000E+00 0.9000E+01
       21  1    1    2  501  503 0.42779238E+01 0.18879538E+03 0.57557046E+03 0.60575896E+03 0.75000000E+00 0.0000E+00 0.9000E+01
#aMCatNLO 2  0  0  1  2 0.17702724D+02 0.00000000D+00  -5  6  0 0.00000000D+00 0.00000000D+00 0.00000000D+00 0.00000000D+00 0.00000000D+00
  <mgrwgt>
 0.1658313134D-01    1    2    0
 0.397819502728596D+03 0.000000000000000D+00 0.000000000000000D+00 0.397819502728596D+03
 0.397819502728596D+03 0.000000000000000D+00 0.000000000000000D+00 -.397819502728596D+03
 0.403529180664772D+03 0.203886996272418D+03 -.324259104278400D+03 0.222918301528427D+02
 0.113518204956177D+03 -.574889069749890D+02 0.931153819658339D+02 0.301816843905445D+02
 0.278591619836243D+03 -.146398089297429D+03 0.231143722312566D+03 -.524735145433872D+02
 0.000000000000000D+00 0.000000000000000D+00 0.000000000000000D+00 0.000000000000000D+00
 0.217866468340662D+04 0.000000000000000D+00 0.000000000000000D+00 0.217866468340662D+04
 0.413909035836790D+03 0.000000000000000D+00 0.000000000000000D+00 -.413909035836790D+03
 0.490586211029774D+03 0.201516226176250D+03 -.428887065961039D+03 0.222918301528427D+02
 0.948858498598425D+02 -.580414957187546D+02 0.687282707894206D+02 0.301816843905445D+02
 0.232270823259556D+03 -.147752654283780D+03 0.171363411384212D+03 -.524735145433872D+02
 0.177483083509424D+04 0.427792382628442D+01 0.188795383787407D+03 0.176475564756983D+04
0.195533050283D-01 0.000000000000D+00 0.000000000000D+00 0.297915787594D-03 0.145635175875D-06  6 -2 1 25 -2 1 21 2 0.11186531D+00 0.19079771D+00 0.24757937D+06 0.24757937D+06 0.24757937D+06 0.10907771D+01  1  2  1  1  6  1       -2 0.165831313449D-01 0.100000000000D+01
  </mgrwgt>
  </event>
  <event>
  7     66 0.18996412E-05 0.37714547E+02 0.75467711E-02 0.95302936E-01
       21 -1    0    0  503  501 0.00000000E+00 0.00000000E+00 0.11428143E+03 0.11428389E+03 0.75000000E+00 0.0000E+00 0.9000E+01
        1 -1    0    0  501    0 0.00000000E+00 0.00000000E+00 -.41019552E+04 0.41019552E+04 0.32000000E+00 0.0000E+00 0.9000E+01
      -24  2    1    2    0    0 -.45287303E+03 -.94570856E+01 -.31394531E+04 0.31729823E+04 0.80424408E+02 0.0000E+00 0.0000E+00
       25  1    1    2    0    0 0.46038494E+03 0.17817630E+02 -.88459233E+03 0.10051867E+04 0.12500000E+03 0.0000E+00 0.9000E+01
       -2  1    3    3    0  502 -.10209424E+03 -.13662975E+02 -.51617835E+03 0.52635549E+03 0.32000000E+00 0.0000E+00 0.9000E+01
        1  1    3    3  502    0 -.35077879E+03 0.42058895E+01 -.26232747E+04 0.26466269E+04 0.32000000E+00 0.0000E+00 0.9000E+01
        2  1    1    2  503    0 -.75119079E+01 -.83605446E+01 0.36371633E+02 0.38070009E+02 0.32000000E+00 0.0000E+00 0.9000E+01
#aMCatNLO 2  0  0  1  2 0.17702724D+02 0.00000000D+00  -5  6  0 0.00000000D+00 0.00000000D+00 0.00000000D+00 0.00000000D+00 0.00000000D+00
  <mgrwgt>
 0.3551461259D-03    1    2    0
 0.562145269256416D+03 0.000000000000000D+00 0.000000000000000D+00 0.562145269256416D+03
 0.562145269256416D+03 0.000000000000000D+00 0.000000000000000D+00 -.562145269256416D+03
 0.566217577201639D+03 0.456591246772272D+03 0.135953564866603D+02 0.310349713041652D+03
 0.109359844333036D+03 -.102818334879979D+03 -.144735345246772D+02 -.343290309128769D+02
 0.448713116978157D+03 -.353772911892293D+03 0.878178038016852D+00 -.276020682128775D+03
 0.000000000000000D+00 -.000000000000000D+00 -.000000000000000D+00 0.000000000000000D+00
 0.833702590895012D+03 0.000000000000000D+00 0.000000000000000D+00 0.833702590895012D+03
 0.562289670149150D+03 0.000000000000000D+00 0.000000000000000D+00 -.562289670149150D+03
 0.569397667846274D+03 0.460384938741294D+03 0.178176301430612D+02 0.310349713041652D+03
 0.108570702495879D+03 -.102090305409686D+03 -.136632579712289D+02 -.343290309128769D+02
 0.446378347736666D+03 -.350782725457199D+03 0.420617238118470D+01 -.276020682128775D+03
 0.271645542965343D+03 -.751190787440848D+01 -.836054455301698D+01 0.271412920745862D+03
0.111113100423D-03 0.000000000000D+00 0.000000000000D+00 0.201355806736D-03 0.517868890875D-06  6 21 1 25 -2 1 2 2 0.17581946D-01 0.63107011D+00 0.22204517D+06 0.22204517D+06 0.22204517D+06 0.10943546D+01  1  2  1  5  6  1       -2 0.355146125924D-03 0.100000000000D+01
  </mgrwgt>
  </event>
  <event>
  7     66 0.18996412E-05 0.32583548E+02 0.75467711E-02 0.94292724E-01
       -2 -1    0    0    0  503 0.00000000E+00 0.00000000E+00 0.42740160E+03 0.42740172E+03 0.32000000E+00 0.0000E+00 0.9000E+01
        1 -1    0    0  501    0 0.00000000E+00 0.00000000E+00 -.77739629E+03 0.77739635E+03 0.32000000E+00 0.0000E+00 0.9000E+01
      -24  2    1    2    0    0 -.29482251E+03 0.36919908E+03 -.36914639E+03 0.60496745E+03 0.80549873E+02 0.0000E+00 0.0000E+00
       25  1    1    2    0    0 0.34277709E+03 -.33802415E+03 -.61276794E+02 0.50113502E+03 0.12500000E+03 0.0000E+00 0.9000E+01
       -2  1    3    3    0  502 -.97550096E+02 0.85081503E+02 -.67298072E+02 0.14589043E+03 0.32000000E+00 0.0000E+00 0.9000E+01
        1  1    3    3  502    0 -.19727242E+03 0.28411758E+03 -.30184831E+03 0.45907702E+03 0.32000000E+00 0.0000E+00 0.9000E+01
       21  1    1    2  501  503 -.47954579E+02 -.31174934E+02 0.80428491E+02 0.98695607E+02 0.75000000E+00 0.0000E+00 0.9000E+01
#aMCatNLO 2  0  0  1  2 0.17702724D+02 0.00000000D+00  -5  6  0 0.00000000D+00 0.00000000D+00 0.00000000D+00 0.00000000D+00 0.00000000D+00
  <mgrwgt>
 0.2235793896D-03    1    2    0
 0.508656819251454D+03 0.000000000000000D+00 0.000000000000000D+00 0.508656819251454D+03
 0.508656819251454D+03 0.000000000000000D+00 0.000000000000000D+00 -.508656819251454D+03
 0.513147429428161D+03 0.318489899581003D+03 -.353813084065661D+03 0.145174962502345D+03
 0.132137048913932D+03 -.103720617090508D+03 0.810659266396185D+02 -.114257964320754D+02
 0.372029160160815D+03 -.214769282490495D+03 0.272747157426043D+03 -.133749166070270D+03
 0.000000000000000D+00 -.000000000000000D+00 -.000000000000000D+00 0.000000000000000D+00
 0.644517941790716D+03 0.000000000000000D+00 0.000000000000000D+00 0.644517941790716D+03
 0.515515919208475D+03 0.000000000000000D+00 0.000000000000000D+00 -.515515919208475D+03
 0.518128585898506D+03 0.342777092720246D+03 -.338024150755362D+03 0.145174962502345D+03
 0.129940719966239D+03 -.975485222335568D+02 0.850783620627872D+02 -.114257964320754D+02
 0.370850984049126D+03 -.197273991924642D+03 0.284120722679338D+03 -.133749166070270D+03
 0.141113571085320D+03 -.479545785620476D+02 -.311749339867627D+02 0.129002022582241D+03
0.343516046742D-04 0.000000000000D+00 0.000000000000D+00 0.272253950030D-03 0.542751319846D-06  6 -2 1 25 -2 1 21 2 0.65753981D-01 0.11959921D+00 0.26517435D+06 0.26517435D+06 0.26517435D+06 0.10885391D+01  1  2  1  1  6  1       -2 0.223579389644D-03 0.100000000000D+01
  </mgrwgt>
  </event>
  <event>
  7     66 0.18996412E-05 0.36335816E+02 0.75467711E-02 0.93860482E-01
       21 -1    0    0  503  501 0.00000000E+00 0.00000000E+00 0.35500553E+03 0.35500632E+03 0.75000000E+00 0.0000E+00 0.9000E+01
        1 -1    0    0  501    0 0.00000000E+00 0.00000000E+00 -.87576522E+03 0.87576528E+03 0.32000000E+00 0.0000E+00 0.9000E+01
      -24  2    1    2    0    0 0.47586375E+03 -.17277472E+03 -.32610769E+03 0.60758363E+03 0.80710783E+02 0.0000E+00 0.0000E+00
       25  1    1    2    0    0 -.46312648E+03 0.20925384E+03 -.22921302E+03 0.57134658E+03 0.12500000E+03 0.0000E+00 0.9000E+01
       -2  1    3    3    0  502 0.33034915E+03 -.96719857E+02 -.25635811E+03 0.42919096E+03 0.32000000E+00 0.0000E+00 0.9000E+01
        1  1    3    3  502    0 0.14551459E+03 -.76054862E+02 -.69749579E+02 0.17839267E+03 0.32000000E+00 0.0000E+00 0.9000E+01
        2  1    1    2  503    0 -.12737263E+02 -.36479120E+02 0.34561008E+02 0.51841390E+02 0.32000000E+00 0.0000E+00 0.9000E+01
#aMCatNLO 2  0  0  1  2 0.17702724D+02 0.00000000D+00  -5  6  0 0.00000000D+00 0.00000000D+00 0.00000000D+00 0.00000000D+00 0.00000000D+00
  <mgrwgt>
 0.2332084381D-03    1    2    0
 0.519615816624810D+03 0.000000000000000D+00 0.000000000000000D+00 0.519615816624810D+03
 0.519615816624810D+03 0.000000000000000D+00 0.000000000000000D+00 -.519615816624810D+03
 0.523999232809032D+03 -.469554622625132D+03 0.190843851666761D+03 0.452468411805750D+02
 0.349247183751222D+03 0.326070488876987D+03 -.108982460056782D+03 -.614365936690373D+02
 0.165985216689365D+03 0.143484133748145D+03 -.818613916099793D+02 0.161897524884622D+02
 0.000000000000000D+00 -.000000000000000D+00 -.000000000000000D+00 0.000000000000000D+00
 0.592018073126595D+03 0.000000000000000D+00 0.000000000000000D+00 0.592018073126595D+03
 0.525155635898970D+03 0.000000000000000D+00 0.000000000000000D+00 -.525155635898970D+03
 0.525305230998230D+03 -.463126483402577D+03 0.209253839746004D+03 0.452468411805750D+02
 0.349659449531711D+03 0.330352057570604D+03 -.967201822994216D+02 -.614365936690373D+02
 0.164985006524241D+03 0.145511688901792D+03 -.760545375708392D+02 0.161897524884622D+02
 0.772240219713833D+02 -.127372630698189D+02 -.364791198757435D+02 0.668624372276247D+02
0.289679127980D-05 0.000000000000D+00 0.000000000000D+00 0.173036859509D-03 0.152080047243D-07  6 21 1 25 -2 1 2 2 0.54616266D-01 0.13473309D+00 0.28643925D+06 0.28643925D+06 0.28643925D+06 0.10860413D+01  1  2  1  5  6  1       -2 0.233208438112D-03 0.100000000000D+01
  </mgrwgt>
  </event>
  <event>
  7     66 0.18996412E-05 0.28787714E+02 0.75467711E-02 0.90478245E-01
       -2 -1    0    0    0  501 0.00000000E+00 0.00000000E+00 0.41221505E+03 0.41221518E+03 0.32000000E+00 0.0000E+00 0.9000E+01
        1 -1    0    0  503    0 0.00000000E+00 0.00000000E+00 -.19302689E+04 0.19302689E+04 0.32000000E+00 0.0000E+00 0.9000E+01
      -24  2    1    2    0    0 -.87483336E+02 -.68265606E+03 -.82450220E+03 0.10768238E+04 0.77928883E+02 0.0000E+00 0.0000E+00
       25  1    1    2    0    0 0.38528587E+02 0.70747364E+03 -.17004778E+03 0.73928658E+03 0.12500000E+03 0.0000E+00 0.9000E+01
       -2  1    3    3    0  502 -.59932776E+02 -.20521660E+03 -.23405581E+03 0.31699845E+03 0.32000000E+00 0.0000E+00 0.9000E+01
        1  1    3    3  502    0 -.27550561E+02 -.47743946E+03 -.59044639E+03 0.75982532E+03 0.32000000E+00 0.0000E+00 0.9000E+01
       21  1    1    2  503  501 0.48954749E+02 -.24817580E+02 -.52350385E+03 0.52637375E+03 0.75000000E+00 0.0000E+00 0.9000E+01
#aMCatNLO 2  0  0  2  5 0.12967922D+03 0.00000000D+00  -5  6  0 0.00000000D+00 0.00000000D+00 0.00000000D+00 0.00000000D+00 0.00000000D+00
  <mgrwgt>
 0.1113912646D-02    1    2    0
 0.759294843018431D+03 0.000000000000000D+00 0.000000000000000D+00 0.759294843018431D+03
 0.759294843018431D+03 0.000000000000000D+00 0.000000000000000D+00 -.759294843018431D+03
 0.762439895746040D+03 0.632574886376918D+02 0.694937337010571D+03 0.280624628971052D+03
 0.227234005799561D+03 -.526356547488050D+02 -.208911558071292D+03 -.722547032732471D+02
 0.528915784491260D+03 -.106218338888869D+02 -.486025778939279D+03 -.208369925697805D+03
 0.000000000000000D+00 0.000000000000000D+00 -.000000000000000D+00 -.000000000000000D+00
 0.762444248393696D+03 0.000000000000000D+00 0.000000000000000D+00 0.762444248393696D+03
 0.104359768323718D+04 0.000000000000000D+00 0.000000000000000D+00 -.104359768323718D+04
 0.772255516752407D+03 0.385285873112808D+02 0.707473638186741D+03 0.280624628971052D+03
 0.225665049089208D+03 -.599333217307739D+02 -.205212010325042D+03 -.722547032732471D+02
 0.521660664054230D+03 -.275500146343017D+02 -.477444048219099D+03 -.208369925697805D+03
 0.286460701735033D+03 0.489547490537948D+02 -.248175796426002D+02 -.281153434843486D+03
0.114343659730D-02 0.000000000000D+00 0.000000000000D+00 0.343259320979D-04 0.726114491136D-07  6 -2 1 25 -2 1 21 2 0.63417672D-01 0.29696427D+00 0.53756255D+06 0.53756255D+06 0.53756255D+06 0.10662941D+01  1  2  1  2  6  2        1 0.111391264586D-02 0.100000000000D+01
  </mgrwgt>
  </event>
  <event>
  7     66 0.18996412E-05 0.10694416E+03 0.75467711E-02 0.88938592E-01
       -2 -1    0    0    0  503 0.00000000E+00 0.00000000E+00 0.86130922E+03 0.86130928E+03 0.32000000E+00 0.0000E+00 0.9000E+01
        1 -1    0    0  501    0 0.00000000E+00 0.00000000E+00 -.10746871E+04 0.10746872E+04 0.32000000E+00 0.0000E+00 0.9000E+01
      -24  2    1    2    0    0 -.62271735E+03 -.41727528E+03 -.25649780E+03 0.79638544E+03 0.80889436E+02 0.0000E+00 0.0000E+00
       25  1    1    2    0    0 0.73468234E+03 0.34177288E+03 -.21561683E+03 0.84775142E+03 0.12500000E+03 0.0000E+00 0.9000E+01
       -2  1    3    3    0  502 -.43252239E+03 -.26323492E+03 -.14001870E+03 0.52533187E+03 0.32000000E+00 0.0000E+00 0.9000E+01
        1  1    3    3  502    0 -.19019497E+03 -.15404036E+03 -.11647910E+03 0.27105357E+03 0.32000000E+00 0.0000E+00 0.9000E+01
       21  1    1    2  501  503 -.11196499E+03 0.75502392E+02 0.25873672E+03 0.29185959E+03 0.75000000E+00 0.0000E+00 0.9000E+01
#aMCatNLO 2  0  0  1  5 0.49903465D+02 0.00000000D+00  -5  6  0 0.00000000D+00 0.00000000D+00 0.00000000D+00 0.00000000D+00 0.00000000D+00
  <mgrwgt>
 0.8758815389D-04    1    2    0
 0.784547167186239D+03 0.000000000000000D+00 0.000000000000000D+00 0.784547167186239D+03
 0.784547167186239D+03 0.000000000000000D+00 0.000000000000000D+00 -.784547167186239D+03
 0.787441161157486D+03 0.677423722340085D+03 0.380384621098428D+03 0.290382976043380D+02
 0.526527797604042D+03 -.469313299366866D+03 -.238429628054988D+03 0.113075705927085D+02
 0.255125375610951D+03 -.208110422973219D+03 -.141954993043440D+03 -.403458681970465D+02
 0.000000000000000D+00 -.000000000000000D+00 0.000000000000000D+00 0.000000000000000D+00
 0.115737644118980D+04 0.000000000000000D+00 0.000000000000000D+00 0.115737644118980D+04
 0.799771933494030D+03 0.000000000000000D+00 0.000000000000000D+00 -.799771933494030D+03
 0.820387147085196D+03 0.734682342164135D+03 0.341772884364822D+03 0.290382976043380D+02
 0.506458566179386D+03 -.432526179010744D+03 -.263236628481174D+03 0.113075705927085D+02
 0.248049140519537D+03 -.190191172406126D+03 -.154038647652759D+03 -.403458681970465D+02
 0.382253520899706D+03 -.111964990747265D+03 0.755023917691116D+02 0.357604507695765D+03
0.137429293615D-03 0.000000000000D+00 0.000000000000D+00 0.247900765884D-03 0.875351815894D-07  6 -2 1 25 -2 1 21 2 0.13250906D+00 0.16533641D+00 0.72760468D+06 0.72760468D+06 0.72760468D+06 0.10571827D+01  1  2  1  1  6  1       -2 0.875881538941D-04 0.100000000000D+01
  </mgrwgt>
  </event>
  <event>
  6     66 0.18996412E-05 0.47800614E+02 0.75467711E-02 0.93535852E-01
       -2 -1    0    0    0  501 0.00000000E+00 0.00000000E+00 0.25594648E+03 0.25594668E+03 0.32000000E+00 0.0000E+00 0.9000E+01
        1 -1    0    0  501    0 -.00000000E+00 -.00000000E+00 -.13187186E+04 0.13187187E+04 0.32000000E+00 0.0000E+00 0.9000E+01
       25  1    1    2    0    0 0.33898697E+03 -.37638838E+03 -.29409553E+03 0.59891365E+03 0.12500000E+03 0.0000E+00 0.9000E+01
       -2  1    1    2    0  502 -.16887313E+03 0.15543576E+03 -.26872015E+03 0.35339642E+03 0.32000000E+00 0.0000E+00 0.9000E+01
        1  1    1    2  503    0 -.15011226E+03 0.26386631E+03 -.34126861E+03 0.45675320E+03 0.32000000E+00 0.0000E+00 0.9000E+01
       21  1    1    2  502  503 -.20001575E+02 -.42913687E+02 -.15868788E+03 0.16560209E+03 0.75000000E+00 0.0000E+00 0.9000E+01
#aMCatNLO 2  0  0  5  4 0.97837149D+00 0.00000000D+00  -5  6  0 0.00000000D+00 0.00000000D+00 0.00000000D+00 0.00000000D+00 0.00000000D+00
  <mgrwgt>
 0.5121361622D-02    1    2    0
 0.580966075955840D+03 0.000000000000000D+00 0.000000000000000D+00 0.580966075955840D+03
 0.580966075955840D+03 -.000000000000000D+00 -.000000000000000D+00 -.580966075955840D+03
 0.585180244106227D+03 0.363927742208914D+03 -.408782742135800D+03 0.165118703588907D+03
 0.216305176435813D+03 -.158962608941341D+03 0.142550910684038D+03 -.346129480778789D+02
 0.360446731369640D+03 -.204965133267573D+03 0.266231831451762D+03 -.130505755511028D+03
 0.000000000000000D+00 0.000000000000000D+00 -.000000000000000D+00 0.000000000000000D+00
 0.580966075955840D+03 0.000000000000000D+00 0.000000000000000D+00 0.580966075955840D+03
 0.580966075955840D+03 -.000000000000000D+00 -.000000000000000D+00 -.580966075955840D+03
 0.542589236386324D+03 0.338947287115830D+03 -.376335309716901D+03 0.149213104851407D+03
 0.233208479193612D+03 -.168919480343177D+03 0.155484018215940D+03 -.409527045238024D+02
 0.306704599541058D+03 -.149960062468888D+03 0.263811044538715D+03 -.445356466592787D+02
 0.794298367906860D+02 -.200677443037660D+02 -.429597530377548D+02 -.637247536683258D+02
0.740992615891D-03 0.000000000000D+00 0.000000000000D+00 0.195189680349D-04 0.237939480630D-06  6 -2 1 25 -2 1 21 2 0.39376400D-01 0.20287981D+00 0.30366891D+06 0.30366891D+06 0.30366891D+06 0.10841615D+01  1  2  1  4  6  5        1 0.512136162204D-02 0.100000000000D+01
  </mgrwgt>
  </event>
  <event>
  7     66 0.18996412E-05 0.39102371E+02 0.75467711E-02 0.94114179E-01
       -2 -1    0    0    0  501 0.00000000E+00 0.00000000E+00 0.25290180E+03 0.25290200E+03 0.32000000E+00 0.0000E+00 0.9000E+01
        1 -1    0    0  503    0 0.00000000E+00 0.00000000E+00 -.21093515E+04 0.21093515E+04 0.32000000E+00 0.0000E+00 0.9000E+01
      -24  2    1    2    0    0 0.41189356E+03 -.28807460E+03 -.10293133E+03 0.51904340E+03 0.78536099E+02 0.0000E+00 0.0000E+00
       25  1    1    2    0    0 -.42294607E+03 0.29274189E+03 -.15228319E+04 0.16122106E+04 0.12500000E+03 0.0000E+00 0.9000E+01
       -2  1    3    3    0  502 0.11352564E+03 -.53422067E+02 0.10551184E+01 0.12547193E+03 0.32000000E+00 0.0000E+00 0.9000E+01
        1  1    3    3  502    0 0.29836791E+03 -.23465253E+03 -.10398644E+03 0.39357147E+03 0.32000000E+00 0.0000E+00 0.9000E+01
       21  1    1    2  503  501 0.11052519E+02 -.46672850E+01 -.23068653E+03 0.23099953E+03 0.75000000E+00 0.0000E+00 0.9000E+01
#aMCatNLO 2  0  0  2  5 0.12967922D+03 0.00000000D+00  -5  6  0 0.00000000D+00 0.00000000D+00 0.00000000D+00 0.00000000D+00 0.00000000D+00
  <mgrwgt>
 0.4068917391D-02    1    2    0
 0.689019922105978D+03 0.000000000000000D+00 0.000000000000000D+00 0.689019922105978D+03
 0.689019922105978D+03 0.000000000000000D+00 0.000000000000000D+00 -.689019922105978D+03
 0.692451274675574D+03 -.417374926046106D+03 0.290389287434522D+03 -.453140155637419D+03
 0.196384237855354D+03 0.115093231046977D+03 -.540823187640945D+02 0.149650993455755D+03
 0.489204331681029D+03 0.302281694999130D+03 -.236306968670428D+03 0.303489162181664D+03
 0.000000000000000D+00 0.000000000000000D+00 -.000000000000000D+00 -.000000000000000D+00
 0.689471030680566D+03 0.000000000000000D+00 0.000000000000000D+00 0.689471030680566D+03
 0.773718520980419D+03 0.000000000000000D+00 0.000000000000000D+00 -.773718520980419D+03
 0.696808578203638D+03 -.422946074870584D+03 0.292741885897180D+03 -.453140155637419D+03
 0.195285407965533D+03 0.113522574641426D+03 -.534190581043135D+02 0.149650993455755D+03
 0.485998084036560D+03 0.298370981117423D+03 -.234655542769620D+03 0.303489162181664D+03
 0.850974814552540D+02 0.110525191117349D+02 -.466728502324646D+01 -.842474902998529D+02
0.192617321349D-02 0.000000000000D+00 0.000000000000D+00 0.367662192348D-04 0.162479243156D-05  6 -2 1 25 -2 1 21 2 0.38907893D-01 0.32451486D+00 0.27373590D+06 0.27373590D+06 0.27373590D+06 0.10875080D+01  1  2  1  2  6  2        1 0.406891739058D-02 0.100000000000D+01
  </mgrwgt>
  </event>
  <event>
  7     66 0.18996412E-05 0.37885543E+02 0.75467711E-02 0.94614151E-01
       -2 -1    0    0    0  501 0.00000000E+00 0.00000000E+00 0.12932719E+04 0.12932719E+04 0.32000000E+00 0.0000E+00 0.9000E+01
        1 -1    0    0  503    0 0.00000000E+00 0.00000000E+00 -.22812696E+03 0.22812719E+03 0.32000000E+00 0.0000E+00 0.9000E+01
      -24  2    1    2    0    0 -.21088073E+03 0.44157843E+03 0.24135024E+03 0.55166327E+03 0.81364782E+02 0.0000E+00 0.0000E+00
       25  1    1    2    0    0 0.21488607E+03 -.42988202E+03 0.81560235E+03 0.95488573E+03 0.12500000E+03 0.0000E+00 0.9000E+01
       -2  1    3    3    0  502 -.66754458E+02 0.89705024E+02 0.26496167E+02 0.11491431E+03 0.32000000E+00 0.0000E+00 0.9000E+01
        1  1    3    3  502    0 -.14412627E+03 0.35187341E+03 0.21485407E+03 0.43674896E+03 0.32000000E+00 0.0000E+00 0.9000E+01
       21  1    1    2  503  501 -.40053400E+01 -.11696412E+02 0.81923209E+01 0.14850098E+02 0.75000000E+00 0.0000E+00 0.9000E+01
#aMCatNLO 2  0  0  2  5 0.12967922D+03 0.00000000D+00  -5  6  0 0.00000000D+00 0.00000000D+00 0.00000000D+00 0.00000000D+00 0.00000000D+00
  <mgrwgt>
 0.1820519400D-02    1    2    0
 0.536746741792045D+03 0.000000000000000D+00 0.000000000000000D+00 0.536746741792045D+03
 0.536746741792045D+03 0.000000000000000D+00 0.000000000000000D+00 -.536746741792045D+03
 0.540940885707346D+03 0.212875122863093D+03 -.435754385697841D+03 0.204436638695142D+03
 0.134451317632059D+03 -.672562408444055D+02 0.882321641512855D+02 -.759528807199347D+02
 0.398101280244685D+03 -.145618882018688D+03 0.347522221546555D+03 -.128483757975207D+03
 0.000000000000000D+00 -.000000000000000D+00 -.000000000000000D+00 -.000000000000000D+00
 0.541596291036104D+03 0.000000000000000D+00 0.000000000000000D+00 0.541596291036104D+03
 0.544720135477020D+03 0.000000000000000D+00 0.000000000000000D+00 -.544720135477020D+03
 0.537023194429883D+03 0.214886066370478D+03 -.429882019389658D+03 0.204436638695142D+03
 0.135170639373481D+03 -.667532607044555D+02 0.897009690265500D+02 -.759528807199347D+02
 0.401370839655745D+03 -.144127465654755D+03 0.351877462345151D+03 -.128483757975207D+03
 0.127517530540145D+02 -.400534001126689D+01 -.116964119820426D+02 -.312384444091644D+01
0.846466259893D-03 0.000000000000D+00 0.000000000000D+00 0.671555455040D-04 0.278656801566D-05  6 -2 1 25 -2 1 21 2 0.19896088D+00 0.35095763D-01 0.25050785D+06 0.25050785D+06 0.25050785D+06 0.10903928D+01  1  2  1  2  6  2        1 0.182051940029D-02 0.100000000000D+01
  </mgrwgt>
  </event>
  <event>
  7     66 0.18996412E-05 0.49712083E+02 0.75467711E-02 0.93597226E-01
       -2 -1    0    0    0  501 0.00000000E+00 0.00000000E+00 0.79388237E+03 0.79388244E+03 0.32000000E+00 0.0000E+00 0.9000E+01
        1 -1    0    0  503    0 0.00000000E+00 0.00000000E+00 -.46060539E+03 0.46060550E+03 0.32000000E+00 0.0000E+00 0.9000E+01
      -24  2    1    2    0    0 -.48953630E+03 -.19322599E+03 0.34736754E+03 0.63546173E+03 0.78519569E+02 0.0000E+00 0.0000E+00
       25  1    1    2    0    0 0.49979912E+03 0.20468299E+03 0.46688629E+02 0.55632645E+03 0.12500000E+03 0.0000E+00 0.9000E+01
       -2  1    3    3    0  502 -.17122244E+03 -.68125145E+02 0.16753325E+03 0.24904949E+03 0.32000000E+00 0.0000E+00 0.9000E+01
        1  1    3    3  502    0 -.31831387E+03 -.12510085E+03 0.17983429E+03 0.38641223E+03 0.32000000E+00 0.0000E+00 0.9000E+01
       21  1    1    2  503  501 -.10262822E+02 -.11456991E+02 -.60779190E+02 0.62699765E+02 0.75000000E+00 0.0000E+00 0.9000E+01
#aMCatNLO 2  0  0  2  5 0.12967922D+03 0.00000000D+00  -5  6  0 0.00000000D+00 0.00000000D+00 0.00000000D+00 0.00000000D+00 0.00000000D+00
  <mgrwgt>
 0.6422499141D-03    1    2    0
 0.562326018555958D+03 0.000000000000000D+00 0.000000000000000D+00 0.562326018555958D+03
 0.562326018555958D+03 0.000000000000000D+00 0.000000000000000D+00 -.562326018555958D+03
 0.566531620401641D+03 0.494599500861141D+03 0.198878339103249D+03 -.145436642213551D+03
 0.207470207004203D+03 -.173102756279637D+03 -.702260377427132D+02 0.902642021275232D+02
 0.350650209706073D+03 -.321496744581504D+03 -.128652301360536D+03 0.551724400860277D+02
 0.000000000000000D+00 -.000000000000000D+00 -.000000000000000D+00 -.000000000000000D+00
 0.563058088805961D+03 0.000000000000000D+00 0.000000000000000D+00 0.563058088805961D+03
 0.649425947902780D+03 0.000000000000000D+00 0.000000000000000D+00 -.649425947902780D+03
 0.573123988703146D+03 0.499799124756815D+03 0.204682985177011D+03 -.145436642213551D+03
 0.205194587133679D+03 -.171219993006802D+03 -.681241983291785D+02 0.902642021275232D+02
 0.346438639182795D+03 -.318316310240520D+03 -.125101795385363D+03 0.551724400860277D+02
 0.877268216891213D+02 -.102628215094931D+02 -.114569914624698D+02 -.863678590968194D+02
0.197231675099D-03 0.000000000000D+00 0.000000000000D+00 0.747928591648D-04 0.200564063473D-05  6 -2 1 25 -2 1 21 2 0.12213542D+00 0.70862180D-01 0.30032439D+06 0.30032439D+06 0.30032439D+06 0.10845171D+01  1  2  1  2  6  2        1 0.642249914102D-03 0.100000000000D+01
  </mgrwgt>
  </event>
  <event>
  7     66 0.18996412E-05 0.37573165E+02 0.75467711E-02 0.95337798E-01
       21 -1    0    0  503  501 0.00000000E+00 0.00000000E+00 0.55722777E+03 0.55722827E+03 0.75000000E+00 0.0000E+00 0.9000E+01
        1 -1    0    0  501    0 0.00000000E+00 0.00000000E+00 -.12229270E+04 0.12229270E+04 0.32000000E+00 0.0000E+00 0.9000E+01
      -24  2    1    2    0    0 0.35075238E+03 0.23076124E+03 -.66861945E+03 0.79351582E+03 0.79607897E+02 0.0000E+00 0.0000E+00
       25  1    1    2    0    0 -.39208975E+03 -.22906988E+03 -.37772927E+03 0.60374811E+03 0.12500000E+03 0.0000E+00 0.9000E+01
       -2  1    3    3    0  502 0.35466819E+03 0.22425046E+03 -.65410815E+03 0.77713278E+03 0.32000000E+00 0.0000E+00 0.9000E+01
        1  1    3    3  502    0 -.39158079E+01 0.65107856E+01 -.14511298E+02 0.16383042E+02 0.32000000E+00 0.0000E+00 0.9000E+01
        2  1    1    2  503    0 0.41337376E+02 -.16913676E+01 0.38064951E+03 0.38289136E+03 0.32000000E+00 0.0000E+00 0.9000E+01
#aMCatNLO 2  0  0  1  4 0.78500036D+02 0.00000000D+00  -5  6  0 0.00000000D+00 0.00000000D+00 0.00000000D+00 0.00000000D+00 0.00000000D+00
  <mgrwgt>
 0.1330711588D-02    1    2    0
 0.462544385407084D+03 0.000000000000000D+00 0.000000000000000D+00 0.462544385407084D+03
 0.462544385407084D+03 0.000000000000000D+00 0.000000000000000D+00 -.462544385407084D+03
 0.467564218634346D+03 -.370836098969166D+03 -.229939494215881D+03 0.112248453210824D+03
 0.449386870330199D+03 0.374390259104677D+03 0.223447261364594D+03 -.108866039247172D+03
 0.813768184962327D+01 -.355416013551138D+01 0.649223285128690D+01 -.338241396365108D+01
 0.000000000000000D+00 0.000000000000000D+00 -.000000000000000D+00 0.000000000000000D+00
 0.147044241221938D+04 0.000000000000000D+00 0.000000000000000D+00 0.147044241221938D+04
 0.463431466731787D+03 0.000000000000000D+00 0.000000000000000D+00 -.463431466731787D+03
 0.484181885398086D+03 -.392089753610942D+03 -.229069875829918D+03 0.112248453210824D+03
 0.433515042490307D+03 0.354673979460194D+03 0.224253976236488D+03 -.108866039247172D+03
 0.831650251864912D+01 -.392160219857177D+01 0.650726717734512D+01 -.338241396365108D+01
 0.100786044854412D+04 0.413373763493189D+02 -.169136758391514D+01 0.100701094548759D+04
0.833170663572D-04 0.000000000000D+00 0.000000000000D+00 0.133759028264D-04 0.126934225963D-07  6 21 1 25 -2 1 2 2 0.85727386D-01 0.18814264D+00 0.22070426D+06 0.22070426D+06 0.22070426D+06 0.10945548D+01  1  2  1  5  6  1       -2 0.133071158829D-02 0.100000000000D+01
  </mgrwgt>
  </event>
  <event>
  6     66 0.18996412E-05 0.52680155E+02 0.75467711E-02 0.92160230E-01
       -2 -1    0    0    0  501 0.00000000E+00 0.00000000E+00 0.64386576E+03 0.64386584E+03 0.32000000E+00 0.0000E+00 0.9000E+01
        1 -1    0    0  501    0 -.00000000E+00 -.00000000E+00 -.67996522E+03 0.67996530E+03 0.32000000E+00 0.0000E+00 0.9000E+01
       25  1    1    2    0    0 0.41508274E+03 -.40768461E+03 0.81813394E+02 0.60068200E+03 0.12500000E+03 0.0000E+00 0.9000E+01
       -2  1    1    2    0  503 -.28609102E+03 0.19957791E+03 -.12238805E+03 0.36967330E+03 0.32000000E+00 0.0000E+00 0.9000E+01
        1  1    1    2  502    0 -.17063315E+03 0.20185645E+03 -.65040066E+02 0.27219848E+03 0.32000000E+00 0.0000E+00 0.9000E+01
       21  1    1    2  503  502 0.41641431E+02 0.62502494E+01 0.69515258E+02 0.81277352E+02 0.75000000E+00 0.0000E+00 0.9000E+01
#aMCatNLO 2  0  0  4  5 0.21540370D+01 0.00000000D+00  -5  6  0 0.00000000D+00 0.00000000D+00 0.00000000D+00 0.00000000D+00 0.00000000D+00
  <mgrwgt>
 0.6730403920D-02    1    2    0
 0.661669422348490D+03 0.000000000000000D+00 0.000000000000000D+00 0.661669422348490D+03
 0.661669422348490D+03 -.000000000000000D+00 -.000000000000000D+00 -.661669422348490D+03
 0.665916713296207D+03 0.463840592442426D+03 -.448739039897339D+03 0.106326139410284D+03
 0.412428325564863D+03 -.312979836617815D+03 0.263515876361377D+03 -.519627607466904D+02
 0.244993805835911D+03 -.150860755824612D+03 0.185223163535962D+03 -.543633786635941D+02
 0.000000000000000D+00 0.000000000000000D+00 0.000000000000000D+00 0.000000000000000D+00
 0.661669422348490D+03 0.000000000000000D+00 0.000000000000000D+00 0.661669422348490D+03
 0.661669422348490D+03 -.000000000000000D+00 -.000000000000000D+00 -.661669422348490D+03
 0.603053705099707D+03 0.415016302228308D+03 -.407631038300398D+03 0.982200424219304D+02
 0.366340300165942D+03 -.285999229318712D+03 0.199419293868823D+03 -.112434877096190D+03
 0.270623199002198D+03 -.170699385566173D+03 0.201926456497738D+03 -.576571051283495D+02
 0.833216404291327D+02 0.416823126565769D+02 0.628528793383652D+01 0.718719398026088D+02
0.220579763972D-02 0.000000000000D+00 0.000000000000D+00 0.179881068867D-05 0.479955760061D-07  6 -2 1 25 -2 1 21 2 0.99056282D-01 0.10461005D+00 0.39076531D+06 0.39076531D+06 0.39076531D+06 0.10761597D+01  1  2  1  3  6  4       -2 0.673040391955D-02 0.100000000000D+01
  </mgrwgt>
  </event>
  <event>
  7     66 0.18996412E-05 0.57713921E+02 0.75467711E-02 0.94090446E-01
       21 -1    0    0  503  501 0.00000000E+00 0.00000000E+00 0.38579072E+03 0.38579145E+03 0.75000000E+00 0.0000E+00 0.9000E+01
        1 -1    0    0  501    0 0.00000000E+00 0.00000000E+00 -.12157594E+04 0.12157595E+04 0.32000000E+00 0.0000E+00 0.9000E+01
      -24  2    1    2    0    0 -.24162903E+02 -.51111637E+03 -.44206700E+03 0.68091575E+03 0.79995191E+02 0.0000E+00 0.0000E+00
       25  1    1    2    0    0 0.13857846E+02 0.50033492E+03 -.55217957E+03 0.75568139E+03 0.12500000E+03 0.0000E+00 0.9000E+01
       -2  1    3    3    0  502 0.24115258E+02 -.31130154E+03 -.25989090E+03 0.40624325E+03 0.32000000E+00 0.0000E+00 0.9000E+01
        1  1    3    3  502    0 -.48278161E+02 -.19981483E+03 -.18217610E+03 0.27467250E+03 0.32000000E+00 0.0000E+00 0.9000E+01
        2  1    1    2  503    0 0.10305057E+02 0.10781446E+02 0.16427786E+03 0.16495379E+03 0.32000000E+00 0.0000E+00 0.9000E+01
#aMCatNLO 2  0  0  1  2 0.42826858D+00 0.00000000D+00  -5  6  0 0.00000000D+00 0.00000000D+00 0.00000000D+00 0.00000000D+00 0.00000000D+00
  <mgrwgt>
 0.3558012414D-02    1    2    0
 0.518426136639822D+03 0.000000000000000D+00 0.000000000000000D+00 0.518426136639822D+03
 0.518426136639822D+03 0.000000000000000D+00 0.000000000000000D+00 -.518426136639822D+03
 0.522875068093020D+03 0.190275197114881D+02 0.505743584960853D+03 -.404316286816873D+02
 0.310657807458929D+03 0.272185521524478D+02 -.308057776993763D+03 0.294589508905943D+02
 0.203319397727695D+03 -.462460718639360D+02 -.197685807967090D+03 0.109726777910930D+02
 0.000000000000000D+00 0.000000000000000D+00 0.000000000000000D+00 0.000000000000000D+00
 0.904372572963084D+03 0.000000000000000D+00 0.000000000000000D+00 0.904372572963084D+03
 0.518623869203803D+03 0.000000000000000D+00 0.000000000000000D+00 -.518623869203803D+03
 0.517481200112659D+03 0.138578458428414D+02 0.500334923806823D+03 -.404316286816873D+02
 0.313622685317236D+03 0.241164162314743D+02 -.311303320615392D+03 0.294589508905943D+02
 0.205855646274510D+03 -.482793191248275D+02 -.199813049598949D+03 0.109726777910930D+02
 0.386036910462482D+03 0.103050570505118D+02 0.107814464075184D+02 0.385748703759282D+03
0.955481996829D-04 0.000000000000D+00 0.000000000000D+00 0.243878636457D-03 0.494426572984D-06  6 21 1 25 -2 1 2 2 0.59352470D-01 0.18703995D+00 0.27489708D+06 0.27489708D+06 0.27489708D+06 0.10873709D+01  1  2  1  5  6  1       -2 0.355801241366D-02 0.100000000000D+01
  </mgrwgt>
  </event>
  <event>
  7     66 0.18996412E-05 0.54812130E+02 0.75467711E-02 0.90686840E-01
       -2 -1    0    0    0  501 0.00000000E+00 0.00000000E+00 0.13933269E+04 0.13933270E+04 0.32000000E+00 0.0000E+00 0.9000E+01
        1 -1    0    0  503    0 0.00000000E+00 0.00000000E+00 -.10103743E+04 0.10103743E+04 0.32000000E+00 0.0000E+00 0.9000E+01
      -24  2    1    2    0    0 -.33186585E+03 -.61105110E+03 0.11446581E+04 0.13417625E+04 0.81031790E+02 0.0000E+00 0.0000E+00
       25  1    1    2    0    0 0.36031622E+03 0.52574015E+03 -.65579698E+03 0.92299792E+03 0.12500000E+03 0.0000E+00 0.9000E+01
       -2  1    3    3    0  502 -.16452838E+03 -.36288265E+03 0.70696556E+03 0.81151328E+03 0.32000000E+00 0.0000E+00 0.9000E+01
        1  1    3    3  502    0 -.16733747E+03 -.24816845E+03 0.43769255E+03 0.53024926E+03 0.32000000E+00 0.0000E+00 0.9000E+01
       21  1    1    2  503  501 -.28450370E+02 0.85310952E+02 -.10590847E+03 0.13894081E+03 0.75000000E+00 0.0000E+00 0.9000E+01
#aMCatNLO 2  0  0  2  2 0.20330685D+00 0.00000000D+00  -5  6  0 0.00000000D+00 0.00000000D+00 0.00000000D+00 0.00000000D+00 0.00000000D+00
  <mgrwgt>
 0.1600045405D-02    1    2    0
 0.110477004306861D+04 0.000000000000000D+00 0.000000000000000D+00 0.110477004306861D+04
 0.110477004306861D+04 0.000000000000000D+00 0.000000000000000D+00 -.110477004306861D+04
 0.110681998302038D+04 0.346177120151719D+03 0.568137487944264D+03 -.875674980280393D+03
 0.663489196892474D+03 -.173140926618223D+03 -.337058824548645D+03 0.544638855313031D+03
 0.439230906224362D+03 -.173036193533496D+03 -.231078663395619D+03 0.331036124967363D+03
 0.000000000000000D+00 -.000000000000000D+00 0.000000000000000D+00 -.000000000000000D+00
 0.111894762879573D+04 0.000000000000000D+00 0.000000000000000D+00 0.111894762879573D+04
 0.125812828009094D+04 0.000000000000000D+00 0.000000000000000D+00 -.125812828009094D+04
 0.109025783782269D+04 0.360316219142331D+03 0.525740148807101D+03 -.875674980280393D+03
 0.674823066101756D+03 -.164528337028855D+03 -.362884436344143D+03 0.544638855313031D+03
 0.446288530231664D+03 -.167337511924960D+03 -.248166664332049D+03 0.331036124967363D+03
 0.165706474730564D+03 -.284503701885166D+02 0.853109518690914D+02 -.139180651295204D+03
0.882945401837D-02 0.000000000000D+00 0.000000000000D+00 0.913528492240D-04 0.689268349562D-07  6 -2 1 25 -2 1 21 2 0.21435783D+00 0.15544208D+00 0.51637709D+06 0.51637709D+06 0.51637709D+06 0.10675226D+01  1  2  1  2  6  2        1 0.160004540496D-02 0.100000000000D+01
  </mgrwgt>
  </event>
  <event>
  7     66 0.18996412E-05 0.28983622E+03 0.75467711E-02 0.89595872E-01
       -2 -1    0    0    0  501 0.00000000E+00 0.00000000E+00 0.89556328E+03 0.89556334E+03 0.32000000E+00 0.0000E+00 0.9000E+01
        1 -1    0    0  503    0 0.00000000E+00 0.00000000E+00 -.24976076E+04 0.24976076E+04 0.32000000E+00 0.0000E+00 0.9000E+01
      -24  2    1    2    0    0 0.67611705E+01 0.64101331E+03 -.42860700E+03 0.77542645E+03 0.81476605E+02 0.0000E+00 0.0000E+00
       25  1    1    2    0    0 -.31443775E+03 -.53223115E+03 0.56632591E+03 0.84763856E+03 0.12500000E+03 0.0000E+00 0.9000E+01
       -2  1    3    3    0  502 -.28507913E+01 0.35480543E+03 -.18886677E+03 0.40195246E+03 0.32000000E+00 0.0000E+00 0.9000E+01
        1  1    3    3  502    0 0.96119618E+01 0.28620789E+03 -.23974022E+03 0.37347399E+03 0.32000000E+00 0.0000E+00 0.9000E+01
       21  1    1    2  503  501 0.30767658E+03 -.10878217E+03 -.17397632E+04 0.17701059E+04 0.75000000E+00 0.0000E+00 0.9000E+01
#aMCatNLO 2  0  0  2  2 0.20330685D+00 0.00000000D+00  -5  6  0 0.00000000D+00 0.00000000D+00 0.00000000D+00 0.00000000D+00 0.00000000D+00
  <mgrwgt>
 0.1922130538D-03    1    2    0
 0.791971446502263D+03 0.000000000000000D+00 0.000000000000000D+00 0.791971446502263D+03
 0.791971446502263D+03 0.000000000000000D+00 0.000000000000000D+00 -.791971446502263D+03
 0.794808216320591D+03 -.160915661967752D+03 -.586510433306013D+03 0.496192263228068D+03
 0.403380897275399D+03 0.762387561142288D+02 0.326843508762946D+03 -.223779179398772D+03
 0.385753779408535D+03 0.846769058535230D+02 0.259666924543067D+03 -.272413083829296D+03
 0.000000000000000D+00 0.000000000000000D+00 -.000000000000000D+00 -.000000000000000D+00
 0.822540061495884D+03 0.000000000000000D+00 0.000000000000000D+00 0.822540061495884D+03
 0.271933914971203D+04 0.000000000000000D+00 0.000000000000000D+00 -.271933914971203D+04
 0.802479191411189D+03 -.314437747737653D+03 -.532231146550289D+03 0.496192263228068D+03
 0.419491230033921D+03 -.285098358755411D+01 0.354806486462082D+03 -.223779179398772D+03
 0.395241229615378D+03 0.961215408696582D+01 0.286206827033000D+03 -.272413083829296D+03
 0.192466756014742D+04 0.307676577238241D+03 -.108782166944793D+03 -.189679908821614D+04
0.313334720922D-02 0.000000000000D+00 0.000000000000D+00 0.105348310599D-03 0.117249267745D-07  6 -2 1 25 -2 1 21 2 0.13777896D+00 0.38424729D+00 0.63857209D+06 0.63857209D+06 0.63857209D+06 0.10610820D+01  1  2  1  2  6  2        1 0.192213053798D-03 0.100000000000D+01
  </mgrwgt>
  </event>
  <event>
  7     66 0.18996412E-05 0.52346950E+02 0.75467711E-02 0.95227808E-01
       -2 -1    0    0    0  503 0.00000000E+00 0.00000000E+00 0.93843956E+02 0.93844502E+02 0.32000000E+00 0.0000E+00 0.9000E+01
        1 -1    0    0  501    0 0.00000000E+00 0.00000000E+00 -.43500853E+04 0.43500854E+04 0.32000000E+00 0.0000E+00 0.9000E+01
      -24  2    1    2    0    0 0.15188749E+03 0.41472827E+03 -.12737933E+04 0.13505549E+04 0.79873797E+02 0.0000E+00 0.0000E+00
       25  1    1    2    0    0 -.17022013E+03 -.42902697E+03 -.30153774E+04 0.30530583E+04 0.12500000E+03 0.0000E+00 0.9000E+01
       -2  1    3    3    0  502 0.90728652E+02 0.14859758E+03 -.44044811E+03 0.47361120E+03 0.32000000E+00 0.0000E+00 0.9000E+01
        1  1    3    3  502    0 0.61158839E+02 0.26613069E+03 -.83334514E+03 0.87694366E+03 0.32000000E+00 0.0000E+00 0.9000E+01
       21  1    1    2  501  503 0.18332642E+02 0.14298699E+02 0.32929265E+02 0.40316715E+02 0.75000000E+00 0.0000E+00 0.9000E+01
#aMCatNLO 2  0  0  1  2 0.42826858D+00 0.00000000D+00  -5  6  0 0.00000000D+00 0.00000000D+00 0.00000000D+00 0.00000000D+00 0.00000000D+00
  <mgrwgt>
 0.1509716087D-02    1    2    0
 0.498568772284254D+03 0.000000000000000D+00 0.000000000000000D+00 0.498568772284254D+03
 0.498568772284254D+03 0.000000000000000D+00 0.000000000000000D+00 -.498568772284254D+03
 0.503204630526707D+03 -.160885806100539D+03 -.421746580738631D+03 -.183944228542710D+03
 0.200804762808563D+03 0.943850655673676D+02 0.151447173019351D+03 0.920747845443787D+02
 0.293128151233238D+03 0.665007405331710D+02 0.270299407719280D+03 0.918694439983308D+02
 0.000000000000000D+00 0.000000000000000D+00 0.000000000000000D+00 0.000000000000000D+00
 0.817886434155836D+03 0.000000000000000D+00 0.000000000000000D+00 0.817886434155836D+03
 0.499127654227026D+03 0.000000000000000D+00 0.000000000000000D+00 -.499127654227026D+03
 0.512347062286020D+03 -.170220132997342D+03 -.429026968081623D+03 -.183944228542710D+03
 0.196952329993152D+03 0.907291268731489D+02 0.148595692661913D+03 0.920747845443787D+02
 0.288109160590314D+03 0.611583644516999D+02 0.266132576234263D+03 0.918694439983308D+02
 0.319605535513376D+03 0.183326416724933D+02 0.142986991854473D+02 0.318758779928810D+03
0.782490324049D-02 0.000000000000D+00 0.000000000000D+00 0.217248602135D-03 0.286927342349D-05  6 -2 1 25 -2 1 21 2 0.14437562D-01 0.66924335D+00 0.22496613D+06 0.22496613D+06 0.22496613D+06 0.10939232D+01  1  2  1  1  6  1       -2 0.150971608697D-02 0.100000000000D+01
  </mgrwgt>
  </event>
  <event>
  7     66 0.18996412E-05 0.39546932E+02 0.75467711E-02 0.86453192E-01
       -2 -1    0    0    0  501 0.00000000E+00 0.00000000E+00 0.17281227E+04 0.17281228E+04 0.32000000E+00 0.0000E+00 0.9000E+01
        1 -1    0    0  503    0 0.00000000E+00 0.00000000E+00 -.76289471E+03 0.76289478E+03 0.32000000E+00 0.0000E+00 0.9000E+01
      -24  2    1    2    0    0 0.87981072E+03 -.65042575E+03 0.54420191E+03 0.12250985E+04 0.87120756E+02 0.0000E+00 0.0000E+00
       25  1    1    2    0    0 -.80773774E+03 0.62720370E+03 0.50958159E+03 0.11494012E+04 0.12500000E+03 0.0000E+00 0.9000E+01
       -2  1    3    3    0  502 0.36192542E+03 -.32081015E+03 0.23299984E+03 0.53684094E+03 0.32000000E+00 0.0000E+00 0.9000E+01
        1  1    3    3  502    0 0.51788529E+03 -.32961560E+03 0.31120206E+03 0.68825754E+03 0.32000000E+00 0.0000E+00 0.9000E+01
       21  1    1    2  503  501 -.72072975E+02 0.23222048E+02 -.88555469E+02 0.11651786E+03 0.75000000E+00 0.0000E+00 0.9000E+01
#aMCatNLO 2  0  0  2  4 0.58986559D+02 0.00000000D+00  -5  6  0 0.00000000D+00 0.00000000D+00 0.00000000D+00 0.00000000D+00 0.00000000D+00
  <mgrwgt>
 0.6898292720D-03    1    2    0
 0.106325624150292D+04 0.000000000000000D+00 0.000000000000000D+00 0.106325624150292D+04
 0.106325624150292D+04 0.000000000000000D+00 0.000000000000000D+00 -.106325624150292D+04
 0.106514547896413D+04 -.843235950402902D+03 0.638641288427800D+03 -.572731277854055D+00
 0.468212046787143D+03 0.345797475352662D+03 -.315614254864818D+03 -.585396638667516D+01
 0.593154957254576D+03 0.497438475050240D+03 -.323027033562981D+03 0.642669766452922D+01
 0.000000000000000D+00 -.000000000000000D+00 0.000000000000000D+00 -.000000000000000D+00
 0.107260712768637D+04 0.000000000000000D+00 0.000000000000000D+00 0.107260712768637D+04
 0.122913022751884D+04 0.000000000000000D+00 0.000000000000000D+00 -.122913022751884D+04
 0.103026698832494D+04 -.807737741693574D+03 0.627203698852933D+03 -.572731277854055D+00
 0.483675341400000D+03 0.361923320598472D+03 -.320810032516013D+03 -.585396638667516D+01
 0.613917890685018D+03 0.517887395991785D+03 -.329615714329761D+03 0.642669766452922D+01
 0.173877134795247D+03 -.720729748966833D+02 0.232220479928415D+02 -.156523099832468D+03
0.575914556334D-02 0.000000000000D+00 0.000000000000D+00 0.586108549879D-05 0.597839033556D-08  6 -2 1 25 -2 1 21 2 0.26586485D+00 0.11736834D+00 0.12138671D+07 0.12138671D+07 0.12138671D+07 0.10423065D+01  1  2  1  2  6  2        1 0.689829271984D-03 0.100000000000D+01
  </mgrwgt>
  </event>
  <event>
  6     66 0.18996412E-05 0.19272126E+02 0.75467711E-02 0.94930548E-01
       -2 -1    0    0    0  501 0.00000000E+00 0.00000000E+00 0.29108288E+03 0.29108305E+03 0.32000000E+00 0.0000E+00 0.9000E+01
        1 -1    0    0  501    0 -.00000000E+00 -.00000000E+00 -.98439460E+03 0.98439465E+03 0.32000000E+00 0.0000E+00 0.9000E+01
      -24  2    1    2    0    0 0.23333385E+03 -.41459312E+03 -.60853658E+03 0.77633447E+03 0.77757940E+02 0.0000E+00 0.0000E+00
       25  1    1    2    0    0 -.23333385E+03 0.41459312E+03 -.84775141E+02 0.49914323E+03 0.12500000E+03 0.0000E+00 0.9000E+01
       -2  1    3    3    0  502 0.24787033E+02 -.10457377E+02 -.27319090E+02 0.38343042E+02 0.32000000E+00 0.0000E+00 0.9000E+01
        1  1    3    3  502    0 0.20854682E+03 -.40413574E+03 -.58121749E+03 0.73799143E+03 0.32000000E+00 0.0000E+00 0.9000E+01
#aMCatNLO 1  0  0  5  4 0.84289280D+00 0.00000000D+00  -5  6  0 0.00000000D+00 0.00000000D+00 0.00000000D+00 0.00000000D+00 0.00000000D+00
  <mgrwgt>
 0.7297580369D-03    9    2    0
 0.535294831622198D+03 0.000000000000000D+00 0.000000000000000D+00 0.535294831622198D+03
 0.535294831622198D+03 -.000000000000000D+00 -.000000000000000D+00 -.535294831622198D+03
 0.539768395616664D+03 -.233333853266361D+03 0.414593120334286D+03 0.222244861353284D+03
 0.279812521724951D+02 0.247839210792905D+02 -.104507094117874D+02 -.771300213059964D+01
 0.502840015455237D+03 0.208549932187070D+03 -.404142410922499D+03 -.214531859222684D+03
 0.000000000000000D+00 0.000000000000000D+00 -.000000000000000D+00 0.000000000000000D+00
 0.535294831622198D+03 0.000000000000000D+00 0.000000000000000D+00 0.535294831622198D+03
 0.535294831622198D+03 -.000000000000000D+00 -.000000000000000D+00 -.535294831622198D+03
 0.539759910510633D+03 -.233330233806439D+03 0.414586106295759D+03 0.222241138074842D+03
 0.279816073752537D+02 0.247841087124690D+02 -.104510730202734D+02 -.771319514574089D+01
 0.481403237859128D+03 0.199958714521985D+03 -.386428187475689D+03 -.206006907243961D+03
 0.214449074993817D+02 0.858741057198490D+01 -.177068457997963D+02 -.852103568514044D+01
0.795062746586D-07 0.000000000000D+00 0.000000000000D+00 0.797710139717D-05 0.000000000000D+00  6 -2 1 25 -2 1 21 0 0.44781999D-01 0.15144534D+00 0.23695859D+06 0.23695859D+06 0.23695859D+06 0.10922138D+01  1  2  2  4  6  5        1 0.644804793065D-06 0.100000000000D+01
0.255853567418D-07 0.000000000000D+00 -.305325029172D-09 0.797710139717D-05 0.000000000000D+00  6 -2 1 25 -2 1 21 2 0.44781999D-01 0.15144534D+00 0.23695859D+06 0.23695859D+06 0.23695859D+06 0.10922138D+01  1  2  3  4  6  5        1 0.247533330037D-06 0.100000000000D+01
-.235297061090D-07 0.000000000000D+00 0.000000000000D+00 0.797710139717D-05 0.000000000000D+00  6 -2 1 25 -2 1 21 2 0.44781999D-01 0.15144534D+00 0.23695859D+06 0.23695859D+06 0.23695859D+06 0.10922138D+01  1  2 15  4  6  5        1 -.227645311601D-06 0.100000000000D+01
0.566243134450D-09 0.000000000000D+00 0.000000000000D+00 0.797710139717D-05 0.000000000000D+00  6 -2 1 25 -2 1 21 2 0.44781999D-01 0.15144534D+00 0.23695408D+06 0.23695408D+06 0.23695408D+06 0.10922145D+01  1  2 12  4  6  5        1 0.547830148230D-08 0.100000000000D+01
0.191510614511D-12 0.000000000000D+00 0.000000000000D+00 0.797710139717D-05 0.000000000000D+00  6 -2 1 25 -2 1 21 2 0.44781999D-01 0.15144534D+00 0.23695408D+06 0.23695408D+06 0.23695408D+06 0.10922145D+01  1  2 12  4  6  5        1 0.185283108884D-11 0.100000000000D+01
-.934695351288D-03 0.000000000000D+00 0.000000000000D+00 0.797710139717D-05 0.000000000000D+00  6 -2 1 25 -2 1 21 2 0.44781999D-01 0.15144534D+00 0.23695859D+06 0.23695859D+06 0.23695859D+06 0.10922138D+01  1  2  4  4  6  5        1 -.904299499157D-02 0.100000000000D+01
-.965487154220D-03 0.000000000000D+00 0.000000000000D+00 0.797710139717D-05 0.000000000000D+00  6 -2 1 25 -2 1 21 2 0.44781999D-01 0.15144534D+00 0.23695859D+06 0.23695859D+06 0.23695859D+06 0.10922138D+01  1  2  5  4  6  5        1 -.934089967175D-02 0.100000000000D+01
0.100754002881D-02 0.000000000000D+00 -.000000000000D+00 0.797710139717D-05 0.000000000000D+00  6 -2 1 25 -2 1 21 2 0.44781999D-01 0.15144534D+00 0.23695859D+06 0.23695859D+06 0.23695859D+06 0.10922138D+01  1  2  6  4  6  5        1 0.974775302113D-02 0.100000000000D+01
0.968000196323D-03 0.000000000000D+00 0.000000000000D+00 0.797710139717D-05 0.667418391864D-04  6 -2 1 25 -2 1 21 2 0.44781999D-01 0.15144534D+00 0.23695408D+06 0.23695408D+06 0.23695408D+06 0.10922145D+01  1  2 11  4  6  5        1 0.936522950611D-02 0.100000000000D+01
  </mgrwgt>
  </event>
  <event>
  7     66 0.18996412E-05 0.33970890E+02 0.75467711E-02 0.93947591E-01
       -2 -1    0    0    0  501 0.00000000E+00 0.00000000E+00 0.18846230E+03 0.18846257E+03 0.32000000E+00 0.0000E+00 0.9000E+01
        1 -1    0    0  503    0 0.00000000E+00 0.00000000E+00 -.16021130E+04 0.16021131E+04 0.32000000E+00 0.0000E+00 0.9000E+01
      -24  2    1    2    0    0 0.18759587E+03 0.47148521E+03 -.51062652E+03 0.72440881E+03 0.80858872E+02 0.0000E+00 0.0000E+00
       25  1    1    2    0    0 -.21786695E+03 -.41588803E+03 -.86558001E+03 0.99261403E+03 0.12500000E+03 0.0000E+00 0.9000E+01
       -2  1    3    3    0  502 0.30799371E+02 0.17341201E+03 -.19612187E+03 0.26359859E+03 0.32000000E+00 0.0000E+00 0.9000E+01
        1  1    3    3  502    0 0.15679650E+03 0.29807320E+03 -.31450465E+03 0.46081021E+03 0.32000000E+00 0.0000E+00 0.9000E+01
       21  1    1    2  503  501 0.30271074E+02 -.55597177E+02 -.37444220E+02 0.73552812E+02 0.75000000E+00 0.0000E+00 0.9000E+01
#aMCatNLO 2  0  0  2  4 0.20546929D+02 0.00000000D+00  -5  6  0 0.00000000D+00 0.00000000D+00 0.00000000D+00 0.00000000D+00 0.00000000D+00
  <mgrwgt>
 0.8475529341D-03    1    2    0
 0.512400142576166D+03 0.000000000000000D+00 0.000000000000000D+00 0.512400142576166D+03
 0.512400142576166D+03 0.000000000000000D+00 0.000000000000000D+00 -.512400142576166D+03
 0.516833612660989D+03 -.202867002032033D+03 -.443437587971442D+03 -.117047290600058D+03
 0.169778456313415D+03 0.359280122770364D+02 0.163986948033778D+03 0.253413305995263D+02
 0.338188216177926D+03 0.166938989754996D+03 0.279450639937664D+03 0.917059600005312D+02
 0.000000000000000D+00 0.000000000000000D+00 -.000000000000000D+00 0.000000000000000D+00
 0.567765709640402D+03 0.000000000000000D+00 0.000000000000000D+00 0.567765709640402D+03
 0.531796859536380D+03 0.000000000000000D+00 0.000000000000000D+00 -.531796859536380D+03
 0.499753871138662D+03 -.217866946522927D+03 -.415888034324192D+03 -.117047290600058D+03
 0.177937379781817D+03 0.307973980179086D+02 0.173410058423353D+03 0.253413305995263D+02
 0.349062375067183D+03 0.156798474664765D+03 0.298075153158942D+03 0.917059600005312D+02
 0.728089431891203D+02 0.302710738402535D+02 -.555971772581022D+02 0.359688501040224D+02
0.108569061520D-03 0.000000000000D+00 0.000000000000D+00 0.181109840414D-03 0.285958200369D-06  6 -2 1 25 -2 1 21 2 0.28994119D-01 0.24647807D+00 0.28200440D+06 0.28200440D+06 0.28200440D+06 0.10865451D+01  1  2  1  2  6  2        1 0.847552934077D-03 0.100000000000D+01
  </mgrwgt>
  </event>
  <event>
  7     66 0.18996412E-05 0.53303650E+02 0.75467711E-02 0.93886372E-01
       -2 -1    0    0    0  503 0.00000000E+00 0.00000000E+00 0.32746295E+03 0.32746310E+03 0.32000000E+00 0.0000E+00 0.9000E+01
        1 -1    0    0  501    0 0.00000000E+00 0.00000000E+00 -.12628806E+04 0.12628806E+04 0.32000000E+00 0.0000E+00 0.9000E+01
      -24  2    1    2    0    0 0.32357697E+03 -.37802043E+03 -.28790603E+03 0.57982777E+03 0.75557044E+02 0.0000E+00 0.0000E+00
       25  1    1    2    0    0 -.24963364E+03 0.40472480E+03 -.74042367E+03 0.88880331E+03 0.12500000E+03 0.0000E+00 0.9000E+01
       -2  1    3    3    0  502 0.22074537E+03 -.26186430E+03 -.15665453E+03 0.37661940E+03 0.32000000E+00 0.0000E+00 0.9000E+01
        1  1    3    3  502    0 0.10283161E+03 -.11615613E+03 -.13125150E+03 0.20320838E+03 0.32000000E+00 0.0000E+00 0.9000E+01
       21  1    1    2  501  503 -.73943338E+02 -.26704378E+02 0.92912087E+02 0.12171261E+03 0.75000000E+00 0.0000E+00 0.9000E+01
#aMCatNLO 2  0  0  1  1 0.22287978D+03 0.00000000D+00  -5  6  0 0.00000000D+00 0.00000000D+00 0.00000000D+00 0.00000000D+00 0.00000000D+00
  <mgrwgt>
 0.3979091309D-03    1    2    0
 0.522789289964391D+03 0.000000000000000D+00 0.000000000000000D+00 0.522789289964391D+03
 0.522789289964391D+03 0.000000000000000D+00 0.000000000000000D+00 -.522789289964391D+03
 0.527531225817045D+03 -.286577992426438D+03 0.391382478916607D+03 -.165399527405486D+03
 0.366014329468331D+03 0.194621615262343D+03 -.271302178018059D+03 0.149946805406069D+03
 0.152033024643405D+03 0.919563771640955D+02 -.120080300898548D+03 0.154527219994165D+02
 0.000000000000000D+00 -.000000000000000D+00 -.000000000000000D+00 0.000000000000000D+00
 0.779816986821730D+03 0.000000000000000D+00 0.000000000000000D+00 0.779816986821730D+03
 0.530311497430374D+03 0.000000000000000D+00 0.000000000000000D+00 -.530311497430374D+03
 0.518749576446733D+03 -.249633636592308D+03 0.404724803884574D+03 -.165399527405486D+03
 0.373882034307835D+03 0.220747483656929D+03 -.261866911972119D+03 0.149946805406069D+03
 0.155898459327285D+03 0.102829491046841D+03 -.116153513827509D+03 0.154527219994165D+02
 0.261598414170250D+03 -.739433381114621D+02 -.267043780849452D+02 0.249505489391356D+03
0.841642413695D-04 0.000000000000D+00 0.000000000000D+00 0.136946325308D-04 0.151051765709D-07  6 -2 1 25 -2 1 21 2 0.50378879D-01 0.19428914D+00 0.28511304D+06 0.28511304D+06 0.28511304D+06 0.10861910D+01  1  2  1  1  6  1       -2 0.397909130889D-03 0.100000000000D+01
  </mgrwgt>
  </event>
  <event>
  7     66 0.18996412E-05 0.35505244E+02 0.75467711E-02 0.92460282E-01
       -2 -1    0    0    0  501 0.00000000E+00 0.00000000E+00 0.27463083E+03 0.27463102E+03 0.32000000E+00 0.0000E+00 0.9000E+01
        1 -1    0    0  503    0 0.00000000E+00 0.00000000E+00 -.15689183E+04 0.15689184E+04 0.32000000E+00 0.0000E+00 0.9000E+01
      -24  2    1    2    0    0 0.33979261E+03 0.49051326E+03 -.75418539E+03 0.96500472E+03 0.79851242E+02 0.0000E+00 0.0000E+00
       25  1    1    2    0    0 -.34429773E+03 -.47714583E+03 -.36653121E+03 0.70439988E+03 0.12500000E+03 0.0000E+00 0.9000E+01
       -2  1    3    3    0  502 0.51630131E+02 0.12201903E+03 -.13717223E+03 0.19071087E+03 0.32000000E+00 0.0000E+00 0.9000E+01
        1  1    3    3  502    0 0.28816248E+03 0.36849424E+03 -.61701316E+03 0.77429385E+03 0.32000000E+00 0.0000E+00 0.9000E+01
       21  1    1    2  503  501 0.45051135E+01 -.13367430E+02 -.17357091E+03 0.17414479E+03 0.75000000E+00 0.0000E+00 0.9000E+01
#aMCatNLO 2  0  0  2  5 0.57205663D+02 0.00000000D+00  -5  6  0 0.00000000D+00 0.00000000D+00 0.00000000D+00 0.00000000D+00 0.00000000D+00
  <mgrwgt>
 0.1213342809D-02    1    2    0
 0.618608729048868D+03 0.000000000000000D+00 0.000000000000000D+00 0.618608729048868D+03
 0.618608729048868D+03 0.000000000000000D+00 0.000000000000000D+00 -.618608729048868D+03
 0.622346462909822D+03 -.342038809957348D+03 -.483848418112704D+03 0.143493138056009D+03
 0.131938773186594D+03 0.521087911932527D+02 0.120583530406580D+03 -.123339346944453D+02
 0.482932222001320D+03 0.289930018764096D+03 0.363264887706124D+03 -.131159203361564D+03
 0.000000000000000D+00 0.000000000000000D+00 -.000000000000000D+00 -.000000000000000D+00
 0.619294180734320D+03 0.000000000000000D+00 0.000000000000000D+00 0.619294180734320D+03
 0.695745330697064D+03 0.000000000000000D+00 0.000000000000000D+00 -.695745330697064D+03
 0.618404680980199D+03 -.344297726958561D+03 -.477145830957611D+03 0.143493138056009D+03
 0.133060439858735D+03 0.516263324579906D+02 0.122015066722475D+03 -.123339346944453D+02
 0.485832750680831D+03 0.288166280984970D+03 0.368498194718718D+03 -.131159203361564D+03
 0.777416399116183D+02 0.450511351560032D+01 -.133674304835817D+02 -.764511499627434D+02
0.302761657654D-03 0.000000000000D+00 0.000000000000D+00 0.171843622789D-03 0.539091946141D-05  6 -2 1 25 -2 1 21 2 0.42250791D-01 0.24137137D+00 0.36961150D+06 0.36961150D+06 0.36961150D+06 0.10779101D+01  1  2  1  2  6  2        1 0.121334280875D-02 0.100000000000D+01
  </mgrwgt>
  </event>
  <event>
  7     66 0.18996412E-05 0.14600931E+03 0.75467711E-02 0.91685741E-01
       -2 -1    0    0    0  501 0.00000000E+00 0.00000000E+00 0.93754808E+03 0.93754813E+03 0.32000000E+00 0.0000E+00 0.9000E+01
        1 -1    0    0  503    0 0.00000000E+00 0.00000000E+00 -.52655073E+03 0.52655082E+03 0.32000000E+00 0.0000E+00 0.9000E+01
      -24  2    1    2    0    0 -.24591062E+03 0.44959180E+03 0.37076179E+03 0.63760226E+03 0.80420892E+02 0.0000E+00 0.0000E+00
       25  1    1    2    0    0 0.41502513E+03 -.44279344E+03 0.13263739E+03 0.63366361E+03 0.12500000E+03 0.0000E+00 0.9000E+01
       -2  1    3    3    0  502 -.21488873E+03 0.32447475E+03 0.29193349E+03 0.48650416E+03 0.32000000E+00 0.0000E+00 0.9000E+01
        1  1    3    3  502    0 -.31021886E+02 0.12511705E+03 0.78828306E+02 0.15109811E+03 0.32000000E+00 0.0000E+00 0.9000E+01
       21  1    1    2  503  501 -.16911451E+03 -.67983613E+01 -.92401840E+02 0.19283308E+03 0.75000000E+00 0.0000E+00 0.9000E+01
#aMCatNLO 2  0  0  2  5 0.57205663D+02 0.00000000D+00  -5  6  0 0.00000000D+00 0.00000000D+00 0.00000000D+00 0.00000000D+00 0.00000000D+00
  <mgrwgt>
 0.1039267403D-03    1    2    0
 0.577507627611408D+03 0.000000000000000D+00 0.000000000000000D+00 0.577507627611408D+03
 0.577507627611408D+03 0.000000000000000D+00 0.000000000000000D+00 -.577507627611408D+03
 0.581471852346006D+03 0.326596542258153D+03 -.446348247915846D+03 -.128811704585290D+03
 0.437792901379137D+03 -.276185507763579D+03 0.322013908090534D+03 0.108126004252435D+03
 0.135750501497674D+03 -.504110344945738D+02 0.124334339825312D+03 0.206857003328545D+02
 0.000000000000000D+00 -.000000000000000D+00 -.000000000000000D+00 -.000000000000000D+00
 0.616705630189573D+03 0.000000000000000D+00 0.000000000000000D+00 0.616705630189573D+03
 0.800488661686273D+03 0.000000000000000D+00 0.000000000000000D+00 -.800488661686273D+03
 0.632873876538111D+03 0.415025128458650D+03 -.442793440685484D+03 -.128811704585290D+03
 0.403925195072493D+03 -.214891644345466D+03 0.324477906195870D+03 0.108126004252435D+03
 0.130550993593671D+03 -.310189749238240D+02 0.125113895809815D+03 0.206857003328545D+02
 0.249844226671571D+03 -.169114509189360D+03 -.679836132020137D+01 -.183783031496700D+03
0.619969514006D-04 0.000000000000D+00 0.000000000000D+00 0.220279368622D-03 0.495716023850D-07  6 -2 1 25 -2 1 21 2 0.14423805D+00 0.81007745D-01 0.42703837D+06 0.42703837D+06 0.42703837D+06 0.10733858D+01  1  2  1  2  6  2        1 0.103926740333D-03 0.100000000000D+01
  </mgrwgt>
  </event>
  <event>
  7     66 0.18996412E-05 0.57063644E+02 0.75467711E-02 0.94476285E-01
       -4 -1    0    0    0  501 0.00000000E+00 0.00000000E+00 0.30710704E+03 0.30711095E+03 0.15500000E+01 0.0000E+00 0.9000E+01
        3 -1    0    0  503    0 0.00000000E+00 0.00000000E+00 -.11656613E+04 0.11656614E+04 0.50000000E+00 0.0000E+00 0.9000E+01
      -24  2    1    2    0    0 -.34747629E+03 0.35048744E+03 -.68310782E+02 0.50489078E+03 0.81652432E+02 0.0000E+00 0.0000E+00
       25  1    1    2    0    0 0.34309077E+03 -.32922771E+03 -.59687087E+03 0.77329295E+03 0.12500000E+03 0.0000E+00 0.9000E+01
       -4  1    3    3    0  502 -.17922601E+03 0.23626346E+03 -.49560280E+02 0.30066760E+03 0.15500000E+01 0.0000E+00 0.9000E+01
        3  1    3    3  502    0 -.16825028E+03 0.11422398E+03 -.18750502E+02 0.20422317E+03 0.50000000E+00 0.0000E+00 0.9000E+01
       21  1    1    2  503  501 0.43855169E+01 -.21259731E+02 -.19337260E+03 0.19458863E+03 0.75000000E+00 0.0000E+00 0.9000E+01
#aMCatNLO 2  0  0  2  1 0.74050002D+02 0.00000000D+00  -5  6  0 0.00000000D+00 0.00000000D+00 0.00000000D+00 0.00000000D+00 0.00000000D+00
  <mgrwgt>
 0.1412479961D-03    1    2    0
 0.545622535980499D+03 0.000000000000000D+00 0.000000000000000D+00 0.545622535980499D+03
 0.545622535980499D+03 0.000000000000000D+00 0.000000000000000D+00 -.545622535980499D+03
 0.549726967128241D+03 0.345283930828824D+03 -.339859527376183D+03 -.227704297612163D+03
 0.316571831437910D+03 -.177889395350503D+03 0.230013052751687D+03 0.125168218992019D+03
 0.224946273394846D+03 -.167394535478321D+03 0.109846474624495D+03 0.102536078620143D+03
 0.000000000000000D+00 0.000000000000000D+00 -.000000000000000D+00 -.000000000000000D+00
 0.546811780724563D+03 0.000000000000000D+00 0.000000000000000D+00 0.546811780724563D+03
 0.654675146399163D+03 0.000000000000000D+00 0.000000000000000D+00 -.654675146399163D+03
 0.541826914073046D+03 0.343090768780509D+03 -.329227705456984D+03 -.227704297612163D+03
 0.321830498948454D+03 -.179172080325265D+03 0.236231142400179D+03 0.125168218992019D+03
 0.227803541843987D+03 -.168304205380342D+03 0.114256293958628D+03 0.102536078620143D+03
 0.110025972258239D+03 0.438551692509737D+01 -.212597309018233D+02 -.107863365674600D+03
0.487638734422D-03 0.000000000000D+00 0.000000000000D+00 0.858896859509D-04 0.117095386878D-05  6 -4 3 25 -4 3 21 2 0.47247436D-01 0.17933240D+00 0.25668415D+06 0.25668415D+06 0.25668415D+06 0.10895981D+01  1  2  1  2  6  2        3 0.141247996149D-03 0.100000000000D+01
  </mgrwgt>
  </event>
  <event>
  7     66 0.18996412E-05 0.45232419E+02 0.75467711E-02 0.91986149E-01
       -2 -1    0    0    0  503 0.00000000E+00 0.00000000E+00 0.36809964E+03 0.36809978E+03 0.32000000E+00 0.0000E+00 0.9000E+01
        1 -1    0    0  501    0 0.00000000E+00 0.00000000E+00 -.15465081E+04 0.15465081E+04 0.32000000E+00 0.0000E+00 0.9000E+01
      -24  2    1    2    0    0 0.61631176E+03 -.78420603E+02 -.81551561E+03 0.10284159E+04 0.81138737E+02 0.0000E+00 0.0000E+00
       25  1    1    2    0    0 -.57050913E+03 0.40129787E+02 -.47848943E+03 0.75608743E+03 0.12500000E+03 0.0000E+00 0.9000E+01
       -2  1    3    3    0  502 0.55350056E+03 -.47455903E+02 -.74153426E+03 0.92654633E+03 0.32000000E+00 0.0000E+00 0.9000E+01
        1  1    3    3  502    0 0.62811199E+02 -.30964700E+02 -.73981351E+02 0.10186953E+03 0.32000000E+00 0.0000E+00 0.9000E+01
       21  1    1    2  501  503 -.45802627E+02 0.38290816E+02 0.11559661E+03 0.13010459E+03 0.75000000E+00 0.0000E+00 0.9000E+01
#aMCatNLO 2  0  0  1  1 0.35989704D+03 0.00000000D+00  -5  6  0 0.00000000D+00 0.00000000D+00 0.00000000D+00 0.00000000D+00 0.00000000D+00
  <mgrwgt>
 0.4905029567D-03    1    2    0
 0.613685362056563D+03 0.000000000000000D+00 0.000000000000000D+00 0.613685362056563D+03
 0.613685362056563D+03 0.000000000000000D+00 0.000000000000000D+00 -.613685362056563D+03
 0.617368644208302D+03 -.593100830087072D+03 0.590163567943789D+02 0.101328761130992D+03
 0.543206774480304D+03 0.532848611494848D+03 -.301848301517957D+02 -.101167351937350D+03
 0.667953054245201D+02 0.602522185922241D+02 -.288315266425832D+02 -.161409193642056D+00
 0.000000000000000D+00 -.000000000000000D+00 0.000000000000000D+00 0.000000000000000D+00
 0.922181934766292D+03 0.000000000000000D+00 0.000000000000000D+00 0.922181934766292D+03
 0.617305952637757D+03 0.000000000000000D+00 0.000000000000000D+00 -.617305952637757D+03
 0.594124220394177D+03 -.570509133658212D+03 0.401297874303272D+02 0.101328761130992D+03
 0.564675340953392D+03 0.553508193702997D+03 -.474561596261106D+02 -.101167351937350D+03
 0.700222164498666D+02 0.628035666113883D+02 -.309644435524539D+02 -.161409193642056D+00
 0.310666109606614D+03 -.458026266561734D+02 0.382908157482373D+02 0.304875982128535D+03
0.213039893885D-03 0.000000000000D+00 0.000000000000D+00 0.612146491309D-04 0.114589678520D-06  6 -2 1 25 -2 1 21 2 0.56630686D-01 0.23792416D+00 0.40365708D+06 0.40365708D+06 0.40365708D+06 0.10751428D+01  1  2  1  1  6  1       -2 0.490502956727D-03 0.100000000000D+01
  </mgrwgt>
  </event>
  <event>
  7     66 0.18996412E-05 0.14304156E+03 0.75467711E-02 0.90494987E-01
       -2 -1    0    0    0  503 0.00000000E+00 0.00000000E+00 0.55595038E+03 0.55595047E+03 0.32000000E+00 0.0000E+00 0.9000E+01
        1 -1    0    0  501    0 0.00000000E+00 0.00000000E+00 -.21828428E+04 0.21828428E+04 0.32000000E+00 0.0000E+00 0.9000E+01
      -24  2    1    2    0    0 0.53267262E+03 0.19402676E+03 -.91996532E+03 0.10835476E+04 0.79703627E+02 0.0000E+00 0.0000E+00
       25  1    1    2    0    0 -.63781200E+03 -.32291188E+03 -.10485923E+04 0.12752439E+04 0.12500000E+03 0.0000E+00 0.9000E+01
       -2  1    3    3    0  502 0.12134231E+03 0.79100489E+02 -.25414324E+03 0.29252305E+03 0.32000000E+00 0.0000E+00 0.9000E+01
        1  1    3    3  502    0 0.41133031E+03 0.11492627E+03 -.66582207E+03 0.79102453E+03 0.32000000E+00 0.0000E+00 0.9000E+01
       21  1    1    2  501  503 0.10513938E+03 0.12888512E+03 0.34166523E+03 0.38000178E+03 0.75000000E+00 0.0000E+00 0.9000E+01
#aMCatNLO 2  0  0  1  1 0.35989704D+03 0.00000000D+00  -5  6  0 0.00000000D+00 0.00000000D+00 0.00000000D+00 0.00000000D+00 0.00000000D+00
  <mgrwgt>
 0.4993681477D-03    1    2    0
 0.644401379047979D+03 0.000000000000000D+00 0.000000000000000D+00 0.644401379047979D+03
 0.644401379047979D+03 0.000000000000000D+00 0.000000000000000D+00 -.644401379047979D+03
 0.647998644707950D+03 -.581986482062004D+03 -.254478169301572D+03 0.284576806741533D+02
 0.164999285337254D+03 0.133969944722760D+03 0.945852302362469D+02 -.181783468429120D+02
 0.475804828050755D+03 0.448016537339244D+03 0.159892939065325D+03 -.102793338312412D+02
 0.000000000000000D+00 0.000000000000000D+00 0.000000000000000D+00 0.000000000000000D+00
 0.185133277820684D+04 0.000000000000000D+00 0.000000000000000D+00 0.185133277820684D+04
 0.655501828389831D+03 0.000000000000000D+00 0.000000000000000D+00 -.655501828389831D+03
 0.726299574833349D+03 -.637812000287126D+03 -.322911884425901D+03 0.284576806741533D+02
 0.145979689016048D+03 0.121337633806878D+03 0.790999110835720D+02 -.181783468429120D+02
 0.427212257534094D+03 0.411334981580743D+03 0.114926851567998D+03 -.102793338312412D+02
 0.120734308521318D+04 0.105139384899505D+03 0.128885121774331D+03 0.119583094981701D+04
0.146839448494D-02 0.000000000000D+00 0.000000000000D+00 0.135253675106D-03 0.483903369928D-07  6 -2 1 25 -2 1 21 2 0.85530822D-01 0.33582192D+00 0.53582681D+06 0.53582681D+06 0.53582681D+06 0.10663928D+01  1  2  1  1  6  1       -2 0.499368147656D-03 0.100000000000D+01
  </mgrwgt>
  </event>
  <event>
  6     66 0.18996412E-05 0.53475618E+02 0.75467711E-02 0.95017925E-01
       -2 -1    0    0    0  501 0.00000000E+00 0.00000000E+00 0.11155145E+03 0.11155191E+03 0.32000000E+00 0.0000E+00 0.9000E+01
        1 -1    0    0  501    0 -.00000000E+00 -.00000000E+00 -.31223944E+04 0.31223944E+04 0.32000000E+00 0.0000E+00 0.9000E+01
       25  1    1    2    0    0 0.45885228E+03 0.11141211E+03 -.60636499E+03 0.77862801E+03 0.12500000E+03 0.0000E+00 0.9000E+01
       -2  1    1    2    0  503 -.17814407E+03 -.76777539E+02 -.10495985E+04 0.10673740E+04 0.32000000E+00 0.0000E+00 0.9000E+01
        1  1    1    2  502    0 -.26779702E+03 -.28089613E+02 -.13413727E+04 0.13681320E+04 0.32000000E+00 0.0000E+00 0.9000E+01
       21  1    1    2  503  502 -.12911189E+02 -.65449617E+01 -.13506787E+02 0.19812398E+02 0.75000000E+00 0.0000E+00 0.9000E+01
#aMCatNLO 2  0  0  4  1 0.19103891D+01 0.00000000D+00  -5  6  0 0.00000000D+00 0.00000000D+00 0.00000000D+00 0.00000000D+00 0.00000000D+00
  <mgrwgt>
 0.8185148211D-03    1    2    0
 0.590176588156501D+03 0.000000000000000D+00 0.000000000000000D+00 0.590176588156501D+03
 0.590176588156501D+03 -.000000000000000D+00 -.000000000000000D+00 -.590176588156501D+03
 0.594425245665680D+03 0.465029682537179D+03 0.114106184568809D+03 0.329307676325991D+03
 0.263327438695985D+03 -.200578955291254D+03 -.874941020588118D+02 -.146472539301329D+03
 0.322600491951336D+03 -.264450727245925D+03 -.266120825099975D+02 -.182835137024662D+03
 0.000000000000000D+00 0.000000000000000D+00 -.000000000000000D+00 0.000000000000000D+00
 0.590176588156501D+03 0.000000000000000D+00 0.000000000000000D+00 0.590176588156501D+03
 0.590176588156501D+03 -.000000000000000D+00 -.000000000000000D+00 -.590176588156501D+03
 0.586558269486659D+03 0.458835358515584D+03 0.111404172199946D+03 0.324784278707429D+03
 0.246996112489544D+03 -.178036341298713D+03 -.767439575274363D+02 -.153037595854556D+03
 0.326927769186182D+03 -.267857538991430D+03 -.280981603197236D+02 -.185322957177884D+03
 0.198710251506166D+02 -.129414782254413D+02 -.656205435278564D+01 0.135762743250111D+02
0.474886541093D-03 0.000000000000D+00 0.000000000000D+00 0.685728767844D-05 0.739747111176D-07  6 -2 1 25 -2 1 21 2 0.17161799D-01 0.48036841D+00 0.23335752D+06 0.23335752D+06 0.23335752D+06 0.10927170D+01  1  2  1  3  6  4       -2 0.818514821135D-03 0.100000000000D+01
  </mgrwgt>
  </event>
  <event>
  7     66 0.18996412E-05 0.63465211E+02 0.75467711E-02 0.91353701E-01
       -2 -1    0    0    0  501 0.00000000E+00 0.00000000E+00 0.49708568E+03 0.49708579E+03 0.32000000E+00 0.0000E+00 0.9000E+01
        1 -1    0    0  503    0 0.00000000E+00 0.00000000E+00 -.13545525E+04 0.13545525E+04 0.32000000E+00 0.0000E+00 0.9000E+01
      -24  2    1    2    0    0 -.56977369E+03 0.24031462E+03 0.70203559E+02 0.62753595E+03 0.80496324E+02 0.0000E+00 0.0000E+00
       25  1    1    2    0    0 0.54463768E+03 -.32117271E+03 -.58265110E+03 0.86884372E+03 0.12500000E+03 0.0000E+00 0.9000E+01
       -2  1    3    3    0  502 -.45158180E+03 0.17475202E+03 0.84823685E+02 0.49158881E+03 0.32000000E+00 0.0000E+00 0.9000E+01
        1  1    3    3  502    0 -.11819188E+03 0.65562595E+02 -.14620126E+02 0.13594714E+03 0.32000000E+00 0.0000E+00 0.9000E+01
       21  1    1    2  503  501 0.25136011E+02 0.80858091E+02 -.34501928E+03 0.35525866E+03 0.75000000E+00 0.0000E+00 0.9000E+01
#aMCatNLO 2  0  0  2  1 0.65180100D+01 0.00000000D+00  -5  6  0 0.00000000D+00 0.00000000D+00 0.00000000D+00 0.00000000D+00 0.00000000D+00
  <mgrwgt>
 0.1823999566D-03    1    2    0
 0.701672961622272D+03 0.000000000000000D+00 0.000000000000000D+00 0.701672961622272D+03
 0.701672961622272D+03 0.000000000000000D+00 0.000000000000000D+00 -.701672961622272D+03
 0.704931367720254D+03 0.557319272788266D+03 -.280378258274484D+03 -.303457564845026D+03
 0.557139578318904D+03 -.441643678451753D+03 0.206739883600442D+03 0.269469834196422D+03
 0.141274977205386D+03 -.115675594336513D+03 0.736383746740417D+02 0.339877306486042D+02
 0.000000000000000D+00 0.000000000000000D+00 0.000000000000000D+00 -.000000000000000D+00
 0.710263831550589D+03 0.000000000000000D+00 0.000000000000000D+00 0.710263831550589D+03
 0.947996664522269D+03 0.000000000000000D+00 0.000000000000000D+00 -.947996664522269D+03
 0.712385850257579D+03 0.544637675972852D+03 -.321172707272008D+03 -.303457564845026D+03
 0.554151376275622D+03 -.451587072670086D+03 0.174753746980090D+03 0.269469834196422D+03
 0.139360931293168D+03 -.118186614028057D+03 0.655608694332232D+02 0.339877306486042D+02
 0.252362338246489D+03 0.251360107252905D+02 0.808580908586952D+02 -.237732832971679D+03
0.112864066541D-03 0.000000000000D+00 0.000000000000D+00 0.208799743689D-03 0.187176480163D-06  6 -2 1 25 -2 1 21 2 0.76474672D-01 0.20839254D+00 0.45465990D+06 0.45465990D+06 0.45465990D+06 0.10714404D+01  1  2  1  2  6  2        1 0.182399956600D-03 0.100000000000D+01
  </mgrwgt>
  </event>
  <event>
  6     66 0.18996412E-05 0.18989668E+02 0.75467711E-02 0.94976748E-01
       -2 -1    0    0    0  501 0.00000000E+00 0.00000000E+00 0.25769849E+03 0.25769869E+03 0.32000000E+00 0.0000E+00 0.9000E+01
        1 -1    0    0  501    0 -.00000000E+00 -.00000000E+00 -.95279422E+03 0.95279427E+03 0.32000000E+00 0.0000E+00 0.9000E+01
      -24  2    1    2    0    0 -.17482951E+03 0.44036701E+03 -.22194121E+03 0.52932583E+03 0.80246336E+02 0.0000E+00 0.0000E+00
       25  1    1    2    0    0 0.17482951E+03 -.44036701E+03 -.47315451E+03 0.68116713E+03 0.12500000E+03 0.0000E+00 0.9000E+01
       -2  1    3    3    0  502 -.18281008E+03 0.41725147E+03 -.20480439E+03 0.49946297E+03 0.32000000E+00 0.0000E+00 0.9000E+01
        1  1    3    3  502    0 0.79805707E+01 0.23115538E+02 -.17136818E+02 0.29862862E+02 0.32000000E+00 0.0000E+00 0.9000E+01
#aMCatNLO 1  0  0  4  5 0.89715812D+01 0.00000000D+00  -5  6  0 0.00000000D+00 0.00000000D+00 0.00000000D+00 0.00000000D+00 0.00000000D+00
  <mgrwgt>
 0.6460069918D-03    9    2    0
 0.495513660037045D+03 0.000000000000000D+00 0.000000000000000D+00 0.495513660037045D+03
 0.495513660037045D+03 -.000000000000000D+00 -.000000000000000D+00 -.495513660037045D+03
 0.500148005354099D+03 0.174829514084014D+03 -.440367011711161D+03 -.100172667237196D+03
 0.466429846850375D+03 -.182813118864532D+03 0.417257741106663D+03 0.100160586512117D+03
 0.244494678696152D+02 0.798360478051877D+01 0.231092706044978D+02 0.120807250791426D-01
 0.000000000000000D+00 -.000000000000000D+00 0.000000000000000D+00 0.000000000000000D+00
 0.495513660037045D+03 0.000000000000000D+00 0.000000000000000D+00 0.495513660037045D+03
 0.495513660037045D+03 -.000000000000000D+00 -.000000000000000D+00 -.495513660037045D+03
 0.499838633854449D+03 0.174704204341268D+03 -.440081001273171D+03 -.100104011894478D+03
 0.390594154123271D+03 -.147459173468116D+03 0.350099914009578D+03 0.908275046770493D+02
 0.244606928162624D+02 0.797747577897726D+01 0.231232596078819D+02 0.154387137888381D-01
 0.761338392801069D+02 -.352225066521294D+02 0.668578276557109D+02 0.926106850363934D+01
0.108701458645D-05 0.000000000000D+00 0.000000000000D+00 0.644097238897D-04 0.000000000000D+00  6 -2 1 25 -2 1 21 0 0.39645942D-01 0.14658374D+00 0.23523079D+06 0.23523079D+06 0.23523079D+06 0.10924542D+01  1  2  2  3  6  4       -2 0.117604636734D-04 0.100000000000D+01
0.367999669905D-06 0.000000000000D+00 -.417442222946D-08 0.644097238897D-04 0.000000000000D+00  6 -2 1 25 -2 1 21 2 0.39645942D-01 0.14658374D+00 0.23523079D+06 0.23523079D+06 0.23523079D+06 0.10924542D+01  1  2  3  3  6  4       -2 0.475163408477D-05 0.100000000000D+01
-.343721230086D-06 0.000000000000D+00 0.000000000000D+00 0.644097238897D-04 0.000000000000D+00  6 -2 1 25 -2 1 21 2 0.39645942D-01 0.14658374D+00 0.23523079D+06 0.23523079D+06 0.23523079D+06 0.10924542D+01  1  2 15  3  6  4       -2 -.443814939549D-05 0.100000000000D+01
0.186867912643D-03 0.000000000000D+00 0.000000000000D+00 0.644097238897D-04 0.000000000000D+00  6 -2 1 25 -2 1 21 2 0.39645942D-01 0.14658374D+00 0.23504471D+06 0.23504471D+06 0.23504471D+06 0.10924802D+01  1  2 12  3  6  4       -2 0.241302176045D-02 0.100000000000D+01
0.125184338300D-07 0.000000000000D+00 0.000000000000D+00 0.644097238897D-04 0.000000000000D+00  6 -2 1 25 -2 1 21 2 0.39645942D-01 0.14658374D+00 0.23504471D+06 0.23504471D+06 0.23504471D+06 0.10924802D+01  1  2 12  3  6  4       -2 0.161650295181D-06 0.100000000000D+01
-.182744148221D-03 0.000000000000D+00 0.000000000000D+00 0.644097238897D-04 0.000000000000D+00  6 -2 1 25 -2 1 21 2 0.39645942D-01 0.14658374D+00 0.23523079D+06 0.23523079D+06 0.23523079D+06 0.10924542D+01  1  2  4  3  6  4       -2 -.235960353906D-02 0.100000000000D+01
-.254869083734D-03 0.000000000000D+00 0.000000000000D+00 0.644097238897D-04 0.000000000000D+00  6 -2 1 25 -2 1 21 2 0.39645942D-01 0.14658374D+00 0.23523079D+06 0.23523079D+06 0.23523079D+06 0.10924542D+01  1  2  5  3  6  4       -2 -.329088508621D-02 0.100000000000D+01
0.299812572667D-03 0.000000000000D+00 -.000000000000D+00 0.644097238897D-04 0.000000000000D+00  6 -2 1 25 -2 1 21 2 0.39645942D-01 0.14658374D+00 0.23523079D+06 0.23523079D+06 0.23523079D+06 0.10924542D+01  1  2  6  3  6  4       -2 0.387119814453D-02 0.100000000000D+01
0.310644437823D-08 0.000000000000D+00 0.000000000000D+00 0.644097238897D-04 0.273500985290D-06  6 -2 1 25 -2 1 21 2 0.39645942D-01 0.14658374D+00 0.23504471D+06 0.23504471D+06 0.23504471D+06 0.10924802D+01  1  2 11  3  6  4       -2 0.401134564852D-07 0.100000000000D+01
  </mgrwgt>
  </event>
  <event>
  7     66 0.18996412E-05 0.39054857E+02 0.75467711E-02 0.94423953E-01
       21 -1    0    0  503  501 0.00000000E+00 0.00000000E+00 0.98775054E+03 0.98775082E+03 0.75000000E+00 0.0000E+00 0.9000E+01
        1 -1    0    0  501    0 0.00000000E+00 0.00000000E+00 -.30481520E+03 0.30481536E+03 0.32000000E+00 0.0000E+00 0.9000E+01
      -24  2    1    2    0    0 -.27486729E+03 0.39782521E+03 0.34016610E+03 0.59667434E+03 0.80562775E+02 0.0000E+00 0.0000E+00
       25  1    1    2    0    0 0.27048630E+03 -.41779369E+03 0.19856140E+03 0.55024179E+03 0.12500000E+03 0.0000E+00 0.9000E+01
       -2  1    3    3    0  502 -.21016060E+03 0.28195994E+03 0.20408274E+03 0.40659409E+03 0.32000000E+00 0.0000E+00 0.9000E+01
        1  1    3    3  502    0 -.64706688E+02 0.11586528E+03 0.13608336E+03 0.19008025E+03 0.32000000E+00 0.0000E+00 0.9000E+01
        2  1    1    2  503    0 0.43809976E+01 0.19968478E+02 0.14420784E+03 0.14565005E+03 0.32000000E+00 0.0000E+00 0.9000E+01
#aMCatNLO 2  0  0  1  2 0.73792486D+01 0.00000000D+00  -5  6  0 0.00000000D+00 0.00000000D+00 0.00000000D+00 0.00000000D+00 0.00000000D+00
  <mgrwgt>
 0.5083593592D-03    1    2    0
 0.506154958683550D+03 0.000000000000000D+00 0.000000000000000D+00 0.506154958683550D+03
 0.506154958683550D+03 0.000000000000000D+00 0.000000000000000D+00 -.506154958683550D+03
 0.510666738705838D+03 0.272711164501139D+03 -.407652793213368D+03 -.678479105222033D+02
 0.356706291514312D+03 -.208629551890304D+03 0.288951517637639D+03 0.148360688475602D+02
 0.144936887146949D+03 -.640816126108352D+02 0.118701275575728D+03 0.530118416746431D+02
 0.000000000000000D+00 0.000000000000000D+00 0.000000000000000D+00 0.000000000000000D+00
 0.593312358860982D+03 0.000000000000000D+00 0.000000000000000D+00 0.593312358860982D+03
 0.507458370847910D+03 0.000000000000000D+00 0.000000000000000D+00 -.507458370847910D+03
 0.517631861347381D+03 0.270486295242931D+03 -.417793691916811D+03 -.678479105222033D+02
 0.351982154619308D+03 -.210162899438738D+03 0.281962557675845D+03 0.148360688475602D+02
 0.142902305899621D+03 -.647043933594266D+02 0.115862656424233D+03 0.530118416746431D+02
 0.882544078425829D+02 0.438099755523348D+01 0.199684778167326D+02 0.858539880130717D+02
0.185043210052D-04 0.000000000000D+00 0.000000000000D+00 0.153331567107D-03 0.565943816322D-07  6 21 1 25 -2 1 2 2 0.15196157D+00 0.46894654D-01 0.25907314D+06 0.25907314D+06 0.25907314D+06 0.10892963D+01  1  2  1  5  6  1       -2 0.508359359198D-03 0.100000000000D+01
  </mgrwgt>
  </event>
  <event>
  7     66 0.18996412E-05 0.55986991E+02 0.75467711E-02 0.94756709E-01
       -2 -1    0    0    0  503 0.00000000E+00 0.00000000E+00 0.85874699E+03 0.85874705E+03 0.32000000E+00 0.0000E+00 0.9000E+01
        1 -1    0    0  501    0 0.00000000E+00 0.00000000E+00 -.33228657E+03 0.33228672E+03 0.32000000E+00 0.0000E+00 0.9000E+01
      -24  2    1    2    0    0 -.26899771E+02 -.47773484E+03 0.53369886E+02 0.48806333E+03 0.80020603E+02 0.0000E+00 0.0000E+00
       25  1    1    2    0    0 0.11749406E+02 0.47490065E+03 0.41558953E+03 0.64343479E+03 0.12500000E+03 0.0000E+00 0.9000E+01
       -2  1    3    3    0  502 -.44319734E+02 -.29167614E+03 0.60040196E+02 0.30107165E+03 0.32000000E+00 0.0000E+00 0.9000E+01
        1  1    3    3  502    0 0.17419963E+02 -.18605870E+03 -.66703094E+01 0.18699168E+03 0.32000000E+00 0.0000E+00 0.9000E+01
       21  1    1    2  501  503 0.15150365E+02 0.28341912E+01 0.57500995E+02 0.59535646E+02 0.75000000E+00 0.0000E+00 0.9000E+01
#aMCatNLO 2  0  0  1  2 0.93573039D+02 0.00000000D+00  -5  6  0 0.00000000D+00 0.00000000D+00 0.00000000D+00 0.00000000D+00 0.00000000D+00
  <mgrwgt>
 0.7181315747D-03    1    2    0
 0.514812465997331D+03 0.000000000000000D+00 0.000000000000000D+00 0.514812465997331D+03
 0.514812465997331D+03 0.000000000000000D+00 0.000000000000000D+00 -.514812465997331D+03
 0.519290651588740D+03 0.193787386876694D+02 0.476327872190273D+03 0.163627636690812D+03
 0.302060488451196D+03 -.398658615274982D+02 -.290844457384652D+03 -.711389722773167D+02
 0.208273791954726D+03 0.204871228398288D+02 -.185483414805620D+03 -.924886644134956D+02
 0.000000000000000D+00 0.000000000000000D+00 0.000000000000000D+00 0.000000000000000D+00
 0.552517224630099D+03 0.000000000000000D+00 0.000000000000000D+00 0.552517224630099D+03
 0.516447732617619D+03 0.000000000000000D+00 0.000000000000000D+00 -.516447732617619D+03
 0.517752524120140D+03 0.117494059928969D+02 0.474900646664721D+03 0.163627636690812D+03
 0.303481526803492D+03 -.443207208846152D+02 -.291677831578908D+03 -.711389722773167D+02
 0.208506240012966D+03 0.174209500912873D+02 -.186057006256871D+03 -.924886644134956D+02
 0.392246663111186D+02 0.151503648004310D+02 0.283419117105885D+01 0.360694920124800D+02
0.170437192671D-03 0.000000000000D+00 0.000000000000D+00 0.267143472881D-03 0.715655782870D-05  6 -2 1 25 -2 1 21 2 0.13211402D+00 0.51120673D-01 0.24429612D+06 0.24429612D+06 0.24429612D+06 0.10912140D+01  1  2  1  1  6  1       -2 0.718131574663D-03 0.100000000000D+01
  </mgrwgt>
  </event>
  <event>
  7     66 0.18996412E-05 0.20313666E+03 0.75467711E-02 0.91973950E-01
       21 -1    0    0  503  501 0.00000000E+00 0.00000000E+00 0.56950338E+03 0.56950387E+03 0.75000000E+00 0.0000E+00 0.9000E+01
        1 -1    0    0  501    0 0.00000000E+00 0.00000000E+00 -.75983917E+03 0.75983924E+03 0.32000000E+00 0.0000E+00 0.9000E+01
      -24  2    1    2    0    0 -.12205704E+02 -.51716948E+03 -.13236820E+03 0.54005608E+03 0.80783545E+02 0.0000E+00 0.0000E+00
       25  1    1    2    0    0 -.21097925E+03 0.45503738E+03 -.15270241E+03 0.53899378E+03 0.12500000E+03 0.0000E+00 0.9000E+01
       -2  1    3    3    0  502 0.29615319E+02 -.34902407E+03 -.91543218E+02 0.36204300E+03 0.32000000E+00 0.0000E+00 0.9000E+01
        1  1    3    3  502    0 -.41821023E+02 -.16814541E+03 -.40824978E+02 0.17801308E+03 0.32000000E+00 0.0000E+00 0.9000E+01
        2  1    1    2  503    0 0.22318496E+03 0.62132097E+02 0.94734815E+02 0.25029325E+03 0.32000000E+00 0.0000E+00 0.9000E+01
#aMCatNLO 2  0  0  1  2 0.39930696D+02 0.00000000D+00  -5  6  0 0.00000000D+00 0.00000000D+00 0.00000000D+00 0.00000000D+00 0.00000000D+00
  <mgrwgt>
 0.1896203254D-03    1    2    0
 0.507299572323582D+03 0.000000000000000D+00 0.000000000000000D+00 0.507299572323582D+03
 0.507299572323582D+03 0.000000000000000D+00 0.000000000000000D+00 -.507299572323582D+03
 0.511783618547247D+03 -.992620739070713D+02 0.486138147204360D+03 -.106871291604873D+02
 0.344464340588490D+03 0.105061197653453D+03 -.328023966903022D+03 0.425485862166772D+01
 0.158351185511428D+03 -.579912374638212D+01 -.158114180301338D+03 0.643227053881957D+01
 0.000000000000000D+00 0.000000000000000D+00 0.000000000000000D+00 0.000000000000000D+00
 0.746480109459231D+03 0.000000000000000D+00 0.000000000000000D+00 0.746480109459231D+03
 0.579695579518816D+03 0.000000000000000D+00 0.000000000000000D+00 -.579695579518816D+03
 0.517020773380903D+03 -.210979252976671D+03 0.455037383289659D+03 -.106871291604873D+02
 0.350307039013924D+03 0.296164394113088D+02 -.349026910534716D+03 0.425485862166772D+01
 0.173385090831001D+03 -.418221435534531D+02 -.168142570239616D+03 0.643227053881957D+01
 0.285462785752220D+03 0.223184957118815D+03 0.621320974846730D+02 0.166784529940415D+03
0.592740412942D-05 0.000000000000D+00 0.000000000000D+00 0.214107167404D-03 0.156776876712D-08  6 21 1 25 -2 1 2 2 0.87615934D-01 0.11689836D+00 0.40457821D+06 0.40457821D+06 0.40457821D+06 0.10750715D+01  1  2  1  5  6  1       -2 0.189620325409D-03 0.100000000000D+01
  </mgrwgt>
  </event>
  <event>
  7     66 0.18996412E-05 0.73786809E+02 0.75467711E-02 0.94954966E-01
       -2 -1    0    0    0  503 0.00000000E+00 0.00000000E+00 0.49599285E+03 0.49599295E+03 0.32000000E+00 0.0000E+00 0.9000E+01
        1 -1    0    0  501    0 0.00000000E+00 0.00000000E+00 -.54472076E+03 0.54472086E+03 0.32000000E+00 0.0000E+00 0.9000E+01
      -24  2    1    2    0    0 0.43760219E+03 0.18492314E+03 -.20409739E+03 0.52323247E+03 0.80151282E+02 0.0000E+00 0.0000E+00
       25  1    1    2    0    0 -.42690246E+03 -.17832795E+03 0.15800739E+03 0.50461659E+03 0.12500000E+03 0.0000E+00 0.9000E+01
       -2  1    3    3    0  502 0.23108826E+03 0.61689150E+02 -.12626191E+03 0.27046165E+03 0.32000000E+00 0.0000E+00 0.9000E+01
        1  1    3    3  502    0 0.20651393E+03 0.12323399E+03 -.77835483E+02 0.25277082E+03 0.32000000E+00 0.0000E+00 0.9000E+01
       21  1    1    2  501  503 -.10699722E+02 -.65951954E+01 -.26379124E+01 0.12864748E+02 0.75000000E+00 0.0000E+00 0.9000E+01
#aMCatNLO 2  0  0  1  2 0.39930696D+02 0.00000000D+00  -5  6  0 0.00000000D+00 0.00000000D+00 0.00000000D+00 0.00000000D+00 0.00000000D+00
  <mgrwgt>
 0.1772380017D-02    1    2    0
 0.513369123915983D+03 0.000000000000000D+00 0.000000000000000D+00 0.513369123915983D+03
 0.513369123915983D+03 0.000000000000000D+00 0.000000000000000D+00 -.513369123915983D+03
 0.517849707015306D+03 -.432269467870777D+03 -.181636111924239D+03 0.180816893700781D+03
 0.262282202954281D+03 0.228340976885564D+03 0.599945342551877D+02 -.114249762017258D+03
 0.246606337862378D+03 0.203928490985213D+03 0.121641577669051D+03 -.665671316835226D+02
 0.000000000000000D+00 -.000000000000000D+00 -.000000000000000D+00 -.000000000000000D+00
 0.518744665704006D+03 0.000000000000000D+00 0.000000000000000D+00 0.518744665704006D+03
 0.520807738647536D+03 0.000000000000000D+00 0.000000000000000D+00 -.520807738647536D+03
 0.512217063502262D+03 -.426902464400745D+03 -.178327947848483D+03 0.180816893700781D+03
 0.265066786261434D+03 0.231088647168740D+03 0.616881691062885D+02 -.114249762017258D+03
 0.249531328455168D+03 0.206513539501438D+03 0.123234974185974D+03 -.665671316835226D+02
 0.127372261326780D+02 -.106997222694331D+02 -.659519544377916D+01 -.206307294353018D+01
0.218840305033D-03 0.000000000000D+00 0.000000000000D+00 0.193142489393D-03 0.778080499182D-05  6 -2 1 25 -2 1 21 2 0.76304988D-01 0.83801431D-01 0.23594276D+06 0.23594276D+06 0.23594276D+06 0.10923549D+01  1  2  1  1  6  1       -2 0.177238001659D-02 0.100000000000D+01
  </mgrwgt>
  </event>
  <event>
  7     66 0.18996412E-05 0.18788372E+02 0.75467711E-02 0.95044378E-01
       21 -1    0    0  503  501 0.00000000E+00 0.00000000E+00 0.74766494E+03 0.74766531E+03 0.75000000E+00 0.0000E+00 0.9000E+01
        3 -1    0    0  501    0 0.00000000E+00 0.00000000E+00 -.44743052E+03 0.44743080E+03 0.50000000E+00 0.0000E+00 0.9000E+01
      -24  2    1    2    0    0 0.91300613E+01 -.47076603E+03 0.34163370E+02 0.47875866E+03 0.79615996E+02 0.0000E+00 0.0000E+00
       25  1    1    2    0    0 -.17809902E+02 0.45012047E+03 0.18614254E+02 0.46786443E+03 0.12500000E+03 0.0000E+00 0.9000E+01
       -4  1    3    3    0  502 -.16785818E+02 -.56652638E+02 0.23760661E+02 0.63704447E+02 0.15500000E+01 0.0000E+00 0.9000E+01
        3  1    3    3  502    0 0.25915879E+02 -.41411339E+03 0.10402709E+02 0.41505421E+03 0.50000000E+00 0.0000E+00 0.9000E+01
        4  1    1    2  503    0 0.86798406E+01 0.20645558E+02 0.24745679E+03 0.24847302E+03 0.15500000E+01 0.0000E+00 0.9000E+01
#aMCatNLO 2  0  0  1  2 0.39930696D+02 0.00000000D+00  -5  6  0 0.00000000D+00 0.00000000D+00 0.00000000D+00 0.00000000D+00 0.00000000D+00
  <mgrwgt>
 0.3384403517D-03    1    2    0
 0.472442646230686D+03 0.000000000000000D+00 0.000000000000000D+00 0.472442646230686D+03
 0.472442646230686D+03 0.000000000000000D+00 0.000000000000000D+00 -.472442646230686D+03
 0.477356625418365D+03 -.134704752452068D+02 0.460442077045705D+03 -.748250047210201D+01
 0.609506833316833D+02 -.162301879222501D+02 -.551512928177570D+02 0.202460292190250D+02
 0.406577983711323D+03 0.297006631674568D+02 -.405290784227948D+03 -.127635287469230D+02
 0.000000000000000D+00 0.000000000000000D+00 0.000000000000000D+00 0.000000000000000D+00
 0.707076256386968D+03 0.000000000000000D+00 0.000000000000000D+00 0.707076256386968D+03
 0.473110066492908D+03 0.000000000000000D+00 0.000000000000000D+00 -.473110066492908D+03
 0.467553868268977D+03 -.178099019032431D+02 0.450120472000737D+03 -.748250047210201D+01
 0.623219395180732D+02 -.167963076863695D+02 -.564978450408648D+02 0.202460292190250D+02
 0.415274865186841D+03 0.259263690038110D+02 -.414268185334275D+03 -.127635287469230D+02
 0.235035649905986D+03 0.867984058580157D+01 0.206455583744034D+02 0.233966189894060D+03
0.399232831007D-04 0.000000000000D+00 0.000000000000D+00 0.111656493300D-03 0.735121169396D-07  6 21 3 25 -4 3 4 2 0.11502480D+00 0.68835144D-01 0.23228077D+06 0.23228077D+06 0.23228077D+06 0.10928691D+01  1  2  1  5  6  1       -4 0.338440351683D-03 0.100000000000D+01
  </mgrwgt>
  </event>
  <event>
  6     66 0.18996412E-05 0.31756357E+02 0.75467711E-02 0.92759031E-01
       -2 -1    0    0    0  501 0.00000000E+00 0.00000000E+00 0.13506962E+03 0.13507000E+03 0.32000000E+00 0.0000E+00 0.9000E+01
        1 -1    0    0  501    0 -.00000000E+00 -.00000000E+00 -.26562640E+04 0.26562640E+04 0.32000000E+00 0.0000E+00 0.9000E+01
       25  1    1    2    0    0 0.57814186E+03 -.73578587E+02 -.11192463E+04 0.12680690E+04 0.12500000E+03 0.0000E+00 0.9000E+01
       -2  1    1    2    0  502 -.53158187E+03 0.52351788E+02 -.11922954E+04 0.13064794E+04 0.32000000E+00 0.0000E+00 0.9000E+01
        1  1    1    2  503    0 -.32489374E+02 0.20873100E+02 -.17792814E+03 0.18207079E+03 0.32000000E+00 0.0000E+00 0.9000E+01
       21  1    1    2  502  503 -.14070618E+02 0.35369851E+00 -.31724539E+02 0.34714784E+02 0.75000000E+00 0.0000E+00 0.9000E+01
#aMCatNLO 2  0  0  5  4 0.11154218D+03 0.00000000D+00  -5  6  0 0.00000000D+00 0.00000000D+00 0.00000000D+00 0.00000000D+00 0.00000000D+00
  <mgrwgt>
 0.7092829587D-04    1    2    0
 0.598983408324025D+03 0.000000000000000D+00 0.000000000000000D+00 0.598983408324025D+03
 0.598983408324025D+03 -.000000000000000D+00 -.000000000000000D+00 -.598983408324025D+03
 0.600584465532572D+03 0.579451924672300D+03 -.741758373211115D+02 0.617261078501242D+02
 0.533713449144476D+03 -.530466138041567D+03 0.518247159512431D+02 -.277474504329945D+02
 0.636689019710011D+02 -.489857866307329D+02 0.223511213698684D+02 -.339786574171298D+02
 0.000000000000000D+00 -.000000000000000D+00 0.000000000000000D+00 0.000000000000000D+00
 0.598983408324025D+03 0.000000000000000D+00 0.000000000000000D+00 0.598983408324025D+03
 0.598983408324025D+03 -.000000000000000D+00 -.000000000000000D+00 -.598983408324025D+03
 0.599139779045966D+03 0.578128841819170D+03 -.735721441385231D+02 0.608083604361676D+02
 0.534980272198081D+03 -.531644717489590D+03 0.523624754545331D+02 -.285649640437311D+02
 0.495513275204162D+02 -.322213865200162D+02 0.208370889237856D+02 -.313517469201562D+02
 0.142954378835863D+02 -.142627378095631D+02 0.372579760204534D+00 -.891649472280448D+00
0.270347017388D-04 0.000000000000D+00 0.000000000000D+00 0.143589675092D-06 0.235190095024D-06  6 -2 1 25 -2 1 21 2 0.20779972D-01 0.40865603D+00 0.34981464D+06 0.34981464D+06 0.34981464D+06 0.10796501D+01  1  2  1  4  6  5        1 0.709282958714D-04 0.100000000000D+01
  </mgrwgt>
  </event>
  <event>
  7     66 0.18996412E-05 0.24096047E+02 0.75467711E-02 0.93598599E-01
       -2 -1    0    0    0  501 0.00000000E+00 0.00000000E+00 0.25948730E+03 0.25948749E+03 0.32000000E+00 0.0000E+00 0.9000E+01
        1 -1    0    0  503    0 0.00000000E+00 0.00000000E+00 -.12018294E+04 0.12018295E+04 0.32000000E+00 0.0000E+00 0.9000E+01
      -24  2    1    2    0    0 0.50532052E+03 0.14269367E+03 -.44350943E+03 0.69207769E+03 0.80997543E+02 0.0000E+00 0.0000E+00
       25  1    1    2    0    0 -.49540656E+03 -.96469611E+02 -.50080443E+03 0.72191698E+03 0.12500000E+03 0.0000E+00 0.9000E+01
       -2  1    3    3    0  502 0.38971907E+03 0.82595507E+02 -.30343123E+03 0.50077298E+03 0.32000000E+00 0.0000E+00 0.9000E+01
        1  1    3    3  502    0 0.11560145E+03 0.60098163E+02 -.14007820E+03 0.19130470E+03 0.32000000E+00 0.0000E+00 0.9000E+01
       21  1    1    2  503  501 -.99139607E+01 -.46224060E+02 0.19717207E+01 0.47322304E+02 0.75000000E+00 0.0000E+00 0.9000E+01
#aMCatNLO 2  0  0  2  1 0.24270385D+02 0.00000000D+00  -5  6  0 0.00000000D+00 0.00000000D+00 0.00000000D+00 0.00000000D+00 0.00000000D+00
  <mgrwgt>
 0.3885845825D-04    1    2    0
 0.525694137691104D+03 0.000000000000000D+00 0.000000000000000D+00 0.525694137691104D+03
 0.525694137691104D+03 0.000000000000000D+00 0.000000000000000D+00 -.525694137691104D+03
 0.530004818292046D+03 -.500357186669898D+03 -.119552014179446D+03 -.251019733528356D+02
 0.393649835603632D+03 0.385980817938869D+03 0.651462333157459D+02 0.416529655460228D+02
 0.127733621486530D+03 0.114376368731029D+03 0.544057808637000D+02 -.165509921931872D+02
 0.000000000000000D+00 -.000000000000000D+00 -.000000000000000D+00 0.000000000000000D+00
 0.581451486991964D+03 0.000000000000000D+00 0.000000000000000D+00 0.581451486991964D+03
 0.536342555201159D+03 0.000000000000000D+00 0.000000000000000D+00 -.536342555201159D+03
 0.520566187111108D+03 -.495406560538038D+03 -.964696111377121D+02 -.251019733528356D+02
 0.400551286134570D+03 0.389723347293866D+03 0.825958586089201D+02 0.416529655460228D+02
 0.131333122228064D+03 0.115597173973829D+03 0.600978121137296D+02 -.165509921931872D+02
 0.653434467193805D+02 -.991396072965691D+01 -.462240595849377D+02 0.451089317908047D+02
0.477253050064D-05 0.000000000000D+00 0.000000000000D+00 0.201383087205D-03 0.568389596326D-06  6 -2 1 25 -2 1 21 2 0.39920983D-01 0.18489612D+00 0.30025008D+06 0.30025008D+06 0.30025008D+06 0.10845251D+01  1  2  1  2  6  2        1 0.388584582490D-04 0.100000000000D+01
  </mgrwgt>
  </event>
  <event>
  7     66 0.18996412E-05 0.48368065E+02 0.75467711E-02 0.91985326E-01
       -2 -1    0    0    0  503 0.00000000E+00 0.00000000E+00 0.38477464E+03 0.38477478E+03 0.32000000E+00 0.0000E+00 0.9000E+01
        1 -1    0    0  501    0 0.00000000E+00 0.00000000E+00 -.11720934E+04 0.11720935E+04 0.32000000E+00 0.0000E+00 0.9000E+01
      -24  2    1    2    0    0 0.47927954E+03 0.38765306E+03 -.13756041E+03 0.63682656E+03 0.81494983E+02 0.0000E+00 0.0000E+00
       25  1    1    2    0    0 -.46565499E+03 -.31504805E+03 -.59492038E+03 0.82803690E+03 0.12500000E+03 0.0000E+00 0.9000E+01
       -2  1    3    3    0  502 0.36751018E+03 0.25406741E+03 -.84085522E+02 0.45462563E+03 0.32000000E+00 0.0000E+00 0.9000E+01
        1  1    3    3  502    0 0.11176935E+03 0.13358564E+03 -.53474892E+02 0.18220093E+03 0.32000000E+00 0.0000E+00 0.9000E+01
       21  1    1    2  501  503 -.13624546E+02 -.72605004E+02 -.54837989E+02 0.92004796E+02 0.75000000E+00 0.0000E+00 0.9000E+01
#aMCatNLO 2  0  0  1  2 0.39930696D+02 0.00000000D+00  -5  6  0 0.00000000D+00 0.00000000D+00 0.00000000D+00 0.00000000D+00 0.00000000D+00
  <mgrwgt>
 0.9826427924D-04    1    2    0
 0.633213967463044D+03 0.000000000000000D+00 0.000000000000000D+00 0.633213967463044D+03
 0.633213967463044D+03 0.000000000000000D+00 0.000000000000000D+00 -.633213967463044D+03
 0.636760781147977D+03 -.472370006542119D+03 -.350832278481723D+03 -.208860196549996D+03
 0.458711716580316D+03 0.362488197621286D+03 0.227286182133540D+03 0.165407789793863D+03
 0.170955437197796D+03 0.109881808920833D+03 0.123546096348183D+03 0.434524067561333D+02
 0.000000000000000D+00 -.000000000000000D+00 -.000000000000000D+00 -.000000000000000D+00
 0.666477280725214D+03 0.000000000000000D+00 0.000000000000000D+00 0.666477280725214D+03
 0.676676383201696D+03 0.000000000000000D+00 0.000000000000000D+00 -.676676383201696D+03
 0.612647880849175D+03 -.465654989369679D+03 -.315048052019381D+03 -.208860196549996D+03
 0.476421623150018D+03 0.367514124386331D+03 0.254069270981273D+03 0.165407789793863D+03
 0.179511131676888D+03 0.111765411220019D+03 0.133583784936035D+03 0.434524067561333D+02
 0.745730282508291D+02 -.136245462366706D+02 -.726050038979270D+02 -.101991024764823D+02
0.257538271355D-04 0.000000000000D+00 0.000000000000D+00 0.109248787345D-03 0.123618744500D-06  6 -2 1 25 -2 1 21 2 0.59195946D-01 0.18032157D+00 0.40371919D+06 0.40371919D+06 0.40371919D+06 0.10751380D+01  1  2  1  1  6  1       -2 0.982642792364D-04 0.100000000000D+01
  </mgrwgt>
  </event>
  <event>
  7     66 0.18996412E-05 0.80697850E+02 0.75467711E-02 0.94413599E-01
       -2 -1    0    0    0  501 0.00000000E+00 0.00000000E+00 0.13088639E+04 0.13088639E+04 0.32000000E+00 0.0000E+00 0.9000E+01
        1 -1    0    0  503    0 0.00000000E+00 0.00000000E+00 -.27568189E+03 0.27568208E+03 0.32000000E+00 0.0000E+00 0.9000E+01
      -24  2    1    2    0    0 -.38825911E+03 0.16238754E+03 0.86926646E+03 0.96916833E+03 0.80921133E+02 0.0000E+00 0.0000E+00
       25  1    1    2    0    0 0.37318829E+03 -.27461423E+03 0.13161544E+03 0.49762446E+03 0.12500000E+03 0.0000E+00 0.9000E+01
       -2  1    3    3    0  502 -.24926611E+03 0.70087028E+02 0.58121782E+03 0.63628613E+03 0.32000000E+00 0.0000E+00 0.9000E+01
        1  1    3    3  502    0 -.13899300E+03 0.92300508E+02 0.28804864E+03 0.33288220E+03 0.32000000E+00 0.0000E+00 0.9000E+01
       21  1    1    2  503  501 0.15070816E+02 0.11222670E+03 0.32300106E+02 0.11775322E+03 0.75000000E+00 0.0000E+00 0.9000E+01
#aMCatNLO 2  0  0  2  1 0.47952040D+01 0.00000000D+00  -5  6  0 0.00000000D+00 0.00000000D+00 0.00000000D+00 0.00000000D+00 0.00000000D+00
  <mgrwgt>
 0.2778447556D-03    1    2    0
 0.533126287927727D+03 0.000000000000000D+00 0.000000000000000D+00 0.533126287927727D+03
 0.533126287927727D+03 0.000000000000000D+00 0.000000000000000D+00 -.533126287927727D+03
 0.537382676379753D+03 0.380906984661566D+03 -.217136052428773D+03 -.284459038606175D+03
 0.333580260164728D+03 -.244606252367876D+03 0.104799700371472D+03 0.201148189343479D+03
 0.195289639310972D+03 -.136300732293690D+03 0.112336352057301D+03 0.833108492626961D+02
 0.000000000000000D+00 0.000000000000000D+00 0.000000000000000D+00 -.000000000000000D+00
 0.568723542715581D+03 0.000000000000000D+00 0.000000000000000D+00 0.568723542715581D+03
 0.634453999502654D+03 0.000000000000000D+00 0.000000000000000D+00 -.634453999502654D+03
 0.557874919091766D+03 0.373188294738886D+03 -.274614233747592D+03 -.284459038606175D+03
 0.327882887944617D+03 -.249267830572533D+03 0.700866804207832D+02 0.201148189343479D+03
 0.186490539583463D+03 -.138991280007484D+03 0.923008549859668D+02 0.833108492626961D+02
 0.130929195598388D+03 0.150708158411311D+02 0.112226698340842D+03 -.657304567870734D+02
0.172820324124D-03 0.000000000000D+00 0.000000000000D+00 0.198581119590D-03 0.100543710129D-06  6 -2 1 25 -2 1 21 2 0.20136332D+00 0.42412538D-01 0.25954877D+06 0.25954877D+06 0.25954877D+06 0.10892366D+01  1  2  1  2  6  2        1 0.277844755591D-03 0.100000000000D+01
  </mgrwgt>
  </event>
  <event>
  7     66 0.18996412E-05 0.40229062E+02 0.75467711E-02 0.95053849E-01
       -4 -1    0    0    0  503 0.00000000E+00 0.00000000E+00 0.96038762E+03 0.96038887E+03 0.15500000E+01 0.0000E+00 0.9000E+01
        3 -1    0    0  501    0 0.00000000E+00 0.00000000E+00 -.43546128E+03 0.43546157E+03 0.50000000E+00 0.0000E+00 0.9000E+01
      -24  2    1    2    0    0 0.44291624E+03 -.15744458E+03 0.52015949E+03 0.70588219E+03 0.82098601E+02 0.0000E+00 0.0000E+00
       25  1    1    2    0    0 -.42807089E+03 0.15217483E+03 -.18009024E+03 0.50443965E+03 0.12500000E+03 0.0000E+00 0.9000E+01
       -4  1    3    3    0  502 0.98658828E+02 -.69984743E+02 0.15277807E+03 0.19487167E+03 0.15500000E+01 0.0000E+00 0.9000E+01
        3  1    3    3  502    0 0.34425741E+03 -.87459836E+02 0.36738142E+03 0.51101051E+03 0.50000000E+00 0.0000E+00 0.9000E+01
       21  1    1    2  501  503 -.14845358E+02 0.52697494E+01 0.18485709E+03 0.18552860E+03 0.75000000E+00 0.0000E+00 0.9000E+01
#aMCatNLO 2  0  0  1  1 0.17504154D+02 0.00000000D+00  -5  6  0 0.00000000D+00 0.00000000D+00 0.00000000D+00 0.00000000D+00 0.00000000D+00
  <mgrwgt>
 0.8479701897D-04    1    2    0
 0.580728787703822D+03 0.000000000000000D+00 0.000000000000000D+00 0.580728787703822D+03
 0.580728787703822D+03 0.000000000000000D+00 0.000000000000000D+00 -.580728787703822D+03
 0.584553645488084D+03 -.435502390620428D+03 0.154812838030720D+03 -.335333591216530D+03
 0.156614964823255D+03 0.965280375123636D+02 -.692420494863037D+02 0.102059412910017D+03
 0.420288965096305D+03 0.338974353108065D+03 -.855707885444162D+02 0.233274178306513D+03
 0.000000000000000D+00 -.000000000000000D+00 0.000000000000000D+00 0.000000000000000D+00
 0.719528794558812D+03 0.000000000000000D+00 0.000000000000000D+00 0.719528794558812D+03
 0.581229336716804D+03 0.000000000000000D+00 0.000000000000000D+00 -.581229336716804D+03
 0.578338550495323D+03 -.428070885121438D+03 0.152174830054793D+03 -.335333591216530D+03
 0.158177322154456D+03 0.985397292407928D+02 -.699561522781839D+02 0.102059412910017D+03
 0.425048526931803D+03 0.344376513550974D+03 -.874884272163605D+02 0.233274178306513D+03
 0.139193731694035D+03 -.148453576703290D+02 0.526974943975112D+01 0.138299457842008D+03
0.471624694274D-03 0.000000000000D+00 0.000000000000D+00 0.446598729438D-04 0.117787001911D-05  6 -4 3 25 -4 3 21 2 0.14775180D+00 0.66994045D-01 0.23189661D+06 0.23189661D+06 0.23189661D+06 0.10929236D+01  1  2  1  1  6  1       -4 0.847970189674D-04 0.100000000000D+01
  </mgrwgt>
  </event>
  <event>
  7     66 0.18996412E-05 0.54915833E+02 0.75467711E-02 0.93387866E-01
       21 -1    0    0  503  501 0.00000000E+00 0.00000000E+00 0.34172021E+03 0.34172104E+03 0.75000000E+00 0.0000E+00 0.9000E+01
        1 -1    0    0  501    0 0.00000000E+00 0.00000000E+00 -.10831705E+04 0.10831705E+04 0.32000000E+00 0.0000E+00 0.9000E+01
      -24  2    1    2    0    0 0.52364153E+03 -.12033088E+03 -.25995794E+03 0.60272377E+03 0.83772583E+02 0.0000E+00 0.0000E+00
       25  1    1    2    0    0 -.53141262E+03 0.13417097E+03 -.52909384E+03 0.77198867E+03 0.12500000E+03 0.0000E+00 0.9000E+01
       -2  1    3    3    0  502 0.33950006E+03 -.57269650E+02 -.20401720E+03 0.40020398E+03 0.32000000E+00 0.0000E+00 0.9000E+01
        1  1    3    3  502    0 0.18414147E+03 -.63061226E+02 -.55940740E+02 0.20251979E+03 0.32000000E+00 0.0000E+00 0.9000E+01
        2  1    1    2  503    0 0.77710919E+01 -.13840092E+02 0.47601512E+02 0.50179123E+02 0.32000000E+00 0.0000E+00 0.9000E+01
#aMCatNLO 2  0  0  1  1 0.17504154D+02 0.00000000D+00  -5  6  0 0.00000000D+00 0.00000000D+00 0.00000000D+00 0.00000000D+00 0.00000000D+00
  <mgrwgt>
 0.2656729111D-03    1    2    0
 0.562800952900501D+03 0.000000000000000D+00 0.000000000000000D+00 0.562800952900501D+03
 0.562800952900501D+03 0.000000000000000D+00 0.000000000000000D+00 -.562800952900501D+03
 0.566624309429333D+03 -.527482707497045D+03 0.127171910684602D+03 -.105011458711336D+03
 0.348807541596587D+03 0.341899714716533D+03 -.615392448960062D+02 0.313720813628537D+02
 0.210170054775083D+03 0.185582992780512D+03 -.656326657885958D+02 0.736393773484823D+02
 0.000000000000000D+00 0.000000000000000D+00 -.000000000000000D+00 0.000000000000000D+00
 0.656829959979892D+03 0.000000000000000D+00 0.000000000000000D+00 0.656829959979892D+03
 0.563527146433790D+03 0.000000000000000D+00 0.000000000000000D+00 -.563527146433790D+03
 0.571886024707201D+03 -.531412617629539D+03 0.134170967868775D+03 -.105011458711336D+03
 0.345725093995357D+03 0.339502326866707D+03 -.572695659242568D+02 0.313720813628537D+02
 0.208102694107505D+03 0.184139198846725D+03 -.630613102196272D+02 0.736393773484823D+02
 0.946432936036182D+02 0.777109191610784D+01 -.138400917248907D+02 0.933028135461021D+02
0.444258891149D-05 0.000000000000D+00 0.000000000000D+00 0.157113909489D-04 0.927713848871D-08  6 21 1 25 -2 1 2 2 0.52572382D-01 0.16664160D+00 0.31190631D+06 0.31190631D+06 0.31190631D+06 0.10833035D+01  1  2  1  5  6  1       -2 0.265672911063D-03 0.100000000000D+01
  </mgrwgt>
  </event>
  <event>
  6     66 -.18996412E-05 0.14995636E+02 0.75467711E-02 0.93939249E-01
       -2 -1    0    0    0  501 0.00000000E+00 0.00000000E+00 0.54952409E+03 0.54952418E+03 0.32000000E+00 0.0000E+00 0.9000E+01
        1 -1    0    0  501    0 -.00000000E+00 -.00000000E+00 -.59451466E+03 0.59451475E+03 0.32000000E+00 0.0000E+00 0.9000E+01
      -24  2    1    2    0    0 -.51380401E+03 -.10193553E+03 0.18074820E+03 0.56011393E+03 0.81684098E+02 0.0000E+00 0.0000E+00
       25  1    1    2    0    0 0.51380401E+03 0.10193553E+03 -.22573877E+03 0.58392500E+03 0.12500000E+03 0.0000E+00 0.9000E+01
       -2  1    3    3    0  502 -.49602709E+03 -.10357999E+03 0.18849555E+03 0.54064994E+03 0.32000000E+00 0.0000E+00 0.9000E+01
        1  1    3    3  502    0 -.17776920E+02 0.16444577E+01 -.77473443E+01 0.19463989E+02 0.32000000E+00 0.0000E+00 0.9000E+01
#aMCatNLO 1  0  0  5  4 0.18255094D+01 0.00000000D+00  -5  6  0 0.00000000D+00 0.00000000D+00 0.00000000D+00 0.00000000D+00 0.00000000D+00
  <mgrwgt>
 -.6688615426D-03    9    2    0
 0.571576968785449D+03 0.000000000000000D+00 0.000000000000000D+00 0.571576968785449D+03
 0.571576968785449D+03 -.000000000000000D+00 -.000000000000000D+00 -.571576968785449D+03
 0.575492761714611D+03 0.513804007895365D+03 0.101935532321425D+03 -.202932273201965D+03
 0.548495150629898D+03 -.496034427815365D+03 -.103581604906450D+03 0.209922909210505D+03
 0.191660252263896D+02 -.177695800800002D+02 0.164607258502493D+01 -.699063600853985D+01
 0.000000000000000D+00 0.000000000000000D+00 0.000000000000000D+00 -.000000000000000D+00
 0.571576968785449D+03 0.000000000000000D+00 0.000000000000000D+00 0.571576968785449D+03
 0.571576968785449D+03 -.000000000000000D+00 -.000000000000000D+00 -.571576968785449D+03
 0.575197973047741D+03 0.513404272829146D+03 0.101972561498863D+03 -.203089530848753D+03
 0.548775892371177D+03 -.496415605572155D+03 -.103546294772353D+03 0.209772952096140D+03
 0.258291822078078D+01 -.220894019736653D+01 -.130513236054590D+01 0.297790633089034D+00
 0.165971539311999D+02 -.147797270596248D+02 0.287886563403605D+01 -.698121188047644D+01
0.512988719331D-04 0.000000000000D+00 0.000000000000D+00 0.275786043248D-04 0.000000000000D+00  6 -2 1 25 -2 1 21 0 0.84542182D-01 0.91463808D-01 0.28254847D+06 0.28254847D+06 0.28254847D+06 0.10864828D+01  1  2  2  4  6  5        1 0.242313268090D-03 0.100000000000D+01
0.207331179204D-04 0.000000000000D+00 -.197001175526D-06 0.275786043248D-04 0.000000000000D+00  6 -2 1 25 -2 1 21 2 0.84542182D-01 0.91463808D-01 0.28254847D+06 0.28254847D+06 0.28254847D+06 0.10864828D+01  1  2  3  4  6  5        1 0.115605827299D-03 0.100000000000D+01
-.147591289414D-04 0.000000000000D+00 0.000000000000D+00 0.275786043248D-04 0.000000000000D+00  6 -2 1 25 -2 1 21 2 0.84542182D-01 0.91463808D-01 0.28254847D+06 0.28254847D+06 0.28254847D+06 0.10864828D+01  1  2 15  4  6  5        1 -.822954520413D-04 0.100000000000D+01
0.372550186961D-08 0.000000000000D+00 0.000000000000D+00 0.275786043248D-04 0.000000000000D+00  6 -2 1 25 -2 1 21 2 0.84542182D-01 0.91463808D-01 0.28242574D+06 0.28242574D+06 0.28242574D+06 0.10864969D+01  1  2 12  4  6  5        1 0.207738864739D-07 0.100000000000D+01
0.149008760892D-11 0.000000000000D+00 0.000000000000D+00 0.275786043248D-04 0.000000000000D+00  6 -2 1 25 -2 1 21 2 0.84542182D-01 0.91463808D-01 0.28242574D+06 0.28242574D+06 0.28242574D+06 0.10864969D+01  1  2 12  4  6  5        1 0.830892371207D-11 0.100000000000D+01
-.375947632517D-03 0.000000000000D+00 0.000000000000D+00 0.275786043248D-04 0.000000000000D+00  6 -2 1 25 -2 1 21 2 0.84542182D-01 0.91463808D-01 0.28254847D+06 0.28254847D+06 0.28254847D+06 0.10864828D+01  1  2  4  4  6  5        1 -.209624704037D-02 0.100000000000D+01
-.366773831817D-04 0.000000000000D+00 0.000000000000D+00 0.275786043248D-04 0.000000000000D+00  6 -2 1 25 -2 1 21 2 0.84542182D-01 0.91463808D-01 0.28254847D+06 0.28254847D+06 0.28254847D+06 0.10864828D+01  1  2  5  4  6  5        1 -.204509482952D-03 0.100000000000D+01
0.240676948187D-03 0.000000000000D+00 -.000000000000D+00 0.275786043248D-04 0.000000000000D+00  6 -2 1 25 -2 1 21 2 0.84542182D-01 0.91463808D-01 0.28254847D+06 0.28254847D+06 0.28254847D+06 0.10864828D+01  1  2  6  4  6  5        1 0.134199100270D-02 0.100000000000D+01
0.255724846929D-05 0.000000000000D+00 0.000000000000D+00 0.275786043248D-04 0.220616996125D-06  6 -2 1 25 -2 1 21 2 0.84542182D-01 0.91463808D-01 0.28242574D+06 0.28242574D+06 0.28242574D+06 0.10864969D+01  1  2 11  4  6  5        1 0.142595524699D-04 0.100000000000D+01
  </mgrwgt>
  </event>
  <event>
  7     66 0.18996412E-05 0.19192191E+02 0.75467711E-02 0.92669331E-01
       -2 -1    0    0    0  501 0.00000000E+00 0.00000000E+00 0.43692002E+03 0.43692014E+03 0.32000000E+00 0.0000E+00 0.9000E+01
        1 -1    0    0  503    0 0.00000000E+00 0.00000000E+00 -.10464846E+04 0.10464847E+04 0.32000000E+00 0.0000E+00 0.9000E+01
      -24  2    1    2    0    0 -.41261771E+03 -.39614317E+03 -.72643422E+02 0.58196394E+03 0.78880748E+02 0.0000E+00 0.0000E+00
       25  1    1    2    0    0 0.42361518E+03 0.40955415E+03 -.31667005E+03 0.68050668E+03 0.12500000E+03 0.0000E+00 0.9000E+01
       -2  1    3    3    0  502 -.38178377E+02 -.51527814E+02 0.14295730E+02 0.65705208E+02 0.32000000E+00 0.0000E+00 0.9000E+01
        1  1    3    3  502    0 -.37443933E+03 -.34461535E+03 -.86939151E+02 0.51625873E+03 0.32000000E+00 0.0000E+00 0.9000E+01
       21  1    1    2  503  501 -.10997467E+02 -.13410979E+02 -.22025114E+03 0.22093421E+03 0.75000000E+00 0.0000E+00 0.9000E+01
#aMCatNLO 2  0  0  2  5 0.43910749D+01 0.00000000D+00  -5  6  0 0.00000000D+00 0.00000000D+00 0.00000000D+00 0.00000000D+00 0.00000000D+00
  <mgrwgt>
 0.8854004044D-03    1    2    0
 0.600409500793981D+03 0.000000000000000D+00 0.000000000000000D+00 0.600409500793981D+03
 0.600409500793981D+03 0.000000000000000D+00 0.000000000000000D+00 -.600409500793981D+03
 0.604324673496829D+03 0.418042461130125D+03 0.402758436666186D+03 -.112291822424995D+03
 0.746311307282587D+02 -.388520315039081D+02 -.523512332404122D+02 0.363273134157446D+02
 0.521863197362875D+03 -.379190429626217D+03 -.350407203425774D+03 0.759645090092499D+02
 0.000000000000000D+00 -.000000000000000D+00 -.000000000000000D+00 -.000000000000000D+00
 0.600940997399699D+03 0.000000000000000D+00 0.000000000000000D+00 0.600940997399699D+03
 0.760854874106577D+03 0.000000000000000D+00 0.000000000000000D+00 -.760854874106577D+03
 0.612714346924312D+03 0.423615178186188D+03 0.409554145814255D+03 -.112291822424995D+03
 0.736984269923296D+02 -.381728432097302D+02 -.515229898435965D+02 0.363273134157446D+02
 0.514531468425979D+03 -.374444867541564D+03 -.344620177214508D+03 0.759645090092499D+02
 0.160851629163655D+03 -.109974674348943D+02 -.134109787561506D+02 -.159913876706878D+03
0.242131200139D-03 0.000000000000D+00 0.000000000000D+00 0.500475096595D-04 0.106452741130D-05  6 -2 1 25 -2 1 21 2 0.67218380D-01 0.16099742D+00 0.35563113D+06 0.35563113D+06 0.35563113D+06 0.10791280D+01  1  2  1  2  6  2        1 0.885400404378D-03 0.100000000000D+01
  </mgrwgt>
  </event>
  <event>
  6     66 0.18996412E-05 0.34826060E+02 0.75467711E-02 0.94925956E-01
       -2 -1    0    0    0  501 0.00000000E+00 0.00000000E+00 0.29518556E+03 0.29518573E+03 0.32000000E+00 0.0000E+00 0.9000E+01
        1 -1    0    0  501    0 -.00000000E+00 -.00000000E+00 -.82154164E+03 0.82154170E+03 0.32000000E+00 0.0000E+00 0.9000E+01
       25  1    1    2    0    0 -.13859319E+03 0.45523853E+03 -.30730066E+03 0.58009386E+03 0.12500000E+03 0.0000E+00 0.9000E+01
       -2  1    1    2    0  502 0.70653677E+02 -.34706595E+03 -.16400160E+03 0.39031185E+03 0.32000000E+00 0.0000E+00 0.9000E+01
        1  1    1    2  503    0 0.60301781E+02 -.93783543E+02 -.63123906E+02 0.12812645E+03 0.32000000E+00 0.0000E+00 0.9000E+01
       21  1    1    2  502  503 0.76377314E+01 -.14389030E+02 0.80700789E+01 0.18195268E+02 0.75000000E+00 0.0000E+00 0.9000E+01
#aMCatNLO 2  0  0  5  4 0.18255094D+01 0.00000000D+00  -5  6  0 0.00000000D+00 0.00000000D+00 0.00000000D+00 0.00000000D+00 0.00000000D+00
  <mgrwgt>
 0.3386720077D-03    1    2    0
 0.492450360366135D+03 0.000000000000000D+00 0.000000000000000D+00 0.492450360366135D+03
 0.492450360366135D+03 -.000000000000000D+00 -.000000000000000D+00 -.492450360366135D+03
 0.497172064163811D+03 -.140664487861339D+03 0.458536425555831D+03 -.388961396297051D+02
 0.352352120449026D+03 0.691864472561281D+02 -.344772319546986D+03 0.223002236578586D+02
 0.135376536119434D+03 0.714780406052105D+02 -.113764106008845D+03 0.165959159718465D+02
 0.000000000000000D+00 0.000000000000000D+00 0.000000000000000D+00 0.000000000000000D+00
 0.492450360366135D+03 0.000000000000000D+00 0.000000000000000D+00 0.492450360366135D+03
 0.492450360366135D+03 -.000000000000000D+00 -.000000000000000D+00 -.492450360366135D+03
 0.493490923699406D+03 -.138582441258313D+03 0.455222650185711D+03 -.384127258402291D+02
 0.354982437594484D+03 0.706730310205561D+02 -.347138359124113D+03 0.226453816816469D+02
 0.111346597700335D+03 0.602180617847015D+02 -.936030901224434D+02 -.321113280070353D+01
 0.250807617380461D+02 0.769134845305540D+01 -.144812009391549D+02 0.189784769592857D+02
0.265790295600D-04 0.000000000000D+00 0.000000000000D+00 0.122878176826D-03 0.239556306432D-06  6 -2 1 25 -2 1 21 2 0.45413180D-01 0.12639104D+00 0.23714482D+06 0.23714482D+06 0.23714482D+06 0.10921881D+01  1  2  1  4  6  5        1 0.338672007679D-03 0.100000000000D+01
  </mgrwgt>
  </event>
  <event>
  7     66 0.18996412E-05 0.69643988E+02 0.75467711E-02 0.93170696E-01
       -2 -1    0    0    0  503 0.00000000E+00 0.00000000E+00 0.10980890E+03 0.10980937E+03 0.32000000E+00 0.0000E+00 0.9000E+01
        1 -1    0    0  501    0 0.00000000E+00 0.00000000E+00 -.31383636E+04 0.31383637E+04 0.32000000E+00 0.0000E+00 0.9000E+01
      -24  2    1    2    0    0 -.15913490E+02 0.55031653E+03 -.14538555E+04 0.15566380E+04 0.79526150E+02 0.0000E+00 0.0000E+00
       25  1    1    2    0    0 0.81244417E+01 -.55977866E+03 -.15778281E+04 0.16788641E+04 0.12500000E+03 0.0000E+00 0.9000E+01
       -2  1    3    3    0  502 0.20125300E+02 0.26255124E+03 -.77185941E+03 0.81553984E+03 0.32000000E+00 0.0000E+00 0.9000E+01
        1  1    3    3  502    0 -.36038791E+02 0.28776529E+03 -.68199612E+03 0.74109815E+03 0.32000000E+00 0.0000E+00 0.9000E+01
       21  1    1    2  501  503 0.77890486E+01 0.94621314E+01 0.31288562E+01 0.12670969E+02 0.75000000E+00 0.0000E+00 0.9000E+01
#aMCatNLO 2  0  0  1  5 0.33854401D+01 0.00000000D+00  -5  6  0 0.00000000D+00 0.00000000D+00 0.00000000D+00 0.00000000D+00 0.00000000D+00
  <mgrwgt>
 0.1744960868D-02    1    2    0
 0.565070337766636D+03 0.000000000000000D+00 0.000000000000000D+00 0.565070337766636D+03
 0.565070337766636D+03 0.000000000000000D+00 0.000000000000000D+00 -.565070337766636D+03
 0.569185131490017D+03 0.120630514022994D+02 -.554994040290426D+03 -.135207966585736D+02
 0.266593240882929D+03 0.219554379996074D+02 0.264772975798847D+03 -.220269406257895D+02
 0.294362303160325D+03 -.340184894019069D+02 0.290221064491579D+03 0.355477372843631D+02
 0.000000000000000D+00 0.000000000000000D+00 0.000000000000000D+00 0.000000000000000D+00
 0.608906503310897D+03 0.000000000000000D+00 0.000000000000000D+00 0.608906503310897D+03
 0.565960818291204D+03 0.000000000000000D+00 0.000000000000000D+00 -.565960818291204D+03
 0.573782160482713D+03 0.812444170843393D+01 -.559778660894513D+03 -.135207966585736D+02
 0.264240778521606D+03 0.201262097886656D+02 0.262550830507000D+03 -.220269406257895D+02
 0.292184187013992D+03 -.360397000772500D+02 0.287765699021498D+03 0.355477372843631D+02
 0.446601955837899D+02 0.778904858015045D+01 0.946213136601542D+01 0.429456850196931D+02
0.105549126560D-02 0.000000000000D+00 0.000000000000D+00 0.132442038796D-03 0.552159579858D-05  6 -2 1 25 -2 1 21 2 0.16893621D-01 0.48282253D+00 0.32445174D+06 0.32445174D+06 0.32445174D+06 0.10820432D+01  1  2  1  1  6  1       -2 0.174496086757D-02 0.100000000000D+01
  </mgrwgt>
  </event>
  <event>
  7     66 0.18996412E-05 0.24290405E+02 0.75467711E-02 0.85989491E-01
       -2 -1    0    0    0  501 0.00000000E+00 0.00000000E+00 0.10699257E+04 0.10699257E+04 0.32000000E+00 0.0000E+00 0.9000E+01
        1 -1    0    0  503    0 0.00000000E+00 0.00000000E+00 -.13543699E+04 0.13543699E+04 0.32000000E+00 0.0000E+00 0.9000E+01
      -24  2    1    2    0    0 -.10809301E+04 0.39959039E+03 0.11829854E+03 0.11617953E+04 0.87700119E+02 0.0000E+00 0.0000E+00
       25  1    1    2    0    0 0.10679846E+04 -.38864261E+03 -.33319903E+03 0.11909160E+04 0.12500000E+03 0.0000E+00 0.9000E+01
       -2  1    3    3    0  502 -.12209281E+03 0.70993020E+02 0.29933099E+02 0.14437020E+03 0.32000000E+00 0.0000E+00 0.9000E+01
        1  1    3    3  502    0 -.95883729E+03 0.32859737E+03 0.88365438E+02 0.10174251E+04 0.32000000E+00 0.0000E+00 0.9000E+01
       21  1    1    2  503  501 0.12945460E+02 -.10947778E+02 -.69543732E+02 0.71584439E+02 0.75000000E+00 0.0000E+00 0.9000E+01
#aMCatNLO 2  0  0  2  5 0.43910749D+01 0.00000000D+00  -5  6  0 0.00000000D+00 0.00000000D+00 0.00000000D+00 0.00000000D+00 0.00000000D+00
  <mgrwgt>
 0.2726836284D-03    1    2    0
 0.117140732281501D+04 0.000000000000000D+00 0.000000000000000D+00 0.117140732281501D+04
 0.117140732281501D+04 0.000000000000000D+00 0.000000000000000D+00 -.117140732281501D+04
 0.117310051892242D+04 0.107444523461222D+04 -.394106236482848D+03 -.225360909832342D+03
 0.146707693235448D+03 -.121268257706540D+03 0.703017036489081D+02 0.432992770303116D+02
 0.102300643347215D+04 -.953176976905682D+03 0.323804532833940D+03 0.182061632802030D+03
 0.000000000000000D+00 0.000000000000000D+00 -.000000000000000D+00 -.000000000000000D+00
 0.117255407901279D+04 0.000000000000000D+00 0.000000000000000D+00 0.117255407901279D+04
 0.123582354652577D+04 0.000000000000000D+00 0.000000000000000D+00 -.123582354652577D+04
 0.116535265320845D+04 0.106798463889545D+04 -.388642609273435D+03 -.225360909832342D+03
 0.147710128712825D+03 -.122081664851951D+03 0.709895896592433D+02 0.432992770303116D+02
 0.102981320766327D+04 -.958848434405401D+03 0.328600797895389D+03 0.182061632802030D+03
 0.655016359540169D+02 0.129454603619002D+02 -.109477782811970D+02 -.632694675129859D+02
0.133706263318D-02 0.000000000000D+00 0.000000000000D+00 0.239542971933D-05 0.480977345043D-07  6 -2 1 25 -2 1 21 2 0.16460366D+00 0.20836423D+00 0.13399472D+07 0.13399472D+07 0.13399472D+07 0.10395075D+01  1  2  1  2  6  2        1 0.272683628374D-03 0.100000000000D+01
  </mgrwgt>
  </event>
  <event>
  6     66 0.18996412E-05 0.62297421E+02 0.75467711E-02 0.89218546E-01
       -2 -1    0    0    0  501 0.00000000E+00 0.00000000E+00 0.35463319E+03 0.35463333E+03 0.32000000E+00 0.0000E+00 0.9000E+01
        1 -1    0    0  501    0 -.00000000E+00 -.00000000E+00 -.21825889E+04 0.21825889E+04 0.32000000E+00 0.0000E+00 0.9000E+01
       25  1    1    2    0    0 -.13039176E+03 -.81417601E+03 -.12619447E+04 0.15126182E+04 0.12500000E+03 0.0000E+00 0.9000E+01
       -2  1    1    2    0  502 0.71968584E+02 0.43678912E+03 -.27201482E+03 0.51957326E+03 0.32000000E+00 0.0000E+00 0.9000E+01
        1  1    1    2  503    0 0.52122923E+02 0.36240276E+03 -.31180270E+03 0.48090912E+03 0.32000000E+00 0.0000E+00 0.9000E+01
       21  1    1    2  502  503 0.63002553E+01 0.14984129E+02 0.17806500E+02 0.24121594E+02 0.75000000E+00 0.0000E+00 0.9000E+01
#aMCatNLO 2  0  0  5  4 0.18255094D+01 0.00000000D+00  -5  6  0 0.00000000D+00 0.00000000D+00 0.00000000D+00 0.00000000D+00 0.00000000D+00
  <mgrwgt>
 0.3039163631D-02    1    2    0
 0.879783301423399D+03 0.000000000000000D+00 0.000000000000000D+00 0.879783301423399D+03
 0.879783301423399D+03 -.000000000000000D+00 -.000000000000000D+00 -.879783301423399D+03
 0.883989749024848D+03 -.132462866527064D+03 -.827554387120128D+03 -.251833678706158D+03
 0.459829748831808D+03 0.709657413535256D+02 0.430279786402041D+03 0.145830610225294D+03
 0.415747104990141D+03 0.614971251735383D+02 0.397274600718086D+03 0.106003068480864D+03
 0.000000000000000D+00 0.000000000000000D+00 0.000000000000000D+00 0.000000000000000D+00
 0.879783301423399D+03 0.000000000000000D+00 0.000000000000000D+00 0.879783301423399D+03
 0.879783301423399D+03 -.000000000000000D+00 -.000000000000000D+00 -.879783301423399D+03
 0.870136087336708D+03 -.130391254351166D+03 -.814171665607537D+03 -.248262824837335D+03
 0.467215646800684D+03 0.720605764499549D+02 0.437352477597909D+03 0.147717785916427D+03
 0.368912659643633D+03 0.520260735084191D+02 0.361816259339399D+03 0.497878760169618D+02
 0.533022090657725D+02 0.630460439279253D+01 0.150029286702286D+02 0.507571629039462D+02
0.347582933396D-02 0.000000000000D+00 0.000000000000D+00 0.242367233195D-06 0.912658847790D-06  6 -2 1 25 -2 1 21 2 0.54558965D-01 0.33578291D+00 0.68809387D+06 0.68809387D+06 0.68809387D+06 0.10588453D+01  1  2  1  4  6  5        1 0.303916363090D-02 0.100000000000D+01
  </mgrwgt>
  </event>
  <event>
  7     66 0.18996412E-05 0.64977985E+02 0.75467711E-02 0.94176232E-01
       -2 -1    0    0    0  503 0.00000000E+00 0.00000000E+00 0.80966774E+03 0.80966780E+03 0.32000000E+00 0.0000E+00 0.9000E+01
        1 -1    0    0  501    0 0.00000000E+00 0.00000000E+00 -.71002997E+03 0.71003004E+03 0.32000000E+00 0.0000E+00 0.9000E+01
      -24  2    1    2    0    0 -.41558976E+03 0.29210786E+03 -.50055403E+03 0.71728276E+03 0.76800820E+02 0.0000E+00 0.0000E+00
       25  1    1    2    0    0 0.41695697E+03 -.27391955E+03 0.57839953E+03 0.77398711E+03 0.12500000E+03 0.0000E+00 0.9000E+01
       -2  1    3    3    0  502 -.21154477E+03 0.15493397E+03 -.20504422E+03 0.33286477E+03 0.32000000E+00 0.0000E+00 0.9000E+01
        1  1    3    3  502    0 -.20404500E+03 0.13717389E+03 -.29550981E+03 0.38441799E+03 0.32000000E+00 0.0000E+00 0.9000E+01
       21  1    1    2  501  503 -.13672098E+01 -.18188312E+02 0.21792268E+02 0.28427969E+02 0.75000000E+00 0.0000E+00 0.9000E+01
#aMCatNLO 2  0  0  1  4 0.15540316D+03 0.00000000D+00  -5  6  0 0.00000000D+00 0.00000000D+00 0.00000000D+00 0.00000000D+00 0.00000000D+00
  <mgrwgt>
 0.2315165996D-02    1    2    0
 0.744562494485681D+03 0.000000000000000D+00 0.000000000000000D+00 0.744562494485681D+03
 0.744562494485681D+03 0.000000000000000D+00 0.000000000000000D+00 -.744562494485681D+03
 0.747828383562371D+03 0.416271782675944D+03 -.283034816436043D+03 0.538731275214568D+03
 0.342363978889756D+03 -.211859986934036D+03 0.150742557156252D+03 -.222722072187579D+03
 0.398932626519235D+03 -.204411795741908D+03 0.132292259279791D+03 -.316009203026989D+03
 0.000000000000000D+00 -.000000000000000D+00 -.000000000000000D+00 0.000000000000000D+00
 0.768444918140133D+03 0.000000000000000D+00 0.000000000000000D+00 0.768444918140133D+03
 0.748109026415478D+03 0.000000000000000D+00 0.000000000000000D+00 -.748109026415478D+03
 0.744809656500093D+03 0.416956974614189D+03 -.273919548119615D+03 0.538731275214568D+03
 0.344036328579947D+03 -.211544896507246D+03 0.154934278663499D+03 -.222722072187579D+03
 0.400390704208156D+03 -.204044868270166D+03 0.137173581097676D+03 -.316009203026989D+03
 0.273172552674155D+02 -.136720983677693D+01 -.181883116415596D+02 0.203358917246544D+02
0.138400123726D-02 0.000000000000D+00 0.000000000000D+00 0.139500525339D-04 0.264646871429D-06  6 -2 1 25 -2 1 21 2 0.12456342D+00 0.10923464D+00 0.27072566D+06 0.27072566D+06 0.27072566D+06 0.10878665D+01  1  2  1  1  6  1       -2 0.231516599584D-02 0.100000000000D+01
  </mgrwgt>
  </event>
  <event>
  6     66 0.18996412E-05 0.10978898E+02 0.75467711E-02 0.93552451E-01
       -2 -1    0    0    0  501 0.00000000E+00 0.00000000E+00 0.10436215E+03 0.10436264E+03 0.32000000E+00 0.0000E+00 0.9000E+01
        1 -1    0    0  501    0 0.00000000E+00 0.00000000E+00 -.25601393E+04 0.25601393E+04 0.32000000E+00 0.0000E+00 0.9000E+01
      -24  2    1    2    0    0 -.50503264E+03 -.16645813E+02 -.13046663E+04 0.14011666E+04 0.76017419E+02 0.0000E+00 0.0000E+00
       25  1    1    2    0    0 0.50503264E+03 0.16645813E+02 -.11511109E+04 0.12633354E+04 0.12500000E+03 0.0000E+00 0.9000E+01
       -2  1    3    3    0  502 -.10371139E+02 0.36263702E+01 -.92350603E+01 0.14356177E+02 0.32000000E+00 0.0000E+00 0.9000E+01
        1  1    3    3  502    0 -.49466151E+03 -.20272183E+02 -.12954312E+04 0.13868104E+04 0.32000000E+00 0.0000E+00 0.9000E+01
#aMCatNLO 1  0  0  2  5 0.43910749D+01 0.00000000D+00  -5  6  0 0.00000000D+00 0.00000000D+00 0.00000000D+00 0.00000000D+00 0.00000000D+00
  <mgrwgt>
 0.6752643222D-03    7    2    0
 0.516896831145770D+03 0.000000000000000D+00 0.000000000000000D+00 0.516896831145770D+03
 0.516896831145770D+03 0.000000000000000D+00 0.000000000000000D+00 -.516896831145770D+03
 0.521659073584073D+03 0.505032644001257D+03 0.166458128974530D+02 0.341779820743572D+02
 0.150552105527354D+02 -.103625564186768D+02 0.362679366365683D+01 0.103016094363062D+02
 0.497079378154732D+03 -.494670087582581D+03 -.202726065611098D+02 -.444795915106634D+02
 0.000000000000000D+00 0.000000000000000D+00 -.000000000000000D+00 -.000000000000000D+00
 0.523901561630779D+03 0.000000000000000D+00 0.000000000000000D+00 0.523901561630779D+03
 0.736864342591907D+03 0.000000000000000D+00 0.000000000000000D+00 -.736864342591907D+03
 0.498075767530416D+03 0.479226670343673D+03 0.403501446546924D+02 0.341779820743572D+02
 0.157847207253132D+02 -.111430087696951D+02 0.434368587221014D+01 0.103016094363062D+02
 0.522377423405146D+03 -.520469025017479D+03 0.342526200434840D+01 -.444795915106634D+02
 0.224527992561810D+03 0.523853634435010D+02 -.481190925312509D+02 -.212962780961128D+03
0.318736065516D-04 0.000000000000D+00 0.000000000000D+00 0.339754397795D-05 0.000000000000D+00  6 -2 1 25 -2 1 21 0 0.16055755D-01 0.39386763D+00 0.26347815D+06 0.26347815D+06 0.26347815D+06 0.10887477D+01  1  2  2  2  6  2        1 0.130346355783D-03 0.100000000000D+01
0.144905402393D-04 0.000000000000D+00 -.122403041671D-06 0.339754397795D-05 0.000000000000D+00  6 -2 1 25 -2 1 21 2 0.16055755D-01 0.39386763D+00 0.26347815D+06 0.26347815D+06 0.26347815D+06 0.10887477D+01  1  2  3  2  6  2        1 0.702435957827D-04 0.100000000000D+01
-.110561790241D-04 0.000000000000D+00 0.000000000000D+00 0.339754397795D-05 0.000000000000D+00  6 -2 1 25 -2 1 21 2 0.16055755D-01 0.39386763D+00 0.26347815D+06 0.26347815D+06 0.26347815D+06 0.10887477D+01  1  2 15  2  6  2        1 -.535953634198D-04 0.100000000000D+01
-.839782184664D-04 0.000000000000D+00 0.000000000000D+00 0.339754397795D-05 0.000000000000D+00  6 -2 1 25 -2 1 21 2 0.16055755D-01 0.39386763D+00 0.26347815D+06 0.26347815D+06 0.26347815D+06 0.10887477D+01  1  2  4  2  6  2        1 -.407088482217D-03 0.100000000000D+01
-.235437229052D-03 0.000000000000D+00 -.154596732417D-04 0.339754397795D-05 0.000000000000D+00  6 -2 1 25 -2 1 21 2 0.16055755D-01 0.56288641D+00 0.26347815D+06 0.26347815D+06 0.26347815D+06 0.10887477D+01  1  2  5  2  6  2        1 -.165480660836D-03 0.100000000000D+01
0.227251852938D-03 0.000000000000D+00 0.145239373699D-04 0.339754397795D-05 0.000000000000D+00  6 -2 1 25 -2 1 21 2 0.16055755D-01 0.39386763D+00 0.26347815D+06 0.26347815D+06 0.26347815D+06 0.10887477D+01  1  2  6  2  6  2        1 0.110161436600D-02 0.100000000000D+01
-.986829631677D-05 0.000000000000D+00 -.677541231573D-06 0.339754397795D-05 0.000000000000D+00  6 -2 21 25 -2 1 -1 2 0.16055755D-01 0.56288641D+00 0.26347815D+06 0.26347815D+06 0.26347815D+06 0.10887477D+01  1  2  5  6  6  2        1 -.775488853741D-06 0.100000000000D+01
  </mgrwgt>
  </event>
  <event>
  6     66 0.18996412E-05 0.12576908E+02 0.75467711E-02 0.92829692E-01
       -2 -1    0    0    0  501 0.00000000E+00 0.00000000E+00 0.41388264E+03 0.41388277E+03 0.32000000E+00 0.0000E+00 0.9000E+01
        1 -1    0    0  501    0 -.00000000E+00 -.00000000E+00 -.84494842E+03 0.84494848E+03 0.32000000E+00 0.0000E+00 0.9000E+01
       25  1    1    2    0    0 0.48684481E+03 -.30797932E+03 -.23456576E+03 0.63444088E+03 0.12500000E+03 0.0000E+00 0.9000E+01
       -2  1    1    2    0  503 -.32823235E+02 0.22645322E+02 -.37346953E+02 0.54635819E+02 0.32000000E+00 0.0000E+00 0.9000E+01
        1  1    1    2  502    0 -.45233093E+03 0.26243579E+03 -.15965115E+03 0.54677637E+03 0.32000000E+00 0.0000E+00 0.9000E+01
       21  1    1    2  503  502 -.16906508E+01 0.22898208E+02 0.49808937E+00 0.22978181E+02 0.75000000E+00 0.0000E+00 0.9000E+01
#aMCatNLO 2  0  0  4  5 0.12915427D+02 0.00000000D+00  -5  6  0 0.00000000D+00 0.00000000D+00 0.00000000D+00 0.00000000D+00 0.00000000D+00
  <mgrwgt>
 0.3056957270D-02    1    2    0
 0.591362495923388D+03 0.000000000000000D+00 0.000000000000000D+00 0.591362495923388D+03
 0.591362495923388D+03 -.000000000000000D+00 -.000000000000000D+00 -.591362495923388D+03
 0.594714370159186D+03 0.490124565876891D+03 -.312307183568458D+03 -.173872105112937D+02
 0.685100549874034D+02 -.406158416583584D+02 0.536452467518850D+02 -.128906377534072D+02
 0.519500566700185D+03 -.449508724218532D+03 0.258661936816573D+03 0.302778482647009D+02
 0.000000000000000D+00 0.000000000000000D+00 0.000000000000000D+00 0.000000000000000D+00
 0.591362495923388D+03 0.000000000000000D+00 0.000000000000000D+00 0.591362495923388D+03
 0.591362495923388D+03 -.000000000000000D+00 -.000000000000000D+00 -.591362495923388D+03
 0.589746944646731D+03 0.486828032259378D+03 -.307953134701889D+03 -.184334628840188D+02
 0.441373133094160D+02 -.325785198640290D+02 0.222075463886859D+02 -.198385320282772D+02
 0.523873841375689D+03 -.452412591798571D+03 0.262497353897827D+03 0.293562200642317D+02
 0.249668925149390D+02 -.183692059677850D+01 0.232482344153759D+02 0.891577484806432D+01
0.514360929432D-03 0.000000000000D+00 0.000000000000D+00 0.159094413999D-05 0.207641742661D-06  6 -2 1 25 -2 1 21 2 0.63674267D-01 0.12999208D+00 0.34530770D+06 0.34530770D+06 0.34530770D+06 0.10800613D+01  1  2  1  3  6  4       -2 0.305695727012D-02 0.100000000000D+01
  </mgrwgt>
  </event>
  <event>
  7     66 0.18996412E-05 0.35349704E+02 0.75467711E-02 0.93399991E-01
       -2 -1    0    0    0  501 0.00000000E+00 0.00000000E+00 0.10403722E+04 0.10403723E+04 0.32000000E+00 0.0000E+00 0.9000E+01
        1 -1    0    0  503    0 0.00000000E+00 0.00000000E+00 -.32366781E+03 0.32366797E+03 0.32000000E+00 0.0000E+00 0.9000E+01
      -24  2    1    2    0    0 -.26587312E+03 0.44276058E+03 0.48600055E+03 0.71349343E+03 0.78427637E+02 0.0000E+00 0.0000E+00
       25  1    1    2    0    0 0.29082774E+03 -.46704580E+03 0.24201219E+03 0.61392789E+03 0.12500000E+03 0.0000E+00 0.9000E+01
       -2  1    3    3    0  502 -.76786093E+02 0.14251677E+03 0.20291289E+03 0.25957827E+03 0.32000000E+00 0.0000E+00 0.9000E+01
        1  1    3    3  502    0 -.18908703E+03 0.30024381E+03 0.28308766E+03 0.45391516E+03 0.32000000E+00 0.0000E+00 0.9000E+01
       21  1    1    2  503  501 -.24954620E+02 0.24285225E+02 -.11308324E+02 0.36618928E+02 0.75000000E+00 0.0000E+00 0.9000E+01
#aMCatNLO 2  0  0  2  5 0.43910749D+01 0.00000000D+00  -5  6  0 0.00000000D+00 0.00000000D+00 0.00000000D+00 0.00000000D+00 0.00000000D+00
  <mgrwgt>
 0.1354487468D-03    1    2    0
 0.554714411467782D+03 0.000000000000000D+00 0.000000000000000D+00 0.554714411467782D+03
 0.554714411467782D+03 0.000000000000000D+00 0.000000000000000D+00 -.554714411467782D+03
 0.558984223817921D+03 0.278072163352641D+03 -.454632390327570D+03 -.113241441666670D+03
 0.182274282623829D+03 -.808276705218910D+02 0.146449125264064D+03 0.724117082620401D+02
 0.368170316493815D+03 -.197244492830750D+03 0.308183265063506D+03 0.408297334046296D+02
 0.000000000000000D+00 -.000000000000000D+00 0.000000000000000D+00 -.000000000000000D+00
 0.561818963674840D+03 0.000000000000000D+00 0.000000000000000D+00 0.561818963674840D+03
 0.599360123458677D+03 0.000000000000000D+00 0.000000000000000D+00 -.599360123458677D+03
 0.575466055705731D+03 0.290827739190574D+03 -.467045804259138D+03 -.113241441666670D+03
 0.177340217903398D+03 -.767842231212505D+02 0.142514141306272D+03 0.724117082620401D+02
 0.357168869519721D+03 -.189088896095998D+03 0.300246438109262D+03 0.408297334046296D+02
 0.512039440046669D+02 -.249546199733256D+02 0.242852248436036D+02 -.375411597838370D+02
0.536474270567D-04 0.000000000000D+00 0.000000000000D+00 0.677606589496D-04 0.351233012121D-06  6 -2 1 25 -2 1 21 2 0.16005651D+00 0.49794823D-01 0.31122206D+06 0.31122206D+06 0.31122206D+06 0.10833738D+01  1  2  1  2  6  2        1 0.135448746848D-03 0.100000000000D+01
  </mgrwgt>
  </event>
  <event>
  7     66 0.18996412E-05 0.21874358E+02 0.75467711E-02 0.89505493E-01
       -2 -1    0    0    0  503 0.00000000E+00 0.00000000E+00 0.45264993E+03 0.45265004E+03 0.32000000E+00 0.0000E+00 0.9000E+01
        1 -1    0    0  501    0 0.00000000E+00 0.00000000E+00 -.15434631E+04 0.15434631E+04 0.32000000E+00 0.0000E+00 0.9000E+01
      -24  2    1    2    0    0 -.66599900E+03 -.44224574E+03 -.71557321E+03 0.10755058E+04 0.74375366E+02 0.0000E+00 0.0000E+00
       25  1    1    2    0    0 0.64798625E+03 0.44008512E+03 -.40121972E+03 0.88891133E+03 0.12500000E+03 0.0000E+00 0.9000E+01
       -2  1    3    3    0  502 -.55846219E+03 -.39308520E+03 -.58373033E+03 0.89840814E+03 0.32000000E+00 0.0000E+00 0.9000E+01
        1  1    3    3  502    0 -.10753681E+03 -.49160542E+02 -.13184289E+03 0.17709764E+03 0.32000000E+00 0.0000E+00 0.9000E+01
       21  1    1    2  501  503 0.18012746E+02 0.21606153E+01 0.25979787E+02 0.31696043E+02 0.75000000E+00 0.0000E+00 0.9000E+01
#aMCatNLO 2  0  0  1  4 0.26898865D+02 0.00000000D+00  -5  6  0 0.00000000D+00 0.00000000D+00 0.00000000D+00 0.00000000D+00 0.00000000D+00
  <mgrwgt>
 0.3510812077D-03    1    2    0
 0.807988086356225D+03 0.000000000000000D+00 0.000000000000000D+00 0.807988086356225D+03
 0.807988086356225D+03 0.000000000000000D+00 0.000000000000000D+00 -.807988086356225D+03
 0.811111060917979D+03 0.656983332483352D+03 0.441164315669411D+03 0.126582386462334D+03
 0.681971933237039D+03 -.550831682067415D+03 -.392175287731731D+03 -.887058027773849D+02
 0.122893178557432D+03 -.106151650415936D+03 -.489890279376797D+02 -.378765836849490D+02
 0.000000000000000D+00 0.000000000000000D+00 0.000000000000000D+00 0.000000000000000D+00
 0.863018644684555D+03 0.000000000000000D+00 0.000000000000000D+00 0.863018644684555D+03
 0.809535589548164D+03 0.000000000000000D+00 0.000000000000000D+00 -.809535589548164D+03
 0.803249148440651D+03 0.647986249114253D+03 0.440085122296781D+03 0.126582386462334D+03
 0.688679196745468D+03 -.558470536404206D+03 -.393091562555088D+03 -.887058027773849D+02
 0.124149659757447D+03 -.107528459011176D+03 -.491541750915302D+02 -.378765836849490D+02
 0.564762292891534D+02 0.180127463011296D+02 0.216061534983709D+01 0.534830551363908D+02
0.247554480713D-03 0.000000000000D+00 0.000000000000D+00 0.513305303410D-05 0.936908094836D-07  6 -2 1 25 -2 1 21 2 0.69638248D-01 0.23745514D+00 0.65006123D+06 0.65006123D+06 0.65006123D+06 0.10605466D+01  1  2  1  1  6  1       -2 0.351081207700D-03 0.100000000000D+01
  </mgrwgt>
  </event>
  <event>
  5     66 0.18996412E-05 0.40871633E+02 0.75467711E-02 0.95121557E-01
       -2 -1    0    0    0  501 0.00000000E+00 0.00000000E+00 0.32637530E+03 0.32637546E+03 0.32000000E+00 0.0000E+00 0.9000E+01
        1 -1    0    0  501    0 -.00000000E+00 -.00000000E+00 -.92501122E+03 0.92501128E+03 0.32000000E+00 0.0000E+00 0.9000E+01
       25  1    1    2    0    0 0.27416686E+03 0.37335036E+03 -.60539387E+03 0.77245368E+03 0.12500000E+03 0.0000E+00 0.9000E+01
       -2  1    1    2    0  502 -.22866298E+03 -.36719825E+03 0.11813376E+02 0.43273661E+03 0.32000000E+00 0.0000E+00 0.9000E+01
        1  1    1    2  502    0 -.45503882E+02 -.61521031E+01 -.50554248E+01 0.46196444E+02 0.32000000E+00 0.0000E+00 0.9000E+01
#aMCatNLO 1  0  0  5  4 0.49555724D+01 0.00000000D+00  -5  6  0 0.00000000D+00 0.00000000D+00 0.00000000D+00 0.00000000D+00 0.00000000D+00
  <mgrwgt>
 0.9668963101D-02    9    2    0
 0.549455139453099D+03 0.000000000000000D+00 0.000000000000000D+00 0.549455139453099D+03
 0.549455139453099D+03 -.000000000000000D+00 -.000000000000000D+00 -.549455139453099D+03
 0.549842729315991D+03 0.274166883802515D+03 0.373350387786511D+03 -.268596416110377D+03
 0.499218356835993D+03 -.228664335994080D+03 -.367200694048577D+03 0.249189164163810D+03
 0.498491927542136D+02 -.455025478084341D+02 -.614969373793362D+01 0.194072519465672D+02
 0.000000000000000D+00 0.000000000000000D+00 0.000000000000000D+00 0.000000000000000D+00
 0.549455139453099D+03 0.000000000000000D+00 0.000000000000000D+00 0.549455139453099D+03
 0.549455139453099D+03 -.000000000000000D+00 -.000000000000000D+00 -.549455139453099D+03
 0.549466342677805D+03 0.273695519059183D+03 0.373286682588671D+03 -.268395374745153D+03
 0.499548373879069D+03 -.229092589917991D+03 -.367258572796053D+03 0.249371818371074D+03
 0.203043273694687D+02 -.195612755857402D+02 -.428603532764202D+01 0.335441627641611D+01
 0.295912349798555D+02 -.250416535554522D+02 -.174207446497593D+01 0.156691400976636D+02
0.127499197454D-05 0.000000000000D+00 0.000000000000D+00 0.316186293773D-07 0.000000000000D+00  6 -2 1 25 -2 1 21 0 0.50211601D-01 0.14230943D+00 0.22956945D+06 0.22956945D+06 0.22956945D+06 0.10932555D+01  1  2  2  4  6  5        1 0.921208710017D-05 0.100000000000D+01
0.220732033649D-06 0.000000000000D+00 -.489630489532D-08 0.316186293773D-07 0.000000000000D+00  6 -2 1 25 -2 1 21 2 0.50211601D-01 0.14230943D+00 0.22956945D+06 0.22956945D+06 0.22956945D+06 0.10932555D+01  1  2  3  4  6  5        1 0.190615984778D-05 0.100000000000D+01
-.389900835688D-06 0.000000000000D+00 0.000000000000D+00 0.316186293773D-07 0.000000000000D+00  6 -2 1 25 -2 1 21 2 0.50211601D-01 0.14230943D+00 0.22956945D+06 0.22956945D+06 0.22956945D+06 0.10932555D+01  1  2 15  4  6  5        1 -.336703878145D-05 0.100000000000D+01
0.141756041774D-05 0.000000000000D+00 0.000000000000D+00 0.316186293773D-07 0.000000000000D+00  6 -2 1 25 -2 1 21 2 0.50211601D-01 0.14230943D+00 0.22917103D+06 0.22917103D+06 0.22917103D+06 0.10933127D+01  1  2 12  4  6  5        1 0.122435266632D-04 0.100000000000D+01
0.694645413283D-07 0.000000000000D+00 0.000000000000D+00 0.316186293773D-07 0.000000000000D+00  6 -2 1 25 -2 1 21 2 0.50211601D-01 0.14230943D+00 0.22917103D+06 0.22917103D+06 0.22917103D+06 0.10933127D+01  1  2 12  4  6  5        1 0.599968053039D-06 0.100000000000D+01
-.285719865578D-04 0.000000000000D+00 0.000000000000D+00 0.316186293773D-07 0.000000000000D+00  6 -2 1 25 -2 1 21 2 0.50211601D-01 0.14230943D+00 0.22956945D+06 0.22956945D+06 0.22956945D+06 0.10932555D+01  1  2  4  4  6  5        1 -.246737062344D-03 0.100000000000D+01
-.668918630458D-05 0.000000000000D+00 0.000000000000D+00 0.316186293773D-07 0.000000000000D+00  6 -2 1 25 -2 1 21 2 0.50211601D-01 0.14230943D+00 0.22956945D+06 0.22956945D+06 0.22956945D+06 0.10932555D+01  1  2  5  4  6  5        1 -.577653281099D-04 0.100000000000D+01
0.231736542072D-04 0.000000000000D+00 -.000000000000D+00 0.316186293773D-07 0.000000000000D+00  6 -2 1 25 -2 1 21 2 0.50211601D-01 0.14230943D+00 0.22956945D+06 0.22956945D+06 0.22956945D+06 0.10932555D+01  1  2  6  4  6  5        1 0.200119069470D-03 0.100000000000D+01
0.112917749777D-02 0.000000000000D+00 0.000000000000D+00 0.316186293773D-07 0.524251931790D-06  6 -2 1 25 -2 1 21 2 0.50211601D-01 0.14230943D+00 0.22917103D+06 0.22917103D+06 0.22917103D+06 0.10933127D+01  1  2 11  4  6  5        1 0.975275171930D-02 0.100000000000D+01
  </mgrwgt>
  </event>
  <event>
  6     66 0.18996412E-05 0.24049996E+02 0.75467711E-02 0.89345690E-01
       -2 -1    0    0    0  501 0.00000000E+00 0.00000000E+00 0.89880819E+03 0.89880824E+03 0.32000000E+00 0.0000E+00 0.9000E+01
        1 -1    0    0  501    0 0.00000000E+00 0.00000000E+00 -.82895105E+03 0.82895111E+03 0.32000000E+00 0.0000E+00 0.9000E+01
       25  1    1    2    0    0 -.77569120E+03 0.12931170E+03 -.23758346E+03 0.83095683E+03 0.12500000E+03 0.0000E+00 0.9000E+01
       -2  1    1    2    0  502 0.15695197E+03 0.14952634E+02 0.47935168E+02 0.16478891E+03 0.32000000E+00 0.0000E+00 0.9000E+01
        1  1    1    2  503    0 0.63643501E+03 -.11021540E+03 0.24098846E+03 0.68940010E+03 0.32000000E+00 0.0000E+00 0.9000E+01
       21  1    1    2  502  503 -.17695775E+02 -.34048933E+02 0.18516971E+02 0.42613507E+02 0.75000000E+00 0.0000E+00 0.9000E+01
#aMCatNLO 2  0  0  5  4 0.49555724D+01 0.00000000D+00  -5  6  0 0.00000000D+00 0.00000000D+00 0.00000000D+00 0.00000000D+00 0.00000000D+00
  <mgrwgt>
 0.4799342452D-02    1    2    0
 0.863173266768283D+03 0.000000000000000D+00 0.000000000000000D+00 0.863173266768283D+03
 0.863173266768283D+03 -.000000000000000D+00 -.000000000000000D+00 -.863173266768283D+03
 0.864184261918241D+03 -.796960130114881D+03 0.134270731172246D+03 -.279312298878723D+03
 0.158841845359005D+03 0.152947503427403D+03 0.158911364631609D+02 0.398153841409043D+02
 0.703320426259321D+03 0.644012626687478D+03 -.150161867635407D+03 0.239496914737819D+03
 0.000000000000000D+00 -.000000000000000D+00 0.000000000000000D+00 0.000000000000000D+00
 0.863173266768283D+03 0.000000000000000D+00 0.000000000000000D+00 0.863173266768283D+03
 0.863173266768283D+03 -.000000000000000D+00 -.000000000000000D+00 -.863173266768283D+03
 0.841231261094156D+03 -.775673149376550D+03 0.129307330376166D+03 -.271396046930161D+03
 0.162996961371678D+03 0.156964692427549D+03 0.149544644509845D+02 0.413093057374455D+02
 0.680188441517775D+03 0.636422814917123D+03 -.110183291256898D+03 0.213264997022818D+03
 0.419298695529561D+02 -.177143579681215D+02 -.340785035702521D+02 0.168217441698974D+02
0.532666459493D-02 0.000000000000D+00 0.000000000000D+00 0.119496099615D-06 0.124217865033D-07  6 -2 1 25 -2 1 21 2 0.13827819D+00 0.12753094D+00 0.67094407D+06 0.67094407D+06 0.67094407D+06 0.10595995D+01  1  2  1  4  6  5        1 0.479934245239D-02 0.100000000000D+01
  </mgrwgt>
  </event>
  <event>
  7     66 0.18996412E-05 0.39623242E+02 0.75467711E-02 0.94716679E-01
       -2 -1    0    0    0  501 0.00000000E+00 0.00000000E+00 0.17635065E+04 0.17635065E+04 0.32000000E+00 0.0000E+00 0.9000E+01
        1 -1    0    0  503    0 0.00000000E+00 0.00000000E+00 -.25357477E+03 0.25357497E+03 0.32000000E+00 0.0000E+00 0.9000E+01
      -24  2    1    2    0    0 0.22933822E+02 0.41246184E+03 0.12108757E+04 0.12818764E+04 0.79601754E+02 0.0000E+00 0.0000E+00
       25  1    1    2    0    0 -.25575899E+02 -.48608945E+03 0.37677734E+03 0.62811086E+03 0.12500000E+03 0.0000E+00 0.9000E+01
       -2  1    3    3    0  502 0.34549196E+02 0.19688951E+03 0.68031632E+03 0.70907653E+03 0.32000000E+00 0.0000E+00 0.9000E+01
        1  1    3    3  502    0 -.11615373E+02 0.21557232E+03 0.53055940E+03 0.57279990E+03 0.32000000E+00 0.0000E+00 0.9000E+01
       21  1    1    2  503  501 0.26420765E+01 0.73627616E+02 -.77721318E+02 0.10709422E+03 0.75000000E+00 0.0000E+00 0.9000E+01
#aMCatNLO 2  0  0  2  1 0.10771582D+02 0.00000000D+00  -5  6  0 0.00000000D+00 0.00000000D+00 0.00000000D+00 0.00000000D+00 0.00000000D+00
  <mgrwgt>
 0.8213693788D-03    1    2    0
 0.529618065399808D+03 0.000000000000000D+00 0.000000000000000D+00 0.529618065399808D+03
 0.529618065399808D+03 0.000000000000000D+00 0.000000000000000D+00 -.529618065399808D+03
 0.534002621623267D+03 -.242050680171379D+02 -.447888063968544D+03 -.261427230290413D+03
 0.272657806839480D+03 0.352112851370154D+02 0.215319090211175D+03 0.163524109599004D+03
 0.252575702336868D+03 -.110062171198776D+02 0.232568973757369D+03 0.979031206914085D+02
 0.000000000000000D+00 0.000000000000000D+00 0.000000000000000D+00 -.000000000000000D+00
 0.535355617211623D+03 0.000000000000000D+00 0.000000000000000D+00 0.535355617211623D+03
 0.835295670488833D+03 0.000000000000000D+00 0.000000000000000D+00 -.835295670488833D+03
 0.566485904841291D+03 -.255758986553690D+02 -.486089453757752D+03 -.261427230290413D+03
 0.258261872243224D+03 0.345499416109139D+02 0.196889211916526D+03 0.163524109599004D+03
 0.237047489087676D+03 -.116161194094994D+02 0.215572625376042D+03 0.979031206914085D+02
 0.308856021528265D+03 0.264207645395452D+01 0.736276164651845D+02 -.299940053277210D+03
0.130079658409D-02 0.000000000000D+00 0.000000000000D+00 0.172996691126D-03 0.229651212833D-06  6 -2 1 25 -2 1 21 2 0.27130848D+00 0.39011487D-01 0.24602272D+06 0.24602272D+06 0.24602272D+06 0.10909835D+01  1  2  1  2  6  2        1 0.821369378793D-03 0.100000000000D+01
  </mgrwgt>
  </event>
  <event>
  7     66 0.18996412E-05 0.22357307E+02 0.75467711E-02 0.94699190E-01
       -2 -1    0    0    0  503 0.00000000E+00 0.00000000E+00 0.32328698E+03 0.32328714E+03 0.32000000E+00 0.0000E+00 0.9000E+01
        1 -1    0    0  501    0 0.00000000E+00 0.00000000E+00 -.11036658E+04 0.11036658E+04 0.32000000E+00 0.0000E+00 0.9000E+01
      -24  2    1    2    0    0 -.47888155E+03 0.66495362E+02 -.19525728E+03 0.52774601E+03 0.81494000E+02 0.0000E+00 0.0000E+00
       25  1    1    2    0    0 0.46986974E+03 -.55964543E+02 -.66077627E+03 0.82228942E+03 0.12500000E+03 0.0000E+00 0.9000E+01
       -2  1    3    3    0  502 -.42703000E+03 0.84612933E+02 -.17130990E+03 0.46782599E+03 0.32000000E+00 0.0000E+00 0.9000E+01
        1  1    3    3  502    0 -.51851550E+02 -.18117571E+02 -.23947377E+02 0.59920021E+02 0.32000000E+00 0.0000E+00 0.9000E+01
       21  1    1    2  501  503 0.90118104E+01 -.10530819E+02 0.75654728E+02 0.76917561E+02 0.75000000E+00 0.0000E+00 0.9000E+01
#aMCatNLO 2  0  0  1  4 0.61825189D+02 0.00000000D+00  -5  6  0 0.00000000D+00 0.00000000D+00 0.00000000D+00 0.00000000D+00 0.00000000D+00
  <mgrwgt>
 0.1981621172D-02    1    2    0
 0.521921952203816D+03 0.000000000000000D+00 0.000000000000000D+00 0.521921952203816D+03
 0.521921952203816D+03 0.000000000000000D+00 0.000000000000000D+00 -.521921952203816D+03
 0.526225147374820D+03 0.474392449974137D+03 -.612495899081707D+02 -.180244824816880D+03
 0.460032147676723D+03 -.423044946621401D+03 0.799509921576656D+02 0.162081426718670D+03
 0.575866093560881D+02 -.513475033527361D+02 -.187014022494949D+02 0.181633980982092D+02
 0.000000000000000D+00 0.000000000000000D+00 -.000000000000000D+00 0.000000000000000D+00
 0.683176425641911D+03 0.000000000000000D+00 0.000000000000000D+00 0.683176425641911D+03
 0.522265883671652D+03 0.000000000000000D+00 0.000000000000000D+00 -.522265883671652D+03
 0.521558049562323D+03 0.469869739562662D+03 -.559645426435642D+02 -.180244824816880D+03
 0.464531556986778D+03 -.427035785475638D+03 0.846145169140941D+02 0.162081426718670D+03
 0.578463146847460D+02 -.518457645282470D+02 -.181191554056527D+02 0.181633980982092D+02
 0.161506388079716D+03 0.901181044122317D+01 -.105308188648773D+02 0.160910541970259D+03
0.310000762741D-03 0.000000000000D+00 0.000000000000D+00 0.497324200435D-04 0.170281116441D-05  6 -2 1 25 -2 1 21 2 0.49736391D-01 0.16979447D+00 0.24678136D+06 0.24678136D+06 0.24678136D+06 0.10908827D+01  1  2  1  1  6  1       -2 0.198162117164D-02 0.100000000000D+01
  </mgrwgt>
  </event>
  <event>
  7     66 0.18996412E-05 0.64324637E+02 0.75467711E-02 0.91165469E-01
       -2 -1    0    0    0  501 0.00000000E+00 0.00000000E+00 0.64505241E+03 0.64505249E+03 0.32000000E+00 0.0000E+00 0.9000E+01
        1 -1    0    0  503    0 0.00000000E+00 0.00000000E+00 -.11660662E+04 0.11660663E+04 0.32000000E+00 0.0000E+00 0.9000E+01
      -24  2    1    2    0    0 -.67186208E+03 0.10802078E+03 -.28774391E+03 0.74314367E+03 0.79992587E+02 0.0000E+00 0.0000E+00
       25  1    1    2    0    0 0.64926316E+03 -.10651144E+03 0.14813447E+03 0.68589806E+03 0.12500000E+03 0.0000E+00 0.9000E+01
       -2  1    3    3    0  502 -.31742588E+03 0.54408125E+02 -.93111394E+02 0.33524509E+03 0.32000000E+00 0.0000E+00 0.9000E+01
        1  1    3    3  502    0 -.35443620E+03 0.53612657E+02 -.19463252E+03 0.40789858E+03 0.32000000E+00 0.0000E+00 0.9000E+01
       21  1    1    2  503  501 0.22598923E+02 -.15093403E+01 -.38140437E+03 0.38207702E+03 0.75000000E+00 0.0000E+00 0.9000E+01
#aMCatNLO 2  0  0  2  4 0.16995769D+04 0.00000000D+00  -5  6  0 0.00000000D+00 0.00000000D+00 0.00000000D+00 0.00000000D+00 0.00000000D+00
  <mgrwgt>
 0.9716882409D-03    1    2    0
 0.711012744510495D+03 0.000000000000000D+00 0.000000000000000D+00 0.711012744510495D+03
 0.711012744510495D+03 0.000000000000000D+00 0.000000000000000D+00 -.711012744510495D+03
 0.714256774273543D+03 0.660529861940508D+03 -.107263923852299D+03 0.216176991653385D+03
 0.322654532333046D+03 -.312257759602714D+03 0.540630075687353D+02 -.606484131331827D+02
 0.385114182414401D+03 -.348272102337794D+03 0.532009162835640D+02 -.155528578520203D+03
 0.000000000000000D+00 0.000000000000000D+00 -.000000000000000D+00 -.000000000000000D+00
 0.711473473314180D+03 0.000000000000000D+00 0.000000000000000D+00 0.711473473314180D+03
 0.105720466735805D+04 0.000000000000000D+00 0.000000000000000D+00 -.105720466735805D+04
 0.703736332286405D+03 0.649263156593973D+03 -.106511441400648D+03 0.216176991653385D+03
 0.327715259356365D+03 -.317425291641730D+03 0.544081374943085D+02 -.606484131331827D+02
 0.390754258730340D+03 -.354436787535214D+03 0.536126442278329D+02 -.155528578520203D+03
 0.346472290299121D+03 0.225989225829702D+02 -.150934032149341D+01 -.345731194043872D+03
0.813668475006D-03 0.000000000000D+00 0.000000000000D+00 0.278625918148D-03 0.359425534838D-05  6 -2 1 25 -2 1 21 2 0.99238785D-01 0.17939471D+00 0.47120191D+06 0.47120191D+06 0.47120191D+06 0.10703360D+01  1  2  1  2  6  2        1 0.971688240916D-03 0.100000000000D+01
  </mgrwgt>
  </event>
  <event>
  7     66 0.18996412E-05 0.33264653E+02 0.75467711E-02 0.92349940E-01
       -2 -1    0    0    0  503 0.00000000E+00 0.00000000E+00 0.37165749E+03 0.37165763E+03 0.32000000E+00 0.0000E+00 0.9000E+01
        1 -1    0    0  501    0 0.00000000E+00 0.00000000E+00 -.10498311E+04 0.10498311E+04 0.32000000E+00 0.0000E+00 0.9000E+01
      -24  2    1    2    0    0 0.16523317E+03 -.58374975E+03 -.30851757E+03 0.68559918E+03 0.82446158E+02 0.0000E+00 0.0000E+00
       25  1    1    2    0    0 -.14024812E+03 0.53174497E+03 -.37605116E+03 0.67783606E+03 0.12500000E+03 0.0000E+00 0.9000E+01
       -2  1    3    3    0  502 0.12558361E+03 -.43016388E+03 -.18607780E+03 0.48521877E+03 0.32000000E+00 0.0000E+00 0.9000E+01
        1  1    3    3  502    0 0.39649558E+02 -.15358587E+03 -.12243977E+03 0.20038041E+03 0.32000000E+00 0.0000E+00 0.9000E+01
       21  1    1    2  501  503 -.24985044E+02 0.52004785E+02 0.63951570E+01 0.58053515E+02 0.75000000E+00 0.0000E+00 0.9000E+01
#aMCatNLO 2  0  0  1  2 0.22838027D+01 0.00000000D+00  -5  6  0 0.00000000D+00 0.00000000D+00 0.00000000D+00 0.00000000D+00 0.00000000D+00
  <mgrwgt>
 0.1125357644D-03    1    2    0
 0.588853236065365D+03 0.000000000000000D+00 0.000000000000000D+00 0.588853236065365D+03
 0.588853236065365D+03 0.000000000000000D+00 0.000000000000000D+00 -.588853236065365D+03
 0.592601042226155D+03 -.152524966732776D+03 0.557298439125554D+03 -.412986624348911D+02
 0.431922541520792D+03 0.116203301052005D+03 -.410640832930493D+03 0.665430764884531D+02
 0.153182888383784D+03 0.363216656807718D+02 -.146657606195061D+03 -.252444140535620D+02
 0.000000000000000D+00 -.000000000000000D+00 0.000000000000000D+00 0.000000000000000D+00
 0.645527581462875D+03 0.000000000000000D+00 0.000000000000000D+00 0.645527581462875D+03
 0.604428377352276D+03 0.000000000000000D+00 0.000000000000000D+00 -.604428377352276D+03
 0.565466907359555D+03 -.140248121800180D+03 0.531744965308926D+03 -.412986624348911D+02
 0.453038732379555D+03 0.125584902826680D+03 -.430168041804060D+03 0.665430764884531D+02
 0.160613219653243D+03 0.396482633646132D+02 -.153581708216322D+03 -.252444140535620D+02
 0.708370994227984D+02 -.249850443911124D+02 0.520047847114557D+02 0.410992041105994D+02
0.221736891040D-04 0.000000000000D+00 0.000000000000D+00 0.596083749701D-04 0.111190838968D-06  6 -2 1 25 -2 1 21 2 0.57177905D-01 0.16151196D+00 0.37723803D+06 0.37723803D+06 0.37723803D+06 0.10772667D+01  1  2  1  1  6  1       -2 0.112535764415D-03 0.100000000000D+01
  </mgrwgt>
  </event>
  <event>
  7     66 0.18996412E-05 0.35404511E+02 0.75467711E-02 0.92667260E-01
       -2 -1    0    0    0  501 0.00000000E+00 0.00000000E+00 0.17369146E+03 0.17369175E+03 0.32000000E+00 0.0000E+00 0.9000E+01
        1 -1    0    0  503    0 0.00000000E+00 0.00000000E+00 -.22134454E+04 0.22134454E+04 0.32000000E+00 0.0000E+00 0.9000E+01
      -24  2    1    2    0    0 -.50729246E+03 0.28799225E+03 -.68547710E+03 0.90371042E+03 0.80799027E+02 0.0000E+00 0.0000E+00
       25  1    1    2    0    0 0.49957025E+03 -.29602717E+03 -.13342277E+04 0.14604763E+04 0.12500000E+03 0.0000E+00 0.9000E+01
       -2  1    3    3    0  502 -.39200256E+03 0.25581906E+03 -.52263590E+03 0.70161085E+03 0.32000000E+00 0.0000E+00 0.9000E+01
        1  1    3    3  502    0 -.11528990E+03 0.32173191E+02 -.16284120E+03 0.20209956E+03 0.32000000E+00 0.0000E+00 0.9000E+01
       21  1    1    2  503  501 0.77222080E+01 0.80349158E+01 -.20049146E+02 0.22950449E+02 0.75000000E+00 0.0000E+00 0.9000E+01
#aMCatNLO 2  0  0  2  1 0.77546592D+02 0.00000000D+00  -5  6  0 0.00000000D+00 0.00000000D+00 0.00000000D+00 0.00000000D+00 0.00000000D+00
  <mgrwgt>
 0.1515583518D-02    1    2    0
 0.614419897027144D+03 0.000000000000000D+00 0.000000000000000D+00 0.614419897027144D+03
 0.614419897027144D+03 0.000000000000000D+00 0.000000000000000D+00 -.614419897027144D+03
 0.618121159494915D+03 0.503450673136133D+03 -.291989611328717D+03 -.166518030285665D+03
 0.490059254119327D+03 -.388924942144329D+03 0.259029334670290D+03 0.147645743949119D+03
 0.120659380440046D+03 -.114525730991804D+03 0.329602766584269D+02 0.188722863365463D+02
 0.000000000000000D+00 0.000000000000000D+00 0.000000000000000D+00 -.000000000000000D+00
 0.619607596339176D+03 0.000000000000000D+00 0.000000000000000D+00 0.619607596339176D+03
 0.620459398249399D+03 0.000000000000000D+00 0.000000000000000D+00 -.620459398249399D+03
 0.616892029062214D+03 0.499570251670441D+03 -.296027168949422D+03 -.166518030285665D+03
 0.490829772581897D+03 -.392006903430200D+03 0.255822570563219D+03 0.147645743949119D+03
 0.121168523738683D+03 -.115285556230169D+03 0.321696825931467D+02 0.188722863365463D+02
 0.111766692057814D+02 0.772220798992785D+01 0.803491579305584D+01 -.851801910222553D+00
0.440659759224D-03 0.000000000000D+00 0.000000000000D+00 0.176372573180D-03 0.882103715268D-05  6 -2 1 25 -2 1 21 2 0.26721246D-01 0.34052318D+00 0.35576668D+06 0.35576668D+06 0.35576668D+06 0.10791159D+01  1  2  1  2  6  2        1 0.151558351841D-02 0.100000000000D+01
  </mgrwgt>
  </event>
  <event>
  7     66 0.18996412E-05 0.20552717E+02 0.75467711E-02 0.91705508E-01
       -2 -1    0    0    0  501 0.00000000E+00 0.00000000E+00 0.19316067E+03 0.19316094E+03 0.32000000E+00 0.0000E+00 0.9000E+01
        1 -1    0    0  503    0 0.00000000E+00 0.00000000E+00 -.25228315E+04 0.25228315E+04 0.32000000E+00 0.0000E+00 0.9000E+01
      -24  2    1    2    0    0 -.50159290E+03 -.40241154E+03 -.10156931E+04 0.12050361E+04 0.83360138E+02 0.0000E+00 0.0000E+00
       25  1    1    2    0    0 0.47823869E+03 0.39925074E+03 -.93048204E+03 0.11267365E+04 0.12500000E+03 0.0000E+00 0.9000E+01
       -2  1    3    3    0  502 -.76142182E+02 -.36647902E+02 -.17472411E+03 0.19408585E+03 0.32000000E+00 0.0000E+00 0.9000E+01
        1  1    3    3  502    0 -.42545072E+03 -.36576364E+03 -.84096904E+03 0.10109502E+04 0.32000000E+00 0.0000E+00 0.9000E+01
       21  1    1    2  503  501 0.23354217E+02 0.31608030E+01 -.38349566E+03 0.38421985E+03 0.75000000E+00 0.0000E+00 0.9000E+01
#aMCatNLO 2  0  0  2  1 0.77546592D+02 0.00000000D+00  -5  6  0 0.00000000D+00 0.00000000D+00 0.00000000D+00 0.00000000D+00 0.00000000D+00
  <mgrwgt>
 0.2825460400D-03    1    2    0
 0.642068980688510D+03 0.000000000000000D+00 0.000000000000000D+00 0.642068980688510D+03
 0.642068980688510D+03 0.000000000000000D+00 0.000000000000000D+00 -.642068980688510D+03
 0.645447156498947D+03 0.489887253102714D+03 0.400827279228221D+03 0.180278480844218D+02
 0.861414008163433D+02 -.745572633185924D+02 -.364292432261620D+02 -.231185133391640D+02
 0.552549404061729D+03 -.415329989784121D+03 -.364398036002059D+03 0.509066525474227D+01
 0.000000000000000D+00 0.000000000000000D+00 0.000000000000000D+00 -.000000000000000D+00
 0.643381968652413D+03 0.000000000000000D+00 0.000000000000000D+00 0.643381968652413D+03
 0.757420031518235D+03 0.000000000000000D+00 0.000000000000000D+00 -.757420031518235D+03
 0.635659814157487D+03 0.478238687303974D+03 0.399250740755665D+03 0.180278480844218D+02
 0.876015237974401D+02 -.761370345131805D+02 -.366430523859449D+02 -.231185133391640D+02
 0.561092863178096D+03 -.425455869607844D+03 -.365768491334192D+03 0.509066525474227D+01
 0.116447799037625D+03 0.233542168170505D+02 0.316080296447154D+01 -.114038062865822D+03
0.164866937758D-03 0.000000000000D+00 0.000000000000D+00 0.101979327328D-04 0.114520718726D-06  6 -2 1 25 -2 1 21 2 0.29716993D-01 0.38812722D+00 0.42545417D+06 0.42545417D+06 0.42545417D+06 0.10735015D+01  1  2  1  2  6  2        1 0.282546040014D-03 0.100000000000D+01
  </mgrwgt>
  </event>
  <event>
  6     66 0.18996412E-05 0.47430006E+02 0.75467711E-02 0.93385080E-01
       -2 -1    0    0    0  501 0.00000000E+00 0.00000000E+00 0.72315215E+03 0.72315223E+03 0.32000000E+00 0.0000E+00 0.9000E+01
        1 -1    0    0  501    0 0.00000000E+00 0.00000000E+00 -.50304999E+03 0.50305010E+03 0.32000000E+00 0.0000E+00 0.9000E+01
       25  1    1    2    0    0 -.37955307E+03 0.38070612E+03 0.31657463E+03 0.63627209E+03 0.12500000E+03 0.0000E+00 0.9000E+01
       -2  1    1    2    0  503 0.40160695E+02 -.11453597E+03 -.29791314E+02 0.12497598E+03 0.32000000E+00 0.0000E+00 0.9000E+01
        1  1    1    2  502    0 0.26466781E+03 -.25658164E+03 -.10093417E+03 0.38219236E+03 0.32000000E+00 0.0000E+00 0.9000E+01
       21  1    1    2  503  502 0.74724560E+02 -.95885080E+01 0.34253013E+02 0.82761892E+02 0.75000000E+00 0.0000E+00 0.9000E+01
#aMCatNLO 2  0  0  4  5 0.12915427D+02 0.00000000D+00  -5  6  0 0.00000000D+00 0.00000000D+00 0.00000000D+00 0.00000000D+00 0.00000000D+00
  <mgrwgt>
 0.4754975902D-04    1    2    0
 0.603143260630975D+03 0.000000000000000D+00 0.000000000000000D+00 0.603143260630975D+03
 0.603143260630975D+03 -.000000000000000D+00 -.000000000000000D+00 -.603143260630975D+03
 0.607442843201192D+03 -.392298769976553D+03 0.394476855100563D+03 0.209407482247415D+03
 0.204249515323924D+03 0.136115313037076D+03 -.147068293134008D+03 -.395145950444403D+02
 0.394594162736833D+03 0.256183456939477D+03 -.247408561966555D+03 -.169892887202975D+03
 0.000000000000000D+00 0.000000000000000D+00 0.000000000000000D+00 0.000000000000000D+00
 0.603143260630975D+03 0.000000000000000D+00 0.000000000000000D+00 0.603143260630975D+03
 0.603143260630975D+03 -.000000000000000D+00 -.000000000000000D+00 -.603143260630975D+03
 0.588985210431228D+03 -.379532978512789D+03 0.380683820950399D+03 0.205701543004745D+03
 0.132093723986924D+03 0.397732559838809D+02 -.114252841611476D+03 -.530389310683897D+02
 0.407023562094277D+03 0.264736653830659D+03 -.256650020841079D+03 -.172375900347854D+03
 0.781840247495203D+02 0.750230686982485D+02 -.978095849784413D+01 0.197132884114988D+02
0.130822254802D-04 0.000000000000D+00 0.000000000000D+00 0.542316114324D-05 0.575487954291D-09  6 -2 1 25 -2 1 21 2 0.11125419D+00 0.77392320D-01 0.31206372D+06 0.31206372D+06 0.31206372D+06 0.10832874D+01  1  2  1  3  6  4       -2 0.475497590157D-04 0.100000000000D+01
  </mgrwgt>
  </event>
  <event>
  7     66 0.18996412E-05 0.22252366E+02 0.75467711E-02 0.93331091E-01
       -2 -1    0    0    0  501 0.00000000E+00 0.00000000E+00 0.24071070E+03 0.24071092E+03 0.32000000E+00 0.0000E+00 0.9000E+01
        1 -1    0    0  503    0 0.00000000E+00 0.00000000E+00 -.15710962E+04 0.15710963E+04 0.32000000E+00 0.0000E+00 0.9000E+01
      -24  2    1    2    0    0 0.29092404E+03 -.47019091E+03 -.59868566E+03 0.81812788E+03 0.72058467E+02 0.0000E+00 0.0000E+00
       25  1    1    2    0    0 -.28534627E+03 0.44002226E+03 -.42782753E+03 0.68826120E+03 0.12500000E+03 0.0000E+00 0.9000E+01
       -2  1    3    3    0  502 0.62110585E+02 -.10158575E+03 -.88147600E+02 0.14814686E+03 0.32000000E+00 0.0000E+00 0.9000E+01
        1  1    3    3  502    0 0.22881345E+03 -.36860516E+03 -.51053806E+03 0.66998102E+03 0.32000000E+00 0.0000E+00 0.9000E+01
       21  1    1    2  503  501 -.55777684E+01 0.30168650E+02 -.30387235E+03 0.30541811E+03 0.75000000E+00 0.0000E+00 0.9000E+01
#aMCatNLO 2  0  0  2  1 0.77546592D+02 0.00000000D+00  -5  6  0 0.00000000D+00 0.00000000D+00 0.00000000D+00 0.00000000D+00 0.00000000D+00
  <mgrwgt>
 0.8468335837D-03    1    2    0
 0.551030276292584D+03 0.000000000000000D+00 0.000000000000000D+00 0.551030276292584D+03
 0.551030276292584D+03 0.000000000000000D+00 0.000000000000000D+00 -.551030276292584D+03
 0.555763490537552D+03 -.288123903848849D+03 0.455045728560782D+03 0.562677382162248D+02
 0.117293203299435D+03 0.615060524363213D+02 -.983285126073667D+02 0.174987045910806D+02
 0.429003858748181D+03 0.226617851412527D+03 -.356717215953415D+03 -.737664428073054D+02
 0.000000000000000D+00 -.000000000000000D+00 0.000000000000000D+00 -.000000000000000D+00
 0.553018370702556D+03 0.000000000000000D+00 0.000000000000000D+00 0.553018370702556D+03
 0.683844331697795D+03 0.000000000000000D+00 0.000000000000000D+00 -.683844331697795D+03
 0.542063777177797D+03 -.285346270497486D+03 0.440022256343320D+03 0.562677382162248D+02
 0.120341660819169D+03 0.621072968610440D+02 -.101580482096534D+03 0.174987045910806D+02
 0.440082076902780D+03 0.228816742031348D+03 -.368610424286645D+03 -.737664428073054D+02
 0.134375187500604D+03 -.557776839490595D+01 0.301686500398591D+02 -.130825960995239D+03
0.162769991649D-03 0.000000000000D+00 0.000000000000D+00 0.433534337284D-05 0.294261065811D-07  6 -2 1 25 -2 1 21 2 0.37032365D-01 0.24170668D+00 0.31513277D+06 0.31513277D+06 0.31513277D+06 0.10829742D+01  1  2  1  2  6  2        1 0.846833583667D-03 0.100000000000D+01
  </mgrwgt>
  </event>
  <event>
  6     66 0.18996412E-05 0.13309159E+02 0.75467711E-02 0.93245050E-01
       -2 -1    0    0    0  501 0.00000000E+00 0.00000000E+00 0.71074346E+03 0.71074354E+03 0.32000000E+00 0.0000E+00 0.9000E+01
        1 -1    0    0  501    0 0.00000000E+00 0.00000000E+00 -.44114059E+03 0.44114071E+03 0.32000000E+00 0.0000E+00 0.9000E+01
      -24  2    1    2    0    0 0.15921579E+03 0.52348705E+03 0.75973140E+02 0.55816223E+03 0.79904933E+02 0.0000E+00 0.0000E+00
       25  1    1    2    0    0 -.15921579E+03 -.52348705E+03 0.19362973E+03 0.59372202E+03 0.12500000E+03 0.0000E+00 0.9000E+01
       -2  1    3    3    0  502 0.44226702E+01 0.15026172E+02 -.11601404E+02 0.19494636E+02 0.32000000E+00 0.0000E+00 0.9000E+01
        1  1    3    3  502    0 0.15479312E+03 0.50846088E+03 0.87574543E+02 0.53866759E+03 0.32000000E+00 0.0000E+00 0.9000E+01
#aMCatNLO 1  0  0  2  1 0.77546592D+02 0.00000000D+00  -5  6  0 0.00000000D+00 0.00000000D+00 0.00000000D+00 0.00000000D+00 0.00000000D+00
  <mgrwgt>
 0.9270663614D-04    4    2    0
 0.559944552719637D+03 0.000000000000000D+00 0.000000000000000D+00 0.559944552719637D+03
 0.559944552719637D+03 0.000000000000000D+00 0.000000000000000D+00 -.559944552719637D+03
 0.564070051276004D+03 -.159215786200265D+03 -.523487051154488D+03 0.562286710204330D+02
 0.228363436488035D+02 0.442025840153137D+01 0.150182575433488D+02 -.166256382515556D+02
 0.532982710514467D+03 0.154795527798734D+03 0.508468793611139D+03 -.396030327688774D+02
 0.000000000000000D+00 0.000000000000000D+00 -.000000000000000D+00 0.000000000000000D+00
 0.581543254369102D+03 0.000000000000000D+00 0.000000000000000D+00 0.581543254369102D+03
 0.566143199925346D+03 0.000000000000000D+00 0.000000000000000D+00 -.566143199925346D+03
 0.562944121008551D+03 -.169778992072987D+03 -.518935943815850D+03 0.562286710204330D+02
 0.228795387908154D+02 0.399177552195592D+01 0.152028673674129D+02 -.166256382515556D+02
 0.534298754539087D+03 0.144792180798538D+03 0.512778688399908D+03 -.396030327688774D+02
 0.275640399559948D+02 0.209950357524926D+02 -.904561195147077D+01 0.154000544437558D+02
0.228596008385D-04 0.000000000000D+00 0.000000000000D+00 0.106268758061D-04 0.000000000000D+00  6 -2 1 25 -2 1 21 0 0.10934516D+00 0.67867798D-01 0.30715154D+06 0.30715154D+06 0.30715154D+06 0.10837957D+01  1  2  2  2  6  2        1 0.887641555196D-04 0.100000000000D+01
0.897459368331D-05 0.000000000000D+00 -.877868862911D-07 0.106268758061D-04 0.000000000000D+00  6 -2 1 25 -2 1 21 2 0.10934516D+00 0.67867798D-01 0.30715154D+06 0.30715154D+06 0.30715154D+06 0.10837957D+01  1  2  3  2  6  2        1 0.409334767136D-04 0.100000000000D+01
-.709349427936D-05 0.000000000000D+00 0.000000000000D+00 0.106268758061D-04 0.000000000000D+00  6 -2 1 25 -2 1 21 2 0.10934516D+00 0.67867798D-01 0.30715154D+06 0.30715154D+06 0.30715154D+06 0.10837957D+01  1  2 15  2  6  2        1 -.323537079392D-04 0.100000000000D+01
-.101671737543D-05 0.000000000000D+00 0.000000000000D+00 0.106268758061D-04 0.000000000000D+00  6 -2 1 25 -2 1 21 2 0.10934516D+00 0.67867798D-01 0.30715154D+06 0.30715154D+06 0.30715154D+06 0.10837957D+01  1  2  4  2  6  2        1 -.463728815811D-05 0.100000000000D+01
  </mgrwgt>
  </event>
  <event>
  7     66 0.18996412E-05 0.13365817E+03 0.75467711E-02 0.91569001E-01
       21 -1    0    0  503  501 0.00000000E+00 0.00000000E+00 0.86921097E+03 0.86921129E+03 0.75000000E+00 0.0000E+00 0.9000E+01
        1 -1    0    0  501    0 0.00000000E+00 0.00000000E+00 -.15951118E+04 0.15951118E+04 0.32000000E+00 0.0000E+00 0.9000E+01
      -24  2    1    2    0    0 -.53731274E+03 -.29332640E+03 -.90909058E+03 0.10988719E+04 0.79550768E+02 0.0000E+00 0.0000E+00
       25  1    1    2    0    0 0.38550536E+03 0.35966681E+03 -.45410603E+03 0.70697374E+03 0.12500000E+03 0.0000E+00 0.9000E+01
       -2  1    3    3    0  502 -.20037991E+03 -.13498659E+03 -.30239851E+03 0.38706388E+03 0.32000000E+00 0.0000E+00 0.9000E+01
        1  1    3    3  502    0 -.33693282E+03 -.15833981E+03 -.60669207E+03 0.71180797E+03 0.32000000E+00 0.0000E+00 0.9000E+01
        2  1    1    2  503    0 0.15180738E+03 -.66340406E+02 0.63729582E+03 0.65847748E+03 0.32000000E+00 0.0000E+00 0.9000E+01
#aMCatNLO 2  0  0  1  2 0.14436362D+02 0.00000000D+00  -5  6  0 0.00000000D+00 0.00000000D+00 0.00000000D+00 0.00000000D+00 0.00000000D+00
  <mgrwgt>
 0.4319789582D-03    1    2    0
 0.586371643846496D+03 0.000000000000000D+00 0.000000000000000D+00 0.586371643846496D+03
 0.586371643846496D+03 0.000000000000000D+00 0.000000000000000D+00 -.586371643846496D+03
 0.590335288475186D+03 0.459286027621222D+03 0.327424370215594D+03 0.121327570815213D+03
 0.226206739955408D+03 -.170216797746849D+03 -.148166639747760D+03 -.155684884275708D+02
 0.356201259262398D+03 -.289069229874373D+03 -.179257730467835D+03 -.105759082387642D+03
 0.000000000000000D+00 0.000000000000000D+00 -.000000000000000D+00 0.000000000000000D+00
 0.232573135491144D+04 0.000000000000000D+00 0.000000000000000D+00 0.232573135491144D+04
 0.596151832716857D+03 0.000000000000000D+00 0.000000000000000D+00 -.596151832716857D+03
 0.555265675595799D+03 0.385505356045628D+03 0.359666806245826D+03 0.121327570815213D+03
 0.242105097320969D+03 -.200377702760639D+03 -.134986208752026D+03 -.155684884275708D+02
 0.387016557604315D+03 -.336935032518701D+03 -.158340191404583D+03 -.105759082387642D+03
 0.173749585710722D+04 0.151807379233712D+03 -.663404060892167D+02 0.172957952219459D+04
0.175559678577D-03 0.000000000000D+00 0.000000000000D+00 0.193480011195D-03 0.150518310450D-07  6 21 1 25 -2 1 2 2 0.13372479D+00 0.24540183D+00 0.43652992D+06 0.43652992D+06 0.43652992D+06 0.10727022D+01  1  2  1  5  6  1       -2 0.431978958160D-03 0.100000000000D+01
  </mgrwgt>
  </event>
  <event>
  7     66 0.18996412E-05 0.22749090E+02 0.75467711E-02 0.94547020E-01
       -2 -1    0    0    0  503 0.00000000E+00 0.00000000E+00 0.81824567E+03 0.81824573E+03 0.32000000E+00 0.0000E+00 0.9000E+01
        1 -1    0    0  501    0 0.00000000E+00 0.00000000E+00 -.60957089E+03 0.60957097E+03 0.32000000E+00 0.0000E+00 0.9000E+01
      -24  2    1    2    0    0 0.48461259E+03 0.75884482E+02 -.15127678E+03 0.51957176E+03 0.80388667E+02 0.0000E+00 0.0000E+00
       25  1    1    2    0    0 -.47819115E+03 -.59909409E+02 -.47766762E+02 0.50016255E+03 0.12500000E+03 0.0000E+00 0.9000E+01
       -2  1    3    3    0  502 0.61733811E+02 0.22168000E+02 0.44392479E+01 0.65744148E+02 0.32000000E+00 0.0000E+00 0.9000E+01
        1  1    3    3  502    0 0.42287878E+03 0.53716482E+02 -.15571603E+03 0.45382762E+03 0.32000000E+00 0.0000E+00 0.9000E+01
       21  1    1    2  501  503 -.64214402E+01 -.15975072E+02 0.40771833E+03 0.40808239E+03 0.75000000E+00 0.0000E+00 0.9000E+01
#aMCatNLO 2  0  0  1  5 0.91453555D+02 0.00000000D+00  -5  6  0 0.00000000D+00 0.00000000D+00 0.00000000D+00 0.00000000D+00 0.00000000D+00
  <mgrwgt>
 0.9560871861D-03    1    2    0
 0.499985825206256D+03 0.000000000000000D+00 0.000000000000000D+00 0.499985825206256D+03
 0.499985825206256D+03 0.000000000000000D+00 0.000000000000000D+00 -.499985825206256D+03
 0.504567286250423D+03 -.481417879633713D+03 -.679367758872214D+02 0.508386270973715D+02
 0.671707945582672D+02 0.612943971264533D+02 0.210885765594353D+02 0.176120544284423D+02
 0.428233569603823D+03 0.420123482507259D+03 0.468481993277861D+02 -.684506815258138D+02
 0.000000000000000D+00 -.000000000000000D+00 -.000000000000000D+00 0.000000000000000D+00
 0.997139712689667D+03 0.000000000000000D+00 0.000000000000000D+00 0.997139712689667D+03
 0.500209020933704D+03 0.000000000000000D+00 0.000000000000000D+00 -.500209020933704D+03
 0.500465261911526D+03 -.478191149056167D+03 -.599094094393296D+02 0.508386270973715D+02
 0.679112609175127D+02 0.617280879553509D+02 0.221674999851707D+02 0.176120544284423D+02
 0.431743339714794D+03 0.422884501336308D+03 0.537169816378228D+02 -.684506815258138D+02
 0.497228871079537D+03 -.642144023549173D+01 -.159750721836639D+02 0.496930691755963D+03
0.464422720851D-03 0.000000000000D+00 0.000000000000D+00 0.197501484281D-03 0.526038891252D-05  6 -2 1 25 -2 1 21 2 0.12588389D+00 0.93780095D-01 0.25349417D+06 0.25349417D+06 0.25349417D+06 0.10900059D+01  1  2  1  1  6  1       -2 0.956087186127D-03 0.100000000000D+01
  </mgrwgt>
  </event>
  <event>
  6     66 0.18996412E-05 0.13657752E+02 0.75467711E-02 0.93007182E-01
       -2 -1    0    0    0  501 0.00000000E+00 0.00000000E+00 0.30213645E+03 0.30213662E+03 0.32000000E+00 0.0000E+00 0.9000E+01
        1 -1    0    0  501    0 -.00000000E+00 -.00000000E+00 -.11139453E+04 0.11139453E+04 0.32000000E+00 0.0000E+00 0.9000E+01
      -24  2    1    2    0    0 0.52690098E+03 0.21720720E+03 -.44327301E+03 0.72597524E+03 0.75798891E+02 0.0000E+00 0.0000E+00
       25  1    1    2    0    0 -.52690098E+03 -.21720720E+03 -.36853582E+03 0.69010670E+03 0.12500000E+03 0.0000E+00 0.9000E+01
       -2  1    3    3    0  502 0.17561873E+02 -.32472192E+01 -.43413396E+01 0.18382422E+02 0.32000000E+00 0.0000E+00 0.9000E+01
        1  1    3    3  502    0 0.50933911E+03 0.22045442E+03 -.43893167E+03 0.70759281E+03 0.32000000E+00 0.0000E+00 0.9000E+01
#aMCatNLO 1  0  0  4  5 0.24371521D+01 0.00000000D+00  -5  6  0 0.00000000D+00 0.00000000D+00 0.00000000D+00 0.00000000D+00 0.00000000D+00
  <mgrwgt>
 0.1647891775D-02    9    2    0
 0.580141036941537D+03 0.000000000000000D+00 0.000000000000000D+00 0.580141036941537D+03
 0.580141036941537D+03 -.000000000000000D+00 -.000000000000000D+00 -.580141036941537D+03
 0.584398419028263D+03 -.526900982525422D+03 -.217207199592429D+03 0.330590263270367D+02
 0.193880193497946D+02 0.175531079656310D+02 -.325120633247786D+01 0.756395084850272D+01
 0.556495635505017D+03 0.509347874559791D+03 0.220458405924907D+03 -.406229771755395D+02
 0.000000000000000D+00 0.000000000000000D+00 -.000000000000000D+00 0.000000000000000D+00
 0.580141036941537D+03 0.000000000000000D+00 0.000000000000000D+00 0.580141036941537D+03
 0.580141036941537D+03 -.000000000000000D+00 -.000000000000000D+00 -.580141036941537D+03
 0.584150150696755D+03 -.526593812714467D+03 -.217264093929118D+03 0.331913913393616D+02
 0.122600159389296D+02 0.109427683126076D+02 0.274215404558442D+00 0.552164997000911D+01
 0.556732837841212D+03 0.509640502687169D+03 0.220404205015151D+03 -.404968784369738D+02
 0.713906940617635D+01 0.601054171469042D+01 -.341432649059142D+01 0.178383712760306D+01
0.652807230940D-05 0.000000000000D+00 0.000000000000D+00 0.283701163271D-05 0.000000000000D+00  6 -2 1 25 -2 1 21 0 0.46482547D-01 0.17137621D+00 0.33427201D+06 0.33427201D+06 0.33427201D+06 0.10810932D+01  1  2  2  3  6  4       -2 0.389107446457D-04 0.100000000000D+01
0.290237522868D-05 0.000000000000D+00 -.250695165490D-07 0.283701163271D-05 0.000000000000D+00  6 -2 1 25 -2 1 21 2 0.46482547D-01 0.17137621D+00 0.33427201D+06 0.33427201D+06 0.33427201D+06 0.10810932D+01  1  2  3  3  6  4       -2 0.202192204778D-04 0.100000000000D+01
-.221555605242D-05 0.000000000000D+00 0.000000000000D+00 0.283701163271D-05 0.000000000000D+00  6 -2 1 25 -2 1 21 2 0.46482547D-01 0.17137621D+00 0.33427201D+06 0.33427201D+06 0.33427201D+06 0.10810932D+01  1  2 15  3  6  4       -2 -.154345364659D-04 0.100000000000D+01
0.327589925627D-08 0.000000000000D+00 0.000000000000D+00 0.283701163271D-05 0.000000000000D+00  6 -2 1 25 -2 1 21 2 0.46482547D-01 0.17137621D+00 0.33427086D+06 0.33427086D+06 0.33427086D+06 0.10810933D+01  1  2 12  3  6  4       -2 0.228213604069D-07 0.100000000000D+01
0.479399434283D-11 0.000000000000D+00 0.000000000000D+00 0.283701163271D-05 0.000000000000D+00  6 -2 1 25 -2 1 21 2 0.46482547D-01 0.17137621D+00 0.33427086D+06 0.33427086D+06 0.33427086D+06 0.10810933D+01  1  2 12  3  6  4       -2 0.333970809624D-10 0.100000000000D+01
-.812683098580D-04 0.000000000000D+00 0.000000000000D+00 0.283701163271D-05 0.000000000000D+00  6 -2 1 25 -2 1 21 2 0.46482547D-01 0.17137621D+00 0.33427201D+06 0.33427201D+06 0.33427201D+06 0.10810932D+01  1  2  4  3  6  4       -2 -.566150737037D-03 0.100000000000D+01
-.378186442802D-04 0.000000000000D+00 0.000000000000D+00 0.283701163271D-05 0.000000000000D+00  6 -2 1 25 -2 1 21 2 0.46482547D-01 0.17137621D+00 0.33427201D+06 0.33427201D+06 0.33427201D+06 0.10810932D+01  1  2  5  3  6  4       -2 -.263461284852D-03 0.100000000000D+01
0.107914376755D-03 0.000000000000D+00 -.000000000000D+00 0.283701163271D-05 0.000000000000D+00  6 -2 1 25 -2 1 21 2 0.46482547D-01 0.17137621D+00 0.33427201D+06 0.33427201D+06 0.33427201D+06 0.10810932D+01  1  2  6  3  6  4       -2 0.751778941186D-03 0.100000000000D+01
0.241444155002D-03 0.000000000000D+00 0.000000000000D+00 0.283701163271D-05 0.838987903329D-05  6 -2 1 25 -2 1 21 2 0.46482547D-01 0.17137621D+00 0.33427086D+06 0.33427086D+06 0.33427086D+06 0.10810933D+01  1  2 11  3  6  4       -2 0.168200657236D-02 0.100000000000D+01
  </mgrwgt>
  </event>
  <event>
  6     66 0.18996412E-05 0.15083357E+02 0.75467711E-02 0.93125917E-01
       -2 -1    0    0    0  501 0.00000000E+00 0.00000000E+00 0.46121470E+03 0.46121481E+03 0.32000000E+00 0.0000E+00 0.9000E+01
        1 -1    0    0  501    0 0.00000000E+00 0.00000000E+00 -.73392106E+03 0.73392113E+03 0.32000000E+00 0.0000E+00 0.9000E+01
      -24  2    1    2    0    0 0.39877890E+03 0.38334533E+03 -.28595013E+03 0.62788057E+03 0.80549846E+02 0.0000E+00 0.0000E+00
       25  1    1    2    0    0 -.39877890E+03 -.38334533E+03 0.13243761E+02 0.56725537E+03 0.12500000E+03 0.0000E+00 0.9000E+01
       -2  1    3    3    0  502 0.92980516E+01 0.17026720E+02 -.28417483E+02 0.34409573E+02 0.32000000E+00 0.0000E+00 0.9000E+01
        1  1    3    3  502    0 0.38948085E+03 0.36631861E+03 -.25753264E+03 0.59347100E+03 0.32000000E+00 0.0000E+00 0.9000E+01
#aMCatNLO 1  0  0  2  1 0.18211269D+01 0.00000000D+00  -5  6  0 0.00000000D+00 0.00000000D+00 0.00000000D+00 0.00000000D+00 0.00000000D+00
  <mgrwgt>
 0.4417107987D-04    7    2    0
 0.581803479765911D+03 0.000000000000000D+00 0.000000000000000D+00 0.581803479765911D+03
 0.581803479765911D+03 0.000000000000000D+00 0.000000000000000D+00 -.581803479765911D+03
 0.585729514373253D+03 -.398778902660889D+03 -.383345334028424D+03 0.146546257813495D+03
 0.286737106976753D+02 0.929205121481961D+01 0.170212072193973D+02 -.211215050171498D+02
 0.549203734460895D+03 0.389486851446070D+03 0.366324126809026D+03 -.125424752796345D+03
 0.000000000000000D+00 0.000000000000000D+00 -.000000000000000D+00 -.000000000000000D+00
 0.587475819416462D+03 0.000000000000000D+00 0.000000000000000D+00 0.587475819416462D+03
 0.604566296976279D+03 0.000000000000000D+00 0.000000000000000D+00 -.604566296976279D+03
 0.590097086533921D+03 -.409250484699865D+03 -.378982594098474D+03 0.146546257813495D+03
 0.286398501698390D+02 0.878163271084381D+01 0.172338611603198D+02 -.211215050171498D+02
 0.545086656835947D+03 0.379741408029424D+03 0.370384338052239D+03 -.125424752796345D+03
 0.282185228530342D+02 0.207274439595967D+02 -.863560511408452D+01 -.170904775598164D+02
0.253227529279D-05 0.000000000000D+00 0.000000000000D+00 0.173134103159D-04 0.000000000000D+00  6 -2 1 25 -2 1 21 0 0.70956121D-01 0.11291095D+00 0.31426288D+06 0.31426288D+06 0.31426288D+06 0.10830626D+01  1  2  2  2  6  2        1 0.128429315869D-04 0.100000000000D+01
0.907120593344D-06 0.000000000000D+00 -.972460388772D-08 0.173134103159D-04 0.000000000000D+00  6 -2 1 25 -2 1 21 2 0.70956121D-01 0.11291095D+00 0.31426288D+06 0.31426288D+06 0.31426288D+06 0.10830626D+01  1  2  3  2  6  2        1 0.539666434303D-05 0.100000000000D+01
-.782309938399D-06 0.000000000000D+00 0.000000000000D+00 0.173134103159D-04 0.000000000000D+00  6 -2 1 25 -2 1 21 2 0.70956121D-01 0.11291095D+00 0.31426288D+06 0.31426288D+06 0.31426288D+06 0.10830626D+01  1  2 15  2  6  2        1 -.465413769761D-05 0.100000000000D+01
-.292766056223D-06 0.000000000000D+00 0.000000000000D+00 0.173134103159D-04 0.000000000000D+00  6 -2 1 25 -2 1 21 2 0.70956121D-01 0.11291095D+00 0.31426288D+06 0.31426288D+06 0.31426288D+06 0.10830626D+01  1  2  4  2  6  2        1 -.174173108632D-05 0.100000000000D+01
-.924951627276D-04 0.000000000000D+00 -.116586558150D-04 0.173134103159D-04 0.000000000000D+00  6 -2 1 25 -2 1 21 2 0.70956121D-01 0.11805053D+00 0.31426288D+06 0.31426288D+06 0.31426288D+06 0.10830626D+01  1  2  5  2  6  2        1 -.513321369192D-03 0.100000000000D+01
0.929335827632D-04 0.000000000000D+00 0.116471149175D-04 0.173134103159D-04 0.000000000000D+00  6 -2 1 25 -2 1 21 2 0.70956121D-01 0.11291095D+00 0.31426288D+06 0.31426288D+06 0.31426288D+06 0.10830626D+01  1  2  6  2  6  2        1 0.552882776610D-03 0.100000000000D+01
-.714775718622D-06 0.000000000000D+00 -.911268458270D-07 0.173134103159D-04 0.000000000000D+00  6 -2 21 25 -2 1 -1 2 0.70956121D-01 0.11805053D+00 0.31426288D+06 0.31426288D+06 0.31426288D+06 0.10830626D+01  1  2  5  6  6  2        1 -.723405469510D-05 0.100000000000D+01
  </mgrwgt>
  </event>
  <event>
  7     66 0.18996412E-05 0.47921346E+02 0.75467711E-02 0.94867514E-01
       21 -1    0    0  503  501 0.00000000E+00 0.00000000E+00 0.62699614E+03 0.62699658E+03 0.75000000E+00 0.0000E+00 0.9000E+01
        1 -1    0    0  501    0 0.00000000E+00 0.00000000E+00 -.10279487E+04 0.10279488E+04 0.32000000E+00 0.0000E+00 0.9000E+01
      -24  2    1    2    0    0 0.22792310E+03 -.36929739E+03 -.54602030E+03 0.70188217E+03 0.78555190E+02 0.0000E+00 0.0000E+00
       25  1    1    2    0    0 -.17826630E+03 0.41725387E+03 -.26303780E+03 0.53916004E+03 0.12500000E+03 0.0000E+00 0.9000E+01
       -2  1    3    3    0  502 0.20267093E+03 -.27474092E+03 -.44917329E+03 0.56419396E+03 0.32000000E+00 0.0000E+00 0.9000E+01
        1  1    3    3  502    0 0.25252167E+02 -.94556472E+02 -.96847007E+02 0.13768821E+03 0.32000000E+00 0.0000E+00 0.9000E+01
        2  1    1    2  503    0 -.49656805E+02 -.47956480E+02 0.40810550E+03 0.41390316E+03 0.32000000E+00 0.0000E+00 0.9000E+01
#aMCatNLO 2  0  0  1  2 0.37074646D+01 0.00000000D+00  -5  6  0 0.00000000D+00 0.00000000D+00 0.00000000D+00 0.00000000D+00 0.00000000D+00
  <mgrwgt>
 0.2280476106D-02    1    2    0
 0.469266752358312D+03 0.000000000000000D+00 0.000000000000000D+00 0.469266752358312D+03
 0.469266752358312D+03 0.000000000000000D+00 0.000000000000000D+00 -.469266752358312D+03
 0.474303377091950D+03 -.203606807424902D+03 0.392781053678388D+03 0.116644782833878D+03
 0.362157448184226D+03 0.183651492697313D+03 -.293114935587941D+03 -.107302288142594D+03
 0.102072679440449D+03 0.199553147275892D+02 -.996661180904465D+02 -.934249469128392D+01
 0.000000000000000D+00 -.000000000000000D+00 -.000000000000000D+00 0.000000000000000D+00
 0.136589929180397D+04 0.000000000000000D+00 0.000000000000000D+00 0.136589929180397D+04
 0.471865110135982D+03 0.000000000000000D+00 0.000000000000000D+00 -.471865110135982D+03
 0.484882116857615D+03 -.178266296398219D+03 0.417253866913683D+03 0.116644782833878D+03
 0.357875251411372D+03 0.202673878543187D+03 -.274743905279767D+03 -.107302288142594D+03
 0.983115780201502D+02 0.252492224417741D+02 -.945534818599570D+02 -.934249469128392D+01
 0.896695455650819D+03 -.496568045867416D+02 -.479564797739591D+02 0.894034181667990D+03
0.140225185666D-03 0.000000000000D+00 0.000000000000D+00 0.358369360702D-04 0.929350226061D-08  6 21 1 25 -2 1 2 2 0.96460976D-01 0.15814599D+00 0.23958732D+06 0.23958732D+06 0.23958732D+06 0.10918518D+01  1  2  1  5  6  1       -2 0.228047610604D-02 0.100000000000D+01
  </mgrwgt>
  </event>
  <event>
  7     66 0.18996412E-05 0.61559509E+02 0.75467711E-02 0.95196670E-01
       21 -1    0    0  503  501 0.00000000E+00 0.00000000E+00 0.15256669E+03 0.15256853E+03 0.75000000E+00 0.0000E+00 0.9000E+01
        1 -1    0    0  501    0 0.00000000E+00 0.00000000E+00 -.16423337E+04 0.16423337E+04 0.32000000E+00 0.0000E+00 0.9000E+01
      -24  2    1    2    0    0 0.17487159E+03 -.41531139E+03 -.95943107E+03 0.10628343E+04 0.77750245E+02 0.0000E+00 0.0000E+00
       25  1    1    2    0    0 -.18861163E+03 0.42527327E+03 -.52833073E+03 0.71497556E+03 0.12500000E+03 0.0000E+00 0.9000E+01
       -2  1    3    3    0  502 0.97283645E+02 -.17840734E+03 -.35555555E+03 0.40952794E+03 0.32000000E+00 0.0000E+00 0.9000E+01
        1  1    3    3  502    0 0.77587942E+02 -.23690406E+03 -.60387553E+03 0.65330634E+03 0.32000000E+00 0.0000E+00 0.9000E+01
        2  1    1    2  503    0 0.13740040E+02 -.99618747E+01 -.20052117E+01 0.17092423E+02 0.32000000E+00 0.0000E+00 0.9000E+01
#aMCatNLO 2  0  0  1  2 0.37074646D+01 0.00000000D+00  -5  6  0 0.00000000D+00 0.00000000D+00 0.00000000D+00 0.00000000D+00 0.00000000D+00
  <mgrwgt>
 0.3752550857D-03    1    2    0
 0.486539988376531D+03 0.000000000000000D+00 0.000000000000000D+00 0.486539988376531D+03
 0.486539988376531D+03 0.000000000000000D+00 0.000000000000000D+00 -.486539988376531D+03
 0.491462450869046D+03 -.181623628138955D+03 0.420206791901657D+03 0.127864969227579D+03
 0.207787349603031D+03 0.100194934647771D+03 -.180516861689663D+03 -.234567766689329D+02
 0.273830176280985D+03 0.814286934911840D+02 -.239689930211994D+03 -.104408192558646D+03
 0.000000000000000D+00 0.000000000000000D+00 -.000000000000000D+00 0.000000000000000D+00
 0.511924868685670D+03 0.000000000000000D+00 0.000000000000000D+00 0.511924868685670D+03
 0.489458880412526D+03 0.000000000000000D+00 0.000000000000000D+00 -.489458880412526D+03
 0.498403599933240D+03 -.188611627569285D+03 0.425273267460475D+03 0.127864969227579D+03
 0.204556146561974D+03 0.972839790553798D+02 -.178406345581484D+03 -.234567766689329D+02
 0.270268216931360D+03 0.775876088729879D+02 -.236905047137594D+03 -.104408192558646D+03
 0.281557856716216D+02 0.137400396409171D+02 -.996187474139662D+01 0.224659882731440D+02
0.284300125730D-05 0.000000000000D+00 0.000000000000D+00 0.458272593491D-04 0.898241894284D-08  6 21 1 25 -2 1 2 2 0.23471899D-01 0.25266640D+00 0.22618939D+06 0.22618939D+06 0.22618939D+06 0.10937443D+01  1  2  1  5  6  1       -2 0.375255085728D-03 0.100000000000D+01
  </mgrwgt>
  </event>
  <event>
  7     66 0.18996412E-05 0.45273524E+02 0.75467711E-02 0.94439816E-01
       -2 -1    0    0    0  503 0.00000000E+00 0.00000000E+00 0.78986255E+03 0.78986261E+03 0.32000000E+00 0.0000E+00 0.9000E+01
        1 -1    0    0  501    0 0.00000000E+00 0.00000000E+00 -.66872387E+03 0.66872394E+03 0.32000000E+00 0.0000E+00 0.9000E+01
      -24  2    1    2    0    0 0.20841655E+03 -.44612150E+03 -.51858301E+02 0.50159095E+03 0.80264219E+02 0.0000E+00 0.0000E+00
       25  1    1    2    0    0 -.21766635E+03 0.44089153E+03 -.22774746E+03 0.55610961E+03 0.12500000E+03 0.0000E+00 0.9000E+01
       -2  1    3    3    0  502 0.25845796E+02 -.13836828E+03 -.67145881E+01 0.14092188E+03 0.32000000E+00 0.0000E+00 0.9000E+01
        1  1    3    3  502    0 0.18257075E+03 -.30775322E+03 -.45143713E+02 0.36066908E+03 0.32000000E+00 0.0000E+00 0.9000E+01
       21  1    1    2  501  503 0.92498060E+01 0.52299698E+01 0.40074445E+03 0.40088600E+03 0.75000000E+00 0.0000E+00 0.9000E+01
#aMCatNLO 2  0  0  1  1 0.76489076D+02 0.00000000D+00  -5  6  0 0.00000000D+00 0.00000000D+00 0.00000000D+00 0.00000000D+00 0.00000000D+00
  <mgrwgt>
 0.8474182560D-02    1    2    0
 0.510009356440562D+03 0.000000000000000D+00 0.000000000000000D+00 0.510009356440562D+03
 0.510009356440562D+03 0.000000000000000D+00 0.000000000000000D+00 -.510009356440562D+03
 0.514510575452306D+03 -.213002186387258D+03 0.443528720553790D+03 -.837166344905775D+02
 0.143808717597158D+03 0.271494840445412D+02 -.137627058657103D+03 0.316645779767976D+02
 0.361699419831660D+03 0.185852702342717D+03 -.305901661896687D+03 0.520520565137799D+02
 0.000000000000000D+00 0.000000000000000D+00 0.000000000000000D+00 0.000000000000000D+00
 0.103550101186454D+04 0.000000000000000D+00 0.000000000000000D+00 0.103550101186454D+04
 0.510090749470235D+03 0.000000000000000D+00 0.000000000000000D+00 -.510090749470235D+03
 0.514195937422619D+03 -.217666354504351D+03 0.440891534607190D+03 -.837166344905775D+02
 0.144275980763322D+03 0.258433044410309D+02 -.138365590889997D+03 0.316645779767976D+02
 0.361602140950219D+03 0.182573244074863D+03 -.307755913510120D+03 0.520520565137799D+02
 0.525517702198618D+03 0.924980598845715D+01 0.522996979292723D+01 0.525410262394309D+03
0.431788226915D-02 0.000000000000D+00 0.000000000000D+00 0.239558755493D-03 0.169098682719D-04  6 -2 1 25 -2 1 21 2 0.12151726D+00 0.10288055D+00 0.25834634D+06 0.25834634D+06 0.25834634D+06 0.10893878D+01  1  2  1  1  6  1       -2 0.847418255952D-02 0.100000000000D+01
  </mgrwgt>
  </event>
  <event>
  7     66 0.18996412E-05 0.53828203E+02 0.75467711E-02 0.92482929E-01
       -2 -1    0    0    0  503 0.00000000E+00 0.00000000E+00 0.41555466E+03 0.41555479E+03 0.32000000E+00 0.0000E+00 0.9000E+01
        1 -1    0    0  501    0 0.00000000E+00 0.00000000E+00 -.22502156E+04 0.22502157E+04 0.32000000E+00 0.0000E+00 0.9000E+01
      -24  2    1    2    0    0 0.35696856E+02 -.59704227E+03 -.15294487E+04 0.16442949E+04 0.82210356E+02 0.0000E+00 0.0000E+00
       25  1    1    2    0    0 -.45798690E+02 0.58270342E+03 -.52828324E+03 0.79771485E+03 0.12500000E+03 0.0000E+00 0.9000E+01
       -2  1    3    3    0  502 0.11871859E+02 -.22012494E+03 -.67545551E+03 0.71051825E+03 0.32000000E+00 0.0000E+00 0.9000E+01
        1  1    3    3  502    0 0.23824997E+02 -.37691733E+03 -.85399320E+03 0.93377663E+03 0.32000000E+00 0.0000E+00 0.9000E+01
       21  1    1    2  501  503 0.10101833E+02 0.14338853E+02 0.22307096E+03 0.22376074E+03 0.75000000E+00 0.0000E+00 0.9000E+01
#aMCatNLO 2  0  0  1  5 0.32094259D+02 0.00000000D+00  -5  6  0 0.00000000D+00 0.00000000D+00 0.00000000D+00 0.00000000D+00 0.00000000D+00
  <mgrwgt>
 0.2130454490D-02    1    2    0
 0.657427382391390D+03 0.000000000000000D+00 0.000000000000000D+00 0.657427382391390D+03
 0.657427382391390D+03 0.000000000000000D+00 0.000000000000000D+00 -.657427382391390D+03
 0.660799031358203D+03 -.407453766116774D+02 0.589876246822788D+03 0.267238072817054D+03
 0.260216578338869D+03 0.138795749799955D+02 -.217272493248069D+03 -.142522590204259D+03
 0.393839155085709D+03 0.268658016316820D+02 -.372603753574719D+03 -.124715482612795D+03
 0.000000000000000D+00 0.000000000000000D+00 0.000000000000000D+00 0.000000000000000D+00
 0.142199893939087D+04 0.000000000000000D+00 0.000000000000000D+00 0.142199893939087D+04
 0.657586477960642D+03 0.000000000000000D+00 0.000000000000000D+00 -.657586477960642D+03
 0.654738101631944D+03 -.457986897462408D+02 0.582703418715865D+03 0.267238072817054D+03
 0.262502511850311D+03 0.118716778420894D+02 -.220122564210044D+03 -.142522590204259D+03
 0.397731136105362D+03 0.238251785667030D+02 -.376919707485009D+03 -.124715482612795D+03
 0.764613667763897D+03 0.101018333374484D+02 0.143388529791878D+02 0.764412461430230D+03
0.348664666597D-02 0.000000000000D+00 0.000000000000D+00 0.398640850677D-04 0.104622901308D-05  6 -2 1 25 -2 1 21 2 0.63931480D-01 0.34618694D+00 0.36806761D+06 0.36806761D+06 0.36806761D+06 0.10780421D+01  1  2  1  1  6  1       -2 0.213045448969D-02 0.100000000000D+01
  </mgrwgt>
  </event>
  <event>
  7     66 0.18996412E-05 0.46151169E+02 0.75467711E-02 0.94769061E-01
       21 -1    0    0  503  501 0.00000000E+00 0.00000000E+00 0.11039617E+04 0.11039619E+04 0.75000000E+00 0.0000E+00 0.9000E+01
        1 -1    0    0  501    0 0.00000000E+00 0.00000000E+00 -.51481670E+03 0.51481680E+03 0.32000000E+00 0.0000E+00 0.9000E+01
      -24  2    1    2    0    0 0.40349239E+03 -.26236261E+03 0.57508301E+03 0.75419135E+03 0.80273766E+02 0.0000E+00 0.0000E+00
       25  1    1    2    0    0 -.40148028E+03 0.24272744E+03 -.28625510E+03 0.56362222E+03 0.12500000E+03 0.0000E+00 0.9000E+01
       -2  1    3    3    0  502 0.27850151E+03 -.16452457E+03 0.32918966E+03 0.46151637E+03 0.32000000E+00 0.0000E+00 0.9000E+01
        1  1    3    3  502    0 0.12499088E+03 -.97838032E+02 0.24589335E+03 0.29267498E+03 0.32000000E+00 0.0000E+00 0.9000E+01
        2  1    1    2  503    0 -.20121127E+01 0.19635162E+02 0.30031706E+03 0.30096516E+03 0.32000000E+00 0.0000E+00 0.9000E+01
#aMCatNLO 2  0  0  1  5 0.16905008D+03 0.00000000D+00  -5  6  0 0.00000000D+00 0.00000000D+00 0.00000000D+00 0.00000000D+00 0.00000000D+00
  <mgrwgt>
 0.3713480852D-03    1    2    0
 0.642810519374887D+03 0.000000000000000D+00 0.000000000000000D+00 0.642810519374887D+03
 0.642810519374887D+03 0.000000000000000D+00 0.000000000000000D+00 -.642810519374887D+03
 0.646381214863579D+03 -.402488415042032D+03 0.252565293961543D+03 -.419997051146301D+03
 0.396170914714009D+03 0.277881677181581D+03 -.158453154434736D+03 0.233721554422710D+03
 0.243068909172187D+03 0.124606737860451D+03 -.941121395268067D+02 0.186275496723591D+03
 0.000000000000000D+00 -.000000000000000D+00 0.000000000000000D+00 0.000000000000000D+00
 0.883484972782278D+03 0.000000000000000D+00 0.000000000000000D+00 0.883484972782278D+03
 0.643291084877010D+03 0.000000000000000D+00 0.000000000000000D+00 -.643291084877010D+03
 0.641970054676342D+03 -.401480281544690D+03 0.242727443154568D+03 -.419997051146301D+03
 0.399072552034562D+03 0.278503954348008D+03 -.164525633863338D+03 0.233721554422710D+03
 0.244729940623210D+03 0.124988439941296D+03 -.978369717379900D+02 0.186275496723591D+03
 0.241003510325174D+03 -.201211274461445D+01 0.196351624467605D+02 0.240193887905268D+03
0.384356784780D-04 0.000000000000D+00 0.000000000000D+00 0.990856249330D-04 0.684472775477D-07  6 21 1 25 -2 1 2 2 0.16984026D+00 0.79202584D-01 0.24376611D+06 0.24376611D+06 0.24376611D+06 0.10912851D+01  1  2  1  5  6  1       -2 0.371348085183D-03 0.100000000000D+01
  </mgrwgt>
  </event>
  <event>
  7     66 0.18996412E-05 0.41888046E+02 0.75467711E-02 0.94744350E-01
       21 -1    0    0  503  501 0.00000000E+00 0.00000000E+00 0.46415104E+03 0.46415165E+03 0.75000000E+00 0.0000E+00 0.9000E+01
        1 -1    0    0  501    0 0.00000000E+00 0.00000000E+00 -.63874965E+03 0.63874973E+03 0.32000000E+00 0.0000E+00 0.9000E+01
      -24  2    1    2    0    0 0.27587781E+03 -.30709197E+03 -.13835291E+03 0.44180076E+03 0.75048951E+02 0.0000E+00 0.0000E+00
       25  1    1    2    0    0 -.34814078E+03 0.33509323E+03 -.15204684E+03 0.52175925E+03 0.12500000E+03 0.0000E+00 0.9000E+01
       -2  1    3    3    0  502 0.13995679E+03 -.16482715E+03 -.11128892E+03 0.24318968E+03 0.32000000E+00 0.0000E+00 0.9000E+01
        1  1    3    3  502    0 0.13592102E+03 -.14226481E+03 -.27063985E+02 0.19861108E+03 0.32000000E+00 0.0000E+00 0.9000E+01
        2  1    1    2  503    0 0.72262971E+02 -.28001260E+02 0.11580114E+03 0.13934136E+03 0.32000000E+00 0.0000E+00 0.9000E+01
#aMCatNLO 2  0  0  1  5 0.16905008D+03 0.00000000D+00  -5  6  0 0.00000000D+00 0.00000000D+00 0.00000000D+00 0.00000000D+00 0.00000000D+00
  <mgrwgt>
 0.1965879760D-02    1    2    0
 0.457741706708392D+03 0.000000000000000D+00 0.000000000000000D+00 0.457741706708392D+03
 0.457741706708392D+03 0.000000000000000D+00 0.000000000000000D+00 -.457741706708392D+03
 0.463199290590894D+03 -.310227693460672D+03 0.320402240907999D+03 0.545573414964151D+01
 0.236748135000375D+03 0.157946204359978D+03 -.171798273988970D+03 -.398500816666991D+02
 0.215535987825515D+03 0.152281489100693D+03 -.148603966919028D+03 0.343943475170576D+02
 0.000000000000000D+00 0.000000000000000D+00 -.000000000000000D+00 0.000000000000000D+00
 0.633493387376786D+03 0.000000000000000D+00 0.000000000000000D+00 0.633493387376786D+03
 0.468002544911247D+03 0.000000000000000D+00 0.000000000000000D+00 -.468002544911247D+03
 0.499143505861854D+03 -.348140782007777D+03 0.335093226299734D+03 0.545573414964151D+01
 0.219872869013658D+03 0.139956863533129D+03 -.164827564046259D+03 -.398500816666991D+02
 0.199741421144705D+03 0.135920947684542D+03 -.142264402294877D+03 0.343943475170576D+02
 0.182738136267816D+03 0.722629707901063D+02 -.280012599585980D+02 0.165490842465540D+03
0.269629473720D-04 0.000000000000D+00 0.000000000000D+00 0.752588842766D-05 0.341458486965D-09  6 21 1 25 -2 1 2 2 0.71407884D-01 0.98269200D-01 0.24482777D+06 0.24482777D+06 0.24482777D+06 0.10911428D+01  1  2  1  5  6  1       -2 0.196587975951D-02 0.100000000000D+01
  </mgrwgt>
  </event>
  <event>
  6     66 0.18996412E-05 0.12328637E+03 0.75467711E-02 0.93020131E-01
       -2 -1    0    0    0  501 0.00000000E+00 0.00000000E+00 0.30585745E+03 0.30585762E+03 0.32000000E+00 0.0000E+00 0.9000E+01
        1 -1    0    0  501    0 -.00000000E+00 -.00000000E+00 -.11044349E+04 0.11044349E+04 0.32000000E+00 0.0000E+00 0.9000E+01
       25  1    1    2    0    0 0.36076387E+03 0.29943840E+03 -.32326703E+03 0.58304417E+03 0.12500000E+03 0.0000E+00 0.9000E+01
       -2  1    1    2    0  503 -.28020474E+03 -.73024682E+02 -.17709926E+03 0.33942827E+03 0.32000000E+00 0.0000E+00 0.9000E+01
        1  1    1    2  502    0 -.19143392E+03 -.11664385E+03 -.13335303E+03 0.26083686E+03 0.32000000E+00 0.0000E+00 0.9000E+01
       21  1    1    2  503  502 0.11087479E+03 -.10976986E+03 -.16485810E+03 0.22698325E+03 0.75000000E+00 0.0000E+00 0.9000E+01
#aMCatNLO 2  0  0  4  5 0.24371521D+01 0.00000000D+00  -5  6  0 0.00000000D+00 0.00000000D+00 0.00000000D+00 0.00000000D+00 0.00000000D+00
  <mgrwgt>
 0.1011362280D-01    1    2    0
 0.581205464042884D+03 0.000000000000000D+00 0.000000000000000D+00 0.581205464042884D+03
 0.581205464042884D+03 -.000000000000000D+00 -.000000000000000D+00 -.581205464042884D+03
 0.582991421790191D+03 0.429394200720940D+03 0.373525991690892D+03 0.187870114576168D+02
 0.391263499869502D+03 -.264477974907168D+03 -.285517261214682D+03 -.402295993964868D+02
 0.188156006426075D+03 -.164916225813772D+03 -.880087304762097D+02 0.214425879388700D+02
 0.000000000000000D+00 0.000000000000000D+00 0.000000000000000D+00 0.000000000000000D+00
 0.581205464042884D+03 0.000000000000000D+00 0.000000000000000D+00 0.581205464042884D+03
 0.581205464042884D+03 -.000000000000000D+00 -.000000000000000D+00 -.581205464042884D+03
 0.485193912120072D+03 0.360695205060760D+03 0.299361974456645D+03 0.833724498719481D+01
 0.289921272763100D+03 -.280088846088780D+03 -.725600171077151D+02 0.184289612989894D+02
 0.224909371804651D+03 -.191482005857357D+03 -.116687824690911D+03 0.174016817379520D+02
 0.162386371397945D+03 0.110875646885377D+03 -.110114132658019D+03 -.441678880241362D+02
0.146287819014D-02 0.000000000000D+00 0.000000000000D+00 0.215355100871D-06 0.242796830738D-08  6 -2 1 25 -2 1 21 2 0.47055009D-01 0.16991307D+00 0.33348124D+06 0.33348124D+06 0.33348124D+06 0.10811686D+01  1  2  1  3  6  4       -2 0.101136228016D-01 0.100000000000D+01
  </mgrwgt>
  </event>
  <event>
  7     66 0.18996412E-05 0.66590204E+02 0.75467711E-02 0.92068936E-01
       21 -1    0    0  503  501 0.00000000E+00 0.00000000E+00 0.14396936E+03 0.14397131E+03 0.75000000E+00 0.0000E+00 0.9000E+01
        1 -1    0    0  501    0 0.00000000E+00 0.00000000E+00 -.31736560E+04 0.31736561E+04 0.32000000E+00 0.0000E+00 0.9000E+01
      -24  2    1    2    0    0 0.59888892E+03 0.14558903E+03 -.18621192E+04 0.19631343E+04 0.80898740E+02 0.0000E+00 0.0000E+00
       25  1    1    2    0    0 -.57774303E+03 -.16346733E+03 -.11753410E+04 0.13257300E+04 0.12500000E+03 0.0000E+00 0.9000E+01
       -2  1    3    3    0  502 0.30525813E+03 0.39969676E+02 -.99745404E+03 0.10438845E+04 0.32000000E+00 0.0000E+00 0.9000E+01
        1  1    3    3  502    0 0.29363079E+03 0.10561935E+03 -.86466511E+03 0.91924988E+03 0.32000000E+00 0.0000E+00 0.9000E+01
        2  1    1    2  503    0 -.21145881E+02 0.17878303E+02 0.77734681E+01 0.28763018E+02 0.32000000E+00 0.0000E+00 0.9000E+01
#aMCatNLO 2  0  0  1  5 0.16905008D+03 0.00000000D+00  -5  6  0 0.00000000D+00 0.00000000D+00 0.00000000D+00 0.00000000D+00 0.00000000D+00
  <mgrwgt>
 0.1480732617D-03    1    2    0
 0.630416079328816D+03 0.000000000000000D+00 0.000000000000000D+00 0.630416079328816D+03
 0.630416079328816D+03 0.000000000000000D+00 0.000000000000000D+00 -.630416079328816D+03
 0.634017031991002D+03 -.588312010504992D+03 -.154531530328853D+03 0.127912396914751D+03
 0.315448169624823D+03 0.299930921291128D+03 0.444728189695636D+02 -.870124045524928D+02
 0.311366957041808D+03 0.288381089213864D+03 0.110058711359289D+03 -.408999923622584D+02
 0.000000000000000D+00 -.000000000000000D+00 0.000000000000000D+00 0.000000000000000D+00
 0.722208037038632D+03 0.000000000000000D+00 0.000000000000000D+00 0.722208037038632D+03
 0.632659933489804D+03 0.000000000000000D+00 0.000000000000000D+00 -.632659933489804D+03
 0.626494344021545D+03 -.577743034362487D+03 -.163467330228812D+03 0.127912396914751D+03
 0.319923875735762D+03 0.305258308347541D+03 0.399686490212287D+02 -.870124045524928D+02
 0.314717979988805D+03 0.293630606900559D+03 0.105620377977974D+03 -.408999923622584D+02
 0.937317707823243D+02 -.211458808856128D+02 0.178783032296094D+02 0.895481035488290D+02
0.126146758126D-04 0.000000000000D+00 0.000000000000D+00 0.193619436037D-03 0.334152919809D-07  6 21 1 25 -2 1 2 2 0.22149274D-01 0.48825472D+00 0.39746782D+06 0.39746782D+06 0.39746782D+06 0.10756265D+01  1  2  1  5  6  1       -2 0.148073261704D-03 0.100000000000D+01
  </mgrwgt>
  </event>
  <event>
  7     66 0.18996412E-05 0.44235354E+02 0.75467711E-02 0.92932252E-01
       -2 -1    0    0    0  501 0.00000000E+00 0.00000000E+00 0.24484134E+03 0.24484155E+03 0.32000000E+00 0.0000E+00 0.9000E+01
        1 -1    0    0  503    0 0.00000000E+00 0.00000000E+00 -.13998482E+04 0.13998483E+04 0.32000000E+00 0.0000E+00 0.9000E+01
      -24  2    1    2    0    0 0.16794174E+03 -.54821693E+03 -.58707815E+03 0.82455237E+03 0.80496172E+02 0.0000E+00 0.0000E+00
       25  1    1    2    0    0 -.14201287E+03 0.51192993E+03 -.53841461E+03 0.76665194E+03 0.12500000E+03 0.0000E+00 0.9000E+01
       -2  1    3    3    0  502 0.87918115E+02 -.32864468E+03 -.40065031E+03 0.52560222E+03 0.32000000E+00 0.0000E+00 0.9000E+01
        1  1    3    3  502    0 0.80023622E+02 -.21957224E+03 -.18642784E+03 0.29895015E+03 0.32000000E+00 0.0000E+00 0.9000E+01
       21  1    1    2  503  501 -.25928863E+02 0.36286998E+02 -.29514121E+02 0.53485494E+02 0.75000000E+00 0.0000E+00 0.9000E+01
#aMCatNLO 2  0  0  2  1 0.15381304D+01 0.00000000D+00  -5  6  0 0.00000000D+00 0.00000000D+00 0.00000000D+00 0.00000000D+00 0.00000000D+00
  <mgrwgt>
 0.6057975002D-03    1    2    0
 0.561962667433799D+03 0.000000000000000D+00 0.000000000000000D+00 0.561962667433799D+03
 0.561962667433799D+03 0.000000000000000D+00 0.000000000000000D+00 -.561962667433799D+03
 0.566031161141475D+03 -.154832722590700D+03 0.529871086649279D+03 0.545297454880443D+01
 0.330278324542530D+03 0.801591202705636D+02 -.317787653152554D+03 -.408570018951740D+02
 0.227615849183594D+03 0.746736023201362D+02 -.212083433496726D+03 0.354040273463696D+02
 0.000000000000000D+00 -.000000000000000D+00 0.000000000000000D+00 0.000000000000000D+00
 0.591350269851062D+03 0.000000000000000D+00 0.000000000000000D+00 0.591350269851062D+03
 0.579584307946118D+03 0.000000000000000D+00 0.000000000000000D+00 -.579584307946118D+03
 0.545797253505857D+03 -.142012873025113D+03 0.511929927722789D+03 0.545297454880443D+01
 0.342647591677953D+03 0.879182393046529D+02 -.328646406760227D+03 -.408570018951740D+02
 0.236365010091906D+03 0.800234969071625D+02 -.219570518936750D+03 0.354040273463696D+02
 0.461247225214644D+02 -.259288631867027D+02 0.362869979741883D+02 0.117659619049441D+02
0.927311900087D-04 0.000000000000D+00 0.000000000000D+00 0.204961681872D-03 0.641944512718D-06  6 -2 1 25 -2 1 21 2 0.37667721D-01 0.21536016D+00 0.33888131D+06 0.33888131D+06 0.33888131D+06 0.10806577D+01  1  2  1  2  6  2        1 0.605797500206D-03 0.100000000000D+01
  </mgrwgt>
  </event>
  <event>
  7     66 0.18996412E-05 0.31890452E+02 0.75467711E-02 0.91932834E-01
       -2 -1    0    0    0  501 0.00000000E+00 0.00000000E+00 0.74157480E+03 0.74157487E+03 0.32000000E+00 0.0000E+00 0.9000E+01
        1 -1    0    0  503    0 0.00000000E+00 0.00000000E+00 -.67416505E+03 0.67416513E+03 0.32000000E+00 0.0000E+00 0.9000E+01
      -24  2    1    2    0    0 0.62704925E+03 -.15037157E+02 0.17367913E+03 0.65613585E+03 0.83264211E+02 0.0000E+00 0.0000E+00
       25  1    1    2    0    0 -.60188578E+03 -.88345428E+01 0.33391768E+02 0.61569842E+03 0.12500000E+03 0.0000E+00 0.9000E+01
       -2  1    3    3    0  502 0.46374485E+03 -.19927963E+02 0.16464487E+03 0.49250832E+03 0.32000000E+00 0.0000E+00 0.9000E+01
        1  1    3    3  502    0 0.16330440E+03 0.48908062E+01 0.90342638E+01 0.16362753E+03 0.32000000E+00 0.0000E+00 0.9000E+01
       21  1    1    2  503  501 -.25163476E+02 0.23871700E+02 -.13966116E+03 0.14390573E+03 0.75000000E+00 0.0000E+00 0.9000E+01
#aMCatNLO 2  0  0  2  5 0.24783250D+02 0.00000000D+00  -5  6  0 0.00000000D+00 0.00000000D+00 0.00000000D+00 0.00000000D+00 0.00000000D+00
  <mgrwgt>
 0.3899911538D-03    1    2    0
 0.627192352292205D+03 0.000000000000000D+00 0.000000000000000D+00 0.627192352292205D+03
 0.627192352292205D+03 0.000000000000000D+00 0.000000000000000D+00 -.627192352292205D+03
 0.630657027562619D+03 -.614412831472522D+03 0.304943266080682D+01 -.677558845893388D+02
 0.462502637330324D+03 0.454377781385511D+03 -.110379108816808D+02 0.856019032735522D+02
 0.161225039691466D+03 0.160035050087011D+03 0.798847822087395D+01 -.178460186842134D+02
 0.000000000000000D+00 -.000000000000000D+00 0.000000000000000D+00 -.000000000000000D+00
 0.629232026880106D+03 0.000000000000000D+00 0.000000000000000D+00 0.629232026880106D+03
 0.794528212374633D+03 0.000000000000000D+00 0.000000000000000D+00 -.794528212374633D+03
 0.618514668615648D+03 -.601885775084402D+03 -.883454284556381D+01 -.677558845893388D+02
 0.472004478972355D+03 0.463749290023466D+03 -.199283298005907D+02 0.856019032735522D+02
 0.164345006684696D+03 0.163299961020964D+03 0.489117264744530D+01 -.178460186842134D+02
 0.168896084982040D+03 -.251634759600276D+02 0.238716999987092D+02 -.165296185494527D+03
0.179626872667D-03 0.000000000000D+00 0.000000000000D+00 0.322942826168D-04 0.170061879124D-06  6 -2 1 25 -2 1 21 2 0.11408829D+00 0.10371758D+00 0.40770005D+06 0.40770005D+06 0.40770005D+06 0.10748312D+01  1  2  1  2  6  2        1 0.389991153792D-03 0.100000000000D+01
  </mgrwgt>
  </event>
  <event>
  6     66 0.18996412E-05 0.12438240E+02 0.75467711E-02 0.94702858E-01
       -2 -1    0    0    0  501 0.00000000E+00 0.00000000E+00 0.16050597E+03 0.16050629E+03 0.32000000E+00 0.0000E+00 0.9000E+01
        1 -1    0    0  501    0 0.00000000E+00 0.00000000E+00 -.25308758E+04 0.25308758E+04 0.32000000E+00 0.0000E+00 0.9000E+01
      -24  2    1    2    0    0 -.15222894E+03 0.45832918E+03 -.32657849E+03 0.58758856E+03 0.73263319E+02 0.0000E+00 0.0000E+00
       25  1    1    2    0    0 0.15222894E+03 -.45832918E+03 -.20437913E+04 0.21037935E+04 0.12500000E+03 0.0000E+00 0.9000E+01
       -2  1    3    3    0  502 -.12119071E+02 0.37819502E+01 -.64654743E+01 0.14250606E+02 0.32000000E+00 0.0000E+00 0.9000E+01
        1  1    3    3  502    0 -.14010987E+03 0.45454723E+03 -.32011302E+03 0.57333795E+03 0.32000000E+00 0.0000E+00 0.9000E+01
#aMCatNLO 1  0  0  1  4 0.59767388D+01 0.00000000D+00  -5  6  0 0.00000000D+00 0.00000000D+00 0.00000000D+00 0.00000000D+00 0.00000000D+00
  <mgrwgt>
 0.1530192719D-03   10    2    0
 0.637354793912612D+03 0.000000000000000D+00 0.000000000000000D+00 0.637354793912612D+03
 0.637354793912612D+03 0.000000000000000D+00 0.000000000000000D+00 -.637354793912612D+03
 0.641378253934622D+03 0.152228943984556D+03 -.458329179478106D+03 -.403115090851852D+03
 0.180541027582628D+02 -.121166289072505D+02 0.377335013052355D+01 0.128413301149986D+02
 0.615277231132339D+03 -.140112315077305D+03 0.454555829347583D+03 0.390273760736854D+03
 0.000000000000000D+00 -.000000000000000D+00 -.000000000000000D+00 0.000000000000000D+00
 0.641709916990828D+03 0.000000000000000D+00 0.000000000000000D+00 0.641709916990828D+03
 0.639415642954545D+03 0.000000000000000D+00 0.000000000000000D+00 -.639415642954545D+03
 0.639250442654435D+03 0.152286623956500D+03 -.455327504248673D+03 -.403115090851852D+03
 0.180708985917066D+02 -.121150018243420D+02 0.385802379276795D+01 0.128413301149986D+02
 0.617402258088187D+03 -.140056794754713D+03 0.457445116069394D+03 0.390273760736854D+03
 0.640196061104511D+01 -.114827377445053D+00 -.597563561348906D+01 0.229427403628323D+01
0.733061407021D-04 0.000000000000D+00 0.000000000000D+00 0.452600707394D-06 0.000000000000D+00  6 -2 1 25 -2 1 21 0 0.24693253D-01 0.38936553D+00 0.24364768D+06 0.24364768D+06 0.24364768D+06 0.10913010D+01  1  2  2  1  6  1       -2 0.153631516223D-03 0.100000000000D+01
0.296463511133D-04 0.000000000000D+00 -.281514882246D-06 0.452600707394D-06 0.000000000000D+00  6 -2 1 25 -2 1 21 2 0.24693253D-01 0.38936553D+00 0.24364768D+06 0.24364768D+06 0.24364768D+06 0.10913010D+01  1  2  3  1  6  1       -2 0.739946493038D-04 0.100000000000D+01
-.230528910072D-04 0.000000000000D+00 0.000000000000D+00 0.452600707394D-06 0.000000000000D+00  6 -2 1 25 -2 1 21 2 0.24693253D-01 0.38936553D+00 0.24364768D+06 0.24364768D+06 0.24364768D+06 0.10913010D+01  1  2 15  1  6  1       -2 -.575379607086D-04 0.100000000000D+01
-.513116925291D-05 0.000000000000D+00 0.000000000000D+00 0.452600707394D-06 0.000000000000D+00  6 -2 1 25 -2 1 21 2 0.24693253D-01 0.38936553D+00 0.24364768D+06 0.24364768D+06 0.24364768D+06 0.10913010D+01  1  2  4  1  6  1       -2 -.128069409937D-04 0.100000000000D+01
-.107043897488D-01 0.000000000000D+00 -.113472642961D-02 0.452600707394D-06 0.000000000000D+00  6 -2 1 25 -2 1 21 2 0.24957813D-01 0.38936553D+00 0.24364768D+06 0.24364768D+06 0.24364768D+06 0.10913010D+01  1  2  5  1  6  1       -2 -.262317053079D-01 0.100000000000D+01
0.107159383436D-01 0.000000000000D+00 0.113466199744D-02 0.452600707394D-06 0.000000000000D+00  6 -2 1 25 -2 1 21 2 0.24693253D-01 0.38936553D+00 0.24364768D+06 0.24364768D+06 0.24364768D+06 0.10913010D+01  1  2  6  1  6  1       -2 0.267460267426D-01 0.100000000000D+01
0.475871515083D-05 0.000000000000D+00 0.000000000000D+00 0.452600707394D-06 0.798646560284D-07  6 -2 1 25 -2 1 21 2 0.24861985D-01 0.39062452D+00 0.24662207D+06 0.24662207D+06 0.24662207D+06 0.10909038D+01  1  2 11  1  6  1       -2 0.115701681740D-04 0.100000000000D+01
0.252293844294D-05 0.000000000000D+00 0.000000000000D+00 0.452600707394D-06 0.000000000000D+00  6 21 1 25 -2 1 2 2 0.24901705D-01 0.38936553D+00 0.24662207D+06 0.24662207D+06 0.24662207D+06 0.10909038D+01  1  2 12  5  6  1       -2 0.745636079905D-04 0.100000000000D+01
-.210036254143D-04 0.000000000000D+00 -.223155911267D-05 0.452600707394D-06 0.000000000000D+00  6 21 1 25 -2 1 2 2 0.24957813D-01 0.38936553D+00 0.24364768D+06 0.24364768D+06 0.24364768D+06 0.10913010D+01  1  2  5  5  6  1       -2 -.619117690424D-03 0.100000000000D+01
0.492161307292D-06 0.000000000000D+00 0.000000000000D+00 0.452600707394D-06 0.114627434045D-09  6 21 1 25 -2 1 2 2 0.24861985D-01 0.39062452D+00 0.24662207D+06 0.24662207D+06 0.24662207D+06 0.10909038D+01  1  2 11  5  6  1       -2 0.144004876261D-04 0.100000000000D+01
  </mgrwgt>
  </event>
  <event>
  6     66 0.18996412E-05 0.22488261E+02 0.75467711E-02 0.93218072E-01
       -2 -1    0    0    0  501 0.00000000E+00 0.00000000E+00 0.31576303E+03 0.31576319E+03 0.32000000E+00 0.0000E+00 0.9000E+01
        1 -1    0    0  501    0 0.00000000E+00 0.00000000E+00 -.99055067E+03 0.99055072E+03 0.32000000E+00 0.0000E+00 0.9000E+01
      -24  2    1    2    0    0 -.41943343E+03 -.34982040E+03 -.39415783E+03 0.67967461E+03 0.91095878E+02 0.0000E+00 0.0000E+00
       25  1    1    2    0    0 0.41943343E+03 0.34982040E+03 -.28062981E+03 0.62663930E+03 0.12500000E+03 0.0000E+00 0.9000E+01
       -2  1    3    3    0  502 -.38864905E+03 -.34796527E+03 -.36098984E+03 0.63438292E+03 0.32000000E+00 0.0000E+00 0.9000E+01
        1  1    3    3  502    0 -.30784379E+02 -.18551323E+01 -.33167986E+02 0.45291690E+02 0.32000000E+00 0.0000E+00 0.9000E+01
#aMCatNLO 1  0  0  2  1 0.21349019D+02 0.00000000D+00  -5  6  0 0.00000000D+00 0.00000000D+00 0.00000000D+00 0.00000000D+00 0.00000000D+00
  <mgrwgt>
 0.3713474499D-03    9    2    0
 0.559266855730728D+03 0.000000000000000D+00 0.000000000000000D+00 0.559266855730728D+03
 0.559266855730728D+03 0.000000000000000D+00 0.000000000000000D+00 -.559266855730728D+03
 0.562541922561767D+03 0.419433435602334D+03 0.349820404088483D+03 0.502960497622133D+02
 0.523112091978086D+03 -.388653473914904D+03 -.347969537822631D+03 -.388836564004862D+02
 0.328796969216035D+02 -.307799616874298D+02 -.185086626585205D+01 -.114123933617271D+02
 0.000000000000000D+00 -.000000000000000D+00 0.000000000000000D+00 -.000000000000000D+00
 0.567108323040984D+03 0.000000000000000D+00 0.000000000000000D+00 0.567108323040984D+03
 0.574091061486352D+03 0.000000000000000D+00 0.000000000000000D+00 -.574091061486352D+03
 0.567625373438152D+03 0.429458719708597D+03 0.345845456837835D+03 0.502960497622133D+02
 0.518759478027139D+03 -.379411427601487D+03 -.351633937374253D+03 -.388836564004862D+02
 0.323525816707647D+02 -.302013109619115D+02 -.208029678234458D+01 -.114123933617271D+02
 0.224619513912812D+02 -.198459811451989D+02 0.786877731876276D+01 -.698273844536756D+01
0.785511633793D-05 0.000000000000D+00 0.000000000000D+00 0.622263323297D-06 0.000000000000D+00  6 -2 1 25 -2 1 21 0 0.48578944D-01 0.15239243D+00 0.30957510D+06 0.30957510D+06 0.30957510D+06 0.10835438D+01  1  2  2  2  6  2        1 0.532876102411D-04 0.100000000000D+01
0.248398314153D-05 0.000000000000D+00 -.301657150373D-07 0.622263323297D-06 0.000000000000D+00  6 -2 1 25 -2 1 21 2 0.48578944D-01 0.15239243D+00 0.30957510D+06 0.30957510D+06 0.30957510D+06 0.10835438D+01  1  2  3  2  6  2        1 0.197840506691D-04 0.100000000000D+01
-.217009715812D-05 0.000000000000D+00 0.000000000000D+00 0.622263323297D-06 0.000000000000D+00  6 -2 1 25 -2 1 21 2 0.48578944D-01 0.15239243D+00 0.30957510D+06 0.30957510D+06 0.30957510D+06 0.10835438D+01  1  2 15  2  6  2        1 -.172840593864D-04 0.100000000000D+01
0.220046117460D-04 0.000000000000D+00 0.000000000000D+00 0.622263323297D-06 0.000000000000D+00  6 -2 1 25 -2 1 21 2 0.48578944D-01 0.15747836D+00 0.32166747D+06 0.32166747D+06 0.32166747D+06 0.10823183D+01  1  2 12  2  6  2        1 0.164755712173D-03 0.100000000000D+01
-.578546516197D-07 0.000000000000D+00 0.000000000000D+00 0.622263323297D-06 0.000000000000D+00  6 -2 1 25 -2 1 21 2 0.48578944D-01 0.15239243D+00 0.30957510D+06 0.30957510D+06 0.30957510D+06 0.10835438D+01  1  2  4  2  6  2        1 -.460791919215D-06 0.100000000000D+01
-.321182475749D-03 0.000000000000D+00 -.432876813011D-04 0.622263323297D-06 0.000000000000D+00  6 -2 1 25 -2 1 21 2 0.48578944D-01 0.15787740D+00 0.30957510D+06 0.30957510D+06 0.30957510D+06 0.10835438D+01  1  2  5  2  6  2        1 -.240263963506D-02 0.100000000000D+01
0.322538509488D-03 0.000000000000D+00 0.432606337224D-04 0.622263323297D-06 0.000000000000D+00  6 -2 1 25 -2 1 21 2 0.48578944D-01 0.15239243D+00 0.30957510D+06 0.30957510D+06 0.30957510D+06 0.10835438D+01  1  2  6  2  6  2        1 0.256890560477D-02 0.100000000000D+01
0.437009615957D-06 0.000000000000D+00 0.000000000000D+00 0.622263323297D-06 0.000000000000D+00  6 -2 21 25 -2 1 -1 2 0.48578944D-01 0.15747836D+00 0.32166747D+06 0.32166747D+06 0.32166747D+06 0.10823183D+01  1  2 12  6  6  2        1 0.420458954900D-05 0.100000000000D+01
-.200147519765D-05 0.000000000000D+00 -.272366871873D-06 0.622263323297D-06 0.000000000000D+00  6 -2 21 25 -2 1 -1 2 0.48578944D-01 0.15787740D+00 0.30957510D+06 0.30957510D+06 0.30957510D+06 0.10835438D+01  1  2  5  6  6  2        1 -.192056311671D-04 0.100000000000D+01
  </mgrwgt>
  </event>
  <event>
  7     66 0.18996412E-05 0.28744918E+02 0.75467711E-02 0.94118765E-01
       -2 -1    0    0    0  501 0.00000000E+00 0.00000000E+00 0.43377603E+03 0.43377614E+03 0.32000000E+00 0.0000E+00 0.9000E+01
        1 -1    0    0  503    0 0.00000000E+00 0.00000000E+00 -.10566060E+04 0.10566060E+04 0.32000000E+00 0.0000E+00 0.9000E+01
      -24  2    1    2    0    0 -.48723379E+03 0.10283124E+03 0.14152785E+03 0.52422331E+03 0.82516125E+02 0.0000E+00 0.0000E+00
       25  1    1    2    0    0 0.49299043E+03 -.12047384E+03 -.57955298E+03 0.78042307E+03 0.12500000E+03 0.0000E+00 0.9000E+01
       -2  1    3    3    0  502 -.40099289E+03 0.11616162E+03 0.11844662E+03 0.43395683E+03 0.32000000E+00 0.0000E+00 0.9000E+01
        1  1    3    3  502    0 -.86240897E+02 -.13330386E+02 0.23081238E+02 0.90266480E+02 0.32000000E+00 0.0000E+00 0.9000E+01
       21  1    1    2  503  501 -.57566387E+01 0.17642602E+02 -.18480485E+03 0.18573582E+03 0.75000000E+00 0.0000E+00 0.9000E+01
#aMCatNLO 2  0  0  2  5 0.14204029D+02 0.00000000D+00  -5  6  0 0.00000000D+00 0.00000000D+00 0.00000000D+00 0.00000000D+00 0.00000000D+00
  <mgrwgt>
 0.7888067012D-03    1    2    0
 0.614388262145105D+03 0.000000000000000D+00 0.000000000000000D+00 0.614388262145105D+03
 0.614388262145105D+03 0.000000000000000D+00 0.000000000000000D+00 -.614388262145105D+03
 0.617975606543553D+03 0.490086173850590D+03 -.111573050060669D+03 -.337099164910744D+03
 0.506526596155521D+03 -.403362054760097D+03 0.123409923454914D+03 0.280425099064730D+03
 0.104274321591136D+03 -.867241190904931D+02 -.118368733942444D+02 0.566740658460139D+02
 0.000000000000000D+00 -.000000000000000D+00 0.000000000000000D+00 -.000000000000000D+00
 0.615117342491231D+03 0.000000000000000D+00 0.000000000000000D+00 0.615117342491231D+03
 0.745108046425742D+03 0.000000000000000D+00 0.000000000000000D+00 -.745108046425742D+03
 0.621944013884709D+03 0.492990429499759D+03 -.120473838841241D+03 -.337099164910744D+03
 0.502922766404109D+03 -.400997628094478D+03 0.116163570213304D+03 0.280425099064730D+03
 0.104049875521279D+03 -.862361626807756D+02 -.133323329755190D+02 0.566740658460139D+02
 0.131308733106875D+03 -.575663872450553D+01 0.176426016034556D+02 -.129990703934512D+03
0.210431819228D-03 0.000000000000D+00 0.000000000000D+00 0.217868675579D-04 0.406456997309D-06  6 -2 1 25 -2 1 21 2 0.66734670D-01 0.16255450D+00 0.27351213D+06 0.27351213D+06 0.27351213D+06 0.10875345D+01  1  2  1  2  6  2        1 0.788806701177D-03 0.100000000000D+01
  </mgrwgt>
  </event>
  <event>
  6     66 0.18996412E-05 0.38374959E+02 0.75467711E-02 0.94016235E-01
       -2 -1    0    0    0  501 0.00000000E+00 0.00000000E+00 0.37060575E+03 0.37060588E+03 0.32000000E+00 0.0000E+00 0.9000E+01
        1 -1    0    0  501    0 -.00000000E+00 -.00000000E+00 -.76443591E+03 0.76443598E+03 0.32000000E+00 0.0000E+00 0.9000E+01
       25  1    1    2    0    0 0.99926903E+02 0.49233064E+03 -.15966966E+03 0.54175109E+03 0.12500000E+03 0.0000E+00 0.9000E+01
       -2  1    1    2    0  502 -.60789253E+02 -.38304512E+03 -.19140597E+03 0.43249884E+03 0.32000000E+00 0.0000E+00 0.9000E+01
        1  1    1    2  503    0 -.44854584E+02 -.12529409E+03 -.23576273E+02 0.13515356E+03 0.32000000E+00 0.0000E+00 0.9000E+01
       21  1    1    2  502  503 0.57169344E+01 0.16008575E+02 -.19178266E+02 0.25638374E+02 0.75000000E+00 0.0000E+00 0.9000E+01
#aMCatNLO 2  0  0  5  4 0.65377545D+01 0.00000000D+00  -5  6  0 0.00000000D+00 0.00000000D+00 0.00000000D+00 0.00000000D+00 0.00000000D+00
  <mgrwgt>
 0.1421709063D+00    1    2    0
 0.532263522993042D+03 0.000000000000000D+00 0.000000000000000D+00 0.532263522993042D+03
 0.532263522993042D+03 -.000000000000000D+00 -.000000000000000D+00 -.532263522993042D+03
 0.537079240879653D+03 0.106471245007171D+03 0.510604646769352D+03 0.278546166377007D+02
 0.376854943218649D+03 -.560446127928902D+02 -.369841954490105D+03 -.457774868703477D+02
 0.150592861887782D+03 -.504266322142811D+02 -.140762692279246D+03 0.179228702326470D+02
 0.000000000000000D+00 0.000000000000000D+00 0.000000000000000D+00 -.000000000000000D+00
 0.532263522993042D+03 0.000000000000000D+00 0.000000000000000D+00 0.532263522993042D+03
 0.532263522993042D+03 -.000000000000000D+00 -.000000000000000D+00 -.532263522993042D+03
 0.518467768857793D+03 0.998901054773368D+02 0.492233820128612D+03 0.301937161293135D+02
 0.390490459267820D+03 -.608288688371536D+02 -.383196896745262D+03 -.440770441384850D+02
 0.135226931680258D+03 -.448101310727067D+02 -.125129836123030D+03 0.249178513665931D+02
 0.203418861802129D+02 0.574889443252346D+01 0.160929127396800D+02 -.110345233574216D+02
0.158747171157D-01 0.000000000000D+00 0.000000000000D+00 0.403509875129D-05 0.340027827360D-05  6 -2 1 25 -2 1 21 2 0.57016284D-01 0.11760554D+00 0.27856385D+06 0.27856385D+06 0.27856385D+06 0.10869420D+01  1  2  1  4  6  5        1 0.142170906321D+00 0.100000000000D+01
  </mgrwgt>
  </event>
  <event>
  7     66 0.18996412E-05 0.39479358E+02 0.75467711E-02 0.91217844E-01
       21 -1    0    0  503  501 0.00000000E+00 0.00000000E+00 0.72583005E+03 0.72583044E+03 0.75000000E+00 0.0000E+00 0.9000E+01
        1 -1    0    0  501    0 0.00000000E+00 0.00000000E+00 -.11390153E+04 0.11390153E+04 0.32000000E+00 0.0000E+00 0.9000E+01
      -24  2    1    2    0    0 0.65070165E+03 0.16240474E+03 -.28742268E+03 0.73466216E+03 0.85608195E+02 0.0000E+00 0.0000E+00
       25  1    1    2    0    0 -.61781586E+03 -.12018364E+03 -.46137111E+03 0.79033464E+03 0.12500000E+03 0.0000E+00 0.9000E+01
       -2  1    3    3    0  502 0.58568891E+03 0.15113573E+03 -.22978694E+03 0.64705151E+03 0.32000000E+00 0.0000E+00 0.9000E+01
        1  1    3    3  502    0 0.65012735E+02 0.11269008E+02 -.57635739E+02 0.87610656E+02 0.32000000E+00 0.0000E+00 0.9000E+01
        2  1    1    2  503    0 -.32885785E+02 -.42221102E+02 0.33560856E+03 0.33984895E+03 0.32000000E+00 0.0000E+00 0.9000E+01
#aMCatNLO 2  0  0  1  5 0.35313833D+02 0.00000000D+00  -5  6  0 0.00000000D+00 0.00000000D+00 0.00000000D+00 0.00000000D+00 0.00000000D+00
  <mgrwgt>
 0.3961966739D-04    1    2    0
 0.663712857756193D+03 0.000000000000000D+00 0.000000000000000D+00 0.663712857756193D+03
 0.663712857756193D+03 0.000000000000000D+00 0.000000000000000D+00 -.663712857756193D+03
 0.666837792501533D+03 -.634086107393794D+03 -.141072528347908D+03 -.841486284144416D+02
 0.594425949847017D+03 0.570742779173259D+03 0.131939436665676D+03 0.100930049665385D+03
 0.661619731638362D+02 0.633433282205357D+02 0.913309168223205D+01 -.167814212509433D+02
 0.000000000000000D+00 -.000000000000000D+00 -.000000000000000D+00 0.000000000000000D+00
 0.124228892002591D+04 0.000000000000000D+00 0.000000000000000D+00 0.124228892002591D+04
 0.665490763721971D+03 0.000000000000000D+00 0.000000000000000D+00 -.665490763721971D+03
 0.647183544753276D+03 -.617815864392056D+03 -.120183637159473D+03 -.841486284144416D+02
 0.613245058441576D+03 0.585696189908627D+03 0.151137685254447D+03 0.100930049665385D+03
 0.680754903310211D+02 0.650054596403809D+02 0.112670538096764D+02 -.167814212509433D+02
 0.579275590222005D+03 -.328857851569520D+02 -.422211019046504D+02 0.576798156303936D+03
0.476087755511D-05 0.000000000000D+00 0.000000000000D+00 0.533028981105D-05 0.932193932851D-09  6 21 1 25 -2 1 2 2 0.11166619D+00 0.17523314D+00 0.46653261D+06 0.46653261D+06 0.46653261D+06 0.10706434D+01  1  2  1  5  6  1       -2 0.396196673852D-04 0.100000000000D+01
  </mgrwgt>
  </event>
  <event>
  7     66 0.18996412E-05 0.44328069E+02 0.75467711E-02 0.92943484E-01
       -2 -1    0    0    0  501 0.00000000E+00 0.00000000E+00 0.10827751E+04 0.10827751E+04 0.32000000E+00 0.0000E+00 0.9000E+01
        1 -1    0    0  503    0 0.00000000E+00 0.00000000E+00 -.43610005E+03 0.43610017E+03 0.32000000E+00 0.0000E+00 0.9000E+01
      -24  2    1    2    0    0 -.53537553E+03 -.13878599E+03 0.67187140E+03 0.87396817E+03 0.80750642E+02 0.0000E+00 0.0000E+00
       25  1    1    2    0    0 0.49883414E+03 0.18525620E+03 0.50412503E+02 0.54892784E+03 0.12500000E+03 0.0000E+00 0.9000E+01
       -2  1    3    3    0  502 -.23455104E+03 -.96256520E+02 0.27304424E+03 0.37260270E+03 0.32000000E+00 0.0000E+00 0.9000E+01
        1  1    3    3  502    0 -.30082449E+03 -.42529466E+02 0.39882716E+03 0.50136547E+03 0.32000000E+00 0.0000E+00 0.9000E+01
       21  1    1    2  503  501 0.36541395E+02 -.46470213E+02 -.75608892E+02 0.95979275E+02 0.75000000E+00 0.0000E+00 0.9000E+01
#aMCatNLO 2  0  0  2  5 0.14204029D+02 0.00000000D+00  -5  6  0 0.00000000D+00 0.00000000D+00 0.00000000D+00 0.00000000D+00 0.00000000D+00
  <mgrwgt>
 0.2618685508D-02    1    2    0
 0.612258984655313D+03 0.000000000000000D+00 0.000000000000000D+00 0.612258984655313D+03
 0.612258984655313D+03 0.000000000000000D+00 0.000000000000000D+00 -.612258984655313D+03
 0.615976502110731D+03 0.517077381004839D+03 0.162056003822440D+03 -.264897876229405D+03
 0.268563061255510D+03 -.226495170111347D+03 -.106500807595391D+03 0.973839502623124D+02
 0.339978405944384D+03 -.290582210893492D+03 -.555551962270490D+02 0.167513925967093D+03
 0.000000000000000D+00 0.000000000000000D+00 -.000000000000000D+00 -.000000000000000D+00
 0.618791883949837D+03 0.000000000000000D+00 0.000000000000000D+00 0.618791883949837D+03
 0.763095051786666D+03 0.000000000000000D+00 0.000000000000000D+00 -.763095051786666D+03
 0.607413565137821D+03 0.498834136166322D+03 0.185256197947027D+03 -.264897876229405D+03
 0.271593109586056D+03 -.234550001958936D+03 -.962573632871488D+02 0.973839502623124D+02
 0.346937455889917D+03 -.300825529509841D+03 -.425286221453618D+02 0.167513925967093D+03
 0.155942805122707D+03 0.365413953024551D+02 -.464702125145166D+02 -.144303167836829D+03
0.175477654039D-02 0.000000000000D+00 0.000000000000D+00 0.177914879735D-03 0.323012262071D-06  6 -2 1 25 -2 1 21 2 0.16658055D+00 0.67092231D-01 0.33818572D+06 0.33818572D+06 0.33818572D+06 0.10807230D+01  1  2  1  2  6  2        1 0.261868550819D-02 0.100000000000D+01
  </mgrwgt>
  </event>
</LesHouchesEvents>
