<event>
 5    0  0.1911311E+001  0.3794510E+03  0.7546771E-02  0.1051137E+00
         21   -1    0    0  504  501  0.00000000000E+00  0.00000000000E+00  0.33245307482E+03  0.33245307482E+03  0.00000000000E+00 0. -1.
         21   -1    0    0  501  502 -0.00000000000E+00 -0.00000000000E+00 -0.10386830235E+04  0.10386830235E+04  0.00000000000E+00 0. -1.
         25    1    1    2    0    0 -0.10885498443E+03 -0.32580479282E+03 -0.37187870364E+03  0.52145655704E+03  0.12500000000E+03 0.  0.
         21    1    1    2  503  502 -0.19281170901E+03  0.41817698820E+03 -0.24586420368E+03  0.52201298379E+03  0.00000000000E+00 0. -1.
         21    1    1    2  504  503  0.30166669344E+03 -0.92372195378E+02 -0.88487041356E+02  0.32766655749E+03  0.00000000000E+00 0. -1.
<mgrwt>
<rscale>  4 0.37945103E+03</rscale>
<asrwt>0</asrwt>
<pdfrwt beam="1">  1       21 0.51146628E-01 0.37945103E+03</pdfrwt>
<pdfrwt beam="2">  1       21 0.15979738E+00 0.37945103E+03</pdfrwt>
<totfact> 0.79677338E+02</totfact>
</mgrwt>
</event>
<event>
 5    0  0.1911311E+001  0.2335010E+03  0.7546771E-02  0.1124200E+00
         21   -1    0    0  504  501  0.00000000000E+00  0.00000000000E+00  0.33006900632E+03  0.33006900632E+03  0.00000000000E+00 0.  1.
         21   -1    0    0  503  502 -0.00000000000E+00 -0.00000000000E+00 -0.41088361272E+03  0.41088361272E+03  0.00000000000E+00 0.  1.
         25    1    1    2    0    0  0.20755939260E+03 -0.20010813945E+02 -0.31269041367E+03  0.39608285615E+03  0.12500000000E+03 0.  0.
         21    1    1    2  503  501 -0.79872559283E+02 -0.15746596421E+02  0.43514598756E+01  0.81526168979E+02  0.00000000000E+00 0.  1.
         21    1    1    2  504  502 -0.12768683332E+03  0.35757410366E+02  0.22752434739E+03  0.26334359391E+03  0.00000000000E+00 0.  1.
<mgrwt>
<rscale>  4 0.23350098E+03</rscale>
<asrwt>0</asrwt>
<pdfrwt beam="1">  1       21 0.50779847E-01 0.23350098E+03</pdfrwt>
<pdfrwt beam="2">  1       21 0.63212863E-01 0.23350098E+03</pdfrwt>
<totfact> 0.83120136E+03</totfact>
</mgrwt>
</event>
<event>
 5    0  0.1911311E+001  0.2702922E+03  0.7546771E-02  0.1101112E+00
         21   -1    0    0  503  501  0.00000000000E+00  0.00000000000E+00  0.50886599151E+03  0.50886599151E+03  0.00000000000E+00 0. -1.
         21   -1    0    0  504  502 -0.00000000000E+00 -0.00000000000E+00 -0.35131802731E+03  0.35131802731E+03  0.00000000000E+00 0. -1.
         25    1    1    2    0    0 -0.29663082903E+02 -0.21333208272E+03  0.21301148799E+03  0.32770317365E+03  0.12500000000E+03 0.  0.
         21    1    1    2  503  502  0.17502334689E+02  0.24367891799E+03 -0.24154188355E+03  0.34355236617E+03  0.00000000000E+00 0. -1.
         21    1    1    2  504  501  0.12160748214E+02 -0.30346835272E+02  0.18607835976E+03  0.18892847900E+03  0.00000000000E+00 0. -1.
<mgrwt>
<rscale>  4 0.27029219E+03</rscale>
<asrwt>0</asrwt>
<pdfrwt beam="1">  1       21 0.78287076E-01 0.27029219E+03</pdfrwt>
<pdfrwt beam="2">  1       21 0.54048927E-01 0.27029219E+03</pdfrwt>
<totfact> 0.44309432E+03</totfact>
</mgrwt>
</event>
<event>
 5    0  0.1911311E+001  0.3238473E+03  0.7546771E-02  0.1073892E+00
         21   -1    0    0  504  501  0.00000000000E+00  0.00000000000E+00  0.79741701895E+03  0.79741701895E+03  0.00000000000E+00 0.  1.
         21   -1    0    0  503  502 -0.00000000000E+00 -0.00000000000E+00 -0.23473863285E+03  0.23473863285E+03  0.00000000000E+00 0.  1.
         25    1    1    2    0    0  0.14962845871E+03  0.21714357353E+03  0.19498175920E+03  0.35097420646E+03  0.12500000000E+03 0.  0.
         21    1    1    2  503  501 -0.63374057813E+01  0.72058549342E+02 -0.93532214954E+02  0.11824073951E+03  0.00000000000E+00 0.  1.
         21    1    1    2  504  502 -0.14329105292E+03 -0.28920212287E+03  0.46122884185E+03  0.56294070583E+03  0.00000000000E+00 0.  1.
<mgrwt>
<rscale>  4 0.32384732E+03</rscale>
<asrwt>0</asrwt>
<pdfrwt beam="1">  1       21 0.12267954E+00 0.32384732E+03</pdfrwt>
<pdfrwt beam="2">  1       21 0.36113636E-01 0.32384732E+03</pdfrwt>
<totfact> 0.33873195E+03</totfact>
</mgrwt>
</event>
