<event>
 5    0  0.1324511E+000  0.2432930E+03  0.7546771E-02  0.1117618E+00
         21   -1    0    0  504  501  0.00000000000E+00  0.00000000000E+00  0.13695081531E+03  0.13695081531E+03  0.00000000000E+00 0. -1.
         21   -1    0    0  501  502 -0.00000000000E+00 -0.00000000000E+00 -0.96510967435E+03  0.96510967435E+03  0.00000000000E+00 0. -1.
         25    1    1    2    0    0 -0.30086969304E+03  0.81226569775E+02 -0.28477755901E+03  0.44027671520E+03  0.12500000000E+03 0.  0.
         21    1    1    2  503  502  0.18663758641E+03 -0.16633641209E+01 -0.46717791647E+03  0.50308206197E+03  0.00000000000E+00 0. -1.
         21    1    1    2  504  503  0.11423210663E+03 -0.79563205654E+02 -0.76203383554E+02  0.15870171248E+03  0.00000000000E+00 0. -1.
<mgrwt>
<rscale>  4 0.24329301E+03</rscale>
<asrwt>0</asrwt>
<pdfrwt beam="1">  1       21 0.21069357E-01 0.24329301E+03</pdfrwt>
<pdfrwt beam="2">  1       21 0.14847841E+00 0.24329301E+03</pdfrwt>
<totfact> 0.61907396E+03</totfact>
</mgrwt>
</event>
<event>
 5    0  0.1324511E+000  0.2495180E+03  0.7546771E-02  0.1113610E+00
         21   -1    0    0  504  501  0.00000000000E+00  0.00000000000E+00  0.10767675050E+03  0.10767675050E+03  0.00000000000E+00 0. -1.
         21   -1    0    0  501  502 -0.00000000000E+00 -0.00000000000E+00 -0.78145260646E+03  0.78145260646E+03  0.00000000000E+00 0. -1.
         25    1    1    2    0    0 -0.10130980043E+03 -0.19071063894E+03 -0.61259601319E+03  0.66146284767E+03  0.12500000000E+03 0.  0.
         21    1    1    2  503  502  0.83412708760E+02  0.14331216608E+03 -0.61901004005E+02  0.17699658535E+03  0.00000000000E+00 0. -1.
         21    1    1    2  504  503  0.17897091672E+02  0.47398472852E+02  0.72116123784E+00  0.50669923944E+02  0.00000000000E+00 0. -1.
<mgrwt>
<rscale>  4 0.24951798E+03</rscale>
<asrwt>0</asrwt>
<pdfrwt beam="1">  1       21 0.16565655E-01 0.24951798E+03</pdfrwt>
<pdfrwt beam="2">  1       21 0.12022347E+00 0.24951798E+03</pdfrwt>
<totfact> 0.16621828E+04</totfact>
</mgrwt>
</event>
<event>
 5    0  0.1324511E+000  0.3370174E+03  0.7546771E-02  0.1068073E+00
         21   -1    0    0  504  501  0.00000000000E+00  0.00000000000E+00  0.15675554142E+03  0.15675554142E+03  0.00000000000E+00 0. -1.
         21   -1    0    0  501  502 -0.00000000000E+00 -0.00000000000E+00 -0.91965490635E+03  0.91965490635E+03  0.00000000000E+00 0. -1.
         25    1    1    2    0    0  0.22437184403E+03  0.21820397856E+03 -0.65023099272E+03  0.73238039607E+03  0.12500000000E+03 0.  0.
         21    1    1    2  503  502 -0.19394238394E+03 -0.16943402540E+03 -0.12337471351E+03  0.28555709970E+03  0.00000000000E+00 0. -1.
         21    1    1    2  504  503 -0.30429460087E+02 -0.48769953156E+02  0.10706341307E+02  0.58472952006E+02  0.00000000000E+00 0. -1.
<mgrwt>
<rscale>  4 0.33701736E+03</rscale>
<asrwt>0</asrwt>
<pdfrwt beam="1">  1       21 0.24116238E-01 0.33701736E+03</pdfrwt>
<pdfrwt beam="2">  1       21 0.14148537E+00 0.33701736E+03</pdfrwt>
<totfact> 0.51590939E+03</totfact>
</mgrwt>
</event>
<event>
 5    0  0.1324511E+000  0.3115182E+03  0.7546771E-02  0.1079620E+00
         21   -1    0    0  504  501  0.00000000000E+00  0.00000000000E+00  0.66672488807E+03  0.66672488807E+03  0.00000000000E+00 0. -1.
         21   -1    0    0  501  502 -0.00000000000E+00 -0.00000000000E+00 -0.38521409957E+03  0.38521409957E+03  0.00000000000E+00 0.  1.
         25    1    1    2    0    0  0.26676506810E+03  0.10126694317E+03 -0.27911539808E+03  0.41826905311E+03  0.12500000000E+03 0.  0.
         21    1    1    2  503  502 -0.11334482118E+03 -0.78051265487E+02  0.30544546439E+03  0.33501638803E+03  0.00000000000E+00 0. -1.
         21    1    1    2  504  503 -0.15342024692E+03 -0.23215677684E+02  0.25518072220E+03  0.29865354650E+03  0.00000000000E+00 0. -1.
<mgrwt>
<rscale>  4 0.31151821E+03</rscale>
<asrwt>0</asrwt>
<pdfrwt beam="1">  1       21 0.10257306E+00 0.31151821E+03</pdfrwt>
<pdfrwt beam="2">  1       21 0.59263708E-01 0.31151821E+03</pdfrwt>
<totfact> 0.18861087E+03</totfact>
</mgrwt>
</event>
<event>
 5    0  0.1324511E+000  0.2229193E+03  0.7546771E-02  0.1131725E+00
         21   -1    0    0  504  501  0.00000000000E+00  0.00000000000E+00  0.74472152686E+02  0.74472152686E+02  0.00000000000E+00 0.  1.
         21   -1    0    0  501  502 -0.00000000000E+00 -0.00000000000E+00 -0.93406507129E+03  0.93406507129E+03  0.00000000000E+00 0.  1.
         25    1    1    2    0    0  0.23391894521E+02 -0.20791177269E+03 -0.58448884790E+03  0.63326668890E+03  0.12500000000E+03 0.  0.
         21    1    1    2  503  502 -0.73928017647E+02  0.57118619410E+02 -0.12925409467E+03  0.15948200358E+03  0.00000000000E+00 0.  1.
         21    1    1    2  504  503  0.50536123126E+02  0.15079315328E+03 -0.14584997604E+03  0.21578853150E+03  0.00000000000E+00 0.  1.
<mgrwt>
<rscale>  4 0.22291928E+03</rscale>
<asrwt>0</asrwt>
<pdfrwt beam="1">  1       21 0.11457254E-01 0.22291928E+03</pdfrwt>
<pdfrwt beam="2">  1       21 0.14370232E+00 0.22291928E+03</pdfrwt>
<totfact> 0.20908467E+04</totfact>
</mgrwt>
</event>
<event>
 5    0  0.1324511E+000  0.2484516E+03  0.7546771E-02  0.1114287E+00
         21   -1    0    0  504  501  0.00000000000E+00  0.00000000000E+00  0.10935923819E+04  0.10935923819E+04  0.00000000000E+00 0.  1.
         21   -1    0    0  501  502 -0.00000000000E+00 -0.00000000000E+00 -0.94007540044E+02  0.94007540044E+02  0.00000000000E+00 0. -1.
         25    1    1    2    0    0  0.15932598373E+03 -0.14393891303E+03  0.11073025395E+03  0.27200986915E+03  0.12500000000E+03 0.  0.
         21    1    1    2  503  502 -0.14641797430E+03  0.11121812372E+03  0.76933630834E+03  0.79100319188E+03  0.00000000000E+00 0.  1.
         21    1    1    2  504  503 -0.12908009432E+02  0.32720789309E+02  0.11951827954E+03  0.12458686088E+03  0.00000000000E+00 0. -1.
<mgrwt>
<rscale>  4 0.24845156E+03</rscale>
<asrwt>0</asrwt>
<pdfrwt beam="1">  1       21 0.16824497E+00 0.24845156E+03</pdfrwt>
<pdfrwt beam="2">  1       21 0.14462699E-01 0.24845156E+03</pdfrwt>
<totfact> 0.88393921E+03</totfact>
</mgrwt>
</event>
<event>
 5    0  0.1324511E+000  0.3921412E+03  0.7546771E-02  0.1046535E+00
         21   -1    0    0  504  501  0.00000000000E+00  0.00000000000E+00  0.66766694830E+03  0.66766694830E+03  0.00000000000E+00 0.  1.
         21   -1    0    0  501  502 -0.00000000000E+00 -0.00000000000E+00 -0.28283348827E+03  0.28283348827E+03  0.00000000000E+00 0.  1.
         25    1    1    2    0    0 -0.16936649963E+03  0.33085450383E+03  0.40614479562E+03  0.56456027926E+03  0.12500000000E+03 0.  0.
         21    1    1    2  503  502  0.15552463166E+03 -0.29375562418E+03  0.14288740351E+02  0.33269271993E+03  0.00000000000E+00 0.  1.
         21    1    1    2  504  503  0.13841867969E+02 -0.37098879650E+02 -0.35600075949E+02  0.53247437382E+02  0.00000000000E+00 0. -1.
<mgrwt>
<rscale>  4 0.39214119E+03</rscale>
<asrwt>0</asrwt>
<pdfrwt beam="1">  1       21 0.10271799E+00 0.39214119E+03</pdfrwt>
<pdfrwt beam="2">  1       21 0.43512845E-01 0.39214119E+03</pdfrwt>
<totfact> 0.34820662E+03</totfact>
</mgrwt>
</event>
<event>
 5    0  0.1324511E+000  0.2548091E+03  0.7546771E-02  0.1110303E+00
         21   -1    0    0  504  501  0.00000000000E+00  0.00000000000E+00  0.12381706422E+04  0.12381706422E+04  0.00000000000E+00 0.  1.
         21   -1    0    0  501  502 -0.00000000000E+00 -0.00000000000E+00 -0.69396254899E+02  0.69396254899E+02  0.00000000000E+00 0.  1.
         25    1    1    2    0    0 -0.18690102870E+03 -0.11987774235E+03  0.97940798145E+03  0.10120116905E+04  0.12500000000E+03 0.  0.
         21    1    1    2  503  502  0.17628236839E+03  0.98151352213E+02  0.15994856376E+03  0.25747369651E+03  0.00000000000E+00 0.  1.
         21    1    1    2  504  503  0.10618660320E+02  0.21726390134E+02  0.29417842099E+02  0.38081510067E+02  0.00000000000E+00 0. -1.
<mgrwt>
<rscale>  4 0.25480908E+03</rscale>
<asrwt>0</asrwt>
<pdfrwt beam="1">  1       21 0.19048777E+00 0.25480908E+03</pdfrwt>
<pdfrwt beam="2">  1       21 0.10676348E-01 0.25480908E+03</pdfrwt>
<totfact> 0.10694723E+04</totfact>
</mgrwt>
</event>
<event>
 5    0  0.1324511E+000  0.3307529E+03  0.7546771E-02  0.1070804E+00
         21   -1    0    0  504  501  0.00000000000E+00  0.00000000000E+00  0.34113317174E+03  0.34113317174E+03  0.00000000000E+00 0.  1.
         21   -1    0    0  501  502 -0.00000000000E+00 -0.00000000000E+00 -0.69484319996E+03  0.69484319996E+03  0.00000000000E+00 0.  1.
         25    1    1    2    0    0 -0.22764060472E+03 -0.20482239015E+03 -0.56776293475E+03  0.65707853906E+03  0.12500000000E+03 0.  0.
         21    1    1    2  503  502  0.22203250599E+03  0.18139720654E+03  0.20754581835E+03  0.35394723756E+03  0.00000000000E+00 0.  1.
         21    1    1    2  504  503  0.56080987296E+01  0.23425183610E+02  0.65070881777E+01  0.24950595085E+02  0.00000000000E+00 0.  1.
<mgrwt>
<rscale>  4 0.33075286E+03</rscale>
<asrwt>0</asrwt>
<pdfrwt beam="1">  1       21 0.52482027E-01 0.33075286E+03</pdfrwt>
<pdfrwt beam="2">  1       21 0.10689895E+00 0.33075286E+03</pdfrwt>
<totfact> 0.21908707E+03</totfact>
</mgrwt>
</event>
<event>
 5    0  0.1324511E+000  0.2652833E+03  0.7546771E-02  0.1104010E+00
         21   -1    0    0  504  501  0.00000000000E+00  0.00000000000E+00  0.87324049585E+02  0.87324049585E+02  0.00000000000E+00 0. -1.
         21   -1    0    0  501  502 -0.00000000000E+00 -0.00000000000E+00 -0.13892844066E+04  0.13892844066E+04  0.00000000000E+00 0. -1.
         25    1    1    2    0    0 -0.22444166664E+03  0.66152639782E+02 -0.11814674779E+04  0.12108842367E+04  0.12500000000E+03 0.  0.
         21    1    1    2  503  502  0.20227085076E+02 -0.29781868137E+01 -0.21547827124E+00  0.20446295465E+02  0.00000000000E+00 0. -1.
         21    1    1    2  504  503  0.20421458157E+03 -0.63174452968E+02 -0.12027740084E+03  0.24527792397E+03  0.00000000000E+00 0. -1.
<mgrwt>
<rscale>  4 0.26528331E+03</rscale>
<asrwt>0</asrwt>
<pdfrwt beam="1">  1       21 0.13434470E-01 0.26528331E+03</pdfrwt>
<pdfrwt beam="2">  1       21 0.21373605E+00 0.26528331E+03</pdfrwt>
<totfact> 0.49617871E+03</totfact>
</mgrwt>
</event>
<event>
 5    0  0.1324511E+000  0.3217421E+03  0.7546771E-02  0.1074850E+00
         21   -1    0    0  504  501  0.00000000000E+00  0.00000000000E+00  0.12163189806E+03  0.12163189806E+03  0.00000000000E+00 0. -1.
         21   -1    0    0  501  502 -0.00000000000E+00 -0.00000000000E+00 -0.83845223887E+03  0.83845223887E+03  0.00000000000E+00 0. -1.
         25    1    1    2    0    0 -0.63494102365E+02  0.28958847326E+03 -0.45394580703E+03  0.55640343331E+03  0.12500000000E+03 0.  0.
         21    1    1    2  503  502 -0.55362672450E+01 -0.68030718633E+02 -0.28843338276E+02  0.74099710496E+02  0.00000000000E+00 0. -1.
         21    1    1    2  504  503  0.69030369610E+02 -0.22155775463E+03 -0.23403119550E+03  0.32958099313E+03  0.00000000000E+00 0. -1.
<mgrwt>
<rscale>  4 0.32174211E+03</rscale>
<asrwt>0</asrwt>
<pdfrwt beam="1">  1       21 0.18712600E-01 0.32174211E+03</pdfrwt>
<pdfrwt beam="2">  1       21 0.12899265E+00 0.32174211E+03</pdfrwt>
<totfact> 0.10704635E+04</totfact>
</mgrwt>
</event>
<event>
 5    0  0.1324511E+000  0.3639422E+03  0.7546771E-02  0.1057034E+00
         21   -1    0    0  504  501  0.00000000000E+00  0.00000000000E+00  0.34290064421E+03  0.34290064421E+03  0.00000000000E+00 0. -1.
         21   -1    0    0  501  502 -0.00000000000E+00 -0.00000000000E+00 -0.43482437062E+03  0.43482437062E+03  0.00000000000E+00 0. -1.
         25    1    1    2    0    0  0.31681916173E+03 -0.12827526613E+03 -0.19699985290E+03  0.41383918034E+03  0.12500000000E+03 0.  0.
         21    1    1    2  503  502 -0.29352856085E+03  0.98100473046E+02  0.85744490212E+02  0.32114612943E+03  0.00000000000E+00 0. -1.
         21    1    1    2  504  503 -0.23290600881E+02  0.30174793082E+02  0.19331636274E+02  0.42739705052E+02  0.00000000000E+00 0. -1.
<mgrwt>
<rscale>  4 0.36394220E+03</rscale>
<asrwt>0</asrwt>
<pdfrwt beam="1">  1       21 0.52753945E-01 0.36394220E+03</pdfrwt>
<pdfrwt beam="2">  1       21 0.66896057E-01 0.36394220E+03</pdfrwt>
<totfact> 0.63522947E+03</totfact>
</mgrwt>
</event>
<event>
 5    0  0.1324511E+000  0.3993620E+03  0.7546771E-02  0.1044001E+00
         21   -1    0    0  504  501  0.00000000000E+00  0.00000000000E+00  0.18430676287E+03  0.18430676287E+03  0.00000000000E+00 0. -1.
         21   -1    0    0  501  502 -0.00000000000E+00 -0.00000000000E+00 -0.83725015892E+03  0.83725015892E+03  0.00000000000E+00 0. -1.
         25    1    1    2    0    0 -0.21911529790E+03  0.30960216462E+03 -0.30824647457E+03  0.50448578097E+03  0.12500000000E+03 0.  0.
         21    1    1    2  503  502  0.18307113224E+03 -0.29330071480E+03 -0.30543704522E+03  0.46133733575E+03  0.00000000000E+00 0. -1.
         21    1    1    2  504  503  0.36044165659E+02 -0.16301449818E+02 -0.39259876257E+02  0.55733805073E+02  0.00000000000E+00 0. -1.
<mgrwt>
<rscale>  4 0.39936201E+03</rscale>
<asrwt>0</asrwt>
<pdfrwt beam="1">  1       21 0.28354886E-01 0.39936201E+03</pdfrwt>
<pdfrwt beam="2">  1       21 0.12880772E+00 0.39936201E+03</pdfrwt>
<totfact> 0.46805984E+03</totfact>
</mgrwt>
</event>
<event>
 5    0  0.1324511E+000  0.2451184E+03  0.7546771E-02  0.1116429E+00
         21   -1    0    0  504  501  0.00000000000E+00  0.00000000000E+00  0.84920107697E+03  0.84920107697E+03  0.00000000000E+00 0. -1.
         21   -1    0    0  501  502 -0.00000000000E+00 -0.00000000000E+00 -0.67080800076E+02  0.67080800076E+02  0.00000000000E+00 0. -1.
         25    1    1    2    0    0 -0.19578132279E+03  0.78279554433E+02  0.28985521588E+03  0.37960382133E+03  0.12500000000E+03 0.  0.
         21    1    1    2  503  502  0.17443211441E+03 -0.74750998895E+02  0.46213424365E+03  0.49958215894E+03  0.00000000000E+00 0. -1.
         21    1    1    2  504  503  0.21349208379E+02 -0.35285555377E+01  0.30130817359E+02  0.37095896772E+02  0.00000000000E+00 0.  1.
<mgrwt>
<rscale>  4 0.24511837E+03</rscale>
<asrwt>0</asrwt>
<pdfrwt beam="1">  1       21 0.13064631E+00 0.24511837E+03</pdfrwt>
<pdfrwt beam="2">  1       21 0.10320124E-01 0.24511837E+03</pdfrwt>
<totfact> 0.31834407E+04</totfact>
</mgrwt>
</event>
<event>
 5    0  0.1324511E+000  0.2887417E+03  0.7546771E-02  0.1091008E+00
         21   -1    0    0  504  501  0.00000000000E+00  0.00000000000E+00  0.17298655303E+03  0.17298655303E+03  0.00000000000E+00 0. -1.
         21   -1    0    0  501  502 -0.00000000000E+00 -0.00000000000E+00 -0.69221079923E+03  0.69221079923E+03  0.00000000000E+00 0. -1.
         25    1    1    2    0    0 -0.10079960694E+03 -0.23997125871E+03 -0.52668360775E+03  0.60063914994E+03  0.12500000000E+03 0.  0.
         21    1    1    2  503  502 -0.43496979354E+00  0.32294684212E+02 -0.70794897970E+01  0.33064406888E+02  0.00000000000E+00 0. -1.
         21    1    1    2  504  503  0.10123457673E+03  0.20767657450E+03  0.14538851347E+02  0.23149379543E+03  0.00000000000E+00 0. -1.
<mgrwt>
<rscale>  4 0.28874169E+03</rscale>
<asrwt>0</asrwt>
<pdfrwt beam="1">  1       21 0.26613316E-01 0.28874169E+03</pdfrwt>
<pdfrwt beam="2">  1       21 0.10649397E+00 0.28874169E+03</pdfrwt>
<totfact> 0.89543097E+03</totfact>
</mgrwt>
</event>
<event>
 5    0  0.1324511E+000  0.2874543E+03  0.7546771E-02  0.1091686E+00
         21   -1    0    0  504  501  0.00000000000E+00  0.00000000000E+00  0.52312982376E+02  0.52312982376E+02  0.00000000000E+00 0.  1.
         21   -1    0    0  501  502 -0.00000000000E+00 -0.00000000000E+00 -0.19716641817E+04  0.19716641817E+04  0.00000000000E+00 0.  1.
         25    1    1    2    0    0 -0.14398523163E+03  0.21511216684E+03 -0.46947445955E+03  0.55048729269E+03  0.12500000000E+03 0.  0.
         21    1    1    2  503  502  0.44866046464E+01 -0.27747005333E+02 -0.20091165608E+03  0.20286823181E+03  0.00000000000E+00 0. -1.
         21    1    1    2  504  503  0.13949862698E+03 -0.18736516150E+03 -0.12489650837E+04  0.12706216395E+04  0.00000000000E+00 0.  1.
<mgrwt>
<rscale>  4 0.28745433E+03</rscale>
<asrwt>0</asrwt>
<pdfrwt beam="1">  1       21 0.80481510E-02 0.28745433E+03</pdfrwt>
<pdfrwt beam="2">  1       21 0.30333296E+00 0.28745433E+03</pdfrwt>
<totfact> 0.35334466E+03</totfact>
</mgrwt>
</event>
<event>
 5    0  0.1324511E+000  0.2367838E+03  0.7546771E-02  0.1121954E+00
         21   -1    0    0  504  501  0.00000000000E+00  0.00000000000E+00  0.18818536689E+03  0.18818536689E+03  0.00000000000E+00 0.  1.
         21   -1    0    0  501  502 -0.00000000000E+00 -0.00000000000E+00 -0.37042665685E+03  0.37042665685E+03  0.00000000000E+00 0.  1.
         25    1    1    2    0    0 -0.18873387213E+03  0.89030383831E+02 -0.22771492018E+03  0.33320559510E+03  0.12500000000E+03 0.  0.
         21    1    1    2  503  502  0.16324364852E+03 -0.90512123396E+02  0.17413007446E+02  0.18746772013E+03  0.00000000000E+00 0.  1.
         21    1    1    2  504  503  0.25490223617E+02  0.14817395647E+01  0.28060622783E+02  0.37938708506E+02  0.00000000000E+00 0.  1.
<mgrwt>
<rscale>  4 0.23678384E+03</rscale>
<asrwt>0</asrwt>
<pdfrwt beam="1">  1       21 0.28951595E-01 0.23678384E+03</pdfrwt>
<pdfrwt beam="2">  1       21 0.56988716E-01 0.23678384E+03</pdfrwt>
<totfact> 0.32301712E+04</totfact>
</mgrwt>
</event>
<event>
 5    0  0.1324511E+000  0.2917940E+03  0.7546771E-02  0.1089416E+00
         21   -1    0    0  504  501  0.00000000000E+00  0.00000000000E+00  0.81139056354E+03  0.81139056354E+03  0.00000000000E+00 0. -1.
         21   -1    0    0  501  502 -0.00000000000E+00 -0.00000000000E+00 -0.23271338898E+03  0.23271338898E+03  0.00000000000E+00 0. -1.
         25    1    1    2    0    0 -0.27560487886E+03 -0.16402555567E+03  0.75475276410E+01  0.34430276987E+03  0.12500000000E+03 0.  0.
         21    1    1    2  503  502  0.16791632968E+03  0.19302285469E+03  0.51477933529E+03  0.57484909346E+03  0.00000000000E+00 0. -1.
         21    1    1    2  504  503  0.10768854918E+03 -0.28997299019E+02  0.56350311622E+02  0.12495208919E+03  0.00000000000E+00 0. -1.
<mgrwt>
<rscale>  4 0.29179400E+03</rscale>
<asrwt>0</asrwt>
<pdfrwt beam="1">  1       21 0.12482932E+00 0.29179400E+03</pdfrwt>
<pdfrwt beam="2">  1       21 0.35802060E-01 0.29179400E+03</pdfrwt>
<totfact> 0.33562329E+03</totfact>
</mgrwt>
</event>
<event>
 5    0  0.1324511E+000  0.4514301E+03  0.7546771E-02  0.1027296E+00
         21   -1    0    0  504  501  0.00000000000E+00  0.00000000000E+00  0.11328197108E+04  0.11328197108E+04  0.00000000000E+00 0. -1.
         21   -1    0    0  501  502 -0.00000000000E+00 -0.00000000000E+00 -0.19379654169E+03  0.19379654169E+03  0.00000000000E+00 0. -1.
         25    1    1    2    0    0 -0.41698951245E+03  0.11951524985E+03  0.67059052622E+03  0.80838159448E+03  0.12500000000E+03 0.  0.
         21    1    1    2  503  502  0.29361234810E+02 -0.24530366349E+01  0.50312092444E+02  0.58304426456E+02  0.00000000000E+00 0. -1.
         21    1    1    2  504  503  0.38762827764E+03 -0.11706221321E+03  0.21812055049E+03  0.45993023160E+03  0.00000000000E+00 0. -1.
<mgrwt>
<rscale>  4 0.45143011E+03</rscale>
<asrwt>0</asrwt>
<pdfrwt beam="1">  1       21 0.17427995E+00 0.45143011E+03</pdfrwt>
<pdfrwt beam="2">  1       21 0.29814853E-01 0.45143011E+03</pdfrwt>
<totfact> 0.18250570E+03</totfact>
</mgrwt>
</event>
<event>
 5    0  0.1324511E+000  0.2491613E+03  0.7546771E-02  0.1113836E+00
         21   -1    0    0  504  501  0.00000000000E+00  0.00000000000E+00  0.17735338723E+03  0.17735338723E+03  0.00000000000E+00 0.  1.
         21   -1    0    0  501  502 -0.00000000000E+00 -0.00000000000E+00 -0.54457486019E+03  0.54457486019E+03  0.00000000000E+00 0. -1.
         25    1    1    2    0    0 -0.91624261816E+02 -0.19509314776E+03 -0.42575873160E+03  0.49330704352E+03  0.12500000000E+03 0.  0.
         21    1    1    2  503  502  0.37280936996E+02  0.35548832621E+02  0.48936280928E+01  0.51744906608E+02  0.00000000000E+00 0.  1.
         21    1    1    2  504  503  0.54343324821E+02  0.15954431513E+03  0.53643630547E+02  0.17687629729E+03  0.00000000000E+00 0.  1.
<mgrwt>
<rscale>  4 0.24916128E+03</rscale>
<asrwt>0</asrwt>
<pdfrwt beam="1">  1       21 0.27285136E-01 0.24916128E+03</pdfrwt>
<pdfrwt beam="2">  1       21 0.83780748E-01 0.24916128E+03</pdfrwt>
<totfact> 0.15346855E+04</totfact>
</mgrwt>
</event>
<event>
 5    0  0.1324511E+000  0.2521240E+03  0.7546771E-02  0.1111970E+00
         21   -1    0    0  504  501  0.00000000000E+00  0.00000000000E+00  0.21222092682E+04  0.21222092682E+04  0.00000000000E+00 0. -1.
         21   -1    0    0  501  502 -0.00000000000E+00 -0.00000000000E+00 -0.30354174318E+02  0.30354174318E+02  0.00000000000E+00 0. -1.
         25    1    1    2    0    0 -0.10511106259E+03  0.19207598487E+03  0.72314427310E+03  0.76583559538E+03  0.12500000000E+03 0.  0.
         21    1    1    2  503  502  0.20753129769E+02 -0.14380638182E+02  0.19864090476E+03  0.20023911754E+03  0.00000000000E+00 0.  1.
         21    1    1    2  504  503  0.84357932820E+02 -0.17769534669E+03  0.11700699161E+04  0.11864887296E+04  0.00000000000E+00 0. -1.
<mgrwt>
<rscale>  4 0.25212402E+03</rscale>
<asrwt>0</asrwt>
<pdfrwt beam="1">  1       21 0.32649362E+00 0.25212402E+03</pdfrwt>
<pdfrwt beam="2">  1       21 0.46698746E-02 0.25212402E+03</pdfrwt>
<totfact> 0.68131226E+03</totfact>
</mgrwt>
</event>
<event>
 5    0  0.1324511E+000  0.2746288E+03  0.7546771E-02  0.1098659E+00
         21   -1    0    0  504  501  0.00000000000E+00  0.00000000000E+00  0.28108337534E+03  0.28108337534E+03  0.00000000000E+00 0.  1.
         21   -1    0    0  501  502 -0.00000000000E+00 -0.00000000000E+00 -0.24829349383E+03  0.24829349383E+03  0.00000000000E+00 0.  1.
         25    1    1    2    0    0  0.32870742395E+02 -0.24231275482E+03 -0.30294513425E+01  0.27464547043E+03  0.12500000000E+03 0.  0.
         21    1    1    2  503  502 -0.46307403728E+02  0.22733725912E+03  0.34635928799E+02  0.23457675202E+03  0.00000000000E+00 0.  1.
         21    1    1    2  504  503  0.13436661334E+02  0.14975495693E+02  0.11834040482E+01  0.20154646715E+02  0.00000000000E+00 0. -1.
<mgrwt>
<rscale>  4 0.27462876E+03</rscale>
<asrwt>0</asrwt>
<pdfrwt beam="1">  1       21 0.43243596E-01 0.27462876E+03</pdfrwt>
<pdfrwt beam="2">  1       21 0.38198999E-01 0.27462876E+03</pdfrwt>
<totfact> 0.32704108E+04</totfact>
</mgrwt>
</event>
<event>
 5    0  0.1324511E+000  0.2590987E+03  0.7546771E-02  0.1107686E+00
         21   -1    0    0  504  501  0.00000000000E+00  0.00000000000E+00  0.28823564830E+03  0.28823564830E+03  0.00000000000E+00 0.  1.
         21   -1    0    0  501  502 -0.00000000000E+00 -0.00000000000E+00 -0.27829297214E+03  0.27829297214E+03  0.00000000000E+00 0.  1.
         25    1    1    2    0    0 -0.45416353104E+02  0.22236115674E+03 -0.13397809930E+03  0.29168863579E+03  0.12500000000E+03 0.  0.
         21    1    1    2  503  502  0.44444442859E+02 -0.82101275448E+02  0.66566794781E+02  0.11466065628E+03  0.00000000000E+00 0.  1.
         21    1    1    2  504  503  0.97191024477E+00 -0.14025988129E+03  0.77353980680E+02  0.16017932837E+03  0.00000000000E+00 0.  1.
<mgrwt>
<rscale>  4 0.25909869E+03</rscale>
<asrwt>0</asrwt>
<pdfrwt beam="1">  1       21 0.44343946E-01 0.25909869E+03</pdfrwt>
<pdfrwt beam="2">  1       21 0.42814303E-01 0.25909869E+03</pdfrwt>
<totfact> 0.24768616E+04</totfact>
</mgrwt>
</event>
<event>
 5    0  0.1324511E+000  0.3526049E+03  0.7546771E-02  0.1061551E+00
         21   -1    0    0  504  501  0.00000000000E+00  0.00000000000E+00  0.29934313427E+03  0.29934313427E+03  0.00000000000E+00 0.  1.
         21   -1    0    0  501  502 -0.00000000000E+00 -0.00000000000E+00 -0.98353647036E+03  0.98353647036E+03  0.00000000000E+00 0. -1.
         25    1    1    2    0    0  0.30401729403E+03  0.13804750263E+03 -0.82892416338E+03  0.90234355802E+03  0.12500000000E+03 0.  0.
         21    1    1    2  503  502 -0.26487701140E+03 -0.14573689040E+03  0.15443550468E+03  0.33948401656E+03  0.00000000000E+00 0.  1.
         21    1    1    2  504  503 -0.39140282633E+02  0.76893877720E+01 -0.97046773907E+01  0.41052030062E+02  0.00000000000E+00 0.  1.
<mgrwt>
<rscale>  4 0.35260492E+03</rscale>
<asrwt>0</asrwt>
<pdfrwt beam="1">  1       21 0.46052790E-01 0.35260492E+03</pdfrwt>
<pdfrwt beam="2">  1       21 0.15131330E+00 0.35260492E+03</pdfrwt>
<totfact> 0.11707831E+03</totfact>
</mgrwt>
</event>
<event>
 5    0  0.1324511E+000  0.3069861E+03  0.7546771E-02  0.1081800E+00
         21   -1    0    0  504  501  0.00000000000E+00  0.00000000000E+00  0.40037695055E+03  0.40037695055E+03  0.00000000000E+00 0.  1.
         21   -1    0    0  501  502 -0.00000000000E+00 -0.00000000000E+00 -0.36000154700E+03  0.36000154700E+03  0.00000000000E+00 0.  1.
         25    1    1    2    0    0  0.29967933239E+03 -0.14453225382E+02 -0.16836315278E+03  0.36604337066E+03  0.12500000000E+03 0.  0.
         21    1    1    2  503  502 -0.73574806204E+02 -0.44324705646E+02  0.79068104625E+01  0.86258038989E+02  0.00000000000E+00 0. -1.
         21    1    1    2  504  503 -0.22610452619E+03  0.58777931027E+02  0.20083174587E+03  0.30807708790E+03  0.00000000000E+00 0.  1.
<mgrwt>
<rscale>  4 0.30698607E+03</rscale>
<asrwt>0</asrwt>
<pdfrwt beam="1">  1       21 0.61596454E-01 0.30698607E+03</pdfrwt>
<pdfrwt beam="2">  1       21 0.55384854E-01 0.30698607E+03</pdfrwt>
<totfact> 0.70357617E+03</totfact>
</mgrwt>
</event>
<event>
 5    0  0.1324511E+000  0.2360856E+03  0.7546771E-02  0.1122428E+00
         21   -1    0    0  504  501  0.00000000000E+00  0.00000000000E+00  0.15950094076E+03  0.15950094076E+03  0.00000000000E+00 0. -1.
         21   -1    0    0  501  502 -0.00000000000E+00 -0.00000000000E+00 -0.54344917632E+03  0.54344917632E+03  0.00000000000E+00 0.  1.
         25    1    1    2    0    0  0.64021561003E+02 -0.23005524844E+03 -0.23005380018E+03  0.35436411865E+03  0.12500000000E+03 0.  0.
         21    1    1    2  503  502  0.61923012167E+01  0.18917574462E+03 -0.17836583118E+02  0.19011562441E+03  0.00000000000E+00 0. -1.
         21    1    1    2  504  503 -0.70213862220E+02  0.40879503818E+02 -0.13605785226E+03  0.15847037402E+03  0.00000000000E+00 0.  1.
<mgrwt>
<rscale>  4 0.23608562E+03</rscale>
<asrwt>0</asrwt>
<pdfrwt beam="1">  1       21 0.24538605E-01 0.23608562E+03</pdfrwt>
<pdfrwt beam="2">  1       21 0.83607569E-01 0.23608562E+03</pdfrwt>
<totfact> 0.19045334E+04</totfact>
</mgrwt>
</event>
<event>
 5    0  0.1324511E+000  0.2782337E+03  0.7546771E-02  0.1096658E+00
         21   -1    0    0  504  501  0.00000000000E+00  0.00000000000E+00  0.60659234102E+02  0.60659234102E+02  0.00000000000E+00 0.  1.
         21   -1    0    0  501  502 -0.00000000000E+00 -0.00000000000E+00 -0.14068521964E+04  0.14068521964E+04  0.00000000000E+00 0.  1.
         25    1    1    2    0    0 -0.14265560696E+03  0.20356410460E+03 -0.10069010337E+04  0.10446356583E+04  0.12500000000E+03 0.  0.
         21    1    1    2  503  502  0.11549284758E+03 -0.16679772537E+03 -0.24506461036E+03  0.31814578778E+03  0.00000000000E+00 0.  1.
         21    1    1    2  504  503  0.27162759380E+02 -0.36766379224E+02 -0.94227318163E+02  0.10472998437E+03  0.00000000000E+00 0.  1.
<mgrwt>
<rscale>  4 0.27823366E+03</rscale>
<asrwt>0</asrwt>
<pdfrwt beam="1">  1       21 0.93321910E-02 0.27823366E+03</pdfrwt>
<pdfrwt beam="2">  1       21 0.21643877E+00 0.27823366E+03</pdfrwt>
<totfact> 0.90947615E+03</totfact>
</mgrwt>
</event>
<event>
 5    0  0.1324511E+000  0.2772109E+03  0.7546771E-02  0.1097222E+00
         21   -1    0    0  504  501  0.00000000000E+00  0.00000000000E+00  0.69710450065E+02  0.69710450065E+02  0.00000000000E+00 0.  1.
         21   -1    0    0  501  502 -0.00000000000E+00 -0.00000000000E+00 -0.14167040606E+04  0.14167040606E+04  0.00000000000E+00 0.  1.
         25    1    1    2    0    0  0.23849510514E+03 -0.13883934346E+03 -0.60411940670E+03  0.67582655765E+03  0.12500000000E+03 0.  0.
         21    1    1    2  503  502 -0.18699665094E+03  0.13940166477E+03 -0.71488655386E+03  0.75197297590E+03  0.00000000000E+00 0.  1.
         21    1    1    2  504  503 -0.51498454199E+02 -0.56232130524E+00 -0.27987649957E+02  0.58614977099E+02  0.00000000000E+00 0. -1.
<mgrwt>
<rscale>  4 0.27721089E+03</rscale>
<asrwt>0</asrwt>
<pdfrwt beam="1">  1       21 0.10724685E-01 0.27721089E+03</pdfrwt>
<pdfrwt beam="2">  1       21 0.21795445E+00 0.27721089E+03</pdfrwt>
<totfact> 0.69495343E+03</totfact>
</mgrwt>
</event>
<event>
 5    0  0.1324511E+000  0.2330818E+03  0.7546771E-02  0.1124489E+00
         21   -1    0    0  504  501  0.00000000000E+00  0.00000000000E+00  0.13098811843E+03  0.13098811843E+03  0.00000000000E+00 0.  1.
         21   -1    0    0  501  502 -0.00000000000E+00 -0.00000000000E+00 -0.50938932548E+03  0.50938932548E+03  0.00000000000E+00 0.  1.
         25    1    1    2    0    0  0.15294958235E+03 -0.13712314178E+03 -0.31524437780E+03  0.39648499150E+03  0.12500000000E+03 0.  0.
         21    1    1    2  503  502 -0.77761631810E+01  0.22896879450E+02  0.28750526577E+02  0.37567653384E+02  0.00000000000E+00 0.  1.
         21    1    1    2  504  503 -0.14517341917E+03  0.11422626233E+03 -0.91907355821E+02  0.20632479902E+03  0.00000000000E+00 0.  1.
<mgrwt>
<rscale>  4 0.23308185E+03</rscale>
<asrwt>0</asrwt>
<pdfrwt beam="1">  1       21 0.20152018E-01 0.23308185E+03</pdfrwt>
<pdfrwt beam="2">  1       21 0.78367589E-01 0.23308185E+03</pdfrwt>
<totfact> 0.32108239E+04</totfact>
</mgrwt>
</event>
<event>
 5    0  0.1324511E+000  0.2651638E+03  0.7546771E-02  0.1104080E+00
         21   -1    0    0  504  501  0.00000000000E+00  0.00000000000E+00  0.17534389659E+04  0.17534389659E+04  0.00000000000E+00 0.  1.
         21   -1    0    0  501  502 -0.00000000000E+00 -0.00000000000E+00 -0.40602487495E+02  0.40602487495E+02  0.00000000000E+00 0.  1.
         25    1    1    2    0    0 -0.78192339393E+02  0.22039240648E+03  0.59593468056E+03  0.65226528213E+03  0.12500000000E+03 0.  0.
         21    1    1    2  503  502  0.75485454219E+02 -0.18528613839E+03  0.99371729680E+03  0.10136582624E+04  0.00000000000E+00 0.  1.
         21    1    1    2  504  503  0.27068851744E+01 -0.35106268094E+02  0.12318450105E+03  0.12811790892E+03  0.00000000000E+00 0. -1.
<mgrwt>
<rscale>  4 0.26516383E+03</rscale>
<asrwt>0</asrwt>
<pdfrwt beam="1">  1       21 0.26975978E+00 0.26516383E+03</pdfrwt>
<pdfrwt beam="2">  1       21 0.62465379E-02 0.26516383E+03</pdfrwt>
<totfact> 0.88082888E+03</totfact>
</mgrwt>
</event>
<event>
 5    0  0.1324511E+000  0.2379819E+03  0.7546771E-02  0.1121145E+00
         21   -1    0    0  504  501  0.00000000000E+00  0.00000000000E+00  0.17574761910E+03  0.17574761910E+03  0.00000000000E+00 0.  1.
         21   -1    0    0  501  502 -0.00000000000E+00 -0.00000000000E+00 -0.38271188924E+03  0.38271188924E+03  0.00000000000E+00 0.  1.
         25    1    1    2    0    0 -0.59066752771E+02  0.20371037112E+03 -0.10331933870E+03  0.26699565977E+03  0.12500000000E+03 0.  0.
         21    1    1    2  503  502  0.76403099227E+02 -0.18212950475E+03 -0.14406604737E+02  0.19803065504E+03  0.00000000000E+00 0.  1.
         21    1    1    2  504  503 -0.17336346455E+02 -0.21580866366E+02 -0.89238326704E+02  0.93433193537E+02  0.00000000000E+00 0.  1.
<mgrwt>
<rscale>  4 0.23798190E+03</rscale>
<asrwt>0</asrwt>
<pdfrwt beam="1">  1       21 0.27038095E-01 0.23798190E+03</pdfrwt>
<pdfrwt beam="2">  1       21 0.58878752E-01 0.23798190E+03</pdfrwt>
<totfact> 0.34378803E+04</totfact>
</mgrwt>
</event>
<event>
 5    0  0.1324511E+000  0.2554519E+03  0.7546771E-02  0.1109907E+00
         21   -1    0    0  504  501  0.00000000000E+00  0.00000000000E+00  0.28764987195E+03  0.28764987195E+03  0.00000000000E+00 0. -1.
         21   -1    0    0  501  502 -0.00000000000E+00 -0.00000000000E+00 -0.53600686995E+03  0.53600686995E+03  0.00000000000E+00 0. -1.
         25    1    1    2    0    0 -0.21831200040E+03  0.44391054910E+02 -0.44454574988E+03  0.51271494909E+03  0.12500000000E+03 0.  0.
         21    1    1    2  503  502  0.84757656223E+02 -0.49756581014E+02  0.41993055311E+02  0.10687840912E+03  0.00000000000E+00 0. -1.
         21    1    1    2  504  503  0.13355434418E+03  0.53655261042E+01  0.15419569658E+03  0.20406338369E+03  0.00000000000E+00 0. -1.
<mgrwt>
<rscale>  4 0.25545194E+03</rscale>
<asrwt>0</asrwt>
<pdfrwt beam="1">  1       21 0.44253826E-01 0.25545194E+03</pdfrwt>
<pdfrwt beam="2">  1       21 0.82462595E-01 0.25545194E+03</pdfrwt>
<totfact> 0.60350722E+03</totfact>
</mgrwt>
</event>
<event>
 5    0  0.1324511E+000  0.1920649E+03  0.7546771E-02  0.1156612E+00
         21   -1    0    0  504  501  0.00000000000E+00  0.00000000000E+00  0.51690411138E+03  0.51690411138E+03  0.00000000000E+00 0. -1.
         21   -1    0    0  501  502 -0.00000000000E+00 -0.00000000000E+00 -0.17690415691E+03  0.17690415691E+03  0.00000000000E+00 0.  1.
         25    1    1    2    0    0  0.11306785131E+03  0.16987531553E+03 -0.29294440561E+02  0.24109153049E+03  0.12500000000E+03 0.  0.
         21    1    1    2  503  502 -0.16561039378E+00 -0.85881356734E+02  0.40251127943E+02  0.94846128872E+02  0.00000000000E+00 0.  1.
         21    1    1    2  504  503 -0.11290224091E+03 -0.83993958795E+02  0.32904326709E+03  0.35787060892E+03  0.00000000000E+00 0. -1.
<mgrwt>
<rscale>  4 0.19206489E+03</rscale>
<asrwt>0</asrwt>
<pdfrwt beam="1">  1       21 0.79523709E-01 0.19206489E+03</pdfrwt>
<pdfrwt beam="2">  1       21 0.27216024E-01 0.19206489E+03</pdfrwt>
<totfact> 0.17948940E+04</totfact>
</mgrwt>
</event>
<event>
 5    0  0.1324511E+000  0.2659033E+03  0.7546771E-02  0.1103647E+00
         21   -1    0    0  504  501  0.00000000000E+00  0.00000000000E+00  0.10254651168E+03  0.10254651168E+03  0.00000000000E+00 0. -1.
         21   -1    0    0  501  502 -0.00000000000E+00 -0.00000000000E+00 -0.73978418143E+03  0.73978418143E+03  0.00000000000E+00 0.  1.
         25    1    1    2    0    0  0.76083203016E+02  0.22201560578E+03 -0.48663718541E+03  0.55454515886E+03  0.12500000000E+03 0.  0.
         21    1    1    2  503  502 -0.89529270060E+02 -0.18140236104E+03 -0.12820344596E+03  0.23949620111E+03  0.00000000000E+00 0. -1.
         21    1    1    2  504  503  0.13446067044E+02 -0.40613244742E+02 -0.22397038370E+02  0.48289333140E+02  0.00000000000E+00 0.  1.
<mgrwt>
<rscale>  4 0.26590333E+03</rscale>
<asrwt>0</asrwt>
<pdfrwt beam="1">  1       21 0.15776387E-01 0.26590333E+03</pdfrwt>
<pdfrwt beam="2">  1       21 0.11381295E+00 0.26590333E+03</pdfrwt>
<totfact> 0.20659403E+04</totfact>
</mgrwt>
</event>
<event>
 5    0  0.1324511E+000  0.2450456E+03  0.7546771E-02  0.1116476E+00
         21   -1    0    0  504  501  0.00000000000E+00  0.00000000000E+00  0.14598356430E+03  0.14598356430E+03  0.00000000000E+00 0. -1.
         21   -1    0    0  501  502 -0.00000000000E+00 -0.00000000000E+00 -0.68576933526E+03  0.68576933526E+03  0.00000000000E+00 0. -1.
         25    1    1    2    0    0  0.22589841356E+03  0.74368076453E+02 -0.27734815596E+03  0.38614466675E+03  0.12500000000E+03 0.  0.
         21    1    1    2  503  502 -0.16880028781E+03 -0.10425988361E+03 -0.30821789858E+03  0.36655413448E+03  0.00000000000E+00 0. -1.
         21    1    1    2  504  503 -0.57098125741E+02  0.29891807161E+02  0.45780283580E+02  0.79054098332E+02  0.00000000000E+00 0. -1.
<mgrwt>
<rscale>  4 0.24504564E+03</rscale>
<asrwt>0</asrwt>
<pdfrwt beam="1">  1       21 0.22459010E-01 0.24504564E+03</pdfrwt>
<pdfrwt beam="2">  1       21 0.10550298E+00 0.24504564E+03</pdfrwt>
<totfact> 0.12980401E+04</totfact>
</mgrwt>
</event>
<event>
 5    0  0.1324511E+000  0.2385640E+03  0.7546771E-02  0.1120753E+00
         21   -1    0    0  504  501  0.00000000000E+00  0.00000000000E+00  0.56926181322E+02  0.56926181322E+02  0.00000000000E+00 0.  1.
         21   -1    0    0  501  502 -0.00000000000E+00 -0.00000000000E+00 -0.14848841110E+04  0.14848841110E+04  0.00000000000E+00 0. -1.
         25    1    1    2    0    0 -0.18952205644E+03  0.73274781147E+02 -0.12047319357E+04  0.12281253358E+04  0.12500000000E+03 0.  0.
         21    1    1    2  503  502  0.62871388328E+02 -0.65121508128E+02 -0.11865737222E+03  0.14924206603E+03  0.00000000000E+00 0.  1.
         21    1    1    2  504  503  0.12665066811E+03 -0.81532730197E+01 -0.10456862177E+03  0.16444289055E+03  0.00000000000E+00 0.  1.
<mgrwt>
<rscale>  4 0.23856404E+03</rscale>
<asrwt>0</asrwt>
<pdfrwt beam="1">  1       21 0.87578738E-02 0.23856404E+03</pdfrwt>
<pdfrwt beam="2">  1       21 0.22844372E+00 0.23856404E+03</pdfrwt>
<totfact> 0.88088189E+03</totfact>
</mgrwt>
</event>
<event>
 5    0  0.1324511E+000  0.2380178E+03  0.7546771E-02  0.1121120E+00
         21   -1    0    0  504  501  0.00000000000E+00  0.00000000000E+00  0.13572756137E+04  0.13572756137E+04  0.00000000000E+00 0. -1.
         21   -1    0    0  501  502 -0.00000000000E+00 -0.00000000000E+00 -0.24520834606E+03  0.24520834606E+03  0.00000000000E+00 0.  1.
         25    1    1    2    0    0 -0.41585908929E+02  0.20042922411E+03 -0.17193629959E+03  0.29510735812E+03  0.12500000000E+03 0.  0.
         21    1    1    2  503  502  0.40261644500E+02 -0.15524497003E+03  0.12105518541E+04  0.12211297196E+04  0.00000000000E+00 0. -1.
         21    1    1    2  504  503  0.13242644295E+01 -0.45184254075E+02  0.73451713174E+02  0.86246882035E+02  0.00000000000E+00 0.  1.
<mgrwt>
<rscale>  4 0.23801783E+03</rscale>
<asrwt>0</asrwt>
<pdfrwt beam="1">  1       21 0.20881163E+00 0.23801783E+03</pdfrwt>
<pdfrwt beam="2">  1       21 0.37724362E-01 0.23801783E+03</pdfrwt>
<totfact> 0.76184844E+02</totfact>
</mgrwt>
</event>
<event>
 5    0  0.1324511E+000  0.3201544E+03  0.7546771E-02  0.1075726E+00
         21   -1    0    0  504  501  0.00000000000E+00  0.00000000000E+00  0.17050767956E+03  0.17050767956E+03  0.00000000000E+00 0. -1.
         21   -1    0    0  501  502 -0.00000000000E+00 -0.00000000000E+00 -0.10540237882E+04  0.10540237882E+04  0.00000000000E+00 0. -1.
         25    1    1    2    0    0  0.19738558633E+03  0.21701480614E+03 -0.84365341054E+03  0.90190496888E+03  0.12500000000E+03 0.  0.
         21    1    1    2  503  502 -0.11634538234E+03 -0.14508686594E+03  0.37203529384E+02  0.18965903421E+03  0.00000000000E+00 0. -1.
         21    1    1    2  504  503 -0.81040203992E+02 -0.71927940201E+02 -0.77066227486E+02  0.13296746468E+03  0.00000000000E+00 0. -1.
<mgrwt>
<rscale>  4 0.31983414E+03</rscale>
<asrwt>0</asrwt>
<pdfrwt beam="1">  1       21 0.26231950E-01 0.32015437E+03</pdfrwt>
<pdfrwt beam="2">  1       21 0.16215751E+00 0.32015437E+03</pdfrwt>
<totfact> 0.30610613E+03</totfact>
</mgrwt>
</event>
<event>
 5    0  0.1324511E+000  0.2330592E+03  0.7546771E-02  0.1124505E+00
         21   -1    0    0  504  501  0.00000000000E+00  0.00000000000E+00  0.62061348122E+03  0.62061348122E+03  0.00000000000E+00 0. -1.
         21   -1    0    0  501  502 -0.00000000000E+00 -0.00000000000E+00 -0.19426267939E+03  0.19426267939E+03  0.00000000000E+00 0.  1.
         25    1    1    2    0    0 -0.11605053184E+03  0.17632368591E+03 -0.62016237975E+02  0.25303909169E+03  0.12500000000E+03 0.  0.
         21    1    1    2  503  502  0.15254911593E+02 -0.14944480665E+03  0.39208580720E+03  0.41987824755E+03  0.00000000000E+00 0. -1.
         21    1    1    2  504  503  0.10079562025E+03 -0.26878879265E+02  0.96281232605E+02  0.14195882136E+03  0.00000000000E+00 0. -1.
<mgrwt>
<rscale>  4 0.23305922E+03</rscale>
<asrwt>0</asrwt>
<pdfrwt beam="1">  1       21 0.95478996E-01 0.23305922E+03</pdfrwt>
<pdfrwt beam="2">  1       21 0.29886566E-01 0.23305922E+03</pdfrwt>
<totfact> 0.95669438E+03</totfact>
</mgrwt>
</event>
<event>
 5    0  0.1324511E+000  0.2593571E+03  0.7546771E-02  0.1107530E+00
         21   -1    0    0  504  501  0.00000000000E+00  0.00000000000E+00  0.42957176672E+03  0.42957176672E+03  0.00000000000E+00 0.  1.
         21   -1    0    0  501  502 -0.00000000000E+00 -0.00000000000E+00 -0.14957684927E+03  0.14957684927E+03  0.00000000000E+00 0.  1.
         25    1    1    2    0    0  0.63584022693E+02 -0.21817011329E+03  0.20773149832E+03  0.33229279509E+03  0.12500000000E+03 0.  0.
         21    1    1    2  503  502  0.44654942188E+01  0.96740300080E+02  0.29268814258E+02  0.10116960900E+03  0.00000000000E+00 0.  1.
         21    1    1    2  504  503 -0.68049516912E+02  0.12142981321E+03  0.42994604877E+02  0.14568621190E+03  0.00000000000E+00 0.  1.
<mgrwt>
<rscale>  4 0.25935714E+03</rscale>
<asrwt>0</asrwt>
<pdfrwt beam="1">  1       21 0.66087964E-01 0.25935714E+03</pdfrwt>
<pdfrwt beam="2">  1       21 0.23011823E-01 0.25935714E+03</pdfrwt>
<totfact> 0.36110133E+04</totfact>
</mgrwt>
</event>
<event>
 5    0  0.1324511E+000  0.2620400E+03  0.7546771E-02  0.1105924E+00
         21   -1    0    0  504  501  0.00000000000E+00  0.00000000000E+00  0.78367712690E+03  0.78367712690E+03  0.00000000000E+00 0.  1.
         21   -1    0    0  501  502 -0.00000000000E+00 -0.00000000000E+00 -0.11255944769E+03  0.11255944769E+03  0.00000000000E+00 0.  1.
         25    1    1    2    0    0 -0.23669288965E+03 -0.10083752283E+03  0.44070839673E+03  0.52539568038E+03  0.12500000000E+03 0.  0.
         21    1    1    2  503  502  0.19580161279E+03  0.10101972153E+03  0.11527291886E+03  0.24865860437E+03  0.00000000000E+00 0.  1.
         21    1    1    2  504  503  0.40891276862E+02 -0.18219870061E+00  0.11513636362E+03  0.12218228983E+03  0.00000000000E+00 0.  1.
<mgrwt>
<rscale>  4 0.26204004E+03</rscale>
<asrwt>0</asrwt>
<pdfrwt beam="1">  1       21 0.12056571E+00 0.26204004E+03</pdfrwt>
<pdfrwt beam="2">  1       21 0.17316839E-01 0.26204004E+03</pdfrwt>
<totfact> 0.15104335E+04</totfact>
</mgrwt>
</event>
<event>
 5    0  0.1324511E+000  0.2719034E+03  0.7546771E-02  0.1100195E+00
         21   -1    0    0  504  501  0.00000000000E+00  0.00000000000E+00  0.60481296589E+02  0.60481296589E+02  0.00000000000E+00 0.  1.
         21   -1    0    0  501  502 -0.00000000000E+00 -0.00000000000E+00 -0.11266997122E+04  0.11266997122E+04  0.00000000000E+00 0.  1.
         25    1    1    2    0    0  0.58841338609E+02 -0.23418826805E+03 -0.63419692518E+03  0.69002694725E+03  0.12500000000E+03 0.  0.
         21    1    1    2  503  502 -0.60144343861E+02  0.19462923262E+03 -0.33109483503E+03  0.38874370744E+03  0.00000000000E+00 0.  1.
         21    1    1    2  504  503  0.13030052514E+01  0.39559035432E+02 -0.10092665543E+03  0.10841035414E+03  0.00000000000E+00 0.  1.
<mgrwt>
<rscale>  4 0.27190338E+03</rscale>
<asrwt>0</asrwt>
<pdfrwt beam="1">  1       21 0.93048153E-02 0.27190338E+03</pdfrwt>
<pdfrwt beam="2">  1       21 0.17333841E+00 0.27190338E+03</pdfrwt>
<totfact> 0.17728927E+04</totfact>
</mgrwt>
</event>
<event>
 5    0  0.1324511E+000  0.4369528E+03  0.7546771E-02  0.1031686E+00
         21   -1    0    0  504  501  0.00000000000E+00  0.00000000000E+00  0.51291678931E+03  0.51291678931E+03  0.00000000000E+00 0. -1.
         21   -1    0    0  501  502 -0.00000000000E+00 -0.00000000000E+00 -0.86111519507E+03  0.86111519507E+03  0.00000000000E+00 0. -1.
         25    1    1    2    0    0  0.23317317459E+02 -0.40816178020E+03 -0.56431639485E+03  0.70796732241E+03  0.12500000000E+03 0.  0.
         21    1    1    2  503  502 -0.10368875247E+03 -0.67433581288E+02 -0.25966285872E+02  0.12638391225E+03  0.00000000000E+00 0. -1.
         21    1    1    2  504  503  0.80371435011E+02  0.47559536148E+03  0.24208427497E+03  0.53968074972E+03  0.00000000000E+00 0. -1.
<mgrwt>
<rscale>  4 0.43695277E+03</rscale>
<asrwt>0</asrwt>
<pdfrwt beam="1">  1       21 0.78910275E-01 0.43695277E+03</pdfrwt>
<pdfrwt beam="2">  1       21 0.13247926E+00 0.43695277E+03</pdfrwt>
<totfact> 0.49094294E+02</totfact>
</mgrwt>
</event>
<event>
 5    0  0.1324511E+000  0.2320172E+03  0.7546771E-02  0.1125228E+00
         21   -1    0    0  504  501  0.00000000000E+00  0.00000000000E+00  0.10608202705E+03  0.10608202705E+03  0.00000000000E+00 0. -1.
         21   -1    0    0  501  502 -0.00000000000E+00 -0.00000000000E+00 -0.56080833817E+03  0.56080833817E+03  0.00000000000E+00 0. -1.
         25    1    1    2    0    0  0.58781308596E+01 -0.21307857524E+03 -0.21579084492E+03  0.32806664018E+03  0.12500000000E+03 0.  0.
         21    1    1    2  503  502 -0.11276262982E+02  0.29101254112E+02 -0.10937325665E+03  0.11373893954E+03  0.00000000000E+00 0. -1.
         21    1    1    2  504  503  0.53981321223E+01  0.18397732113E+03 -0.12956220955E+03  0.22508478550E+03  0.00000000000E+00 0. -1.
<mgrwt>
<rscale>  4 0.23201725E+03</rscale>
<asrwt>0</asrwt>
<pdfrwt beam="1">  1       21 0.16320312E-01 0.23201725E+03</pdfrwt>
<pdfrwt beam="2">  1       21 0.86278206E-01 0.23201725E+03</pdfrwt>
<totfact> 0.38167157E+04</totfact>
</mgrwt>
</event>
<event>
 5    0  0.1324511E+000  0.2823572E+03  0.7546771E-02  0.1094408E+00
         21   -1    0    0  504  501  0.00000000000E+00  0.00000000000E+00  0.41372784229E+03  0.41372784229E+03  0.00000000000E+00 0. -1.
         21   -1    0    0  501  502 -0.00000000000E+00 -0.00000000000E+00 -0.32035810820E+03  0.32035810820E+03  0.00000000000E+00 0. -1.
         25    1    1    2    0    0 -0.17847094119E+03  0.17957931832E+03 -0.18850896281E+03  0.33950145431E+03  0.12500000000E+03 0.  0.
         21    1    1    2  503  502  0.14417873553E+03 -0.68113106869E+02  0.15955744459E+03  0.22557810450E+03  0.00000000000E+00 0. -1.
         21    1    1    2  504  503  0.34292205658E+02 -0.11146621145E+03  0.12232125231E+03  0.16900639169E+03  0.00000000000E+00 0. -1.
<mgrwt>
<rscale>  4 0.28235724E+03</rscale>
<asrwt>0</asrwt>
<pdfrwt beam="1">  1       21 0.63650437E-01 0.28235724E+03</pdfrwt>
<pdfrwt beam="2">  1       21 0.49285863E-01 0.28235724E+03</pdfrwt>
<totfact> 0.84871463E+03</totfact>
</mgrwt>
</event>
<event>
 5    0  0.1324511E+000  0.2170088E+03  0.7546771E-02  0.1136133E+00
         21   -1    0    0  504  501  0.00000000000E+00  0.00000000000E+00  0.72191849271E+03  0.72191849271E+03  0.00000000000E+00 0. -1.
         21   -1    0    0  501  502 -0.00000000000E+00 -0.00000000000E+00 -0.13566474140E+03  0.13566474140E+03  0.00000000000E+00 0.  1.
         25    1    1    2    0    0 -0.75102339756E+02  0.20513629730E+03  0.59865659262E+02  0.25870863740E+03  0.12500000000E+03 0.  0.
         21    1    1    2  503  502 -0.39414952483E+02 -0.12176899340E+03  0.34989565078E+03  0.37256971518E+03  0.00000000000E+00 0. -1.
         21    1    1    2  504  503  0.11451729224E+03 -0.83367303906E+02  0.17649244126E+03  0.22630488153E+03  0.00000000000E+00 0. -1.
<mgrwt>
<rscale>  4 0.21700884E+03</rscale>
<asrwt>0</asrwt>
<pdfrwt beam="1">  1       21 0.11106438E+00 0.21700884E+03</pdfrwt>
<pdfrwt beam="2">  1       21 0.20871499E-01 0.21700884E+03</pdfrwt>
<totfact> 0.13380905E+04</totfact>
</mgrwt>
</event>
<event>
 5    0  0.1324511E+000  0.2266961E+03  0.7546771E-02  0.1128987E+00
         21   -1    0    0  504  501  0.00000000000E+00  0.00000000000E+00  0.34389864277E+03  0.34389864277E+03  0.00000000000E+00 0.  1.
         21   -1    0    0  501  502 -0.00000000000E+00 -0.00000000000E+00 -0.24444961504E+03  0.24444961504E+03  0.00000000000E+00 0.  1.
         25    1    1    2    0    0  0.14233957327E+03 -0.16685470313E+03 -0.94452322213E+02  0.26953160714E+03  0.12500000000E+03 0.  0.
         21    1    1    2  503  502 -0.23128423729E+02  0.71316997401E+02  0.13627812314E+03  0.15554023579E+03  0.00000000000E+00 0.  1.
         21    1    1    2  504  503 -0.11921114954E+03  0.95537705731E+02  0.57623226801E+02  0.16327641488E+03  0.00000000000E+00 0.  1.
<mgrwt>
<rscale>  4 0.22669612E+03</rscale>
<asrwt>0</asrwt>
<pdfrwt beam="1">  1       21 0.52907484E-01 0.22669612E+03</pdfrwt>
<pdfrwt beam="2">  1       21 0.37607633E-01 0.22669612E+03</pdfrwt>
<totfact> 0.22647177E+04</totfact>
</mgrwt>
</event>
<event>
 5    0  0.1324511E+000  0.2467298E+03  0.7546771E-02  0.1115389E+00
         21   -1    0    0  504  501  0.00000000000E+00  0.00000000000E+00  0.20568759907E+02  0.20568759907E+02  0.00000000000E+00 0.  1.
         21   -1    0    0  501  502 -0.00000000000E+00 -0.00000000000E+00 -0.26851941968E+04  0.26851941968E+04  0.00000000000E+00 0. -1.
         25    1    1    2    0    0 -0.20617560685E+03  0.52366149345E+02 -0.16725476292E+04  0.16906481498E+04  0.12500000000E+03 0.  0.
         21    1    1    2  503  502  0.17929541955E+03 -0.42475720527E+02 -0.80222261717E+03  0.82311126939E+03  0.00000000000E+00 0.  1.
         21    1    1    2  504  503  0.26880187304E+02 -0.98904288189E+01 -0.18985519054E+03  0.19200353754E+03  0.00000000000E+00 0. -1.
<mgrwt>
<rscale>  4 0.24672980E+03</rscale>
<asrwt>0</asrwt>
<pdfrwt beam="1">  1       21 0.31644254E-02 0.24672980E+03</pdfrwt>
<pdfrwt beam="2">  1       21 0.41310670E+00 0.24672980E+03</pdfrwt>
<totfact> 0.39053465E+03</totfact>
</mgrwt>
</event>
<event>
 5    0  0.1324511E+000  0.5400050E+03  0.7546771E-02  0.1004764E+00
         21   -1    0    0  504  501  0.00000000000E+00  0.00000000000E+00  0.26282882171E+03  0.26282882171E+03  0.00000000000E+00 0. -1.
         21   -1    0    0  501  502 -0.00000000000E+00 -0.00000000000E+00 -0.11056850051E+04  0.11056850051E+04  0.00000000000E+00 0.  1.
         25    1    1    2    0    0 -0.16845171756E+03  0.48078195857E+03 -0.30712285269E+03  0.60784596690E+03  0.12500000000E+03 0.  0.
         21    1    1    2  503  502  0.80074201727E+02 -0.69435945749E+02 -0.18371007262E+03  0.21209106329E+03  0.00000000000E+00 0. -1.
         21    1    1    2  504  503  0.88377515833E+02 -0.41134601282E+03 -0.35202325810E+03  0.54857679664E+03  0.00000000000E+00 0. -1.
<mgrwt>
<rscale>  4 0.53609897E+03</rscale>
<asrwt>0</asrwt>
<pdfrwt beam="1">  1       21 0.40435204E-01 0.54000499E+03</pdfrwt>
<pdfrwt beam="2">  1       21 0.17010538E+00 0.54000499E+03</pdfrwt>
<totfact> 0.10198417E+03</totfact>
</mgrwt>
</event>
<event>
 5    0  0.1324511E+000  0.2851919E+03  0.7546771E-02  0.1092887E+00
         21   -1    0    0  504  501  0.00000000000E+00  0.00000000000E+00  0.47970091498E+03  0.47970091498E+03  0.00000000000E+00 0. -1.
         21   -1    0    0  501  502 -0.00000000000E+00 -0.00000000000E+00 -0.24515091492E+03  0.24515091492E+03  0.00000000000E+00 0. -1.
         25    1    1    2    0    0 -0.39314617252E+02 -0.25330572817E+03 -0.92769459974E+02  0.29990098992E+03  0.12500000000E+03 0.  0.
         21    1    1    2  503  502  0.46965238904E+01  0.10262425819E+03  0.68516797002E+02  0.12348419809E+03  0.00000000000E+00 0. -1.
         21    1    1    2  504  503  0.34618093361E+02  0.15068146998E+03  0.25880266303E+03  0.30146664190E+03  0.00000000000E+00 0. -1.
<mgrwt>
<rscale>  4 0.28519192E+03</rscale>
<asrwt>0</asrwt>
<pdfrwt beam="1">  1       21 0.73800140E-01 0.28519192E+03</pdfrwt>
<pdfrwt beam="2">  1       21 0.37715526E-01 0.28519192E+03</pdfrwt>
<totfact> 0.10594354E+04</totfact>
</mgrwt>
</event>
<event>
 5    0  0.1324511E+000  0.2578978E+03  0.7546771E-02  0.1108413E+00
         21   -1    0    0  504  501  0.00000000000E+00  0.00000000000E+00  0.15916107025E+03  0.15916107025E+03  0.00000000000E+00 0.  1.
         21   -1    0    0  501  502 -0.00000000000E+00 -0.00000000000E+00 -0.38453606933E+03  0.38453606933E+03  0.00000000000E+00 0.  1.
         25    1    1    2    0    0  0.17915738515E+03  0.13707257671E+03 -0.93588078468E+02  0.27435376500E+03  0.12500000000E+03 0.  0.
         21    1    1    2  503  502 -0.31330343059E+02 -0.60382534857E+02 -0.31748658119E+02  0.75070754654E+02  0.00000000000E+00 0.  1.
         21    1    1    2  504  503 -0.14782704209E+03 -0.76690041848E+02 -0.10003826249E+03  0.19427261993E+03  0.00000000000E+00 0.  1.
<mgrwt>
<rscale>  4 0.25789777E+03</rscale>
<asrwt>0</asrwt>
<pdfrwt beam="1">  1       21 0.24486319E-01 0.25789777E+03</pdfrwt>
<pdfrwt beam="2">  1       21 0.59159394E-01 0.25789777E+03</pdfrwt>
<totfact> 0.40840579E+04</totfact>
</mgrwt>
</event>
<event>
 5    0  0.1324511E+000  0.2868604E+03  0.7546771E-02  0.1092000E+00
         21   -1    0    0  504  501  0.00000000000E+00  0.00000000000E+00  0.59268519193E+03  0.59268519193E+03  0.00000000000E+00 0.  1.
         21   -1    0    0  501  502 -0.00000000000E+00 -0.00000000000E+00 -0.13879005284E+03  0.13879005284E+03  0.00000000000E+00 0.  1.
         25    1    1    2    0    0 -0.22202903637E+03 -0.13178395790E+03  0.13328052190E+03  0.31631092626E+03  0.12500000000E+03 0.  0.
         21    1    1    2  503  502  0.19502599769E+03  0.11937395094E+03  0.25137033085E+03  0.33981218808E+03  0.00000000000E+00 0.  1.
         21    1    1    2  504  503  0.27003038681E+02  0.12410006961E+02  0.69244286338E+02  0.75352130436E+02  0.00000000000E+00 0.  1.
<mgrwt>
<rscale>  4 0.28686043E+03</rscale>
<asrwt>0</asrwt>
<pdfrwt beam="1">  1       21 0.91182336E-01 0.28686043E+03</pdfrwt>
<pdfrwt beam="2">  1       21 0.21352316E-01 0.28686043E+03</pdfrwt>
<totfact> 0.19820500E+04</totfact>
</mgrwt>
</event>
<event>
 5    0  0.1324511E+000  0.5762355E+03  0.7546771E-02  0.9957141E-01
         21   -1    0    0  504  501  0.00000000000E+00  0.00000000000E+00  0.26595885787E+04  0.26595885787E+04  0.00000000000E+00 0. -1.
         21   -1    0    0  501  502 -0.00000000000E+00 -0.00000000000E+00 -0.15498646705E+03  0.15498646705E+03  0.00000000000E+00 0. -1.
         25    1    1    2    0    0  0.23195303394E+03  0.51006518476E+03  0.18757386961E+04  0.19616292613E+04  0.12500000000E+03 0.  0.
         21    1    1    2  503  502  0.40420057340E+01 -0.88082578731E+02  0.61432309230E+02  0.10746537630E+03  0.00000000000E+00 0.  1.
         21    1    1    2  504  503 -0.23599503968E+03 -0.42198260603E+03  0.56743110632E+03  0.74548040817E+03  0.00000000000E+00 0. -1.
<mgrwt>
<rscale>  4 0.57570149E+03</rscale>
<asrwt>0</asrwt>
<pdfrwt beam="1">  1       21 0.40916744E+00 0.57623547E+03</pdfrwt>
<pdfrwt beam="2">  1       21 0.23844074E-01 0.57623547E+03</pdfrwt>
<totfact> 0.87949686E+01</totfact>
</mgrwt>
</event>
<event>
 5    0  0.1324511E+000  0.3760667E+03  0.7546771E-02  0.1052397E+00
         21   -1    0    0  504  501  0.00000000000E+00  0.00000000000E+00  0.61089339530E+03  0.61089339530E+03  0.00000000000E+00 0.  1.
         21   -1    0    0  501  502 -0.00000000000E+00 -0.00000000000E+00 -0.23522394224E+03  0.23522394224E+03  0.00000000000E+00 0.  1.
         25    1    1    2    0    0 -0.84586484178E+02  0.34445068731E+03  0.95932329353E+02  0.38810972818E+03  0.12500000000E+03 0.  0.
         21    1    1    2  503  502  0.55727626836E+01 -0.12662515103E+03  0.13309025503E+03  0.18378792273E+03  0.00000000000E+00 0. -1.
         21    1    1    2  504  503  0.79013721494E+02 -0.21782553628E+03  0.14664686867E+03  0.27421968663E+03  0.00000000000E+00 0.  1.
<mgrwt>
<rscale>  4 0.37606668E+03</rscale>
<asrwt>0</asrwt>
<pdfrwt beam="1">  1       21 0.93983599E-01 0.37606668E+03</pdfrwt>
<pdfrwt beam="2">  1       21 0.36188299E-01 0.37606668E+03</pdfrwt>
<totfact> 0.63352538E+03</totfact>
</mgrwt>
</event>
<event>
 5    0  0.1324511E+000  0.3198966E+03  0.7546771E-02  0.1075697E+00
         21   -1    0    0  504  501  0.00000000000E+00  0.00000000000E+00  0.20868058936E+03  0.20868058936E+03  0.00000000000E+00 0. -1.
         21   -1    0    0  501  502 -0.00000000000E+00 -0.00000000000E+00 -0.69959872714E+03  0.69959872714E+03  0.00000000000E+00 0.  1.
         25    1    1    2    0    0  0.78795424835E+02  0.28372539733E+03 -0.51336881558E+03  0.60488127833E+03  0.12500000000E+03 0.  0.
         21    1    1    2  503  502 -0.90276274413E+02 -0.22995483785E+03  0.11317613252E+02  0.24729965941E+03  0.00000000000E+00 0. -1.
         21    1    1    2  504  503  0.11480849578E+02 -0.53770559479E+02  0.11133064550E+02  0.56098378765E+02  0.00000000000E+00 0.  1.
<mgrwt>
<rscale>  4 0.31989658E+03</rscale>
<asrwt>0</asrwt>
<pdfrwt beam="1">  1       21 0.32104706E-01 0.31989658E+03</pdfrwt>
<pdfrwt beam="2">  1       21 0.10763057E+00 0.31989658E+03</pdfrwt>
<totfact> 0.59460001E+03</totfact>
</mgrwt>
</event>
<event>
 5    0  0.1324511E+000  0.3612866E+03  0.7546771E-02  0.1058076E+00
         21   -1    0    0  504  501  0.00000000000E+00  0.00000000000E+00  0.65268841752E+03  0.65268841752E+03  0.00000000000E+00 0. -1.
         21   -1    0    0  501  502 -0.00000000000E+00 -0.00000000000E+00 -0.32713411067E+03  0.32713411067E+03  0.00000000000E+00 0. -1.
         25    1    1    2    0    0  0.14825585466E+03  0.32295097413E+03 -0.10290573373E+03  0.39050188241E+03  0.12500000000E+03 0.  0.
         21    1    1    2  503  502 -0.23562788795E+01 -0.21073483558E+02 -0.20155672976E+02  0.29255681714E+02  0.00000000000E+00 0. -1.
         21    1    1    2  504  503 -0.14589957578E+03 -0.30187749057E+03  0.44861571356E+03  0.56006496407E+03  0.00000000000E+00 0. -1.
<mgrwt>
<rscale>  4 0.36128660E+03</rscale>
<asrwt>0</asrwt>
<pdfrwt beam="1">  1       21 0.10041360E+00 0.36128660E+03</pdfrwt>
<pdfrwt beam="2">  1       21 0.50328325E-01 0.36128660E+03</pdfrwt>
<totfact> 0.27479386E+03</totfact>
</mgrwt>
</event>
<event>
 5    0  0.1324511E+000  0.2973665E+03  0.7546771E-02  0.1086565E+00
         21   -1    0    0  504  501  0.00000000000E+00  0.00000000000E+00  0.20525599088E+03  0.20525599088E+03  0.00000000000E+00 0. -1.
         21   -1    0    0  501  502 -0.00000000000E+00 -0.00000000000E+00 -0.54727003799E+03  0.54727003799E+03  0.00000000000E+00 0. -1.
         25    1    1    2    0    0  0.24155465198E+03 -0.12022148653E+03 -0.37313489611E+03  0.47713363581E+03  0.12500000000E+03 0.  0.
         21    1    1    2  503  502 -0.20522606310E+03  0.11819474382E+03  0.21782817727E+02  0.23782814298E+03  0.00000000000E+00 0. -1.
         21    1    1    2  504  503 -0.36328588883E+02  0.20267427084E+01  0.93380312817E+01  0.37564250085E+02  0.00000000000E+00 0. -1.
<mgrwt>
<rscale>  4 0.29736653E+03</rscale>
<asrwt>0</asrwt>
<pdfrwt beam="1">  1       21 0.31577845E-01 0.29736653E+03</pdfrwt>
<pdfrwt beam="2">  1       21 0.84195390E-01 0.29736653E+03</pdfrwt>
<totfact> 0.11132169E+04</totfact>
</mgrwt>
</event>
<event>
 5    0  0.1324511E+000  0.3706141E+03  0.7546771E-02  0.1054657E+00
         21   -1    0    0  504  501  0.00000000000E+00  0.00000000000E+00  0.11395712284E+04  0.11395712284E+04  0.00000000000E+00 0. -1.
         21   -1    0    0  501  502 -0.00000000000E+00 -0.00000000000E+00 -0.64888121201E+03  0.64888121201E+03  0.00000000000E+00 0.  1.
         25    1    1    2    0    0  0.28443349629E+02  0.34552701596E+03 -0.56220570644E+03  0.67223373856E+03  0.12500000000E+03 0.  0.
         21    1    1    2  503  502 -0.70800792454E+02 -0.29235381115E+03  0.89860428756E+03  0.94761446207E+03  0.00000000000E+00 0. -1.
         21    1    1    2  504  503  0.42357442825E+02 -0.53173204818E+02  0.15429143531E+03  0.16860423981E+03  0.00000000000E+00 0.  1.
<mgrwt>
<rscale>  4 0.37009487E+03</rscale>
<asrwt>0</asrwt>
<pdfrwt beam="1">  1       21 0.17531865E+00 0.37061407E+03</pdfrwt>
<pdfrwt beam="2">  1       21 0.99827879E-01 0.37061407E+03</pdfrwt>
<totfact> 0.13643509E+02</totfact>
</mgrwt>
</event>
<event>
 5    0  0.1324511E+000  0.4479320E+03  0.7546771E-02  0.1028341E+00
         21   -1    0    0  504  501  0.00000000000E+00  0.00000000000E+00  0.36896014295E+03  0.36896014295E+03  0.00000000000E+00 0. -1.
         21   -1    0    0  501  502 -0.00000000000E+00 -0.00000000000E+00 -0.53125292948E+03  0.53125292948E+03  0.00000000000E+00 0. -1.
         25    1    1    2    0    0 -0.43910227229E+02  0.42789013978E+03 -0.45434790048E+02  0.45023038538E+03  0.12500000000E+03 0.  0.
         21    1    1    2  503  502  0.24104965203E+02 -0.51122713385E+02 -0.24201406444E+02  0.61484056837E+02  0.00000000000E+00 0. -1.
         21    1    1    2  504  503  0.19805262026E+02 -0.37676742639E+03 -0.92656590033E+02  0.38849863021E+03  0.00000000000E+00 0. -1.
<mgrwt>
<rscale>  4 0.44793200E+03</rscale>
<asrwt>0</asrwt>
<pdfrwt beam="1">  1       21 0.56763099E-01 0.44793200E+03</pdfrwt>
<pdfrwt beam="2">  1       21 0.81731220E-01 0.44793200E+03</pdfrwt>
<totfact> 0.33376377E+03</totfact>
</mgrwt>
</event>
<event>
 5    0  0.1324511E+000  0.4260913E+03  0.7546771E-02  0.1035102E+00
         21   -1    0    0  504  501  0.00000000000E+00  0.00000000000E+00  0.51429201646E+02  0.51429201646E+02  0.00000000000E+00 0. -1.
         21   -1    0    0  501  502 -0.00000000000E+00 -0.00000000000E+00 -0.35536255308E+04  0.35536255308E+04  0.00000000000E+00 0. -1.
         25    1    1    2    0    0  0.31707222035E+03 -0.25572256126E+03 -0.21084898866E+04  0.21511121364E+04  0.12500000000E+03 0.  0.
         21    1    1    2  503  502 -0.38190107599E+02  0.41654166184E+02 -0.12057810422E+03  0.13316393316E+03  0.00000000000E+00 0. -1.
         21    1    1    2  504  503 -0.27888211275E+03  0.21406839507E+03 -0.12731283383E+04  0.13207786629E+04  0.00000000000E+00 0. -1.
<mgrwt>
<rscale>  4 0.42609133E+03</rscale>
<asrwt>0</asrwt>
<pdfrwt beam="1">  1       21 0.79121822E-02 0.42609133E+03</pdfrwt>
<pdfrwt beam="2">  1       21 0.54671181E+00 0.42609133E+03</pdfrwt>
<totfact> 0.81383490E+01</totfact>
</mgrwt>
</event>
<event>
 5    0  0.1324511E+000  0.3075573E+03  0.7546771E-02  0.1081523E+00
         21   -1    0    0  504  501  0.00000000000E+00  0.00000000000E+00  0.30694620583E+03  0.30694620583E+03  0.00000000000E+00 0. -1.
         21   -1    0    0  501  502 -0.00000000000E+00 -0.00000000000E+00 -0.32569164903E+03  0.32569164903E+03  0.00000000000E+00 0. -1.
         25    1    1    2    0    0  0.27935012544E+03 -0.30495464017E+02 -0.12085766447E+03  0.33045126867E+03  0.12500000000E+03 0.  0.
         21    1    1    2  503  502 -0.25342556643E+03  0.20100232030E+02  0.10286858312E+03  0.27424529611E+03  0.00000000000E+00 0. -1.
         21    1    1    2  504  503 -0.25924559007E+02  0.10395231987E+02 -0.75636184972E+00  0.27941290074E+02  0.00000000000E+00 0.  1.
<mgrwt>
<rscale>  4 0.30755726E+03</rscale>
<asrwt>0</asrwt>
<pdfrwt beam="1">  1       21 0.47222493E-01 0.30755726E+03</pdfrwt>
<pdfrwt beam="2">  1       21 0.50106407E-01 0.30755726E+03</pdfrwt>
<totfact> 0.15347311E+04</totfact>
</mgrwt>
</event>
<event>
 5    0  0.1324511E+000  0.2552785E+03  0.7546771E-02  0.1110014E+00
         21   -1    0    0  504  501  0.00000000000E+00  0.00000000000E+00  0.39897980863E+03  0.39897980863E+03  0.00000000000E+00 0. -1.
         21   -1    0    0  501  502 -0.00000000000E+00 -0.00000000000E+00 -0.45950588678E+03  0.45950588678E+03  0.00000000000E+00 0. -1.
         25    1    1    2    0    0  0.21940305843E+03 -0.37475508219E+02 -0.38542980584E+03  0.46230212091E+03  0.12500000000E+03 0.  0.
         21    1    1    2  503  502 -0.37281578386E+02  0.22671072896E+02  0.54161939096E+02  0.69551486539E+02  0.00000000000E+00 0. -1.
         21    1    1    2  504  503 -0.18212148005E+03  0.14804435323E+02  0.27074178860E+03  0.32663208797E+03  0.00000000000E+00 0. -1.
<mgrwt>
<rscale>  4 0.25527851E+03</rscale>
<asrwt>0</asrwt>
<pdfrwt beam="1">  1       21 0.61381509E-01 0.25527851E+03</pdfrwt>
<pdfrwt beam="2">  1       21 0.70693214E-01 0.25527851E+03</pdfrwt>
<totfact> 0.42784174E+03</totfact>
</mgrwt>
</event>
<event>
 5    0  0.1324511E+000  0.2702330E+03  0.7546771E-02  0.1101146E+00
         21   -1    0    0  504  501  0.00000000000E+00  0.00000000000E+00  0.31481916874E+03  0.31481916874E+03  0.00000000000E+00 0.  1.
         21   -1    0    0  501  502 -0.00000000000E+00 -0.00000000000E+00 -0.23740506388E+03  0.23740506388E+03  0.00000000000E+00 0. -1.
         25    1    1    2    0    0 -0.24644150412E+03 -0.44000658153E+02  0.80829028302E+01  0.27992821613E+03  0.12500000000E+03 0.  0.
         21    1    1    2  503  502  0.22790187780E+03  0.28134323247E+02  0.38275016243E+02  0.23279987740E+03  0.00000000000E+00 0.  1.
         21    1    1    2  504  503  0.18539626321E+02  0.15866334906E+02  0.31056185787E+02  0.39496139091E+02  0.00000000000E+00 0. -1.
<mgrwt>
<rscale>  4 0.27023300E+03</rscale>
<asrwt>0</asrwt>
<pdfrwt beam="1">  1       21 0.48433718E-01 0.27023300E+03</pdfrwt>
<pdfrwt beam="2">  1       21 0.36523856E-01 0.27023300E+03</pdfrwt>
<totfact> 0.28344635E+04</totfact>
</mgrwt>
</event>
<event>
 5    0  0.1324511E+000  0.2789120E+03  0.7546771E-02  0.1096285E+00
         21   -1    0    0  504  501  0.00000000000E+00  0.00000000000E+00  0.16617074266E+04  0.16617074266E+04  0.00000000000E+00 0.  1.
         21   -1    0    0  501  502 -0.00000000000E+00 -0.00000000000E+00 -0.13494891769E+03  0.13494891769E+03  0.00000000000E+00 0.  1.
         25    1    1    2    0    0  0.19565320624E+03  0.15455333517E+03  0.33111651662E+02  0.28087059654E+03  0.12500000000E+03 0.  0.
         21    1    1    2  503  502 -0.17779187923E+02 -0.19428522465E+02  0.71364708794E+02  0.76068973107E+02  0.00000000000E+00 0. -1.
         21    1    1    2  504  503 -0.17787401831E+03 -0.13512481271E+03  0.14222821484E+04  0.14397167746E+04  0.00000000000E+00 0.  1.
<mgrwt>
<rscale>  4 0.27891201E+03</rscale>
<asrwt>0</asrwt>
<pdfrwt beam="1">  1       21 0.25564728E+00 0.27891201E+03</pdfrwt>
<pdfrwt beam="2">  1       21 0.20761373E-01 0.27891201E+03</pdfrwt>
<totfact> 0.12147492E+03</totfact>
</mgrwt>
</event>
<event>
 5    0  0.1324511E+000  0.2801611E+03  0.7546771E-02  0.1095601E+00
         21   -1    0    0  504  501  0.00000000000E+00  0.00000000000E+00  0.10429739539E+04  0.10429739539E+04  0.00000000000E+00 0. -1.
         21   -1    0    0  501  502 -0.00000000000E+00 -0.00000000000E+00 -0.14804310815E+03  0.14804310815E+03  0.00000000000E+00 0. -1.
         25    1    1    2    0    0  0.20442185241E+03  0.14517903644E+03  0.21370746428E+02  0.28097500808E+03  0.12500000000E+03 0.  0.
         21    1    1    2  503  502 -0.58160430087E+02 -0.19989984998E+02  0.24900838949E+03  0.25649057130E+03  0.00000000000E+00 0. -1.
         21    1    1    2  504  503 -0.14626142232E+03 -0.12518905144E+03  0.62455170983E+03  0.65355148268E+03  0.00000000000E+00 0. -1.
<mgrwt>
<rscale>  4 0.28016111E+03</rscale>
<asrwt>0</asrwt>
<pdfrwt beam="1">  1       21 0.16045753E+00 0.28016111E+03</pdfrwt>
<pdfrwt beam="2">  1       21 0.22775863E-01 0.28016111E+03</pdfrwt>
<totfact> 0.42326439E+03</totfact>
</mgrwt>
</event>
<event>
 5    0  0.1324511E+000  0.2985914E+03  0.7546771E-02  0.1085947E+00
         21   -1    0    0  504  501  0.00000000000E+00  0.00000000000E+00  0.23553816487E+03  0.23553816487E+03  0.00000000000E+00 0.  1.
         21   -1    0    0  501  502 -0.00000000000E+00 -0.00000000000E+00 -0.62604568263E+03  0.62604568263E+03  0.00000000000E+00 0.  1.
         25    1    1    2    0    0  0.20604151875E+03  0.17629155986E+03 -0.47486652160E+03  0.56094120446E+03  0.12500000000E+03 0.  0.
         21    1    1    2  503  502 -0.17330346077E+03 -0.11142961045E+03  0.95579344611E+02  0.22712564522E+03  0.00000000000E+00 0.  1.
         21    1    1    2  504  503 -0.32738057980E+02 -0.64861949412E+02 -0.11220340771E+02  0.73516997823E+02  0.00000000000E+00 0.  1.
<mgrwt>
<rscale>  4 0.29859140E+03</rscale>
<asrwt>0</asrwt>
<pdfrwt beam="1">  1       21 0.36236641E-01 0.29859140E+03</pdfrwt>
<pdfrwt beam="2">  1       21 0.96314719E-01 0.29859140E+03</pdfrwt>
<totfact> 0.61670983E+03</totfact>
</mgrwt>
</event>
<event>
 5    0  0.1324511E+000  0.3178454E+03  0.7546771E-02  0.1076645E+00
         21   -1    0    0  504  501  0.00000000000E+00  0.00000000000E+00  0.54591579145E+03  0.54591579145E+03  0.00000000000E+00 0.  1.
         21   -1    0    0  501  502 -0.00000000000E+00 -0.00000000000E+00 -0.19212960577E+03  0.19212960577E+03  0.00000000000E+00 0. -1.
         25    1    1    2    0    0  0.24836914026E+03  0.15399185142E+03  0.74005080424E+02  0.32634716494E+03  0.12500000000E+03 0.  0.
         21    1    1    2  503  502 -0.20919956271E+02 -0.34940454067E+02  0.16409366707E+02  0.43906118213E+02  0.00000000000E+00 0. -1.
         21    1    1    2  504  503 -0.22744918399E+03 -0.11905139735E+03  0.26337173855E+03  0.36779211407E+03  0.00000000000E+00 0.  1.
<mgrwt>
<rscale>  4 0.31784543E+03</rscale>
<asrwt>0</asrwt>
<pdfrwt beam="1">  1       21 0.83987044E-01 0.31784543E+03</pdfrwt>
<pdfrwt beam="2">  1       21 0.29558401E-01 0.31784543E+03</pdfrwt>
<totfact> 0.12644521E+04</totfact>
</mgrwt>
</event>
<event>
 5    0  0.1324511E+000  0.2151487E+03  0.7546771E-02  0.1137552E+00
         21   -1    0    0  504  501  0.00000000000E+00  0.00000000000E+00  0.14315758956E+03  0.14315758956E+03  0.00000000000E+00 0.  1.
         21   -1    0    0  501  502 -0.00000000000E+00 -0.00000000000E+00 -0.51764496644E+03  0.51764496644E+03  0.00000000000E+00 0.  1.
         25    1    1    2    0    0 -0.20975290004E+03 -0.21731247083E+02 -0.32896054893E+03  0.41025427351E+03  0.12500000000E+03 0.  0.
         21    1    1    2  503  502  0.86631837443E+02  0.71517564920E+02 -0.33356154083E+02  0.11718562355E+03  0.00000000000E+00 0.  1.
         21    1    1    2  504  503  0.12312106260E+03 -0.49786317837E+02 -0.12170673865E+02  0.13336265895E+03  0.00000000000E+00 0.  1.
<mgrwt>
<rscale>  4 0.21514869E+03</rscale>
<asrwt>0</asrwt>
<pdfrwt beam="1">  1       21 0.22024245E-01 0.21514869E+03</pdfrwt>
<pdfrwt beam="2">  1       21 0.79637686E-01 0.21514869E+03</pdfrwt>
<totfact> 0.26429432E+04</totfact>
</mgrwt>
</event>
<event>
 5    0  0.1324511E+000  0.4409431E+03  0.7546771E-02  0.1030458E+00
         21   -1    0    0  504  501  0.00000000000E+00  0.00000000000E+00  0.10394593024E+04  0.10394593024E+04  0.00000000000E+00 0.  1.
         21   -1    0    0  501  502 -0.00000000000E+00 -0.00000000000E+00 -0.18306883911E+03  0.18306883911E+03  0.00000000000E+00 0.  1.
         25    1    1    2    0    0  0.69184975704E+01 -0.42279773258E+03  0.38667116066E+03  0.58646856248E+03  0.12500000000E+03 0.  0.
         21    1    1    2  503  502 -0.13463778856E+02  0.35125106286E+03  0.42460486665E+03  0.55122397924E+03  0.00000000000E+00 0.  1.
         21    1    1    2  504  503  0.65452812860E+01  0.71546669717E+02  0.45114435927E+02  0.84835599743E+02  0.00000000000E+00 0.  1.
<mgrwt>
<rscale>  4 0.44094307E+03</rscale>
<asrwt>0</asrwt>
<pdfrwt beam="1">  1       21 0.15991681E+00 0.44094307E+03</pdfrwt>
<pdfrwt beam="2">  1       21 0.28164437E-01 0.44094307E+03</pdfrwt>
<totfact> 0.26164286E+03</totfact>
</mgrwt>
</event>
<event>
 5    0  0.1324511E+000  0.3521581E+03  0.7546771E-02  0.1061733E+00
         21   -1    0    0  504  501  0.00000000000E+00  0.00000000000E+00  0.29342309503E+03  0.29342309503E+03  0.00000000000E+00 0. -1.
         21   -1    0    0  501  502 -0.00000000000E+00 -0.00000000000E+00 -0.47078849208E+03  0.47078849208E+03  0.00000000000E+00 0. -1.
         25    1    1    2    0    0  0.33196692760E+03  0.12154580182E+02 -0.15639930818E+03  0.38786017898E+03  0.12500000000E+03 0.  0.
         21    1    1    2  503  502 -0.32180356823E+03 -0.58966676847E+02 -0.10561855306E+02  0.32733187790E+03  0.00000000000E+00 0. -1.
         21    1    1    2  504  503 -0.10163359374E+02  0.46812096666E+02 -0.10404233569E+02  0.49019530232E+02  0.00000000000E+00 0. -1.
<mgrwt>
<rscale>  4 0.35215813E+03</rscale>
<asrwt>0</asrwt>
<pdfrwt beam="1">  1       21 0.45142015E-01 0.35215813E+03</pdfrwt>
<pdfrwt beam="2">  1       21 0.72428999E-01 0.35215813E+03</pdfrwt>
<totfact> 0.74210352E+03</totfact>
</mgrwt>
</event>
<event>
 5    0  0.1324511E+000  0.2658888E+03  0.7546771E-02  0.1103656E+00
         21   -1    0    0  504  501  0.00000000000E+00  0.00000000000E+00  0.24266689671E+04  0.24266689671E+04  0.00000000000E+00 0.  1.
         21   -1    0    0  501  502 -0.00000000000E+00 -0.00000000000E+00 -0.30036922168E+02  0.30036922168E+02  0.00000000000E+00 0.  1.
         25    1    1    2    0    0 -0.20536989941E+03  0.11355649508E+03  0.16932741930E+04  0.17140228603E+04  0.12500000000E+03 0.  0.
         21    1    1    2  503  502  0.33180869670E+02 -0.70857032969E+01  0.70632503605E+02  0.78358968017E+02  0.00000000000E+00 0. -1.
         21    1    1    2  504  503  0.17218902974E+03 -0.10647079178E+03  0.63272534838E+03  0.66432406094E+03  0.00000000000E+00 0.  1.
<mgrwt>
<rscale>  4 0.26588884E+03</rscale>
<asrwt>0</asrwt>
<pdfrwt beam="1">  1       21 0.37333353E+00 0.26588884E+03</pdfrwt>
<pdfrwt beam="2">  1       21 0.46210668E-02 0.26588884E+03</pdfrwt>
<totfact> 0.35866920E+03</totfact>
</mgrwt>
</event>
<event>
 5    0  0.1324511E+000  0.2255743E+03  0.7546771E-02  0.1129794E+00
         21   -1    0    0  504  501  0.00000000000E+00  0.00000000000E+00  0.22525988198E+03  0.22525988198E+03  0.00000000000E+00 0.  1.
         21   -1    0    0  501  502 -0.00000000000E+00 -0.00000000000E+00 -0.45234648594E+03  0.45234648594E+03  0.00000000000E+00 0.  1.
         25    1    1    2    0    0 -0.24844024247E+03  0.19153159649E+02  0.26074420005E+02  0.27998977300E+03  0.12500000000E+03 0.  0.
         21    1    1    2  503  502  0.17691927192E+03 -0.95771136985E+01 -0.27053957068E+03  0.32339420092E+03  0.00000000000E+00 0.  1.
         21    1    1    2  504  503  0.71520970552E+02 -0.95760459508E+01  0.17378546720E+02  0.74222393998E+02  0.00000000000E+00 0.  1.
<mgrwt>
<rscale>  4 0.22557434E+03</rscale>
<asrwt>0</asrwt>
<pdfrwt beam="1">  1       21 0.34655367E-01 0.22557434E+03</pdfrwt>
<pdfrwt beam="2">  1       21 0.69591767E-01 0.22557434E+03</pdfrwt>
<totfact> 0.14761411E+04</totfact>
</mgrwt>
</event>
<event>
 5    0  0.1324511E+000  0.2851001E+03  0.7546771E-02  0.1092936E+00
         21   -1    0    0  504  501  0.00000000000E+00  0.00000000000E+00  0.10546514256E+03  0.10546514256E+03  0.00000000000E+00 0. -1.
         21   -1    0    0  501  502 -0.00000000000E+00 -0.00000000000E+00 -0.75989932643E+03  0.75989932643E+03  0.00000000000E+00 0. -1.
         25    1    1    2    0    0  0.25531945912E+03 -0.21657011990E+02 -0.40769777463E+03  0.49749324398E+03  0.12500000000E+03 0.  0.
         21    1    1    2  503  502 -0.74930716459E+02 -0.99702460125E+01 -0.23574864357E+02  0.79182020081E+02  0.00000000000E+00 0. -1.
         21    1    1    2  504  503 -0.18038874266E+03  0.31627258003E+02 -0.22316154488E+03  0.28868920493E+03  0.00000000000E+00 0. -1.
<mgrwt>
<rscale>  4 0.28510007E+03</rscale>
<asrwt>0</asrwt>
<pdfrwt beam="1">  1       21 0.16225406E-01 0.28510007E+03</pdfrwt>
<pdfrwt beam="2">  1       21 0.11690759E+00 0.28510007E+03</pdfrwt>
<totfact> 0.18197770E+04</totfact>
</mgrwt>
</event>
<event>
 5    0  0.1324511E+000  0.3004814E+03  0.7546771E-02  0.1085000E+00
         21   -1    0    0  504  501  0.00000000000E+00  0.00000000000E+00  0.27394095772E+03  0.27394095772E+03  0.00000000000E+00 0. -1.
         21   -1    0    0  501  502 -0.00000000000E+00 -0.00000000000E+00 -0.32063381322E+03  0.32063381322E+03  0.00000000000E+00 0. -1.
         25    1    1    2    0    0 -0.26997953891E+03 -0.42132181141E+02 -0.87303974436E+02  0.31290742412E+03  0.12500000000E+03 0.  0.
         21    1    1    2  503  502  0.18455696862E+02  0.17741013504E+02 -0.69836472936E+00  0.25609451773E+02  0.00000000000E+00 0.  1.
         21    1    1    2  504  503  0.25152384205E+03  0.24391167637E+02  0.41309483663E+02  0.25605789505E+03  0.00000000000E+00 0. -1.
<mgrwt>
<rscale>  4 0.30048140E+03</rscale>
<asrwt>0</asrwt>
<pdfrwt beam="1">  1       21 0.42144763E-01 0.30048140E+03</pdfrwt>
<pdfrwt beam="2">  1       21 0.49328279E-01 0.30048140E+03</pdfrwt>
<totfact> 0.20139518E+04</totfact>
</mgrwt>
</event>
<event>
 5    0  0.1324511E+000  0.3169282E+03  0.7546771E-02  0.1077072E+00
         21   -1    0    0  504  501  0.00000000000E+00  0.00000000000E+00  0.17927498806E+03  0.17927498806E+03  0.00000000000E+00 0. -1.
         21   -1    0    0  501  502 -0.00000000000E+00 -0.00000000000E+00 -0.54490354275E+03  0.54490354275E+03  0.00000000000E+00 0. -1.
         25    1    1    2    0    0  0.21925910464E+03  0.19168700522E+03 -0.14126351005E+03  0.34698536310E+03  0.12500000000E+03 0.  0.
         21    1    1    2  503  502 -0.28831467828E+02 -0.73816888661E+02 -0.59574087462E+02  0.99142616899E+02  0.00000000000E+00 0.  1.
         21    1    1    2  504  503 -0.19042763681E+03 -0.11787011655E+03 -0.16479095718E+03  0.27805055081E+03  0.00000000000E+00 0. -1.
<mgrwt>
<rscale>  4 0.31692817E+03</rscale>
<asrwt>0</asrwt>
<pdfrwt beam="1">  1       21 0.27580768E-01 0.31692817E+03</pdfrwt>
<pdfrwt beam="2">  1       21 0.83831314E-01 0.31692817E+03</pdfrwt>
<totfact> 0.14551377E+04</totfact>
</mgrwt>
</event>
<event>
 5    0  0.1324511E+000  0.3872663E+03  0.7546771E-02  0.1048280E+00
         21   -1    0    0  504  501  0.00000000000E+00  0.00000000000E+00  0.11310068600E+03  0.11310068600E+03  0.00000000000E+00 0.  1.
         21   -1    0    0  501  502 -0.00000000000E+00 -0.00000000000E+00 -0.13703284291E+04  0.13703284291E+04  0.00000000000E+00 0.  1.
         25    1    1    2    0    0  0.20664208676E+03  0.30795930022E+03 -0.77709166282E+03  0.87007834994E+03  0.12500000000E+03 0.  0.
         21    1    1    2  503  502 -0.21531786553E+03 -0.28974405203E+03 -0.46122390980E+03  0.58569693006E+03  0.00000000000E+00 0.  1.
         21    1    1    2  504  503  0.86757787739E+01 -0.18215248190E+02 -0.18912170474E+02  0.27653835105E+02  0.00000000000E+00 0.  1.
<mgrwt>
<rscale>  4 0.38726628E+03</rscale>
<asrwt>0</asrwt>
<pdfrwt beam="1">  1       21 0.17400106E-01 0.38726628E+03</pdfrwt>
<pdfrwt beam="2">  1       21 0.21081975E+00 0.38726628E+03</pdfrwt>
<totfact> 0.29928843E+03</totfact>
</mgrwt>
</event>
<event>
 5    0  0.1324511E+000  0.2583626E+03  0.7546771E-02  0.1108131E+00
         21   -1    0    0  504  501  0.00000000000E+00  0.00000000000E+00  0.17156636199E+04  0.17156636199E+04  0.00000000000E+00 0.  1.
         21   -1    0    0  501  502 -0.00000000000E+00 -0.00000000000E+00 -0.42608329903E+03  0.42608329903E+03  0.00000000000E+00 0.  1.
         25    1    1    2    0    0  0.84633000622E+02 -0.21146697350E+03 -0.37548681159E+03  0.45661402887E+03  0.12500000000E+03 0.  0.
         21    1    1    2  503  502 -0.58819268427E+02  0.25070748055E+02  0.61725296029E+03  0.62055577165E+03  0.00000000000E+00 0.  1.
         21    1    1    2  504  503 -0.25813732195E+02  0.18639622545E+03  0.10478141721E+04  0.10645771184E+04  0.00000000000E+00 0.  1.
<mgrwt>
<rscale>  4 0.25836259E+03</rscale>
<asrwt>0</asrwt>
<pdfrwt beam="1">  1       21 0.26394825E+00 0.25836259E+03</pdfrwt>
<pdfrwt beam="2">  1       21 0.65551278E-01 0.25836259E+03</pdfrwt>
<totfact> 0.10801339E+02</totfact>
</mgrwt>
</event>
<event>
 5    0  0.1324511E+000  0.3512215E+03  0.7546771E-02  0.1062115E+00
         21   -1    0    0  504  501  0.00000000000E+00  0.00000000000E+00  0.13688698287E+03  0.13688698287E+03  0.00000000000E+00 0. -1.
         21   -1    0    0  501  502 -0.00000000000E+00 -0.00000000000E+00 -0.86893396543E+03  0.86893396543E+03  0.00000000000E+00 0. -1.
         25    1    1    2    0    0  0.31852198745E+03  0.79216514871E+02 -0.33880168810E+03  0.48799907436E+03  0.12500000000E+03 0.  0.
         21    1    1    2  503  502 -0.25265888747E+03 -0.29929885269E+02 -0.28925713409E+03  0.38522980294E+03  0.00000000000E+00 0. -1.
         21    1    1    2  504  503 -0.65863099975E+02 -0.49286629602E+02 -0.10398816037E+03  0.13259207100E+03  0.00000000000E+00 0. -1.
<mgrwt>
<rscale>  4 0.35122146E+03</rscale>
<asrwt>0</asrwt>
<pdfrwt beam="1">  1       21 0.21059536E-01 0.35122146E+03</pdfrwt>
<pdfrwt beam="2">  1       21 0.13368215E+00 0.35122146E+03</pdfrwt>
<totfact> 0.77099198E+03</totfact>
</mgrwt>
</event>
<event>
 5    0  0.1324511E+000  0.2368465E+03  0.7546771E-02  0.1121912E+00
         21   -1    0    0  504  501  0.00000000000E+00  0.00000000000E+00  0.18450282022E+03  0.18450282022E+03  0.00000000000E+00 0. -1.
         21   -1    0    0  501  502 -0.00000000000E+00 -0.00000000000E+00 -0.15534587917E+04  0.15534587917E+04  0.00000000000E+00 0. -1.
         25    1    1    2    0    0 -0.16355947534E+03  0.11713054423E+03 -0.14837058158E+04  0.15024910030E+04  0.12500000000E+03 0.  0.
         21    1    1    2  503  502  0.13439536757E+03 -0.85627391784E+02  0.71933851119E+02  0.17483890867E+03  0.00000000000E+00 0. -1.
         21    1    1    2  504  503  0.29164107773E+02 -0.31503152450E+02  0.42815993209E+02  0.60631700215E+02  0.00000000000E+00 0. -1.
<mgrwt>
<rscale>  4 0.23684650E+03</rscale>
<asrwt>0</asrwt>
<pdfrwt beam="1">  1       21 0.28385048E-01 0.23684650E+03</pdfrwt>
<pdfrwt beam="2">  1       21 0.23899367E+00 0.23684650E+03</pdfrwt>
<totfact> 0.87225306E+02</totfact>
</mgrwt>
</event>
<event>
 5    0  0.1324511E+000  0.2771649E+03  0.7546771E-02  0.1097248E+00
         21   -1    0    0  504  501  0.00000000000E+00  0.00000000000E+00  0.36996472625E+03  0.36996472625E+03  0.00000000000E+00 0.  1.
         21   -1    0    0  501  502 -0.00000000000E+00 -0.00000000000E+00 -0.28161039411E+03  0.28161039411E+03  0.00000000000E+00 0.  1.
         25    1    1    2    0    0 -0.83643727254E+02 -0.25942208295E+03  0.27815889353E+02  0.30115579678E+03  0.12500000000E+03 0.  0.
         21    1    1    2  503  502 -0.33826962877E+01  0.41286868230E+02 -0.70286135624E+02  0.81585470418E+02  0.00000000000E+00 0. -1.
         21    1    1    2  504  503  0.87026423541E+02  0.21813521472E+03  0.13082457840E+03  0.26883385317E+03  0.00000000000E+00 0.  1.
<mgrwt>
<rscale>  4 0.27716489E+03</rscale>
<asrwt>0</asrwt>
<pdfrwt beam="1">  1       21 0.56917650E-01 0.27716489E+03</pdfrwt>
<pdfrwt beam="2">  1       21 0.43324676E-01 0.27716489E+03</pdfrwt>
<totfact> 0.14178280E+04</totfact>
</mgrwt>
</event>
<event>
 5    0  0.1324511E+000  0.4240146E+03  0.7546771E-02  0.1035768E+00
         21   -1    0    0  504  501  0.00000000000E+00  0.00000000000E+00  0.23189230897E+04  0.23189230897E+04  0.00000000000E+00 0. -1.
         21   -1    0    0  501  502 -0.00000000000E+00 -0.00000000000E+00 -0.12829245298E+03  0.12829245298E+03  0.00000000000E+00 0.  1.
         25    1    1    2    0    0  0.38053223226E+03 -0.14185479020E+03  0.33341745816E+03  0.54011088000E+03  0.12500000000E+03 0.  0.
         21    1    1    2  503  502  0.55313962416E+01  0.29163817605E+02  0.92586909873E+02  0.97228907643E+02  0.00000000000E+00 0. -1.
         21    1    1    2  504  503 -0.38606362850E+03  0.11269097259E+03  0.17646262687E+04  0.18098757551E+04  0.00000000000E+00 0. -1.
<mgrwt>
<rscale>  4 0.42401459E+03</rscale>
<asrwt>0</asrwt>
<pdfrwt beam="1">  1       21 0.35675737E+00 0.42401459E+03</pdfrwt>
<pdfrwt beam="2">  1       21 0.19737302E-01 0.42401459E+03</pdfrwt>
<totfact> 0.29770711E+02</totfact>
</mgrwt>
</event>
<event>
 5    0  0.1324511E+000  0.3382715E+03  0.7546771E-02  0.1067535E+00
         21   -1    0    0  504  501  0.00000000000E+00  0.00000000000E+00  0.32594362842E+03  0.32594362842E+03  0.00000000000E+00 0. -1.
         21   -1    0    0  501  502 -0.00000000000E+00 -0.00000000000E+00 -0.33336827210E+03  0.33336827210E+03  0.00000000000E+00 0.  1.
         25    1    1    2    0    0  0.31362710496E+03 -0.20991606499E+02 -0.39046050114E+02  0.34051755100E+03  0.12500000000E+03 0.  0.
         21    1    1    2  503  502 -0.27817853859E+03  0.73805488046E+01  0.35898447708E+02  0.28058237717E+03  0.00000000000E+00 0. -1.
         21    1    1    2  504  503 -0.35448566372E+02  0.13611057694E+02 -0.42770412751E+01  0.38211972358E+02  0.00000000000E+00 0.  1.
<mgrwt>
<rscale>  4 0.33827150E+03</rscale>
<asrwt>0</asrwt>
<pdfrwt beam="1">  1       21 0.50145173E-01 0.33827150E+03</pdfrwt>
<pdfrwt beam="2">  1       21 0.51287427E-01 0.33827150E+03</pdfrwt>
<totfact> 0.12720625E+04</totfact>
</mgrwt>
</event>
<event>
 5    0  0.1324511E+000  0.2899313E+03  0.7546771E-02  0.1090385E+00
         21   -1    0    0  504  501  0.00000000000E+00  0.00000000000E+00  0.19304566577E+03  0.19304566577E+03  0.00000000000E+00 0.  1.
         21   -1    0    0  501  502 -0.00000000000E+00 -0.00000000000E+00 -0.56322578851E+03  0.56322578851E+03  0.00000000000E+00 0.  1.
         25    1    1    2    0    0 -0.26068400695E+03 -0.21886622076E+02 -0.39499824750E+03  0.48998346017E+03  0.12500000000E+03 0.  0.
         21    1    1    2  503  502  0.24213601888E+03  0.31163372289E+02  0.19696628142E+02  0.24492644726E+03  0.00000000000E+00 0.  1.
         21    1    1    2  504  503  0.18547988080E+02 -0.92767502123E+01  0.51214966193E+01  0.21361546852E+02  0.00000000000E+00 0. -1.
<mgrwt>
<rscale>  4 0.28993133E+03</rscale>
<asrwt>0</asrwt>
<pdfrwt beam="1">  1       21 0.29699333E-01 0.28993133E+03</pdfrwt>
<pdfrwt beam="2">  1       21 0.86650122E-01 0.28993133E+03</pdfrwt>
<totfact> 0.11794787E+04</totfact>
</mgrwt>
</event>
<event>
 5    0  0.1324511E+000  0.3161360E+03  0.7546771E-02  0.1077442E+00
         21   -1    0    0  504  501  0.00000000000E+00  0.00000000000E+00  0.78573614296E+03  0.78573614296E+03  0.00000000000E+00 0.  1.
         21   -1    0    0  501  502 -0.00000000000E+00 -0.00000000000E+00 -0.61484381949E+03  0.61484381949E+03  0.00000000000E+00 0.  1.
         25    1    1    2    0    0 -0.29020226106E+03  0.99798305636E+01 -0.53924687450E+03  0.62508330725E+03  0.12500000000E+03 0.  0.
         21    1    1    2  503  502  0.43528423274E+02 -0.32785115286E+02  0.67422477550E+02  0.86691279239E+02  0.00000000000E+00 0.  1.
         21    1    1    2  504  503  0.24667383779E+03  0.22805284723E+02  0.64271672042E+03  0.68880537597E+03  0.00000000000E+00 0.  1.
<mgrwt>
<rscale>  4 0.31613597E+03</rscale>
<asrwt>0</asrwt>
<pdfrwt beam="1">  1       21 0.12088248E+00 0.31613597E+03</pdfrwt>
<pdfrwt beam="2">  1       21 0.94591357E-01 0.31613597E+03</pdfrwt>
<totfact> 0.43529024E+02</totfact>
</mgrwt>
</event>
<event>
 5    0  0.1324511E+000  0.2408227E+03  0.7546771E-02  0.1119246E+00
         21   -1    0    0  504  501  0.00000000000E+00  0.00000000000E+00  0.58397378773E+03  0.58397378773E+03  0.00000000000E+00 0. -1.
         21   -1    0    0  501  502 -0.00000000000E+00 -0.00000000000E+00 -0.94120559342E+02  0.94120559342E+02  0.00000000000E+00 0.  1.
         25    1    1    2    0    0 -0.13993508431E+03 -0.15095945545E+03  0.21477311410E+03  0.32268107405E+03  0.12500000000E+03 0.  0.
         21    1    1    2  503  502  0.46720651742E+00  0.52109002145E+02  0.45500140217E+02  0.69179687382E+02  0.00000000000E+00 0. -1.
         21    1    1    2  504  503  0.13946787779E+03  0.98850453300E+02  0.22957997407E+03  0.28623358564E+03  0.00000000000E+00 0. -1.
<mgrwt>
<rscale>  4 0.24082273E+03</rscale>
<asrwt>0</asrwt>
<pdfrwt beam="1">  1       21 0.89842119E-01 0.24082273E+03</pdfrwt>
<pdfrwt beam="2">  1       21 0.14480086E-01 0.24082273E+03</pdfrwt>
<totfact> 0.43100763E+04</totfact>
</mgrwt>
</event>
<event>
 5    0  0.1324511E+000  0.2520941E+03  0.7546771E-02  0.1111988E+00
         21   -1    0    0  504  501  0.00000000000E+00  0.00000000000E+00  0.11855389748E+03  0.11855389748E+03  0.00000000000E+00 0.  1.
         21   -1    0    0  501  502 -0.00000000000E+00 -0.00000000000E+00 -0.51916530230E+03  0.51916530230E+03  0.00000000000E+00 0. -1.
         25    1    1    2    0    0 -0.54598415020E+01 -0.21885302007E+03 -0.30645091019E+03  0.39681685274E+03  0.12500000000E+03 0.  0.
         21    1    1    2  503  502  0.75768160113E+01  0.19059303836E+03 -0.93803172935E+02  0.21256093165E+03  0.00000000000E+00 0.  1.
         21    1    1    2  504  503 -0.21169745093E+01  0.28259981708E+02 -0.35732169744E+00  0.28341415385E+02  0.00000000000E+00 0. -1.
<mgrwt>
<rscale>  4 0.25209414E+03</rscale>
<asrwt>0</asrwt>
<pdfrwt beam="1">  1       21 0.18239061E-01 0.25209414E+03</pdfrwt>
<pdfrwt beam="2">  1       21 0.79871586E-01 0.25209414E+03</pdfrwt>
<totfact> 0.36744237E+04</totfact>
</mgrwt>
</event>
<event>
 5    0  0.1324511E+000  0.2443660E+03  0.7546771E-02  0.1116918E+00
         21   -1    0    0  504  501  0.00000000000E+00  0.00000000000E+00  0.13565713501E+03  0.13565713501E+03  0.00000000000E+00 0. -1.
         21   -1    0    0  501  502 -0.00000000000E+00 -0.00000000000E+00 -0.58237291637E+03  0.58237291637E+03  0.00000000000E+00 0. -1.
         25    1    1    2    0    0 -0.20821521697E+03  0.27132352047E+02 -0.43043315443E+03  0.49496206070E+03  0.12500000000E+03 0.  0.
         21    1    1    2  503  502  0.18007197684E+03  0.25173425682E+01 -0.31030568335E+01  0.18011630359E+03  0.00000000000E+00 0. -1.
         21    1    1    2  504  503  0.28143240130E+02 -0.29649694615E+02 -0.13179570096E+02  0.42951687088E+02  0.00000000000E+00 0.  1.
<mgrwt>
<rscale>  4 0.24436600E+03</rscale>
<asrwt>0</asrwt>
<pdfrwt beam="1">  1       21 0.20870328E-01 0.24436600E+03</pdfrwt>
<pdfrwt beam="2">  1       21 0.89595834E-01 0.24436600E+03</pdfrwt>
<totfact> 0.21987558E+04</totfact>
</mgrwt>
</event>
<event>
 5    0  0.1324511E+000  0.2494221E+03  0.7546771E-02  0.1113671E+00
         21   -1    0    0  504  501  0.00000000000E+00  0.00000000000E+00  0.19513892345E+03  0.19513892345E+03  0.00000000000E+00 0.  1.
         21   -1    0    0  501  502 -0.00000000000E+00 -0.00000000000E+00 -0.55813934748E+03  0.55813934748E+03  0.00000000000E+00 0.  1.
         25    1    1    2    0    0  0.39598012813E+02  0.21631272257E+03 -0.43990107970E+03  0.50744177645E+03  0.12500000000E+03 0.  0.
         21    1    1    2  503  502  0.93577057588E+01 -0.21270463617E+02  0.32412238892E+02  0.39881731527E+02  0.00000000000E+00 0.  1.
         21    1    1    2  504  503 -0.48955718572E+02 -0.19504225895E+03  0.44488416770E+02  0.20595476296E+03  0.00000000000E+00 0.  1.
<mgrwt>
<rscale>  4 0.24942215E+03</rscale>
<asrwt>0</asrwt>
<pdfrwt beam="1">  1       21 0.30021373E-01 0.24942215E+03</pdfrwt>
<pdfrwt beam="2">  1       21 0.85867591E-01 0.24942215E+03</pdfrwt>
<totfact> 0.12033430E+04</totfact>
</mgrwt>
</event>
<event>
 5    0  0.1324511E+000  0.3293795E+03  0.7546771E-02  0.1071412E+00
         21   -1    0    0  504  501  0.00000000000E+00  0.00000000000E+00  0.95246452044E+03  0.95246452044E+03  0.00000000000E+00 0. -1.
         21   -1    0    0  501  502 -0.00000000000E+00 -0.00000000000E+00 -0.11122619561E+03  0.11122619561E+03  0.00000000000E+00 0. -1.
         25    1    1    2    0    0  0.30440815651E+03 -0.14196114808E+02  0.37868310365E+03  0.50188818318E+03  0.12500000000E+03 0.  0.
         21    1    1    2  503  502 -0.26696291240E+02  0.20202516174E+02  0.97456261643E+02  0.10304638062E+03  0.00000000000E+00 0. -1.
         21    1    1    2  504  503 -0.27771186527E+03 -0.60064013656E+01  0.36509895954E+03  0.45875615225E+03  0.00000000000E+00 0. -1.
<mgrwt>
<rscale>  4 0.32937950E+03</rscale>
<asrwt>0</asrwt>
<pdfrwt beam="1">  1       21 0.14653300E+00 0.32937950E+03</pdfrwt>
<pdfrwt beam="2">  1       21 0.17111723E-01 0.32937950E+03</pdfrwt>
<totfact> 0.90361806E+03</totfact>
</mgrwt>
</event>
<event>
 5    0  0.1324511E+000  0.2612179E+03  0.7546771E-02  0.1106414E+00
         21   -1    0    0  504  501  0.00000000000E+00  0.00000000000E+00  0.77831942804E+03  0.77831942804E+03  0.00000000000E+00 0.  1.
         21   -1    0    0  501  502 -0.00000000000E+00 -0.00000000000E+00 -0.45858779264E+03  0.45858779264E+03  0.00000000000E+00 0. -1.
         25    1    1    2    0    0  0.55146271287E+02 -0.22196217159E+03 -0.37268557378E+03  0.45478330417E+03  0.12500000000E+03 0.  0.
         21    1    1    2  503  502  0.66631042696E+02  0.50712605637E+01  0.27602751479E+02  0.72300244977E+02  0.00000000000E+00 0. -1.
         21    1    1    2  504  503 -0.12177731398E+03  0.21689091102E+03  0.66481445770E+03  0.70982367152E+03  0.00000000000E+00 0.  1.
<mgrwt>
<rscale>  4 0.26121790E+03</rscale>
<asrwt>0</asrwt>
<pdfrwt beam="1">  1       21 0.11974145E+00 0.26121790E+03</pdfrwt>
<pdfrwt beam="2">  1       21 0.70551968E-01 0.26121790E+03</pdfrwt>
<totfact> 0.90929371E+02</totfact>
</mgrwt>
</event>
<event>
 5    0  0.1324511E+000  0.3160539E+03  0.7546771E-02  0.1077480E+00
         21   -1    0    0  504  501  0.00000000000E+00  0.00000000000E+00  0.11493284571E+04  0.11493284571E+04  0.00000000000E+00 0.  1.
         21   -1    0    0  501  502 -0.00000000000E+00 -0.00000000000E+00 -0.17617773126E+03  0.17617773126E+03  0.00000000000E+00 0.  1.
         25    1    1    2    0    0  0.23886792790E+03  0.22417004508E+03  0.84554785705E+03  0.91536128094E+03  0.12500000000E+03 0.  0.
         21    1    1    2  503  502 -0.94461670925E+02 -0.12629254416E+03  0.16867923644E+03  0.23092314477E+03  0.00000000000E+00 0.  1.
         21    1    1    2  504  503 -0.14440625698E+03 -0.97877500919E+02 -0.41076367615E+02  0.17922176267E+03  0.00000000000E+00 0.  1.
<mgrwt>
<rscale>  4 0.31605389E+03</rscale>
<asrwt>0</asrwt>
<pdfrwt beam="1">  1       21 0.17681976E+00 0.31605389E+03</pdfrwt>
<pdfrwt beam="2">  1       21 0.27104267E-01 0.31605389E+03</pdfrwt>
<totfact> 0.22578787E+03</totfact>
</mgrwt>
</event>
<event>
 5    0  0.1324511E+000  0.2634749E+03  0.7546771E-02  0.1105073E+00
         21   -1    0    0  504  501  0.00000000000E+00  0.00000000000E+00  0.16428896340E+03  0.16428896340E+03  0.00000000000E+00 0. -1.
         21   -1    0    0  501  502 -0.00000000000E+00 -0.00000000000E+00 -0.42781123538E+03  0.42781123538E+03  0.00000000000E+00 0. -1.
         25    1    1    2    0    0 -0.15161752653E+03 -0.17551675536E+03 -0.22066017423E+03  0.34367123571E+03  0.12500000000E+03 0.  0.
         21    1    1    2  503  502  0.45177904701E+02  0.38250696770E+02 -0.45576636042E+02  0.74708691793E+02  0.00000000000E+00 0. -1.
         21    1    1    2  504  503  0.10643962183E+03  0.13726605859E+03  0.27145382878E+01  0.17372027128E+03  0.00000000000E+00 0. -1.
<mgrwt>
<rscale>  4 0.26347487E+03</rscale>
<asrwt>0</asrwt>
<pdfrwt beam="1">  1       21 0.25275225E-01 0.26347487E+03</pdfrwt>
<pdfrwt beam="2">  1       21 0.65817113E-01 0.26347487E+03</pdfrwt>
<totfact> 0.30390992E+04</totfact>
</mgrwt>
</event>
<event>
 5    0  0.1324511E+000  0.3322511E+03  0.7546771E-02  0.1070145E+00
         21   -1    0    0  504  501  0.00000000000E+00  0.00000000000E+00  0.56684553385E+03  0.56684553385E+03  0.00000000000E+00 0.  1.
         21   -1    0    0  501  502 -0.00000000000E+00 -0.00000000000E+00 -0.20612970992E+03  0.20612970992E+03  0.00000000000E+00 0.  1.
         25    1    1    2    0    0 -0.27939039285E+03  0.12925488804E+03  0.30197882402E+03  0.44897887239E+03  0.12500000000E+03 0.  0.
         21    1    1    2  503  502  0.18366129141E+02 -0.33557149138E+02  0.20393444844E+02  0.43350773356E+02  0.00000000000E+00 0.  1.
         21    1    1    2  504  503  0.26102426370E+03 -0.95697738901E+02  0.38343555071E+02  0.28064559802E+03  0.00000000000E+00 0.  1.
<mgrwt>
<rscale>  4 0.33225114E+03</rscale>
<asrwt>0</asrwt>
<pdfrwt beam="1">  1       21 0.87207004E-01 0.33225114E+03</pdfrwt>
<pdfrwt beam="2">  1       21 0.31712263E-01 0.33225114E+03</pdfrwt>
<totfact> 0.10021466E+04</totfact>
</mgrwt>
</event>
<event>
 5    0  0.1324511E+000  0.2535245E+03  0.7546771E-02  0.1111097E+00
         21   -1    0    0  504  501  0.00000000000E+00  0.00000000000E+00  0.20767960850E+04  0.20767960850E+04  0.00000000000E+00 0.  1.
         21   -1    0    0  501  502 -0.00000000000E+00 -0.00000000000E+00 -0.45416253670E+02  0.45416253670E+02  0.00000000000E+00 0.  1.
         25    1    1    2    0    0  0.85392547865E+02  0.20336608912E+03  0.39718980858E+03  0.47120526045E+03  0.12500000000E+03 0.  0.
         21    1    1    2  503  502 -0.68476926039E+02 -0.15341798963E+03  0.14405792660E+04  0.14503429907E+04  0.00000000000E+00 0.  1.
         21    1    1    2  504  503 -0.16915621826E+02 -0.49948099497E+02  0.19361075677E+03  0.20066408757E+03  0.00000000000E+00 0. -1.
<mgrwt>
<rscale>  4 0.25352446E+03</rscale>
<asrwt>0</asrwt>
<pdfrwt beam="1">  1       21 0.31950702E+00 0.25352446E+03</pdfrwt>
<pdfrwt beam="2">  1       21 0.69871176E-02 0.25352446E+03</pdfrwt>
<totfact> 0.37433788E+03</totfact>
</mgrwt>
</event>
<event>
 5    0  0.1324511E+000  0.2662940E+03  0.7546771E-02  0.1103420E+00
         21   -1    0    0  504  501  0.00000000000E+00  0.00000000000E+00  0.12876550176E+04  0.12876550176E+04  0.00000000000E+00 0. -1.
         21   -1    0    0  501  502 -0.00000000000E+00 -0.00000000000E+00 -0.97752611839E+02  0.97752611839E+02  0.00000000000E+00 0. -1.
         25    1    1    2    0    0  0.29643426716E+02 -0.23325683452E+03  0.12550614298E+03  0.29438796770E+03  0.12500000000E+03 0.  0.
         21    1    1    2  503  502 -0.12887145650E+02  0.70249282135E+02  0.42498606428E+03  0.43094569843E+03  0.00000000000E+00 0. -1.
         21    1    1    2  504  503 -0.16756281066E+02  0.16300755239E+03  0.63941019847E+03  0.66007396328E+03  0.00000000000E+00 0. -1.
<mgrwt>
<rscale>  4 0.26629398E+03</rscale>
<asrwt>0</asrwt>
<pdfrwt beam="1">  1       21 0.19810076E+00 0.26629398E+03</pdfrwt>
<pdfrwt beam="2">  1       21 0.15038864E-01 0.26629398E+03</pdfrwt>
<totfact> 0.50853205E+03</totfact>
</mgrwt>
</event>
<event>
 5    0  0.1324511E+000  0.2305404E+03  0.7546771E-02  0.1126260E+00
         21   -1    0    0  504  501  0.00000000000E+00  0.00000000000E+00  0.94728905177E+02  0.94728905177E+02  0.00000000000E+00 0. -1.
         21   -1    0    0  501  502 -0.00000000000E+00 -0.00000000000E+00 -0.66192878548E+03  0.66192878548E+03  0.00000000000E+00 0. -1.
         25    1    1    2    0    0 -0.88565879415E+02  0.18671645141E+03 -0.38841297057E+03  0.45738013067E+03  0.12500000000E+03 0.  0.
         21    1    1    2  503  502  0.57696018038E+02 -0.98373755783E+01 -0.61004600130E+02  0.84540911355E+02  0.00000000000E+00 0. -1.
         21    1    1    2  504  503  0.30869861376E+02 -0.17687907584E+03 -0.11778230960E+03  0.21473664863E+03  0.00000000000E+00 0. -1.
<mgrwt>
<rscale>  4 0.23054036E+03</rscale>
<asrwt>0</asrwt>
<pdfrwt beam="1">  1       21 0.14573678E-01 0.23054036E+03</pdfrwt>
<pdfrwt beam="2">  1       21 0.10183520E+00 0.23054036E+03</pdfrwt>
<totfact> 0.31842900E+04</totfact>
</mgrwt>
</event>
<event>
 5    0  0.1324511E+000  0.2375837E+03  0.7546771E-02  0.1121413E+00
         21   -1    0    0  504  501  0.00000000000E+00  0.00000000000E+00  0.23913802194E+03  0.23913802194E+03  0.00000000000E+00 0. -1.
         21   -1    0    0  501  502 -0.00000000000E+00 -0.00000000000E+00 -0.71569493064E+03  0.71569493064E+03  0.00000000000E+00 0. -1.
         25    1    1    2    0    0 -0.17843206381E+03 -0.12449294225E+03 -0.61424979376E+03  0.66352415420E+03  0.12500000000E+03 0.  0.
         21    1    1    2  503  502  0.12617140866E+03  0.16633735784E+02  0.11019547889E+03  0.16834176278E+03  0.00000000000E+00 0. -1.
         21    1    1    2  504  503  0.52260655155E+02  0.10785920646E+03  0.27497406173E+02  0.12296703559E+03  0.00000000000E+00 0. -1.
<mgrwt>
<rscale>  4 0.23758367E+03</rscale>
<asrwt>0</asrwt>
<pdfrwt beam="1">  1       21 0.36790465E-01 0.23758367E+03</pdfrwt>
<pdfrwt beam="2">  1       21 0.11010691E+00 0.23758367E+03</pdfrwt>
<totfact> 0.44880381E+03</totfact>
</mgrwt>
</event>
<event>
 5    0  0.1324511E+000  0.3217962E+03  0.7546771E-02  0.1074826E+00
         21   -1    0    0  504  501  0.00000000000E+00  0.00000000000E+00  0.54744317374E+03  0.54744317374E+03  0.00000000000E+00 0. -1.
         21   -1    0    0  501  502 -0.00000000000E+00 -0.00000000000E+00 -0.62300139870E+03  0.62300139870E+03  0.00000000000E+00 0.  1.
         25    1    1    2    0    0  0.24600036964E+03  0.18041566766E+03 -0.37550853754E+03  0.49969756530E+03  0.12500000000E+03 0.  0.
         21    1    1    2  503  502 -0.19990337587E+03  0.15844498386E+03  0.95877822855E+02  0.27250454952E+03  0.00000000000E+00 0. -1.
         21    1    1    2  504  503 -0.46096993769E+02 -0.33886065152E+03  0.20407248973E+03  0.39824245762E+03  0.00000000000E+00 0. -1.
<mgrwt>
<rscale>  4 0.32179624E+03</rscale>
<asrwt>0</asrwt>
<pdfrwt beam="1">  1       21 0.84222027E-01 0.32179624E+03</pdfrwt>
<pdfrwt beam="2">  1       21 0.95846369E-01 0.32179624E+03</pdfrwt>
<totfact> 0.10046649E+03</totfact>
</mgrwt>
</event>
<event>
 5    0  0.1324511E+000  0.3391189E+03  0.7546771E-02  0.1067172E+00
         21   -1    0    0  504  501  0.00000000000E+00  0.00000000000E+00  0.23514005533E+03  0.23514005533E+03  0.00000000000E+00 0. -1.
         21   -1    0    0  501  502 -0.00000000000E+00 -0.00000000000E+00 -0.69185305008E+03  0.69185305008E+03  0.00000000000E+00 0.  1.
         25    1    1    2    0    0  0.27742257449E+02  0.32252433582E+03 -0.43724792185E+03  0.55821351221E+03  0.12500000000E+03 0.  0.
         21    1    1    2  503  502 -0.86147850804E+02 -0.28739096431E+03 -0.18883699233E+02  0.30061871642E+03  0.00000000000E+00 0. -1.
         21    1    1    2  504  503  0.58405593354E+02 -0.35133371512E+02 -0.58137367150E+00  0.68160876786E+02  0.00000000000E+00 0. -1.
<mgrwt>
<rscale>  4 0.33911889E+03</rscale>
<asrwt>0</asrwt>
<pdfrwt beam="1">  1       21 0.36175393E-01 0.33911889E+03</pdfrwt>
<pdfrwt beam="2">  1       21 0.10643893E+00 0.33911889E+03</pdfrwt>
<totfact> 0.47672748E+03</totfact>
</mgrwt>
</event>
<event>
 5    0  0.1324511E+000  0.2584095E+03  0.7546771E-02  0.1108103E+00
         21   -1    0    0  504  501  0.00000000000E+00  0.00000000000E+00  0.27017761646E+03  0.27017761646E+03  0.00000000000E+00 0. -1.
         21   -1    0    0  501  502 -0.00000000000E+00 -0.00000000000E+00 -0.99575484733E+03  0.99575484733E+03  0.00000000000E+00 0.  1.
         25    1    1    2    0    0 -0.31752761543E+02 -0.22679945074E+03 -0.91503277260E+03  0.95150207759E+03  0.12500000000E+03 0.  0.
         21    1    1    2  503  502  0.65286966543E+01  0.19096744097E+03  0.19155087042E+03  0.27056038762E+03  0.00000000000E+00 0. -1.
         21    1    1    2  504  503  0.25224064888E+02  0.35832009768E+02 -0.20953286859E+01  0.43869998585E+02  0.00000000000E+00 0.  1.
<mgrwt>
<rscale>  4 0.25840948E+03</rscale>
<asrwt>0</asrwt>
<pdfrwt beam="1">  1       21 0.41565787E-01 0.25840948E+03</pdfrwt>
<pdfrwt beam="2">  1       21 0.15319305E+00 0.25840948E+03</pdfrwt>
<totfact> 0.14874428E+03</totfact>
</mgrwt>
</event>
<event>
 5    0  0.1324511E+000  0.2506845E+03  0.7546771E-02  0.1112873E+00
         21   -1    0    0  504  501  0.00000000000E+00  0.00000000000E+00  0.20165131485E+03  0.20165131485E+03  0.00000000000E+00 0. -1.
         21   -1    0    0  501  502 -0.00000000000E+00 -0.00000000000E+00 -0.28697948811E+03  0.28697948811E+03  0.00000000000E+00 0. -1.
         25    1    1    2    0    0  0.17947072525E+03 -0.12250703416E+03 -0.88971123113E+02  0.26600484091E+03  0.12500000000E+03 0.  0.
         21    1    1    2  503  502 -0.15704529188E+03  0.92318261917E+02 -0.10440081703E+02  0.18246884800E+03  0.00000000000E+00 0. -1.
         21    1    1    2  504  503 -0.22425433372E+02  0.30188772239E+02  0.14083031561E+02  0.40157114055E+02  0.00000000000E+00 0.  1.
<mgrwt>
<rscale>  4 0.25068449E+03</rscale>
<asrwt>0</asrwt>
<pdfrwt beam="1">  1       21 0.31023279E-01 0.25068449E+03</pdfrwt>
<pdfrwt beam="2">  1       21 0.44150690E-01 0.25068449E+03</pdfrwt>
<totfact> 0.47917254E+04</totfact>
</mgrwt>
</event>
<event>
 5    0  0.1324511E+000  0.2486389E+03  0.7546771E-02  0.1114168E+00
         21   -1    0    0  504  501  0.00000000000E+00  0.00000000000E+00  0.76472476040E+03  0.76472476040E+03  0.00000000000E+00 0. -1.
         21   -1    0    0  501  502 -0.00000000000E+00 -0.00000000000E+00 -0.12310427029E+03  0.12310427029E+03  0.00000000000E+00 0. -1.
         25    1    1    2    0    0 -0.18964088750E+01 -0.21720197765E+03  0.53114676739E+02  0.25617662725E+03  0.12500000000E+03 0.  0.
         21    1    1    2  503  502 -0.17280121189E+02  0.20668610529E+03  0.53914140672E+03  0.57766011213E+03  0.00000000000E+00 0. -1.
         21    1    1    2  504  503  0.19176530064E+02  0.10515872356E+02  0.49364406658E+02  0.53992291314E+02  0.00000000000E+00 0. -1.
<mgrwt>
<rscale>  4 0.24863886E+03</rscale>
<asrwt>0</asrwt>
<pdfrwt beam="1">  1       21 0.11764996E+00 0.24863886E+03</pdfrwt>
<pdfrwt beam="2">  1       21 0.18939119E-01 0.24863886E+03</pdfrwt>
<totfact> 0.13685663E+04</totfact>
</mgrwt>
</event>
<event>
 5    0  0.1324511E+000  0.2106015E+03  0.7546771E-02  0.1141091E+00
         21   -1    0    0  504  501  0.00000000000E+00  0.00000000000E+00  0.29500917092E+03  0.29500917092E+03  0.00000000000E+00 0.  1.
         21   -1    0    0  501  502 -0.00000000000E+00 -0.00000000000E+00 -0.23807204307E+03  0.23807204307E+03  0.00000000000E+00 0.  1.
         25    1    1    2    0    0 -0.21331224767E+03  0.25805769975E+01  0.13265209862E+03  0.28058929711E+03  0.12500000000E+03 0.  0.
         21    1    1    2  503  502  0.54854446439E+02 -0.27553247003E+02  0.21356129230E+02  0.64994430302E+02  0.00000000000E+00 0.  1.
         21    1    1    2  504  503  0.15845780123E+03  0.24972670005E+02 -0.97071099996E+02  0.18749748658E+03  0.00000000000E+00 0.  1.
<mgrwt>
<rscale>  4 0.21060150E+03</rscale>
<asrwt>0</asrwt>
<pdfrwt beam="1">  1       21 0.45386026E-01 0.21060150E+03</pdfrwt>
<pdfrwt beam="2">  1       21 0.36626468E-01 0.21060150E+03</pdfrwt>
<totfact> 0.33155869E+04</totfact>
</mgrwt>
</event>
<event>
 5    0  0.1324511E+000  0.3130771E+03  0.7546771E-02  0.1078880E+00
         21   -1    0    0  504  501  0.00000000000E+00  0.00000000000E+00  0.15759777701E+03  0.15759777701E+03  0.00000000000E+00 0. -1.
         21   -1    0    0  501  502 -0.00000000000E+00 -0.00000000000E+00 -0.69584648326E+03  0.69584648326E+03  0.00000000000E+00 0. -1.
         25    1    1    2    0    0  0.30343801139E+02  0.28543212231E+03 -0.11511632464E+03  0.33357009895E+03  0.12500000000E+03 0.  0.
         21    1    1    2  503  502  0.20968142719E+02 -0.35587093663E+02 -0.29220125133E+02  0.50595651564E+02  0.00000000000E+00 0. -1.
         21    1    1    2  504  503 -0.51311943858E+02 -0.24984502865E+03 -0.39391225647E+03  0.46927850976E+03  0.00000000000E+00 0. -1.
<mgrwt>
<rscale>  4 0.31307706E+03</rscale>
<asrwt>0</asrwt>
<pdfrwt beam="1">  1       21 0.24245811E-01 0.31307706E+03</pdfrwt>
<pdfrwt beam="2">  1       21 0.10705331E+00 0.31307706E+03</pdfrwt>
<totfact> 0.10464977E+04</totfact>
</mgrwt>
</event>
<event>
 5    0  0.1324511E+000  0.3525530E+03  0.7546771E-02  0.1061572E+00
         21   -1    0    0  504  501  0.00000000000E+00  0.00000000000E+00  0.13490211488E+03  0.13490211488E+03  0.00000000000E+00 0. -1.
         21   -1    0    0  501  502 -0.00000000000E+00 -0.00000000000E+00 -0.15302149442E+04  0.15302149442E+04  0.00000000000E+00 0.  1.
         25    1    1    2    0    0  0.23820224823E+03  0.22787783029E+03 -0.12410904910E+04  0.12901934829E+04  0.12500000000E+03 0.  0.
         21    1    1    2  503  502 -0.38118301216E+01 -0.35754246404E+02 -0.32014153532E+02  0.48143558356E+02  0.00000000000E+00 0.  1.
         21    1    1    2  504  503 -0.23439041811E+03 -0.19212358389E+03 -0.12220818481E+03  0.32678001778E+03  0.00000000000E+00 0. -1.
<mgrwt>
<rscale>  4 0.35255300E+03</rscale>
<asrwt>0</asrwt>
<pdfrwt beam="1">  1       21 0.20754171E-01 0.35255300E+03</pdfrwt>
<pdfrwt beam="2">  1       21 0.23541768E+00 0.35255300E+03</pdfrwt>
<totfact> 0.15300566E+03</totfact>
</mgrwt>
</event>
<event>
 5    0  0.1324511E+000  0.2662797E+03  0.7546771E-02  0.1103428E+00
         21   -1    0    0  504  501  0.00000000000E+00  0.00000000000E+00  0.39235966061E+03  0.39235966061E+03  0.00000000000E+00 0. -1.
         21   -1    0    0  501  502 -0.00000000000E+00 -0.00000000000E+00 -0.26304175773E+03  0.26304175773E+03  0.00000000000E+00 0.  1.
         25    1    1    2    0    0  0.15256034003E+03  0.17889998066E+03 -0.13310653070E+03  0.29769482519E+03  0.12500000000E+03 0.  0.
         21    1    1    2  503  502 -0.10083742779E+03 -0.12178360495E+03  0.21621056364E+03  0.26785526149E+03  0.00000000000E+00 0. -1.
         21    1    1    2  504  503 -0.51722912239E+02 -0.57116375707E+02  0.46213869951E+02  0.89851331655E+02  0.00000000000E+00 0. -1.
<mgrwt>
<rscale>  4 0.26627967E+03</rscale>
<asrwt>0</asrwt>
<pdfrwt beam="1">  1       21 0.60363025E-01 0.26627967E+03</pdfrwt>
<pdfrwt beam="2">  1       21 0.40467963E-01 0.26627967E+03</pdfrwt>
<totfact> 0.14438780E+04</totfact>
</mgrwt>
</event>
<event>
 5    0  0.1324511E+000  0.2389012E+03  0.7546771E-02  0.1120527E+00
         21   -1    0    0  504  501  0.00000000000E+00  0.00000000000E+00  0.46325895267E+03  0.46325895267E+03  0.00000000000E+00 0.  1.
         21   -1    0    0  501  502 -0.00000000000E+00 -0.00000000000E+00 -0.21690864210E+03  0.21690864210E+03  0.00000000000E+00 0.  1.
         25    1    1    2    0    0 -0.22919341214E+02 -0.20229556944E+03 -0.11263921856E+03  0.26412381032E+03  0.12500000000E+03 0.  0.
         21    1    1    2  503  502  0.90098970620E+01  0.21120189825E+02  0.16297957278E+02  0.28157842154E+02  0.00000000000E+00 0. -1.
         21    1    1    2  504  503  0.13909444152E+02  0.18117537962E+03  0.34269157185E+03  0.38788594230E+03  0.00000000000E+00 0.  1.
<mgrwt>
<rscale>  4 0.23890122E+03</rscale>
<asrwt>0</asrwt>
<pdfrwt beam="1">  1       21 0.71270608E-01 0.23890122E+03</pdfrwt>
<pdfrwt beam="2">  1       21 0.33370560E-01 0.23890122E+03</pdfrwt>
<totfact> 0.14981577E+04</totfact>
</mgrwt>
</event>
<event>
 5    0  0.1324511E+000  0.2599531E+03  0.7546771E-02  0.1107171E+00
         21   -1    0    0  504  501  0.00000000000E+00  0.00000000000E+00  0.75430742591E+03  0.75430742591E+03  0.00000000000E+00 0. -1.
         21   -1    0    0  501  502 -0.00000000000E+00 -0.00000000000E+00 -0.12833997864E+03  0.12833997864E+03  0.00000000000E+00 0. -1.
         25    1    1    2    0    0 -0.23394754291E+03 -0.16197861516E+02  0.79081091201E+02  0.27725916132E+03  0.12500000000E+03 0.  0.
         21    1    1    2  503  502  0.21231255375E+03  0.20258413055E+02  0.36944897337E+03  0.42659063246E+03  0.00000000000E+00 0. -1.
         21    1    1    2  504  503  0.21634989155E+02 -0.40605515394E+01  0.17743738271E+03  0.17879761077E+03  0.00000000000E+00 0. -1.
<mgrwt>
<rscale>  4 0.25995310E+03</rscale>
<asrwt>0</asrwt>
<pdfrwt beam="1">  1       21 0.11604729E+00 0.25995310E+03</pdfrwt>
<pdfrwt beam="2">  1       21 0.19744612E-01 0.25995310E+03</pdfrwt>
<totfact> 0.13014433E+04</totfact>
</mgrwt>
</event>
