<LesHouchesEvents version="3.0">
  <!--
  <scalesfunctionalform>
    muR  H_T/2 := sum_i mT(i)/2, i=final state
    muF1 H_T/2 := sum_i mT(i)/2, i=final state
    muF2 H_T/2 := sum_i mT(i)/2, i=final state
    QES  H_T/2 := sum_i mT(i)/2, i=final state
  </scalesfunctionalform>
HERWIG6   
  -->
  <header>
       37
  </header>
  <init>
   2212   2212 0.65000000D+04 0.65000000D+04 -1 -1   244800   244800 -4   1
 0.49520246D-04 0.22654665D-05 0.23209023D-05     66
  </init>
  <event>
  6     66 0.23209023E-05 0.43104613E+02 0.75467711E-02 0.95109954E-01
       -1 -1    0    0    0  501 0.00000000E+00 0.00000000E+00 0.88353584E+03 0.88353590E+03 0.32000000E+00 0.0000E+00 0.9000E+01
        1 -1    0    0  503    0 0.00000000E+00 0.00000000E+00 -.73611672E+03 0.73611679E+03 0.32000000E+00 0.0000E+00 0.9000E+01
       25  1    1    2    0    0 -.15807999E+03 -.42905789E+03 -.21973513E+03 0.52248300E+03 0.12500000E+03 0.0000E+00 0.9000E+01
        1  1    1    2  502    0 0.16506323E+03 0.30589441E+03 -.20456143E+03 0.40331470E+03 0.32000000E+00 0.0000E+00 0.9000E+01
       -1  1    1    2    0  501 0.25362894E+02 0.69836250E+02 0.61401248E+03 0.61849156E+03 0.32000000E+00 0.0000E+00 0.9000E+01
       21  1    1    2  503  502 -.32346135E+02 0.53327225E+02 -.42296800E+02 0.75363434E+02 0.75000000E+00 0.0000E+00 0.9000E+01
#aMCatNLO 2  0  0  2  4 0.40393796D+03 0.00000000D+00  -5  6  0 0.00000000D+00 0.00000000D+00 0.00000000D+00 0.00000000D+00 0.00000000D+00
  <mgrwgt>
 0.6617214398D-03    1    2    0
 0.765661006823528D+03 0.000000000000000D+00 0.000000000000000D+00 0.765661006823528D+03
 0.765661006823528D+03 0.000000000000000D+00 0.000000000000000D+00 -.765661006823528D+03
 0.542542747203692D+03 -.169679070928315D+03 -.410032508103033D+03 -.286024453029753D+03
 0.439294176727093D+03 0.155896567440670D+03 0.321118519308146D+03 -.256044001148034D+03
 0.549485089716271D+03 0.137825034876449D+02 0.889139887948868D+02 0.542068454177786D+03
 0.000000000000000D+00 -.000000000000000D+00 0.000000000000000D+00 -.000000000000000D+00
 0.780907002476252D+03 0.000000000000000D+00 0.000000000000000D+00 0.780907002476252D+03
 0.832855584683249D+03 0.000000000000000D+00 0.000000000000000D+00 -.832855584683249D+03
 0.553687540468856D+03 -.158106025251504D+03 -.429112327390687D+03 -.286024453029753D+03
 0.431768677316145D+03 0.165092491244800D+03 0.305957725056950D+03 -.256044001148034D+03
 0.547135435213082D+03 0.253596689499140D+02 0.698273774522943D+02 0.542068454177786D+03
 0.811709341614188D+02 -.323461349432098D+02 0.533272248814424D+02 -.519485822069969D+02
0.377395172579D-03 0.000000000000D+00 0.000000000000D+00 0.263614425455D-05 0.624140287884D-08  6 -1 1 25 1 -1 21 2 0.13592830D+00 0.11324849D+00 0.22963556D+06 0.22963556D+06 0.22963556D+06 0.10932461D+01  1  2  1  2  6  2        1 0.661721439843D-03 0.100000000000D+01
  </mgrwgt>
  </event>
  <event>
  6     66 0.23209023E-05 0.10652966E+03 0.75467711E-02 0.91369108E-01
       -1 -1    0    0    0  501 0.00000000E+00 0.00000000E+00 0.26318914E+03 0.26318933E+03 0.32000000E+00 0.0000E+00 0.9000E+01
        1 -1    0    0  502    0 -.00000000E+00 -.00000000E+00 -.18656670E+04 0.18656670E+04 0.32000000E+00 0.0000E+00 0.9000E+01
       25  1    1    2    0    0 0.48400718E+03 0.10730392E+03 -.44754926E+03 0.67948688E+03 0.12500000E+03 0.0000E+00 0.9000E+01
        1  1    1    2  502    0 0.46661023E+02 -.96627728E+01 -.12199779E+03 0.13097398E+03 0.32000000E+00 0.0000E+00 0.9000E+01
       -1  1    1    2    0  503 0.11012559E+03 0.64493491E+02 -.57194178E+02 0.13985111E+03 0.32000000E+00 0.0000E+00 0.9000E+01
       21  1    1    2  503  501 -.64079379E+03 -.16213464E+03 -.97573662E+03 0.11785444E+04 0.75000000E+00 0.0000E+00 0.9000E+01
#aMCatNLO 2  0  0  5  2 0.75228867D+02 0.00000000D+00  -5  6  0 0.00000000D+00 0.00000000D+00 0.00000000D+00 0.00000000D+00 0.00000000D+00
  <mgrwgt>
 0.2158667434D-01    1    2    0
 0.700730703965584D+03 0.000000000000000D+00 0.000000000000000D+00 0.700730703965584D+03
 0.700730703965584D+03 -.000000000000000D+00 -.000000000000000D+00 -.700730703965584D+03
 0.645707222919197D+03 0.609783638780261D+03 0.130427151302778D+03 0.111648957939463D+03
 0.697512710838795D+02 0.605464992964498D+02 -.708868073229740D+01 -.338985522734735D+02
 0.686002913928092D+03 -.670330138076711D+03 -.123338470570480D+03 -.777504056659895D+02
 0.000000000000000D+00 0.000000000000000D+00 0.000000000000000D+00 0.000000000000000D+00
 0.700730703965584D+03 0.000000000000000D+00 0.000000000000000D+00 0.700730703965584D+03
 0.700730703965584D+03 -.000000000000000D+00 -.000000000000000D+00 -.700730703965584D+03
 0.517823193745061D+03 0.481400476616448D+03 0.106805085146363D+03 0.967580223065246D+02
 0.591895421252201D+02 0.463192568499514D+02 -.970644506081358D+01 -.355487449306281D+02
 0.150189828458872D+03 0.112191097948748D+03 0.660545388149859D+02 0.748795033069759D+02
 0.674258843602015D+03 -.639910831415148D+03 -.163153178900535D+03 -.136088780682872D+03
0.712089447961D-02 0.000000000000D+00 0.000000000000D+00 0.187692352684D-08 0.190568792072D-10  6 -1 1 25 1 -1 21 2 0.40490654D-01 0.28702571D+00 0.45333493D+06 0.45333493D+06 0.45333493D+06 0.10715307D+01  1  2  1  4  6  5       -1 0.215866743431D-01 0.100000000000D+01
  </mgrwgt>
  </event>
  <event>
  5     66 -.23209023E-05 0.44257074E+02 0.75467711E-02 0.94529640E-01
       -1 -1    0    0    0  501 0.00000000E+00 0.00000000E+00 0.97550787E+03 0.97550793E+03 0.32000000E+00 0.0000E+00 0.9000E+01
        1 -1    0    0  502    0 0.00000000E+00 0.00000000E+00 -.39783758E+03 0.39783771E+03 0.32000000E+00 0.0000E+00 0.9000E+01
       25  1    1    2    0    0 0.40545330E+03 -.27212672E+03 0.24233997E+03 0.55928435E+03 0.12500000E+03 0.0000E+00 0.9000E+01
        1  1    1    2  502    0 -.44708465E+01 0.44023855E+02 -.14289709E+03 0.14959201E+03 0.32000000E+00 0.0000E+00 0.9000E+01
       -1  1    1    2    0  501 -.40098245E+03 0.22810287E+03 0.47822742E+03 0.66446927E+03 0.32000000E+00 0.0000E+00 0.9000E+01
#aMCatNLO 1  0  0  5  1 0.18750089D+02 0.00000000D+00  -5  6  0 0.00000000D+00 0.00000000D+00 0.00000000D+00 0.00000000D+00 0.00000000D+00
  <mgrwgt>
 -.3669617371D-02    8    2    0
 0.622971764589294D+03 0.000000000000000D+00 0.000000000000000D+00 0.622971764589294D+03
 0.622971764589294D+03 -.000000000000000D+00 -.000000000000000D+00 -.622971764589294D+03
 0.504095365845991D+03 0.405432439340645D+03 -.272120743180996D+03 0.787249187486421D+01
 0.231188768942935D+03 -.447224035914536D+01 0.440305313942590D+02 -.226913107282632D+03
 0.510659394389661D+03 -.400960198981500D+03 0.228090211786737D+03 0.219040615407767D+03
 0.000000000000000D+00 0.000000000000000D+00 0.000000000000000D+00 0.000000000000000D+00
 0.622971764589294D+03 0.000000000000000D+00 0.000000000000000D+00 0.622971764589294D+03
 0.622971764589294D+03 -.000000000000000D+00 -.000000000000000D+00 -.622971764589294D+03
 0.503288436742886D+03 0.404700552579113D+03 -.271704402090619D+03 0.827231441850339D+01
 0.231051937788570D+03 -.480806852416921D+01 0.442215705983466D+02 -.226729647657150D+03
 0.417265162921163D+03 -.338088851327474D+03 0.181112914044271D+03 0.164329720872661D+03
 0.943379917259677D+02 -.618036327274696D+02 0.463699174480009D+02 0.541276123659855D+02
0.586415156666D-04 0.000000000000D+00 0.000000000000D+00 0.970971803095D-06 0.000000000000D+00  6 -1 1 25 1 -1 21 0 0.15007815D+00 0.61205796D-01 0.25481658D+06 0.25481658D+06 0.25481658D+06 0.10898362D+01  1  2  2  4  6  5       -1 0.156903934115D-03 0.100000000000D+01
0.177505371555D-04 0.000000000000D+00 -.225198860825D-06 0.970971803095D-06 0.000000000000D+00  6 -1 1 25 1 -1 21 2 0.15007815D+00 0.61205796D-01 0.25481658D+06 0.25481658D+06 0.25481658D+06 0.10898362D+01  1  2  3  4  6  5       -1 0.564108424592D-04 0.100000000000D+01
-.332738065349D-04 0.000000000000D+00 0.000000000000D+00 0.970971803095D-06 0.000000000000D+00  6 -1 1 25 1 -1 21 2 0.15007815D+00 0.61205796D-01 0.25481658D+06 0.25481658D+06 0.25481658D+06 0.10898362D+01  1  2 15  4  6  5       -1 -.105743473677D-03 0.100000000000D+01
0.268793368522D-06 0.000000000000D+00 0.000000000000D+00 0.970971803095D-06 0.000000000000D+00  6 -1 1 25 1 -1 21 2 0.15007815D+00 0.61205796D-01 0.25427383D+06 0.25427383D+06 0.25427383D+06 0.10899057D+01  1  2 12  4  6  5       -1 0.854415321399D-06 0.100000000000D+01
0.243292551589D-02 0.000000000000D+00 0.000000000000D+00 0.970971803095D-06 0.000000000000D+00  6 -1 1 25 1 -1 21 2 0.15007815D+00 0.61205796D-01 0.25427383D+06 0.25427383D+06 0.25427383D+06 0.10899057D+01  1  2 12  4  6  5       -1 0.773355699966D-02 0.100000000000D+01
-.411416175565D-02 0.000000000000D+00 0.000000000000D+00 0.970971803095D-06 0.000000000000D+00  6 -1 1 25 1 -1 21 2 0.15007815D+00 0.61205796D-01 0.25481658D+06 0.25481658D+06 0.25481658D+06 0.10898362D+01  1  2  4  4  6  5       -1 -.130747215488D-01 0.100000000000D+01
-.244157790996D-02 0.000000000000D+00 0.000000000000D+00 0.970971803095D-06 0.000000000000D+00  6 -1 1 25 1 -1 21 2 0.15007815D+00 0.61205796D-01 0.25481658D+06 0.25481658D+06 0.25481658D+06 0.10898362D+01  1  2  5  4  6  5       -1 -.775928444440D-02 0.100000000000D+01
0.293343806197D-02 0.000000000000D+00 -.000000000000D+00 0.970971803095D-06 0.000000000000D+00  6 -1 1 25 1 -1 21 2 0.15007815D+00 0.61205796D-01 0.25481658D+06 0.25481658D+06 0.25481658D+06 0.10898362D+01  1  2  6  4  6  5       -1 0.932240590397D-02 0.100000000000D+01
  </mgrwgt>
  </event>
  <event>
  6     66 0.23209023E-05 0.10714587E+03 0.75467711E-02 0.94675001E-01
       -1 -1    0    0    0  501 0.00000000E+00 0.00000000E+00 0.12901756E+04 0.12901756E+04 0.32000000E+00 0.0000E+00 0.9000E+01
        1 -1    0    0  502    0 0.00000000E+00 0.00000000E+00 -.66887481E+03 0.66887489E+03 0.32000000E+00 0.0000E+00 0.9000E+01
       25  1    1    2    0    0 0.40734171E+03 0.22704885E+03 -.77645294E+02 0.48901149E+03 0.12500000E+03 0.0000E+00 0.9000E+01
        1  1    1    2  503    0 -.94382642E+02 -.12792561E+03 -.44415331E+02 0.16506323E+03 0.32000000E+00 0.0000E+00 0.9000E+01
       -1  1    1    2    0  501 0.24347615E+01 -.31108696E+02 0.93114179E+03 0.93166454E+03 0.32000000E+00 0.0000E+00 0.9000E+01
       21  1    1    2  502  503 -.31539383E+03 -.68014547E+02 -.18778040E+03 0.37331124E+03 0.75000000E+00 0.0000E+00 0.9000E+01
#aMCatNLO 2  0  0  4  2 0.11803919D+02 0.00000000D+00  -5  6  0 0.00000000D+00 0.00000000D+00 0.00000000D+00 0.00000000D+00 0.00000000D+00
  <mgrwgt>
 0.1529331170D-02    1    2    0
 0.928959665054638D+03 0.000000000000000D+00 0.000000000000000D+00 0.928959665054638D+03
 0.928959665054638D+03 -.000000000000000D+00 -.000000000000000D+00 -.928959665054638D+03
 0.543837606556310D+03 0.411897568502155D+03 0.229227243116344D+03 -.240685700406545D+03
 0.637370177460397D+03 -.419953012993547D+03 -.200807720302974D+03 -.435380832674410D+03
 0.676711546092569D+03 0.805544449139236D+01 -.284195228133693D+02 0.676066533080954D+03
 0.000000000000000D+00 0.000000000000000D+00 0.000000000000000D+00 -.000000000000000D+00
 0.928959665054638D+03 0.000000000000000D+00 0.000000000000000D+00 0.928959665054638D+03
 0.928959665054638D+03 -.000000000000000D+00 -.000000000000000D+00 -.928959665054638D+03
 0.541616045718298D+03 0.407377999698930D+03 0.227066133944490D+03 -.245371304671771D+03
 0.188400497892532D+03 -.940957046135626D+02 -.127650444355328D+03 -.101715829816791D+03
 0.670974663260358D+03 0.244400218285713D+01 -.311027299882775D+02 0.670248943138262D+03
 0.456928123238087D+03 -.315726297268224D+03 -.683129596008838D+02 -.323161808649700D+03
0.247876990467D-02 0.000000000000D+00 0.000000000000D+00 0.180374811586D-04 0.283530463070D-08  6 -1 1 25 1 -1 21 2 0.19848856D+00 0.10290383D+00 0.24783500D+06 0.24783500D+06 0.24783500D+06 0.10907434D+01  1  2  1  3  6  4        1 0.152933116970D-02 0.100000000000D+01
  </mgrwgt>
  </event>
  <event>
  5     66 0.23209023E-05 0.64013182E+02 0.75467711E-02 0.92356797E-01
       -1 -1    0    0    0  501 0.00000000E+00 0.00000000E+00 0.10730568E+04 0.10730569E+04 0.32000000E+00 0.0000E+00 0.9000E+01
        1 -1    0    0  502    0 -.00000000E+00 -.00000000E+00 -.21540012E+04 0.21540013E+04 0.32000000E+00 0.0000E+00 0.9000E+01
       25  1    1    2    0    0 -.21665231E+03 -.43104939E+03 -.10755358E+04 0.11853877E+04 0.12500000E+03 0.0000E+00 0.9000E+01
        1  1    1    2  502    0 0.57296786E+02 -.28555346E+02 -.96431335E+03 0.96643606E+03 0.32000000E+00 0.0000E+00 0.9000E+01
       -1  1    1    2    0  501 0.15935552E+03 0.45960474E+03 0.95890467E+03 0.10752344E+04 0.32000000E+00 0.0000E+00 0.9000E+01
#aMCatNLO 1  0  0  4  4 0.15869461D+03 0.00000000D+00  -5  6  0 0.00000000D+00 0.00000000D+00 0.00000000D+00 0.00000000D+00 0.00000000D+00
  <mgrwgt>
 0.2665563708D-02    6    2    0
 0.152031767190267D+04 0.000000000000000D+00 0.000000000000000D+00 0.152031767190267D+04
 0.152031767190267D+04 -.000000000000000D+00 -.000000000000000D+00 -.152031767190267D+04
 0.875762506464895D+03 -.216648197045030D+03 -.431052892466525D+03 -.720133272626015D+03
 0.682819853549385D+03 0.572921004550893D+02 -.285535063493392D+02 -.679812668977128D+03
 0.148205298379106D+04 0.159356096589942D+03 0.459606398815864D+03 0.139994594160314D+04
 0.000000000000000D+00 0.000000000000000D+00 0.000000000000000D+00 -.000000000000000D+00
 0.152031767190267D+04 0.000000000000000D+00 0.000000000000000D+00 0.152031767190267D+04
 0.152031767190267D+04 -.000000000000000D+00 -.000000000000000D+00 -.152031767190267D+04
 0.886238081505032D+03 -.215577441972385D+03 -.431586540413144D+03 -.732838564594261D+03
 0.461955953459325D+03 0.128281731950002D+03 0.486929017002743D+02 -.441107811661083D+03
 0.146193345900979D+04 0.161145135957437D+03 0.458714768965793D+03 0.137871768120317D+04
 0.230507849831197D+03 -.738494259350542D+02 -.758211302529235D+02 -.204771304947822D+03
0.202384483154D-01 0.000000000000D+00 0.000000000000D+00 0.858575878226D-04 0.000000000000D+00  6 -1 1 25 1 -1 21 0 0.16508567D+00 0.33138481D+00 0.27500969D+06 0.27500969D+06 0.27500969D+06 0.10873576D+01  1  2  2  3  6  4        1 0.165083302236D-02 0.100000000000D+01
0.482862340097D-02 0.000000000000D+00 -.777209704370D-04 0.858575878226D-04 0.000000000000D+00  6 -1 1 25 1 -1 21 2 0.16508567D+00 0.33138481D+00 0.27500969D+06 0.27500969D+06 0.27500969D+06 0.10873576D+01  1  2  3  3  6  4        1 0.465686947615D-03 0.100000000000D+01
-.121300786951D-01 0.000000000000D+00 0.000000000000D+00 0.858575878226D-04 0.000000000000D+00  6 -1 1 25 1 -1 21 2 0.16508567D+00 0.33138481D+00 0.27500969D+06 0.27500969D+06 0.27500969D+06 0.10873576D+01  1  2 15  3  6  4        1 -.116986123224D-02 0.100000000000D+01
-.988413028327D-03 0.000000000000D+00 0.000000000000D+00 0.858575878226D-04 0.000000000000D+00  6 -1 1 25 1 -1 21 2 0.16508567D+00 0.33138481D+00 0.27500969D+06 0.27500969D+06 0.27500969D+06 0.10873576D+01  1  2  4  3  6  4        1 -.953255219804D-04 0.100000000000D+01
-.427144753135D-01 0.000000000000D+00 0.000000000000D+00 0.858575878226D-04 0.000000000000D+00  6 -1 1 25 1 -1 21 2 0.16508567D+00 0.33138481D+00 0.27500969D+06 0.27500969D+06 0.27500969D+06 0.10873576D+01  1  2  5  3  6  4        1 -.411951232803D-02 0.100000000000D+01
0.615259018596D-01 0.000000000000D+00 -.000000000000D+00 0.858575878226D-04 0.000000000000D+00  6 -1 1 25 1 -1 21 2 0.16508567D+00 0.33138481D+00 0.27500969D+06 0.27500969D+06 0.27500969D+06 0.10873576D+01  1  2  6  3  6  4        1 0.593374282005D-02 0.100000000000D+01
  </mgrwgt>
  </event>
  <event>
  5     66 0.23209023E-05 0.13489362E+03 0.75467711E-02 0.92989938E-01
       -1 -1    0    0    0  501 0.00000000E+00 0.00000000E+00 0.11334225E+04 0.11334226E+04 0.32000000E+00 0.0000E+00 0.9000E+01
        1 -1    0    0  502    0 -.00000000E+00 -.00000000E+00 -.13520364E+04 0.13520365E+04 0.32000000E+00 0.0000E+00 0.9000E+01
       25  1    1    2    0    0 -.55778353E+03 -.73364629E+02 -.37715045E+03 0.68874691E+03 0.12500000E+03 0.0000E+00 0.9000E+01
        1  1    1    2  502    0 0.13397003E+03 -.15658748E+02 -.76493720E+03 0.77673817E+03 0.32000000E+00 0.0000E+00 0.9000E+01
       -1  1    1    2    0  501 0.42381351E+03 0.89023377E+02 0.92347376E+03 0.10199740E+04 0.32000000E+00 0.0000E+00 0.9000E+01
#aMCatNLO 1  0  0  5  4 0.16774510D+02 0.00000000D+00  -5  6  0 0.00000000D+00 0.00000000D+00 0.00000000D+00 0.00000000D+00 0.00000000D+00
  <mgrwgt>
 0.1342145849D-03    7    2    0
 0.123791303641565D+04 0.000000000000000D+00 0.000000000000000D+00 0.123791303641565D+04
 0.123791303641565D+04 -.000000000000000D+00 -.000000000000000D+00 -.123791303641565D+04
 0.658098173012443D+03 -.557787808758036D+03 -.733622200544561D+02 -.317740382060426D+03
 0.712262262926816D+03 0.133981582898469D+03 -.156596269099063D+02 -.699372034555781D+03
 0.110546563689205D+04 0.423806225859568D+03 0.890218469643625D+02 0.101711241661621D+04
 0.000000000000000D+00 0.000000000000000D+00 0.000000000000000D+00 0.000000000000000D+00
 0.123791303641565D+04 0.000000000000000D+00 0.000000000000000D+00 0.123791303641565D+04
 0.123791303641565D+04 -.000000000000000D+00 -.000000000000000D+00 -.123791303641565D+04
 0.656635449527327D+03 -.557066633712276D+03 -.732107349401730D+02 -.316009600281302D+03
 0.710567176429730D+03 0.134762052088916D+03 -.154956868717639D+02 -.697498949980913D+03
 0.108489300716069D+04 0.425311519328513D+03 0.737643209610670D+02 0.995319935229767D+03
 0.237304397135585D+02 -.300693770515384D+01 0.149421008508700D+02 0.181886150324480D+02
0.517780104760D-03 0.000000000000D+00 0.000000000000D+00 0.105395750045D-04 0.000000000000D+00  6 -1 1 25 1 -1 21 0 0.17437271D+00 0.20800561D+00 0.32733244D+06 0.32733244D+06 0.32733244D+06 0.10817613D+01  1  2  2  4  6  5       -1 0.120190220826D-03 0.100000000000D+01
0.823921398801D-04 0.000000000000D+00 -.198841193691D-05 0.105395750045D-04 0.000000000000D+00  6 -1 1 25 1 -1 21 2 0.17437271D+00 0.20800561D+00 0.32733244D+06 0.32733244D+06 0.32733244D+06 0.10817613D+01  1  2  3  4  6  5       -1 0.223806371136D-04 0.100000000000D+01
-.333673115078D-03 0.000000000000D+00 0.000000000000D+00 0.105395750045D-04 0.000000000000D+00  6 -1 1 25 1 -1 21 2 0.17437271D+00 0.20800561D+00 0.32733244D+06 0.32733244D+06 0.32733244D+06 0.10817613D+01  1  2 15  4  6  5       -1 -.906374918044D-04 0.100000000000D+01
0.297900806342D-09 0.000000000000D+00 0.000000000000D+00 0.105395750045D-04 0.000000000000D+00  6 -1 1 25 1 -1 21 2 0.17437271D+00 0.20800561D+00 0.33532562D+06 0.33532562D+06 0.33532562D+06 0.10809931D+01  1  2 12  4  6  5       -1 0.806510073133D-10 0.100000000000D+01
-.162712185545D-03 0.000000000000D+00 0.000000000000D+00 0.105395750045D-04 0.000000000000D+00  6 -1 1 25 1 -1 21 2 0.17437271D+00 0.20800561D+00 0.32733244D+06 0.32733244D+06 0.32733244D+06 0.10817613D+01  1  2  4  4  6  5       -1 -.441984197029D-04 0.100000000000D+01
-.214603933310D-01 0.000000000000D+00 0.000000000000D+00 0.105395750045D-04 0.000000000000D+00  6 -1 1 25 1 -1 21 2 0.17437271D+00 0.20800561D+00 0.32733244D+06 0.32733244D+06 0.32733244D+06 0.10817613D+01  1  2  5  4  6  5       -1 -.582940649625D-02 0.100000000000D+01
0.219260155280D-01 0.000000000000D+00 -.000000000000D+00 0.105395750045D-04 0.000000000000D+00  6 -1 1 25 1 -1 21 2 0.17437271D+00 0.20800561D+00 0.32733244D+06 0.32733244D+06 0.32733244D+06 0.10817613D+01  1  2  6  4  6  5       -1 0.595588605411D-02 0.100000000000D+01
  </mgrwgt>
  </event>
  <event>
  6     66 -.23209023E-05 0.43264171E+03 0.75467711E-02 0.86819868E-01
       -1 -1    0    0    0  501 0.00000000E+00 0.00000000E+00 0.79060858E+03 0.79060865E+03 0.32000000E+00 0.0000E+00 0.9000E+01
        1 -1    0    0  502    0 -.00000000E+00 -.00000000E+00 -.26285632E+04 0.26285633E+04 0.32000000E+00 0.0000E+00 0.9000E+01
       25  1    1    2    0    0 -.87186087E+03 -.54607770E+02 -.68054741E+03 0.11144026E+04 0.12500000E+03 0.0000E+00 0.9000E+01
        1  1    1    2  503    0 0.38374322E+03 -.35552806E+03 -.11560804E+04 0.12689291E+04 0.32000000E+00 0.0000E+00 0.9000E+01
       -1  1    1    2    0  501 0.28162503E+03 0.42206172E+03 0.35817826E+03 0.62108013E+03 0.32000000E+00 0.0000E+00 0.9000E+01
       21  1    1    2  502  503 0.20649263E+03 -.11925887E+02 -.35950508E+03 0.41476005E+03 0.75000000E+00 0.0000E+00 0.9000E+01
#aMCatNLO 2  0  0  4  2 0.10083240D+03 0.00000000D+00  -5  6  0 0.00000000D+00 0.00000000D+00 0.00000000D+00 0.00000000D+00 0.00000000D+00
  <mgrwgt>
 -.7189034132D-06    3    2    0
 0.144158412898783D+04 0.000000000000000D+00 0.000000000000000D+00 0.144158412898783D+04
 0.144158412898783D+04 -.000000000000000D+00 -.000000000000000D+00 -.144158412898783D+04
 0.891752435893833D+03 -.876774001461466D+03 -.515283761586601D+02 -.906067532487698D+02
 0.102115903949696D+04 0.600471924781604D+03 -.373802374072929D+03 -.736526331255632D+03
 0.970256782584866D+03 0.276302076679862D+03 0.425330750231589D+03 0.827133084504401D+03
 0.000000000000000D+00 0.000000000000000D+00 0.000000000000000D+00 0.000000000000000D+00
 0.144158412898783D+04 0.000000000000000D+00 0.000000000000000D+00 0.144158412898783D+04
 0.144158412898783D+04 -.000000000000000D+00 -.000000000000000D+00 -.144158412898783D+04
 0.887769184274742D+03 -.871895666859500D+03 -.545652093235085D+02 -.965904166620602D+02
 0.767722525775334D+03 0.383652302219028D+03 -.355513207563598D+03 -.561977888206235D+03
 0.964799551412814D+03 0.281606790128638D+03 0.422028490127338D+03 0.820626433696023D+03
 0.262876996512772D+03 0.206636574511835D+03 -.119500732402316D+02 -.162058128827727D+03
-.486002173300D-08 0.000000000000D+00 0.000000000000D+00 0.104373387450D-07 0.000000000000D+00  6 -1 1 25 1 -1 21 2 0.12163210D+00 0.40439435D+00 0.11234777D+07 0.11234777D+07 0.11234777D+07 0.10445145D+01  1  2 13  3  6  4        1 -.418259813479D-09 0.100000000000D+01
-.262365602642D-04 0.000000000000D+00 0.000000000000D+00 0.104373387450D-07 0.000000000000D+00  6 -1 1 25 1 -1 21 2 0.12163210D+00 0.40439435D+00 0.11234777D+07 0.11234777D+07 0.11234777D+07 0.10445145D+01  1  2 13  3  6  4        1 -.225795261941D-05 0.100000000000D+01
0.178880329909D-04 0.000000000000D+00 0.000000000000D+00 0.104373387450D-07 0.232295610217D-11  6 -1 1 25 1 -1 21 2 0.12163210D+00 0.40439435D+00 0.11234777D+07 0.11234777D+07 0.11234777D+07 0.10445145D+01  1  2  1  3  6  4        1 0.153946746606D-05 0.100000000000D+01
  </mgrwgt>
  </event>
  <event>
  5     66 0.23209023E-05 0.35267012E+02 0.75467711E-02 0.90636993E-01
       -1 -1    0    0    0  501 0.00000000E+00 0.00000000E+00 0.70082563E+03 0.70082570E+03 0.32000000E+00 0.0000E+00 0.9000E+01
        1 -1    0    0  502    0 0.00000000E+00 0.00000000E+00 -.31758081E+04 0.31758081E+04 0.32000000E+00 0.0000E+00 0.9000E+01
       25  1    1    2    0    0 -.48483689E+03 0.44801168E+03 -.98966872E+03 0.11961816E+04 0.12500000E+03 0.0000E+00 0.9000E+01
        1  1    1    2  502    0 -.34348128E+02 0.79894924E+01 -.18828991E+04 0.18832293E+04 0.32000000E+00 0.0000E+00 0.9000E+01
       -1  1    1    2    0  501 0.51918502E+03 -.45600117E+03 0.39758532E+03 0.79722290E+03 0.32000000E+00 0.0000E+00 0.9000E+01
#aMCatNLO 1  0  0  2  2 0.45094751D+02 0.00000000D+00  -5  6  0 0.00000000D+00 0.00000000D+00 0.00000000D+00 0.00000000D+00 0.00000000D+00
  <mgrwgt>
 0.1677933987D-02    7    2    0
 0.149187395508055D+04 0.000000000000000D+00 0.000000000000000D+00 0.149187395508055D+04
 0.149187395508055D+04 0.000000000000000D+00 0.000000000000000D+00 -.149187395508055D+04
 0.733189540367984D+03 -.484829578629683D+03 0.448006563111931D+03 -.293551190083459D+03
 0.884988805963544D+03 -.343500273740627D+02 0.798985198355007D+01 -.884285827414113D+03
 0.136556956382958D+04 0.519179606003746D+03 -.455996415095481D+03 0.117783701749757D+04
 0.000000000000000D+00 -.000000000000000D+00 0.000000000000000D+00 -.000000000000000D+00
 0.149314805804112D+04 0.000000000000000D+00 0.000000000000000D+00 0.149314805804112D+04
 0.195265057339610D+04 0.000000000000000D+00 0.000000000000000D+00 -.195265057339610D+04
 0.723464136924321D+03 -.478245289033813D+03 0.439186178895924D+03 -.293551190083459D+03
 0.884682554725488D+03 -.263508516537544D+02 -.272592869971824D+01 -.884285827414113D+03
 0.137594196787964D+04 0.531571642722278D+03 -.472596918989610D+03 0.117783701749757D+04
 0.461709971907761D+03 -.269755020347112D+02 0.361366687934041D+02 -.459502515354983D+03
0.392141645028D-03 0.000000000000D+00 0.000000000000D+00 0.548565668281D-04 0.000000000000D+00  6 -1 1 25 1 -1 21 0 0.10781933D+00 0.48858587D+00 0.48868872D+06 0.48868872D+06 0.48868872D+06 0.10692134D+01  1  2  2  2  6  2        1 0.176121127190D-04 0.100000000000D+01
0.250389672763D-03 0.000000000000D+00 -.150592717017D-05 0.548565668281D-04 0.000000000000D+00  6 -1 1 25 1 -1 21 2 0.10781933D+00 0.48858587D+00 0.48868872D+06 0.48868872D+06 0.48868872D+06 0.10692134D+01  1  2  3  2  6  2        1 0.128562327654D-04 0.100000000000D+01
-.226010260468D-03 0.000000000000D+00 0.000000000000D+00 0.548565668281D-04 0.000000000000D+00  6 -1 1 25 1 -1 21 2 0.10781933D+00 0.48858587D+00 0.48868872D+06 0.48868872D+06 0.48868872D+06 0.10692134D+01  1  2 15  2  6  2        1 -.116044742736D-04 0.100000000000D+01
-.145440023374D-02 0.000000000000D+00 0.000000000000D+00 0.548565668281D-04 0.000000000000D+00  6 -1 1 25 1 -1 21 2 0.10781933D+00 0.48858587D+00 0.48868872D+06 0.48868872D+06 0.48868872D+06 0.10692134D+01  1  2  4  2  6  2        1 -.746760348885D-04 0.100000000000D+01
-.409676405111D-01 0.000000000000D+00 -.255360642322D-03 0.548565668281D-04 0.000000000000D+00  6 -1 1 25 1 -1 21 2 0.10781933D+00 0.63957471D+00 0.48868872D+06 0.48868872D+06 0.48868872D+06 0.10692134D+01  1  2  5  2  6  2        1 -.298805332085D-03 0.100000000000D+01
0.396008452201D-01 0.000000000000D+00 0.246373501836D-03 0.548565668281D-04 0.000000000000D+00  6 -1 1 25 1 -1 21 2 0.10781933D+00 0.48858587D+00 0.48868872D+06 0.48868872D+06 0.48868872D+06 0.10692134D+01  1  2  6  2  6  2        1 0.203330144665D-02 0.100000000000D+01
-.145936475775D-02 0.000000000000D+00 -.912664667948D-05 0.548565668281D-04 0.000000000000D+00  6 -1 21 25 1 -1 -1 2 0.10781933D+00 0.63957471D+00 0.48868872D+06 0.48868872D+06 0.48868872D+06 0.10692134D+01  1  2  5  6  6  2        1 -.749963541730D-06 0.100000000000D+01
  </mgrwgt>
  </event>
  <event>
  5     66 0.23209023E-05 0.18972925E+02 0.75467711E-02 0.92553053E-01
       -1 -1    0    0    0  501 0.00000000E+00 0.00000000E+00 0.10397968E+04 0.10397969E+04 0.32000000E+00 0.0000E+00 0.9000E+01
        1 -1    0    0  502    0 0.00000000E+00 0.00000000E+00 -.64101932E+03 0.64101940E+03 0.32000000E+00 0.0000E+00 0.9000E+01
       25  1    1    2    0    0 -.39255031E+03 0.28338130E+03 -.23918559E+02 0.50059745E+03 0.12500000E+03 0.0000E+00 0.9000E+01
        1  1    1    2  502    0 0.39190330E+03 -.30234722E+03 -.21684774E+03 0.54039345E+03 0.32000000E+00 0.0000E+00 0.9000E+01
       -1  1    1    2    0  501 0.64700921E+00 0.18965922E+02 0.63954381E+03 0.63982537E+03 0.32000000E+00 0.0000E+00 0.9000E+01
#aMCatNLO 1  0  0  5  1 0.91373341D+01 0.00000000D+00  -5  6  0 0.00000000D+00 0.00000000D+00 0.00000000D+00 0.00000000D+00 0.00000000D+00
  <mgrwgt>
 0.2161802141D-02    4    2    0
 0.816412861655678D+03 0.000000000000000D+00 0.000000000000000D+00 0.816412861655678D+03
 0.816412861655678D+03 -.000000000000000D+00 -.000000000000000D+00 -.816412861655678D+03
 0.521215723621839D+03 -.392618993407204D+03 0.283435412992073D+03 -.146817993544945D+03
 0.609279077472241D+03 0.391972121575614D+03 -.302397307893877D+03 -.355154499241488D+03
 0.502330922217277D+03 0.646871831590191D+00 0.189618949018042D+02 0.501972492786434D+03
 0.000000000000000D+00 -.000000000000000D+00 0.000000000000000D+00 0.000000000000000D+00
 0.816412861655678D+03 0.000000000000000D+00 0.000000000000000D+00 0.816412861655678D+03
 0.816412861655678D+03 -.000000000000000D+00 -.000000000000000D+00 -.816412861655678D+03
 0.513802207432501D+03 -.392578032774687D+03 0.284636100935133D+03 -.115032545784712D+03
 0.587925584243859D+03 0.392019500716327D+03 -.301008472821974D+03 -.318388289602472D+03
 0.426183588882399D+03 0.101287090912618D+03 0.367736353452679D+02 0.412336120647505D+03
 0.104914342752598D+03 -.100728558854258D+03 -.204012634584271D+02 0.210847147396787D+02
0.180778782096D-02 0.000000000000D+00 0.000000000000D+00 0.873654074914D-05 0.000000000000D+00  6 -1 1 25 1 -1 21 0 0.15996875D+00 0.98618366D-01 0.25712258D+06 0.25712258D+06 0.25712258D+06 0.10895425D+01  1  2  2  4  6  5       -1 0.204776561775D-02 0.100000000000D+01
0.140308850435D-02 0.000000000000D+00 -.694238123397D-05 0.873654074914D-05 0.000000000000D+00  6 -1 1 25 1 -1 21 2 0.15996875D+00 0.98618366D-01 0.25712258D+06 0.25712258D+06 0.25712258D+06 0.10895425D+01  1  2  3  4  6  5       -1 0.188671450919D-02 0.100000000000D+01
-.103854935124D-02 0.000000000000D+00 0.000000000000D+00 0.873654074914D-05 0.000000000000D+00  6 -1 1 25 1 -1 21 2 0.15996875D+00 0.98618366D-01 0.25712258D+06 0.25712258D+06 0.25712258D+06 0.10895425D+01  1  2 15  4  6  5       -1 -.139652354318D-02 0.100000000000D+01
-.279733882124D-03 0.000000000000D+00 0.000000000000D+00 0.873654074914D-05 0.000000000000D+00  6 -1 1 25 1 -1 21 2 0.15996875D+00 0.98618366D-01 0.25712258D+06 0.25712258D+06 0.25712258D+06 0.10895425D+01  1  2  4  4  6  5       -1 -.376154442489D-03 0.100000000000D+01
  </mgrwgt>
  </event>
  <event>
  5     66 0.23209023E-05 0.81424750E+02 0.75467711E-02 0.89686906E-01
       -1 -1    0    0    0  501 0.00000000E+00 0.00000000E+00 0.81791548E+03 0.81791554E+03 0.32000000E+00 0.0000E+00 0.9000E+01
        1 -1    0    0  502    0 0.00000000E+00 0.00000000E+00 -.34827476E+04 0.34827476E+04 0.32000000E+00 0.0000E+00 0.9000E+01
       25  1    1    2    0    0 -.44763650E+03 -.10110873E+03 0.50482586E+02 0.47830419E+03 0.12500000E+03 0.0000E+00 0.9000E+01
        1  1    1    2  502    0 0.37730227E+02 -.72147514E+02 -.31787855E+04 0.31798280E+04 0.32000000E+00 0.0000E+00 0.9000E+01
       -1  1    1    2    0  501 0.40990627E+03 0.17325624E+03 0.46347074E+03 0.64253101E+03 0.32000000E+00 0.0000E+00 0.9000E+01
#aMCatNLO 1  0  0  2  1 0.12292342D+04 0.00000000D+00  -5  6  0 0.00000000D+00 0.00000000D+00 0.00000000D+00 0.00000000D+00 0.00000000D+00
  <mgrwgt>
 0.1193137633D-02    4    2    0
 0.168777763565828D+04 0.000000000000000D+00 0.000000000000000D+00 0.168777763565828D+04
 0.168777763565828D+04 0.000000000000000D+00 0.000000000000000D+00 -.168777763565828D+04
 0.649297105655783D+03 -.447609898265952D+03 -.101089815071209D+03 0.442027102875140D+03
 0.154183431652125D+04 0.377336527251137D+02 -.721537346528434D+02 -.153968278214385D+04
 0.118442384913952D+04 0.409876245540839D+03 0.173243549724053D+03 0.109765567926870D+04
 0.000000000000000D+00 0.000000000000000D+00 0.000000000000000D+00 0.000000000000000D+00
 0.301030930664401D+04 0.000000000000000D+00 0.000000000000000D+00 0.301030930664401D+04
 0.175016426115304D+04 0.000000000000000D+00 0.000000000000000D+00 -.175016426115304D+04
 0.716006422607285D+03 -.525409230252150D+03 -.159991806991904D+03 0.442027102875140D+03
 0.155960279923324D+04 -.138996085979851D+03 -.205956087135678D+03 -.153968278214385D+04
 0.113460994872373D+04 0.277730333227329D+03 0.731956796366330D+02 0.109765567926870D+04
 0.135025439723278D+04 0.386674983004672D+03 0.292752214490949D+03 0.126014504549097D+04
0.882713482692D-01 0.000000000000D+00 0.000000000000D+00 0.174541376900D-03 0.000000000000D+00  6 -1 1 25 1 -1 21 0 0.12583316D+00 0.53580733D+00 0.25100780D+06 0.25100780D+06 0.25100780D+06 0.10903277D+01  1  2  2  2  6  2        1 0.166753956852D-02 0.100000000000D+01
0.296391938134D-01 0.000000000000D+00 -.338985219734D-03 0.174541376900D-03 0.000000000000D+00  6 -1 1 25 1 -1 21 2 0.12583316D+00 0.53580733D+00 0.25100780D+06 0.25100780D+06 0.25100780D+06 0.10903277D+01  1  2  3  2  6  2        1 0.665636084739D-03 0.100000000000D+01
-.500459894344D-01 0.000000000000D+00 0.000000000000D+00 0.174541376900D-03 0.000000000000D+00  6 -1 1 25 1 -1 21 2 0.12583316D+00 0.53580733D+00 0.25100780D+06 0.25100780D+06 0.25100780D+06 0.10903277D+01  1  2 15  2  6  2        1 -.112393126054D-02 0.100000000000D+01
-.717195770857D-03 0.000000000000D+00 0.000000000000D+00 0.174541376900D-03 0.000000000000D+00  6 -1 1 25 1 -1 21 2 0.12583316D+00 0.53580733D+00 0.25100780D+06 0.25100780D+06 0.25100780D+06 0.10903277D+01  1  2  4  2  6  2        1 -.161067601201D-04 0.100000000000D+01
  </mgrwgt>
  </event>
  <event>
  5     66 -.23209023E-05 0.32309349E+02 0.75467711E-02 0.91667843E-01
       -1 -1    0    0    0  501 0.00000000E+00 0.00000000E+00 0.32695697E+03 0.32695713E+03 0.32000000E+00 0.0000E+00 0.9000E+01
        1 -1    0    0  502    0 -.00000000E+00 -.00000000E+00 -.17999094E+04 0.17999094E+04 0.32000000E+00 0.0000E+00 0.9000E+01
       25  1    1    2    0    0 -.58519053E+03 0.21231400E+03 -.44823205E+03 0.77721436E+03 0.12500000E+03 0.0000E+00 0.9000E+01
        1  1    1    2  502    0 0.59480631E+03 -.24320476E+03 -.10964948E+04 0.12709225E+04 0.32000000E+00 0.0000E+00 0.9000E+01
       -1  1    1    2    0  501 -.96157740E+01 0.30890755E+02 0.71774390E+02 0.78729711E+02 0.32000000E+00 0.0000E+00 0.9000E+01
#aMCatNLO 1  0  0  4  2 0.23635612D+02 0.00000000D+00  -5  6  0 0.00000000D+00 0.00000000D+00 0.00000000D+00 0.00000000D+00 0.00000000D+00
  <mgrwgt>
 -.4796025860D-03    8    2    0
 0.767133062726022D+03 0.000000000000000D+00 0.000000000000000D+00 0.767133062726022D+03
 0.767133062726022D+03 -.000000000000000D+00 -.000000000000000D+00 -.767133062726022D+03
 0.647258636936267D+03 -.585321189581209D+03 0.212389171052205D+03 0.124934735504540D+03
 0.709202103818563D+03 0.594924057695115D+03 -.243238465413635D+03 -.299779983620447D+03
 0.177805384697215D+03 -.960286811390533D+01 0.308492943614305D+02 0.174845248115908D+03
 0.000000000000000D+00 0.000000000000000D+00 0.000000000000000D+00 -.000000000000000D+00
 0.767133062726022D+03 0.000000000000000D+00 0.000000000000000D+00 0.767133062726022D+03
 0.767133062726022D+03 -.000000000000000D+00 -.000000000000000D+00 -.767133062726022D+03
 0.645765765850501D+03 -.584006577190100D+03 0.211851683457795D+03 0.124272307290423D+03
 0.623776797128079D+03 0.522336066466727D+03 -.232659090867647D+03 -.249263462505180D+03
 0.177581583684769D+03 -.924154770010128D+01 0.307015662239657D+02 0.174663180125328D+03
 0.871419787886960D+02 0.709120584234746D+02 -.989415881411363D+01 -.496720249105708D+02
0.156698082014D-04 0.000000000000D+00 0.000000000000D+00 0.606017479898D-06 0.000000000000D+00  6 -1 1 25 1 -1 21 0 0.50301087D-01 0.27690916D+00 0.42910638D+06 0.42910638D+06 0.42910638D+06 0.10732354D+01  1  2  2  3  6  4        1 0.310792379038D-04 0.100000000000D+01
0.602841504964D-05 0.000000000000D+00 -.601761894488D-07 0.606017479898D-06 0.000000000000D+00  6 -1 1 25 1 -1 21 2 0.50301087D-01 0.27690916D+00 0.42910638D+06 0.42910638D+06 0.42910638D+06 0.10732354D+01  1  2  3  3  6  4        1 0.137720892533D-04 0.100000000000D+01
-.115361707079D-04 0.000000000000D+00 0.000000000000D+00 0.606017479898D-06 0.000000000000D+00  6 -1 1 25 1 -1 21 2 0.50301087D-01 0.27690916D+00 0.42910638D+06 0.42910638D+06 0.42910638D+06 0.10732354D+01  1  2 15  3  6  4        1 -.263547170064D-04 0.100000000000D+01
0.497968419213D-07 0.000000000000D+00 0.000000000000D+00 0.606017479898D-06 0.000000000000D+00  6 -1 1 25 1 -1 21 2 0.50301087D-01 0.27690916D+00 0.42847851D+06 0.42847851D+06 0.42847851D+06 0.10732810D+01  1  2 12  3  6  4        1 0.113781088727D-06 0.100000000000D+01
0.627904687827D-03 0.000000000000D+00 0.000000000000D+00 0.606017479898D-06 0.000000000000D+00  6 -1 1 25 1 -1 21 2 0.50301087D-01 0.27690916D+00 0.42847851D+06 0.42847851D+06 0.42847851D+06 0.10732810D+01  1  2 12  3  6  4        1 0.143470301010D-02 0.100000000000D+01
-.928871626008D-03 0.000000000000D+00 0.000000000000D+00 0.606017479898D-06 0.000000000000D+00  6 -1 1 25 1 -1 21 2 0.50301087D-01 0.27690916D+00 0.42910638D+06 0.42910638D+06 0.42910638D+06 0.10732354D+01  1  2  4  3  6  4        1 -.212203420517D-02 0.100000000000D+01
-.635038063895D-03 0.000000000000D+00 0.000000000000D+00 0.606017479898D-06 0.000000000000D+00  6 -1 1 25 1 -1 21 2 0.50301087D-01 0.27690916D+00 0.42910638D+06 0.42910638D+06 0.42910638D+06 0.10732354D+01  1  2  5  3  6  4        1 -.145076289924D-02 0.100000000000D+01
0.717820210422D-03 0.000000000000D+00 -.000000000000D+00 0.606017479898D-06 0.000000000000D+00  6 -1 1 25 1 -1 21 2 0.50301087D-01 0.27690916D+00 0.42910638D+06 0.42910638D+06 0.42910638D+06 0.10732354D+01  1  2  6  3  6  4        1 0.163988111708D-02 0.100000000000D+01
  </mgrwgt>
  </event>
  <event>
  5     66 0.23209023E-05 0.23794662E+03 0.75467711E-02 0.92208886E-01
       -1 -1    0    0    0  501 0.00000000E+00 0.00000000E+00 0.14615648E+04 0.14615648E+04 0.32000000E+00 0.0000E+00 0.9000E+01
        1 -1    0    0  502    0 0.00000000E+00 0.00000000E+00 -.28472402E+04 0.28472402E+04 0.32000000E+00 0.0000E+00 0.9000E+01
       25  1    1    2    0    0 0.51421337E+03 0.24266033E+03 -.76799293E+03 0.96371031E+03 0.12500000E+03 0.0000E+00 0.9000E+01
        1  1    1    2  502    0 -.25993041E+03 0.11423864E+01 -.19498687E+04 0.19671180E+04 0.32000000E+00 0.0000E+00 0.9000E+01
       -1  1    1    2    0  501 -.25428295E+03 -.24380272E+03 0.13321862E+04 0.13779767E+04 0.32000000E+00 0.0000E+00 0.9000E+01
#aMCatNLO 1  0  0  1  5 0.32107688D+02 0.00000000D+00  -5  6  0 0.00000000D+00 0.00000000D+00 0.00000000D+00 0.00000000D+00 0.00000000D+00
  <mgrwgt>
 0.1957943960D-02   11    4    0
 0.203995736249844D+04 0.000000000000000D+00 0.000000000000000D+00 0.203995736249844D+04
 0.203995736249844D+04 0.000000000000000D+00 0.000000000000000D+00 -.203995736249844D+04
 0.756923860970099D+03 0.514224322560234D+03 0.242659822856934D+03 -.483733695088932D+03
 0.141526360243675D+04 -.259942868581002D+03 0.114145495901121D+01 -.139118635219610D+04
 0.190772726159003D+04 -.254281453979231D+03 -.243801277815945D+03 0.187492004728503D+04
 0.000000000000000D+00 0.000000000000000D+00 0.000000000000000D+00 0.000000000000000D+00
 0.238727325727449D+04 0.000000000000000D+00 0.000000000000000D+00 0.238727325727449D+04
 0.204076271635482D+04 0.000000000000000D+00 0.000000000000000D+00 -.204076271635482D+04
 0.752599048969332D+03 0.509602997739359D+03 0.238928494408284D+03 -.483733695088932D+03
 0.141689341119368D+04 -.268613367993449D+03 -.585923907909809D+01 -.139118635219610D+04
 0.191054860174572D+04 -.265970904271105D+03 -.253239519037623D+03 0.187492004728503D+04
 0.347994911720582D+03 0.249812745251953D+02 0.201702637084372D+02 0.346510540919674D+03
 0.203995736249844D+04 0.000000000000000D+00 0.000000000000000D+00 0.203995736249844D+04
 0.203995736249844D+04 0.000000000000000D+00 0.000000000000000D+00 -.203995736249844D+04
 0.756923860970099D+03 0.514224322560234D+03 0.242659822856934D+03 -.483733695088932D+03
 0.141526360243675D+04 -.259942868581002D+03 0.114145495901121D+01 -.139118635219610D+04
 0.000000000000000D+00 0.000000000000000D+00 0.000000000000000D+00 0.000000000000000D+00
 0.190772726159003D+04 -.254281453979231D+03 -.243801277815945D+03 0.187492004728503D+04
 0.238727325727449D+04 0.000000000000000D+00 0.000000000000000D+00 0.238727325727449D+04
 0.204076271635482D+04 0.000000000000000D+00 0.000000000000000D+00 -.204076271635482D+04
 0.752599048969332D+03 0.509602997739359D+03 0.238928494408284D+03 -.483733695088932D+03
 0.141689341119368D+04 -.268613367993449D+03 -.585923907909809D+01 -.139118635219610D+04
 0.347994911720582D+03 0.249812745251953D+02 0.201702637084372D+02 0.346510540919674D+03
 0.191054860174572D+04 -.265970904271105D+03 -.253239519037623D+03 0.187492004728503D+04
0.161735659519D-02 0.000000000000D+00 0.000000000000D+00 0.369177915831D-04 0.000000000000D+00  6 -1 1 25 1 -1 21 0 0.22485612D+00 0.43803696D+00 0.35664941D+06 0.35664941D+06 0.35664941D+06 0.10790375D+01  1  2  2  1  6  1       -1 0.138126306992D-04 0.100000000000D+01
0.176885879545D-03 0.000000000000D+00 -.621107518531D-05 0.369177915831D-04 0.000000000000D+00  6 -1 1 25 1 -1 21 2 0.22485612D+00 0.43803696D+00 0.35664941D+06 0.35664941D+06 0.35664941D+06 0.10790375D+01  1  2  3  1  6  1       -1 0.175888265549D-05 0.100000000000D+01
-.970512170833D-03 0.000000000000D+00 0.000000000000D+00 0.369177915831D-04 0.000000000000D+00  6 -1 1 25 1 -1 21 2 0.22485612D+00 0.43803696D+00 0.35664941D+06 0.35664941D+06 0.35664941D+06 0.10790375D+01  1  2 15  1  6  1       -1 -.965038604898D-05 0.100000000000D+01
0.306550158469D-08 0.000000000000D+00 0.000000000000D+00 0.369177915831D-04 0.000000000000D+00  6 -1 1 25 1 -1 21 2 0.26317904D+00 0.43803696D+00 0.38724487D+06 0.38724487D+06 0.38724487D+06 0.10764437D+01  1  2 12  1  6  1       -1 0.144519840731D-10 0.100000000000D+01
0.367272257908D+00 0.000000000000D+00 0.000000000000D+00 0.369177915831D-04 0.000000000000D+00  6 -1 1 25 1 -1 21 2 0.26895517D+00 0.43803696D+00 0.38724487D+06 0.38724487D+06 0.38724487D+06 0.10764437D+01  1  2 12  1  6  1       -1 0.154680807334D-02 0.100000000000D+01
-.172134291003D+00 0.000000000000D+00 0.000000000000D+00 0.369177915831D-04 0.000000000000D+00  6 -1 1 25 1 -1 21 2 0.22485612D+00 0.43803696D+00 0.35664941D+06 0.35664941D+06 0.35664941D+06 0.10790375D+01  1  2  4  1  6  1       -1 -.171163475365D-02 0.100000000000D+01
-.430828204284D+00 0.000000000000D+00 -.214323830454D-02 0.369177915831D-04 0.000000000000D+00  6 -1 1 25 1 -1 21 2 0.26317470D+00 0.43803696D+00 0.35664941D+06 0.35664941D+06 0.35664941D+06 0.10790375D+01  1  2  5  1  6  1       -1 -.206270274750D-02 0.100000000000D+01
0.425907810209D+00 0.000000000000D+00 0.211697462161D-02 0.369177915831D-04 0.000000000000D+00  6 -1 1 25 1 -1 21 2 0.22485612D+00 0.43803696D+00 0.35664941D+06 0.35664941D+06 0.35664941D+06 0.10790375D+01  1  2  6  1  6  1       -1 0.423505744010D-02 0.100000000000D+01
0.726846920984D-10 0.000000000000D+00 0.000000000000D+00 0.369177915831D-04 0.000000000000D+00  6 21 1 25 1 1 -1 2 0.26317904D+00 0.43803696D+00 0.38724487D+06 0.38724487D+06 0.38724487D+06 0.10764437D+01  3  4 12  5  5  1       -1 0.258241165885D-11 0.100000000000D+01
0.964778438834D-02 0.000000000000D+00 0.000000000000D+00 0.369177915831D-04 0.000000000000D+00  6 21 1 25 1 1 -1 2 0.26895517D+00 0.43803696D+00 0.38724487D+06 0.38724487D+06 0.38724487D+06 0.10764437D+01  3  4 12  5  5  1       -1 0.313285926886D-03 0.100000000000D+01
-.101981033902D-01 0.000000000000D+00 -.508130647249D-04 0.369177915831D-04 0.000000000000D+00  6 21 1 25 1 1 -1 2 0.26317470D+00 0.43803696D+00 0.35664941D+06 0.35664941D+06 0.35664941D+06 0.10790375D+01  3  4  5  5  5  1       -1 -.368791123170D-03 0.100000000000D+01
  </mgrwgt>
  </event>
  <event>
  6     66 -.23209023E-05 0.15906556E+03 0.75467711E-02 0.95191021E-01
       -1 -1    0    0    0  501 0.00000000E+00 0.00000000E+00 0.60817243E+03 0.60817251E+03 0.32000000E+00 0.0000E+00 0.9000E+01
        1 -1    0    0  502    0 -.00000000E+00 -.00000000E+00 -.65674648E+03 0.65674656E+03 0.32000000E+00 0.0000E+00 0.9000E+01
       25  1    1    2    0    0 -.34608837E+03 0.28556756E+03 -.20688449E+03 0.50965889E+03 0.12500000E+03 0.0000E+00 0.9000E+01
        1  1    1    2  503    0 0.68266074E+02 -.15004640E+03 -.19992512E+03 0.25912224E+03 0.32000000E+00 0.0000E+00 0.9000E+01
       -1  1    1    2    0  501 0.28738389E+03 -.12911398E+03 0.36546983E+03 0.48252276E+03 0.32000000E+00 0.0000E+00 0.9000E+01
       21  1    1    2  502  503 -.95615906E+01 -.64071829E+01 -.72342714E+01 0.13615182E+02 0.75000000E+00 0.0000E+00 0.9000E+01
#aMCatNLO 2  0  0  4  2 0.11479918D+02 0.00000000D+00  -5  6  0 0.00000000D+00 0.00000000D+00 0.00000000D+00 0.00000000D+00 0.00000000D+00
  <mgrwgt>
 -.1596964399D-02    3    2    0
 0.631993042327739D+03 0.000000000000000D+00 0.000000000000000D+00 0.631993042327739D+03
 0.631993042327739D+03 -.000000000000000D+00 -.000000000000000D+00 -.631993042327739D+03
 0.502687331956148D+03 -.346704864455222D+03 0.287195366866868D+03 -.185429533576727D+03
 0.263545854145428D+03 0.599178621977319D+02 -.159696597393106D+03 -.200906106945411D+03
 0.497752898553903D+03 0.286787002257490D+03 -.127498769473762D+03 0.386335640522138D+03
 0.000000000000000D+00 0.000000000000000D+00 0.000000000000000D+00 -.000000000000000D+00
 0.631993042327739D+03 0.000000000000000D+00 0.000000000000000D+00 0.631993042327739D+03
 0.631993042327739D+03 -.000000000000000D+00 -.000000000000000D+00 -.631993042327739D+03
 0.502093444127220D+03 -.346088980054980D+03 0.285553875673783D+03 -.187494609543099D+03
 0.251601785128626D+03 0.682921651432497D+02 -.150023781507283D+03 -.190085516129487D+03
 0.496940254896516D+03 0.287396703409044D+03 -.129123780710118D+03 0.384291297144957D+03
 0.133506005031167D+02 -.959988849731301D+01 -.640631345638185D+01 -.671117147237040D+01
-.355580526733D-07 0.000000000000D+00 0.000000000000D+00 0.186020472494D-06 0.000000000000D+00  6 -1 1 25 1 -1 21 2 0.93565001D-01 0.10103793D+00 0.22906777D+06 0.22906777D+06 0.22906777D+06 0.10933276D+01  1  2 13  3  6  4        1 -.180771403968D-06 0.100000000000D+01
-.425477428530D-04 0.000000000000D+00 0.000000000000D+00 0.186020472494D-06 0.000000000000D+00  6 -1 1 25 1 -1 21 2 0.93565001D-01 0.10103793D+00 0.22906777D+06 0.22906777D+06 0.22906777D+06 0.10933276D+01  1  2 13  3  6  4        1 -.216305861344D-03 0.100000000000D+01
-.271220164761D-03 0.000000000000D+00 0.000000000000D+00 0.186020472494D-06 0.000000000000D+00  6 -1 1 25 1 -1 21 2 0.93565001D-01 0.10103793D+00 0.22641210D+06 0.22641210D+06 0.22641210D+06 0.10937119D+01  1  2  8  3  6  4        1 -.138047776661D-02 0.100000000000D+01
  </mgrwgt>
  </event>
  <event>
  6     66 0.23209023E-05 0.62919238E+02 0.75467711E-02 0.92477162E-01
       -1 -1    0    0    0  503 0.00000000E+00 0.00000000E+00 0.22391236E+04 0.22391236E+04 0.32000000E+00 0.0000E+00 0.9000E+01
        1 -1    0    0  502    0 0.00000000E+00 0.00000000E+00 -.17053676E+04 0.17053676E+04 0.32000000E+00 0.0000E+00 0.9000E+01
       25  1    1    2    0    0 0.34087786E+03 0.49175903E+03 0.56291052E+03 0.83097407E+03 0.12500000E+03 0.0000E+00 0.9000E+01
        1  1    1    2  502    0 -.38841737E+02 -.68974818E+02 -.15238897E+04 0.15259444E+04 0.32000000E+00 0.0000E+00 0.9000E+01
       -1  1    1    2    0  501 -.29753247E+03 -.38990615E+03 0.12886152E+04 0.13787972E+04 0.32000000E+00 0.0000E+00 0.9000E+01
       21  1    1    2  501  503 -.45036555E+01 -.32878066E+02 0.20611996E+03 0.20877560E+03 0.75000000E+00 0.0000E+00 0.9000E+01
#aMCatNLO 2  0  0  1  5 0.33185089D+02 0.00000000D+00  -5  6  0 0.00000000D+00 0.00000000D+00 0.00000000D+00 0.00000000D+00 0.00000000D+00
  <mgrwgt>
 0.1024501997D-02    6    2    0
 0.186058625310671D+04 0.000000000000000D+00 0.000000000000000D+00 0.186058625310671D+04
 0.186058625310671D+04 0.000000000000000D+00 0.000000000000000D+00 -.186058625310671D+04
 0.779957528639080D+03 0.339912638590106D+03 0.484825057322823D+03 0.492049599531809D+03
 0.166677525186008D+04 -.408618495373585D+02 -.837044723858183D+02 -.166417054738035D+04
 0.127443972571426D+04 -.299050789052748D+03 -.401120584937005D+03 0.117212094784854D+04
 0.000000000000000D+00 -.000000000000000D+00 -.000000000000000D+00 0.000000000000000D+00
 0.205064536275147D+04 0.000000000000000D+00 0.000000000000000D+00 0.205064536275147D+04
 0.186210936380155D+04 0.000000000000000D+00 0.000000000000000D+00 -.186210936380155D+04
 0.784683557351042D+03 0.340859445590320D+03 0.491737038598408D+03 0.492049599531809D+03
 0.166605251203237D+04 -.388450645471047D+02 -.689813238599084D+02 -.166417054738035D+04
 0.127058440473640D+04 -.297510725530193D+03 -.389877649229194D+03 0.117212094784854D+04
 0.191434252433206D+03 -.450365551302139D+01 -.328780655093055D+02 0.188535998949925D+03
-.606386839417D-09 0.000000000000D+00 0.000000000000D+00 0.110191604066D-03 0.000000000000D+00  6 -1 1 25 1 -1 21 2 0.34460082D+00 0.26214955D+00 0.36846007D+06 0.36846007D+06 0.36846007D+06 0.10780085D+01  1  2 13  1  6  1       -1 -.319872831564D-11 0.100000000000D+01
-.140076762813D+00 0.000000000000D+00 0.000000000000D+00 0.110191604066D-03 0.000000000000D+00  6 -1 1 25 1 -1 21 2 0.34927834D+00 0.26214955D+00 0.36846007D+06 0.36846007D+06 0.36846007D+06 0.10780085D+01  1  2 13  1  6  1       -1 -.665926994159D-03 0.100000000000D+01
-.118549564363D-02 0.000000000000D+00 0.000000000000D+00 0.110191604066D-03 0.000000000000D+00  6 -1 1 25 1 -1 21 2 0.31255308D+00 0.26214955D+00 0.35918245D+06 0.35918245D+06 0.35918245D+06 0.10788137D+01  1  2  8  1  6  1       -1 -.126717831591D-04 0.100000000000D+01
-.770794830439D-03 0.000000000000D+00 0.000000000000D+00 0.110191604066D-03 0.000000000000D+00  6 -1 1 25 1 -1 21 2 0.34456892D+00 0.26214955D+00 0.35918245D+06 0.35918245D+06 0.35918245D+06 0.10788137D+01  1  2  9  1  6  1       -1 -.408754809697D-05 0.100000000000D+01
0.767144125607D-03 0.000000000000D+00 0.000000000000D+00 0.110191604066D-03 0.000000000000D+00  6 -1 1 25 1 -1 21 2 0.31255308D+00 0.26214955D+00 0.35918245D+06 0.35918245D+06 0.35918245D+06 0.10788137D+01  1  2 10  1  6  1       -1 0.820001664599D-05 0.100000000000D+01
0.321905746388D+00 0.000000000000D+00 0.000000000000D+00 0.110191604066D-03 0.199561478818D-05  6 -1 1 25 1 -1 21 2 0.34448042D+00 0.26236415D+00 0.36846007D+06 0.36846007D+06 0.36846007D+06 0.10780085D+01  1  2  1  1  6  1       -1 0.169898830859D-02 0.100000000000D+01
  </mgrwgt>
  </event>
  <event>
  6     66 0.23209023E-05 0.30732966E+02 0.75467711E-02 0.94376855E-01
       -1 -1    0    0    0  501 0.00000000E+00 0.00000000E+00 0.12544654E+04 0.12544654E+04 0.32000000E+00 0.0000E+00 0.9000E+01
        1 -1    0    0  502    0 0.00000000E+00 0.00000000E+00 -.49178693E+03 0.49178704E+03 0.32000000E+00 0.0000E+00 0.9000E+01
       25  1    1    2    0    0 -.40827770E+03 -.28876275E+03 -.18902849E+03 0.54902766E+03 0.12500000E+03 0.0000E+00 0.9000E+01
        1  1    1    2  502    0 0.18763653E+02 0.24504765E+02 -.66205169E+02 0.73046457E+02 0.32000000E+00 0.0000E+00 0.9000E+01
       -1  1    1    2    0  503 0.27391104E+03 0.22285104E+03 0.78886528E+03 0.86429067E+03 0.32000000E+00 0.0000E+00 0.9000E+01
       21  1    1    2  503  501 0.11560301E+03 0.41406943E+02 0.22904683E+03 0.25988768E+03 0.75000000E+00 0.0000E+00 0.9000E+01
#aMCatNLO 2  0  0  5  1 0.47499740D-01 0.00000000D+00  -5  6  0 0.00000000D+00 0.00000000D+00 0.00000000D+00 0.00000000D+00 0.00000000D+00
  <mgrwgt>
 0.1009972761D-02    1    2    0
 0.785448798151720D+03 0.000000000000000D+00 0.000000000000000D+00 0.785448798151720D+03
 0.785448798151720D+03 -.000000000000000D+00 -.000000000000000D+00 -.785448798151720D+03
 0.703811248447154D+03 -.409215147689732D+03 -.289401873362102D+03 -.478032208158111D+03
 0.113567463721708D+03 0.186194325660247D+02 0.244100546714462D+02 -.109339081659019D+03
 0.753518884134578D+03 0.390595715123707D+03 0.264991818690656D+03 0.587371289817129D+03
 0.000000000000000D+00 0.000000000000000D+00 0.000000000000000D+00 0.000000000000000D+00
 0.785448798151720D+03 0.000000000000000D+00 0.000000000000000D+00 0.785448798151720D+03
 0.785448798151720D+03 -.000000000000000D+00 -.000000000000000D+00 -.785448798151720D+03
 0.702048010682502D+03 -.408278077411607D+03 -.288766136850854D+03 -.476623057579649D+03
 0.113395546998222D+03 0.187707139195443D+02 0.245126884675964D+02 -.109111587295150D+03
 0.577654627667059D+03 0.273836584066231D+03 0.222820470053119D+03 0.457219238678135D+03
 0.177799410955657D+03 0.115670779425832D+03 0.414329783301382D+02 0.128515406196664D+03
0.954691532422D-03 0.000000000000D+00 0.000000000000D+00 0.217724998032D-05 0.596040552646D-08  6 -1 1 25 1 -1 21 2 0.19299469D+00 0.75659540D-01 0.26124459D+06 0.26124459D+06 0.26124459D+06 0.10890246D+01  1  2  1  4  6  5       -1 0.100997276138D-02 0.100000000000D+01
  </mgrwgt>
  </event>
  <event>
  5     66 0.23209023E-05 0.90545194E+02 0.75467711E-02 0.94160087E-01
       -1 -1    0    0    0  501 0.00000000E+00 0.00000000E+00 0.15366807E+04 0.15366808E+04 0.32000000E+00 0.0000E+00 0.9000E+01
        1 -1    0    0  502    0 0.00000000E+00 0.00000000E+00 -.19102734E+04 0.19102734E+04 0.32000000E+00 0.0000E+00 0.9000E+01
       25  1    1    2    0    0 -.42823108E+03 0.24825233E+03 -.16378336E+03 0.53615396E+03 0.12500000E+03 0.0000E+00 0.9000E+01
        1  1    1    2  502    0 0.24393664E+02 -.87191130E+02 -.15239344E+04 0.15266216E+04 0.32000000E+00 0.0000E+00 0.9000E+01
       -1  1    1    2    0  501 0.40383742E+03 -.16106120E+03 0.13141251E+04 0.13841786E+04 0.32000000E+00 0.0000E+00 0.9000E+01
#aMCatNLO 1  0  0  1  5 0.65455423D+01 0.00000000D+00  -5  6  0 0.00000000D+00 0.00000000D+00 0.00000000D+00 0.00000000D+00 0.00000000D+00
  <mgrwgt>
 0.8778717659D-02   13    4    0
 0.171332436746168D+04 0.000000000000000D+00 0.000000000000000D+00 0.171332436746168D+04
 0.171332436746168D+04 0.000000000000000D+00 0.000000000000000D+00 -.171332436746168D+04
 0.521461230248089D+03 -.428227050093017D+03 0.248255716174606D+03 -.106242682605047D+03
 0.136955560236707D+04 0.243954959965335D+02 -.871968576715639D+02 -.136655922512064D+04
 0.153563190230820D+04 0.403831554096483D+03 -.161058858503042D+03 0.147280190772569D+04
 0.000000000000000D+00 -.000000000000000D+00 -.000000000000000D+00 0.000000000000000D+00
 0.188365172696143D+04 0.000000000000000D+00 0.000000000000000D+00 0.188365172696143D+04
 0.171339037938714D+04 0.000000000000000D+00 0.000000000000000D+00 -.171339037938714D+04
 0.521201307459151D+03 -.427509277030900D+03 0.248946004873605D+03 -.106242682605047D+03
 0.136947623248314D+04 0.262810564691097D+02 -.853834974966084D+02 -.136655922512064D+04
 0.153597744658260D+04 0.405946062260197D+03 -.159025317309606D+03 0.147280190772569D+04
 0.170387119823685D+03 -.471784169840748D+01 -.453719006739042D+01 0.170261347574287D+03
 0.171332436746168D+04 0.000000000000000D+00 0.000000000000000D+00 0.171332436746168D+04
 0.171332436746168D+04 0.000000000000000D+00 0.000000000000000D+00 -.171332436746168D+04
 0.521461230248089D+03 -.428227050093017D+03 0.248255716174606D+03 -.106242682605047D+03
 0.136955560236707D+04 0.243954959965335D+02 -.871968576715639D+02 -.136655922512064D+04
 0.000000000000000D+00 -.000000000000000D+00 -.000000000000000D+00 0.000000000000000D+00
 0.153563190230820D+04 0.403831554096483D+03 -.161058858503042D+03 0.147280190772569D+04
 0.188365172696143D+04 0.000000000000000D+00 0.000000000000000D+00 0.188365172696143D+04
 0.171339037938714D+04 0.000000000000000D+00 0.000000000000000D+00 -.171339037938714D+04
 0.521201307459151D+03 -.427509277030900D+03 0.248946004873605D+03 -.106242682605047D+03
 0.136947623248314D+04 0.262810564691097D+02 -.853834974966084D+02 -.136655922512064D+04
 0.170387119823685D+03 -.471784169840748D+01 -.453719006739042D+01 0.170261347574287D+03
 0.153597744658260D+04 0.405946062260197D+03 -.159025317309606D+03 0.147280190772569D+04
0.895178796382D-03 0.000000000000D+00 0.000000000000D+00 0.268385536436D-03 0.000000000000D+00  6 -1 1 25 1 -1 21 0 0.23641243D+00 0.29388821D+00 0.26823746D+06 0.26823746D+06 0.26823746D+06 0.10881661D+01  1  2  2  1  6  1       -1 0.280265708808D-04 0.100000000000D+01
0.270397267357D-03 0.000000000000D+00 -.343772228410D-05 0.268385536436D-03 0.000000000000D+00  6 -1 1 25 1 -1 21 2 0.23641243D+00 0.29388821D+00 0.26823746D+06 0.26823746D+06 0.26823746D+06 0.10881661D+01  1  2  3  1  6  1       -1 0.100242716664D-04 0.100000000000D+01
-.593648899667D-03 0.000000000000D+00 0.000000000000D+00 0.268385536436D-03 0.000000000000D+00  6 -1 1 25 1 -1 21 2 0.23641243D+00 0.29388821D+00 0.26823746D+06 0.26823746D+06 0.26823746D+06 0.10881661D+01  1  2 15  1  6  1       -1 -.220079807126D-04 0.100000000000D+01
0.364004606723D-08 0.000000000000D+00 0.000000000000D+00 0.268385536436D-03 0.000000000000D+00  6 -1 1 25 1 -1 21 2 0.25991928D+00 0.29388821D+00 0.27150527D+06 0.27150527D+06 0.27150527D+06 0.10877732D+01  1  2 12  1  6  1       -1 0.860108001921D-10 0.100000000000D+01
0.203235654817D+01 0.000000000000D+00 0.000000000000D+00 0.268385536436D-03 0.000000000000D+00  6 -1 1 25 1 -1 21 2 0.26017440D+00 0.29388821D+00 0.27150527D+06 0.27150527D+06 0.27150527D+06 0.10877732D+01  1  2 12  1  6  1       -1 0.477868411271D-01 0.100000000000D+01
-.199379817391D+01 0.000000000000D+00 0.000000000000D+00 0.268385536436D-03 0.000000000000D+00  6 -1 1 25 1 -1 21 2 0.23641243D+00 0.29388821D+00 0.26823746D+06 0.26823746D+06 0.26823746D+06 0.10881661D+01  1  2  4  1  6  1       -1 -.739148540171D-01 0.100000000000D+01
-.228048534252D+01 0.000000000000D+00 -.186666547498D-02 0.268385536436D-03 0.000000000000D+00  6 -1 1 25 1 -1 21 2 0.25991852D+00 0.29388821D+00 0.26823746D+06 0.26823746D+06 0.26823746D+06 0.10881661D+01  1  2  5  1  6  1       -1 -.539980481579D-01 0.100000000000D+01
0.227046271081D+01 0.000000000000D+00 0.185831056951D-02 0.268385536436D-03 0.000000000000D+00  6 -1 1 25 1 -1 21 2 0.23641243D+00 0.29388821D+00 0.26823746D+06 0.26823746D+06 0.26823746D+06 0.10881661D+01  1  2  6  1  6  1       -1 0.841714683146D-01 0.100000000000D+01
0.201426034865D+00 0.000000000000D+00 0.000000000000D+00 0.268385536436D-03 0.361780711587D-04  6 -1 1 25 1 -1 21 2 0.25991498D+00 0.29389954D+00 0.27150527D+06 0.27150527D+06 0.27150527D+06 0.10877732D+01  1  2 11  1  6  1       -1 0.475936340084D-02 0.100000000000D+01
0.570722333824D-10 0.000000000000D+00 0.000000000000D+00 0.268385536436D-03 0.000000000000D+00  6 21 1 25 1 1 -1 2 0.25991928D+00 0.29388821D+00 0.27150527D+06 0.27150527D+06 0.27150527D+06 0.10877732D+01  3  4 12  5  5  1       -1 0.101379885158D-10 0.100000000000D+01
0.321518544341D-01 0.000000000000D+00 0.000000000000D+00 0.268385536436D-03 0.000000000000D+00  6 21 1 25 1 1 -1 2 0.26017440D+00 0.29388821D+00 0.27150527D+06 0.27150527D+06 0.27150527D+06 0.10877732D+01  3  4 12  5  5  1       -1 0.568862128937D-02 0.100000000000D+01
-.357104167318D-01 0.000000000000D+00 -.289446404803D-04 0.268385536436D-03 0.000000000000D+00  6 21 1 25 1 1 -1 2 0.25991852D+00 0.29388821D+00 0.26823746D+06 0.26823746D+06 0.26823746D+06 0.10881661D+01  3  4  5  5  5  1       -1 -.635879926278D-02 0.100000000000D+01
0.353597506901D-02 0.000000000000D+00 0.000000000000D+00 0.268385536436D-03 0.316706756649D-06  6 21 1 25 1 1 -1 2 0.25991498D+00 0.29389954D+00 0.27150527D+06 0.27150527D+06 0.27150527D+06 0.10877732D+01  3  4 11  5  5  1       -1 0.628082006992D-03 0.100000000000D+01
  </mgrwgt>
  </event>
  <event>
  5     66 -.23209023E-05 0.43573268E+02 0.75467711E-02 0.89902920E-01
       -1 -1    0    0    0  501 0.00000000E+00 0.00000000E+00 0.96024519E+03 0.96024525E+03 0.32000000E+00 0.0000E+00 0.9000E+01
        1 -1    0    0  502    0 0.00000000E+00 0.00000000E+00 -.15334623E+04 0.15334623E+04 0.32000000E+00 0.0000E+00 0.9000E+01
       25  1    1    2    0    0 0.68055554E+03 -.16553419E+03 -.59955048E+03 0.93039948E+03 0.12500000E+03 0.0000E+00 0.9000E+01
        1  1    1    2  502    0 0.34130412E+02 -.27086561E+02 -.59519022E+03 0.59678310E+03 0.32000000E+00 0.0000E+00 0.9000E+01
       -1  1    1    2    0  501 -.71468596E+03 0.19262075E+03 0.62152363E+03 0.96652496E+03 0.32000000E+00 0.0000E+00 0.9000E+01
#aMCatNLO 1  0  0  1  1 0.35848585D+02 0.00000000D+00  -5  6  0 0.00000000D+00 0.00000000D+00 0.00000000D+00 0.00000000D+00 0.00000000D+00
  <mgrwgt>
 -.8398840240D-02    7    4    0
 0.121346605744178D+04 0.000000000000000D+00 0.000000000000000D+00 0.121346605744178D+04
 0.121346605744178D+04 0.000000000000000D+00 0.000000000000000D+00 -.121346605744178D+04
 0.814381491879369D+03 0.680553156070565D+03 -.165533138944643D+03 -.396280703528690D+03
 0.472637785130040D+03 0.341309019734807D+02 -.270871041649280D+02 -.470624952856374D+03
 0.113991283787416D+04 -.714684058044045D+03 0.192620243109571D+03 0.866905656385064D+03
 0.000000000000000D+00 -.000000000000000D+00 -.000000000000000D+00 0.000000000000000D+00
 0.143009005914386D+04 0.000000000000000D+00 0.000000000000000D+00 0.143009005914386D+04
 0.121716489265843D+04 0.000000000000000D+00 0.000000000000000D+00 -.121716489265843D+04
 0.828748554991220D+03 0.698536212152841D+03 -.161888639879403D+03 -.396280703528690D+03
 0.473382677419661D+03 0.444845188800751D+02 -.249888096945499D+02 -.470624952856374D+03
 0.112540623141025D+04 -.689891522635921D+03 0.197644771293571D+03 0.866905656385064D+03
 0.219717487981166D+03 -.531292083969953D+02 -.107673217196185D+02 0.212925166485431D+03
 0.121346605744178D+04 0.000000000000000D+00 0.000000000000000D+00 0.121346605744178D+04
 0.121346605744178D+04 0.000000000000000D+00 0.000000000000000D+00 -.121346605744178D+04
 0.814381491879369D+03 0.680553156070565D+03 -.165533138944643D+03 -.396280703528690D+03
 0.472637785130040D+03 0.341309019734807D+02 -.270871041649280D+02 -.470624952856374D+03
 0.000000000000000D+00 -.000000000000000D+00 -.000000000000000D+00 0.000000000000000D+00
 0.113991283787416D+04 -.714684058044045D+03 0.192620243109571D+03 0.866905656385064D+03
 0.143009005914386D+04 0.000000000000000D+00 0.000000000000000D+00 0.143009005914386D+04
 0.121716489265843D+04 0.000000000000000D+00 0.000000000000000D+00 -.121716489265843D+04
 0.828748554991220D+03 0.698536212152841D+03 -.161888639879403D+03 -.396280703528690D+03
 0.473382677419661D+03 0.444845188800751D+02 -.249888096945499D+02 -.470624952856374D+03
 0.219717487981166D+03 -.531292083969953D+02 -.107673217196185D+02 0.212925166485431D+03
 0.112540623141025D+04 -.689891522635921D+03 0.197644771293571D+03 0.866905656385064D+03
0.495607684710D-03 0.000000000000D+00 0.000000000000D+00 0.683302236439D-05 0.000000000000D+00  6 -1 1 25 1 -1 21 0 0.14773004D+00 0.23591728D+00 0.55892227D+06 0.55892227D+06 0.55892227D+06 0.10651078D+01  1  2  2  1  6  1       -1 0.137706138940D-03 0.100000000000D+01
0.220773117980D-03 0.000000000000D+00 -.190326400579D-05 0.683302236439D-05 0.000000000000D+00  6 -1 1 25 1 -1 21 2 0.14773004D+00 0.23591728D+00 0.55892227D+06 0.55892227D+06 0.55892227D+06 0.10651078D+01  1  2  3  1  6  1       -1 0.695902767956D-04 0.100000000000D+01
-.344761503287D-03 0.000000000000D+00 0.000000000000D+00 0.683302236439D-05 0.000000000000D+00  6 -1 1 25 1 -1 21 2 0.14773004D+00 0.23591728D+00 0.55892227D+06 0.55892227D+06 0.55892227D+06 0.10651078D+01  1  2 15  1  6  1       -1 -.108672870419D-03 0.100000000000D+01
-.330719879459D-01 0.000000000000D+00 0.000000000000D+00 0.683302236439D-05 0.000000000000D+00  6 -1 1 25 1 -1 21 2 0.14773004D+00 0.23591728D+00 0.55892227D+06 0.55892227D+06 0.55892227D+06 0.10651078D+01  1  2  4  1  6  1       -1 -.104246785858D-01 0.100000000000D+01
-.203844476169D-01 0.000000000000D+00 -.690375995614D-03 0.683302236439D-05 0.000000000000D+00  6 -1 1 25 1 -1 21 2 0.17431055D+00 0.23591728D+00 0.55892227D+06 0.55892227D+06 0.55892227D+06 0.10651078D+01  1  2  5  1  6  1       -1 -.387012885224D-02 0.100000000000D+01
0.202304839957D-01 0.000000000000D+00 0.681033291457D-03 0.683302236439D-05 0.000000000000D+00  6 -1 1 25 1 -1 21 2 0.14773004D+00 0.23591728D+00 0.55892227D+06 0.55892227D+06 0.55892227D+06 0.10651078D+01  1  2  6  1  6  1       -1 0.637688589013D-02 0.100000000000D+01
-.497334359206D-03 0.000000000000D+00 -.170369272625D-04 0.683302236439D-05 0.000000000000D+00  6 21 1 25 1 1 -1 2 0.17431055D+00 0.23591728D+00 0.55892227D+06 0.55892227D+06 0.55892227D+06 0.10651078D+01  3  4  5  5  5  1       -1 -.579542237168D-03 0.100000000000D+01
  </mgrwgt>
  </event>
  <event>
  5     66 0.23209023E-05 0.10058036E+03 0.75467711E-02 0.88525757E-01
       -1 -1    0    0    0  501 0.00000000E+00 0.00000000E+00 0.25379872E+04 0.25379872E+04 0.32000000E+00 0.0000E+00 0.9000E+01
        1 -1    0    0  502    0 0.00000000E+00 0.00000000E+00 -.13290544E+04 0.13290545E+04 0.32000000E+00 0.0000E+00 0.9000E+01
       25  1    1    2    0    0 -.15361788E+03 -.65920723E+03 0.72878491E+03 0.10024495E+04 0.12500000E+03 0.0000E+00 0.9000E+01
        1  1    1    2  502    0 0.97625311E+02 0.24167391E+02 -.11291521E+04 0.11336222E+04 0.32000000E+00 0.0000E+00 0.9000E+01
       -1  1    1    2    0  501 0.55992570E+02 0.63503984E+03 0.16092999E+04 0.17309700E+04 0.32000000E+00 0.0000E+00 0.9000E+01
#aMCatNLO 1  0  0  1  1 0.35848585D+02 0.00000000D+00  -5  6  0 0.00000000D+00 0.00000000D+00 0.00000000D+00 0.00000000D+00 0.00000000D+00
  <mgrwgt>
 0.3491722109D-03    7    4    0
 0.183660646562024D+04 0.000000000000000D+00 0.000000000000000D+00 0.183660646562024D+04
 0.183660646562024D+04 0.000000000000000D+00 0.000000000000000D+00 -.183660646562024D+04
 0.815524085215127D+03 -.153621999091032D+03 -.659166782344530D+03 0.437440245079033D+03
 0.156512050251118D+04 0.976331898125975D+02 0.241695926228556D+02 -.156188532819164D+04
 0.129256834351417D+04 0.559888092784347D+02 0.634997189721674D+03 0.112444508311261D+04
 0.000000000000000D+00 0.000000000000000D+00 -.000000000000000D+00 0.000000000000000D+00
 0.200681019536792D+04 0.000000000000000D+00 0.000000000000000D+00 0.200681019536792D+04
 0.197461232215775D+04 0.000000000000000D+00 0.000000000000000D+00 -.197461232215775D+04
 0.787947319567060D+03 -.197486877707921D+03 -.612275218779338D+03 0.437440245079033D+03
 0.156621366005248D+04 0.119717975731589D+02 0.115741637181801D+03 -.156188532819164D+04
 0.133085130795970D+04 -.157779738583637D+02 0.711715894513275D+03 0.112444508311261D+04
 0.296410229946444D+03 0.201293053993125D+03 -.215182312915738D+03 0.321978732101689D+02
 0.183660646562024D+04 0.000000000000000D+00 0.000000000000000D+00 0.183660646562024D+04
 0.183660646562024D+04 0.000000000000000D+00 0.000000000000000D+00 -.183660646562024D+04
 0.815524085215127D+03 -.153621999091032D+03 -.659166782344530D+03 0.437440245079033D+03
 0.156512050251118D+04 0.976331898125975D+02 0.241695926228556D+02 -.156188532819164D+04
 0.000000000000000D+00 0.000000000000000D+00 -.000000000000000D+00 0.000000000000000D+00
 0.129256834351417D+04 0.559888092784347D+02 0.634997189721674D+03 0.112444508311261D+04
 0.200681019536792D+04 0.000000000000000D+00 0.000000000000000D+00 0.200681019536792D+04
 0.197461232215775D+04 0.000000000000000D+00 0.000000000000000D+00 -.197461232215775D+04
 0.787947319567060D+03 -.197486877707921D+03 -.612275218779338D+03 0.437440245079033D+03
 0.156621366005248D+04 0.119717975731589D+02 0.115741637181801D+03 -.156188532819164D+04
 0.296410229946444D+03 0.201293053993125D+03 -.215182312915738D+03 0.321978732101689D+02
 0.133085130795970D+04 -.157779738583637D+02 0.711715894513275D+03 0.112444508311261D+04
0.368740409081D-01 0.000000000000D+00 0.000000000000D+00 0.305972553623D-04 0.000000000000D+00  6 -1 1 25 1 -1 21 0 0.39045958D+00 0.20446992D+00 0.50859600D+06 0.50859600D+06 0.50859600D+06 0.10679876D+01  1  2  2  1  6  1       -1 0.111867169360D-03 0.100000000000D+01
0.134120963918D-01 0.000000000000D+00 -.141606026245D-03 0.305972553623D-04 0.000000000000D+00  6 -1 1 25 1 -1 21 2 0.39045958D+00 0.20446992D+00 0.50859600D+06 0.50859600D+06 0.50859600D+06 0.10679876D+01  1  2  3  1  6  1       -1 0.464099386414D-04 0.100000000000D+01
-.226746214629D-01 0.000000000000D+00 0.000000000000D+00 0.305972553623D-04 0.000000000000D+00  6 -1 1 25 1 -1 21 2 0.39045958D+00 0.20446992D+00 0.50859600D+06 0.50859600D+06 0.50859600D+06 0.10679876D+01  1  2 15  1  6  1       -1 -.784610966150D-04 0.100000000000D+01
-.157941979773D-02 0.000000000000D+00 0.000000000000D+00 0.305972553623D-04 0.000000000000D+00  6 -1 1 25 1 -1 21 2 0.39045958D+00 0.20446992D+00 0.50859600D+06 0.50859600D+06 0.50859600D+06 0.10679876D+01  1  2  4  1  6  1       -1 -.546527356800D-05 0.100000000000D+01
-.142528685450D+00 0.000000000000D+00 -.505775399992D-01 0.305972553623D-04 0.000000000000D+00  6 -1 1 25 1 -1 21 2 0.43871963D+00 0.20446992D+00 0.50859600D+06 0.50859600D+06 0.50859600D+06 0.10679876D+01  1  2  5  1  6  1       -1 -.179032731003D-03 0.100000000000D+01
0.147759826117D+00 0.000000000000D+00 0.502360344476D-01 0.305972553623D-04 0.000000000000D+00  6 -1 1 25 1 -1 21 2 0.39045958D+00 0.20446992D+00 0.50859600D+06 0.50859600D+06 0.50859600D+06 0.10679876D+01  1  2  6  1  6  1       -1 0.511294003816D-03 0.100000000000D+01
-.241673451245D-02 0.000000000000D+00 -.936247513065D-03 0.305972553623D-04 0.000000000000D+00  6 21 1 25 1 1 -1 2 0.43871963D+00 0.20446992D+00 0.50859600D+06 0.50859600D+06 0.50859600D+06 0.10679876D+01  3  4  5  5  5  1       -1 -.574397997013D-04 0.100000000000D+01
  </mgrwgt>
  </event>
  <event>
  6     66 -.23209023E-05 0.49475129E+02 0.75467711E-02 0.93405114E-01
       -1 -1    0    0    0  501 0.00000000E+00 0.00000000E+00 0.43165908E+03 0.43165920E+03 0.32000000E+00 0.0000E+00 0.9000E+01
        1 -1    0    0  502    0 -.00000000E+00 -.00000000E+00 -.16242748E+04 0.16242748E+04 0.32000000E+00 0.0000E+00 0.9000E+01
       25  1    1    2    0    0 -.41385821E+03 -.35516684E+03 -.16108919E+03 0.58223434E+03 0.12500000E+03 0.0000E+00 0.9000E+01
        1  1    1    2  503    0 0.31223308E+03 0.30714855E+03 -.10768967E+04 0.11625560E+04 0.32000000E+00 0.0000E+00 0.9000E+01
       -1  1    1    2    0  501 0.55561821E+02 0.71195486E+01 0.16627043E+03 0.17545302E+03 0.32000000E+00 0.0000E+00 0.9000E+01
       21  1    1    2  502  503 0.46063301E+02 0.40898741E+02 -.12090027E+03 0.13569072E+03 0.75000000E+00 0.0000E+00 0.9000E+01
#aMCatNLO 2  0  0  4  2 0.10810566D+02 0.00000000D+00  -5  6  0 0.00000000D+00 0.00000000D+00 0.00000000D+00 0.00000000D+00 0.00000000D+00
  <mgrwgt>
 -.7638753556D-03    6    2    0
 0.837336920918277D+03 0.000000000000000D+00 0.000000000000000D+00 0.837336920918277D+03
 0.837336920918277D+03 -.000000000000000D+00 -.000000000000000D+00 -.837336920918277D+03
 0.600436773207631D+03 -.414038777731043D+03 -.355358870827562D+03 0.217235545155795D+03
 0.740486458581721D+03 0.358582508988188D+03 0.348319481698785D+03 -.546271286321847D+03
 0.333750610047202D+03 0.554562687428558D+02 0.703938912877727D+01 0.329035741166052D+03
 0.000000000000000D+00 0.000000000000000D+00 0.000000000000000D+00 0.000000000000000D+00
 0.837336920918277D+03 0.000000000000000D+00 0.000000000000000D+00 0.837336920918277D+03
 0.837336920918277D+03 -.000000000000000D+00 -.000000000000000D+00 -.837336920918277D+03
 0.600178492357594D+03 -.413896514171459D+03 -.355220679008115D+03 0.217018818194097D+03
 0.660533228911757D+03 0.312366653012332D+03 0.307277627865738D+03 -.494278949577736D+03
 0.333646622136861D+03 0.555353501177395D+02 0.711620710740437D+01 0.328915267123680D+03
 0.803154984303431D+02 0.459945110413879D+02 0.408268440349733D+02 -.516551357400409D+02
-.881184386491D-08 0.000000000000D+00 0.000000000000D+00 0.391750130436D-05 0.000000000000D+00  6 -1 1 25 1 -1 21 2 0.66409100D-01 0.24988844D+00 0.31093344D+06 0.31093344D+06 0.31093344D+06 0.10834036D+01  1  2 13  3  6  4        1 -.162182305255D-07 0.100000000000D+01
-.157945608981D-02 0.000000000000D+00 0.000000000000D+00 0.391750130436D-05 0.000000000000D+00  6 -1 1 25 1 -1 21 2 0.66409100D-01 0.24988844D+00 0.31093344D+06 0.31093344D+06 0.31093344D+06 0.10834036D+01  1  2 13  3  6  4        1 -.290699464973D-02 0.100000000000D+01
-.227752987808D-05 0.000000000000D+00 0.000000000000D+00 0.391750130436D-05 0.000000000000D+00  6 -1 1 25 1 -1 21 2 0.66409100D-01 0.24988844D+00 0.31112451D+06 0.31112451D+06 0.31112451D+06 0.10833839D+01  1  2  8  3  6  4        1 -.419150469332D-05 0.100000000000D+01
-.284948325002D-05 0.000000000000D+00 0.000000000000D+00 0.391750130436D-05 0.000000000000D+00  6 -1 1 25 1 -1 21 2 0.66409100D-01 0.24988844D+00 0.31112451D+06 0.31112451D+06 0.31112451D+06 0.10833839D+01  1  2  9  3  6  4        1 -.524411228628D-05 0.100000000000D+01
0.317519836241D-05 0.000000000000D+00 0.000000000000D+00 0.391750130436D-05 0.000000000000D+00  6 -1 1 25 1 -1 21 2 0.66409100D-01 0.24988844D+00 0.31112451D+06 0.31112451D+06 0.31112451D+06 0.10833839D+01  1  2 10  3  6  4        1 0.584354961328D-05 0.100000000000D+01
0.116638052611D-02 0.000000000000D+00 0.000000000000D+00 0.391750130436D-05 0.122425189385D-06  6 -1 1 25 1 -1 21 2 0.66409100D-01 0.24988844D+00 0.31093344D+06 0.31093344D+06 0.31093344D+06 0.10834036D+01  1  2  1  3  6  4        1 0.214672757971D-02 0.100000000000D+01
  </mgrwgt>
  </event>
  <event>
  5     66 0.23209023E-05 0.11062739E+03 0.75467711E-02 0.93176114E-01
       -1 -1    0    0    0  501 0.00000000E+00 0.00000000E+00 0.14612923E+04 0.14612923E+04 0.32000000E+00 0.0000E+00 0.9000E+01
        1 -1    0    0  502    0 0.00000000E+00 0.00000000E+00 -.64364755E+03 0.64364763E+03 0.32000000E+00 0.0000E+00 0.9000E+01
       25  1    1    2    0    0 0.40457288E+03 -.28240919E+03 0.36480826E+03 0.62621421E+03 0.12500000E+03 0.0000E+00 0.9000E+01
        1  1    1    2  502    0 -.79197296E+02 0.77217243E+02 -.46793544E+03 0.48083094E+03 0.32000000E+00 0.0000E+00 0.9000E+01
       -1  1    1    2    0  501 -.32537559E+03 0.20519195E+03 0.92077189E+03 0.99789477E+03 0.32000000E+00 0.0000E+00 0.9000E+01
#aMCatNLO 1  0  0  4  5 0.10172252D+03 0.00000000D+00  -5  6  0 0.00000000D+00 0.00000000D+00 0.00000000D+00 0.00000000D+00 0.00000000D+00
  <mgrwgt>
 0.9665643623D-03    7    2    0
 0.969823332527157D+03 0.000000000000000D+00 0.000000000000000D+00 0.969823332527157D+03
 0.969823332527157D+03 -.000000000000000D+00 -.000000000000000D+00 -.969823332527157D+03
 0.525805226879529D+03 0.404549974947070D+03 -.282398569952687D+03 0.132047347844761D+03
 0.719127881149533D+03 -.792094683316087D+02 0.772287482318982D+02 -.710567723739107D+03
 0.694713557025253D+03 -.325340506615461D+03 0.205169821720788D+03 0.578520375894345D+03
 0.000000000000000D+00 0.000000000000000D+00 0.000000000000000D+00 -.000000000000000D+00
 0.969823332527157D+03 0.000000000000000D+00 0.000000000000000D+00 0.969823332527157D+03
 0.969823332527157D+03 -.000000000000000D+00 -.000000000000000D+00 -.969823332527157D+03
 0.521973641787974D+03 0.403446423242149D+03 -.281322613775031D+03 0.122147669946266D+03
 0.526339807708157D+03 -.148410989485659D+03 0.114080141623606D+02 -.504854066628188D+03
 0.685014389588942D+03 -.326793676910591D+03 0.206586653890282D+03 0.565484359739139D+03
 0.206318825969241D+03 0.717582431541015D+02 0.633279457223884D+02 -.182777963057216D+03
0.189168119462D-02 0.000000000000D+00 0.000000000000D+00 0.966722744414D-05 0.000000000000D+00  6 -1 1 25 1 -1 21 0 0.22481420D+00 0.99022708D-01 0.25211092D+06 0.25211092D+06 0.25211092D+06 0.10901845D+01  1  2  2  3  6  4        1 0.635031109765D-03 0.100000000000D+01
0.395928476889D-03 0.000000000000D+00 -.726455387842D-05 0.966722744414D-05 0.000000000000D+00  6 -1 1 25 1 -1 21 2 0.22481420D+00 0.99022708D-01 0.25211092D+06 0.25211092D+06 0.25211092D+06 0.10901845D+01  1  2  3  3  6  4        1 0.157966065703D-03 0.100000000000D+01
-.111930143761D-02 0.000000000000D+00 0.000000000000D+00 0.966722744414D-05 0.000000000000D+00  6 -1 1 25 1 -1 21 2 0.22481420D+00 0.99022708D-01 0.25211092D+06 0.25211092D+06 0.25211092D+06 0.10901845D+01  1  2 15  3  6  4        1 -.446574709212D-03 0.100000000000D+01
0.451002010889D-08 0.000000000000D+00 0.000000000000D+00 0.966722744414D-05 0.000000000000D+00  6 -1 1 25 1 -1 21 2 0.22481420D+00 0.99022708D-01 0.32413195D+06 0.32413195D+06 0.32413195D+06 0.10820747D+01  1  2 12  3  6  4        1 0.174067250216D-08 0.100000000000D+01
-.274199569621D-03 0.000000000000D+00 0.000000000000D+00 0.966722744414D-05 0.000000000000D+00  6 -1 1 25 1 -1 21 2 0.22481420D+00 0.99022708D-01 0.25211092D+06 0.25211092D+06 0.25211092D+06 0.10901845D+01  1  2  4  3  6  4        1 -.109399120697D-03 0.100000000000D+01
-.561221887317D-02 0.000000000000D+00 0.000000000000D+00 0.966722744414D-05 0.000000000000D+00  6 -1 1 25 1 -1 21 2 0.22481420D+00 0.99022708D-01 0.25211092D+06 0.25211092D+06 0.25211092D+06 0.10901845D+01  1  2  5  3  6  4        1 -.223914213554D-02 0.100000000000D+01
0.744074687441D-02 0.000000000000D+00 -.000000000000D+00 0.966722744414D-05 0.000000000000D+00  6 -1 1 25 1 -1 21 2 0.22481420D+00 0.99022708D-01 0.25211092D+06 0.25211092D+06 0.25211092D+06 0.10901845D+01  1  2  6  3  6  4        1 0.296868141156D-02 0.100000000000D+01
  </mgrwgt>
  </event>
  <event>
  5     66 -.23209023E-05 0.40056664E+02 0.75467711E-02 0.92358626E-01
       -1 -1    0    0    0  501 0.00000000E+00 0.00000000E+00 0.64442159E+03 0.64442167E+03 0.32000000E+00 0.0000E+00 0.9000E+01
        1 -1    0    0  502    0 0.00000000E+00 0.00000000E+00 -.12812536E+04 0.12812537E+04 0.32000000E+00 0.0000E+00 0.9000E+01
       25  1    1    2    0    0 -.40761175E+03 -.39502718E+03 0.33803197E+02 0.58220397E+03 0.12500000E+03 0.0000E+00 0.9000E+01
        1  1    1    2  502    0 0.37765209E+02 -.13335361E+02 -.78062274E+03 0.78164954E+03 0.32000000E+00 0.0000E+00 0.9000E+01
       -1  1    1    2    0  501 0.36984654E+03 0.40836254E+03 0.10998748E+03 0.56182184E+03 0.32000000E+00 0.0000E+00 0.9000E+01
#aMCatNLO 1  0  0  1  1 0.15002009D+03 0.00000000D+00  -5  6  0 0.00000000D+00 0.00000000D+00 0.00000000D+00 0.00000000D+00 0.00000000D+00
  <mgrwgt>
 -.1050664354D-02    7    4    0
 0.908662546451647D+03 0.000000000000000D+00 0.000000000000000D+00 0.908662546451647D+03
 0.908662546451647D+03 0.000000000000000D+00 0.000000000000000D+00 -.908662546451647D+03
 0.628750404545557D+03 -.407570834560146D+03 -.394973704379226D+03 0.239966370312800D+03
 0.554794820292385D+03 0.377711114950445D+02 -.133371449199614D+02 -.553346867999696D+03
 0.633779868065353D+03 0.369799723065102D+03 0.408310849299187D+03 0.313380497686895D+03
 0.000000000000000D+00 -.000000000000000D+00 -.000000000000000D+00 0.000000000000000D+00
 0.141272689117926D+04 0.000000000000000D+00 0.000000000000000D+00 0.141272689117926D+04
 0.909854965134072D+03 0.000000000000000D+00 0.000000000000000D+00 -.909854965134072D+03
 0.617405388737087D+03 -.393047621948426D+03 -.391783259010873D+03 0.239966370312800D+03
 0.555765049754323D+03 0.507140333974869D+02 -.104938562936366D+02 -.553346867999696D+03
 0.644672229919645D+03 0.384699330107032D+03 0.411583980633699D+03 0.313380497686895D+03
 0.504739187902281D+03 -.423657415560937D+02 -.930686532918994D+01 0.502871926045192D+03
 0.908662546451647D+03 0.000000000000000D+00 0.000000000000000D+00 0.908662546451647D+03
 0.908662546451647D+03 0.000000000000000D+00 0.000000000000000D+00 -.908662546451647D+03
 0.628750404545557D+03 -.407570834560146D+03 -.394973704379226D+03 0.239966370312800D+03
 0.554794820292385D+03 0.377711114950445D+02 -.133371449199614D+02 -.553346867999696D+03
 0.000000000000000D+00 -.000000000000000D+00 -.000000000000000D+00 0.000000000000000D+00
 0.633779868065353D+03 0.369799723065102D+03 0.408310849299187D+03 0.313380497686895D+03
 0.141272689117926D+04 0.000000000000000D+00 0.000000000000000D+00 0.141272689117926D+04
 0.909854965134072D+03 0.000000000000000D+00 0.000000000000000D+00 -.909854965134072D+03
 0.617405388737087D+03 -.393047621948426D+03 -.391783259010873D+03 0.239966370312800D+03
 0.555765049754323D+03 0.507140333974869D+02 -.104938562936366D+02 -.553346867999696D+03
 0.504739187902281D+03 -.423657415560937D+02 -.930686532918994D+01 0.502871926045192D+03
 0.644672229919645D+03 0.384699330107032D+03 0.411583980633699D+03 0.313380497686895D+03
0.219796512712D-04 0.000000000000D+00 0.000000000000D+00 0.397795205792D-05 0.000000000000D+00  6 -1 1 25 1 -1 21 0 0.99141792D-01 0.19711595D+00 0.34345120D+06 0.34345120D+06 0.34345120D+06 0.10802323D+01  1  2  2  1  6  1       -1 0.255812710673D-04 0.100000000000D+01
0.112470438874D-04 0.000000000000D+00 -.844076482567D-07 0.397795205792D-05 0.000000000000D+00  6 -1 1 25 1 -1 21 2 0.99141792D-01 0.19711595D+00 0.34345120D+06 0.34345120D+06 0.34345120D+06 0.10802323D+01  1  2  3  1  6  1       -1 0.152747476161D-04 0.100000000000D+01
-.141591449657D-04 0.000000000000D+00 0.000000000000D+00 0.397795205792D-05 0.000000000000D+00  6 -1 1 25 1 -1 21 2 0.99141792D-01 0.19711595D+00 0.34345120D+06 0.34345120D+06 0.34345120D+06 0.10802323D+01  1  2 15  1  6  1       -1 -.192297076436D-04 0.100000000000D+01
-.205180854940D-02 0.000000000000D+00 0.000000000000D+00 0.397795205792D-05 0.000000000000D+00  6 -1 1 25 1 -1 21 2 0.99141792D-01 0.19711595D+00 0.34345120D+06 0.34345120D+06 0.34345120D+06 0.10802323D+01  1  2  4  1  6  1       -1 -.278658624100D-02 0.100000000000D+01
-.261080730799D-02 0.000000000000D+00 -.149851708523D-04 0.397795205792D-05 0.000000000000D+00  6 -1 1 25 1 -1 21 2 0.15420662D+00 0.19711595D+00 0.34345120D+06 0.34345120D+06 0.34345120D+06 0.10802323D+01  1  2  5  1  6  1       -1 -.115472324384D-02 0.100000000000D+01
0.238251636645D-02 0.000000000000D+00 0.136332302515D-04 0.397795205792D-05 0.000000000000D+00  6 -1 1 25 1 -1 21 2 0.99141792D-01 0.19711595D+00 0.34345120D+06 0.34345120D+06 0.34345120D+06 0.10802323D+01  1  2  6  1  6  1       -1 0.323572456487D-02 0.100000000000D+01
-.133202315276D-03 0.000000000000D+00 -.767881245374D-06 0.397795205792D-05 0.000000000000D+00  6 21 1 25 1 1 -1 2 0.15420662D+00 0.19711595D+00 0.34345120D+06 0.34345120D+06 0.34345120D+06 0.10802323D+01  3  4  5  5  5  1       -1 -.366705745498D-03 0.100000000000D+01
  </mgrwgt>
  </event>
  <event>
  5     66 0.23209023E-05 0.77646684E+02 0.75467711E-02 0.84652337E-01
       -1 -1    0    0    0  501 0.00000000E+00 0.00000000E+00 0.14585990E+04 0.14585990E+04 0.32000000E+00 0.0000E+00 0.9000E+01
        1 -1    0    0  502    0 0.00000000E+00 0.00000000E+00 -.25169475E+04 0.25169475E+04 0.32000000E+00 0.0000E+00 0.9000E+01
       25  1    1    2    0    0 0.10673630E+03 -.74842211E+03 0.53824164E+03 0.93640662E+03 0.12500000E+03 0.0000E+00 0.9000E+01
        1  1    1    2  502    0 0.25916306E+02 0.73187189E+02 -.21528732E+04 0.21542728E+04 0.32000000E+00 0.0000E+00 0.9000E+01
       -1  1    1    2    0  501 -.13265260E+03 0.67523492E+03 0.55628305E+03 0.88486714E+03 0.32000000E+00 0.0000E+00 0.9000E+01
#aMCatNLO 1  0  0  1  1 0.15002009D+03 0.00000000D+00  -5  6  0 0.00000000D+00 0.00000000D+00 0.00000000D+00 0.00000000D+00 0.00000000D+00
  <mgrwgt>
 0.6462741177D-03    4    2    0
 0.191604205950856D+04 0.000000000000000D+00 0.000000000000000D+00 0.191604205950856D+04
 0.191604205950856D+04 0.000000000000000D+00 0.000000000000000D+00 -.191604205950856D+04
 0.112018406083205D+04 0.106717536349464D+03 -.748343092845598D+03 0.817178874523785D+03
 0.164040623937017D+04 0.259183599525102D+02 0.731932108320195D+02 -.163856755206188D+04
 0.107149381881491D+04 -.132635896301974D+03 0.675149882013578D+03 0.821388677538096D+03
 0.000000000000000D+00 -.000000000000000D+00 0.000000000000000D+00 -.000000000000000D+00
 0.206128939404545D+04 0.000000000000000D+00 0.000000000000000D+00 0.206128939404545D+04
 0.354796967527956D+04 0.000000000000000D+00 0.000000000000000D+00 -.354796967527956D+04
 0.121506109332901D+04 0.338716546660869D+03 -.823552213628302D+03 0.817178874523785D+03
 0.167702476270415D+04 0.355494339539164D+03 -.336482779421767D+02 -.163856755206188D+04
 0.102451321706911D+04 0.755955851184549D+02 0.607645686129772D+03 0.821388677538096D+03
 0.169265999622272D+04 -.769806471318488D+03 0.249554805440707D+03 -.148668028123411D+04
0.581098093838D-01 0.000000000000D+00 0.000000000000D+00 0.198060504623D-04 0.000000000000D+00  6 -1 1 25 1 -1 21 0 0.22439985D+00 0.38722270D+00 0.58666496D+06 0.58666496D+06 0.58666496D+06 0.10636385D+01  1  2  2  1  6  1       -1 0.812580013727D-03 0.100000000000D+01
0.273060988899D-01 0.000000000000D+00 -.223156968698D-03 0.198060504623D-04 0.000000000000D+00  6 -1 1 25 1 -1 21 2 0.22439985D+00 0.38722270D+00 0.58666496D+06 0.58666496D+06 0.58666496D+06 0.10636385D+01  1  2  3  1  6  1       -1 0.431980772281D-03 0.100000000000D+01
-.377839683108D-01 0.000000000000D+00 0.000000000000D+00 0.198060504623D-04 0.000000000000D+00  6 -1 1 25 1 -1 21 2 0.22439985D+00 0.38722270D+00 0.58666496D+06 0.58666496D+06 0.58666496D+06 0.10636385D+01  1  2 15  1  6  1       -1 -.597740009533D-03 0.100000000000D+01
-.345550520688D-04 0.000000000000D+00 0.000000000000D+00 0.198060504623D-04 0.000000000000D+00  6 -1 1 25 1 -1 21 2 0.22439985D+00 0.38722270D+00 0.58666496D+06 0.58666496D+06 0.58666496D+06 0.10636385D+01  1  2  4  1  6  1       -1 -.546658757046D-06 0.100000000000D+01
  </mgrwgt>
  </event>
  <event>
  6     66 -.23209023E-05 0.11303380E+03 0.75467711E-02 0.92838532E-01
       21 -1    0    0  503  501 0.00000000E+00 0.00000000E+00 0.11645814E+04 0.11645816E+04 0.75000000E+00 0.0000E+00 0.9000E+01
        1 -1    0    0  502    0 0.00000000E+00 0.00000000E+00 -.11593634E+04 0.11593634E+04 0.32000000E+00 0.0000E+00 0.9000E+01
       25  1    1    2    0    0 -.34600416E+03 0.38225750E+03 -.27919780E+03 0.59951321E+03 0.12500000E+03 0.0000E+00 0.9000E+01
        1  1    1    2  502    0 0.30894925E+03 -.27648242E+03 -.63119268E+03 0.75517975E+03 0.32000000E+00 0.0000E+00 0.9000E+01
        1  1    1    2  503    0 -.77107886E+02 -.57997895E+01 0.70738361E+03 0.71159746E+03 0.32000000E+00 0.0000E+00 0.9000E+01
       -1  1    1    2    0  501 0.11416280E+03 -.99975296E+02 0.20822487E+03 0.25765462E+03 0.32000000E+00 0.0000E+00 0.9000E+01
#aMCatNLO 2  0  0  1  5 0.77325698D+02 0.00000000D+00  -5  6  0 0.00000000D+00 0.00000000D+00 0.00000000D+00 0.00000000D+00 0.00000000D+00
  <mgrwgt>
 -.1629902091D-04    3    2    0
 0.724680778317320D+03 0.000000000000000D+00 0.000000000000000D+00 0.724680778317320D+03
 0.724680778317320D+03 0.000000000000000D+00 0.000000000000000D+00 -.724680778317320D+03
 0.548591766628282D+03 -.374735531874595D+03 0.380134520725261D+03 -.199738257722420D+02
 0.519072297042827D+03 0.281041721559893D+03 -.278658116745291D+03 -.335858979739914D+03
 0.000000000000000D+00 -.000000000000000D+00 -.000000000000000D+00 0.000000000000000D+00
 0.381697492963531D+03 0.936938103147016D+02 -.101476403979970D+03 0.355832805512156D+03
 0.185710131393783D+04 0.000000000000000D+00 0.000000000000000D+00 0.185710131393783D+04
 0.727032627898888D+03 0.000000000000000D+00 0.000000000000000D+00 -.727032627898888D+03
 0.530956708386868D+03 -.346039258784575D+03 0.382292955526072D+03 -.199738257722420D+02
 0.533647208397856D+03 0.309024834050411D+03 -.276553323427879D+03 -.335858979739914D+03
 0.113271112767998D+04 -.771078857559608D+02 -.579978952355560D+01 0.113006868603894D+04
 0.386818897372013D+03 0.114122310490125D+03 -.999398425746376D+02 0.355832805512156D+03
-.299126757866D-08 0.000000000000D+00 0.000000000000D+00 0.402984068925D-06 0.000000000000D+00  6 21 1 25 1 1 -1 2 0.17907511D+00 0.17778663D+00 0.34474843D+06 0.34474843D+06 0.34474843D+06 0.10801127D+01  1  2 13  5  5  1       -1 -.632922289989D-08 0.100000000000D+01
-.227653836614D-04 0.000000000000D+00 0.000000000000D+00 0.402984068925D-06 0.000000000000D+00  6 21 1 25 1 1 -1 2 0.18763848D+00 0.17778663D+00 0.34474843D+06 0.34474843D+06 0.34474843D+06 0.10801127D+01  1  2 13  5  5  1       -1 -.413333212336D-04 0.100000000000D+01
0.119281912775D-04 0.000000000000D+00 0.000000000000D+00 0.402984068925D-06 0.167052198164D-10  6 21 1 25 1 1 -1 2 0.17916638D+00 0.17836361D+00 0.34474843D+06 0.34474843D+06 0.34474843D+06 0.10801127D+01  1  2  1  5  5  1       -1 0.250406295432D-04 0.100000000000D+01
  </mgrwgt>
  </event>
  <event>
  5     66 -.23209023E-05 0.10988957E+03 0.75467711E-02 0.95116196E-01
       -3 -1    0    0    0  501 0.00000000E+00 0.00000000E+00 0.13258141E+04 0.13258142E+04 0.50000000E+00 0.0000E+00 0.9000E+01
        3 -1    0    0  502    0 0.00000000E+00 0.00000000E+00 -.43761878E+03 0.43761906E+03 0.50000000E+00 0.0000E+00 0.9000E+01
       25  1    1    2    0    0 -.25233646E+03 -.38120700E+03 0.53049631E+01 0.47396794E+03 0.12500000E+03 0.0000E+00 0.9000E+01
        3  1    1    2  502    0 0.73532189E+02 0.81635358E+02 -.15755789E+03 0.19208346E+03 0.50000000E+00 0.0000E+00 0.9000E+01
       -3  1    1    2    0  501 0.17880427E+03 0.29957164E+03 0.10404483E+04 0.10973819E+04 0.50000000E+00 0.0000E+00 0.9000E+01
#aMCatNLO 1  0  0  1  5 0.34069560D+02 0.00000000D+00  -5  6  0 0.00000000D+00 0.00000000D+00 0.00000000D+00 0.00000000D+00 0.00000000D+00
  <mgrwgt>
 -.4785221210D-04   11    4    0
 0.761709588561425D+03 0.000000000000000D+00 0.000000000000000D+00 0.761709588561425D+03
 0.761709588561425D+03 0.000000000000000D+00 0.000000000000000D+00 -.761709588561425D+03
 0.545516656823809D+03 -.252342455150130D+03 -.381211031171025D+03 -.270120080546697D+03
 0.314263976959949D+03 0.735449863513311D+02 0.816507907672988D+02 -.294425084808243D+03
 0.663638543339092D+03 0.178797468798799D+03 0.299560240403726D+03 0.564545165354940D+03
 0.000000000000000D+00 0.000000000000000D+00 0.000000000000000D+00 0.000000000000000D+00
 0.868927546638208D+03 0.000000000000000D+00 0.000000000000000D+00 0.868927546638208D+03
 0.764611347312356D+03 0.000000000000000D+00 0.000000000000000D+00 -.764611347312356D+03
 0.554892971891941D+03 -.262871360217538D+03 -.387575799448183D+03 -.270120080546697D+03
 0.311990343684483D+03 0.675528793049626D+02 0.780285363545283D+02 -.294425084808243D+03
 0.656916777665728D+03 0.166162172588835D+03 0.291922149645494D+03 0.564545165354940D+03
 0.109738800708412D+03 0.291563083237408D+02 0.176251134481606D+02 0.104316199325852D+03
 0.761709588561425D+03 0.000000000000000D+00 0.000000000000000D+00 0.761709588561425D+03
 0.761709588561425D+03 0.000000000000000D+00 0.000000000000000D+00 -.761709588561425D+03
 0.545516656823809D+03 -.252342455150130D+03 -.381211031171025D+03 -.270120080546697D+03
 0.314263976959949D+03 0.735449863513311D+02 0.816507907672988D+02 -.294425084808243D+03
 0.000000000000000D+00 0.000000000000000D+00 0.000000000000000D+00 0.000000000000000D+00
 0.663638543339092D+03 0.178797468798799D+03 0.299560240403726D+03 0.564545165354940D+03
 0.868927546638208D+03 0.000000000000000D+00 0.000000000000000D+00 0.868927546638208D+03
 0.764611347312356D+03 0.000000000000000D+00 0.000000000000000D+00 -.764611347312356D+03
 0.554892971891941D+03 -.262871360217538D+03 -.387575799448183D+03 -.270120080546697D+03
 0.311990343684483D+03 0.675528793049626D+02 0.780285363545283D+02 -.294425084808243D+03
 0.109738800708412D+03 0.291563083237408D+02 0.176251134481606D+02 0.104316199325852D+03
 0.656916777665728D+03 0.166162172588835D+03 0.291922149645494D+03 0.564545165354940D+03
0.613677732464D-04 0.000000000000D+00 0.000000000000D+00 0.220198762339D-05 0.000000000000D+00  6 -3 3 25 3 -3 21 0 0.20397144D+00 0.67325995D-01 0.21748069D+06 0.21748069D+06 0.21748069D+06 0.10950414D+01  1  2  2  1  6  1       -3 0.414333798568D-05 0.100000000000D+01
0.691519360906D-05 0.000000000000D+00 -.235668407772D-06 0.220198762339D-05 0.000000000000D+00  6 -3 3 25 3 -3 21 2 0.20397144D+00 0.67325995D-01 0.21748069D+06 0.21748069D+06 0.21748069D+06 0.10950414D+01  1  2  3  1  6  1       -3 0.559854786379D-06 0.100000000000D+01
-.421266846735D-04 0.000000000000D+00 0.000000000000D+00 0.220198762339D-05 0.000000000000D+00  6 -3 3 25 3 -3 21 2 0.20397144D+00 0.67325995D-01 0.21748069D+06 0.21748069D+06 0.21748069D+06 0.10950414D+01  1  2 15  1  6  1       -3 -.341058072732D-05 0.100000000000D+01
0.264947989740D-07 0.000000000000D+00 0.000000000000D+00 0.220198762339D-05 0.000000000000D+00  6 -3 3 25 3 -3 21 2 0.23303760D+00 0.67325995D-01 0.22938555D+06 0.22938555D+06 0.22938555D+06 0.10932819D+01  1  2 12  1  6  1       -3 0.101394126318D-08 0.100000000000D+01
0.143711313008D-02 0.000000000000D+00 0.000000000000D+00 0.220198762339D-05 0.000000000000D+00  6 -3 3 25 3 -3 21 2 0.23882535D+00 0.67325995D-01 0.22938555D+06 0.22938555D+06 0.22938555D+06 0.10932819D+01  1  2 12  1  6  1       -3 0.465406437438D-04 0.100000000000D+01
-.209519119252D-02 0.000000000000D+00 0.000000000000D+00 0.220198762339D-05 0.000000000000D+00  6 -3 3 25 3 -3 21 2 0.20397144D+00 0.67325995D-01 0.21748069D+06 0.21748069D+06 0.21748069D+06 0.10950414D+01  1  2  4  1  6  1       -3 -.169626894607D-03 0.100000000000D+01
-.196550106279D-02 0.000000000000D+00 -.972236651050D-04 0.220198762339D-05 0.000000000000D+00  6 -3 3 25 3 -3 21 2 0.23301194D+00 0.67325995D-01 0.21748069D+06 0.21748069D+06 0.21748069D+06 0.10950414D+01  1  2  5  1  6  1       -3 -.757990355022D-04 0.100000000000D+01
0.196189120947D-02 0.000000000000D+00 0.963686640258D-04 0.220198762339D-05 0.000000000000D+00  6 -3 3 25 3 -3 21 2 0.20397144D+00 0.67325995D-01 0.21748069D+06 0.21748069D+06 0.21748069D+06 0.10950414D+01  1  2  6  1  6  1       -3 0.158834914259D-03 0.100000000000D+01
0.548472838103D-09 0.000000000000D+00 0.000000000000D+00 0.220198762339D-05 0.000000000000D+00  6 21 3 25 3 3 -3 2 0.23303760D+00 0.67325995D-01 0.22938555D+06 0.22938555D+06 0.22938555D+06 0.10932819D+01  3  4 12  5  5  1       -3 0.534626661135D-09 0.100000000000D+01
0.341405006969D-04 0.000000000000D+00 0.000000000000D+00 0.220198762339D-05 0.000000000000D+00  6 21 3 25 3 3 -3 2 0.23882535D+00 0.67325995D-01 0.22938555D+06 0.22938555D+06 0.22938555D+06 0.10932819D+01  3  4 12  5  5  1       -3 0.303351843562D-04 0.100000000000D+01
-.401166965912D-04 0.000000000000D+00 -.201126693866D-05 0.220198762339D-05 0.000000000000D+00  6 21 3 25 3 3 -3 2 0.23301194D+00 0.67325995D-01 0.21748069D+06 0.21748069D+06 0.21748069D+06 0.10950414D+01  3  4  5  5  5  1       -3 -.394311849645D-04 0.100000000000D+01
  </mgrwgt>
  </event>
  <event>
  6     66 0.23209023E-05 0.65611957E+02 0.75467711E-02 0.93962605E-01
       -1 -1    0    0    0  503 0.00000000E+00 0.00000000E+00 0.48507811E+03 0.48507822E+03 0.32000000E+00 0.0000E+00 0.9000E+01
        1 -1    0    0  502    0 0.00000000E+00 0.00000000E+00 -.12669381E+04 0.12669381E+04 0.32000000E+00 0.0000E+00 0.9000E+01
       25  1    1    2    0    0 -.47415700E+03 -.10891591E+03 -.31280169E+03 0.59174102E+03 0.12500000E+03 0.0000E+00 0.9000E+01
        1  1    1    2  502    0 0.20245411E+02 -.66792535E+02 -.63519772E+03 0.63902063E+03 0.32000000E+00 0.0000E+00 0.9000E+01
       -1  1    1    2    0  501 0.44591372E+03 0.17820882E+03 0.15005761E+03 0.50310518E+03 0.32000000E+00 0.0000E+00 0.9000E+01
       21  1    1    2  501  503 0.79978668E+01 -.25003756E+01 0.16081825E+02 0.18149528E+02 0.75000000E+00 0.0000E+00 0.9000E+01
#aMCatNLO 2  0  0  1  5 0.83796033D+01 0.00000000D+00  -5  6  0 0.00000000D+00 0.00000000D+00 0.00000000D+00 0.00000000D+00 0.00000000D+00
  <mgrwgt>
 0.1853687752D-02    6    2    0
 0.769661099232139D+03 0.000000000000000D+00 0.000000000000000D+00 0.769661099232139D+03
 0.769661099232139D+03 0.000000000000000D+00 0.000000000000000D+00 -.769661099232139D+03
 0.502068949752028D+03 -.471527139944244D+03 -.109718075811682D+03 -.455228562514263D+02
 0.390778384031459D+03 0.222787265128261D+02 -.674347653070886D+02 -.384270680899784D+03
 0.646474864680791D+03 0.449248413431417D+03 0.177152841118771D+03 0.429793537151210D+03
 0.000000000000000D+00 0.000000000000000D+00 -.000000000000000D+00 0.000000000000000D+00
 0.797818130947605D+03 0.000000000000000D+00 0.000000000000000D+00 0.797818130947605D+03
 0.770296203499157D+03 0.000000000000000D+00 0.000000000000000D+00 -.770296203499157D+03
 0.504348086615757D+03 -.474141644488346D+03 -.108900702447567D+03 -.455228562514263D+02
 0.390558883711198D+03 0.202489418776588D+02 -.668001931089192D+02 -.384270680899784D+03
 0.644438035978048D+03 0.445894835816124D+03 0.178201271125678D+03 0.429793537151210D+03
 0.287693281417594D+02 0.799786679456353D+01 -.250037556919148D+01 0.275219274484481D+02
-.138068409905D-07 0.000000000000D+00 0.000000000000D+00 0.241925775460D-05 0.000000000000D+00  6 -1 1 25 1 -1 21 2 0.74656059D-01 0.19475162D+00 0.28124782D+06 0.28124782D+06 0.28124782D+06 0.10866319D+01  1  2 13  1  6  1       -1 -.357663186270D-07 0.100000000000D+01
-.133984795078D-02 0.000000000000D+00 0.000000000000D+00 0.241925775460D-05 0.000000000000D+00  6 -1 1 25 1 -1 21 2 0.74840028D-01 0.19475162D+00 0.28124782D+06 0.28124782D+06 0.28124782D+06 0.10866319D+01  1  2 13  1  6  1       -1 -.345379275413D-02 0.100000000000D+01
-.667718747045D-02 0.000000000000D+00 0.000000000000D+00 0.241925775460D-05 0.000000000000D+00  6 -1 1 25 1 -1 21 2 0.71993166D-01 0.19475162D+00 0.27769523D+06 0.27769523D+06 0.27769523D+06 0.10870430D+01  1  2  8  1  6  1       -1 -.186195127558D-01 0.100000000000D+01
-.267936745061D-02 0.000000000000D+00 0.000000000000D+00 0.241925775460D-05 0.000000000000D+00  6 -1 1 25 1 -1 21 2 0.74657200D-01 0.19475162D+00 0.27769523D+06 0.27769523D+06 0.27769523D+06 0.10870430D+01  1  2  9  1  6  1       -1 -.695047681278D-02 0.100000000000D+01
0.267759965427D-02 0.000000000000D+00 0.000000000000D+00 0.241925775460D-05 0.000000000000D+00  6 -1 1 25 1 -1 21 2 0.71993166D-01 0.19475162D+00 0.27769523D+06 0.27769523D+06 0.27769523D+06 0.10870430D+01  1  2 10  1  6  1       -1 0.746655701047D-02 0.100000000000D+01
0.904544516926D-02 0.000000000000D+00 0.000000000000D+00 0.241925775460D-05 0.378855671092D-06  6 -1 1 25 1 -1 21 2 0.74626940D-01 0.19491233D+00 0.28124782D+06 0.28124782D+06 0.28124782D+06 0.10866319D+01  1  2  1  1  6  1       -1 0.234109488309D-01 0.100000000000D+01
  </mgrwgt>
  </event>
  <event>
  5     66 0.23209023E-05 0.22073798E+02 0.75467711E-02 0.95568476E-01
       -1 -1    0    0    0  501 0.00000000E+00 0.00000000E+00 0.47194090E+03 0.47194101E+03 0.32000000E+00 0.0000E+00 0.9000E+01
        1 -1    0    0  502    0 -.00000000E+00 -.00000000E+00 -.50735223E+03 0.50735233E+03 0.32000000E+00 0.0000E+00 0.9000E+01
       25  1    1    2    0    0 0.40326091E+03 0.20050524E+03 -.13565913E+02 0.46757967E+03 0.12500000E+03 0.0000E+00 0.9000E+01
        1  1    1    2  502    0 -.39092513E+03 -.18210440E+03 -.89565267E+02 0.44046170E+03 0.32000000E+00 0.0000E+00 0.9000E+01
       -1  1    1    2    0  501 -.12335780E+02 -.18400848E+02 0.67719847E+02 0.71251966E+02 0.32000000E+00 0.0000E+00 0.9000E+01
#aMCatNLO 1  0  0  5  2 0.24611221D+02 0.00000000D+00  -5  6  0 0.00000000D+00 0.00000000D+00 0.00000000D+00 0.00000000D+00 0.00000000D+00
  <mgrwgt>
 0.1604675025D-02    6    2    0
 0.489326444524233D+03 0.000000000000000D+00 0.000000000000000D+00 0.489326444524233D+03
 0.489326444524233D+03 -.000000000000000D+00 -.000000000000000D+00 -.489326444524233D+03
 0.467498853339278D+03 0.403367180500871D+03 0.200530934355304D+03 0.352702918996285D+01
 0.437669990201324D+03 -.391075594890576D+03 -.182196009530433D+03 -.736173452047516D+02
 0.734840455078642D+02 -.122915856102951D+02 -.183349248248712D+02 0.700903160147888D+02
 0.000000000000000D+00 0.000000000000000D+00 0.000000000000000D+00 0.000000000000000D+00
 0.489326444524233D+03 0.000000000000000D+00 0.000000000000000D+00 0.489326444524233D+03
 0.489326444524233D+03 -.000000000000000D+00 -.000000000000000D+00 -.489326444524233D+03
 0.465352954065545D+03 0.401839259211640D+03 0.198251788046229D+03 0.122396956760717D+02
 0.438550232460256D+03 -.392510759105977D+03 -.184336793383306D+03 -.654336074365067D+02
 0.332415736491744D+02 -.217951430239545D+02 -.207040632800157D+02 0.141885771991401D+02
 0.415081288734911D+02 0.124666429182921D+02 0.678906861709223D+01 0.390053345612950D+02
0.154313225971D-03 0.000000000000D+00 0.000000000000D+00 0.197026169464D-06 0.000000000000D+00  6 -1 1 25 1 -1 21 0 0.72606308D-01 0.78054205D-01 0.21205730D+06 0.21205730D+06 0.21205730D+06 0.10958781D+01  1  2  2  4  6  5       -1 0.161151010099D-02 0.100000000000D+01
0.504958057192D-04 0.000000000000D+00 -.592603419333D-06 0.197026169464D-06 0.000000000000D+00  6 -1 1 25 1 -1 21 2 0.72606308D-01 0.78054205D-01 0.21205730D+06 0.21205730D+06 0.21205730D+06 0.10958781D+01  1  2  3  4  6  5       -1 0.633300326723D-03 0.100000000000D+01
-.961842892159D-04 0.000000000000D+00 0.000000000000D+00 0.197026169464D-06 0.000000000000D+00  6 -1 1 25 1 -1 21 2 0.72606308D-01 0.78054205D-01 0.21205730D+06 0.21205730D+06 0.21205730D+06 0.10958781D+01  1  2 15  4  6  5       -1 -.120630893831D-02 0.100000000000D+01
-.459840706574D-04 0.000000000000D+00 0.000000000000D+00 0.197026169464D-06 0.000000000000D+00  6 -1 1 25 1 -1 21 2 0.72606308D-01 0.78054205D-01 0.21205730D+06 0.21205730D+06 0.21205730D+06 0.10958781D+01  1  2  4  4  6  5       -1 -.576715759985D-03 0.100000000000D+01
-.499574445625D-04 0.000000000000D+00 0.000000000000D+00 0.197026169464D-06 0.000000000000D+00  6 -1 1 25 1 -1 21 2 0.72606308D-01 0.78054205D-01 0.21205730D+06 0.21205730D+06 0.21205730D+06 0.10958781D+01  1  2  5  4  6  5       -1 -.626548393735D-03 0.100000000000D+01
0.141085008193D-03 0.000000000000D+00 -.000000000000D+00 0.197026169464D-06 0.000000000000D+00  6 -1 1 25 1 -1 21 2 0.72606308D-01 0.78054205D-01 0.21205730D+06 0.21205730D+06 0.21205730D+06 0.10958781D+01  1  2  6  4  6  5       -1 0.176943768916D-02 0.100000000000D+01
  </mgrwgt>
  </event>
  <event>
  5     66 0.23209023E-05 0.43477619E+02 0.75467711E-02 0.88401195E-01
       -1 -1    0    0    0  501 0.00000000E+00 0.00000000E+00 0.43227133E+03 0.43227145E+03 0.32000000E+00 0.0000E+00 0.9000E+01
        1 -1    0    0  502    0 0.00000000E+00 0.00000000E+00 -.24588252E+04 0.24588252E+04 0.32000000E+00 0.0000E+00 0.9000E+01
       25  1    1    2    0    0 -.59472270E+03 -.40070524E+03 -.26492557E+03 0.77464207E+03 0.12500000E+03 0.0000E+00 0.9000E+01
        1  1    1    2  502    0 0.59683733E+03 0.44417178E+03 -.18630418E+04 0.20060978E+04 0.32000000E+00 0.0000E+00 0.9000E+01
       -1  1    1    2    0  501 -.21146336E+01 -.43466549E+02 0.10141354E+03 0.11035679E+03 0.32000000E+00 0.0000E+00 0.9000E+01
#aMCatNLO 1  0  0  2  4 0.60271577D+02 0.00000000D+00  -5  6  0 0.00000000D+00 0.00000000D+00 0.00000000D+00 0.00000000D+00 0.00000000D+00
  <mgrwgt>
 0.1897769955D-03    4    2    0
 0.103096062944086D+04 0.000000000000000D+00 0.000000000000000D+00 0.103096062944086D+04
 0.103096062944086D+04 0.000000000000000D+00 0.000000000000000D+00 -.103096062944086D+04
 0.825968141556620D+03 -.594815749053935D+03 -.400803408652891D+03 0.390063101505546D+03
 0.981779727379380D+03 0.596928422582436D+03 0.444229667960629D+03 -.640490353955439D+03
 0.254173389945729D+03 -.211267352850074D+01 -.434262593077381D+02 0.250427252449894D+03
 0.000000000000000D+00 -.000000000000000D+00 0.000000000000000D+00 0.000000000000000D+00
 0.173373044270154D+04 0.000000000000000D+00 0.000000000000000D+00 0.173373044270154D+04
 0.106071533917407D+04 0.000000000000000D+00 0.000000000000000D+00 -.106071533917407D+04
 0.845299014400437D+03 -.552165074060781D+03 -.491802736447936D+03 0.390063101505546D+03
 0.970931914898306D+03 0.646761550286332D+03 0.337905884721396D+03 -.640490353955439D+03
 0.260656239416308D+03 0.110257592591598D+02 -.714583725661891D+02 0.250427252449894D+03
 0.717558613160557D+03 -.105622235484710D+03 0.225355224292729D+03 0.673015103527468D+03
0.566534157036D-03 0.000000000000D+00 0.000000000000D+00 0.128602370606D-05 0.000000000000D+00  6 -1 1 25 1 -1 21 0 0.66503292D-01 0.37828080D+00 0.57427997D+06 0.57427997D+06 0.57427997D+06 0.10642849D+01  1  2  2  2  6  2        1 0.233142901691D-03 0.100000000000D+01
0.198163308784D-03 0.000000000000D+00 -.217564033489D-05 0.128602370606D-05 0.000000000000D+00  6 -1 1 25 1 -1 21 2 0.66503292D-01 0.37828080D+00 0.57427997D+06 0.57427997D+06 0.57427997D+06 0.10642849D+01  1  2  3  2  6  2        1 0.923708851565D-04 0.100000000000D+01
-.290240837116D-03 0.000000000000D+00 0.000000000000D+00 0.128602370606D-05 0.000000000000D+00  6 -1 1 25 1 -1 21 2 0.66503292D-01 0.37828080D+00 0.57427997D+06 0.57427997D+06 0.57427997D+06 0.10642849D+01  1  2 15  2  6  2        1 -.135291458330D-03 0.100000000000D+01
-.955373218993D-06 0.000000000000D+00 0.000000000000D+00 0.128602370606D-05 0.000000000000D+00  6 -1 1 25 1 -1 21 2 0.66503292D-01 0.37828080D+00 0.57427997D+06 0.57427997D+06 0.57427997D+06 0.10642849D+01  1  2  4  2  6  2        1 -.445333045933D-06 0.100000000000D+01
  </mgrwgt>
  </event>
  <event>
  5     66 0.23209023E-05 0.93508694E+02 0.75467711E-02 0.92188160E-01
       -1 -1    0    0    0  501 0.00000000E+00 0.00000000E+00 0.11742906E+04 0.11742906E+04 0.32000000E+00 0.0000E+00 0.9000E+01
        1 -1    0    0  502    0 0.00000000E+00 0.00000000E+00 -.37442800E+04 0.37442801E+04 0.32000000E+00 0.0000E+00 0.9000E+01
       25  1    1    2    0    0 -.12465288E+03 0.58523123E+03 -.10959301E+04 0.12548792E+04 0.12500000E+03 0.0000E+00 0.9000E+01
        1  1    1    2  502    0 0.67047284E+02 -.65175874E+02 -.25054370E+04 0.25071813E+04 0.32000000E+00 0.0000E+00 0.9000E+01
       -1  1    1    2    0  501 0.57605598E+02 -.52005536E+03 0.10313776E+04 0.11565102E+04 0.32000000E+00 0.0000E+00 0.9000E+01
#aMCatNLO 1  0  0  2  4 0.14756668D+02 0.00000000D+00  -5  6  0 0.00000000D+00 0.00000000D+00 0.00000000D+00 0.00000000D+00 0.00000000D+00
  <mgrwgt>
 0.3696354258D-02   11    2    0
 0.209687217642781D+04 0.000000000000000D+00 0.000000000000000D+00 0.209687217642781D+04
 0.209687217642781D+04 0.000000000000000D+00 0.000000000000000D+00 -.209687217642781D+04
 0.800140641264028D+03 -.124655019217306D+03 0.585231866547992D+03 -.516299171375566D+03
 0.140517141143073D+04 0.670496299111227D+02 -.651783931110924D+02 -.140205663926336D+04
 0.198843230016087D+04 0.576053893061830D+02 -.520053473436900D+03 0.191835581063893D+04
 0.000000000000000D+00 0.000000000000000D+00 0.000000000000000D+00 -.000000000000000D+00
 0.209692484667298D+04 0.000000000000000D+00 0.000000000000000D+00 0.209692484667298D+04
 0.346854211858644D+04 0.000000000000000D+00 0.000000000000000D+00 -.346854211858644D+04
 0.798734505063468D+03 -.126304206422941D+03 0.582953019252631D+03 -.516299171375566D+03
 0.140522758674878D+04 0.641507956393080D+02 -.691840030366699D+02 -.140205663926336D+04
 0.198980822335439D+04 0.535019648534421D+02 -.525723586377322D+03 0.191835581063893D+04
 0.137169665009278D+04 0.865144593019049D+01 0.119545701613615D+02 -.137161727191346D+04
0.212277503160D-02 0.000000000000D+00 0.000000000000D+00 0.221581115578D-03 0.000000000000D+00  6 -1 1 25 1 -1 21 0 0.18066009D+00 0.57604309D+00 0.37700852D+06 0.37700852D+06 0.37700852D+06 0.10772859D+01  1  2  2  2  6  2        1 0.801697151579D-05 0.100000000000D+01
0.618353619380D-03 0.000000000000D+00 -.815201506085D-05 0.221581115578D-03 0.000000000000D+00  6 -1 1 25 1 -1 21 2 0.18066009D+00 0.57604309D+00 0.37700852D+06 0.37700852D+06 0.37700852D+06 0.10772859D+01  1  2  3  2  6  2        1 0.271022408287D-05 0.100000000000D+01
-.147980735030D-02 0.000000000000D+00 0.000000000000D+00 0.221581115578D-03 0.000000000000D+00  6 -1 1 25 1 -1 21 2 0.18066009D+00 0.57604309D+00 0.37700852D+06 0.37700852D+06 0.37700852D+06 0.10772859D+01  1  2 15  2  6  2        1 -.648594815828D-05 0.100000000000D+01
0.837664799703D-08 0.000000000000D+00 0.000000000000D+00 0.221581115578D-03 0.000000000000D+00  6 -1 1 25 1 -1 21 2 0.18066009D+00 0.95286507D+00 0.38874010D+06 0.38874010D+06 0.38874010D+06 0.10763227D+01  1  2 12  2  6  2        1 0.315141179613D-14 0.100000000000D+01
0.788505812193D+01 0.000000000000D+00 0.000000000000D+00 0.221581115578D-03 0.000000000000D+00  6 -1 1 25 1 -1 21 2 0.18066009D+00 0.96484673D+00 0.38874010D+06 0.38874010D+06 0.38874010D+06 0.10763227D+01  1  2 12  2  6  2        1 0.133046517370D-05 0.100000000000D+01
-.711268058962D+01 0.000000000000D+00 0.000000000000D+00 0.221581115578D-03 0.000000000000D+00  6 -1 1 25 1 -1 21 2 0.18066009D+00 0.57604309D+00 0.37700852D+06 0.37700852D+06 0.37700852D+06 0.10772859D+01  1  2  4  2  6  2        1 -.311746509175D-01 0.100000000000D+01
-.778579557842D+01 0.000000000000D+00 -.745386334916D-03 0.221581115578D-03 0.000000000000D+00  6 -1 1 25 1 -1 21 2 0.18066009D+00 0.95286238D+00 0.37700852D+06 0.37700852D+06 0.37700852D+06 0.10772859D+01  1  2  5  2  6  2        1 -.295415856481D-05 0.100000000000D+01
0.795542858507D+01 0.000000000000D+00 0.761584349505D-03 0.221581115578D-03 0.000000000000D+00  6 -1 1 25 1 -1 21 2 0.18066009D+00 0.57604309D+00 0.37700852D+06 0.37700852D+06 0.37700852D+06 0.10772859D+01  1  2  6  2  6  2        1 0.348683883543D-01 0.100000000000D+01
0.474778883357D-09 0.000000000000D+00 0.000000000000D+00 0.221581115578D-03 0.000000000000D+00  6 -1 21 25 1 -1 -1 2 0.18066009D+00 0.95286507D+00 0.38874010D+06 0.38874010D+06 0.38874010D+06 0.10763227D+01  1  2 12  6  6  2        1 0.160706868903D-17 0.100000000000D+01
0.446916128225D+00 0.000000000000D+00 0.000000000000D+00 0.221581115578D-03 0.000000000000D+00  6 -1 21 25 1 -1 -1 2 0.18066009D+00 0.96484673D+00 0.38874010D+06 0.38874010D+06 0.38874010D+06 0.10763227D+01  1  2 12  6  6  2        1 0.774926205034D-09 0.100000000000D+01
-.441238974153D+00 0.000000000000D+00 -.422460034723D-04 0.221581115578D-03 0.000000000000D+00  6 -1 21 25 1 -1 -1 2 0.18066009D+00 0.95286238D+00 0.37700852D+06 0.37700852D+06 0.37700852D+06 0.10772859D+01  1  2  5  6  6  2        1 -.150785777909D-08 0.100000000000D+01
  </mgrwgt>
  </event>
  <event>
  5     66 0.23209023E-05 0.33429130E+02 0.75467711E-02 0.90773081E-01
       -1 -1    0    0    0  501 0.00000000E+00 0.00000000E+00 0.17395520E+04 0.17395520E+04 0.32000000E+00 0.0000E+00 0.9000E+01
        1 -1    0    0  502    0 0.00000000E+00 0.00000000E+00 -.15777775E+04 0.15777776E+04 0.32000000E+00 0.0000E+00 0.9000E+01
       25  1    1    2    0    0 0.19397844E+03 -.60614422E+03 0.32597113E+03 0.72589298E+03 0.12500000E+03 0.0000E+00 0.9000E+01
        1  1    1    2  502    0 0.28512635E+01 -.33304494E+02 -.12853718E+04 0.12858064E+04 0.32000000E+00 0.0000E+00 0.9000E+01
       -1  1    1    2    0  501 -.19682971E+03 0.63944871E+03 0.11211751E+04 0.13056302E+04 0.32000000E+00 0.0000E+00 0.9000E+01
#aMCatNLO 1  0  0  4  2 0.37618470D+02 0.00000000D+00  -5  6  0 0.00000000D+00 0.00000000D+00 0.00000000D+00 0.00000000D+00 0.00000000D+00
  <mgrwgt>
 0.1483845376D-02    6    2    0
 0.165669131886644D+04 0.000000000000000D+00 0.000000000000000D+00 0.165669131886644D+04
 0.165669131886644D+04 -.000000000000000D+00 -.000000000000000D+00 -.165669131886644D+04
 0.710854033428596D+03 0.193967439747159D+03 -.606106407844488D+03 0.291032835826968D+03
 0.135015259896270D+04 0.285148946810295D+01 -.333072925542423D+02 -.134973869091623D+04
 0.125237600534157D+04 -.196818929215261D+03 0.639413700398726D+03 0.105870585508926D+04
 0.000000000000000D+00 0.000000000000000D+00 0.000000000000000D+00 -.000000000000000D+00
 0.165669131886644D+04 0.000000000000000D+00 0.000000000000000D+00 0.165669131886644D+04
 0.165669131886644D+04 -.000000000000000D+00 -.000000000000000D+00 -.165669131886644D+04
 0.710520560064609D+03 0.193969258850548D+03 -.606127656181352D+03 0.290171772072328D+03
 0.709840978416842D+03 -.315401681024509D+02 -.575824066766703D+02 -.706798202372623D+03
 0.125107458287727D+04 -.196815725249557D+03 0.639376275949418D+03 0.105718927348374D+04
 0.641946516374151D+03 0.343866345014598D+02 0.243337869086007D+02 -.640562843183444D+03
0.268964749483D-02 0.000000000000D+00 0.000000000000D+00 0.828745943406D-04 0.000000000000D+00  6 -1 1 25 1 -1 21 0 0.26762339D+00 0.24273501D+00 0.45629761D+06 0.45629761D+06 0.45629761D+06 0.10713291D+01  1  2  2  3  6  4        1 0.728844088219D-04 0.100000000000D+01
0.206640938754D-02 0.000000000000D+00 -.103289545806D-04 0.828745943406D-04 0.000000000000D+00  6 -1 1 25 1 -1 21 2 0.26762339D+00 0.24273501D+00 0.45629761D+06 0.45629761D+06 0.45629761D+06 0.10713291D+01  1  2  3  3  6  4        1 0.642689838968D-04 0.100000000000D+01
-.164127182718D-02 0.000000000000D+00 0.000000000000D+00 0.828745943406D-04 0.000000000000D+00  6 -1 1 25 1 -1 21 2 0.26762339D+00 0.24273501D+00 0.45629761D+06 0.45629761D+06 0.45629761D+06 0.10713291D+01  1  2 15  3  6  4        1 -.510464544283D-04 0.100000000000D+01
-.209652102044D-02 0.000000000000D+00 0.000000000000D+00 0.828745943406D-04 0.000000000000D+00  6 -1 1 25 1 -1 21 2 0.26762339D+00 0.24273501D+00 0.45629761D+06 0.45629761D+06 0.45629761D+06 0.10713291D+01  1  2  4  3  6  4        1 -.652055088961D-04 0.100000000000D+01
-.827458590406D-01 0.000000000000D+00 0.000000000000D+00 0.828745943406D-04 0.000000000000D+00  6 -1 1 25 1 -1 21 2 0.26762339D+00 0.24273501D+00 0.45629761D+06 0.45629761D+06 0.45629761D+06 0.10713291D+01  1  2  5  3  6  4        1 -.257354245208D-02 0.100000000000D+01
0.129783184368D+00 0.000000000000D+00 -.000000000000D+00 0.828745943406D-04 0.000000000000D+00  6 -1 1 25 1 -1 21 2 0.26762339D+00 0.24273501D+00 0.45629761D+06 0.45629761D+06 0.45629761D+06 0.10713291D+01  1  2  6  3  6  4        1 0.403648639835D-02 0.100000000000D+01
  </mgrwgt>
  </event>
  <event>
  5     66 0.23209023E-05 0.41803085E+02 0.75467711E-02 0.94561846E-01
       -1 -1    0    0    0  501 0.00000000E+00 0.00000000E+00 0.33116325E+03 0.33116341E+03 0.32000000E+00 0.0000E+00 0.9000E+01
        1 -1    0    0  502    0 0.00000000E+00 0.00000000E+00 -.12238317E+04 0.12238317E+04 0.32000000E+00 0.0000E+00 0.9000E+01
       25  1    1    2    0    0 -.46504859E+03 0.35615177E+02 -.61478745E+03 0.78174627E+03 0.12500000E+03 0.0000E+00 0.9000E+01
        1  1    1    2  502    0 -.63752918E+01 -.41319564E+02 -.29842831E+03 0.30134285E+03 0.32000000E+00 0.0000E+00 0.9000E+01
       -1  1    1    2    0  501 0.47142388E+03 0.57043869E+01 0.20547305E+02 0.47190604E+03 0.32000000E+00 0.0000E+00 0.9000E+01
#aMCatNLO 1  0  0  1  5 0.94449821D+01 0.00000000D+00  -5  6  0 0.00000000D+00 0.00000000D+00 0.00000000D+00 0.00000000D+00 0.00000000D+00
  <mgrwgt>
 0.2954998059D-02   13    4    0
 0.636622526222329D+03 0.000000000000000D+00 0.000000000000000D+00 0.636622526222329D+03
 0.636622526222329D+03 0.000000000000000D+00 0.000000000000000D+00 -.636622526222329D+03
 0.523728995115879D+03 -.465056416730614D+03 0.356096635144382D+02 -.202784470428972D+03
 0.158769344053883D+03 -.637492541061062D+01 -.413141407494531D+02 -.153167250779806D+03
 0.590746713274896D+03 0.471431342141224D+03 0.570447723501484D+01 0.355951721208778D+03
 0.000000000000000D+00 -.000000000000000D+00 -.000000000000000D+00 0.000000000000000D+00
 0.683639037656663D+03 0.000000000000000D+00 0.000000000000000D+00 0.683639037656663D+03
 0.637114560899745D+03 0.000000000000000D+00 0.000000000000000D+00 -.637114560899745D+03
 0.520829655408278D+03 -.461643761038393D+03 0.374436429834679D+02 -.202784470428972D+03
 0.158586980720697D+03 -.533809720794280D+01 -.407569437134501D+02 -.153167250779806D+03
 0.593863447458604D+03 0.475301557189523D+03 0.778435155561813D+01 0.355951721208778D+03
 0.474735149688292D+02 -.831969894318681D+01 -.447105082563596D+01 0.465244767569176D+02
 0.636622526222329D+03 0.000000000000000D+00 0.000000000000000D+00 0.636622526222329D+03
 0.636622526222329D+03 0.000000000000000D+00 0.000000000000000D+00 -.636622526222329D+03
 0.523728995115879D+03 -.465056416730614D+03 0.356096635144382D+02 -.202784470428972D+03
 0.158769344053883D+03 -.637492541061062D+01 -.413141407494531D+02 -.153167250779806D+03
 0.000000000000000D+00 -.000000000000000D+00 -.000000000000000D+00 0.000000000000000D+00
 0.590746713274896D+03 0.471431342141224D+03 0.570447723501484D+01 0.355951721208778D+03
 0.683639037656663D+03 0.000000000000000D+00 0.000000000000000D+00 0.683639037656663D+03
 0.637114560899745D+03 0.000000000000000D+00 0.000000000000000D+00 -.637114560899745D+03
 0.520829655408278D+03 -.461643761038393D+03 0.374436429834679D+02 -.202784470428972D+03
 0.158586980720697D+03 -.533809720794280D+01 -.407569437134501D+02 -.153167250779806D+03
 0.474735149688292D+02 -.831969894318681D+01 -.447105082563596D+01 0.465244767569176D+02
 0.593863447458604D+03 0.475301557189523D+03 0.778435155561813D+01 0.355951721208778D+03
0.134194653359D-04 0.000000000000D+00 0.000000000000D+00 0.102703896025D-05 0.000000000000D+00  6 -1 1 25 1 -1 21 0 0.50948208D-01 0.18828182D+00 0.24807685D+06 0.24807685D+06 0.24807685D+06 0.10907115D+01  1  2  2  1  6  1       -1 0.655958032171D-04 0.100000000000D+01
0.339247464653D-05 0.000000000000D+00 -.515342803164D-07 0.102703896025D-05 0.000000000000D+00  6 -1 1 25 1 -1 21 2 0.50948208D-01 0.18828182D+00 0.24807685D+06 0.24807685D+06 0.24807685D+06 0.10907115D+01  1  2  3  1  6  1       -1 0.197277355083D-04 0.100000000000D+01
-.788384105035D-05 0.000000000000D+00 0.000000000000D+00 0.102703896025D-05 0.000000000000D+00  6 -1 1 25 1 -1 21 2 0.50948208D-01 0.18828182D+00 0.24807685D+06 0.24807685D+06 0.24807685D+06 0.10907115D+01  1  2 15  1  6  1       -1 -.458456870678D-04 0.100000000000D+01
0.167616781024D-06 0.000000000000D+00 0.000000000000D+00 0.102703896025D-05 0.000000000000D+00  6 -1 1 25 1 -1 21 2 0.54729765D-01 0.18828182D+00 0.25283121D+06 0.25283121D+06 0.25283121D+06 0.10900914D+01  1  2 12  1  6  1       -1 0.852924763185D-06 0.100000000000D+01
0.174106602174D-02 0.000000000000D+00 0.000000000000D+00 0.102703896025D-05 0.000000000000D+00  6 -1 1 25 1 -1 21 2 0.54819730D-01 0.18828182D+00 0.25283121D+06 0.25283121D+06 0.25283121D+06 0.10900914D+01  1  2 12  1  6  1       -1 0.883259602542D-02 0.100000000000D+01
-.124295873403D-02 0.000000000000D+00 0.000000000000D+00 0.102703896025D-05 0.000000000000D+00  6 -1 1 25 1 -1 21 2 0.50948208D-01 0.18828182D+00 0.24807685D+06 0.24807685D+06 0.24807685D+06 0.10907115D+01  1  2  4  1  6  1       -1 -.722798656066D-02 0.100000000000D+01
-.198577623965D-02 0.000000000000D+00 -.454176778024D-04 0.102703896025D-05 0.000000000000D+00  6 -1 1 25 1 -1 21 2 0.54731252D-01 0.18828182D+00 0.24807685D+06 0.24807685D+06 0.24807685D+06 0.10907115D+01  1  2  5  1  6  1       -1 -.101240427360D-01 0.100000000000D+01
0.198405408903D-02 0.000000000000D+00 0.453014257849D-04 0.102703896025D-05 0.000000000000D+00  6 -1 1 25 1 -1 21 2 0.50948208D-01 0.18828182D+00 0.24807685D+06 0.24807685D+06 0.24807685D+06 0.10907115D+01  1  2  6  1  6  1       -1 0.115375642800D-01 0.100000000000D+01
0.228785095018D-07 0.000000000000D+00 0.000000000000D+00 0.102703896025D-05 0.537272778381D-07  6 -1 1 25 1 -1 21 2 0.54710888D-01 0.18842734D+00 0.25283121D+06 0.25283121D+06 0.25283121D+06 0.10900914D+01  1  2 11  1  6  1       -1 0.116313914057D-06 0.100000000000D+01
0.241814054276D-08 0.000000000000D+00 0.000000000000D+00 0.102703896025D-05 0.000000000000D+00  6 21 1 25 1 1 -1 2 0.54729765D-01 0.18828182D+00 0.25283121D+06 0.25283121D+06 0.25283121D+06 0.10900914D+01  3  4 12  5  5  1       -1 0.107670225734D-06 0.100000000000D+01
0.256346132637D-04 0.000000000000D+00 0.000000000000D+00 0.102703896025D-05 0.000000000000D+00  6 21 1 25 1 1 -1 2 0.54819730D-01 0.18828182D+00 0.25283121D+06 0.25283121D+06 0.25283121D+06 0.10900914D+01  3  4 12  5  5  1       -1 0.113727488826D-02 0.100000000000D+01
-.278029745127D-04 0.000000000000D+00 -.549541678781D-06 0.102703896025D-05 0.000000000000D+00  6 21 1 25 1 1 -1 2 0.54731252D-01 0.18828182D+00 0.24807685D+06 0.24807685D+06 0.24807685D+06 0.10907115D+01  3  4  5  5  5  1       -1 -.124098010336D-02 0.100000000000D+01
0.393450947444D-09 0.000000000000D+00 0.000000000000D+00 0.102703896025D-05 0.453504422793D-09  6 21 1 25 1 1 -1 2 0.54710888D-01 0.18842734D+00 0.25283121D+06 0.25283121D+06 0.25283121D+06 0.10900914D+01  3  4 11  5  5  1       -1 0.175052776441D-07 0.100000000000D+01
  </mgrwgt>
  </event>
  <event>
  5     66 -.23209023E-05 0.55557463E+02 0.75467711E-02 0.92222269E-01
       -1 -1    0    0    0  501 0.00000000E+00 0.00000000E+00 0.75845094E+03 0.75845100E+03 0.32000000E+00 0.0000E+00 0.9000E+01
        1 -1    0    0  502    0 0.00000000E+00 0.00000000E+00 -.24365626E+04 0.24365627E+04 0.32000000E+00 0.0000E+00 0.9000E+01
       25  1    1    2    0    0 -.33506677E+03 -.46606490E+03 -.17228518E+04 0.18202553E+04 0.12500000E+03 0.0000E+00 0.9000E+01
        1  1    1    2  502    0 -.75175411E+01 0.55054571E+02 -.56260236E+03 0.56533975E+03 0.32000000E+00 0.0000E+00 0.9000E+01
       -1  1    1    2    0  501 0.34258431E+03 0.41101033E+03 0.60734243E+03 0.80941858E+03 0.32000000E+00 0.0000E+00 0.9000E+01
#aMCatNLO 1  0  0  1  5 0.18349652D+02 0.00000000D+00  -5  6  0 0.00000000D+00 0.00000000D+00 0.00000000D+00 0.00000000D+00 0.00000000D+00
  <mgrwgt>
 -.3170589450D-02    7    4    0
 0.135941655161157D+04 0.000000000000000D+00 0.000000000000000D+00 0.135941655161157D+04
 0.135941655161157D+04 0.000000000000000D+00 0.000000000000000D+00 -.135941655161157D+04
 0.107573966044435D+04 -.335068742063604D+03 -.466059096451524D+03 -.901170723980551D+03
 0.317042420639006D+03 -.751743259783296D+01 0.550465250532185D+02 -.312136612353217D+03
 0.132605102213978D+04 0.342586174661437D+03 0.411012571398305D+03 0.121330733633377D+04
 0.000000000000000D+00 0.000000000000000D+00 -.000000000000000D+00 0.000000000000000D+00
 0.179004272086264D+04 0.000000000000000D+00 0.000000000000000D+00 0.179004272086264D+04
 0.136219692557065D+04 0.000000000000000D+00 0.000000000000000D+00 -.136219692557065D+04
 0.108040005448974D+04 -.359441572749467D+03 -.458620060356281D+03 -.901170723980551D+03
 0.317680872224064D+03 -.146922938752237D+02 0.572364246471062D+02 -.312136612353217D+03
 0.132151182800882D+04 0.312658336205558D+03 0.420147098010965D+03 0.121330733633377D+04
 0.432646891710667D+03 0.614755304191324D+02 -.187634623017896D+02 0.427845795291992D+03
 0.135941655161157D+04 0.000000000000000D+00 0.000000000000000D+00 0.135941655161157D+04
 0.135941655161157D+04 0.000000000000000D+00 0.000000000000000D+00 -.135941655161157D+04
 0.107573966044435D+04 -.335068742063604D+03 -.466059096451524D+03 -.901170723980551D+03
 0.317042420639006D+03 -.751743259783296D+01 0.550465250532185D+02 -.312136612353217D+03
 0.000000000000000D+00 0.000000000000000D+00 -.000000000000000D+00 0.000000000000000D+00
 0.132605102213978D+04 0.342586174661437D+03 0.411012571398305D+03 0.121330733633377D+04
 0.179004272086264D+04 0.000000000000000D+00 0.000000000000000D+00 0.179004272086264D+04
 0.136219692557065D+04 0.000000000000000D+00 0.000000000000000D+00 -.136219692557065D+04
 0.108040005448974D+04 -.359441572749467D+03 -.458620060356281D+03 -.901170723980551D+03
 0.317680872224064D+03 -.146922938752237D+02 0.572364246471062D+02 -.312136612353217D+03
 0.432646891710667D+03 0.614755304191324D+02 -.187634623017896D+02 0.427845795291992D+03
 0.132151182800882D+04 0.312658336205558D+03 0.420147098010965D+03 0.121330733633377D+04
0.492498975100D-03 0.000000000000D+00 0.000000000000D+00 0.121750114380D-04 0.000000000000D+00  6 -1 1 25 1 -1 21 0 0.11668477D+00 0.37485580D+00 0.34696965D+06 0.34696965D+06 0.34696965D+06 0.10799090D+01  1  2  2  1  6  1       -1 0.651926283261D-04 0.100000000000D+01
0.913367194710D-04 0.000000000000D+00 -.189132574234D-05 0.121750114380D-04 0.000000000000D+00  6 -1 1 25 1 -1 21 2 0.11668477D+00 0.37485580D+00 0.34696965D+06 0.34696965D+06 0.34696965D+06 0.10799090D+01  1  2  3  1  6  1       -1 0.140997971104D-04 0.100000000000D+01
-.288340507763D-03 0.000000000000D+00 0.000000000000D+00 0.121750114380D-04 0.000000000000D+00  6 -1 1 25 1 -1 21 2 0.11668477D+00 0.37485580D+00 0.34696965D+06 0.34696965D+06 0.34696965D+06 0.10799090D+01  1  2 15  1  6  1       -1 -.445115905377D-04 0.100000000000D+01
-.328061856821D-01 0.000000000000D+00 0.000000000000D+00 0.121750114380D-04 0.000000000000D+00  6 -1 1 25 1 -1 21 2 0.11668477D+00 0.37485580D+00 0.34696965D+06 0.34696965D+06 0.34696965D+06 0.10799090D+01  1  2  4  1  6  1       -1 -.506434394361D-02 0.100000000000D+01
-.317130552205D-01 0.000000000000D+00 -.460535916283D-03 0.121750114380D-04 0.000000000000D+00  6 -1 1 25 1 -1 21 2 0.15376439D+00 0.37485580D+00 0.34696965D+06 0.34696965D+06 0.34696965D+06 0.10799090D+01  1  2  5  1  6  1       -1 -.234951830803D-02 0.100000000000D+01
0.306815631342D-01 0.000000000000D+00 0.443541546969D-03 0.121750114380D-04 0.000000000000D+00  6 -1 1 25 1 -1 21 2 0.11668477D+00 0.37485580D+00 0.34696965D+06 0.34696965D+06 0.34696965D+06 0.10799090D+01  1  2  6  1  6  1       -1 0.473636252458D-02 0.100000000000D+01
-.114473984470D-02 0.000000000000D+00 -.167553536738D-04 0.121750114380D-04 0.000000000000D+00  6 21 1 25 1 1 -1 2 0.15376439D+00 0.37485580D+00 0.34696965D+06 0.34696965D+06 0.34696965D+06 0.10799090D+01  3  4  5  5  5  1       -1 -.527870557721D-03 0.100000000000D+01
  </mgrwgt>
  </event>
  <event>
  5     66 0.23209023E-05 0.58561769E+02 0.75467711E-02 0.93890188E-01
       -1 -1    0    0    0  501 0.00000000E+00 0.00000000E+00 0.72579802E+03 0.72579809E+03 0.32000000E+00 0.0000E+00 0.9000E+01
        1 -1    0    0  502    0 -.00000000E+00 -.00000000E+00 -.19069383E+04 0.19069383E+04 0.32000000E+00 0.0000E+00 0.9000E+01
       25  1    1    2    0    0 0.35888459E+03 -.36094148E+03 -.63778419E+03 0.82551232E+03 0.12500000E+03 0.0000E+00 0.9000E+01
        1  1    1    2  502    0 0.17897919E+02 0.55756266E+02 -.10813717E+04 0.10829561E+04 0.32000000E+00 0.0000E+00 0.9000E+01
       -1  1    1    2    0  501 -.37678251E+03 0.30518522E+03 0.53801566E+03 0.72426793E+03 0.32000000E+00 0.0000E+00 0.9000E+01
#aMCatNLO 1  0  0  4  2 0.26749360D+01 0.00000000D+00  -5  6  0 0.00000000D+00 0.00000000D+00 0.00000000D+00 0.00000000D+00 0.00000000D+00
  <mgrwgt>
 0.8823028864D-02    9    2    0
 0.117645745590482D+04 0.000000000000000D+00 0.000000000000000D+00 0.117645745590482D+04
 0.117645745590482D+04 -.000000000000000D+00 -.000000000000000D+00 -.117645745590482D+04
 0.603503404796827D+03 0.358880565234325D+03 -.360942003063258D+03 -.299193866787301D+03
 0.668940707569636D+03 0.178986087355812D+02 0.557594892001433D+02 -.666372410453220D+03
 0.108047079944317D+04 -.376779173969906D+03 0.305182513863115D+03 0.965566277240521D+03
 0.000000000000000D+00 0.000000000000000D+00 0.000000000000000D+00 0.000000000000000D+00
 0.117645745590482D+04 0.000000000000000D+00 0.000000000000000D+00 0.117645745590482D+04
 0.117645745590482D+04 -.000000000000000D+00 -.000000000000000D+00 -.117645745590482D+04
 0.603506050748341D+03 0.358880719166986D+03 -.360941523517239D+03 -.299199597762263D+03
 0.406376529312182D+03 0.104752618563072D+02 0.312376692424334D+02 -.405038714797927D+03
 0.108046177672000D+04 -.376778898381259D+03 0.305183372403708D+03 0.965556016964240D+03
 0.262570555029113D+03 0.742291735796622D+01 0.245204818710981D+02 -.261317704404050D+03
0.296842453900D-04 0.000000000000D+00 0.000000000000D+00 0.452942041357D-04 0.000000000000D+00  6 -1 1 25 1 -1 21 0 0.11166124D+00 0.29337513D+00 0.28491548D+06 0.28491548D+06 0.28491548D+06 0.10862134D+01  1  2  2  3  6  4        1 0.100958411474D-04 0.100000000000D+01
0.101658557033D-04 0.000000000000D+00 -.113995318339D-06 0.452942041357D-04 0.000000000000D+00  6 -1 1 25 1 -1 21 2 0.11166124D+00 0.29337513D+00 0.28491548D+06 0.28491548D+06 0.28491548D+06 0.10862134D+01  1  2  3  3  6  4        1 0.407934796001D-05 0.100000000000D+01
-.165441180732D-04 0.000000000000D+00 0.000000000000D+00 0.452942041357D-04 0.000000000000D+00  6 -1 1 25 1 -1 21 2 0.11166124D+00 0.29337513D+00 0.28491548D+06 0.28491548D+06 0.28491548D+06 0.10862134D+01  1  2 15  3  6  4        1 -.663881293238D-05 0.100000000000D+01
0.523815217763D-10 0.000000000000D+00 0.000000000000D+00 0.452942041357D-04 0.000000000000D+00  6 -1 1 25 1 -1 21 2 0.11166124D+00 0.29337513D+00 0.28491815D+06 0.28491815D+06 0.28491815D+06 0.10862131D+01  1  2 12  3  6  4        1 0.210195958621D-10 0.100000000000D+01
0.769133149095D-03 0.000000000000D+00 0.000000000000D+00 0.452942041357D-04 0.000000000000D+00  6 -1 1 25 1 -1 21 2 0.11166124D+00 0.29337513D+00 0.28491815D+06 0.28491815D+06 0.28491815D+06 0.10862131D+01  1  2 12  3  6  4        1 0.308636851506D-03 0.100000000000D+01
-.103553690696D+00 0.000000000000D+00 0.000000000000D+00 0.452942041357D-04 0.000000000000D+00  6 -1 1 25 1 -1 21 2 0.11166124D+00 0.29337513D+00 0.28491548D+06 0.28491548D+06 0.28491548D+06 0.10862134D+01  1  2  4  3  6  4        1 -.415539576027D-01 0.100000000000D+01
-.100406251093D+00 0.000000000000D+00 0.000000000000D+00 0.452942041357D-04 0.000000000000D+00  6 -1 1 25 1 -1 21 2 0.11166124D+00 0.29337513D+00 0.28491548D+06 0.28491548D+06 0.28491548D+06 0.10862134D+01  1  2  5  3  6  4        1 -.402909550875D-01 0.100000000000D+01
0.146681715927D+00 0.000000000000D+00 -.000000000000D+00 0.452942041357D-04 0.000000000000D+00  6 -1 1 25 1 -1 21 2 0.11166124D+00 0.29337513D+00 0.28491548D+06 0.28491548D+06 0.28491548D+06 0.10862134D+01  1  2  6  3  6  4        1 0.588603434968D-01 0.100000000000D+01
0.784776627117D-01 0.000000000000D+00 0.000000000000D+00 0.452942041357D-04 0.130601299256D-04  6 -1 1 25 1 -1 21 2 0.11166124D+00 0.29337513D+00 0.28491815D+06 0.28491815D+06 0.28491815D+06 0.10862131D+01  1  2 11  3  6  4        1 0.314914248091D-01 0.100000000000D+01
  </mgrwgt>
  </event>
  <event>
  5     66 0.23209023E-05 0.11475624E+03 0.75467711E-02 0.90416947E-01
       -1 -1    0    0    0  501 0.00000000E+00 0.00000000E+00 0.10203528E+04 0.10203529E+04 0.32000000E+00 0.0000E+00 0.9000E+01
        1 -1    0    0  502    0 0.00000000E+00 0.00000000E+00 -.22514359E+04 0.22514359E+04 0.32000000E+00 0.0000E+00 0.9000E+01
       25  1    1    2    0    0 -.51017018E+03 0.84944282E+02 0.58229043E+03 0.78878152E+03 0.12500000E+03 0.0000E+00 0.9000E+01
        1  1    1    2  502    0 -.10251233E+03 0.51552382E+02 -.18506447E+04 0.18541986E+04 0.32000000E+00 0.0000E+00 0.9000E+01
       -1  1    1    2    0  501 0.61268251E+03 -.13649666E+03 0.37271204E+02 0.62880875E+03 0.32000000E+00 0.0000E+00 0.9000E+01
#aMCatNLO 1  0  0  1  4 0.22084483D+03 0.00000000D+00  -5  6  0 0.00000000D+00 0.00000000D+00 0.00000000D+00 0.00000000D+00 0.00000000D+00
  <mgrwgt>
 0.7625955925D-03    4    2    0
 0.151567119572055D+04 0.000000000000000D+00 0.000000000000000D+00 0.151567119572055D+04
 0.151567119572055D+04 0.000000000000000D+00 0.000000000000000D+00 -.151567119572055D+04
 0.108789624510154D+04 -.510012613698890D+03 0.849062377805728D+02 0.948984354328355D+03
 0.124979094887410D+04 -.102522270999898D+03 0.515575370486561D+02 -.124451131783127D+04
 0.693655197465462D+03 0.612534884698788D+03 -.136463774829229D+03 0.295526963502910D+03
 0.000000000000000D+00 -.000000000000000D+00 -.000000000000000D+00 -.000000000000000D+00
 0.153128196269592D+04 0.000000000000000D+00 0.000000000000000D+00 0.153128196269592D+04
 0.257138561713764D+04 0.000000000000000D+00 0.000000000000000D+00 -.257138561713764D+04
 0.106448395709266D+04 -.446886757825648D+03 0.131232678200717D+03 0.948984354328355D+03
 0.124930402984816D+04 -.292278273511690D+02 0.105346442242095D+03 -.124451131783127D+04
 0.725588451375673D+03 0.654159022448441D+03 -.105916891768011D+03 0.295526963502910D+03
 0.106329114151706D+04 -.178044437271624D+03 -.130662228674802D+03 -.104010365444172D+04
0.142383100526D-01 0.000000000000D+00 0.000000000000D+00 0.125017917589D-05 0.000000000000D+00  6 -1 1 25 1 -1 21 0 0.15697737D+00 0.34637476D+00 0.40591914D+06 0.40591914D+06 0.40591914D+06 0.10749680D+01  1  2  2  1  6  1       -1 0.112164322874D-02 0.100000000000D+01
0.365283016521D-02 0.000000000000D+00 -.546788596350D-04 0.125017917589D-05 0.000000000000D+00  6 -1 1 25 1 -1 21 2 0.15697737D+00 0.34637476D+00 0.40591914D+06 0.40591914D+06 0.40591914D+06 0.10749680D+01  1  2  3  1  6  1       -1 0.332519309578D-03 0.100000000000D+01
-.757673999925D-02 0.000000000000D+00 0.000000000000D+00 0.125017917589D-05 0.000000000000D+00  6 -1 1 25 1 -1 21 2 0.15697737D+00 0.34637476D+00 0.40591914D+06 0.40591914D+06 0.40591914D+06 0.10749680D+01  1  2 15  1  6  1       -1 -.689715163163D-03 0.100000000000D+01
-.203424207758D-04 0.000000000000D+00 0.000000000000D+00 0.125017917589D-05 0.000000000000D+00  6 -1 1 25 1 -1 21 2 0.15697737D+00 0.34637476D+00 0.40591914D+06 0.40591914D+06 0.40591914D+06 0.10749680D+01  1  2  4  1  6  1       -1 -.185178270152D-05 0.100000000000D+01
  </mgrwgt>
  </event>
  <event>
  5     66 0.23209023E-05 0.19114951E+03 0.75467711E-02 0.90411589E-01
       -1 -1    0    0    0  501 0.00000000E+00 0.00000000E+00 0.66702769E+03 0.66702777E+03 0.32000000E+00 0.0000E+00 0.9000E+01
        1 -1    0    0  502    0 0.00000000E+00 0.00000000E+00 -.19591083E+04 0.19591084E+04 0.32000000E+00 0.0000E+00 0.9000E+01
       25  1    1    2    0    0 0.49234483E+03 0.22336520E+03 -.79674666E+03 0.97094062E+03 0.12500000E+03 0.0000E+00 0.9000E+01
        1  1    1    2  502    0 -.67753685E+03 -.27079969E+03 -.92898794E+03 0.11812736E+04 0.32000000E+00 0.0000E+00 0.9000E+01
       -1  1    1    2    0  501 0.18519201E+03 0.47434494E+02 0.43365395E+03 0.47392190E+03 0.32000000E+00 0.0000E+00 0.9000E+01
#aMCatNLO 1  0  0  2  1 0.36416387D+04 0.00000000D+00  -5  6  0 0.00000000D+00 0.00000000D+00 0.00000000D+00 0.00000000D+00 0.00000000D+00
  <mgrwgt>
 0.1576938836D-03    3    2    0
 0.114314463050585D+04 0.000000000000000D+00 0.000000000000000D+00 0.114314463050585D+04
 0.114314463050585D+04 0.000000000000000D+00 0.000000000000000D+00 -.114314463050585D+04
 0.665061584462940D+03 0.492423969713315D+03 0.223397559478605D+03 -.366461560875272D+03
 0.831869072510218D+03 -.677595764781109D+03 -.270826875027807D+03 -.399403226216799D+03
 0.789358604038543D+03 0.185171795067794D+03 0.474293155492020D+02 0.765864787092071D+03
 0.000000000000000D+00 -.000000000000000D+00 -.000000000000000D+00 0.000000000000000D+00
 0.534964149323854D+04 0.000000000000000D+00 0.000000000000000D+00 0.534964149323854D+04
 0.318606950405448D+04 0.000000000000000D+00 0.000000000000000D+00 -.318606950405448D+04
 0.211168495207400D+04 0.187104363881963D+04 0.899160699124033D+03 -.366461560875272D+03
 0.405514711912823D+03 -.632503065289744D+02 0.303091271623344D+02 -.399403226216799D+03
 0.178264349408307D+04 0.146213843022758D+04 0.673364808807777D+03 0.765864787092071D+03
 0.423586783922313D+04 -.326993176251823D+04 -.160283463509414D+04 0.216357198918406D+04
0.106592214340D-02 0.000000000000D+00 0.000000000000D+00 0.127024818636D-06 0.000000000000D+00  6 -1 1 25 1 -1 21 0 0.10261965D+00 0.30140129D+00 0.54453554D+06 0.54453554D+06 0.54453554D+06 0.10659013D+01  1  2  2  2  6  2        1 0.387808106304D-03 0.100000000000D+01
0.139402247258D-03 0.000000000000D+00 -.409342169439D-05 0.127024818636D-06 0.000000000000D+00  6 -1 1 25 1 -1 21 2 0.10261965D+00 0.30140129D+00 0.54453554D+06 0.54453554D+06 0.54453554D+06 0.10659013D+01  1  2  3  2  6  2        1 0.576229035255D-04 0.100000000000D+01
-.696098245037D-03 0.000000000000D+00 0.000000000000D+00 0.127024818636D-06 0.000000000000D+00  6 -1 1 25 1 -1 21 2 0.10261965D+00 0.30140129D+00 0.54453554D+06 0.54453554D+06 0.54453554D+06 0.10659013D+01  1  2 15  2  6  2        1 -.287737126245D-03 0.100000000000D+01
  </mgrwgt>
  </event>
  <event>
  5     66 0.23209023E-05 0.18474732E+03 0.75467711E-02 0.94773637E-01
       -1 -1    0    0    0  501 0.00000000E+00 0.00000000E+00 0.11935864E+04 0.11935864E+04 0.32000000E+00 0.0000E+00 0.9000E+01
        1 -1    0    0  502    0 0.00000000E+00 0.00000000E+00 -.58878264E+03 0.58878273E+03 0.32000000E+00 0.0000E+00 0.9000E+01
       25  1    1    2    0    0 -.35117661E+03 0.30484441E+03 0.18430280E+03 0.51560416E+03 0.12500000E+03 0.0000E+00 0.9000E+01
        1  1    1    2  502    0 0.28780569E+03 -.13127549E+03 -.35154480E+03 0.47291565E+03 0.32000000E+00 0.0000E+00 0.9000E+01
       -1  1    1    2    0  501 0.63370924E+02 -.17356892E+03 0.77204572E+03 0.79384932E+03 0.32000000E+00 0.0000E+00 0.9000E+01
#aMCatNLO 1  0  0  4  2 0.28999364D+02 0.00000000D+00  -5  6  0 0.00000000D+00 0.00000000D+00 0.00000000D+00 0.00000000D+00 0.00000000D+00
  <mgrwgt>
 0.1952383594D-03    8    2    0
 0.838309635329470D+03 0.000000000000000D+00 0.000000000000000D+00 0.838309635329470D+03
 0.838309635329470D+03 -.000000000000000D+00 -.000000000000000D+00 -.838309635329470D+03
 0.481675585875453D+03 -.351217207955754D+03 0.304847435621647D+03 0.100440957348834D+02
 0.629609113740862D+03 0.287856003567966D+03 -.131305136981239D+03 -.544339524853534D+03
 0.565334571042626D+03 0.633612043877877D+02 -.173542298640408D+03 0.534295429118650D+03
 0.000000000000000D+00 0.000000000000000D+00 -.000000000000000D+00 0.000000000000000D+00
 0.838309635329470D+03 0.000000000000000D+00 0.000000000000000D+00 0.838309635329470D+03
 0.838309635329470D+03 -.000000000000000D+00 -.000000000000000D+00 -.838309635329470D+03
 0.481301469883423D+03 -.350862908531502D+03 0.304685822405813D+03 0.937411081929133D+01
 0.286016279555361D+03 0.138528328997078D+03 -.316843811424085D+02 -.248216265034326D+03
 0.564696711694159D+03 0.637769665603815D+02 -.173731948007965D+03 0.533509217329851D+03
 0.344604809525997D+03 0.148557612974042D+03 -.992694932554395D+02 -.294667063114817D+03
0.344948070833D-04 0.000000000000D+00 0.000000000000D+00 0.208411386236D-05 0.000000000000D+00  6 -1 1 25 1 -1 21 0 0.18362868D+00 0.90581954D-01 0.24142844D+06 0.24142844D+06 0.24142844D+06 0.10916008D+01  1  2  2  3  6  4        1 0.285122800360D-04 0.100000000000D+01
0.342983559663D-05 0.000000000000D+00 -.132469141891D-06 0.208411386236D-05 0.000000000000D+00  6 -1 1 25 1 -1 21 2 0.18362868D+00 0.90581954D-01 0.24142844D+06 0.24142844D+06 0.24142844D+06 0.10916008D+01  1  2  3  3  6  4        1 0.337815220212D-05 0.100000000000D+01
-.202758656257D-04 0.000000000000D+00 0.000000000000D+00 0.208411386236D-05 0.000000000000D+00  6 -1 1 25 1 -1 21 2 0.18362868D+00 0.90581954D-01 0.24142844D+06 0.24142844D+06 0.24142844D+06 0.10916008D+01  1  2 15  3  6  4        1 -.199703333246D-04 0.100000000000D+01
0.419692018254D-08 0.000000000000D+00 0.000000000000D+00 0.208411386236D-05 0.000000000000D+00  6 -1 1 25 1 -1 21 2 0.18362868D+00 0.90581954D-01 0.24357009D+06 0.24357009D+06 0.24357009D+06 0.10913114D+01  1  2 12  3  6  4        1 0.412921431722D-08 0.100000000000D+01
0.593516909345D-03 0.000000000000D+00 0.000000000000D+00 0.208411386236D-05 0.000000000000D+00  6 -1 1 25 1 -1 21 2 0.18362868D+00 0.90581954D-01 0.24357009D+06 0.24357009D+06 0.24357009D+06 0.10913114D+01  1  2 12  3  6  4        1 0.583942132084D-03 0.100000000000D+01
-.803710074361D-03 0.000000000000D+00 0.000000000000D+00 0.208411386236D-05 0.000000000000D+00  6 -1 1 25 1 -1 21 2 0.18362868D+00 0.90581954D-01 0.24142844D+06 0.24142844D+06 0.24142844D+06 0.10916008D+01  1  2  4  3  6  4        1 -.791599154267D-03 0.100000000000D+01
-.601556090344D-03 0.000000000000D+00 0.000000000000D+00 0.208411386236D-05 0.000000000000D+00  6 -1 1 25 1 -1 21 2 0.18362868D+00 0.90581954D-01 0.24142844D+06 0.24142844D+06 0.24142844D+06 0.10916008D+01  1  2  5  3  6  4        1 -.592491381595D-03 0.100000000000D+01
0.998508832315D-03 0.000000000000D+00 -.000000000000D+00 0.208411386236D-05 0.000000000000D+00  6 -1 1 25 1 -1 21 2 0.18362868D+00 0.90581954D-01 0.24142844D+06 0.24142844D+06 0.24142844D+06 0.10916008D+01  1  2  6  3  6  4        1 0.983462535065D-03 0.100000000000D+01
  </mgrwgt>
  </event>
  <event>
  6     66 0.23209023E-05 0.13537416E+03 0.75467711E-02 0.91892383E-01
       -1 -1    0    0    0  501 0.00000000E+00 0.00000000E+00 0.83459158E+03 0.83459164E+03 0.32000000E+00 0.0000E+00 0.9000E+01
        1 -1    0    0  502    0 -.00000000E+00 -.00000000E+00 -.23598402E+04 0.23598402E+04 0.32000000E+00 0.0000E+00 0.9000E+01
       25  1    1    2    0    0 -.39214334E+03 -.42208877E+03 -.62944854E+03 0.86241857E+03 0.12500000E+03 0.0000E+00 0.9000E+01
        1  1    1    2  503    0 -.35931813E+02 0.15971406E+03 -.34069779E+03 0.37798778E+03 0.32000000E+00 0.0000E+00 0.9000E+01
       -1  1    1    2    0  501 0.28341863E+01 0.55960228E+02 0.65369557E+03 0.65609267E+03 0.32000000E+00 0.0000E+00 0.9000E+01
       21  1    1    2  502  503 0.42524097E+03 0.20641448E+03 -.12087978E+04 0.12979328E+04 0.75000000E+00 0.0000E+00 0.9000E+01
#aMCatNLO 2  0  0  4  2 0.12519356D+01 0.00000000D+00  -5  6  0 0.00000000D+00 0.00000000D+00 0.00000000D+00 0.00000000D+00 0.00000000D+00
  <mgrwgt>
 0.4506341495D-03    1    2    0
 0.140338978173644D+04 0.000000000000000D+00 0.000000000000000D+00 0.140338978173644D+04
 0.140338978173644D+04 -.000000000000000D+00 -.000000000000000D+00 -.140338978173644D+04
 0.641661417636644D+03 -.397423032210625D+03 -.427053947190728D+03 -.236186863607608D+03
 0.104361428860193D+04 0.403719116911505D+03 0.379681555132863D+03 -.884298351636028D+03
 0.112150385723430D+04 -.629608470088016D+01 0.473723920578644D+02 0.112048521524364D+04
 0.000000000000000D+00 0.000000000000000D+00 0.000000000000000D+00 0.000000000000000D+00
 0.140338978173644D+04 0.000000000000000D+00 0.000000000000000D+00 0.140338978173644D+04
 0.140338978173644D+04 -.000000000000000D+00 -.000000000000000D+00 -.140338978173644D+04
 0.639495531118098D+03 -.392170895933461D+03 -.422114524740934D+03 -.247691038807423D+03
 0.244495289801351D+03 -.359322042495556D+02 0.159381823525393D+03 -.181890785260100D+03
 0.110194437630207D+04 0.281899923876054D+01 0.559447610649233D+02 0.110051971605075D+04
 0.820844366251362D+03 0.425284100944256D+03 0.206787940150618D+03 -.670937891983231D+03
0.336807786368D-02 0.000000000000D+00 0.000000000000D+00 0.630080601628D-04 0.118472848688D-08  6 -1 1 25 1 -1 21 2 0.12839871D+00 0.36305234D+00 0.41079770D+06 0.41079770D+06 0.41079770D+06 0.10745947D+01  1  2  1  3  6  4        1 0.450634149506D-03 0.100000000000D+01
  </mgrwgt>
  </event>
  <event>
  5     66 0.23209023E-05 0.11101950E+02 0.75467711E-02 0.94201299E-01
       -1 -1    0    0    0  501 0.00000000E+00 0.00000000E+00 0.49984383E+03 0.49984394E+03 0.32000000E+00 0.0000E+00 0.9000E+01
        1 -1    0    0  502    0 0.00000000E+00 0.00000000E+00 -.29583682E+04 0.29583683E+04 0.32000000E+00 0.0000E+00 0.9000E+01
       25  1    1    2    0    0 0.43315728E+03 0.25638926E+03 -.53078803E+03 0.74210620E+03 0.12500000E+03 0.0000E+00 0.9000E+01
        1  1    1    2  502    0 -.43115267E+03 -.26730965E+03 -.22941276E+04 0.23495464E+04 0.32000000E+00 0.0000E+00 0.9000E+01
       -1  1    1    2    0  501 -.20046106E+01 0.10920390E+02 0.36639121E+03 0.36655954E+03 0.32000000E+00 0.0000E+00 0.9000E+01
#aMCatNLO 1  0  0  1  2 0.94928454D+00 0.00000000D+00  -5  6  0 0.00000000D+00 0.00000000D+00 0.00000000D+00 0.00000000D+00 0.00000000D+00
  <mgrwgt>
 0.5235502046D-01   11    4    0
 0.121602727241942D+04 0.000000000000000D+00 0.000000000000000D+00 0.121602727241942D+04
 0.121602727241942D+04 0.000000000000000D+00 0.000000000000000D+00 -.121602727241942D+04
 0.518714236950741D+03 0.433206470163456D+03 0.256420259940187D+03 -.450156818395914D+01
 0.102181194095514D+04 -.431202022817171D+03 -.267339760289500D+03 -.886957671349228D+03
 0.891528366932949D+03 -.200444734628518D+01 0.109195003493133D+02 0.891459239533187D+03
 0.000000000000000D+00 0.000000000000000D+00 0.000000000000000D+00 0.000000000000000D+00
 0.128243513258063D+04 0.000000000000000D+00 0.000000000000000D+00 0.128243513258063D+04
 0.121603075750488D+04 0.000000000000000D+00 0.000000000000000D+00 -.121603075750488D+04
 0.518534530643623D+03 0.433005462001140D+03 0.256396305025768D+03 -.450156818395914D+01
 0.102199149209464D+04 -.431598090939928D+03 -.267386961248283D+03 -.886957671349228D+03
 0.891528707363909D+03 -.234998550165057D+01 0.108783212407402D+02 0.891459239533187D+03
 0.664111599833372D+02 0.942614440438804D+00 0.112334981774652D+00 0.664043750757505D+02
 0.121602727241942D+04 0.000000000000000D+00 0.000000000000000D+00 0.121602727241942D+04
 0.121602727241942D+04 0.000000000000000D+00 0.000000000000000D+00 -.121602727241942D+04
 0.518714236950741D+03 0.433206470163456D+03 0.256420259940187D+03 -.450156818395914D+01
 0.102181194095514D+04 -.431202022817171D+03 -.267339760289500D+03 -.886957671349228D+03
 0.000000000000000D+00 0.000000000000000D+00 0.000000000000000D+00 0.000000000000000D+00
 0.891528366932949D+03 -.200444734628518D+01 0.109195003493133D+02 0.891459239533187D+03
 0.128243513258063D+04 0.000000000000000D+00 0.000000000000000D+00 0.128243513258063D+04
 0.121603075750488D+04 0.000000000000000D+00 0.000000000000000D+00 -.121603075750488D+04
 0.518534530643623D+03 0.433005462001140D+03 0.256396305025768D+03 -.450156818395914D+01
 0.102199149209464D+04 -.431598090939928D+03 -.267386961248283D+03 -.886957671349228D+03
 0.664111599833372D+02 0.942614440438804D+00 0.112334981774652D+00 0.664043750757505D+02
 0.891528707363909D+03 -.234998550165057D+01 0.108783212407402D+02 0.891459239533187D+03
0.103422514239D-03 0.000000000000D+00 0.000000000000D+00 0.118578802312D-03 0.000000000000D+00  6 -1 1 25 1 -1 21 0 0.76899061D-01 0.45513358D+00 0.26891917D+06 0.26891917D+06 0.26891917D+06 0.10880837D+01  1  2  2  1  6  1       -1 0.148959916513D-04 0.100000000000D+01
0.120049526300D-03 0.000000000000D+00 -.397169686451D-06 0.118578802312D-03 0.000000000000D+00  6 -1 1 25 1 -1 21 2 0.76899061D-01 0.45513358D+00 0.26891917D+06 0.26891917D+06 0.26891917D+06 0.10880837D+01  1  2  3  1  6  1       -1 0.204710146745D-04 0.100000000000D+01
-.641550265808D-04 0.000000000000D+00 0.000000000000D+00 0.118578802312D-03 0.000000000000D+00  6 -1 1 25 1 -1 21 2 0.76899061D-01 0.45513358D+00 0.26891917D+06 0.26891917D+06 0.26891917D+06 0.10880837D+01  1  2 15  1  6  1       -1 -.109398056873D-04 0.100000000000D+01
0.261080200177D-12 0.000000000000D+00 0.000000000000D+00 0.118578802312D-03 0.000000000000D+00  6 -1 1 25 1 -1 21 2 0.81098664D-01 0.45513358D+00 0.26952022D+06 0.26952022D+06 0.26952022D+06 0.10880112D+01  1  2 12  1  6  1       -1 0.399387173591D-13 0.100000000000D+01
-.100750068316D+01 0.000000000000D+00 0.000000000000D+00 0.118578802312D-03 0.000000000000D+00  6 -1 1 25 1 -1 21 2 0.76899061D-01 0.45513358D+00 0.26891917D+06 0.26891917D+06 0.26891917D+06 0.10880837D+01  1  2  4  1  6  1       -1 -.171800438578D+00 0.100000000000D+01
-.421449028491D+01 0.000000000000D+00 -.453917043723D-03 0.118578802312D-03 0.000000000000D+00  6 -1 1 25 1 -1 21 2 0.81098661D-01 0.45513358D+00 0.26891917D+06 0.26891917D+06 0.26891917D+06 0.10880837D+01  1  2  5  1  6  1       -1 -.644926292588D+00 0.100000000000D+01
0.420856412765D+01 0.000000000000D+00 0.453276108660D-03 0.118578802312D-03 0.000000000000D+00  6 -1 1 25 1 -1 21 2 0.76899061D-01 0.45513358D+00 0.26891917D+06 0.26891917D+06 0.26891917D+06 0.10880837D+01  1  2  6  1  6  1       -1 0.717650295430D+00 0.100000000000D+01
0.100174721868D+01 0.000000000000D+00 0.000000000000D+00 0.118578802312D-03 0.325408203680D-03  6 -1 1 25 1 -1 21 2 0.81098557D-01 0.45513489D+00 0.26952022D+06 0.26952022D+06 0.26952022D+06 0.10880112D+01  1  2 11  1  6  1       -1 0.153240385742D+00 0.100000000000D+01
0.449434508117D-14 0.000000000000D+00 0.000000000000D+00 0.118578802312D-03 0.000000000000D+00  6 21 1 25 1 1 -1 2 0.81098664D-01 0.45513358D+00 0.26952022D+06 0.26952022D+06 0.26952022D+06 0.10880112D+01  3  4 12  5  5  1       -1 0.518284695653D-14 0.100000000000D+01
-.388618817376D-01 0.000000000000D+00 -.418561291548D-05 0.118578802312D-03 0.000000000000D+00  6 21 1 25 1 1 -1 2 0.81098661D-01 0.45513358D+00 0.26891917D+06 0.26891917D+06 0.26891917D+06 0.10880837D+01  3  4  5  5  5  1       -1 -.448331414546D-01 0.100000000000D+01
0.372880076281D-01 0.000000000000D+00 0.000000000000D+00 0.118578802312D-03 0.379390026963D-05  6 21 1 25 1 1 -1 2 0.81098557D-01 0.45513489D+00 0.26952022D+06 0.26952022D+06 0.26952022D+06 0.10880112D+01  3  4 11  5  5  1       -1 0.429997847082D-01 0.100000000000D+01
  </mgrwgt>
  </event>
</LesHouchesEvents>
