<LesHouchesEvents version="3.0">
  <!--
  <scalesfunctionalform>
    muR  H_T/2 := sum_i mT(i)/2, i=final state
    muF1 H_T/2 := sum_i mT(i)/2, i=final state
    muF2 H_T/2 := sum_i mT(i)/2, i=final state
    QES  H_T/2 := sum_i mT(i)/2, i=final state
  </scalesfunctionalform>
HERWIG6   
  -->
  <header>
       58
  </header>
  <init>
   2212   2212 0.65000000D+04 0.65000000D+04 -1 -1   244800   244800 -4   1
 0.54829480D-04 0.23272448D-05 0.19643240D-05     66
  </init>
  <event>
  5     66 0.19643240E-05 0.33054698E+03 0.75467711E-02 0.83379398E-01
        3 -1    0    0  501    0 0.00000000E+00 0.00000000E+00 0.80918321E+03 0.80918337E+03 0.50000000E+00 0.0000E+00 0.9000E+01
        2 -1    0    0  502    0 0.00000000E+00 0.00000000E+00 -.23359377E+04 0.23359377E+04 0.32000000E+00 0.0000E+00 0.9000E+01
       25  1    1    2    0    0 0.98517646E+03 -.33298994E+03 -.41899321E+03 0.11281114E+04 0.12500000E+03 0.0000E+00 0.9000E+01
        3  1    1    2  501    0 -.82255972E+03 0.45285069E+02 0.37858158E+02 0.82467492E+03 0.50000000E+00 0.0000E+00 0.9000E+01
        2  1    1    2  502    0 -.16261674E+03 0.28770487E+03 -.11456194E+04 0.11923348E+04 0.32000000E+00 0.0000E+00 0.9000E+01
#aMCatNLO 1  0  0  2  4 0.11749742D+04 0.00000000D+00  -5  6  0 0.00000000D+00 0.00000000D+00 0.00000000D+00 0.00000000D+00 0.00000000D+00
  <mgrwgt>
 0.8726805626D-05    3    2    0
 0.137484610692543D+04 0.000000000000000D+00 0.000000000000000D+00 0.137484610692543D+04
 0.137484610692543D+04 0.000000000000000D+00 0.000000000000000D+00 -.137484610692543D+04
 0.105767452999397D+04 0.985102174917139D+03 -.333033488072477D+03 0.147352679628756D+03
 0.964152239157985D+03 -.822441743965090D+03 0.452785736774588D+02 0.501127697121953D+03
 0.727865444698903D+03 -.162660430952049D+03 0.287754914395018D+03 -.648480376750709D+03
 0.000000000000000D+00 0.000000000000000D+00 0.000000000000000D+00 0.000000000000000D+00
 0.338420880891605D+04 0.000000000000000D+00 0.000000000000000D+00 0.338420880891605D+04
 0.149232480996552D+04 0.000000000000000D+00 0.000000000000000D+00 -.149232480996552D+04
 0.909137152458133D+03 0.759847672977970D+03 -.460243483012928D+03 0.147352679628756D+03
 0.118383996639017D+04 -.106844644220175D+04 -.936498657038046D+02 0.501127697121953D+03
 0.753528668994138D+03 -.332321154565159D+03 0.191940892448209D+03 -.648480376750709D+03
 0.203002783103914D+04 0.640919923788937D+03 0.361952456268523D+03 0.189188399895053D+04
0.107281899377D-03 0.000000000000D+00 0.000000000000D+00 0.604992786638D-08 0.000000000000D+00  6 3 2 25 3 2 21 0 0.12448974D+00 0.35937504D+00 0.12117540D+07 0.12117540D+07 0.12117540D+07 0.10423561D+01  1  2  2  2  6  2        2 0.184901100111D-04 0.100000000000D+01
0.859253405759D-05 0.000000000000D+00 -.411990741582D-06 0.604992786638D-08 0.000000000000D+00  6 3 2 25 3 2 21 2 0.12448974D+00 0.35937504D+00 0.12117540D+07 0.12117540D+07 0.12117540D+07 0.10423561D+01  1  2  3  2  6  2        2 0.160903872326D-05 0.100000000000D+01
-.607302012418D-04 0.000000000000D+00 0.000000000000D+00 0.604992786638D-08 0.000000000000D+00  6 3 2 25 3 2 21 2 0.12448974D+00 0.35937504D+00 0.12117540D+07 0.12117540D+07 0.12117540D+07 0.10423561D+01  1  2 15  2  6  2        2 -.113723431079D-04 0.100000000000D+01
  </mgrwgt>
  </event>
  <event>
  6     66 -.19643240E-05 0.68848760E+02 0.75467711E-02 0.93141118E-01
        3 -1    0    0  501    0 0.00000000E+00 0.00000000E+00 0.45663684E+03 0.45663712E+03 0.50000000E+00 0.0000E+00 0.9000E+01
        2 -1    0    0  503    0 0.00000000E+00 0.00000000E+00 -.17361378E+04 0.17361378E+04 0.32000000E+00 0.0000E+00 0.9000E+01
       25  1    1    2    0    0 -.32343333E+03 0.36123493E+03 -.26654055E+03 0.56724656E+03 0.12500000E+03 0.0000E+00 0.9000E+01
        3  1    1    2  501    0 -.69895302E+02 0.23571332E+02 0.23743009E+03 0.24862473E+03 0.50000000E+00 0.0000E+00 0.9000E+01
        2  1    1    2  502    0 0.39428865E+03 -.39451818E+03 -.11725882E+04 0.12984881E+04 0.32000000E+00 0.0000E+00 0.9000E+01
       21  1    1    2  503  502 -.96001516E+00 0.97119200E+01 -.77802210E+02 0.78415492E+02 0.75000000E+00 0.0000E+00 0.9000E+01
#aMCatNLO 2  0  0  2  5 0.97592530D+01 0.00000000D+00  -5  6  0 0.00000000D+00 0.00000000D+00 0.00000000D+00 0.00000000D+00 0.00000000D+00
  <mgrwgt>
 -.1338922045D-02    5    2    0
 0.869819051994062D+03 0.000000000000000D+00 0.000000000000000D+00 0.869819051994062D+03
 0.869819051994062D+03 0.000000000000000D+00 0.000000000000000D+00 -.869819051994062D+03
 0.507687835699861D+03 -.323839383931329D+03 0.364176548857969D+03 0.680105373783049D+02
 0.466141630316896D+03 -.701198141822484D+02 0.261621385181123D+02 0.460094309551531D+03
 0.765808637971367D+03 0.393959198113577D+03 -.390338687376081D+03 -.528104846929836D+03
 0.000000000000000D+00 -.000000000000000D+00 0.000000000000000D+00 -.000000000000000D+00
 0.870413860398167D+03 0.000000000000000D+00 0.000000000000000D+00 0.870413860398167D+03
 0.910806549365665D+03 0.000000000000000D+00 0.000000000000000D+00 -.910806549365665D+03
 0.505484017161979D+03 -.323559827887883D+03 0.361348441519941D+03 0.680105373783049D+02
 0.465964213850552D+03 -.698626260052057D+02 0.235603139902570D+02 0.460094309551531D+03
 0.768217247137450D+03 0.394382469057962D+03 -.394620675520685D+03 -.528104846929836D+03
 0.415549316138520D+02 -.960015164873751D+00 0.971192001048732D+01 -.403926889674978D+02
-.313990342601D-02 0.000000000000D+00 0.000000000000D+00 0.226334519276D-05 0.000000000000D+00  6 3 2 25 3 2 21 2 0.70203565D-01 0.26774429D+00 0.32620376D+06 0.32620376D+06 0.32620376D+06 0.10818714D+01  1  2 13  2  6  2        2 -.583117029716D-02 0.100000000000D+01
-.301560121781D-02 0.000000000000D+00 0.000000000000D+00 0.226334519276D-05 0.000000000000D+00  6 3 2 25 3 2 21 2 0.70203565D-01 0.25507738D+00 0.32066259D+06 0.32066259D+06 0.32066259D+06 0.10824182D+01  1  2  8  2  6  2        2 -.622152869548D-02 0.100000000000D+01
-.395660400305D-02 0.000000000000D+00 0.000000000000D+00 0.226334519276D-05 0.000000000000D+00  6 3 2 25 3 2 21 2 0.70203565D-01 0.26716341D+00 0.32066259D+06 0.32066259D+06 0.32066259D+06 0.10824182D+01  1  2  9  2  6  2        2 -.739611346193D-02 0.100000000000D+01
0.395236810201D-02 0.000000000000D+00 0.000000000000D+00 0.226334519276D-05 0.000000000000D+00  6 3 2 25 3 2 21 2 0.70203565D-01 0.25507738D+00 0.32066259D+06 0.32066259D+06 0.32066259D+06 0.10824182D+01  1  2 10  2  6  2        2 0.815418544617D-02 0.100000000000D+01
0.534057834559D-02 0.000000000000D+00 0.000000000000D+00 0.226334519276D-05 0.101433381835D-06  6 3 2 25 3 2 21 2 0.70251573D-01 0.26709710D+00 0.32620376D+06 0.32620376D+06 0.32620376D+06 0.10818714D+01  1  2  1  2  6  2        2 0.995570496337D-02 0.100000000000D+01
  </mgrwgt>
  </event>
  <event>
  5     66 0.19643240E-05 0.12664427E+02 0.75467711E-02 0.92113050E-01
        1 -1    0    0  501    0 0.00000000E+00 0.00000000E+00 0.30738769E+04 0.30738769E+04 0.32000000E+00 0.0000E+00 0.9000E+01
        4 -1    0    0  502    0 0.00000000E+00 0.00000000E+00 -.23167968E+03 0.23168486E+03 0.15500000E+01 0.0000E+00 0.9000E+01
       25  1    1    2    0    0 -.27519804E+03 0.47030433E+03 0.93865291E+03 0.10925266E+04 0.12500000E+03 0.0000E+00 0.9000E+01
        1  1    1    2  501    0 0.27816040E+03 -.45799139E+03 0.20230697E+04 0.20928307E+04 0.32000000E+00 0.0000E+00 0.9000E+01
        4  1    1    2  502    0 -.29623572E+01 -.12312939E+02 -.11952539E+03 0.12020444E+03 0.15500000E+01 0.0000E+00 0.9000E+01
#aMCatNLO 1  0  0  5  2 0.65471392D+00 0.00000000D+00  -5  6  0 0.00000000D+00 0.00000000D+00 0.00000000D+00 0.00000000D+00 0.00000000D+00
  <mgrwgt>
 0.1169136605D-02    4    2    0
 0.843897744283931D+03 0.000000000000000D+00 0.000000000000000D+00 0.843897744283931D+03
 0.843897744283931D+03 -.000000000000000D+00 -.000000000000000D+00 -.843897744283931D+03
 0.559090282089785D+03 -.275215503038341D+03 0.470330815220937D+03 -.151481622542232D+01
 0.692076829911717D+03 0.278176142261997D+03 -.458017313275303D+03 0.437959487985998D+03
 0.436628376566359D+03 -.296063922365616D+01 -.123135019456349D+02 -.436444671760576D+03
 0.000000000000000D+00 0.000000000000000D+00 0.000000000000000D+00 0.000000000000000D+00
 0.843897744283931D+03 0.000000000000000D+00 0.000000000000000D+00 0.843897744283931D+03
 0.843897744283931D+03 -.000000000000000D+00 -.000000000000000D+00 -.843897744283931D+03
 0.561115453249578D+03 -.275612364289850D+03 0.468680242009062D+03 -.600183911510980D+02
 0.651150722041790D+03 0.277700269883816D+03 -.459996499191572D+03 0.367808433363753D+03
 0.376692996957585D+03 -.804165303113969D+02 -.154597363247583D+02 -.367684364859770D+03
 0.988363163189085D+02 0.783286247174308D+02 0.677599350726855D+01 0.598943226471147D+02
0.550474031516D-02 0.000000000000D+00 0.000000000000D+00 0.732792643482D-05 0.000000000000D+00  6 1 4 25 1 4 21 0 0.47290454D+00 0.35643428D-01 0.30670966D+06 0.30670966D+06 0.30670966D+06 0.10838419D+01  1  2  2  4  6  5        4 0.135399267083D-02 0.100000000000D+01
0.522744741886D-02 0.000000000000D+00 -.211396522416D-04 0.732792643482D-05 0.000000000000D+00  6 1 4 25 1 4 21 2 0.47290454D+00 0.35643428D-01 0.30670966D+06 0.30670966D+06 0.30670966D+06 0.10838419D+01  1  2  3  4  6  5        4 0.151043138451D-02 0.100000000000D+01
-.364694985605D-02 0.000000000000D+00 0.000000000000D+00 0.732792643482D-05 0.000000000000D+00  6 1 4 25 1 4 21 2 0.47290454D+00 0.35643428D-01 0.30670966D+06 0.30670966D+06 0.30670966D+06 0.10838419D+01  1  2 15  4  6  5        4 -.105375857067D-02 0.100000000000D+01
-.222026536229D-02 0.000000000000D+00 0.000000000000D+00 0.732792643482D-05 0.000000000000D+00  6 1 4 25 1 4 21 2 0.47290454D+00 0.35643428D-01 0.30670966D+06 0.30670966D+06 0.30670966D+06 0.10838419D+01  1  2  4  4  6  5        4 -.641528879477D-03 0.100000000000D+01
  </mgrwgt>
  </event>
  <event>
  6     66 0.19643240E-05 0.15017858E+03 0.75467711E-02 0.88558480E-01
        3 -1    0    0  501    0 0.00000000E+00 0.00000000E+00 0.83605227E+03 0.83605242E+03 0.50000000E+00 0.0000E+00 0.9000E+01
        2 -1    0    0  502    0 -.00000000E+00 -.00000000E+00 -.14763400E+04 0.14763401E+04 0.32000000E+00 0.0000E+00 0.9000E+01
       25  1    1    2    0    0 0.31330976E+02 -.82219944E+03 -.19032724E+03 0.85372303E+03 0.12500000E+03 0.0000E+00 0.9000E+01
        3  1    1    2  501    0 -.11291857E+02 0.35632293E+01 0.27848376E+03 0.27873582E+03 0.50000000E+00 0.0000E+00 0.9000E+01
        2  1    1    2  503    0 0.12520690E+03 0.76177433E+03 -.59555136E+03 0.97501714E+03 0.32000000E+00 0.0000E+00 0.9000E+01
       21  1    1    2  502  503 -.14524602E+03 0.56861882E+02 -.13289290E+03 0.20491648E+03 0.75000000E+00 0.0000E+00 0.9000E+01
#aMCatNLO 2  0  0  5  4 0.15023541D+03 0.00000000D+00  -5  6  0 0.00000000D+00 0.00000000D+00 0.00000000D+00 0.00000000D+00 0.00000000D+00
  <mgrwgt>
 0.1006684408D-03    1    2    0
 0.111098948685084D+04 0.000000000000000D+00 0.000000000000000D+00 0.111098948685084D+04
 0.111098948685084D+04 -.000000000000000D+00 -.000000000000000D+00 -.111098948685084D+04
 0.868939389073190D+03 0.321726109612838D+02 -.856784614618017D+03 0.656940571184278D+02
 0.377885764269922D+03 -.109127477876314D+02 -.115507810456022D+02 0.377551509374314D+03
 0.975153820358578D+03 -.212598631736525D+02 0.868335395663619D+03 -.443245566492742D+03
 0.000000000000000D+00 0.000000000000000D+00 0.000000000000000D+00 -.000000000000000D+00
 0.111098948685084D+04 0.000000000000000D+00 0.000000000000000D+00 0.111098948685084D+04
 0.111098948685084D+04 -.000000000000000D+00 -.000000000000000D+00 -.111098948685084D+04
 0.833782054774644D+03 0.313296943060185D+02 -.822356624118605D+03 0.481201401408109D+02
 0.370021609957641D+03 -.112829924830336D+02 0.357145052514650D+01 0.369832300722123D+03
 0.843090293405508D+03 0.125296093429938D+03 0.761851726490923D+03 -.338650378190519D+03
 0.175085015563896D+03 -.145342795252923D+03 0.569334471025358D+02 -.793020626724144D+02
0.183668024360D-03 0.000000000000D+00 0.000000000000D+00 0.172758265973D-05 0.254770425137D-09  6 3 2 25 3 2 21 2 0.12862344D+00 0.22712925D+00 0.78535864D+06 0.78535864D+06 0.78535864D+06 0.10549212D+01  1  2  1  4  6  5        2 0.100668440822D-03 0.100000000000D+01
  </mgrwgt>
  </event>
  <event>
  6     66 0.19643240E-05 0.17701693E+02 0.75467711E-02 0.95119390E-01
        3 -1    0    0  501    0 0.00000000E+00 0.00000000E+00 0.85230727E+03 0.85230742E+03 0.50000000E+00 0.0000E+00 0.9000E+01
        2 -1    0    0  502    0 -.00000000E+00 -.00000000E+00 -.21094715E+04 0.21094715E+04 0.32000000E+00 0.0000E+00 0.9000E+01
       25  1    1    2    0    0 -.35526737E+03 0.30815332E+03 -.16181265E+04 0.16897135E+04 0.12500000E+03 0.0000E+00 0.9000E+01
        3  1    1    2  503    0 0.22805450E+03 -.21177260E+03 0.53897234E+03 0.62237282E+03 0.50000000E+00 0.0000E+00 0.9000E+01
        2  1    1    2  502    0 0.10859564E+02 -.11032319E+02 -.39161089E+03 0.39191687E+03 0.32000000E+00 0.0000E+00 0.9000E+01
       21  1    1    2  501  503 0.11635330E+03 -.85348402E+02 0.21360084E+03 0.25777572E+03 0.75000000E+00 0.0000E+00 0.9000E+01
#aMCatNLO 2  0  0  4  1 0.21327295D+01 0.00000000D+00  -5  6  0 0.00000000D+00 0.00000000D+00 0.00000000D+00 0.00000000D+00 0.00000000D+00
  <mgrwgt>
 0.1212822895D-01    1    2    0
 0.134086469318241D+04 0.000000000000000D+00 0.000000000000000D+00 0.134086469318241D+04
 0.134086469318241D+04 -.000000000000000D+00 -.000000000000000D+00 -.134086469318241D+04
 0.110786148873043D+04 -.355323952242156D+03 0.308201965498992D+03 -.995232895174579D+03
 0.132460081967991D+04 0.344477828436922D+03 -.297181407840327D+03 0.124401992268859D+04
 0.249267077954474D+03 0.108461238052334D+02 -.110205576586655D+02 -.248787027514007D+03
 0.000000000000000D+00 0.000000000000000D+00 0.000000000000000D+00 0.000000000000000D+00
 0.134086469318241D+04 0.000000000000000D+00 0.000000000000000D+00 0.134086469318241D+04
 0.134086469318241D+04 -.000000000000000D+00 -.000000000000000D+00 -.134086469318241D+04
 0.110764613792112D+04 -.355267354017706D+03 0.308153138147463D+03 -.995028500833370D+03
 0.939865624965056D+03 0.228006682378349D+03 -.211735881657583D+03 0.886864286235758D+03
 0.249222218387763D+03 0.108588584077872D+02 -.110315438145304D+02 -.248741038779823D+03
 0.384995405090873D+03 0.116401813231570D+03 -.853857126753489D+02 0.356905253377435D+03
0.447190577228D-01 0.000000000000D+00 0.000000000000D+00 0.733983425233D-04 0.722618767315D-06  6 3 2 25 3 2 21 2 0.13112421D+00 0.32453409D+00 0.22925771D+06 0.22925771D+06 0.22925771D+06 0.10933003D+01  1  2  1  3  6  4        3 0.121282289496D-01 0.100000000000D+01
  </mgrwgt>
  </event>
  <event>
  5     66 0.19643240E-05 0.71998193E+02 0.75467711E-02 0.94433933E-01
        1 -1    0    0  501    0 0.00000000E+00 0.00000000E+00 0.19066669E+04 0.19066669E+04 0.32000000E+00 0.0000E+00 0.9000E+01
        4 -1    0    0  502    0 0.00000000E+00 0.00000000E+00 -.45390437E+03 0.45390702E+03 0.15500000E+01 0.0000E+00 0.9000E+01
       25  1    1    2    0    0 -.26564577E+03 0.40947509E+03 0.65949442E+03 0.82993699E+03 0.12500000E+03 0.0000E+00 0.9000E+01
        1  1    1    2  501    0 0.27872505E+03 -.33867876E+03 0.11164542E+04 0.11995254E+04 0.32000000E+00 0.0000E+00 0.9000E+01
        4  1    1    2  502    0 -.13079283E+02 -.70796333E+02 -.32318614E+03 0.33111157E+03 0.15500000E+01 0.0000E+00 0.9000E+01
#aMCatNLO 1  0  0  2  5 0.35810987D+01 0.00000000D+00  -5  6  0 0.00000000D+00 0.00000000D+00 0.00000000D+00 0.00000000D+00 0.00000000D+00
  <mgrwgt>
 0.1071521437D-02   11    2    0
 0.930294361012458D+03 0.000000000000000D+00 0.000000000000000D+00 0.930294361012458D+03
 0.930294361012458D+03 0.000000000000000D+00 0.000000000000000D+00 -.930294361012458D+03
 0.538025365488627D+03 -.265636645807082D+03 0.409467689762351D+03 0.188731760321937D+03
 0.650108667483333D+03 0.278715725583376D+03 -.338667425415215D+03 0.479857477603629D+03
 0.672454689052956D+03 -.130790797762938D+02 -.708002643471362D+02 -.668589237925565D+03
 0.000000000000000D+00 -.000000000000000D+00 -.000000000000000D+00 -.000000000000000D+00
 0.930386753434337D+03 0.000000000000000D+00 0.000000000000000D+00 0.930386753434337D+03
 0.965656099368218D+03 0.000000000000000D+00 0.000000000000000D+00 -.965656099368218D+03
 0.538193944431658D+03 -.264882253938999D+03 0.410177322650686D+03 0.188731760321937D+03
 0.650053993275010D+03 0.279627093860659D+03 -.337810129717438D+03 0.479857477603629D+03
 0.672344230608129D+03 -.121364230521042D+02 -.699135365837596D+02 -.668589237925565D+03
 0.354506844877582D+02 -.260841686955597D+01 -.245365634948765D+01 -.352693459338816D+02
0.369663888109D-04 0.000000000000D+00 0.000000000000D+00 0.755070703493D-05 0.000000000000D+00  6 1 4 25 1 4 21 0 0.29333357D+00 0.69831648D-01 0.25727433D+06 0.25727433D+06 0.25727433D+06 0.10895232D+01  1  2  2  2  6  2        4 0.130707613384D-04 0.100000000000D+01
0.116786696203D-04 0.000000000000D+00 -.141960666508D-06 0.755070703493D-05 0.000000000000D+00  6 1 4 25 1 4 21 2 0.29333357D+00 0.69831648D-01 0.25727433D+06 0.25727433D+06 0.25727433D+06 0.10895232D+01  1  2  3  2  6  2        4 0.490185245208D-05 0.100000000000D+01
-.230833566612D-04 0.000000000000D+00 0.000000000000D+00 0.755070703493D-05 0.000000000000D+00  6 1 4 25 1 4 21 2 0.29333357D+00 0.69831648D-01 0.25727433D+06 0.25727433D+06 0.25727433D+06 0.10895232D+01  1  2 15  2  6  2        4 -.968870703007D-05 0.100000000000D+01
0.345449117336D-03 0.000000000000D+00 0.000000000000D+00 0.755070703493D-05 0.000000000000D+00  6 1 4 25 1 4 21 2 0.29333357D+00 0.74148050D-01 0.25861564D+06 0.25861564D+06 0.25861564D+06 0.10893538D+01  1  2 12  2  6  2        4 0.124762076389D-03 0.100000000000D+01
-.158378111690D-01 0.000000000000D+00 0.000000000000D+00 0.755070703493D-05 0.000000000000D+00  6 1 4 25 1 4 21 2 0.29333357D+00 0.69831648D-01 0.25727433D+06 0.25727433D+06 0.25727433D+06 0.10895232D+01  1  2  4  2  6  2        4 -.664755627466D-02 0.100000000000D+01
-.444932922839D-01 0.000000000000D+00 -.239294077581D-03 0.755070703493D-05 0.000000000000D+00  6 1 4 25 1 4 21 2 0.29333357D+00 0.72489351D-01 0.25727433D+06 0.25727433D+06 0.25727433D+06 0.10895232D+01  1  2  5  2  6  2        4 -.170178652377D-01 0.100000000000D+01
0.444713705163D-01 0.000000000000D+00 0.239127243214D-03 0.755070703493D-05 0.000000000000D+00  6 1 4 25 1 4 21 2 0.29333357D+00 0.69831648D-01 0.25727433D+06 0.25727433D+06 0.25727433D+06 0.10895232D+01  1  2  6  2  6  2        4 0.186658329844D-01 0.100000000000D+01
0.156666385897D-01 0.000000000000D+00 0.000000000000D+00 0.755070703493D-05 0.998238709750D-05  6 1 4 25 1 4 21 2 0.29336271D+00 0.72486042D-01 0.25861564D+06 0.25861564D+06 0.25861564D+06 0.10893538D+01  1  2 11  2  6  2        4 0.598785850869D-02 0.100000000000D+01
0.141300174949D-04 0.000000000000D+00 0.000000000000D+00 0.755070703493D-05 0.000000000000D+00  6 1 21 25 1 4 -4 2 0.29333357D+00 0.74148050D-01 0.25861564D+06 0.25861564D+06 0.25861564D+06 0.10893538D+01  1  2 12  6  6  2        4 0.108589718714D-03 0.100000000000D+01
-.306018429257D-03 0.000000000000D+00 -.158587619758D-05 0.755070703493D-05 0.000000000000D+00  6 1 21 25 1 4 -4 2 0.29333357D+00 0.72489351D-01 0.25727433D+06 0.25727433D+06 0.25727433D+06 0.10895232D+01  1  2  5  6  6  2        4 -.248321052166D-02 0.100000000000D+01
0.286782258548D-03 0.000000000000D+00 0.000000000000D+00 0.755070703493D-05 0.251821280808D-07  6 1 21 25 1 4 -4 2 0.29336271D+00 0.72486042D-01 0.25861564D+06 0.25861564D+06 0.25861564D+06 0.10893538D+01  1  2 11  6  6  2        4 0.232482627574D-02 0.100000000000D+01
  </mgrwgt>
  </event>
  <event>
  5     66 -.19643240E-05 0.83522920E+02 0.75467711E-02 0.92488309E-01
        1 -1    0    0  501    0 0.00000000E+00 0.00000000E+00 0.92792392E+03 0.92792398E+03 0.32000000E+00 0.0000E+00 0.9000E+01
        4 -1    0    0  502    0 0.00000000E+00 0.00000000E+00 -.82745211E+03 0.82745356E+03 0.15500000E+01 0.0000E+00 0.9000E+01
       25  1    1    2    0    0 0.43061165E+02 0.52851848E+03 0.34515808E+03 0.64493810E+03 0.12500000E+03 0.0000E+00 0.9000E+01
        1  1    1    2  501    0 -.62521580E+02 0.55456058E+02 0.30012797E+03 0.31154650E+03 0.32000000E+00 0.0000E+00 0.9000E+01
        4  1    1    2  502    0 0.19460414E+02 -.58397454E+03 -.54481425E+03 0.79889294E+03 0.15500000E+01 0.0000E+00 0.9000E+01
#aMCatNLO 1  0  0  5  2 0.69704976D+01 0.00000000D+00  -5  6  0 0.00000000D+00 0.00000000D+00 0.00000000D+00 0.00000000D+00 0.00000000D+00
  <mgrwgt>
 -.1819367910D-03    8    2    0
 0.876249925683203D+03 0.000000000000000D+00 0.000000000000000D+00 0.876249925683203D+03
 0.876249925683203D+03 -.000000000000000D+00 -.000000000000000D+00 -.876249925683203D+03
 0.626361800924492D+03 0.430307953803957D+02 0.528632313289346D+03 0.308869444349320D+03
 0.294677327257005D+03 -.624846687938594D+02 0.554233188316839D+02 0.282592726542519D+03
 0.831460723184908D+03 0.194538734134637D+02 -.584055632121030D+03 -.591462170891839D+03
 0.000000000000000D+00 0.000000000000000D+00 0.000000000000000D+00 -.000000000000000D+00
 0.876249925683203D+03 0.000000000000000D+00 0.000000000000000D+00 0.876249925683203D+03
 0.876249925683203D+03 -.000000000000000D+00 -.000000000000000D+00 -.876249925683203D+03
 0.626283683965964D+03 0.430327356147970D+02 0.528574062430729D+03 0.308810454798669D+03
 0.294645365953671D+03 -.624837559863838D+02 0.553959139886568D+02 0.282564974172611D+03
 0.708609596020411D+03 0.126760372477157D+02 -.501908608773977D+03 -.500054623106793D+03
 0.122961205426359D+03 0.677498312387096D+01 -.820613676454096D+02 -.913208058644875D+02
0.394799372675D-05 0.000000000000D+00 0.000000000000D+00 0.631345019016D-06 0.000000000000D+00  6 1 4 25 1 4 21 0 0.14275764D+00 0.12730044D+00 0.36772955D+06 0.36772955D+06 0.36772955D+06 0.10780711D+01  1  2  2  4  6  5        4 0.127508608586D-05 0.100000000000D+01
0.693175894483D-06 0.000000000000D+00 -.151613354414D-07 0.631345019016D-06 0.000000000000D+00  6 1 4 25 1 4 21 2 0.14275764D+00 0.12730044D+00 0.36772955D+06 0.36772955D+06 0.36772955D+06 0.10780711D+01  1  2  3  4  6  5        4 0.260196409441D-06 0.100000000000D+01
-.252660912009D-05 0.000000000000D+00 0.000000000000D+00 0.631345019016D-06 0.000000000000D+00  6 1 4 25 1 4 21 2 0.14275764D+00 0.12730044D+00 0.36772955D+06 0.36772955D+06 0.36772955D+06 0.10780711D+01  1  2 15  4  6  5        4 -.948409525404D-06 0.100000000000D+01
0.283812933392D-02 0.000000000000D+00 0.000000000000D+00 0.631345019016D-06 0.000000000000D+00  6 1 4 25 1 4 21 2 0.14275764D+00 0.12730044D+00 0.36770193D+06 0.36770193D+06 0.36770193D+06 0.10780735D+01  1  2 12  4  6  5        4 0.106535187894D-02 0.100000000000D+01
-.395060163357D-02 0.000000000000D+00 0.000000000000D+00 0.631345019016D-06 0.000000000000D+00  6 1 4 25 1 4 21 2 0.14275764D+00 0.12730044D+00 0.36772955D+06 0.36772955D+06 0.36772955D+06 0.10780711D+01  1  2  4  4  6  5        4 -.148293148733D-02 0.100000000000D+01
-.298108614574D-02 0.000000000000D+00 0.000000000000D+00 0.631345019016D-06 0.000000000000D+00  6 1 4 25 1 4 21 2 0.14275764D+00 0.12730044D+00 0.36772955D+06 0.36772955D+06 0.36772955D+06 0.10780711D+01  1  2  5  4  6  5        4 -.111900589379D-02 0.100000000000D+01
0.345413179390D-02 0.000000000000D+00 -.000000000000D+00 0.631345019016D-06 0.000000000000D+00  6 1 4 25 1 4 21 2 0.14275764D+00 0.12730044D+00 0.36772955D+06 0.36772955D+06 0.36772955D+06 0.10780711D+01  1  2  6  4  6  5        4 0.129657233851D-02 0.100000000000D+01
0.153153750016D-03 0.000000000000D+00 0.000000000000D+00 0.631345019016D-06 0.663667116605D-07  6 1 4 25 1 4 21 2 0.14275764D+00 0.12730044D+00 0.36770193D+06 0.36770193D+06 0.36770193D+06 0.10780735D+01  1  2 11  4  6  5        4 0.574894996488D-04 0.100000000000D+01
  </mgrwgt>
  </event>
  <event>
  5     66 -.19643240E-05 0.12766243E+03 0.75467711E-02 0.91313850E-01
        3 -1    0    0  501    0 0.00000000E+00 0.00000000E+00 0.48431145E+03 0.48431171E+03 0.50000000E+00 0.0000E+00 0.9000E+01
        2 -1    0    0  502    0 -.00000000E+00 -.00000000E+00 -.22619189E+04 0.22619189E+04 0.32000000E+00 0.0000E+00 0.9000E+01
       25  1    1    2    0    0 0.44785380E+03 0.38456239E+03 -.59029831E+03 0.84411987E+03 0.12500000E+03 0.0000E+00 0.9000E+01
        3  1    1    2  501    0 -.63837203E+02 0.11059719E+03 0.27937504E+03 0.30717681E+03 0.50000000E+00 0.0000E+00 0.9000E+01
        2  1    1    2  502    0 -.38401659E+03 -.49515958E+03 -.14666842E+04 0.15949340E+04 0.32000000E+00 0.0000E+00 0.9000E+01
#aMCatNLO 1  0  0  5  2 0.38602836D+02 0.00000000D+00  -5  6  0 0.00000000D+00 0.00000000D+00 0.00000000D+00 0.00000000D+00 0.00000000D+00
  <mgrwgt>
 -.9244043525D-03    7    2    0
 0.104664875183520D+04 0.000000000000000D+00 0.000000000000000D+00 0.104664875183520D+04
 0.104664875183520D+04 -.000000000000000D+00 -.000000000000000D+00 -.104664875183520D+04
 0.606267096828084D+03 0.447933869951853D+03 0.384687455735004D+03 -.574943670844342D+02
 0.640051258068878D+03 -.638191312723287D+02 0.110565880914177D+03 0.627190495317707D+03
 0.846979148773432D+03 -.384114738679524D+03 -.495253336649181D+03 -.569696128233273D+03
 0.000000000000000D+00 0.000000000000000D+00 0.000000000000000D+00 -.000000000000000D+00
 0.104664875183520D+04 0.000000000000000D+00 0.000000000000000D+00 0.104664875183520D+04
 0.104664875183520D+04 -.000000000000000D+00 -.000000000000000D+00 -.104664875183520D+04
 0.605077863653783D+03 0.447093013036645D+03 0.383603307820418D+03 -.587414760358864D+02
 0.638653526637730D+03 -.647067461102208D+02 0.109421446280826D+03 0.625874037797103D+03
 0.707476956604502D+03 -.341748191412576D+03 -.428756424065100D+03 -.447101494758753D+03
 0.142089156774378D+03 -.406380755138482D+02 -.642683300361438D+02 -.120031067002463D+03
0.320989548920D-04 0.000000000000D+00 0.000000000000D+00 0.703905109270D-06 0.000000000000D+00  6 3 2 25 3 2 21 0 0.74509476D-01 0.34798754D+00 0.46100754D+06 0.46100754D+06 0.46100754D+06 0.10710115D+01  1  2  2  4  6  5        2 0.225871855880D-04 0.100000000000D+01
0.639342097371D-05 0.000000000000D+00 -.123268438634D-06 0.703905109270D-06 0.000000000000D+00  6 3 2 25 3 2 21 2 0.74509476D-01 0.34798754D+00 0.46100754D+06 0.46100754D+06 0.46100754D+06 0.10710115D+01  1  2  3  4  6  5        2 0.516051187320D-05 0.100000000000D+01
-.215776036335D-04 0.000000000000D+00 0.000000000000D+00 0.703905109270D-06 0.000000000000D+00  6 3 2 25 3 2 21 2 0.74509476D-01 0.34798754D+00 0.46100754D+06 0.46100754D+06 0.46100754D+06 0.10710115D+01  1  2 15  4  6  5        2 -.174165724740D-04 0.100000000000D+01
0.832799489626D-03 0.000000000000D+00 0.000000000000D+00 0.703905109270D-06 0.000000000000D+00  6 3 2 25 3 2 21 2 0.74509476D-01 0.34798754D+00 0.45810714D+06 0.45810714D+06 0.45810714D+06 0.10712066D+01  1  2 12  4  6  5        2 0.672694476853D-03 0.100000000000D+01
-.214783988962D-02 0.000000000000D+00 0.000000000000D+00 0.703905109270D-06 0.000000000000D+00  6 3 2 25 3 2 21 2 0.74509476D-01 0.34798754D+00 0.46100754D+06 0.46100754D+06 0.46100754D+06 0.10710115D+01  1  2  4  4  6  5        2 -.173364984062D-02 0.100000000000D+01
-.861108915671D-03 0.000000000000D+00 0.000000000000D+00 0.703905109270D-06 0.000000000000D+00  6 3 2 25 3 2 21 2 0.74509476D-01 0.34798754D+00 0.46100754D+06 0.46100754D+06 0.46100754D+06 0.10710115D+01  1  2  5  4  6  5        2 -.695052429945D-03 0.100000000000D+01
0.101748426910D-02 0.000000000000D+00 -.000000000000D+00 0.703905109270D-06 0.000000000000D+00  6 3 2 25 3 2 21 2 0.74509476D-01 0.34798754D+00 0.46100754D+06 0.46100754D+06 0.46100754D+06 0.10710115D+01  1  2  6  4  6  5        2 0.821272316197D-03 0.100000000000D+01
  </mgrwgt>
  </event>
  <event>
  5     66 0.19643240E-05 0.43254460E+02 0.75467711E-02 0.92689269E-01
        3 -1    0    0  501    0 0.00000000E+00 0.00000000E+00 0.64952218E+03 0.64952237E+03 0.50000000E+00 0.0000E+00 0.9000E+01
        2 -1    0    0  502    0 0.00000000E+00 0.00000000E+00 -.36369724E+04 0.36369724E+04 0.32000000E+00 0.0000E+00 0.9000E+01
       25  1    1    2    0    0 0.48508229E+03 -.33333295E+03 -.35911357E+02 0.60276887E+03 0.12500000E+03 0.0000E+00 0.9000E+01
        3  1    1    2  501    0 -.35785214E+02 0.24319022E+02 0.34231504E+03 0.34503888E+03 0.50000000E+00 0.0000E+00 0.9000E+01
        2  1    1    2  502    0 -.44929708E+03 0.30901393E+03 -.32938539E+04 0.33386870E+04 0.32000000E+00 0.0000E+00 0.9000E+01
#aMCatNLO 1  0  0  1  5 0.15653774D+00 0.00000000D+00  -5  6  0 0.00000000D+00 0.00000000D+00 0.00000000D+00 0.00000000D+00 0.00000000D+00
  <mgrwgt>
 0.1499340817D-02    9    2    0
 0.153697581379014D+04 0.000000000000000D+00 0.000000000000000D+00 0.153697581379014D+04
 0.153697581379014D+04 0.000000000000000D+00 0.000000000000000D+00 -.153697581379014D+04
 0.805836579028239D+03 0.485144740931277D+03 -.333375977594304D+03 0.535950212248956D+03
 0.813596281375506D+03 -.357751955536205D+02 0.243122133115002D+02 0.812445666327939D+03
 0.145451876717653D+04 -.449369545377656D+03 0.309063764282803D+03 -.134839587857690D+04
 0.000000000000000D+00 -.000000000000000D+00 0.000000000000000D+00 0.000000000000000D+00
 0.153787355945046D+04 0.000000000000000D+00 0.000000000000000D+00 0.153787355945046D+04
 0.153698263957540D+04 0.000000000000000D+00 0.000000000000000D+00 -.153698263957540D+04
 0.805862622353904D+03 0.485162614305129D+03 -.333412917833160D+03 0.535950212248956D+03
 0.813594374478366D+03 -.357571503830970D+02 0.242749180076122D+02 0.812445666327939D+03
 0.145449463473376D+04 -.449337285087380D+03 0.308997089527483D+03 -.134839587857690D+04
 0.904567459823964D+00 -.681788346523578D-01 0.140910298063995D+00 0.890919875060233D+00
0.768616563273D-03 0.000000000000D+00 0.000000000000D+00 0.101557734980D-03 0.000000000000D+00  6 3 2 25 3 2 21 0 0.99926505D-01 0.55953422D+00 0.35427476D+06 0.35427476D+06 0.35427476D+06 0.10792489D+01  1  2  2  1  6  1        3 0.372631630077D-04 0.100000000000D+01
0.350471501919D-03 0.000000000000D+00 -.295168998436D-05 0.101557734980D-03 0.000000000000D+00  6 3 2 25 3 2 21 2 0.99926505D-01 0.55953422D+00 0.35427476D+06 0.35427476D+06 0.35427476D+06 0.10792489D+01  1  2  3  1  6  1        3 0.197909165453D-04 0.100000000000D+01
-.504530706705D-03 0.000000000000D+00 0.000000000000D+00 0.101557734980D-03 0.000000000000D+00  6 3 2 25 3 2 21 2 0.99926505D-01 0.55953422D+00 0.35427476D+06 0.35427476D+06 0.35427476D+06 0.10792489D+01  1  2 15  1  6  1        3 -.284905478940D-04 0.100000000000D+01
-.441648952008D+00 0.000000000000D+00 0.000000000000D+00 0.101557734980D-03 0.000000000000D+00  6 3 2 25 3 2 21 2 0.99926505D-01 0.55953422D+00 0.35427476D+06 0.35427476D+06 0.35427476D+06 0.10792489D+01  1  2  4  1  6  1        3 -.249396527353D-01 0.100000000000D+01
-.224383331334D+02 0.000000000000D+00 -.285706376783D+00 0.101557734980D-03 0.000000000000D+00  6 3 2 25 3 2 21 2 0.99985076D-01 0.55953422D+00 0.35427476D+06 0.35427476D+06 0.35427476D+06 0.10792489D+01  1  2  5  1  6  1        3 -.126528131573D+01 0.100000000000D+01
0.224384967438D+02 0.000000000000D+00 0.285706327734D+00 0.101557734980D-03 0.000000000000D+00  6 3 2 25 3 2 21 2 0.99926505D-01 0.55953422D+00 0.35427476D+06 0.35427476D+06 0.35427476D+06 0.10792489D+01  1  2  6  1  6  1        3 0.126708851940D+01 0.100000000000D+01
0.441296995565D+00 0.000000000000D+00 0.000000000000D+00 0.101557734980D-03 0.424683843381D-02  6 3 2 25 3 2 21 2 0.99984872D-01 0.55953671D+00 0.35432903D+06 0.35432903D+06 0.35432903D+06 0.10792440D+01  1  2 11  1  6  1        3 0.248832721648D-01 0.100000000000D+01
-.246305736935D-02 0.000000000000D+00 -.313624766675D-04 0.101557734980D-03 0.000000000000D+00  6 21 2 25 3 2 -3 2 0.99985076D-01 0.55953422D+00 0.35427476D+06 0.35427476D+06 0.35427476D+06 0.10792489D+01  1  2  5  5  6  1        3 -.181043257618D-02 0.100000000000D+01
0.208216771011D-02 0.000000000000D+00 0.000000000000D+00 0.101557734980D-03 0.281478291057D-05  6 21 2 25 3 2 -3 2 0.99984872D-01 0.55953671D+00 0.35432903D+06 0.35432903D+06 0.35432903D+06 0.10792440D+01  1  2 11  5  6  1        3 0.153038676670D-02 0.100000000000D+01
  </mgrwgt>
  </event>
  <event>
  6     66 0.19643240E-05 0.94289407E+02 0.75467711E-02 0.89961416E-01
        3 -1    0    0  503    0 0.00000000E+00 0.00000000E+00 0.15826509E+04 0.15826510E+04 0.50000000E+00 0.0000E+00 0.9000E+01
        2 -1    0    0  502    0 0.00000000E+00 0.00000000E+00 -.40375164E+04 0.40375164E+04 0.32000000E+00 0.0000E+00 0.9000E+01
       25  1    1    2    0    0 -.69254295E+03 -.99539305E+02 0.33382075E+03 0.78522933E+03 0.12500000E+03 0.0000E+00 0.9000E+01
        3  1    1    2  501    0 0.67310472E+03 0.28845159E+02 0.68030119E+03 0.95745076E+03 0.50000000E+00 0.0000E+00 0.9000E+01
        2  1    1    2  502    0 -.71393676E+01 -.41594320E+02 -.36568077E+04 0.36570512E+04 0.32000000E+00 0.0000E+00 0.9000E+01
       21  1    1    2  503  501 0.26577602E+02 0.11228847E+03 0.18782025E+03 0.22043610E+03 0.75000000E+00 0.0000E+00 0.9000E+01
#aMCatNLO 2  0  0  1  1 0.15636753D+03 0.00000000D+00  -5  6  0 0.00000000D+00 0.00000000D+00 0.00000000D+00 0.00000000D+00 0.00000000D+00
  <mgrwgt>
 0.5513373921D-03    1    2    0
 0.235372020935658D+04 0.000000000000000D+00 0.000000000000000D+00 0.235372020935658D+04
 0.235372020935658D+04 0.000000000000000D+00 0.000000000000000D+00 -.235372020935658D+04
 0.108194155794316D+04 -.686337569855399D+03 -.736601674084116D+02 0.823703499292562D+03
 0.148447649361532D+04 0.681389548984844D+03 0.641873634104362D+02 0.131729219424130D+04
 0.214102236715469D+04 0.494802087055473D+01 0.947280399797539D+01 -.214099569353387D+04
 0.000000000000000D+00 0.000000000000000D+00 0.000000000000000D+00 0.000000000000000D+00
 0.270306442861605D+04 0.000000000000000D+00 0.000000000000000D+00 0.270306442861605D+04
 0.236397517237627D+04 0.000000000000000D+00 0.000000000000000D+00 -.236397517237627D+04
 0.108789857625343D+04 -.692461969008912D+03 -.995353150581234D+02 0.823703499292562D+03
 0.147954428377926D+04 0.673023565678524D+03 0.288416833102312D+02 0.131729219424130D+04
 0.214141160409230D+04 -.713919909332219D+01 -.415948343776907D+02 -.214099569353387D+04
 0.358185136867335D+03 0.265776024237103D+02 0.112288466125583D+03 0.339089256239773D+03
0.387571610022D+00 0.000000000000D+00 0.000000000000D+00 0.220387272604D-03 0.577312321257D-07  6 3 2 25 3 2 21 2 0.24348472D+00 0.62115628D+00 0.59435929D+06 0.59435929D+06 0.59435929D+06 0.10632443D+01  1  2  1  1  6  1        3 0.551337392148D-03 0.100000000000D+01
  </mgrwgt>
  </event>
  <event>
  5     66 0.19643240E-05 0.26648815E+03 0.75467711E-02 0.90422091E-01
        1 -1    0    0  501    0 0.00000000E+00 0.00000000E+00 0.45289118E+04 0.45289118E+04 0.32000000E+00 0.0000E+00 0.9000E+01
        4 -1    0    0  502    0 0.00000000E+00 0.00000000E+00 -.14771929E+04 0.14771937E+04 0.15500000E+01 0.0000E+00 0.9000E+01
       25  1    1    2    0    0 -.47933545E+02 -.57928072E+03 0.25168776E+04 0.25861481E+04 0.12500000E+03 0.0000E+00 0.9000E+01
        1  1    1    2  501    0 0.25296171E+03 0.40907089E+03 0.19354031E+04 0.19942703E+04 0.32000000E+00 0.0000E+00 0.9000E+01
        4  1    1    2  502    0 -.20502817E+03 0.17020983E+03 -.14005618E+04 0.14256871E+04 0.15500000E+01 0.0000E+00 0.9000E+01
#aMCatNLO 1  0  0  1  5 0.98576671D+02 0.00000000D+00  -5  6  0 0.00000000D+00 0.00000000D+00 0.00000000D+00 0.00000000D+00 0.00000000D+00
  <mgrwgt>
 0.1384751057D-04    7    2    0
 0.258651862399712D+04 0.000000000000000D+00 0.000000000000000D+00 0.258651862399712D+04
 0.258651862399712D+04 0.000000000000000D+00 0.000000000000000D+00 -.258651862399712D+04
 0.151798045325827D+04 -.478883646268894D+02 -.579235784287758D+03 0.139672197205031D+04
 0.117352255376847D+04 0.252927748389903D+03 0.409015966625776D+03 0.107046189906173D+04
 0.248153424096751D+04 -.205039383763013D+03 0.170219817661982D+03 -.246718387111204D+04
 0.000000000000000D+00 0.000000000000000D+00 -.000000000000000D+00 0.000000000000000D+00
 0.287813545570337D+04 0.000000000000000D+00 0.000000000000000D+00 0.287813545570337D+04
 0.259533222217176D+04 0.000000000000000D+00 0.000000000000000D+00 -.259533222217176D+04
 0.150979606972941D+04 -.646266815287903D+02 -.555743013448521D+03 0.139672197205031D+04
 0.117728660540753D+04 0.239931878852163D+03 0.427256091167335D+03 0.107046189906173D+04
 0.248689371919996D+04 -.232506114240032D+03 0.208770265032615D+03 -.246718387111204D+04
 0.299491283538244D+03 0.572009169166596D+02 -.802833427514285D+02 0.282803233531611D+03
0.236903154746D-01 0.000000000000D+00 0.000000000000D+00 0.554976303895D-05 0.000000000000D+00  6 1 4 25 1 4 21 0 0.69675572D+00 0.22726050D+00 0.45016834D+06 0.45016834D+06 0.45016834D+06 0.10717478D+01  1  2  2  1  6  1        1 0.149752953305D-05 0.100000000000D+01
0.197266782579D-02 0.000000000000D+00 -.909770492259D-04 0.554976303895D-05 0.000000000000D+00  6 1 4 25 1 4 21 2 0.69675572D+00 0.22726050D+00 0.45016834D+06 0.45016834D+06 0.45016834D+06 0.10717478D+01  1  2  3  1  6  1        1 0.143233207598D-06 0.100000000000D+01
-.155504562923D-01 0.000000000000D+00 0.000000000000D+00 0.554976303895D-05 0.000000000000D+00  6 1 4 25 1 4 21 2 0.69675572D+00 0.22726050D+00 0.45016834D+06 0.45016834D+06 0.45016834D+06 0.10717478D+01  1  2 15  1  6  1        1 -.112910126339D-05 0.100000000000D+01
-.901419457742D-01 0.000000000000D+00 0.000000000000D+00 0.554976303895D-05 0.000000000000D+00  6 1 4 25 1 4 21 2 0.69675572D+00 0.22726050D+00 0.45016834D+06 0.45016834D+06 0.45016834D+06 0.10717478D+01  1  2  4  1  6  1        1 -.654510600495D-05 0.100000000000D+01
-.297488240098D+00 0.000000000000D+00 -.171960249921D-01 0.554976303895D-05 0.000000000000D+00  6 1 4 25 1 4 21 2 0.77559375D+00 0.22726050D+00 0.45016834D+06 0.45016834D+06 0.45016834D+06 0.10717478D+01  1  2  5  1  6  1        1 -.479771273538D-05 0.100000000000D+01
0.339924365300D+00 0.000000000000D+00 0.199637041684D-01 0.554976303895D-05 0.000000000000D+00  6 1 4 25 1 4 21 2 0.69675572D+00 0.22726050D+00 0.45016834D+06 0.45016834D+06 0.45016834D+06 0.10717478D+01  1  2  6  1  6  1        1 0.246815285097D-04 0.100000000000D+01
-.506469158703D-02 0.000000000000D+00 -.296491083277D-03 0.554976303895D-05 0.000000000000D+00  6 21 4 25 1 4 -1 2 0.77559375D+00 0.22726050D+00 0.45016834D+06 0.45016834D+06 0.45016834D+06 0.10717478D+01  1  2  5  5  6  1        1 -.286067338117D-08 0.100000000000D+01
  </mgrwgt>
  </event>
  <event>
  5     66 0.19643240E-05 0.53721330E+02 0.75467711E-02 0.94156680E-01
        3 -1    0    0  501    0 0.00000000E+00 0.00000000E+00 0.43804936E+03 0.43804965E+03 0.50000000E+00 0.0000E+00 0.9000E+01
        2 -1    0    0  502    0 -.00000000E+00 -.00000000E+00 -.31661371E+04 0.31661371E+04 0.32000000E+00 0.0000E+00 0.9000E+01
       25  1    1    2    0    0 -.38976227E+03 0.26848579E+03 -.16119121E+03 0.51537060E+03 0.12500000E+03 0.0000E+00 0.9000E+01
        3  1    1    2  501    0 0.43335475E+03 -.23710843E+03 0.26663672E+02 0.49469986E+03 0.50000000E+00 0.0000E+00 0.9000E+01
        2  1    1    2  502    0 -.43592483E+02 -.31377356E+02 -.25935602E+04 0.25941163E+04 0.32000000E+00 0.0000E+00 0.9000E+01
#aMCatNLO 1  0  0  4  1 0.42530009D+02 0.00000000D+00  -5  6  0 0.00000000D+00 0.00000000D+00 0.00000000D+00 0.00000000D+00 0.00000000D+00
  <mgrwgt>
 0.4127802333D-02    7    2    0
 0.117767775274951D+04 0.000000000000000D+00 0.000000000000000D+00 0.117767775274951D+04
 0.117767775274951D+04 -.000000000000000D+00 -.000000000000000D+00 -.117767775274951D+04
 0.601976359848534D+03 -.389669642159226D+03 0.268446147996540D+03 0.350492187390550D+03
 0.787724220364520D+03 0.433270550342556D+03 -.237062360983500D+03 0.613667266977536D+03
 0.965654925285972D+03 -.436009081833309D+02 -.313837870130398D+02 -.964159454368086D+03
 0.000000000000000D+00 0.000000000000000D+00 0.000000000000000D+00 0.000000000000000D+00
 0.117767775274951D+04 0.000000000000000D+00 0.000000000000000D+00 0.117767775274951D+04
 0.117767775274951D+04 -.000000000000000D+00 -.000000000000000D+00 -.117767775274951D+04
 0.601885530006418D+03 -.388220607012326D+03 0.267653313835989D+03 0.352544543447636D+03
 0.685805685590058D+03 0.347534752910809D+03 -.235846858976566D+03 0.542148773878315D+03
 0.962313116557415D+03 -.412802985866042D+02 -.326534998737132D+02 -.960872634740444D+03
 0.105351173345135D+03 0.819661526881203D+02 0.847045014289833D+00 0.661793174144936D+02
0.148029766884D-02 0.000000000000D+00 0.000000000000D+00 0.230449808217D-04 0.000000000000D+00  6 3 2 25 3 2 21 0 0.67392233D-01 0.48709804D+00 0.26885504D+06 0.26885504D+06 0.26885504D+06 0.10880914D+01  1  2  2  3  6  4        3 0.382896937509D-03 0.100000000000D+01
0.671200525130D-03 0.000000000000D+00 -.568473281968D-05 0.230449808217D-04 0.000000000000D+00  6 3 2 25 3 2 21 2 0.67392233D-01 0.48709804D+00 0.26885504D+06 0.26885504D+06 0.26885504D+06 0.10880914D+01  1  2  3  3  6  4        3 0.205549248844D-03 0.100000000000D+01
-.940767747575D-03 0.000000000000D+00 0.000000000000D+00 0.230449808217D-04 0.000000000000D+00  6 3 2 25 3 2 21 2 0.67392233D-01 0.48709804D+00 0.26885504D+06 0.26885504D+06 0.26885504D+06 0.10880914D+01  1  2 15  3  6  4        3 -.288101836352D-03 0.100000000000D+01
0.235766569989D-01 0.000000000000D+00 0.000000000000D+00 0.230449808217D-04 0.000000000000D+00  6 3 2 25 3 2 21 2 0.67392233D-01 0.48709804D+00 0.27167012D+06 0.27167012D+06 0.27167012D+06 0.10877535D+01  1  2 12  3  6  4        3 0.720994630876D-02 0.100000000000D+01
-.148338856718D-01 0.000000000000D+00 0.000000000000D+00 0.230449808217D-04 0.000000000000D+00  6 3 2 25 3 2 21 2 0.67392233D-01 0.48709804D+00 0.26885504D+06 0.26885504D+06 0.26885504D+06 0.10880914D+01  1  2  4  3  6  4        3 -.454274682916D-02 0.100000000000D+01
-.265700568223D-01 0.000000000000D+00 0.000000000000D+00 0.230449808217D-04 0.000000000000D+00  6 3 2 25 3 2 21 2 0.67392233D-01 0.48709804D+00 0.26885504D+06 0.26885504D+06 0.26885504D+06 0.10880914D+01  1  2  5  3  6  4        3 -.813684587107D-02 0.100000000000D+01
0.303587649853D-01 0.000000000000D+00 -.000000000000D+00 0.230449808217D-04 0.000000000000D+00  6 3 2 25 3 2 21 2 0.67392233D-01 0.48709804D+00 0.26885504D+06 0.26885504D+06 0.26885504D+06 0.10880914D+01  1  2  6  3  6  4        3 0.929710437479D-02 0.100000000000D+01
  </mgrwgt>
  </event>
  <event>
  6     66 0.19643240E-05 0.81842907E+02 0.75467711E-02 0.94987040E-01
        3 -1    0    0  501    0 0.00000000E+00 0.00000000E+00 0.14865206E+04 0.14865206E+04 0.50000000E+00 0.0000E+00 0.9000E+01
        2 -1    0    0  502    0 0.00000000E+00 0.00000000E+00 -.72833360E+03 0.72833367E+03 0.32000000E+00 0.0000E+00 0.9000E+01
       25  1    1    2    0    0 0.14107998E+03 -.44110459E+03 -.28893222E+03 0.55998540E+03 0.12500000E+03 0.0000E+00 0.9000E+01
        3  1    1    2  503    0 -.14063363E+03 0.34407590E+03 0.80679382E+03 0.88830319E+03 0.50000000E+00 0.0000E+00 0.9000E+01
        2  1    1    2  502    0 -.22928717E+02 0.61314215E+01 -.25821696E+03 0.25930565E+03 0.32000000E+00 0.0000E+00 0.9000E+01
       21  1    1    2  501  503 0.22482362E+02 0.90897270E+02 0.49854232E+03 0.50726007E+03 0.75000000E+00 0.0000E+00 0.9000E+01
#aMCatNLO 2  0  0  4  1 0.92712480D+02 0.00000000D+00  -5  6  0 0.00000000D+00 0.00000000D+00 0.00000000D+00 0.00000000D+00 0.00000000D+00
  <mgrwgt>
 0.2078378536D-02    1    2    0
 0.104052056258077D+04 0.000000000000000D+00 0.000000000000000D+00 0.104052056258077D+04
 0.104052056258077D+04 -.000000000000000D+00 -.000000000000000D+00 -.104052056258077D+04
 0.707666943423103D+03 0.141909442175894D+03 -.444128193525258D+03 -.517474019397220D+03
 0.999961151120960D+03 -.119406323295766D+03 0.439593663984188D+03 0.890180793037628D+03
 0.373413030617484D+03 -.225031188801276D+02 0.453452954107041D+01 -.372706773640408D+03
 0.000000000000000D+00 0.000000000000000D+00 0.000000000000000D+00 0.000000000000000D+00
 0.104052056258077D+04 0.000000000000000D+00 0.000000000000000D+00 0.104052056258077D+04
 0.104052056258077D+04 -.000000000000000D+00 -.000000000000000D+00 -.104052056258077D+04
 0.701111859638087D+03 0.141085783566670D+03 -.441095899289016D+03 -.511333598574326D+03
 0.651233290961191D+03 -.140620330293654D+03 0.343980011415581D+03 0.534797600696547D+03
 0.370227670064583D+03 -.229378969048640D+02 0.613516223487096D+01 -.369465479241814D+03
 0.358468304497686D+03 0.224724436318476D+02 0.909807256385639D+02 0.346001477119592D+03
0.782585585035D-02 0.000000000000D+00 0.000000000000D+00 0.423071326450D-04 0.393934176772D-07  6 3 2 25 3 2 21 2 0.22869548D+00 0.11205133D+00 0.23462174D+06 0.23462174D+06 0.23462174D+06 0.10925394D+01  1  2  1  3  6  4        3 0.207837853575D-02 0.100000000000D+01
  </mgrwgt>
  </event>
  <event>
  5     66 0.19643240E-05 0.10631819E+03 0.75467711E-02 0.90030258E-01
        3 -1    0    0  501    0 0.00000000E+00 0.00000000E+00 0.65622470E+03 0.65622489E+03 0.50000000E+00 0.0000E+00 0.9000E+01
        2 -1    0    0  502    0 0.00000000E+00 0.00000000E+00 -.95043864E+03 0.95043869E+03 0.32000000E+00 0.0000E+00 0.9000E+01
       25  1    1    2    0    0 0.36098348E+03 0.31376603E+03 0.48167431E+02 0.49669235E+03 0.12500000E+03 0.0000E+00 0.9000E+01
        3  1    1    2  501    0 -.38729096E+03 -.41675341E+03 0.16436711E+03 0.59219463E+03 0.50000000E+00 0.0000E+00 0.9000E+01
        2  1    1    2  502    0 0.26307476E+02 0.10298738E+03 -.50674847E+03 0.51777660E+03 0.32000000E+00 0.0000E+00 0.9000E+01
#aMCatNLO 1  0  0  2  1 0.48448625D+02 0.00000000D+00  -5  6  0 0.00000000D+00 0.00000000D+00 0.00000000D+00 0.00000000D+00 0.00000000D+00
  <mgrwgt>
 0.2468537459D-03    4    2    0
 0.789747749607331D+03 0.000000000000000D+00 0.000000000000000D+00 0.789747749607331D+03
 0.789747749607331D+03 0.000000000000000D+00 0.000000000000000D+00 -.789747749607331D+03
 0.514167981177978D+03 0.360932921426112D+03 0.313692251414142D+03 0.141662664460955D+03
 0.632921087907714D+03 -.387244345266993D+03 -.416703254926886D+03 0.277469490053160D+03
 0.432406430128971D+03 0.263114238408809D+02 0.103011003512745D+03 -.419132154514114D+03
 0.000000000000000D+00 -.000000000000000D+00 0.000000000000000D+00 0.000000000000000D+00
 0.994757129730271D+03 0.000000000000000D+00 0.000000000000000D+00 0.994757129730271D+03
 0.935157968564551D+03 0.000000000000000D+00 0.000000000000000D+00 -.935157968564551D+03
 0.574408604293852D+03 0.463306521272509D+03 0.282132950098001D+03 0.141662664460955D+03
 0.596150173583108D+03 -.271658128196165D+03 -.452335686120127D+03 0.277469490053160D+03
 0.439829747542118D+03 0.108339605060439D+03 0.777237019876717D+02 -.419132154514114D+03
 0.319526572875743D+03 -.299987998136783D+03 0.924790340344543D+02 0.595991611657193D+02
0.346419833252D-03 0.000000000000D+00 0.000000000000D+00 0.290733512494D-06 0.000000000000D+00  6 3 2 25 3 2 21 0 0.10095767D+00 0.14622135D+00 0.34189985D+06 0.34189985D+06 0.34189985D+06 0.10803760D+01  1  2  2  2  6  2        2 0.673720760877D-03 0.100000000000D+01
0.609247615331D-04 0.000000000000D+00 -.133034337412D-05 0.290733512494D-06 0.000000000000D+00  6 3 2 25 3 2 21 2 0.10095767D+00 0.14622135D+00 0.34189985D+06 0.34189985D+06 0.34189985D+06 0.10803760D+01  1  2  3  2  6  2        2 0.138299593986D-03 0.100000000000D+01
-.214176120634D-03 0.000000000000D+00 0.000000000000D+00 0.290733512494D-06 0.000000000000D+00  6 3 2 25 3 2 21 2 0.10095767D+00 0.14622135D+00 0.34189985D+06 0.34189985D+06 0.34189985D+06 0.10803760D+01  1  2 15  2  6  2        2 -.486181148352D-03 0.100000000000D+01
-.347952601492D-04 0.000000000000D+00 0.000000000000D+00 0.290733512494D-06 0.000000000000D+00  6 3 2 25 3 2 21 2 0.10095767D+00 0.14622135D+00 0.34189985D+06 0.34189985D+06 0.34189985D+06 0.10803760D+01  1  2  4  2  6  2        2 -.789854605941D-04 0.100000000000D+01
  </mgrwgt>
  </event>
  <event>
  5     66 0.19643240E-05 0.28460249E+03 0.75467711E-02 0.92340028E-01
        3 -1    0    0  501    0 0.00000000E+00 0.00000000E+00 0.39859094E+03 0.39859125E+03 0.50000000E+00 0.0000E+00 0.9000E+01
        2 -1    0    0  502    0 -.00000000E+00 -.00000000E+00 -.22726262E+04 0.22726262E+04 0.32000000E+00 0.0000E+00 0.9000E+01
       25  1    1    2    0    0 -.42838348E+03 -.41446462E+03 -.68709473E+03 0.91815984E+03 0.12500000E+03 0.0000E+00 0.9000E+01
        3  1    1    2  501    0 0.26437403E+03 0.18197234E+03 0.17235828E+03 0.36430096E+03 0.50000000E+00 0.0000E+00 0.9000E+01
        2  1    1    2  502    0 0.16400945E+03 0.23249227E+03 -.13592988E+04 0.13887567E+04 0.32000000E+00 0.0000E+00 0.9000E+01
#aMCatNLO 1  0  0  5  2 0.10892401D+03 0.00000000D+00  -5  6  0 0.00000000D+00 0.00000000D+00 0.00000000D+00 0.00000000D+00 0.00000000D+00
  <mgrwgt>
 0.3443098367D-04    6    2    0
 0.951760814709930D+03 0.000000000000000D+00 0.000000000000000D+00 0.951760814709930D+03
 0.951760814709930D+03 -.000000000000000D+00 -.000000000000000D+00 -.951760814709930D+03
 0.612007549364019D+03 -.428386437950639D+03 -.414495263481662D+03 -.600581119398782D+02
 0.680787226227507D+03 0.264325282689875D+03 0.181938789406007D+03 0.600417912153641D+03
 0.610726853828334D+03 0.164061155260764D+03 0.232556474075655D+03 -.540359800213762D+03
 0.000000000000000D+00 0.000000000000000D+00 0.000000000000000D+00 0.000000000000000D+00
 0.951760814709930D+03 0.000000000000000D+00 0.000000000000000D+00 0.951760814709930D+03
 0.951760814709930D+03 -.000000000000000D+00 -.000000000000000D+00 -.951760814709930D+03
 0.606090002024573D+03 -.423803240618302D+03 -.407998587227572D+03 -.751535535811713D+02
 0.670100540998260D+03 0.269408114688000D+03 0.189143697148636D+03 0.583676849476972D+03
 0.457133339278509D+03 0.129440684759983D+03 0.683547069619913D+02 -.433063082061872D+03
 0.170197747118517D+03 0.249544411703182D+02 0.150500183116944D+03 -.754602138339285D+02
0.475535730328D-04 0.000000000000D+00 0.000000000000D+00 0.344259607715D-06 0.000000000000D+00  6 3 2 25 3 2 21 0 0.61321709D-01 0.34963482D+00 0.36877977D+06 0.36877977D+06 0.36877977D+06 0.10779811D+01  1  2  2  4  6  5        2 0.510296211762D-04 0.100000000000D+01
0.374600788948D-05 0.000000000000D+00 -.182618241589D-06 0.344259607715D-06 0.000000000000D+00  6 3 2 25 3 2 21 2 0.61321709D-01 0.34963482D+00 0.36877977D+06 0.36877977D+06 0.36877977D+06 0.10779811D+01  1  2  3  4  6  5        2 0.467121866560D-05 0.100000000000D+01
-.309753995893D-04 0.000000000000D+00 0.000000000000D+00 0.344259607715D-06 0.000000000000D+00  6 3 2 25 3 2 21 2 0.61321709D-01 0.34963482D+00 0.36877977D+06 0.36877977D+06 0.36877977D+06 0.10779811D+01  1  2 15  4  6  5        2 -.386258836086D-04 0.100000000000D+01
-.149423868372D-04 0.000000000000D+00 0.000000000000D+00 0.344259607715D-06 0.000000000000D+00  6 3 2 25 3 2 21 2 0.61321709D-01 0.34963482D+00 0.36877977D+06 0.36877977D+06 0.36877977D+06 0.10779811D+01  1  2  4  4  6  5        2 -.186329442868D-04 0.100000000000D+01
-.914680547609D-04 0.000000000000D+00 0.000000000000D+00 0.344259607715D-06 0.000000000000D+00  6 3 2 25 3 2 21 2 0.61321709D-01 0.34963482D+00 0.36877977D+06 0.36877977D+06 0.36877977D+06 0.10779811D+01  1  2  5  4  6  5        2 -.114059365947D-03 0.100000000000D+01
0.120328825717D-03 0.000000000000D+00 -.000000000000D+00 0.344259607715D-06 0.000000000000D+00  6 3 2 25 3 2 21 2 0.61321709D-01 0.34963482D+00 0.36877977D+06 0.36877977D+06 0.36877977D+06 0.10779811D+01  1  2  6  4  6  5        2 0.150048337666D-03 0.100000000000D+01
  </mgrwgt>
  </event>
  <event>
  5     66 -.19643240E-05 0.13903805E+02 0.75467711E-02 0.94382963E-01
        3 -1    0    0  501    0 0.00000000E+00 0.00000000E+00 0.33019446E+03 0.33019484E+03 0.50000000E+00 0.0000E+00 0.9000E+01
        2 -1    0    0  502    0 -.00000000E+00 -.00000000E+00 -.10756898E+04 0.10756899E+04 0.32000000E+00 0.0000E+00 0.9000E+01
       25  1    1    2    0    0 0.39987919E+03 0.28649658E+03 -.38868940E+03 0.63928718E+03 0.12500000E+03 0.0000E+00 0.9000E+01
        3  1    1    2  501    0 -.40527108E+03 -.29931105E+03 -.10529558E+03 0.51470298E+03 0.50000000E+00 0.0000E+00 0.9000E+01
        2  1    1    2  502    0 0.53918948E+01 0.12814466E+02 -.25151038E+03 0.25189454E+03 0.32000000E+00 0.0000E+00 0.9000E+01
#aMCatNLO 1  0  0  4  5 0.38438506D+02 0.00000000D+00  -5  6  0 0.00000000D+00 0.00000000D+00 0.00000000D+00 0.00000000D+00 0.00000000D+00
  <mgrwgt>
 -.6793792687D-02    6    2    0
 0.595975769553797D+03 0.000000000000000D+00 0.000000000000000D+00 0.595975769553797D+03
 0.595975769553797D+03 -.000000000000000D+00 -.000000000000000D+00 -.595975769553797D+03
 0.510912285894032D+03 0.399871565855144D+03 0.286489912242482D+03 -.585886070948596D+02
 0.541216303969309D+03 -.405263665546731D+03 -.299305568926955D+03 0.197718551176005D+03
 0.139822949244253D+03 0.539209969158645D+01 0.128156566844733D+02 -.139129944081146D+03
 0.000000000000000D+00 0.000000000000000D+00 0.000000000000000D+00 0.000000000000000D+00
 0.595975769553797D+03 0.000000000000000D+00 0.000000000000000D+00 0.595975769553797D+03
 0.595975769553797D+03 -.000000000000000D+00 -.000000000000000D+00 -.595975769553797D+03
 0.507244012699990D+03 0.396941924879176D+03 0.284326239716150D+03 -.571593045975514D+02
 0.442505546360445D+03 -.321881964198708D+03 -.271589784609349D+03 0.135801872517226D+03
 0.139350947063157D+03 0.458880525911849D+01 0.122223873697882D+02 -.138738035738854D+03
 0.102851032984002D+03 -.796487659395868D+02 -.249588424765895D+02 0.600954678191796D+02
0.469168195464D-04 0.000000000000D+00 0.000000000000D+00 0.787810398778D-06 0.000000000000D+00  6 3 2 25 3 2 21 0 0.50799180D-01 0.16549077D+00 0.26278625D+06 0.26278625D+06 0.26278625D+06 0.10888332D+01  1  2  2  3  6  4        3 0.350641315106D-03 0.100000000000D+01
0.277836788786D-04 0.000000000000D+00 -.180172940541D-06 0.787810398778D-06 0.000000000000D+00  6 3 2 25 3 2 21 2 0.50799180D-01 0.16549077D+00 0.26278625D+06 0.26278625D+06 0.26278625D+06 0.10888332D+01  1  2  3  3  6  4        3 0.246176707079D-03 0.100000000000D+01
-.311788699383D-04 0.000000000000D+00 0.000000000000D+00 0.787810398778D-06 0.000000000000D+00  6 3 2 25 3 2 21 2 0.50799180D-01 0.16549077D+00 0.26278625D+06 0.26278625D+06 0.26278625D+06 0.10888332D+01  1  2 15  3  6  4        3 -.276259726633D-03 0.100000000000D+01
-.923116254886D-03 0.000000000000D+00 0.000000000000D+00 0.787810398778D-06 0.000000000000D+00  6 3 2 25 3 2 21 2 0.50799180D-01 0.16549077D+00 0.26278625D+06 0.26278625D+06 0.26278625D+06 0.10888332D+01  1  2  4  3  6  4        3 -.817925231830D-02 0.100000000000D+01
-.578649457227D-03 0.000000000000D+00 0.000000000000D+00 0.787810398778D-06 0.000000000000D+00  6 3 2 25 3 2 21 2 0.50799180D-01 0.16549077D+00 0.26278625D+06 0.26278625D+06 0.26278625D+06 0.10888332D+01  1  2  5  3  6  4        3 -.512711144394D-02 0.100000000000D+01
0.698834982119D-03 0.000000000000D+00 -.000000000000D+00 0.787810398778D-06 0.000000000000D+00  6 3 2 25 3 2 21 2 0.50799180D-01 0.16549077D+00 0.26278625D+06 0.26278625D+06 0.26278625D+06 0.10888332D+01  1  2  6  3  6  4        3 0.619201277992D-02 0.100000000000D+01
  </mgrwgt>
  </event>
  <event>
  5     66 -.19643240E-05 0.57164378E+02 0.75467711E-02 0.89943206E-01
        1 -1    0    0  501    0 0.00000000E+00 0.00000000E+00 0.26465257E+04 0.26465257E+04 0.32000000E+00 0.0000E+00 0.9000E+01
        4 -1    0    0  502    0 0.00000000E+00 0.00000000E+00 -.70078292E+03 0.70078463E+03 0.15500000E+01 0.0000E+00 0.9000E+01
       25  1    1    2    0    0 -.27800451E+03 0.69332436E+03 0.40415423E+03 0.85845839E+03 0.12500000E+03 0.0000E+00 0.9000E+01
        1  1    1    2  501    0 -.42828702E+02 -.37867225E+02 0.17333643E+04 0.17343068E+04 0.32000000E+00 0.0000E+00 0.9000E+01
        4  1    1    2  502    0 0.32083321E+03 -.65545713E+03 -.19177576E+03 0.75454513E+03 0.15500000E+01 0.0000E+00 0.9000E+01
#aMCatNLO 1  0  0  4  1 0.44894032D+01 0.00000000D+00  -5  6  0 0.00000000D+00 0.00000000D+00 0.00000000D+00 0.00000000D+00 0.00000000D+00
  <mgrwgt>
 -.1305442226D-02    8    2    0
 0.136185274805512D+04 0.000000000000000D+00 0.000000000000000D+00 0.136185274805512D+04
 0.136185274805512D+04 -.000000000000000D+00 -.000000000000000D+00 -.136185274805512D+04
 0.766330570483625D+03 -.278027683815930D+03 0.693368320254268D+03 -.116526918596017D+03
 0.893052264300785D+03 -.428256985237436D+02 -.378645697565108D+02 0.891220837209200D+03
 0.106432266132582D+04 0.320853382339674D+03 -.655503750497757D+03 -.774693918613182D+03
 0.000000000000000D+00 0.000000000000000D+00 0.000000000000000D+00 0.000000000000000D+00
 0.136185274805512D+04 0.000000000000000D+00 0.000000000000000D+00 0.136185274805512D+04
 0.136185274805512D+04 -.000000000000000D+00 -.000000000000000D+00 -.136185274805512D+04
 0.766328351570989D+03 -.278028299941165D+03 0.693367775503855D+03 -.116514096770179D+03
 0.398532823755952D+03 -.200783745167105D+02 -.212739237591496D+02 0.397457784746442D+03
 0.106430990770444D+04 0.320852526634452D+03 -.655504507074092D+03 -.774676111026848D+03
 0.494534413078848D+03 -.227458521765766D+02 -.165893446706133D+02 0.493732423050585D+03
0.251633628961D-04 0.000000000000D+00 0.000000000000D+00 0.804928639999D-05 0.000000000000D+00  6 1 4 25 1 4 21 0 0.40715793D+00 0.10781289D+00 0.59629296D+06 0.59629296D+06 0.59629296D+06 0.10631461D+01  1  2  2  3  6  4        1 0.833461394349D-06 0.100000000000D+01
0.129346595155D-04 0.000000000000D+00 -.966339391868D-07 0.804928639999D-05 0.000000000000D+00  6 1 4 25 1 4 21 2 0.40715793D+00 0.10781289D+00 0.59629296D+06 0.59629296D+06 0.59629296D+06 0.10631461D+01  1  2  3  3  6  4        1 0.484236749205D-06 0.100000000000D+01
-.167666489162D-04 0.000000000000D+00 0.000000000000D+00 0.804928639999D-05 0.000000000000D+00  6 1 4 25 1 4 21 2 0.40715793D+00 0.10781289D+00 0.59629296D+06 0.59629296D+06 0.59629296D+06 0.10631461D+01  1  2 15  3  6  4        1 -.627695499562D-06 0.100000000000D+01
0.858559596336D-02 0.000000000000D+00 0.000000000000D+00 0.804928639999D-05 0.000000000000D+00  6 1 4 25 1 4 21 2 0.40715793D+00 0.10781289D+00 0.59647920D+06 0.59647920D+06 0.59647920D+06 0.10631367D+01  1  2 12  3  6  4        1 0.321407632433D-03 0.100000000000D+01
-.110652107377D+00 0.000000000000D+00 0.000000000000D+00 0.804928639999D-05 0.000000000000D+00  6 1 4 25 1 4 21 2 0.40715793D+00 0.10781289D+00 0.59629296D+06 0.59629296D+06 0.59629296D+06 0.10631461D+01  1  2  4  3  6  4        1 -.414249920572D-02 0.100000000000D+01
-.404143528607D-01 0.000000000000D+00 0.000000000000D+00 0.804928639999D-05 0.000000000000D+00  6 1 4 25 1 4 21 2 0.40715793D+00 0.10781289D+00 0.59629296D+06 0.59629296D+06 0.59629296D+06 0.10631461D+01  1  2  5  3  6  4        1 -.151299806748D-02 0.100000000000D+01
0.674059923902D-01 0.000000000000D+00 -.000000000000D+00 0.804928639999D-05 0.000000000000D+00  6 1 4 25 1 4 21 2 0.40715793D+00 0.10781289D+00 0.59629296D+06 0.59629296D+06 0.59629296D+06 0.10631461D+01  1  2  6  3  6  4        1 0.252348804334D-02 0.100000000000D+01
0.401881126649D-01 0.000000000000D+00 0.000000000000D+00 0.804928639999D-05 0.822314158330D-06  6 1 4 25 1 4 21 2 0.40715793D+00 0.10781289D+00 0.59647920D+06 0.59647920D+06 0.59647920D+06 0.10631367D+01  1  2 11  3  6  4        1 0.150446936924D-02 0.100000000000D+01
  </mgrwgt>
  </event>
  <event>
  5     66 0.19643240E-05 0.37204356E+02 0.75467711E-02 0.94501762E-01
        3 -1    0    0  501    0 0.00000000E+00 0.00000000E+00 0.17685488E+04 0.17685489E+04 0.50000000E+00 0.0000E+00 0.9000E+01
        2 -1    0    0  502    0 0.00000000E+00 0.00000000E+00 -.11989012E+04 0.11989013E+04 0.32000000E+00 0.0000E+00 0.9000E+01
       25  1    1    2    0    0 -.29788017E+03 -.39328017E+03 0.33075452E+03 0.60698060E+03 0.12500000E+03 0.0000E+00 0.9000E+01
        3  1    1    2  501    0 0.36004271E+02 0.93927531E+01 0.12484973E+04 0.12490518E+04 0.50000000E+00 0.0000E+00 0.9000E+01
        2  1    1    2  502    0 0.26187590E+03 0.38388742E+03 -.10096043E+04 0.11114178E+04 0.32000000E+00 0.0000E+00 0.9000E+01
#aMCatNLO 1  0  0  2  2 0.28240436D+02 0.00000000D+00  -5  6  0 0.00000000D+00 0.00000000D+00 0.00000000D+00 0.00000000D+00 0.00000000D+00
  <mgrwgt>
 0.3121612733D-02    5    2    0
 0.145613032832719D+04 0.000000000000000D+00 0.000000000000000D+00 0.145613032832719D+04
 0.145613032832719D+04 0.000000000000000D+00 0.000000000000000D+00 -.145613032832719D+04
 0.553902233652059D+03 -.297918758846293D+03 -.393341245527287D+03 0.218425644417654D+03
 0.102837562318638D+04 0.359994955610056D+02 0.939150736973099D+01 0.102770241717758D+04
 0.132998279981595D+04 0.261919263285287D+03 0.383949738157556D+03 -.124612806159524D+04
 0.000000000000000D+00 -.000000000000000D+00 -.000000000000000D+00 -.000000000000000D+00
 0.173063263758943D+04 0.000000000000000D+00 0.000000000000000D+00 0.173063263758943D+04
 0.383624906146155D+04 0.000000000000000D+00 0.000000000000000D+00 -.383624906146155D+04
 0.401350674369830D+03 -.219831281726155D+03 -.222310164528043D+03 0.218425644417654D+03
 0.112088344978621D+04 0.211691416806797D+03 0.394200702412257D+03 0.102770241717758D+04
 0.162475330554081D+04 0.503455181245354D+03 0.912973733711918D+03 -.124612806159524D+04
 0.241989426935413D+04 -.495315316325997D+03 -.108486427159613D+04 -.210561642387212D+04
0.714572924325D-01 0.000000000000D+00 0.000000000000D+00 0.248424298761D-03 0.000000000000D+00  6 3 2 25 3 2 21 0 0.27208444D+00 0.18444635D+00 0.25553001D+06 0.25553001D+06 0.25553001D+06 0.10897450D+01  1  2  2  2  6  2        2 0.330116642177D-02 0.100000000000D+01
0.395906850265D-01 0.000000000000D+00 -.274414818078D-03 0.248424298761D-03 0.000000000000D+00  6 3 2 25 3 2 21 2 0.27208444D+00 0.18444635D+00 0.25553001D+06 0.25553001D+06 0.25553001D+06 0.10897450D+01  1  2  3  2  6  2        2 0.217201915273D-02 0.100000000000D+01
-.417461579714D-01 0.000000000000D+00 0.000000000000D+00 0.248424298761D-03 0.000000000000D+00  6 3 2 25 3 2 21 2 0.27208444D+00 0.18444635D+00 0.25553001D+06 0.25553001D+06 0.25553001D+06 0.10897450D+01  1  2 15  2  6  2        2 -.229027243671D-02 0.100000000000D+01
-.178061849641D-01 0.000000000000D+00 -.363075664337D-01 0.248424298761D-03 0.000000000000D+00  6 3 2 25 3 2 21 2 0.27208444D+00 0.50401057D+00 0.25553001D+06 0.25553001D+06 0.25553001D+06 0.10897450D+01  1  2  5  2  6  2        2 -.613144966791D-04 0.100000000000D+01
0.854471641872D-04 0.000000000000D+00 -.408013649806D-02 0.248424298761D-03 0.000000000000D+00  6 3 21 25 3 2 -2 2 0.27208444D+00 0.50401057D+00 0.25553001D+06 0.25553001D+06 0.25553001D+06 0.10897450D+01  1  2  5  6  6  2        2 0.140921198707D-07 0.100000000000D+01
  </mgrwgt>
  </event>
  <event>
  6     66 0.19643240E-05 0.15812975E+03 0.75467711E-02 0.92546832E-01
        3 -1    0    0  501    0 0.00000000E+00 0.00000000E+00 0.52101652E+03 0.52101676E+03 0.50000000E+00 0.0000E+00 0.9000E+01
        2 -1    0    0  502    0 -.00000000E+00 -.00000000E+00 -.10381364E+04 0.10381365E+04 0.32000000E+00 0.0000E+00 0.9000E+01
       25  1    1    2    0    0 -.19641043E+03 0.55142572E+03 -.40568336E+03 0.72308462E+03 0.12500000E+03 0.0000E+00 0.9000E+01
        3  1    1    2  503    0 0.19360130E+03 -.31989961E+03 -.58364135E+01 0.37396729E+03 0.50000000E+00 0.0000E+00 0.9000E+01
        2  1    1    2  502    0 0.81663029E+01 -.13642117E+02 -.21682701E+03 0.21740941E+03 0.32000000E+00 0.0000E+00 0.9000E+01
       21  1    1    2  501  503 -.53571796E+01 -.21788400E+03 0.11122690E+03 0.24469189E+03 0.75000000E+00 0.0000E+00 0.9000E+01
#aMCatNLO 2  0  0  4  2 0.17301245D+02 0.00000000D+00  -5  6  0 0.00000000D+00 0.00000000D+00 0.00000000D+00 0.00000000D+00 0.00000000D+00
  <mgrwgt>
 0.3501030918D-03    1    2    0
 0.735449821369888D+03 0.000000000000000D+00 0.000000000000000D+00 0.735449821369888D+03
 0.735449821369888D+03 -.000000000000000D+00 -.000000000000000D+00 -.735449821369888D+03
 0.638155015269004D+03 -.200716335595979D+03 0.563720460178203D+03 -.183163912696740D+03
 0.676792826346155D+03 0.193605951479942D+03 -.553101490730558D+03 0.338591208239076D+03
 0.155951801124617D+03 0.711038411603718D+01 -.106189694476453D+02 -.155427295542335D+03
 0.000000000000000D+00 0.000000000000000D+00 0.000000000000000D+00 0.000000000000000D+00
 0.735449821369888D+03 0.000000000000000D+00 0.000000000000000D+00 0.735449821369888D+03
 0.735449821369888D+03 -.000000000000000D+00 -.000000000000000D+00 -.735449821369888D+03
 0.623743622557136D+03 -.196396921681871D+03 0.551380579835099D+03 -.175609828925643D+03
 0.394016560940699D+03 0.193512890282419D+03 -.319611581979180D+03 0.125100952253953D+03
 0.154391730385470D+03 0.817267400840706D+01 -.136537631539672D+02 -.153569490989282D+03
 0.298747728856471D+03 -.528864260895459D+01 -.218115234701952D+03 0.204078367660972D+03
0.102487914652D-03 0.000000000000D+00 0.000000000000D+00 0.116521719308D-05 0.311030476485D-09  6 3 2 25 3 2 21 2 0.80156409D-01 0.15971332D+00 0.36375009D+06 0.36375009D+06 0.36375009D+06 0.10784145D+01  1  2  1  3  6  4        3 0.350103091796D-03 0.100000000000D+01
  </mgrwgt>
  </event>
  <event>
  6     66 -.19643240E-05 0.17668612E+02 0.75467711E-02 0.92992813E-01
        3 -1    0    0  501    0 0.00000000E+00 0.00000000E+00 0.10889792E+04 0.10889793E+04 0.50000000E+00 0.0000E+00 0.9000E+01
        2 -1    0    0  503    0 0.00000000E+00 0.00000000E+00 -.12002664E+04 0.12002665E+04 0.32000000E+00 0.0000E+00 0.9000E+01
       25  1    1    2    0    0 -.72653148E+02 0.55191978E+03 -.46541220E+03 0.73629304E+03 0.12500000E+03 0.0000E+00 0.9000E+01
        3  1    1    2  501    0 0.73846031E+02 -.54189514E+03 0.87392474E+03 0.10309453E+04 0.50000000E+00 0.0000E+00 0.9000E+01
        2  1    1    2  502    0 -.30366647E+01 -.25061412E+02 -.16855327E+03 0.17043357E+03 0.32000000E+00 0.0000E+00 0.9000E+01
       21  1    1    2  503  502 0.18437820E+01 0.15036771E+02 -.35124649E+03 0.35157383E+03 0.75000000E+00 0.0000E+00 0.9000E+01
#aMCatNLO 2  0  0  2  5 0.15149390D+02 0.00000000D+00  -5  6  0 0.00000000D+00 0.00000000D+00 0.00000000D+00 0.00000000D+00 0.00000000D+00
  <mgrwgt>
 -.4518633046D-02    2    2    0
 0.961348353574403D+03 0.000000000000000D+00 0.000000000000000D+00 0.961348353574403D+03
 0.961348353574403D+03 0.000000000000000D+00 0.000000000000000D+00 -.961348353574403D+03
 0.804376555679819D+03 -.718843848365502D+02 0.558194541836324D+03 -.560935051506087D+03
 0.925742601003536D+03 0.747360466769141D+02 -.534641336163688D+03 0.752045562652293D+03
 0.192577550465451D+03 -.285166184036389D+01 -.235532056726360D+02 -.191110511146206D+03
 0.000000000000000D+00 0.000000000000000D+00 0.000000000000000D+00 -.000000000000000D+00
 0.961522358416027D+03 0.000000000000000D+00 0.000000000000000D+00 0.961522358416027D+03
 0.135936973113292D+04 0.000000000000000D+00 0.000000000000000D+00 -.135936973113292D+04
 0.800105004317265D+03 -.726536866833647D+02 0.551920581004830D+03 -.560935051506087D+03
 0.929880920132894D+03 0.738463296260025D+02 -.541897330610661D+03 0.752045562652293D+03
 0.192770464617577D+03 -.303642491091623D+01 -.250600215896287D+02 -.191110511146206D+03
 0.398135700481215D+03 0.184378196827848D+01 0.150367711954599D+02 -.397847372716896D+03
-.174653450674D-01 0.000000000000D+00 0.000000000000D+00 0.593137477438D-05 0.000000000000D+00  6 3 2 25 3 2 21 2 0.16750489D+00 0.20129599D+00 0.33514955D+06 0.33514955D+06 0.33514955D+06 0.10810098D+01  1  2 13  2  6  2        2 -.606412894969D-02 0.100000000000D+01
0.386088381332D-02 0.000000000000D+00 0.000000000000D+00 0.593137477438D-05 0.334063819826D-07  6 3 2 25 3 2 21 2 0.16753521D+00 0.18465632D+00 0.33514955D+06 0.33514955D+06 0.33514955D+06 0.10810098D+01  1  2  1  2  6  2        2 0.154549590376D-02 0.100000000000D+01
  </mgrwgt>
  </event>
  <event>
  5     66 0.19643240E-05 0.15610392E+03 0.75467711E-02 0.85932980E-01
        3 -1    0    0  501    0 0.00000000E+00 0.00000000E+00 0.74844602E+03 0.74844619E+03 0.50000000E+00 0.0000E+00 0.9000E+01
        2 -1    0    0  502    0 0.00000000E+00 0.00000000E+00 -.31047961E+04 0.31047961E+04 0.32000000E+00 0.0000E+00 0.9000E+01
       25  1    1    2    0    0 -.56960678E+03 0.68450476E+03 -.90206765E+02 0.90374826E+03 0.12500000E+03 0.0000E+00 0.9000E+01
        3  1    1    2  501    0 0.43028257E+03 -.61415616E+03 -.75924596E+02 0.75372122E+03 0.50000000E+00 0.0000E+00 0.9000E+01
        2  1    1    2  502    0 0.13932420E+03 -.70348596E+02 -.21902187E+04 0.21957728E+04 0.32000000E+00 0.0000E+00 0.9000E+01
#aMCatNLO 1  0  0  2  4 0.56930993D+03 0.00000000D+00  -5  6  0 0.00000000D+00 0.00000000D+00 0.00000000D+00 0.00000000D+00 0.00000000D+00
  <mgrwgt>
 0.8291103713D-04    7    2    0
 0.152439254330720D+04 0.000000000000000D+00 0.000000000000000D+00 0.152439254330720D+04
 0.152439254330720D+04 0.000000000000000D+00 0.000000000000000D+00 -.152439254330720D+04
 0.107252510376427D+04 -.569534461814174D+03 0.684381130000065D+03 0.584754704051561D+03
 0.893719880941089D+03 0.430187010249907D+03 -.614019763019527D+03 0.486471060211237D+03
 0.108254010190904D+04 0.139347451564267D+03 -.703613669805388D+02 -.107122576426280D+04
 0.000000000000000D+00 0.000000000000000D+00 -.000000000000000D+00 -.000000000000000D+00
 0.171408058512813D+04 0.000000000000000D+00 0.000000000000000D+00 0.171408058512813D+04
 0.204681900745415D+04 0.000000000000000D+00 0.000000000000000D+00 -.204681900745415D+04
 0.124892242201607D+04 -.751889197098554D+03 0.798064400653578D+03 0.584754704051561D+03
 0.780341835447218D+03 0.298685833612674D+03 -.532039529100225D+03 0.486471060211237D+03
 0.107221995101808D+04 -.299136214039033D+02 0.351590755752110D+02 -.107122576426280D+04
 0.659415384100904D+03 0.483116984889783D+03 -.301183947128564D+03 -.332738422326015D+03
0.621150304561D-03 0.000000000000D+00 0.000000000000D+00 0.340652498808D-06 0.000000000000D+00  6 3 2 25 3 2 21 0 0.11514556D+00 0.47766095D+00 0.81443382D+06 0.81443382D+06 0.81443382D+06 0.10538500D+01  1  2  2  2  6  2        2 0.458726508407D-04 0.100000000000D+01
0.151696040782D-03 0.000000000000D+00 -.238538072215D-05 0.340652498808D-06 0.000000000000D+00  6 3 2 25 3 2 21 2 0.11514556D+00 0.47766095D+00 0.81443382D+06 0.81443382D+06 0.81443382D+06 0.10538500D+01  1  2  3  2  6  2        2 0.124419660721D-04 0.100000000000D+01
-.378708382034D-03 0.000000000000D+00 0.000000000000D+00 0.340652498808D-06 0.000000000000D+00  6 3 2 25 3 2 21 2 0.11514556D+00 0.47766095D+00 0.81443382D+06 0.81443382D+06 0.81443382D+06 0.10538500D+01  1  2 15  2  6  2        2 -.310613040144D-04 0.100000000000D+01
-.316876871749D-04 0.000000000000D+00 0.000000000000D+00 0.340652498808D-06 0.000000000000D+00  6 3 2 25 3 2 21 2 0.11514556D+00 0.47766095D+00 0.81443382D+06 0.81443382D+06 0.81443382D+06 0.10538500D+01  1  2  4  2  6  2        2 -.259899419064D-05 0.100000000000D+01
-.729612572491D-03 0.000000000000D+00 -.320522862016D-03 0.340652498808D-06 0.000000000000D+00  6 3 2 25 3 2 21 2 0.11514556D+00 0.65532664D+00 0.81443382D+06 0.81443382D+06 0.81443382D+06 0.10538500D+01  1  2  5  2  6  2        2 -.782545982329D-05 0.100000000000D+01
0.805732567757D-03 0.000000000000D+00 0.305137923069D-03 0.340652498808D-06 0.000000000000D+00  6 3 2 25 3 2 21 2 0.11514556D+00 0.47766095D+00 0.81443382D+06 0.81443382D+06 0.81443382D+06 0.10538500D+01  1  2  6  2  6  2        2 0.660854246399D-04 0.100000000000D+01
-.215036144421D-04 0.000000000000D+00 -.128700293149D-04 0.340652498808D-06 0.000000000000D+00  6 3 21 25 3 2 -2 2 0.11514556D+00 0.65532664D+00 0.81443382D+06 0.81443382D+06 0.81443382D+06 0.10538500D+01  1  2  5  6  6  2        2 -.324639752183D-08 0.100000000000D+01
  </mgrwgt>
  </event>
  <event>
  6     66 0.19643240E-05 0.29080170E+02 0.75467711E-02 0.94232843E-01
       21 -1    0    0  501  503 0.00000000E+00 0.00000000E+00 0.12415775E+04 0.12415777E+04 0.75000000E+00 0.0000E+00 0.9000E+01
        2 -1    0    0  502    0 0.00000000E+00 0.00000000E+00 -.27969415E+04 0.27969415E+04 0.32000000E+00 0.0000E+00 0.9000E+01
       25  1    1    2    0    0 -.35428340E+03 -.35192926E+03 -.10305213E+02 0.51488069E+03 0.12500000E+03 0.0000E+00 0.9000E+01
        3  1    1    2  501    0 0.33851203E+03 0.32200853E+03 0.92071432E+03 0.10324703E+04 0.50000000E+00 0.0000E+00 0.9000E+01
        2  1    1    2  502    0 0.12289598E+01 0.37182969E+02 -.24730655E+04 0.24733454E+04 0.32000000E+00 0.0000E+00 0.9000E+01
       -3  1    1    2    0  503 0.14542405E+02 -.72622455E+01 0.72924474E+01 0.17822781E+02 0.50000000E+00 0.0000E+00 0.9000E+01
#aMCatNLO 2  0  0  1  2 0.16254899D+02 0.00000000D+00  -5  6  0 0.00000000D+00 0.00000000D+00 0.00000000D+00 0.00000000D+00 0.00000000D+00
  <mgrwgt>
 0.1503244379D-02    1    2    0
 0.185228508938945D+04 0.000000000000000D+00 0.000000000000000D+00 0.185228508938945D+04
 0.185228508938945D+04 0.000000000000000D+00 0.000000000000000D+00 -.185228508938945D+04
 0.553799261695615D+03 -.352090210914122D+03 -.353002156323634D+03 0.206132441075930D+03
 0.150956399841615D+04 0.344417795278327D+03 0.319032236026942D+03 0.143470494527112D+04
 0.164120691866713D+04 0.767241563579478D+01 0.339699202966916D+02 -.164083738634705D+04
 0.000000000000000D+00 0.000000000000000D+00 -.000000000000000D+00 0.000000000000000D+00
 0.187122617223659D+04 0.000000000000000D+00 0.000000000000000D+00 0.187122617223659D+04
 0.185579362216688D+04 0.000000000000000D+00 0.000000000000000D+00 -.185579362216688D+04
 0.554494726784530D+03 -.354265521574422D+03 -.351915840779484D+03 0.206132441075930D+03
 0.150885192139597D+04 0.338493381363035D+03 0.321990794104928D+03 0.143470494527112D+04
 0.164125919201887D+04 0.122973562772145D+01 0.371872922180827D+02 -.164083738634705D+04
 0.224139542040991D+02 0.145424045836657D+02 -.726224554352611D+01 0.154325500697054D+02
0.352660938856D-02 0.000000000000D+00 0.000000000000D+00 0.646464913972D-03 0.269141569148D-07  6 21 2 25 3 2 -3 2 0.19101165D+00 0.43029806D+00 0.26801184D+06 0.26801184D+06 0.26801184D+06 0.10881934D+01  1  2  1  5  6  1        3 0.150324437879D-02 0.100000000000D+01
  </mgrwgt>
  </event>
  <event>
  5     66 0.19643240E-05 0.63888341E+02 0.75467711E-02 0.95168802E-01
        3 -1    0    0  501    0 0.00000000E+00 0.00000000E+00 0.19392406E+03 0.19392471E+03 0.50000000E+00 0.0000E+00 0.9000E+01
        2 -1    0    0  502    0 -.00000000E+00 -.00000000E+00 -.15116579E+04 0.15116580E+04 0.32000000E+00 0.0000E+00 0.9000E+01
       25  1    1    2    0    0 0.42763901E+03 -.15813130E+03 -.59764518E+03 0.76202716E+03 0.12500000E+03 0.0000E+00 0.9000E+01
        3  1    1    2  501    0 -.22945012E+02 0.59759040E+02 0.40963141E+02 0.75998983E+02 0.50000000E+00 0.0000E+00 0.9000E+01
        2  1    1    2  502    0 -.40469400E+03 0.98372263E+02 -.76105183E+03 0.86755653E+03 0.32000000E+00 0.0000E+00 0.9000E+01
#aMCatNLO 1  0  0  5  2 0.10190561D+02 0.00000000D+00  -5  6  0 0.00000000D+00 0.00000000D+00 0.00000000D+00 0.00000000D+00 0.00000000D+00
  <mgrwgt>
 0.4015372380D-02    3    2    0
 0.541430903889679D+03 0.000000000000000D+00 0.000000000000000D+00 0.541430903889679D+03
 0.541430903889679D+03 -.000000000000000D+00 -.000000000000000D+00 -.541430903889679D+03
 0.473107540788472D+03 0.427802555675824D+03 -.158116672324241D+03 -.137781145755691D+02
 0.169221768119888D+03 -.229004616915160D+02 0.596430122659085D+02 0.156698075124698D+03
 0.440532498870998D+03 -.404902093984308D+03 0.984736600583323D+02 -.142919960549128D+03
 0.000000000000000D+00 0.000000000000000D+00 0.000000000000000D+00 0.000000000000000D+00
 0.541430903889679D+03 0.000000000000000D+00 0.000000000000000D+00 0.541430903889679D+03
 0.541430903889679D+03 -.000000000000000D+00 -.000000000000000D+00 -.541430903889679D+03
 0.385060842180538D+03 0.334834143333213D+03 -.135506416736025D+03 -.465935581648433D+02
 0.170055879714164D+03 -.596556077542747D+02 0.685819973009395D+02 0.143724459766041D+03
 0.181467476724138D+03 -.738327299536342D+02 -.123920776210482D+03 0.110103652617028D+03
 0.346277609160518D+03 -.201345805625305D+03 0.190845195645567D+03 -.207234554218226D+03
0.675638939320D-03 0.000000000000D+00 0.000000000000D+00 0.140984484882D-06 0.000000000000D+00  6 3 2 25 3 2 21 0 0.29834523D-01 0.23256281D+00 0.22729050D+06 0.22729050D+06 0.22729050D+06 0.10935842D+01  1  2  2  4  6  5        2 0.808875229942D-02 0.100000000000D+01
0.113989456962D-03 0.000000000000D+00 -.259463142681D-05 0.140984484882D-06 0.000000000000D+00  6 3 2 25 3 2 21 2 0.29834523D-01 0.23256281D+00 0.22729050D+06 0.22729050D+06 0.22729050D+06 0.10935842D+01  1  2  3  4  6  5        2 0.163205961046D-02 0.100000000000D+01
-.398490318376D-03 0.000000000000D+00 0.000000000000D+00 0.140984484882D-06 0.000000000000D+00  6 3 2 25 3 2 21 2 0.29834523D-01 0.23256281D+00 0.22729050D+06 0.22729050D+06 0.22729050D+06 0.10935842D+01  1  2 15  4  6  5        2 -.570543953026D-02 0.100000000000D+01
  </mgrwgt>
  </event>
  <event>
  5     66 0.19643240E-05 0.86711314E+02 0.75467711E-02 0.86704022E-01
        3 -1    0    0  501    0 0.00000000E+00 0.00000000E+00 0.94715879E+03 0.94715892E+03 0.50000000E+00 0.0000E+00 0.9000E+01
        2 -1    0    0  502    0 -.00000000E+00 -.00000000E+00 -.26742567E+04 0.26742567E+04 0.32000000E+00 0.0000E+00 0.9000E+01
       25  1    1    2    0    0 0.75402204E+03 0.63625982E+03 -.53542783E+01 0.99449960E+03 0.12500000E+03 0.0000E+00 0.9000E+01
        3  1    1    2  501    0 -.77802452E+03 -.71957013E+03 -.17066932E+03 0.10734205E+04 0.50000000E+00 0.0000E+00 0.9000E+01
        2  1    1    2  502    0 0.24002487E+02 0.83310315E+02 -.15510743E+04 0.15534955E+04 0.32000000E+00 0.0000E+00 0.9000E+01
#aMCatNLO 1  0  0  5  2 0.14131289D+02 0.00000000D+00  -5  6  0 0.00000000D+00 0.00000000D+00 0.00000000D+00 0.00000000D+00 0.00000000D+00
  <mgrwgt>
 0.2132305857D-03    7    2    0
 0.159152317975007D+04 0.000000000000000D+00 0.000000000000000D+00 0.159152317975007D+04
 0.159152317975007D+04 -.000000000000000D+00 -.000000000000000D+00 -.159152317975007D+04
 0.112853391259541D+04 0.753925329419137D+03 0.636161304702690D+03 0.533722009980031D+03
 0.112851209618169D+04 -.777930845387061D+03 -.719483493827115D+03 0.388209547968734D+03
 0.926000350723049D+03 0.240055159679241D+02 0.833221891244256D+02 -.921931557948765D+03
 0.000000000000000D+00 0.000000000000000D+00 0.000000000000000D+00 0.000000000000000D+00
 0.159152317975007D+04 0.000000000000000D+00 0.000000000000000D+00 0.159152317975007D+04
 0.159152317975007D+04 -.000000000000000D+00 -.000000000000000D+00 -.159152317975007D+04
 0.112841646372645D+04 0.753932890088771D+03 0.636187547485641D+03 0.533431642551789D+03
 0.112839030014386D+04 -.777923284878157D+03 -.719457251602053D+03 0.387919186713348D+03
 0.782202673680075D+03 0.626466319758936D+01 0.685983970840419D+02 -.779163677685747D+03
 0.144036921949767D+03 0.177257315917964D+02 0.146713070323698D+02 -.142187151579391D+03
0.227018235999D-04 0.000000000000D+00 0.000000000000D+00 0.439868309599D-06 0.000000000000D+00  6 3 2 25 3 2 21 0 0.14571675D+00 0.41142412D+00 0.11456472D+07 0.11456472D+07 0.11456472D+07 0.10439556D+01  1  2  2  4  6  5        2 0.159325804169D-05 0.100000000000D+01
0.968887933022D-05 0.000000000000D+00 -.871809801509D-07 0.439868309599D-06 0.000000000000D+00  6 3 2 25 3 2 21 2 0.14571675D+00 0.41142412D+00 0.11456472D+07 0.11456472D+07 0.11456472D+07 0.10439556D+01  1  2  3  4  6  5        2 0.741076406011D-06 0.100000000000D+01
-.143776074168D-04 0.000000000000D+00 0.000000000000D+00 0.439868309599D-06 0.000000000000D+00  6 3 2 25 3 2 21 2 0.14571675D+00 0.41142412D+00 0.11456472D+07 0.11456472D+07 0.11456472D+07 0.10439556D+01  1  2 15  4  6  5        2 -.109970464781D-05 0.100000000000D+01
0.344706786077D-02 0.000000000000D+00 0.000000000000D+00 0.439868309599D-06 0.000000000000D+00  6 3 2 25 3 2 21 2 0.14571675D+00 0.41142412D+00 0.11511999D+07 0.11511999D+07 0.11511999D+07 0.10438175D+01  1  2 12  4  6  5        2 0.263479856609D-03 0.100000000000D+01
-.155075578470D-02 0.000000000000D+00 0.000000000000D+00 0.439868309599D-06 0.000000000000D+00  6 3 2 25 3 2 21 2 0.14571675D+00 0.41142412D+00 0.11456472D+07 0.11456472D+07 0.11456472D+07 0.10439556D+01  1  2  4  4  6  5        2 -.118613152704D-03 0.100000000000D+01
-.524052694032D-02 0.000000000000D+00 0.000000000000D+00 0.439868309599D-06 0.000000000000D+00  6 3 2 25 3 2 21 2 0.14571675D+00 0.41142412D+00 0.11456472D+07 0.11456472D+07 0.11456472D+07 0.10439556D+01  1  2  5  4  6  5        2 -.400833856855D-03 0.100000000000D+01
0.611817898363D-02 0.000000000000D+00 -.000000000000D+00 0.439868309599D-06 0.000000000000D+00  6 3 2 25 3 2 21 2 0.14571675D+00 0.41142412D+00 0.11456472D+07 0.11456472D+07 0.11456472D+07 0.10439556D+01  1  2  6  4  6  5        2 0.467963108837D-03 0.100000000000D+01
  </mgrwgt>
  </event>
  <event>
  5     66 0.19643240E-05 0.11323029E+03 0.75467711E-02 0.92224032E-01
        3 -1    0    0  501    0 0.00000000E+00 0.00000000E+00 0.93398565E+03 0.93398579E+03 0.50000000E+00 0.0000E+00 0.9000E+01
        2 -1    0    0  502    0 0.00000000E+00 0.00000000E+00 -.16497271E+04 0.16497272E+04 0.32000000E+00 0.0000E+00 0.9000E+01
       25  1    1    2    0    0 -.57862068E+03 0.80839356E+02 -.47438706E+03 0.76289251E+03 0.12500000E+03 0.0000E+00 0.9000E+01
        3  1    1    2  501    0 0.48120494E+03 -.23159850E+02 0.71260060E+03 0.86017117E+03 0.50000000E+00 0.0000E+00 0.9000E+01
        2  1    1    2  502    0 0.97415742E+02 -.57679506E+02 -.95395501E+03 0.96064927E+03 0.32000000E+00 0.0000E+00 0.9000E+01
#aMCatNLO 1  0  0  2  1 0.50572972D+02 0.00000000D+00  -5  6  0 0.00000000D+00 0.00000000D+00 0.00000000D+00 0.00000000D+00 0.00000000D+00
  <mgrwgt>
 0.9147704618D-03    7    2    0
 0.124129838509527D+04 0.000000000000000D+00 0.000000000000000D+00 0.124129838509527D+04
 0.124129838509527D+04 0.000000000000000D+00 0.000000000000000D+00 -.124129838509527D+04
 0.657143314135911D+03 -.578619712661130D+03 0.808474328928912D+02 -.273633433681101D+03
 0.110060997836374D+04 0.481186958494025D+03 -.231589842249986D+02 0.989578241928731D+03
 0.724843477690895D+03 0.974327541671049D+02 -.576884486678926D+02 -.715944808247630D+03
 0.000000000000000D+00 -.000000000000000D+00 -.000000000000000D+00 -.000000000000000D+00
 0.125456698055760D+04 0.000000000000000D+00 0.000000000000000D+00 0.125456698055760D+04
 0.129069918477713D+04 0.000000000000000D+00 0.000000000000000D+00 -.129069918477713D+04
 0.656287402558867D+03 -.575670613682347D+03 0.938948522121647D+02 -.273633433681101D+03
 0.110253923669415D+04 0.486133778313028D+03 -.127323778522777D+01 0.989578241928731D+03
 0.724285188447363D+03 0.100686541226530D+03 -.432930267287245D+02 -.715944808247630D+03
 0.621543376343477D+02 -.111497058572108D+02 -.493285876982124D+02 -.361322042195316D+02
0.864018123171D-03 0.000000000000D+00 0.000000000000D+00 0.906729750228D-05 0.000000000000D+00  6 3 2 25 3 2 21 0 0.14369011D+00 0.25380419D+00 0.35547666D+06 0.35547666D+06 0.35547666D+06 0.10791417D+01  1  2  2  2  6  2        2 0.262812303511D-03 0.100000000000D+01
0.177186493208D-03 0.000000000000D+00 -.331805709417D-05 0.906729750228D-05 0.000000000000D+00  6 3 2 25 3 2 21 2 0.14369011D+00 0.25380419D+00 0.35547666D+06 0.35547666D+06 0.35547666D+06 0.10791417D+01  1  2  3  2  6  2        2 0.627639707100D-04 0.100000000000D+01
-.577378299777D-03 0.000000000000D+00 0.000000000000D+00 0.906729750228D-05 0.000000000000D+00  6 3 2 25 3 2 21 2 0.14369011D+00 0.25380419D+00 0.35547666D+06 0.35547666D+06 0.35547666D+06 0.10791417D+01  1  2 15  2  6  2        2 -.204522105719D-03 0.100000000000D+01
-.530982566426D-04 0.000000000000D+00 0.000000000000D+00 0.906729750228D-05 0.000000000000D+00  6 3 2 25 3 2 21 2 0.14369011D+00 0.25380419D+00 0.35547666D+06 0.35547666D+06 0.35547666D+06 0.10791417D+01  1  2  4  2  6  2        2 -.188087554775D-04 0.100000000000D+01
-.246877130745D-01 0.000000000000D+00 -.383903437323D-02 0.906729750228D-05 0.000000000000D+00  6 3 2 25 3 2 21 2 0.14369011D+00 0.26516964D+00 0.35547666D+06 0.35547666D+06 0.35547666D+06 0.10791417D+01  1  2  5  2  6  2        2 -.796877931458D-02 0.100000000000D+01
0.248357351951D-01 0.000000000000D+00 0.383535370733D-02 0.906729750228D-05 0.000000000000D+00  6 3 2 25 3 2 21 2 0.14369011D+00 0.25380419D+00 0.35547666D+06 0.35547666D+06 0.35547666D+06 0.10791417D+01  1  2  6  2  6  2        2 0.879745023520D-02 0.100000000000D+01
-.187482399217D-03 0.000000000000D+00 -.295606966597D-04 0.906729750228D-05 0.000000000000D+00  6 3 21 25 3 2 -2 2 0.14369011D+00 0.26516964D+00 0.35547666D+06 0.35547666D+06 0.35547666D+06 0.10791417D+01  1  2  5  6  6  2        2 -.161458718496D-04 0.100000000000D+01
  </mgrwgt>
  </event>
  <event>
  5     66 0.19643240E-05 0.22189025E+03 0.75467711E-02 0.92783705E-01
        3 -1    0    0  501    0 0.00000000E+00 0.00000000E+00 0.11467591E+04 0.11467592E+04 0.50000000E+00 0.0000E+00 0.9000E+01
        2 -1    0    0  502    0 -.00000000E+00 -.00000000E+00 -.24260359E+04 0.24260359E+04 0.32000000E+00 0.0000E+00 0.9000E+01
       25  1    1    2    0    0 -.29021853E+03 0.50612067E+03 -.57348008E+03 0.82758041E+03 0.12500000E+03 0.0000E+00 0.9000E+01
        3  1    1    2  501    0 0.17572145E+03 -.31608752E+03 0.98014583E+03 0.10447370E+04 0.50000000E+00 0.0000E+00 0.9000E+01
        2  1    1    2  502    0 0.11449709E+03 -.19003314E+03 -.16859425E+04 0.17004777E+04 0.32000000E+00 0.0000E+00 0.9000E+01
#aMCatNLO 1  0  0  5  2 0.40599506D+01 0.00000000D+00  -5  6  0 0.00000000D+00 0.00000000D+00 0.00000000D+00 0.00000000D+00 0.00000000D+00
  <mgrwgt>
 0.2526029622D-02    8    2    0
 0.166795653857979D+04 0.000000000000000D+00 0.000000000000000D+00 0.166795653857979D+04
 0.166795653857979D+04 -.000000000000000D+00 -.000000000000000D+00 -.166795653857979D+04
 0.666395460304124D+03 -.290228933647602D+03 0.506137456293449D+03 -.296732119805924D+03
 0.149475533645118D+04 0.175716691750477D+03 -.316078964860653D+03 0.145034866430875D+04
 0.117476228040428D+04 0.114512241897125D+03 -.190058491432796D+03 -.115361654450282D+04
 0.000000000000000D+00 0.000000000000000D+00 0.000000000000000D+00 0.000000000000000D+00
 0.166795653857979D+04 0.000000000000000D+00 0.000000000000000D+00 0.166795653857979D+04
 0.166795653857979D+04 -.000000000000000D+00 -.000000000000000D+00 -.166795653857979D+04
 0.666397058168877D+03 -.290228360886908D+03 0.506136505669902D+03 -.296737889898297D+03
 0.149474338036468D+04 0.175717976472096D+03 -.316081097141436D+03 0.145033572179631D+04
 0.713293697120170D+03 0.664925765461514D+02 -.112802972677734D+03 -.701171965334240D+03
 0.461478941505859D+03 0.480178078686598D+02 -.772524358507314D+02 -.452425866563777D+03
0.665998009082D-04 0.000000000000D+00 0.000000000000D+00 0.183922724693D-04 0.000000000000D+00  6 3 2 25 3 2 21 0 0.17642449D+00 0.37323630D+00 0.34822600D+06 0.34822600D+06 0.34822600D+06 0.10797944D+01  1  2  2  4  6  5        2 0.400286657967D-05 0.100000000000D+01
0.854935069899D-05 0.000000000000D+00 -.255760771618D-06 0.183922724693D-04 0.000000000000D+00  6 3 2 25 3 2 21 2 0.17642449D+00 0.37323630D+00 0.34822600D+06 0.34822600D+06 0.34822600D+06 0.10797944D+01  1  2  3  4  6  5        2 0.599119474216D-06 0.100000000000D+01
-.472252866599D-04 0.000000000000D+00 0.000000000000D+00 0.183922724693D-04 0.000000000000D+00  6 3 2 25 3 2 21 2 0.17642449D+00 0.37323630D+00 0.34822600D+06 0.34822600D+06 0.34822600D+06 0.10797944D+01  1  2 15  4  6  5        2 -.330944301030D-05 0.100000000000D+01
0.361317078060D-01 0.000000000000D+00 0.000000000000D+00 0.183922724693D-04 0.000000000000D+00  6 3 2 25 3 2 21 2 0.17642449D+00 0.37323630D+00 0.34823345D+06 0.34823345D+06 0.34823345D+06 0.10797937D+01  1  2 12  4  6  5        2 0.253202165883D-02 0.100000000000D+01
-.402143996574D+00 0.000000000000D+00 0.000000000000D+00 0.183922724693D-04 0.000000000000D+00  6 3 2 25 3 2 21 2 0.17642449D+00 0.37323630D+00 0.34822600D+06 0.34822600D+06 0.34822600D+06 0.10797944D+01  1  2  4  4  6  5        2 -.281813564877D-01 0.100000000000D+01
-.316613696542D+00 0.000000000000D+00 0.000000000000D+00 0.183922724693D-04 0.000000000000D+00  6 3 2 25 3 2 21 2 0.17642449D+00 0.37323630D+00 0.34822600D+06 0.34822600D+06 0.34822600D+06 0.10797944D+01  1  2  5  4  6  5        2 -.221875833710D-01 0.100000000000D+01
0.462662836849D+00 0.000000000000D+00 -.000000000000D+00 0.183922724693D-04 0.000000000000D+00  6 3 2 25 3 2 21 2 0.17642449D+00 0.37323630D+00 0.34822600D+06 0.34822600D+06 0.34822600D+06 0.10797944D+01  1  2  6  4  6  5        2 0.324223821564D-01 0.100000000000D+01
0.255991718094D+00 0.000000000000D+00 0.000000000000D+00 0.183922724693D-04 0.263198506394D-05  6 3 2 25 3 2 21 2 0.17642449D+00 0.37323630D+00 0.34823345D+06 0.34823345D+06 0.34823345D+06 0.10797937D+01  1  2 11  4  6  5        2 0.179392731220D-01 0.100000000000D+01
  </mgrwgt>
  </event>
  <event>
  5     66 0.19643240E-05 0.14106053E+02 0.75467711E-02 0.83243909E-01
        3 -1    0    0  501    0 0.00000000E+00 0.00000000E+00 0.12850248E+04 0.12850249E+04 0.50000000E+00 0.0000E+00 0.9000E+01
        2 -1    0    0  502    0 0.00000000E+00 0.00000000E+00 -.26175880E+04 0.26175880E+04 0.32000000E+00 0.0000E+00 0.9000E+01
       25  1    1    2    0    0 -.43151358E+03 -.51270956E+03 -.86453850E+03 0.11009663E+04 0.12500000E+03 0.0000E+00 0.9000E+01
        3  1    1    2  501    0 0.42091327E+03 0.52201441E+03 0.10704306E+04 0.12631267E+04 0.50000000E+00 0.0000E+00 0.9000E+01
        2  1    1    2  502    0 0.10600301E+02 -.93048449E+01 -.15384553E+04 0.15385200E+04 0.32000000E+00 0.0000E+00 0.9000E+01
#aMCatNLO 1  0  0  1  4 0.32169076D+01 0.00000000D+00  -5  6  0 0.00000000D+00 0.00000000D+00 0.00000000D+00 0.00000000D+00 0.00000000D+00
  <mgrwgt>
 0.1371925832D-01    7    2    0
 0.183402994653036D+04 0.000000000000000D+00 0.000000000000000D+00 0.183402994653036D+04
 0.183402994653036D+04 0.000000000000000D+00 0.000000000000000D+00 -.183402994653036D+04
 0.857228370684784D+03 -.431510505501655D+03 -.512703818343429D+03 -.519758557221201D+03
 0.173275507486785D+04 0.420909219961154D+03 0.522009379646209D+03 0.159774271570656D+04
 0.107807644750809D+04 0.106012855405015D+02 -.930556130277989D+01 -.107798415848536D+04
 0.000000000000000D+00 -.000000000000000D+00 0.000000000000000D+00 0.000000000000000D+00
 0.276474045503306D+04 0.000000000000000D+00 0.000000000000000D+00 0.276474045503306D+04
 0.241703193684750D+04 0.000000000000000D+00 0.000000000000000D+00 -.241703193684750D+04
 0.101942787761265D+04 -.322698352496274D+03 -.805807057021319D+03 -.519758557221201D+03
 0.171417709556763D+04 0.620769003056152D+03 -.163454648141095D+02 0.159774271570656D+04
 0.114388367816259D+04 0.139434824120453D+03 -.356339659656198D+03 -.107798415848536D+04
 0.130428374053768D+04 -.437505474680332D+03 0.117849218149163D+04 0.347708518185559D+03
0.285798030477D+00 0.000000000000D+00 0.000000000000D+00 0.190211723312D-03 0.000000000000D+00  6 3 2 25 3 2 21 0 0.19769614D+00 0.40270586D+00 0.46673124D+06 0.46673124D+06 0.46673124D+06 0.10706302D+01  1  2  2  1  6  1        3 0.866211521255D-02 0.100000000000D+01
0.304698862062D+00 0.000000000000D+00 -.109753968938D-02 0.190211723312D-03 0.000000000000D+00  6 3 2 25 3 2 21 2 0.19769614D+00 0.40270586D+00 0.46673124D+06 0.46673124D+06 0.46673124D+06 0.10706302D+01  1  2  3  1  6  1        3 0.105855775318D-01 0.100000000000D+01
-.192748825462D+00 0.000000000000D+00 0.000000000000D+00 0.190211723312D-03 0.000000000000D+00  6 3 2 25 3 2 21 2 0.19769614D+00 0.40270586D+00 0.46673124D+06 0.46673124D+06 0.46673124D+06 0.10706302D+01  1  2 15  1  6  1        3 -.669630868421D-02 0.100000000000D+01
-.450645719283D-02 0.000000000000D+00 0.000000000000D+00 0.190211723312D-03 0.000000000000D+00  6 3 2 25 3 2 21 2 0.19769614D+00 0.40270586D+00 0.46673124D+06 0.46673124D+06 0.46673124D+06 0.10706302D+01  1  2  4  1  6  1        3 -.156559337589D-03 0.100000000000D+01
0.844572366452D-01 0.000000000000D+00 -.145706844682D+00 0.190211723312D-03 0.000000000000D+00  6 3 2 25 3 2 21 2 0.36037841D+00 0.40270586D+00 0.46673124D+06 0.46673124D+06 0.46673124D+06 0.10706302D+01  1  2  5  1  6  1        3 0.114742286634D-03 0.100000000000D+01
0.218027273410D-01 0.000000000000D+00 0.122883154919D+00 0.190211723312D-03 0.000000000000D+00  6 3 2 25 3 2 21 2 0.19769614D+00 0.40270586D+00 0.46673124D+06 0.46673124D+06 0.46673124D+06 0.10706302D+01  1  2  6  1  6  1        3 0.757451009535D-03 0.100000000000D+01
0.134382925991D-01 0.000000000000D+00 -.956943043159D-02 0.190211723312D-03 0.000000000000D+00  6 21 2 25 3 2 -3 2 0.36037841D+00 0.40270586D+00 0.46673124D+06 0.46673124D+06 0.46673124D+06 0.10706302D+01  1  2  5  5  6  1        3 0.452240299509D-03 0.100000000000D+01
  </mgrwgt>
  </event>
  <event>
  5     66 0.19643240E-05 0.85444986E+02 0.75467711E-02 0.89942652E-01
        1 -1    0    0  501    0 0.00000000E+00 0.00000000E+00 0.23348131E+04 0.23348132E+04 0.32000000E+00 0.0000E+00 0.9000E+01
        4 -1    0    0  502    0 0.00000000E+00 0.00000000E+00 -.29104842E+03 0.29105255E+03 0.15500000E+01 0.0000E+00 0.9000E+01
       25  1    1    2    0    0 -.14596667E+03 0.65110498E+03 0.82328841E+03 0.10670861E+04 0.12500000E+03 0.0000E+00 0.9000E+01
        1  1    1    2  501    0 -.10094627E+02 0.84939126E+02 0.53227254E+03 0.53910177E+03 0.32000000E+00 0.0000E+00 0.9000E+01
        4  1    1    2  502    0 0.15606129E+03 -.73604410E+03 0.68820376E+03 0.10196778E+04 0.15500000E+01 0.0000E+00 0.9000E+01
#aMCatNLO 1  0  0  2  5 0.27635157D+02 0.00000000D+00  -5  6  0 0.00000000D+00 0.00000000D+00 0.00000000D+00 0.00000000D+00 0.00000000D+00
  <mgrwgt>
 0.5001622180D-04    9    2    0
 0.824347697188128D+03 0.000000000000000D+00 0.000000000000000D+00 0.824347697188128D+03
 0.824347697188128D+03 0.000000000000000D+00 0.000000000000000D+00 -.824347697188128D+03
 0.679140113863742D+03 -.145998793114461D+03 0.651274489275671D+03 -.114972295224261D+02
 0.198591253610740D+03 -.100837831261292D+02 0.848478811424989D+02 0.179269741992839D+03
 0.770964026901774D+03 0.156082576240591D+03 -.736122370418170D+03 -.167772512470413D+03
 0.000000000000000D+00 0.000000000000000D+00 0.000000000000000D+00 -.000000000000000D+00
 0.831131334891979D+03 0.000000000000000D+00 0.000000000000000D+00 0.831131334891979D+03
 0.853097265817028D+03 0.000000000000000D+00 0.000000000000000D+00 -.853097265817028D+03
 0.679469958998192D+03 -.157158407630622D+03 0.649017313948804D+03 -.114972295224261D+02
 0.198502867639737D+03 -.133455117179496D+02 0.841881546537631D+02 0.179269741992839D+03
 0.770954159409005D+03 0.143417270043914D+03 -.738684091220707D+03 -.167772512470413D+03
 0.353016146620731D+02 0.270866493046578D+02 0.547862261813940D+01 -.219659309250482D+02
0.296338963395D-04 0.000000000000D+00 0.000000000000D+00 0.294808973409D-07 0.000000000000D+00  6 1 4 25 1 4 21 0 0.35920234D+00 0.44776999D-01 0.57530374D+06 0.57530374D+06 0.57530374D+06 0.10642308D+01  1  2  2  2  6  2        4 0.146537739069D-04 0.100000000000D+01
0.512497333124D-05 0.000000000000D+00 -.113801964728D-06 0.294808973409D-07 0.000000000000D+00  6 1 4 25 1 4 21 2 0.35920234D+00 0.44776999D-01 0.57530374D+06 0.57530374D+06 0.57530374D+06 0.10642308D+01  1  2  3  2  6  2        4 0.287027842215D-05 0.100000000000D+01
-.192812892160D-04 0.000000000000D+00 0.000000000000D+00 0.294808973409D-07 0.000000000000D+00  6 1 4 25 1 4 21 2 0.35920234D+00 0.44776999D-01 0.57530374D+06 0.57530374D+06 0.57530374D+06 0.10642308D+01  1  2 15  2  6  2        4 -.107986256339D-04 0.100000000000D+01
0.141453164599D-03 0.000000000000D+00 0.000000000000D+00 0.294808973409D-07 0.000000000000D+00  6 1 4 25 1 4 21 2 0.35920234D+00 0.46838811D-01 0.59654376D+06 0.59654376D+06 0.59654376D+06 0.10631334D+01  1  2 12  2  6  2        4 0.714285548305D-04 0.100000000000D+01
-.560731103215D-04 0.000000000000D+00 0.000000000000D+00 0.294808973409D-07 0.000000000000D+00  6 1 4 25 1 4 21 2 0.35920234D+00 0.44776999D-01 0.57530374D+06 0.57530374D+06 0.57530374D+06 0.10642308D+01  1  2  4  2  6  2        4 -.314041514397D-04 0.100000000000D+01
-.141593731423D-02 0.000000000000D+00 -.175469600315D-03 0.294808973409D-07 0.000000000000D+00  6 1 4 25 1 4 21 2 0.35920234D+00 0.46699564D-01 0.57530374D+06 0.57530374D+06 0.57530374D+06 0.10642308D+01  1  2  5  2  6  2        4 -.722484323880D-03 0.100000000000D+01
0.142221206176D-02 0.000000000000D+00 0.175314653678D-03 0.294808973409D-07 0.000000000000D+00  6 1 4 25 1 4 21 2 0.35920234D+00 0.44776999D-01 0.57530374D+06 0.57530374D+06 0.57530374D+06 0.10642308D+01  1  2  6  2  6  2        4 0.796520162890D-03 0.100000000000D+01
0.332172246993D-05 0.000000000000D+00 0.000000000000D+00 0.294808973409D-07 0.000000000000D+00  6 1 21 25 1 4 -4 2 0.35920234D+00 0.46838811D-01 0.59654376D+06 0.59654376D+06 0.59654376D+06 0.10631334D+01  1  2 12  6  6  2        4 0.327382340513D-04 0.100000000000D+01
-.103796317151D-04 0.000000000000D+00 -.129995884585D-05 0.294808973409D-07 0.000000000000D+00  6 1 21 25 1 4 -4 2 0.35920234D+00 0.46699564D-01 0.57530374D+06 0.57530374D+06 0.57530374D+06 0.10642308D+01  1  2  5  6  6  2        4 -.103507681342D-03 0.100000000000D+01
  </mgrwgt>
  </event>
  <event>
  5     66 0.19643240E-05 0.15384826E+03 0.75467711E-02 0.82555893E-01
        3 -1    0    0  501    0 0.00000000E+00 0.00000000E+00 0.24607510E+03 0.24607561E+03 0.50000000E+00 0.0000E+00 0.9000E+01
        2 -1    0    0  502    0 0.00000000E+00 0.00000000E+00 -.23661012E+04 0.23661012E+04 0.32000000E+00 0.0000E+00 0.9000E+01
       25  1    1    2    0    0 -.42562421E+03 0.30101204E+03 -.47893880E+03 0.71886827E+03 0.12500000E+03 0.0000E+00 0.9000E+01
        3  1    1    2  501    0 0.56409803E+03 -.23404858E+03 -.65598903E+03 0.89627406E+03 0.50000000E+00 0.0000E+00 0.9000E+01
        2  1    1    2  502    0 -.13847382E+03 -.66963453E+02 -.98509829E+03 0.99703453E+03 0.32000000E+00 0.0000E+00 0.9000E+01
#aMCatNLO 1  0  0  2  2 0.14944315D+04 0.00000000D+00  -5  6  0 0.00000000D+00 0.00000000D+00 0.00000000D+00 0.00000000D+00 0.00000000D+00
  <mgrwgt>
 0.2827472358D-03    3    2    0
 0.763046057274908D+03 0.000000000000000D+00 0.000000000000000D+00 0.763046057274908D+03
 0.763046057274908D+03 0.000000000000000D+00 0.000000000000000D+00 -.763046057274908D+03
 0.565101835003852D+03 -.425536648595275D+03 0.301007996478719D+03 0.178963210417364D+03
 0.622773155899072D+03 0.564036929754210D+03 -.234023233355111D+03 0.122236949536356D+03
 0.338217123646891D+03 -.138500281158935D+03 -.669847631236087D+02 -.301200159953720D+03
 0.000000000000000D+00 -.000000000000000D+00 -.000000000000000D+00 0.000000000000000D+00
 0.233426001315346D+04 0.000000000000000D+00 0.000000000000000D+00 0.233426001315346D+04
 0.150889585389649D+04 0.000000000000000D+00 0.000000000000000D+00 -.150889585389649D+04
 0.640477792617348D+03 -.356557325037779D+02 0.601072076287628D+03 0.178963210417364D+03
 0.116958408965226D+04 0.114368000670106D+04 0.212087513088406D+03 0.122236949536356D+03
 0.325888197963272D+03 0.762694322954162D+02 0.983084681649394D+02 -.301200159953720D+03
 0.170720578681707D+04 -.118429370649270D+04 -.911468057540974D+03 0.825364159256969D+03
0.243297557879D-03 0.000000000000D+00 0.000000000000D+00 0.207067073550D-07 0.000000000000D+00  6 3 2 25 3 2 21 0 0.37857748D-01 0.36401561D+00 0.42283970D+06 0.42283970D+06 0.42283970D+06 0.10736934D+01  1  2  2  2  6  2        2 0.611221597664D-03 0.100000000000D+01
0.198938833181D-04 0.000000000000D+00 -.934326683972D-06 0.207067073550D-07 0.000000000000D+00  6 3 2 25 3 2 21 2 0.37857748D-01 0.36401561D+00 0.42283970D+06 0.42283970D+06 0.42283970D+06 0.10736934D+01  1  2  3  2  6  2        2 0.576157356988D-04 0.100000000000D+01
-.133311347304D-03 0.000000000000D+00 0.000000000000D+00 0.207067073550D-07 0.000000000000D+00  6 3 2 25 3 2 21 2 0.37857748D-01 0.36401561D+00 0.42283970D+06 0.42283970D+06 0.42283970D+06 0.10736934D+01  1  2 15  2  6  2        2 -.386090097599D-03 0.100000000000D+01
  </mgrwgt>
  </event>
  <event>
  5     66 0.19643240E-05 0.28661301E+02 0.75467711E-02 0.90297409E-01
        3 -1    0    0  501    0 0.00000000E+00 0.00000000E+00 0.12745610E+04 0.12745611E+04 0.50000000E+00 0.0000E+00 0.9000E+01
        2 -1    0    0  502    0 0.00000000E+00 0.00000000E+00 -.89377772E+03 0.89377778E+03 0.32000000E+00 0.0000E+00 0.9000E+01
       25  1    1    2    0    0 -.67811672E+03 -.42143999E+02 -.43046022E+03 0.81396524E+03 0.12500000E+03 0.0000E+00 0.9000E+01
        3  1    1    2  501    0 0.13516836E+02 -.25286835E+02 0.67123482E+03 0.67184713E+03 0.50000000E+00 0.0000E+00 0.9000E+01
        2  1    1    2  502    0 0.66459989E+03 0.67430834E+02 0.14000869E+03 0.68252653E+03 0.32000000E+00 0.0000E+00 0.9000E+01
#aMCatNLO 1  0  0  1  4 0.73813127D+00 0.00000000D+00  -5  6  0 0.00000000D+00 0.00000000D+00 0.00000000D+00 0.00000000D+00 0.00000000D+00
  <mgrwgt>
 0.4091030294D-03    7    2    0
 0.106732113629251D+04 0.000000000000000D+00 0.000000000000000D+00 0.106732113629251D+04
 0.106732113629251D+04 0.000000000000000D+00 0.000000000000000D+00 -.106732113629251D+04
 0.903665907764257D+03 -.678267838452052D+03 -.421586617686859D+02 -.582376561526006D+03
 0.562490250685782D+03 0.135114199274208D+02 -.252767027573741D+02 0.561759567738560D+03
 0.668486114134983D+03 0.664756418524631D+03 0.674353645260600D+02 0.206169937874456D+02
 0.000000000000000D+00 -.000000000000000D+00 0.000000000000000D+00 0.000000000000000D+00
 0.113565036148694D+04 0.000000000000000D+00 0.000000000000000D+00 0.113565036148694D+04
 0.109763651536719D+04 0.000000000000000D+00 0.000000000000000D+00 -.109763651536719D+04
 0.882133992052304D+03 -.647591496758220D+03 -.632311145380965D+02 -.582376561526006D+03
 0.564040253948183D+03 0.328628795686866D+02 -.385697715130830D+02 0.561759567738560D+03
 0.690323073855994D+03 0.688097944611519D+03 0.514014054920594D+02 0.206169937874456D+02
 0.967895569976423D+02 -.733693274219861D+02 0.503994805591201D+02 0.380138461197511D+02
0.447215255906D-03 0.000000000000D+00 0.000000000000D+00 0.572171107182D-06 0.000000000000D+00  6 3 2 25 3 2 21 0 0.19608632D+00 0.13750428D+00 0.48150186D+06 0.48150186D+06 0.48150186D+06 0.10696694D+01  1  2  2  1  6  1        3 0.135129609855D-03 0.100000000000D+01
0.290983679443D-03 0.000000000000D+00 -.171742433716D-05 0.572171107182D-06 0.000000000000D+00  6 3 2 25 3 2 21 2 0.19608632D+00 0.13750428D+00 0.48150186D+06 0.48150186D+06 0.48150186D+06 0.10696694D+01  1  2  3  1  6  1        3 0.100600860599D-03 0.100000000000D+01
-.279502811091D-03 0.000000000000D+00 0.000000000000D+00 0.572171107182D-06 0.000000000000D+00  6 3 2 25 3 2 21 2 0.19608632D+00 0.13750428D+00 0.48150186D+06 0.48150186D+06 0.48150186D+06 0.10696694D+01  1  2 15  1  6  1        3 -.966316165545D-04 0.100000000000D+01
-.122182880084D-03 0.000000000000D+00 0.000000000000D+00 0.572171107182D-06 0.000000000000D+00  6 3 2 25 3 2 21 2 0.19608632D+00 0.13750428D+00 0.48150186D+06 0.48150186D+06 0.48150186D+06 0.10696694D+01  1  2  4  1  6  1        3 -.422418979322D-04 0.100000000000D+01
-.600696333225D-02 0.000000000000D+00 -.116489486853D-02 0.572171107182D-06 0.000000000000D+00  6 3 2 25 3 2 21 2 0.21196023D+00 0.13750428D+00 0.48150186D+06 0.48150186D+06 0.48150186D+06 0.10696694D+01  1  2  5  1  6  1        3 -.154003733192D-02 0.100000000000D+01
0.608272470779D-02 0.000000000000D+00 0.116137433636D-02 0.572171107182D-06 0.000000000000D+00  6 3 2 25 3 2 21 2 0.19608632D+00 0.13750428D+00 0.48150186D+06 0.48150186D+06 0.48150186D+06 0.10696694D+01  1  2  6  1  6  1        3 0.210296103741D-02 0.100000000000D+01
-.759103162274D-04 0.000000000000D+00 -.151856287396D-04 0.572171107182D-06 0.000000000000D+00  6 21 2 25 3 2 -3 2 0.21196023D+00 0.13750428D+00 0.48150186D+06 0.48150186D+06 0.48150186D+06 0.10696694D+01  1  2  5  5  6  1        3 -.250677632063D-03 0.100000000000D+01
  </mgrwgt>
  </event>
  <event>
  6     66 0.19643240E-05 0.20787809E+02 0.75467711E-02 0.95055726E-01
        3 -1    0    0  501    0 0.00000000E+00 0.00000000E+00 0.95674043E+03 0.95674056E+03 0.50000000E+00 0.0000E+00 0.9000E+01
        2 -1    0    0  502    0 -.00000000E+00 -.00000000E+00 -.22072831E+04 0.22072831E+04 0.32000000E+00 0.0000E+00 0.9000E+01
       25  1    1    2    0    0 -.40229651E+03 0.20440459E+03 -.15728406E+04 0.16410595E+04 0.12500000E+03 0.0000E+00 0.9000E+01
        3  1    1    2  501    0 -.21377586E+02 -.28966358E+02 0.83146837E+03 0.83224753E+03 0.50000000E+00 0.0000E+00 0.9000E+01
        2  1    1    2  503    0 0.37526635E+03 -.15875725E+03 -.40428797E+03 0.57400136E+03 0.32000000E+00 0.0000E+00 0.9000E+01
       21  1    1    2  502  503 0.48407750E+02 -.16680979E+02 -.10488247E+03 0.11671529E+03 0.75000000E+00 0.0000E+00 0.9000E+01
#aMCatNLO 2  0  0  5  2 0.30996260D+02 0.00000000D+00  -5  6  0 0.00000000D+00 0.00000000D+00 0.00000000D+00 0.00000000D+00 0.00000000D+00
  <mgrwgt>
 0.1874609315D-02    3    2    0
 0.145320240264977D+04 0.000000000000000D+00 0.000000000000000D+00 0.145320240264977D+04
 0.145320240264977D+04 -.000000000000000D+00 -.000000000000000D+00 -.145320240264977D+04
 0.110953823952258D+04 -.404522371476629D+03 0.205327848235584D+03 -.100481452551042D+04
 0.126529145240391D+04 -.238828401085937D+02 -.279282618290870D+02 0.126475771658684D+04
 0.531575113373047D+03 0.428405211585223D+03 -.177399586406497D+03 -.259943191076419D+03
 0.000000000000000D+00 0.000000000000000D+00 0.000000000000000D+00 -.000000000000000D+00
 0.145320240264977D+04 0.000000000000000D+00 0.000000000000000D+00 0.145320240264977D+04
 0.145320240264977D+04 -.000000000000000D+00 -.000000000000000D+00 -.145320240264977D+04
 0.110977999923025D+04 -.402320516890572D+03 0.204416075730650D+03 -.100615054358842D+04
 0.126374808797069D+04 -.213737013951568D+02 -.289672785309454D+02 0.126323524789041D+04
 0.450829894471600D+03 0.375214042948601D+03 -.158742445982958D+03 -.193035881552594D+03
 0.820468236270027D+02 0.484801753371284D+02 -.167063512167467D+02 -.640488227494033D+02
-.157677875488D-01 0.000000000000D+00 0.000000000000D+00 0.102526058244D-04 0.000000000000D+00  6 3 2 25 3 2 21 2 0.14719085D+00 0.33958203D+00 0.23182059D+06 0.23182059D+06 0.23182059D+06 0.10929343D+01  1  2 13  4  6  5        2 -.272802980882D-02 0.100000000000D+01
-.278915559649D-01 0.000000000000D+00 0.000000000000D+00 0.102526058244D-04 0.000000000000D+00  6 3 2 25 3 2 21 2 0.14719085D+00 0.33958203D+00 0.23570350D+06 0.23570350D+06 0.23570350D+06 0.10923883D+01  1  2  8  4  6  5        2 -.481448298377D-02 0.100000000000D+01
0.544301899590D-01 0.000000000000D+00 0.000000000000D+00 0.102526058244D-04 0.111657875851D-06  6 3 2 25 3 2 21 2 0.14719085D+00 0.33958203D+00 0.23182059D+06 0.23182059D+06 0.23182059D+06 0.10929343D+01  1  2  1  4  6  5        2 0.941712210723D-02 0.100000000000D+01
  </mgrwgt>
  </event>
  <event>
  6     66 -.19643240E-05 0.99382937E+02 0.75467711E-02 0.92924571E-01
        3 -1    0    0  501    0 0.00000000E+00 0.00000000E+00 0.36084587E+03 0.36084622E+03 0.50000000E+00 0.0000E+00 0.9000E+01
        2 -1    0    0  502    0 -.00000000E+00 -.00000000E+00 -.21720063E+04 0.21720063E+04 0.32000000E+00 0.0000E+00 0.9000E+01
       25  1    1    2    0    0 0.45569796E+03 -.21836580E+03 -.41328211E+03 0.66465882E+03 0.12500000E+03 0.0000E+00 0.9000E+01
        3  1    1    2  501    0 -.17175229E+02 -.10059825E+03 0.17600963E+03 0.20345672E+03 0.50000000E+00 0.0000E+00 0.9000E+01
        2  1    1    2  503    0 -.37956976E+03 0.27819755E+03 -.13785263E+04 0.14566406E+04 0.32000000E+00 0.0000E+00 0.9000E+01
       21  1    1    2  502  503 -.58952975E+02 0.40766497E+02 -.19536164E+03 0.20809636E+03 0.75000000E+00 0.0000E+00 0.9000E+01
#aMCatNLO 2  0  0  5  2 0.44919726D+01 0.00000000D+00  -5  6  0 0.00000000D+00 0.00000000D+00 0.00000000D+00 0.00000000D+00 0.00000000D+00
  <mgrwgt>
 -.2616965444D-03    2    2    0
 0.885302194500379D+03 0.000000000000000D+00 0.000000000000000D+00 0.885302194500379D+03
 0.885302194500379D+03 -.000000000000000D+00 -.000000000000000D+00 -.885302194500379D+03
 0.528224343413380D+03 0.455818423494509D+03 -.218480213438531D+03 0.888364683749349D+02
 0.470918413571498D+03 -.171501397004850D+02 -.100570432585081D+03 0.459734285254646D+03
 0.771461632015879D+03 -.438668283794024D+03 0.319050646023611D+03 -.548570753629581D+03
 0.000000000000000D+00 -.000000000000000D+00 0.000000000000000D+00 0.000000000000000D+00
 0.885302194500379D+03 0.000000000000000D+00 0.000000000000000D+00 0.885302194500379D+03
 0.885302194500379D+03 -.000000000000000D+00 -.000000000000000D+00 -.885302194500379D+03
 0.528196457354337D+03 0.455798128619738D+03 -.218465452642854D+03 0.888110888908020D+02
 0.470894173816248D+03 -.171682328396065D+02 -.100557273147896D+03 0.459711659121575D+03
 0.675093951406915D+03 -.380467220727311D+03 0.278839840162306D+03 -.482954325704303D+03
 0.964198064232575D+02 -.581626750528200D+02 0.401828856284447D+02 -.655684223080734D+02
-.154779228025D-02 0.000000000000D+00 0.000000000000D+00 0.116114533895D-05 0.000000000000D+00  6 3 2 25 3 2 21 2 0.55514778D-01 0.33415484D+00 0.33935795D+06 0.33935795D+06 0.33935795D+06 0.10806131D+01  1  2 13  4  6  5        2 -.273388924470D-02 0.100000000000D+01
0.139963269696D-02 0.000000000000D+00 0.000000000000D+00 0.116114533895D-05 0.249957487914D-06  6 3 2 25 3 2 21 2 0.55514778D-01 0.33415484D+00 0.33935795D+06 0.33935795D+06 0.33935795D+06 0.10806131D+01  1  2  1  4  6  5        2 0.247219270025D-02 0.100000000000D+01
  </mgrwgt>
  </event>
  <event>
  6     66 0.19643240E-05 0.63063160E+02 0.75467711E-02 0.90394213E-01
        3 -1    0    0  501    0 0.00000000E+00 0.00000000E+00 0.59250715E+03 0.59250736E+03 0.50000000E+00 0.0000E+00 0.9000E+01
        2 -1    0    0  503    0 0.00000000E+00 0.00000000E+00 -.31072141E+04 0.31072141E+04 0.32000000E+00 0.0000E+00 0.9000E+01
       25  1    1    2    0    0 -.69201085E+03 -.89054881E+02 -.21845983E+03 0.74172737E+03 0.12500000E+03 0.0000E+00 0.9000E+01
        3  1    1    2  501    0 0.56997567E+01 -.65437291E+02 0.27514384E+03 0.28287613E+03 0.50000000E+00 0.0000E+00 0.9000E+01
        2  1    1    2  502    0 0.68157977E+03 0.15236169E+03 -.23005089E+04 0.24041852E+04 0.32000000E+00 0.0000E+00 0.9000E+01
       21  1    1    2  503  502 0.47313208E+01 0.21304787E+01 -.27088203E+03 0.27093276E+03 0.75000000E+00 0.0000E+00 0.9000E+01
#aMCatNLO 2  0  0  2  5 0.51888665D+01 0.00000000D+00  -5  6  0 0.00000000D+00 0.00000000D+00 0.00000000D+00 0.00000000D+00 0.00000000D+00
  <mgrwgt>
 0.2542014038D-03    5    2    0
 0.129632314068552D+04 0.000000000000000D+00 0.000000000000000D+00 0.129632314068552D+04
 0.129632314068552D+04 0.000000000000000D+00 0.000000000000000D+00 -.129632314068552D+04
 0.790746536280907D+03 -.690693937244018D+03 -.884542821822129D+02 0.353231948807347D+03
 0.611930968682976D+03 0.681412447581331D+01 -.649070698731785D+02 0.608440753419256D+03
 0.118996877640716D+04 0.683879812768205D+03 0.153361352055391D+03 -.961672702226604D+03
 0.000000000000000D+00 0.000000000000000D+00 0.000000000000000D+00 -.000000000000000D+00
 0.129638010042468D+04 0.000000000000000D+00 0.000000000000000D+00 0.129638010042468D+04
 0.142014192588068D+04 0.000000000000000D+00 0.000000000000000D+00 -.142014192588068D+04
 0.792081253806874D+03 -.692138187186324D+03 -.891046172342483D+02 0.353231948807347D+03
 0.611973095808137D+03 0.569737419786208D+01 -.654099342520148D+02 0.608440753419256D+03
 0.118859712419374D+04 0.681709492227824D+03 0.152384072790759D+03 -.961672702226604D+03
 0.123870552496601D+03 0.473132076063874D+01 0.213047869550443D+01 -.123761825455999D+03
-.128996199467D-01 0.000000000000D+00 0.000000000000D+00 0.609905732108D-05 0.000000000000D+00  6 3 2 25 3 2 21 2 0.91150878D-01 0.47814538D+00 0.54636981D+06 0.54636981D+06 0.54636981D+06 0.10657988D+01  1  2 13  2  6  2        2 -.198127741136D-02 0.100000000000D+01
-.316385463790D-03 0.000000000000D+00 0.000000000000D+00 0.609905732108D-05 0.000000000000D+00  6 3 2 25 3 2 21 2 0.91150878D-01 0.43635402D+00 0.54286970D+06 0.54286970D+06 0.54286970D+06 0.10659946D+01  1  2  8  2  6  2        2 -.723359708431D-04 0.100000000000D+01
-.277251953565D-03 0.000000000000D+00 0.000000000000D+00 0.609905732108D-05 0.000000000000D+00  6 3 2 25 3 2 21 2 0.91150878D-01 0.47803776D+00 0.54286970D+06 0.54286970D+06 0.54286970D+06 0.10659946D+01  1  2  9  2  6  2        2 -.426661922775D-04 0.100000000000D+01
0.276102022132D-03 0.000000000000D+00 0.000000000000D+00 0.609905732108D-05 0.000000000000D+00  6 3 2 25 3 2 21 2 0.91150878D-01 0.43635402D+00 0.54286970D+06 0.54286970D+06 0.54286970D+06 0.10659946D+01  1  2 10  2  6  2        2 0.631258705233D-04 0.100000000000D+01
0.148775600094D-01 0.000000000000D+00 0.000000000000D+00 0.609905732108D-05 0.155227594568D-05  6 3 2 25 3 2 21 2 0.91154883D-01 0.47803253D+00 0.54636981D+06 0.54636981D+06 0.54636981D+06 0.10657988D+01  1  2  1  2  6  2        2 0.228735510772D-02 0.100000000000D+01
  </mgrwgt>
  </event>
  <event>
  5     66 0.19643240E-05 0.22680041E+03 0.75467711E-02 0.89413774E-01
        3 -1    0    0  501    0 0.00000000E+00 0.00000000E+00 0.15438159E+04 0.15438160E+04 0.50000000E+00 0.0000E+00 0.9000E+01
        2 -1    0    0  502    0 0.00000000E+00 0.00000000E+00 -.91848331E+03 0.91848336E+03 0.32000000E+00 0.0000E+00 0.9000E+01
       25  1    1    2    0    0 0.33842030E+03 0.37809123E+03 0.88128644E+03 0.10245839E+04 0.12500000E+03 0.0000E+00 0.9000E+01
        3  1    1    2  501    0 -.25538922E+03 -.16708985E+03 0.53443838E+03 0.61544075E+03 0.50000000E+00 0.0000E+00 0.9000E+01
        2  1    1    2  502    0 -.83031081E+02 -.21100138E+03 -.79039224E+03 0.82227474E+03 0.32000000E+00 0.0000E+00 0.9000E+01
#aMCatNLO 1  0  0  2  1 0.89519040D+02 0.00000000D+00  -5  6  0 0.00000000D+00 0.00000000D+00 0.00000000D+00 0.00000000D+00 0.00000000D+00
  <mgrwgt>
 0.1698885262D-03    7    2    0
 0.119078515986651D+04 0.000000000000000D+00 0.000000000000000D+00 0.119078515986651D+04
 0.119078515986651D+04 0.000000000000000D+00 0.000000000000000D+00 -.119078515986651D+04
 0.828090373215195D+03 0.338294465022477D+03 0.378041253048921D+03 0.642456482681932D+03
 0.495689979733772D+03 -.255242964330148D+03 -.166994162935211D+03 0.390733329412777D+03
 0.105778996678406D+04 -.830515006923286D+02 -.211047090113710D+03 -.103318981209471D+04
 0.000000000000000D+00 -.000000000000000D+00 0.000000000000000D+00 -.000000000000000D+00
 0.130326569867688D+04 0.000000000000000D+00 0.000000000000000D+00 0.130326569867688D+04
 0.172210863018381D+04 0.000000000000000D+00 0.000000000000000D+00 -.172210863018381D+04
 0.832684302841164D+03 0.440099332930058D+03 0.267021334751653D+03 0.642456482681932D+03
 0.494872626086595D+03 -.194521846231699D+03 -.233211562051413D+03 0.390733329412777D+03
 0.109352159291683D+04 0.488230951339205D+02 -.354858551736607D+03 -.103318981209471D+04
 0.604295807016102D+03 -.294400581832280D+03 0.321048779036367D+03 -.418842931506925D+03
0.958704463189D-03 0.000000000000D+00 0.000000000000D+00 0.125206665641D-05 0.000000000000D+00  6 3 2 25 3 2 21 0 0.23751015D+00 0.14130513D+00 0.27788530D+06 0.27788530D+06 0.27788530D+06 0.10870209D+01  1  2  2  2  6  2        2 0.131691541129D-03 0.100000000000D+01
0.781462019763D-04 0.000000000000D+00 -.368167757133D-05 0.125206665641D-05 0.000000000000D+00  6 3 2 25 3 2 21 2 0.23751015D+00 0.14130513D+00 0.27788530D+06 0.27788530D+06 0.27788530D+06 0.10870209D+01  1  2  3  2  6  2        2 0.126840157934D-04 0.100000000000D+01
-.599316870719D-03 0.000000000000D+00 0.000000000000D+00 0.125206665641D-05 0.000000000000D+00  6 3 2 25 3 2 21 2 0.23751015D+00 0.14130513D+00 0.27788530D+06 0.27788530D+06 0.27788530D+06 0.10870209D+01  1  2 15  2  6  2        2 -.972759323064D-04 0.100000000000D+01
-.539026922033D-04 0.000000000000D+00 0.000000000000D+00 0.125206665641D-05 0.000000000000D+00  6 3 2 25 3 2 21 2 0.23751015D+00 0.14130513D+00 0.27788530D+06 0.27788530D+06 0.27788530D+06 0.10870209D+01  1  2  4  2  6  2        2 -.874901891483D-05 0.100000000000D+01
-.130476308133D-02 0.000000000000D+00 -.673577591538D-03 0.125206665641D-05 0.000000000000D+00  6 3 2 25 3 2 21 2 0.23751015D+00 0.21365820D+00 0.27788530D+06 0.27788530D+06 0.27788530D+06 0.10870209D+01  1  2  5  2  6  2        2 -.111600619985D-03 0.100000000000D+01
0.150639553350D-02 0.000000000000D+00 0.619839114171D-03 0.125206665641D-05 0.000000000000D+00  6 3 2 25 3 2 21 2 0.23751015D+00 0.14130513D+00 0.27788530D+06 0.27788530D+06 0.27788530D+06 0.10870209D+01  1  2  6  2  6  2        2 0.244505097558D-03 0.100000000000D+01
-.396043152311D-04 0.000000000000D+00 -.328531465467D-04 0.125206665641D-05 0.000000000000D+00  6 3 21 25 3 2 -2 2 0.23751015D+00 0.21365820D+00 0.27788530D+06 0.27788530D+06 0.27788530D+06 0.10870209D+01  1  2  5  6  6  2        2 -.136655703639D-05 0.100000000000D+01
  </mgrwgt>
  </event>
  <event>
  6     66 -.19643240E-05 0.24892968E+02 0.75467711E-02 0.95394478E-01
        1 -1    0    0  501    0 0.00000000E+00 0.00000000E+00 0.18984193E+04 0.18984193E+04 0.32000000E+00 0.0000E+00 0.9000E+01
        4 -1    0    0  503    0 0.00000000E+00 0.00000000E+00 -.32581351E+03 0.32581720E+03 0.15500000E+01 0.0000E+00 0.9000E+01
       25  1    1    2    0    0 0.31366884E+03 0.32244202E+03 0.72493076E+03 0.86226829E+03 0.12500000E+03 0.0000E+00 0.9000E+01
        1  1    1    2  501    0 -.30452930E+03 -.31003765E+03 0.10519461E+04 0.11381793E+04 0.32000000E+00 0.0000E+00 0.9000E+01
        4  1    1    2  502    0 -.29908770E+02 -.20005550E+02 -.26673068E+02 0.44817537E+02 0.15500000E+01 0.0000E+00 0.9000E+01
       21  1    1    2  503  502 0.20769234E+02 0.76011821E+01 -.17759801E+03 0.17897138E+03 0.75000000E+00 0.0000E+00 0.9000E+01
#aMCatNLO 2  0  0  2  5 0.22116488D+02 0.00000000D+00  -5  6  0 0.00000000D+00 0.00000000D+00 0.00000000D+00 0.00000000D+00 0.00000000D+00
  <mgrwgt>
 -.1574778947D-02    1    2    0
 0.529010167567998D+03 0.000000000000000D+00 0.000000000000000D+00 0.529010167567998D+03
 0.529010167567998D+03 0.000000000000000D+00 0.000000000000000D+00 -.529010167567998D+03
 0.476224218225905D+03 0.322984121820405D+03 0.325895826894180D+03 -.252521898007959D+02
 0.451976745273913D+03 -.295657130518576D+03 -.306842006991069D+03 0.150724325135705D+03
 0.129819371636178D+03 -.273269913018286D+02 -.190538199031104D+02 -.125472135334909D+03
 0.000000000000000D+00 0.000000000000000D+00 0.000000000000000D+00 -.000000000000000D+00
 0.529316975242517D+03 0.000000000000000D+00 0.000000000000000D+00 0.529316975242517D+03
 0.116855175197026D+04 0.000000000000000D+00 0.000000000000000D+00 -.116855175197026D+04
 0.467646636881251D+03 0.313720909633688D+03 0.322505650733782D+03 -.252521898007959D+02
 0.460083773389322D+03 -.304608153919490D+03 -.310117927431329D+03 0.150724325135705D+03
 0.130521057300015D+03 -.298819898177464D+02 -.199889053663297D+02 -.125472135334909D+03
 0.639617259642188D+03 0.207692341035486D+02 0.760118206387655D+01 -.639234776727741D+03
-.183679311259D-02 0.000000000000D+00 0.000000000000D+00 0.309410192888D-06 0.000000000000D+00  6 1 4 25 1 4 21 2 0.29189539D+00 0.52230240D-01 0.23026873D+06 0.23026873D+06 0.23026873D+06 0.10931554D+01  1  2 13  2  6  2        4 -.157477894680D-02 0.100000000000D+01
  </mgrwgt>
  </event>
  <event>
  5     66 0.19643240E-05 0.51997153E+02 0.75467711E-02 0.88822193E-01
        3 -1    0    0  501    0 0.00000000E+00 0.00000000E+00 0.41795292E+03 0.41795321E+03 0.50000000E+00 0.0000E+00 0.9000E+01
        2 -1    0    0  502    0 0.00000000E+00 0.00000000E+00 -.24312851E+04 0.24312852E+04 0.32000000E+00 0.0000E+00 0.9000E+01
       25  1    1    2    0    0 0.34287789E+03 -.38390789E+03 -.40112886E+03 0.66443952E+03 0.12500000E+03 0.0000E+00 0.9000E+01
        3  1    1    2  501    0 -.29783544E+03 0.35795335E+03 0.96295000E+02 0.47550976E+03 0.50000000E+00 0.0000E+00 0.9000E+01
        2  1    1    2  502    0 -.45042449E+02 0.25954540E+02 -.17084984E+04 0.17092891E+04 0.32000000E+00 0.0000E+00 0.9000E+01
#aMCatNLO 1  0  0  1  5 0.49434032D+02 0.00000000D+00  -5  6  0 0.00000000D+00 0.00000000D+00 0.00000000D+00 0.00000000D+00 0.00000000D+00
  <mgrwgt>
 0.1397709399D-02    6    2    0
 0.100804919042456D+04 0.000000000000000D+00 0.000000000000000D+00 0.100804919042456D+04
 0.100804919042456D+04 0.000000000000000D+00 0.000000000000000D+00 -.100804919042456D+04
 0.538423443119754D+03 0.342848514525553D+03 -.383866376286888D+03 0.968313241927729D+02
 0.768071644645082D+03 -.297795796067823D+03 0.357905704793510D+03 0.610864323420834D+03
 0.709603293084284D+03 -.450527184577294D+02 0.259606714933778D+02 -.707695647613607D+03
 0.000000000000000D+00 -.000000000000000D+00 -.000000000000000D+00 0.000000000000000D+00
 0.180626181663255D+04 0.000000000000000D+00 0.000000000000000D+00 0.180626181663255D+04
 0.113835811440822D+04 0.000000000000000D+00 0.000000000000000D+00 -.113835811440822D+04
 0.621792776079393D+03 0.490711479389098D+03 -.347602064198926D+03 0.968313241927729D+02
 0.740517073150671D+03 -.105534735688106D+03 0.405058926037293D+03 0.610864323420834D+03
 0.724435495143869D+03 0.137707376986467D+03 0.707837219748169D+02 -.707695647613607D+03
 0.857874586666839D+03 -.522884120687458D+03 -.128240583813184D+03 0.667903702224324D+03
0.983596416691D-03 0.000000000000D+00 0.000000000000D+00 0.186212434891D-04 0.000000000000D+00  6 3 2 25 3 2 21 0 0.64300473D-01 0.37404389D+00 0.27417632D+06 0.27417632D+06 0.27417632D+06 0.10874559D+01  1  2  2  1  6  1        3 0.788411070645D-03 0.100000000000D+01
0.424522183515D-03 0.000000000000D+00 -.377726922698D-05 0.186212434891D-04 0.000000000000D+00  6 3 2 25 3 2 21 2 0.64300473D-01 0.37404389D+00 0.27417632D+06 0.27417632D+06 0.27417632D+06 0.10874559D+01  1  2  3  1  6  1        3 0.402401400965D-03 0.100000000000D+01
-.632443378258D-03 0.000000000000D+00 0.000000000000D+00 0.186212434891D-04 0.000000000000D+00  6 3 2 25 3 2 21 2 0.64300473D-01 0.37404389D+00 0.27417632D+06 0.27417632D+06 0.27417632D+06 0.10874559D+01  1  2 15  1  6  1        3 -.599488345545D-03 0.100000000000D+01
-.898178495590D-03 0.000000000000D+00 -.561921997915D-03 0.186212434891D-04 0.000000000000D+00  6 3 2 25 3 2 21 2 0.12580111D+00 0.37404389D+00 0.27417632D+06 0.27417632D+06 0.27417632D+06 0.10874559D+01  1  2  5  1  6  1        3 -.175358575643D-03 0.100000000000D+01
0.111994783375D-02 0.000000000000D+00 0.455442866293D-03 0.186212434891D-04 0.000000000000D+00  6 3 2 25 3 2 21 2 0.64300473D-01 0.37404389D+00 0.27417632D+06 0.27417632D+06 0.27417632D+06 0.10874559D+01  1  2  6  1  6  1        3 0.106159017081D-02 0.100000000000D+01
-.322329151518D-04 0.000000000000D+00 -.408588083860D-04 0.186212434891D-04 0.000000000000D+00  6 21 2 25 3 2 -3 2 0.12580111D+00 0.37404389D+00 0.27417632D+06 0.27417632D+06 0.27417632D+06 0.10874559D+01  1  2  5  5  6  1        3 -.798463223922D-04 0.100000000000D+01
  </mgrwgt>
  </event>
  <event>
  5     66 0.19643240E-05 0.72426075E+02 0.75467711E-02 0.92905960E-01
        3 -1    0    0  501    0 0.00000000E+00 0.00000000E+00 0.21587697E+04 0.21587697E+04 0.50000000E+00 0.0000E+00 0.9000E+01
        2 -1    0    0  502    0 0.00000000E+00 0.00000000E+00 -.20064245E+04 0.20064245E+04 0.32000000E+00 0.0000E+00 0.9000E+01
       25  1    1    2    0    0 0.33627071E+02 -.50631007E+03 -.99673918E+03 0.11254309E+04 0.12500000E+03 0.0000E+00 0.9000E+01
        3  1    1    2  501    0 -.49951119E+02 0.43574732E+03 0.20700242E+04 0.21159800E+04 0.50000000E+00 0.0000E+00 0.9000E+01
        2  1    1    2  502    0 0.16324048E+02 0.70562746E+02 -.92093984E+03 0.92378345E+03 0.32000000E+00 0.0000E+00 0.9000E+01
#aMCatNLO 1  0  0  2  5 0.14210295D+02 0.00000000D+00  -5  6  0 0.00000000D+00 0.00000000D+00 0.00000000D+00 0.00000000D+00 0.00000000D+00
  <mgrwgt>
 0.1005683591D-01    7    2    0
 0.208120363966926D+04 0.000000000000000D+00 0.000000000000000D+00 0.208120363966926D+04
 0.208120363966926D+04 0.000000000000000D+00 0.000000000000000D+00 -.208120363966926D+04
 0.116267054699807D+04 0.336271732894404D+02 -.506309900043306D+03 -.103860353320769D+04
 0.204163368921638D+04 -.499511290837595D+02 0.435747411448490D+03 0.199396519504792D+04
 0.958103043124065D+03 0.163239557943191D+02 0.705624885948168D+02 -.955361661840230D+03
 0.000000000000000D+00 -.000000000000000D+00 -.000000000000000D+00 -.000000000000000D+00
 0.208429093925105D+04 0.000000000000000D+00 0.000000000000000D+00 0.208429093925105D+04
 0.292597139984898D+04 0.000000000000000D+00 0.000000000000000D+00 -.292597139984898D+04
 0.115234349579351D+04 0.411475353203283D+02 -.481539316612027D+03 -.103860353320769D+04
 0.205114589484159D+04 -.366556658097538D+02 0.479540034853267D+03 0.199396519504792D+04
 0.959958972373766D+03 0.225548124922094D+02 0.910856967927090D+02 -.955361661840230D+03
 0.846813976091156D+03 -.270466820027839D+02 -.890864150339484D+02 -.841680460597935D+03
0.463870458965D-01 0.000000000000D+00 0.000000000000D+00 0.298961187546D-03 0.000000000000D+00  6 3 2 25 3 2 21 0 0.33211842D+00 0.30868070D+00 0.26709368D+06 0.26709368D+06 0.26709368D+06 0.10883048D+01  1  2  2  2  6  2        2 0.209402802445D-03 0.100000000000D+01
0.937663252843D-02 0.000000000000D+00 -.178138470232D-03 0.298961187546D-03 0.000000000000D+00  6 3 2 25 3 2 21 2 0.33211842D+00 0.30868070D+00 0.26709368D+06 0.26709368D+06 0.26709368D+06 0.10883048D+01  1  2  3  2  6  2        2 0.501341618365D-04 0.100000000000D+01
-.301450073950D-01 0.000000000000D+00 0.000000000000D+00 0.298961187546D-03 0.000000000000D+00  6 3 2 25 3 2 21 2 0.33211842D+00 0.30868070D+00 0.26709368D+06 0.26709368D+06 0.26709368D+06 0.10883048D+01  1  2 15  2  6  2        2 -.161176699067D-03 0.100000000000D+01
-.248064707692D+00 0.000000000000D+00 0.000000000000D+00 0.298961187546D-03 0.000000000000D+00  6 3 2 25 3 2 21 2 0.33211842D+00 0.30868070D+00 0.26709368D+06 0.26709368D+06 0.26709368D+06 0.10883048D+01  1  2  4  2  6  2        2 -.132633076572D-02 0.100000000000D+01
-.348278593238D+01 0.000000000000D+00 -.299575351068D-01 0.298961187546D-03 0.000000000000D+00  6 3 2 25 3 2 21 2 0.33211842D+00 0.43412730D+00 0.26709368D+06 0.26709368D+06 0.26709368D+06 0.10883048D+01  1  2  5  2  6  2        2 -.634175553800D-02 0.100000000000D+01
0.330084903764D+01 0.000000000000D+00 0.282960840300D-01 0.298961187546D-03 0.000000000000D+00  6 3 2 25 3 2 21 2 0.33211842D+00 0.30868070D+00 0.26709368D+06 0.26709368D+06 0.26709368D+06 0.10883048D+01  1  2  6  2  6  2        2 0.176486920383D-01 0.100000000000D+01
-.146845900881D+00 0.000000000000D+00 -.127012509504D-02 0.298961187546D-03 0.000000000000D+00  6 3 21 25 3 2 -2 2 0.33211842D+00 0.43412730D+00 0.26709368D+06 0.26709368D+06 0.26709368D+06 0.10883048D+01  1  2  5  6  6  2        2 -.221300894913D-04 0.100000000000D+01
  </mgrwgt>
  </event>
  <event>
  5     66 0.19643240E-05 0.14124283E+03 0.75467711E-02 0.91023236E-01
        3 -1    0    0  501    0 0.00000000E+00 0.00000000E+00 0.49936335E+03 0.49936360E+03 0.50000000E+00 0.0000E+00 0.9000E+01
        2 -1    0    0  502    0 0.00000000E+00 0.00000000E+00 -.20359179E+04 0.20359180E+04 0.32000000E+00 0.0000E+00 0.9000E+01
       25  1    1    2    0    0 0.48958811E+03 0.16090445E+03 -.15675723E+03 0.55297793E+03 0.12500000E+03 0.0000E+00 0.9000E+01
        3  1    1    2  501    0 -.43556043E+03 -.30440140E+02 0.13803031E+03 0.45792151E+03 0.50000000E+00 0.0000E+00 0.9000E+01
        2  1    1    2  502    0 -.54027679E+02 -.13046431E+03 -.15178277E+04 0.15243821E+04 0.32000000E+00 0.0000E+00 0.9000E+01
#aMCatNLO 1  0  0  1  4 0.21353701D+02 0.00000000D+00  -5  6  0 0.00000000D+00 0.00000000D+00 0.00000000D+00 0.00000000D+00 0.00000000D+00
  <mgrwgt>
 0.2337257741D-03    4    2    0
 0.100829715458035D+04 0.000000000000000D+00 0.000000000000000D+00 0.100829715458035D+04
 0.100829715458035D+04 0.000000000000000D+00 0.000000000000000D+00 -.100829715458035D+04
 0.575795708139673D+03 0.489509378406794D+03 0.160928203707890D+03 0.224495833402792D+03
 0.680728481881834D+03 -.435466054899359D+03 -.304335440833359D+02 0.522335505657104D+03
 0.760070119139185D+03 -.540433235074345D+02 -.130494659624554D+03 -.746831339059896D+03
 0.000000000000000D+00 0.000000000000000D+00 0.000000000000000D+00 -.000000000000000D+00
 0.107943722114972D+04 0.000000000000000D+00 0.000000000000000D+00 0.107943722114972D+04
 0.117461547944893D+04 0.000000000000000D+00 0.000000000000000D+00 -.117461547944893D+04
 0.526368224157812D+03 0.437995090615525D+03 0.138565611839781D+03 0.224495833402792D+03
 0.726323175837704D+03 -.501230558625999D+03 -.589822209515192D+02 0.522335505657104D+03
 0.774401241080589D+03 -.125763325352392D+03 -.161628645918558D+03 -.746831339059896D+03
 0.226960059522547D+03 0.188998793362867D+03 0.820452550302955D+02 -.951782582992147D+02
0.609321245844D-03 0.000000000000D+00 0.000000000000D+00 0.204368964754D-05 0.000000000000D+00  6 3 2 25 3 2 21 0 0.76825152D-01 0.31321817D+00 0.30691578D+06 0.30691578D+06 0.30691578D+06 0.10838203D+01  1  2  2  1  6  1        3 0.547773539171D-03 0.100000000000D+01
0.103285114140D-03 0.000000000000D+00 -.233995402201D-05 0.204368964754D-05 0.000000000000D+00  6 3 2 25 3 2 21 2 0.76825152D-01 0.31321817D+00 0.30691578D+06 0.30691578D+06 0.30691578D+06 0.10838203D+01  1  2  3  1  6  1        3 0.109070435785D-03 0.100000000000D+01
-.392230792825D-03 0.000000000000D+00 0.000000000000D+00 0.204368964754D-05 0.000000000000D+00  6 3 2 25 3 2 21 2 0.76825152D-01 0.31321817D+00 0.30691578D+06 0.30691578D+06 0.30691578D+06 0.10838203D+01  1  2 15  1  6  1        3 -.414200863870D-03 0.100000000000D+01
-.844434299387D-05 0.000000000000D+00 0.000000000000D+00 0.204368964754D-05 0.000000000000D+00  6 3 2 25 3 2 21 2 0.76825152D-01 0.31321817D+00 0.30691578D+06 0.30691578D+06 0.30691578D+06 0.10838203D+01  1  2  4  1  6  1        3 -.891733700377D-05 0.100000000000D+01
  </mgrwgt>
  </event>
  <event>
  5     66 -.19643240E-05 0.49872378E+02 0.75467711E-02 0.92740768E-01
        3 -1    0    0  501    0 0.00000000E+00 0.00000000E+00 0.52162144E+03 0.52162168E+03 0.50000000E+00 0.0000E+00 0.9000E+01
        2 -1    0    0  502    0 -.00000000E+00 -.00000000E+00 -.12300750E+04 0.12300751E+04 0.32000000E+00 0.0000E+00 0.9000E+01
       25  1    1    2    0    0 -.27449207E+03 -.48574200E+03 -.36098540E+03 0.67618537E+03 0.12500000E+03 0.0000E+00 0.9000E+01
        3  1    1    2  501    0 0.42015571E+02 -.26926943E+02 0.24982401E+03 0.25475999E+03 0.50000000E+00 0.0000E+00 0.9000E+01
        2  1    1    2  502    0 0.23247650E+03 0.51266895E+03 -.59729221E+03 0.82075140E+03 0.32000000E+00 0.0000E+00 0.9000E+01
#aMCatNLO 1  0  0  5  2 0.25399847D+02 0.00000000D+00  -5  6  0 0.00000000D+00 0.00000000D+00 0.00000000D+00 0.00000000D+00 0.00000000D+00
  <mgrwgt>
 -.3367535312D-03    1    2    0
 0.801020447549743D+03 0.000000000000000D+00 0.000000000000000D+00 0.801020447549743D+03
 0.801020447549743D+03 -.000000000000000D+00 -.000000000000000D+00 -.801020447549743D+03
 0.579857822139159D+03 -.274552227700030D+03 -.485903757960733D+03 -.955442628343408D+02
 0.388791961051044D+03 0.419892911181458D+02 -.269101005400850D+02 0.385579998052589D+03
 0.633391111909282D+03 0.232562936581884D+03 0.512813858500818D+03 -.290035735218249D+03
 0.000000000000000D+00 -.000000000000000D+00 0.000000000000000D+00 0.000000000000000D+00
 0.801020447549743D+03 0.000000000000000D+00 0.000000000000000D+00 0.801020447549743D+03
 0.801020447549743D+03 -.000000000000000D+00 -.000000000000000D+00 -.801020447549743D+03
 0.387961978407148D+03 -.157301762358526D+03 -.227360137784083D+03 -.241770593735659D+03
 0.348323876221525D+03 0.131290186679504D+03 0.170003205997369D+03 0.274210356438749D+03
 0.446913654780094D+03 0.374352412995189D+03 0.179447521137006D+03 0.165501277552059D+03
 0.418841385690718D+03 -.348340837316168D+03 -.122090589350292D+03 -.197941040255150D+03
-.128065065830D-03 0.000000000000D+00 0.000000000000D+00 0.122769544242D-05 0.000000000000D+00  6 3 2 25 3 2 21 2 0.80249474D-01 0.18924234D+00 0.35099020D+06 0.35099020D+06 0.35099020D+06 0.10795438D+01  1  2 14  4  6  5        2 -.336753531190D-03 0.100000000000D+01
  </mgrwgt>
  </event>
  <event>
  6     66 0.19643240E-05 0.33923753E+02 0.75467711E-02 0.90850172E-01
        3 -1    0    0  501    0 0.00000000E+00 0.00000000E+00 0.15010402E+04 0.15010403E+04 0.50000000E+00 0.0000E+00 0.9000E+01
        2 -1    0    0  503    0 0.00000000E+00 0.00000000E+00 -.16203536E+04 0.16203537E+04 0.32000000E+00 0.0000E+00 0.9000E+01
       25  1    1    2    0    0 0.64965569E+03 0.13477693E+03 0.74598586E+03 0.10061497E+04 0.12500000E+03 0.0000E+00 0.9000E+01
        3  1    1    2  501    0 -.97822660E+01 0.10203031E+02 0.52304460E+03 0.52323580E+03 0.50000000E+00 0.0000E+00 0.9000E+01
        2  1    1    2  502    0 -.66005264E+03 -.18065482E+03 -.10639044E+04 0.12649895E+04 0.32000000E+00 0.0000E+00 0.9000E+01
       21  1    1    2  503  502 0.20179216E+02 0.35674859E+02 -.32443946E+03 0.32701900E+03 0.75000000E+00 0.0000E+00 0.9000E+01
#aMCatNLO 2  0  0  2  2 0.40986538D+02 0.00000000D+00  -5  6  0 0.00000000D+00 0.00000000D+00 0.00000000D+00 0.00000000D+00 0.00000000D+00
  <mgrwgt>
 0.1044322101D-02    1    2    0
 0.139326728726024D+04 0.000000000000000D+00 0.000000000000000D+00 0.139326728726024D+04
 0.139326728726024D+04 0.000000000000000D+00 0.000000000000000D+00 -.139326728726024D+04
 0.960782398312037D+03 0.656699186238520D+03 0.147069766528827D+03 0.674236219342341D+03
 0.485944501229876D+03 -.625736478416551D+01 0.164166128980239D+02 0.485626809888485D+03
 0.133980767497856D+04 -.650441821454354D+03 -.163486379426851D+03 -.115986302923083D+04
 0.000000000000000D+00 0.000000000000000D+00 0.000000000000000D+00 -.000000000000000D+00
 0.139461591728837D+04 0.000000000000000D+00 0.000000000000000D+00 0.139461591728837D+04
 0.174400330929821D+04 0.000000000000000D+00 0.000000000000000D+00 -.174400330929821D+04
 0.954247839501053D+03 0.649765534708777D+03 0.134811756252903D+03 0.674236219342341D+03
 0.485832203763903D+03 -.977582674059038D+01 0.101963200793998D+02 0.485626809888485D+03
 0.134675594604790D+04 -.660168924239924D+03 -.180682935294852D+03 -.115986302923083D+04
 0.351783237273720D+03 0.201792162717373D+02 0.356748589625491D+02 -.349387392009842D+03
0.156946854890D-01 0.000000000000D+00 0.000000000000D+00 0.320219952202D-04 0.937989359044D-07  6 3 2 25 3 2 21 2 0.23092921D+00 0.24928511D+00 0.50043876D+06 0.50043876D+06 0.50043876D+06 0.10684835D+01  1  2  1  2  6  2        2 0.104432210063D-02 0.100000000000D+01
  </mgrwgt>
  </event>
  <event>
  5     66 0.19643240E-05 0.39945129E+02 0.75467711E-02 0.93555025E-01
        3 -1    0    0  501    0 0.00000000E+00 0.00000000E+00 0.15059107E+04 0.15059108E+04 0.50000000E+00 0.0000E+00 0.9000E+01
        2 -1    0    0  502    0 0.00000000E+00 0.00000000E+00 -.15330678E+04 0.15330679E+04 0.32000000E+00 0.0000E+00 0.9000E+01
       25  1    1    2    0    0 -.49286470E+03 0.21839614E+03 -.48566032E+03 0.73627674E+03 0.12500000E+03 0.0000E+00 0.9000E+01
        3  1    1    2  501    0 0.45302160E+03 -.22119608E+03 0.13341093E+04 0.14261852E+04 0.50000000E+00 0.0000E+00 0.9000E+01
        2  1    1    2  502    0 0.39843100E+02 0.27999396E+01 -.87560615E+03 0.87651671E+03 0.32000000E+00 0.0000E+00 0.9000E+01
#aMCatNLO 1  0  0  2  1 0.43523850D+01 0.00000000D+00  -5  6  0 0.00000000D+00 0.00000000D+00 0.00000000D+00 0.00000000D+00 0.00000000D+00
  <mgrwgt>
 0.4407827963D-02    9    2    0
 0.151942865417065D+04 0.000000000000000D+00 0.000000000000000D+00 0.151942865417065D+04
 0.151942865417065D+04 0.000000000000000D+00 0.000000000000000D+00 -.151942865417065D+04
 0.731913960682165D+03 -.492864244169897D+03 0.218393956558342D+03 -.479021880918903D+03
 0.143815110576256D+04 0.453017375315137D+03 -.221194022449070D+03 0.134689534303948D+04
 0.868792241896578D+03 0.398468688547596D+02 0.280006589072775D+01 -.867873462120580D+03
 0.000000000000000D+00 0.000000000000000D+00 0.000000000000000D+00 -.000000000000000D+00
 0.152135093798305D+04 0.000000000000000D+00 0.000000000000000D+00 0.152135093798305D+04
 0.152189585077649D+04 0.000000000000000D+00 0.000000000000000D+00 -.152189585077649D+04
 0.732344123603374D+03 -.493750471778799D+03 0.217833479051140D+03 -.479021880918903D+03
 0.143777354603390D+04 0.451276750588596D+03 -.222294846885034D+03 0.134689534303948D+04
 0.868742755541029D+03 0.387952431183616D+02 0.213498553741371D+01 -.867873462120580D+03
 0.438636358124191D+01 0.367847807184155D+01 0.232638229647939D+01 -.544912793439009D+00
0.118735602124D-01 0.000000000000D+00 0.000000000000D+00 0.164935567981D-03 0.000000000000D+00  6 3 2 25 3 2 21 0 0.23167858D+00 0.23585660D+00 0.30110768D+06 0.30110768D+06 0.30110768D+06 0.10844335D+01  1  2  2  2  6  2        2 0.795416568504D-03 0.100000000000D+01
0.570630215947D-02 0.000000000000D+00 -.455975975958D-04 0.164935567981D-03 0.000000000000D+00  6 3 2 25 3 2 21 2 0.23167858D+00 0.23585660D+00 0.30110768D+06 0.30110768D+06 0.30110768D+06 0.10844335D+01  1  2  3  2  6  2        2 0.449546130389D-03 0.100000000000D+01
-.764905237479D-02 0.000000000000D+00 0.000000000000D+00 0.164935567981D-03 0.000000000000D+00  6 3 2 25 3 2 21 2 0.23167858D+00 0.23585660D+00 0.30110768D+06 0.30110768D+06 0.30110768D+06 0.10844335D+01  1  2 15  2  6  2        2 -.602597233749D-03 0.100000000000D+01
-.965027402950D-02 0.000000000000D+00 0.000000000000D+00 0.164935567981D-03 0.000000000000D+00  6 3 2 25 3 2 21 2 0.23167858D+00 0.23585660D+00 0.30110768D+06 0.30110768D+06 0.30110768D+06 0.10844335D+01  1  2  4  2  6  2        2 -.760254754466D-03 0.100000000000D+01
-.102674714532D+02 0.000000000000D+00 -.977663955475D+00 0.164935567981D-03 0.000000000000D+00  6 3 2 25 3 2 21 2 0.23167858D+00 0.23641602D+00 0.30110768D+06 0.30110768D+06 0.30110768D+06 0.10844335D+01  1  2  5  2  6  2        2 -.805168904204D+00 0.100000000000D+01
0.102697615140D+02 0.000000000000D+00 0.977661211958D+00 0.164935567981D-03 0.000000000000D+00  6 3 2 25 3 2 21 2 0.23167858D+00 0.23585660D+00 0.30110768D+06 0.30110768D+06 0.30110768D+06 0.10844335D+01  1  2  6  2  6  2        2 0.809058374338D+00 0.100000000000D+01
0.967241743659D-02 0.000000000000D+00 0.000000000000D+00 0.164935567981D-03 0.166775459898D-05  6 3 2 25 3 2 21 2 0.23197168D+00 0.23623958D+00 0.30261965D+06 0.30261965D+06 0.30261965D+06 0.10842726D+01  1  2 11  2  6  2        2 0.754770536484D-03 0.100000000000D+01
-.454256569897D-02 0.000000000000D+00 -.432736385022D-03 0.164935567981D-03 0.000000000000D+00  6 3 21 25 3 2 -2 2 0.23167858D+00 0.23641602D+00 0.30110768D+06 0.30110768D+06 0.30110768D+06 0.10844335D+01  1  2  5  6  6  2        2 -.119181415860D-03 0.100000000000D+01
0.251749531856D-04 0.000000000000D+00 0.000000000000D+00 0.164935567981D-03 0.866283224130D-08  6 3 21 25 3 2 -2 2 0.23197168D+00 0.23623958D+00 0.30261965D+06 0.30261965D+06 0.30261965D+06 0.10842726D+01  1  2 11  6  6  2        2 0.657997455612D-06 0.100000000000D+01
  </mgrwgt>
  </event>
  <event>
  5     66 0.19643240E-05 0.12446036E+03 0.75467711E-02 0.95408147E-01
        1 -1    0    0  501    0 0.00000000E+00 0.00000000E+00 0.68329557E+03 0.68329564E+03 0.32000000E+00 0.0000E+00 0.9000E+01
        4 -1    0    0  502    0 -.00000000E+00 -.00000000E+00 -.20345786E+04 0.20345792E+04 0.15500000E+01 0.0000E+00 0.9000E+01
       25  1    1    2    0    0 0.25632344E+03 0.37439472E+03 0.27530240E+03 0.54524263E+03 0.12500000E+03 0.0000E+00 0.9000E+01
        1  1    1    2  501    0 -.84866999E+02 -.91099773E+02 0.24348394E+03 0.27347049E+03 0.32000000E+00 0.0000E+00 0.9000E+01
        4  1    1    2  502    0 -.17145644E+03 -.28329495E+03 -.18700693E+04 0.18991617E+04 0.15500000E+01 0.0000E+00 0.9000E+01
#aMCatNLO 1  0  0  4  1 0.19461157D+02 0.00000000D+00  -5  6  0 0.00000000D+00 0.00000000D+00 0.00000000D+00 0.00000000D+00 0.00000000D+00
  <mgrwgt>
 0.3248910593D-04    7    2    0
 0.117907566131880D+04 0.000000000000000D+00 0.000000000000000D+00 0.117907566131880D+04
 0.117907566131880D+04 -.000000000000000D+00 -.000000000000000D+00 -.117907566131880D+04
 0.786309530665562D+03 0.256313973662181D+03 0.374395991141959D+03 0.629911475318420D+03
 0.454545347927586D+03 -.848363478630186D+02 -.910668713822292D+02 0.437173984061870D+03
 0.111729644404446D+04 -.171477625799162D+03 -.283329119759729D+03 -.106708545938029D+04
 0.000000000000000D+00 0.000000000000000D+00 0.000000000000000D+00 0.000000000000000D+00
 0.117907566131880D+04 0.000000000000000D+00 0.000000000000000D+00 0.117907566131880D+04
 0.117907566131880D+04 -.000000000000000D+00 -.000000000000000D+00 -.117907566131880D+04
 0.786776613378301D+03 0.256172119896676D+03 0.374243719398257D+03 0.630642468311190D+03
 0.344497301374593D+03 -.797489641909010D+02 -.572278025049694D+02 0.330217310244795D+03
 0.111639102114816D+04 -.171679049592194D+03 -.283545336453580D+03 -.106604749341048D+04
 0.110486386736552D+03 -.474410611358076D+01 -.334705804397076D+02 0.105187714854498D+03
0.118032324639D-03 0.000000000000D+00 0.000000000000D+00 0.100366902760D-04 0.000000000000D+00  6 1 4 25 1 4 21 0 0.10512245D+00 0.31301214D+00 0.21449483D+06 0.21449483D+06 0.21449483D+06 0.10954992D+01  1  2  2  3  6  4        1 0.176620019608D-05 0.100000000000D+01
0.933959199671D-05 0.000000000000D+00 -.453275205237D-06 0.100366902760D-04 0.000000000000D+00  6 1 4 25 1 4 21 2 0.10512245D+00 0.31301214D+00 0.21449483D+06 0.21449483D+06 0.21449483D+06 0.10954992D+01  1  2  3  3  6  4        1 0.167722372493D-06 0.100000000000D+01
-.770331456237D-04 0.000000000000D+00 0.000000000000D+00 0.100366902760D-04 0.000000000000D+00  6 1 4 25 1 4 21 2 0.10512245D+00 0.31301214D+00 0.21449483D+06 0.21449483D+06 0.21449483D+06 0.10954992D+01  1  2 15  3  6  4        1 -.138337755537D-05 0.100000000000D+01
0.386119435257D-02 0.000000000000D+00 0.000000000000D+00 0.100366902760D-04 0.000000000000D+00  6 1 4 25 1 4 21 2 0.10512245D+00 0.31301214D+00 0.21802596D+06 0.21802596D+06 0.21802596D+06 0.10949585D+01  1  2 12  3  6  4        1 0.692045954132D-04 0.100000000000D+01
-.358930286755D-02 0.000000000000D+00 0.000000000000D+00 0.100366902760D-04 0.000000000000D+00  6 1 4 25 1 4 21 2 0.10512245D+00 0.31301214D+00 0.21449483D+06 0.21449483D+06 0.21449483D+06 0.10954992D+01  1  2  4  3  6  4        1 -.644574616057D-04 0.100000000000D+01
-.429924707352D-02 0.000000000000D+00 0.000000000000D+00 0.100366902760D-04 0.000000000000D+00  6 1 4 25 1 4 21 2 0.10512245D+00 0.31301214D+00 0.21449483D+06 0.21449483D+06 0.21449483D+06 0.10954992D+01  1  2  5  3  6  4        1 -.772067901208D-04 0.100000000000D+01
0.581339710180D-02 0.000000000000D+00 -.000000000000D+00 0.100366902760D-04 0.000000000000D+00  6 1 4 25 1 4 21 2 0.10512245D+00 0.31301214D+00 0.21449483D+06 0.21449483D+06 0.21449483D+06 0.10954992D+01  1  2  6  3  6  4        1 0.104398217235D-03 0.100000000000D+01
  </mgrwgt>
  </event>
  <event>
  5     66 0.19643240E-05 0.17947615E+03 0.75467711E-02 0.93897441E-01
        3 -1    0    0  501    0 0.00000000E+00 0.00000000E+00 0.81723846E+03 0.81723861E+03 0.50000000E+00 0.0000E+00 0.9000E+01
        2 -1    0    0  502    0 0.00000000E+00 0.00000000E+00 -.68025108E+03 0.68025115E+03 0.32000000E+00 0.0000E+00 0.9000E+01
       25  1    1    2    0    0 0.45661357E+03 -.16104754E+03 -.71172430E+02 0.50509680E+03 0.12500000E+03 0.0000E+00 0.9000E+01
        3  1    1    2  501    0 -.10134714E+03 0.14819102E+03 0.50075609E+03 0.53196685E+03 0.50000000E+00 0.0000E+00 0.9000E+01
        2  1    1    2  502    0 -.35526643E+03 0.12856518E+02 -.29259628E+03 0.46042612E+03 0.32000000E+00 0.0000E+00 0.9000E+01
#aMCatNLO 1  0  0  2  5 0.25579765D+02 0.00000000D+00  -5  6  0 0.00000000D+00 0.00000000D+00 0.00000000D+00 0.00000000D+00 0.00000000D+00
  <mgrwgt>
 0.7468348490D-03    9    2    0
 0.745605468005906D+03 0.000000000000000D+00 0.000000000000000D+00 0.745605468005906D+03
 0.745605468005906D+03 0.000000000000000D+00 0.000000000000000D+00 -.745605468005906D+03
 0.513801999490675D+03 0.456708899827907D+03 -.161030405404523D+03 -.117701673878722D+03
 0.488052934626279D+03 -.101315483441077D+03 0.148144730013664D+03 0.453854578892405D+03
 0.489356001894857D+03 -.355393416386830D+03 0.128856753908591D+02 -.336152905013683D+03
 0.000000000000000D+00 0.000000000000000D+00 -.000000000000000D+00 -.000000000000000D+00
 0.748393228043018D+03 0.000000000000000D+00 0.000000000000000D+00 0.748393228043018D+03
 0.806796839440024D+03 0.000000000000000D+00 0.000000000000000D+00 -.806796839440024D+03
 0.508624546735008D+03 0.453738245923088D+03 -.152780396956476D+03 -.117701673878722D+03
 0.491104469797445D+03 -.104160419126307D+03 0.156045597697786D+03 0.453854578892405D+03
 0.491701296986284D+03 -.358243872203466D+03 0.208018734137546D+02 -.336152905013683D+03
 0.637597539643044D+02 0.866604540668517D+01 -.240670741550649D+02 -.584036113970062D+02
0.349244702060D-04 0.000000000000D+00 0.000000000000D+00 0.303254670508D-06 0.000000000000D+00  6 3 2 25 3 2 21 0 0.12572901D+00 0.10465403D+00 0.26793144D+06 0.26793144D+06 0.26793144D+06 0.10882031D+01  1  2  2  2  6  2        2 0.605632338571D-04 0.100000000000D+01
0.313069810001D-05 0.000000000000D+00 -.134119161415D-06 0.303254670508D-06 0.000000000000D+00  6 3 2 25 3 2 21 2 0.12572901D+00 0.10465403D+00 0.26793144D+06 0.26793144D+06 0.26793144D+06 0.10882031D+01  1  2  3  2  6  2        2 0.642895448159D-05 0.100000000000D+01
-.215027796677D-04 0.000000000000D+00 0.000000000000D+00 0.303254670508D-06 0.000000000000D+00  6 3 2 25 3 2 21 2 0.12572901D+00 0.10465403D+00 0.26793144D+06 0.26793144D+06 0.26793144D+06 0.10882031D+01  1  2 15  2  6  2        2 -.441564109011D-04 0.100000000000D+01
0.899720932678D-03 0.000000000000D+00 0.000000000000D+00 0.303254670508D-06 0.000000000000D+00  6 3 2 25 3 2 21 2 0.12572901D+00 0.11517236D+00 0.28454815D+06 0.28454815D+06 0.28454815D+06 0.10862551D+01  1  2 12  2  6  2        2 0.163254162102D-02 0.100000000000D+01
-.583056371490D-03 0.000000000000D+00 0.000000000000D+00 0.303254670508D-06 0.000000000000D+00  6 3 2 25 3 2 21 2 0.12572901D+00 0.10465403D+00 0.26793144D+06 0.26793144D+06 0.26793144D+06 0.10882031D+01  1  2  4  2  6  2        2 -.119731853816D-02 0.100000000000D+01
-.151523497797D-02 0.000000000000D+00 -.103226808187D-03 0.303254670508D-06 0.000000000000D+00  6 3 2 25 3 2 21 2 0.12572901D+00 0.11344457D+00 0.26793144D+06 0.26793144D+06 0.26793144D+06 0.10882031D+01  1  2  5  2  6  2        2 -.281833028226D-02 0.100000000000D+01
0.151895234668D-02 0.000000000000D+00 0.102891963653D-03 0.303254670508D-06 0.000000000000D+00  6 3 2 25 3 2 21 2 0.12572901D+00 0.10465403D+00 0.26793144D+06 0.26793144D+06 0.26793144D+06 0.10882031D+01  1  2  6  2  6  2        2 0.311920063338D-02 0.100000000000D+01
0.150370364849D-04 0.000000000000D+00 0.000000000000D+00 0.303254670508D-06 0.000000000000D+00  6 3 21 25 3 2 -2 2 0.12572901D+00 0.11517236D+00 0.28454815D+06 0.28454815D+06 0.28454815D+06 0.10862551D+01  1  2 12  6  6  2        2 0.295789009572D-04 0.100000000000D+01
-.201699342627D-04 0.000000000000D+00 -.138880188947D-05 0.303254670508D-06 0.000000000000D+00  6 3 21 25 3 2 -2 2 0.12572901D+00 0.11344457D+00 0.26793144D+06 0.26793144D+06 0.26793144D+06 0.10882031D+01  1  2  5  6  6  2        2 -.416732633444D-04 0.100000000000D+01
  </mgrwgt>
  </event>
  <event>
  5     66 -.19643240E-05 0.34878435E+02 0.75467711E-02 0.89625834E-01
        1 -1    0    0  501    0 0.00000000E+00 0.00000000E+00 0.40360160E+04 0.40360160E+04 0.32000000E+00 0.0000E+00 0.9000E+01
        4 -1    0    0  502    0 0.00000000E+00 0.00000000E+00 -.50520977E+03 0.50521215E+03 0.15500000E+01 0.0000E+00 0.9000E+01
       25  1    1    2    0    0 0.61986515E+03 -.42580139E+03 0.72479841E+03 0.10519018E+04 0.12500000E+03 0.0000E+00 0.9000E+01
        1  1    1    2  501    0 -.26147207E+02 -.23086103E+02 0.27420474E+04 0.27422693E+04 0.32000000E+00 0.0000E+00 0.9000E+01
        4  1    1    2  502    0 -.59371794E+03 0.44888750E+03 0.63960399E+02 0.74705710E+03 0.15500000E+01 0.0000E+00 0.9000E+01
#aMCatNLO 1  0  0  2  5 0.25579765D+02 0.00000000D+00  -5  6  0 0.00000000D+00 0.00000000D+00 0.00000000D+00 0.00000000D+00 0.00000000D+00
  <mgrwgt>
 -.1125581039D-02    7    2    0
 0.142794963741255D+04 0.000000000000000D+00 0.000000000000000D+00 0.142794963741255D+04
 0.142794963741255D+04 0.000000000000000D+00 0.000000000000000D+00 -.142794963741255D+04
 0.776606461236994D+03 0.619901726560219D+03 -.425829878701310D+03 -.147930251970086D+03
 0.970438110870636D+03 -.261457094337001D+02 -.230847805913004D+02 0.969811126876481D+03
 0.110885470271747D+04 -.593756017126519D+03 0.448914659292611D+03 -.821880874906395D+03
 0.000000000000000D+00 0.000000000000000D+00 -.000000000000000D+00 -.000000000000000D+00
 0.142838814119007D+04 0.000000000000000D+00 0.000000000000000D+00 0.142838814119007D+04
 0.264567670420827D+04 0.000000000000000D+00 0.000000000000000D+00 -.264567670420827D+04
 0.767196968430387D+03 0.609710863177022D+03 -.423480214702852D+03 -.147930251970086D+03
 0.970802110432214D+03 -.389601089285421D+02 -.201302190372184D+02 0.969811126876481D+03
 0.111816233117097D+04 -.608456869520208D+03 0.452304172262931D+03 -.821880874906395D+03
 0.121790343536477D+04 0.377061152717279D+02 -.869373852286053D+01 -.121728856301820D+04
0.706191613271D-03 0.000000000000D+00 0.000000000000D+00 0.162828503260D-04 0.000000000000D+00  6 1 4 25 1 4 21 0 0.62092573D+00 0.77724764D-01 0.59415176D+06 0.59415176D+06 0.59415176D+06 0.10632549D+01  1  2  2  2  6  2        4 0.427740949540D-05 0.100000000000D+01
0.518559258453D-03 0.000000000000D+00 -.271196173948D-05 0.162828503260D-04 0.000000000000D+00  6 1 4 25 1 4 21 2 0.62092573D+00 0.77724764D-01 0.59415176D+06 0.59415176D+06 0.59415176D+06 0.10632549D+01  1  2  3  2  6  2        4 0.355084273291D-05 0.100000000000D+01
-.452115118387D-03 0.000000000000D+00 0.000000000000D+00 0.162828503260D-04 0.000000000000D+00  6 1 4 25 1 4 21 2 0.62092573D+00 0.77724764D-01 0.59415176D+06 0.59415176D+06 0.59415176D+06 0.10632549D+01  1  2 15  2  6  2        4 -.309586543176D-05 0.100000000000D+01
-.349092944555D+00 0.000000000000D+00 0.000000000000D+00 0.162828503260D-04 0.000000000000D+00  6 1 4 25 1 4 21 2 0.62092573D+00 0.77724764D-01 0.59415176D+06 0.59415176D+06 0.59415176D+06 0.10632549D+01  1  2  4  2  6  2        4 -.239041946523D-02 0.100000000000D+01
-.461129274826D+00 0.000000000000D+00 -.431580010303D-03 0.162828503260D-04 0.000000000000D+00  6 1 4 25 1 4 21 2 0.62092573D+00 0.14402020D+00 0.59415176D+06 0.59415176D+06 0.59415176D+06 0.10632549D+01  1  2  5  2  6  2        4 -.538154029391D-03 0.100000000000D+01
0.385739638245D+00 0.000000000000D+00 0.360757701636D-03 0.162828503260D-04 0.000000000000D+00  6 1 4 25 1 4 21 2 0.62092573D+00 0.77724764D-01 0.59415176D+06 0.59415176D+06 0.59415176D+06 0.10632549D+01  1  2  6  2  6  2        4 0.264135828053D-02 0.100000000000D+01
-.309930450796D-01 0.000000000000D+00 -.290293746194D-04 0.162828503260D-04 0.000000000000D+00  6 1 21 25 1 4 -4 2 0.62092573D+00 0.14402020D+00 0.59415176D+06 0.59415176D+06 0.59415176D+06 0.10632549D+01  1  2  5  6  6  2        4 -.843098211439D-03 0.100000000000D+01
  </mgrwgt>
  </event>
  <event>
  6     66 0.19643240E-05 0.17566736E+02 0.75467711E-02 0.94197476E-01
        3 -1    0    0  501    0 0.00000000E+00 0.00000000E+00 0.87523717E+03 0.87523731E+03 0.50000000E+00 0.0000E+00 0.9000E+01
        2 -1    0    0  503    0 0.00000000E+00 0.00000000E+00 -.83382166E+03 0.83382172E+03 0.32000000E+00 0.0000E+00 0.9000E+01
       25  1    1    2    0    0 0.46717973E+03 -.20362151E+01 0.28325458E+03 0.56046339E+03 0.12500000E+03 0.0000E+00 0.9000E+01
        3  1    1    2  501    0 0.33419527E+02 0.23388875E+01 0.33765205E+03 0.33931032E+03 0.50000000E+00 0.0000E+00 0.9000E+01
        2  1    1    2  502    0 -.48857638E+03 0.29139782E+02 -.41486679E+03 0.64161559E+03 0.32000000E+00 0.0000E+00 0.9000E+01
       21  1    1    2  503  502 -.12022880E+02 -.29442454E+02 -.16462434E+03 0.16766975E+03 0.75000000E+00 0.0000E+00 0.9000E+01
#aMCatNLO 2  0  0  2  5 0.11773342D+03 0.00000000D+00  -5  6  0 0.00000000D+00 0.00000000D+00 0.00000000D+00 0.00000000D+00 0.00000000D+00
  <mgrwgt>
 0.6855925310D-02    1    2    0
 0.763612651595108D+03 0.000000000000000D+00 0.000000000000000D+00 0.763612651595108D+03
 0.763612651595108D+03 0.000000000000000D+00 0.000000000000000D+00 -.763612651595108D+03
 0.524054472607081D+03 0.463223956220601D+03 -.121746845981526D+02 0.210436293679954D+03
 0.296301492636249D+03 0.310530916537751D+02 -.337738549661105D+01 0.294650425596873D+03
 0.706869337946887D+03 -.494277047874376D+03 0.155520700947636D+02 -.505086719276827D+03
 0.000000000000000D+00 -.000000000000000D+00 -.000000000000000D+00 -.000000000000000D+00
 0.765108569622375D+03 0.000000000000000D+00 0.000000000000000D+00 0.765108569622375D+03
 0.953839125665706D+03 0.000000000000000D+00 0.000000000000000D+00 -.953839125665706D+03
 0.527580044434126D+03 0.467362934555487D+03 -.203887004068125D+01 0.210436293679954D+03
 0.296545079180726D+03 0.333863919371905D+02 0.233656057076971D+01 0.294650425596873D+03
 0.703431269593525D+03 -.488726446818879D+03 0.291447633705005D+02 -.505086719276827D+03
 0.191391302079703D+03 -.120228796737979D+02 -.294424539005890D+02 -.188730556043332D+03
0.519045782328D-02 0.000000000000D+00 0.000000000000D+00 0.550133693474D-05 0.361616276924D-07  6 3 2 25 3 2 21 2 0.13465176D+00 0.12828015D+00 0.26970367D+06 0.26970367D+06 0.26970367D+06 0.10879892D+01  1  2  1  2  6  2        2 0.685592531002D-02 0.100000000000D+01
  </mgrwgt>
  </event>
  <event>
  5     66 0.19643240E-05 0.17407778E+03 0.75467711E-02 0.86056601E-01
        3 -1    0    0  501    0 0.00000000E+00 0.00000000E+00 0.11888799E+04 0.11888800E+04 0.50000000E+00 0.0000E+00 0.9000E+01
        2 -1    0    0  502    0 0.00000000E+00 0.00000000E+00 -.29402558E+04 0.29402558E+04 0.32000000E+00 0.0000E+00 0.9000E+01
       25  1    1    2    0    0 -.22194895E+03 0.11187554E+04 -.52552754E+03 0.12620139E+04 0.12500000E+03 0.0000E+00 0.9000E+01
        3  1    1    2  501    0 0.20703818E+03 -.94534123E+03 0.52952106E+03 0.11031444E+04 0.50000000E+00 0.0000E+00 0.9000E+01
        2  1    1    2  502    0 0.14910768E+02 -.17341418E+03 -.17553694E+04 0.17639775E+04 0.32000000E+00 0.0000E+00 0.9000E+01
#aMCatNLO 1  0  0  1  2 0.11173265D+02 0.00000000D+00  -5  6  0 0.00000000D+00 0.00000000D+00 0.00000000D+00 0.00000000D+00 0.00000000D+00
  <mgrwgt>
 0.1442612249D-04    6    2    0
 0.186965543353400D+04 0.000000000000000D+00 0.000000000000000D+00 0.186965543353400D+04
 0.186965543353400D+04 0.000000000000000D+00 0.000000000000000D+00 -.186965543353400D+04
 0.114739944624265D+04 -.221937275949241D+03 0.111871518783555D+04 0.109846842577297D+02
 0.146605973555080D+04 0.207024195055610D+03 -.945277380031357D+03 0.110132774670664D+04
 0.112585168527454D+04 0.149130808936306D+02 -.173437807804190D+03 -.111231243096437D+04
 0.000000000000000D+00 -.000000000000000D+00 -.000000000000000D+00 0.000000000000000D+00
 0.187557280298120D+04 0.000000000000000D+00 0.000000000000000D+00 0.187557280298120D+04
 0.187494561132569D+04 0.000000000000000D+00 0.000000000000000D+00 -.187494561132569D+04
 0.114859457040783D+04 -.219017460389674D+03 0.112051558486554D+04 0.109846842577297D+02
 0.146511035055341D+04 0.210751764014013D+03 -.942978911533979D+03 0.110132774670664D+04
 0.112562263923179D+04 0.177762807613066D+02 -.171672320761296D+03 -.111231243096437D+04
 0.111908541138571D+02 -.951058438564504D+01 -.586435257026883D+01 0.627191655506851D+00
0.184228470382D-03 0.000000000000D+00 0.000000000000D+00 0.437624055757D-06 0.000000000000D+00  6 3 2 25 3 2 21 0 0.18290462D+00 0.45234706D+00 0.13100022D+07 0.13100022D+07 0.13100022D+07 0.10401456D+01  1  2  2  1  6  1        3 0.422921649788D-05 0.100000000000D+01
0.476514656598D-04 0.000000000000D+00 -.707485834737D-06 0.437624055757D-06 0.000000000000D+00  6 3 2 25 3 2 21 2 0.18290462D+00 0.45234706D+00 0.13100022D+07 0.13100022D+07 0.13100022D+07 0.10401456D+01  1  2  3  1  6  1        3 0.118349855122D-05 0.100000000000D+01
-.125656716190D-03 0.000000000000D+00 0.000000000000D+00 0.437624055757D-06 0.000000000000D+00  6 3 2 25 3 2 21 2 0.18290462D+00 0.45234706D+00 0.13100022D+07 0.13100022D+07 0.13100022D+07 0.10401456D+01  1  2 15  1  6  1        3 -.312088074318D-05 0.100000000000D+01
-.581335015795D-01 0.000000000000D+00 -.605251459201D-02 0.437624055757D-06 0.000000000000D+00  6 3 2 25 3 2 21 2 0.18401181D+00 0.45234706D+00 0.13100022D+07 0.13100022D+07 0.13100022D+07 0.10401456D+01  1  2  5  1  6  1        3 -.141366948528D-02 0.100000000000D+01
0.581690802106D-01 0.000000000000D+00 0.605240436869D-02 0.437624055757D-06 0.000000000000D+00  6 3 2 25 3 2 21 2 0.18290462D+00 0.45234706D+00 0.13100022D+07 0.13100022D+07 0.13100022D+07 0.10401456D+01  1  2  6  1  6  1        3 0.144471993047D-02 0.100000000000D+01
-.651096073801D-04 0.000000000000D+00 -.678736744802D-05 0.437624055757D-06 0.000000000000D+00  6 21 2 25 3 2 -3 2 0.18401181D+00 0.45234706D+00 0.13100022D+07 0.13100022D+07 0.13100022D+07 0.10401456D+01  1  2  5  5  6  1        3 -.189161570103D-04 0.100000000000D+01
  </mgrwgt>
  </event>
  <event>
  5     66 0.19643240E-05 0.42613454E+02 0.75467711E-02 0.92353118E-01
        3 -1    0    0  501    0 0.00000000E+00 0.00000000E+00 0.36110104E+03 0.36110139E+03 0.50000000E+00 0.0000E+00 0.9000E+01
        2 -1    0    0  502    0 -.00000000E+00 -.00000000E+00 -.41902930E+04 0.41902930E+04 0.32000000E+00 0.0000E+00 0.9000E+01
       25  1    1    2    0    0 0.40543356E+03 0.42026807E+03 -.10267314E+04 0.11877727E+04 0.12500000E+03 0.0000E+00 0.9000E+01
        3  1    1    2  501    0 -.43495348E+03 -.38954562E+03 -.23532090E+02 0.58436661E+03 0.50000000E+00 0.0000E+00 0.9000E+01
        2  1    1    2  502    0 0.29519921E+02 -.30722449E+02 -.27789286E+04 0.27792552E+04 0.32000000E+00 0.0000E+00 0.9000E+01
#aMCatNLO 1  0  0  5  2 0.93510190D+01 0.00000000D+00  -5  6  0 0.00000000D+00 0.00000000D+00 0.00000000D+00 0.00000000D+00 0.00000000D+00
  <mgrwgt>
 0.5546271755D-03    7    2    0
 0.123008943051439D+04 0.000000000000000D+00 0.000000000000000D+00 0.123008943051439D+04
 0.123008943051439D+04 -.000000000000000D+00 -.000000000000000D+00 -.123008943051439D+04
 0.599289205728570D+03 0.405403654699178D+03 0.420250932624627D+03 -.505923164864142D+02
 0.104440579410040D+04 -.434928313888181D+03 -.389523080122732D+03 0.865963391016371D+03
 0.816483861199804D+03 0.295246591890017D+02 -.307278525018931D+02 -.815371074529957D+03
 0.000000000000000D+00 0.000000000000000D+00 0.000000000000000D+00 0.000000000000000D+00
 0.123008943051439D+04 0.000000000000000D+00 0.000000000000000D+00 0.123008943051439D+04
 0.123008943051439D+04 -.000000000000000D+00 -.000000000000000D+00 -.123008943051439D+04
 0.600181189229065D+03 0.405759945384738D+03 0.419880122327932D+03 -.604318583172072D+02
 0.103032083769177D+04 -.434312037090439D+03 -.390164471524412D+03 0.848943913447940D+03
 0.808567471246629D+03 0.316430253770654D+02 -.213954049055716D+02 -.807664726945582D+03
 0.211093628613093D+02 -.309093367136580D+01 -.832024589794674D+01 0.191526718148498D+02
0.109948356109D-01 0.000000000000D+00 0.000000000000D+00 0.288758509633D-04 0.000000000000D+00  6 3 2 25 3 2 21 0 0.55554034D-01 0.64466049D+00 0.37431266D+06 0.37431266D+06 0.37431266D+06 0.10775118D+01  1  2  2  4  6  5        2 0.704933158484D-03 0.100000000000D+01
0.601675575015D-02 0.000000000000D+00 -.422230637524D-04 0.288758509633D-04 0.000000000000D+00  6 3 2 25 3 2 21 2 0.55554034D-01 0.64466049D+00 0.37431266D+06 0.37431266D+06 0.37431266D+06 0.10775118D+01  1  2  3  4  6  5        2 0.447884112438D-03 0.100000000000D+01
-.717076409182D-02 0.000000000000D+00 0.000000000000D+00 0.288758509633D-04 0.000000000000D+00  6 3 2 25 3 2 21 2 0.55554034D-01 0.64466049D+00 0.37431266D+06 0.37431266D+06 0.37431266D+06 0.10775118D+01  1  2 15  4  6  5        2 -.533787882397D-03 0.100000000000D+01
-.865379246474D-03 0.000000000000D+00 0.000000000000D+00 0.288758509633D-04 0.000000000000D+00  6 3 2 25 3 2 21 2 0.55554034D-01 0.64466049D+00 0.37431266D+06 0.37431266D+06 0.37431266D+06 0.10775118D+01  1  2  4  4  6  5        2 -.644183729280D-04 0.100000000000D+01
0.157160954674D-04 0.000000000000D+00 0.000000000000D+00 0.288758509633D-04 0.000000000000D+00  6 3 2 25 3 2 21 2 0.55554034D-01 0.64466049D+00 0.37431266D+06 0.37431266D+06 0.37431266D+06 0.10775118D+01  1  2  5  4  6  5        2 0.116989782563D-05 0.100000000000D+01
-.161276699327D-04 0.000000000000D+00 0.000000000000D+00 0.288758509633D-04 0.000000000000D+00  6 3 2 25 3 2 21 2 0.55554034D-01 0.64466049D+00 0.37431266D+06 0.37431266D+06 0.37431266D+06 0.10775118D+01  1  2  6  4  6  5        2 -.120053521091D-05 0.100000000000D+01
0.629349665047D-06 0.000000000000D+00 0.000000000000D+00 0.288758509633D-04 0.951364900966D-05  6 3 2 25 3 2 21 2 0.55554034D-01 0.64466049D+00 0.37701589D+06 0.37701589D+06 0.37701589D+06 0.10772852D+01  1  2 11  4  6  5        2 0.467972793584D-07 0.100000000000D+01
  </mgrwgt>
  </event>
  <event>
  6     66 -.19643240E-05 0.21672410E+03 0.75467711E-02 0.91271277E-01
        3 -1    0    0  501    0 0.00000000E+00 0.00000000E+00 0.66934379E+03 0.66934398E+03 0.50000000E+00 0.0000E+00 0.9000E+01
        2 -1    0    0  502    0 -.00000000E+00 -.00000000E+00 -.18684427E+04 0.18684428E+04 0.32000000E+00 0.0000E+00 0.9000E+01
       25  1    1    2    0    0 -.22107393E+03 -.57776136E+03 0.40878662E+01 0.63112882E+03 0.12500000E+03 0.0000E+00 0.9000E+01
        3  1    1    2  503    0 0.23134766E+02 0.49976306E+03 0.14210509E+03 0.52008888E+03 0.50000000E+00 0.0000E+00 0.9000E+01
        2  1    1    2  502    0 0.20518135E+03 0.80621304E+02 -.13557514E+04 0.13735578E+04 0.32000000E+00 0.0000E+00 0.9000E+01
       21  1    1    2  501  503 -.72421862E+01 -.26229991E+01 0.10459465E+02 0.13011237E+02 0.75000000E+00 0.0000E+00 0.9000E+01
#aMCatNLO 2  0  0  4  1 0.17340118D+02 0.00000000D+00  -5  6  0 0.00000000D+00 0.00000000D+00 0.00000000D+00 0.00000000D+00 0.00000000D+00
  <mgrwgt>
 -.1351216558D-04    3    2    0
 0.111831606363178D+04 0.000000000000000D+00 0.000000000000000D+00 0.111831606363178D+04
 0.111831606363178D+04 -.000000000000000D+00 -.000000000000000D+00 -.111831606363178D+04
 0.719294807468578D+03 -.221251709567127D+03 -.579819944348605D+03 0.341491629766328D+03
 0.683177732821182D+03 0.160433516616266D+02 0.501856404111972D+03 0.463265124029376D+03
 0.834159586973800D+03 0.205208357905500D+03 0.779635402366329D+02 -.804756753795705D+03
 0.000000000000000D+00 0.000000000000000D+00 0.000000000000000D+00 0.000000000000000D+00
 0.111831606363178D+04 0.000000000000000D+00 0.000000000000000D+00 0.111831606363178D+04
 0.111831606363178D+04 -.000000000000000D+00 -.000000000000000D+00 -.111831606363178D+04
 0.718414874421845D+03 -.221176673501767D+03 -.577472720979431D+03 0.343658358568303D+03
 0.665843394348659D+03 0.231284600962884D+02 0.499432158250601D+03 0.439749951036341D+03
 0.832018156532422D+03 0.205295318036351D+03 0.806837635098130D+02 -.802245707684283D+03
 0.203557019606349D+02 -.724710463087191D+01 -.264320078098348D+01 0.188373980796393D+02
-.179257649253D-04 0.000000000000D+00 0.000000000000D+00 0.247237106974D-06 0.000000000000D+00  6 3 2 25 3 2 21 2 0.10297598D+00 0.28745275D+00 0.46182217D+06 0.46182217D+06 0.46182217D+06 0.10709569D+01  1  2 13  3  6  4        3 -.112481827511D-04 0.100000000000D+01
-.216710898962D-03 0.000000000000D+00 0.000000000000D+00 0.247237106974D-06 0.000000000000D+00  6 3 2 25 3 2 21 2 0.10297598D+00 0.28745275D+00 0.45879963D+06 0.45879963D+06 0.45879963D+06 0.10711599D+01  1  2  8  3  6  4        3 -.136087074306D-03 0.100000000000D+01
0.213268341425D-03 0.000000000000D+00 0.000000000000D+00 0.247237106974D-06 0.149971012623D-07  6 3 2 25 3 2 21 2 0.10297598D+00 0.28745275D+00 0.46182217D+06 0.46182217D+06 0.46182217D+06 0.10709569D+01  1  2  1  3  6  4        3 0.133823091476D-03 0.100000000000D+01
  </mgrwgt>
  </event>
  <event>
  6     66 0.19643240E-05 0.10660469E+03 0.75467711E-02 0.90714654E-01
        3 -1    0    0  501    0 0.00000000E+00 0.00000000E+00 0.17678875E+03 0.17678946E+03 0.50000000E+00 0.0000E+00 0.9000E+01
        2 -1    0    0  502    0 -.00000000E+00 -.00000000E+00 -.32803286E+04 0.32803286E+04 0.32000000E+00 0.0000E+00 0.9000E+01
       25  1    1    2    0    0 0.79793951E+02 -.57027847E+03 -.80124492E+03 0.99458687E+03 0.12500000E+03 0.0000E+00 0.9000E+01
        3  1    1    2  503    0 0.16016618E+02 -.12605297E+03 -.17035086E+03 0.21252187E+03 0.50000000E+00 0.0000E+00 0.9000E+01
        2  1    1    2  502    0 -.12191713E+03 0.66473875E+03 -.19599030E+04 0.20731525E+04 0.32000000E+00 0.0000E+00 0.9000E+01
       21  1    1    2  501  503 0.26106562E+02 0.31592689E+02 -.17204102E+03 0.17685679E+03 0.75000000E+00 0.0000E+00 0.9000E+01
#aMCatNLO 2  0  0  4  1 0.45649133D+02 0.00000000D+00  -5  6  0 0.00000000D+00 0.00000000D+00 0.00000000D+00 0.00000000D+00 0.00000000D+00
  <mgrwgt>
 0.4283114329D-04    3    2    0
 0.761529018548213D+03 0.000000000000000D+00 0.000000000000000D+00 0.761529018548213D+03
 0.761529018548213D+03 -.000000000000000D+00 -.000000000000000D+00 -.761529018548213D+03
 0.594884479588662D+03 0.666450291861590D+02 -.541116698991800D+03 0.202518399688689D+03
 0.177413258504696D+03 0.713794384880757D+02 -.160066777714746D+03 0.275511656087263D+02
 0.750760299003068D+03 -.138024467674235D+03 0.701183476706546D+03 -.230069565297415D+03
 0.000000000000000D+00 0.000000000000000D+00 0.000000000000000D+00 -.000000000000000D+00
 0.761529018548213D+03 0.000000000000000D+00 0.000000000000000D+00 0.761529018548213D+03
 0.761529018548213D+03 -.000000000000000D+00 -.000000000000000D+00 -.761529018548213D+03
 0.625826149834771D+03 0.801353338817539D+02 -.571368402406008D+03 0.207725412053217D+03
 0.134229812266914D+03 0.154627044036504D+02 -.125047944350113D+03 0.462769801040144D+02
 0.712097048323702D+03 -.121858153671588D+03 0.664930882896065D+03 -.223829661989069D+03
 0.509050266710402D+02 0.262601153861837D+02 0.314854638600563D+02 -.301727301681622D+02
-.200032118704D-04 0.000000000000D+00 0.000000000000D+00 0.113020121351D-08 0.000000000000D+00  6 3 2 25 3 2 21 2 0.27198325D-01 0.50466599D+00 0.51362331D+06 0.51362331D+06 0.51362331D+06 0.10676863D+01  1  2 13  3  6  4        3 -.289576225749D-04 0.100000000000D+01
-.451773304007D-05 0.000000000000D+00 0.000000000000D+00 0.113020121351D-08 0.000000000000D+00  6 3 2 25 3 2 21 2 0.27198325D-01 0.50466599D+00 0.52508233D+06 0.52508233D+06 0.52508233D+06 0.10670113D+01  1  2  8  3  6  4        3 -.652326650636D-05 0.100000000000D+01
0.540960215732D-04 0.000000000000D+00 0.000000000000D+00 0.113020121351D-08 0.161029882642D-10  6 3 2 25 3 2 21 2 0.27198325D-01 0.50466599D+00 0.51362331D+06 0.51362331D+06 0.51362331D+06 0.10676863D+01  1  2  1  3  6  4        3 0.783120323709D-04 0.100000000000D+01
  </mgrwgt>
  </event>
  <event>
  6     66 -.19643240E-05 0.40086925E+02 0.75467711E-02 0.92796034E-01
        3 -1    0    0  501    0 0.00000000E+00 0.00000000E+00 0.67807292E+03 0.67807310E+03 0.50000000E+00 0.0000E+00 0.9000E+01
        2 -1    0    0  502    0 -.00000000E+00 -.00000000E+00 -.28782055E+04 0.28782055E+04 0.32000000E+00 0.0000E+00 0.9000E+01
       25  1    1    2    0    0 -.51505896E+03 -.27214412E+03 0.37125892E+03 0.70200167E+03 0.12500000E+03 0.0000E+00 0.9000E+01
        3  1    1    2  501    0 0.48257297E+02 0.20197285E+02 0.10916022E+03 0.12104917E+03 0.50000000E+00 0.0000E+00 0.9000E+01
        2  1    1    2  503    0 0.40087421E+03 0.22339221E+03 -.24095813E+04 0.24528935E+04 0.32000000E+00 0.0000E+00 0.9000E+01
       21  1    1    2  502  503 0.65927458E+02 0.28554624E+02 -.27097043E+03 0.28033432E+03 0.75000000E+00 0.0000E+00 0.9000E+01
#aMCatNLO 2  0  0  5  2 0.18837817D+02 0.00000000D+00  -5  6  0 0.00000000D+00 0.00000000D+00 0.00000000D+00 0.00000000D+00 0.00000000D+00
  <mgrwgt>
 -.3495295559D-03    2    2    0
 0.139700879115614D+04 0.000000000000000D+00 0.000000000000000D+00 0.139700879115614D+04
 0.139700879115614D+04 -.000000000000000D+00 -.000000000000000D+00 -.139700879115614D+04
 0.118680573546626D+04 -.515265345251102D+03 -.272264878689450D+03 0.102628276490989D+04
 0.239722701506097D+03 0.481351966209079D+02 0.201412541672759D+02 0.233975012221854D+03
 0.136748914533992D+04 0.467130148630194D+03 0.252123624522175D+03 -.126025777713174D+04
 0.000000000000000D+00 0.000000000000000D+00 0.000000000000000D+00 0.000000000000000D+00
 0.139700879115614D+04 0.000000000000000D+00 0.000000000000000D+00 0.139700879115614D+04
 0.139700879115614D+04 -.000000000000000D+00 -.000000000000000D+00 -.139700879115614D+04
 0.118622353989520D+04 -.515063958381843D+03 -.272156184383254D+03 0.102573944872929D+04
 0.239625606816759D+03 0.481758764625347D+02 0.201632102519902D+02 0.233865263178824D+03
 0.122480785749470D+04 0.400972369077849D+03 0.223448307222361D+03 -.113553789061234D+04
 0.143360578105614D+03 0.659157128414601D+02 0.285446669089027D+02 -.124066821295775D+03
-.531415270356D-02 0.000000000000D+00 0.000000000000D+00 0.621780531687D-05 0.000000000000D+00  6 3 2 25 3 2 21 2 0.10431893D+00 0.44280086D+00 0.34744633D+06 0.34744633D+06 0.34744633D+06 0.10798654D+01  1  2 13  4  6  5        2 -.878220564498D-03 0.100000000000D+01
0.319913341404D-02 0.000000000000D+00 0.000000000000D+00 0.621780531687D-05 0.508602654694D-07  6 3 2 25 3 2 21 2 0.10431893D+00 0.44280086D+00 0.34744633D+06 0.34744633D+06 0.34744633D+06 0.10798654D+01  1  2  1  4  6  5        2 0.528691008615D-03 0.100000000000D+01
  </mgrwgt>
  </event>
  <event>
  6     66 -.19643240E-05 0.95399203E+02 0.75467711E-02 0.94222243E-01
       21 -1    0    0  501  503 0.00000000E+00 0.00000000E+00 0.12263452E+04 0.12263454E+04 0.75000000E+00 0.0000E+00 0.9000E+01
        2 -1    0    0  502    0 0.00000000E+00 0.00000000E+00 -.12593387E+04 0.12593387E+04 0.32000000E+00 0.0000E+00 0.9000E+01
       25  1    1    2    0    0 -.41372783E+03 0.21583060E+03 -.16961657E+03 0.51200425E+03 0.12500000E+03 0.0000E+00 0.9000E+01
        3  1    1    2  501    0 -.12817152E+02 -.10484375E+03 0.34074375E+03 0.35673946E+03 0.50000000E+00 0.0000E+00 0.9000E+01
        2  1    1    2  502    0 0.40932229E+03 -.12188195E+03 -.86028283E+03 0.96046165E+03 0.32000000E+00 0.0000E+00 0.9000E+01
       -3  1    1    2    0  503 0.17222699E+02 0.10895097E+02 0.65616216E+03 0.65647876E+03 0.50000000E+00 0.0000E+00 0.9000E+01
#aMCatNLO 2  0  0  1  4 0.20379512D+02 0.00000000D+00  -5  6  0 0.00000000D+00 0.00000000D+00 0.00000000D+00 0.00000000D+00 0.00000000D+00
  <mgrwgt>
 -.3189604967D-03    2    2    0
 0.847148365791022D+03 0.000000000000000D+00 0.000000000000000D+00 0.847148365791022D+03
 0.847148365791022D+03 0.000000000000000D+00 0.000000000000000D+00 -.847148365791022D+03
 0.481076777844228D+03 -.408941959516252D+03 0.218945138486629D+03 0.252856928135988D+02
 0.522762875763781D+03 -.749522239696976D+01 -.101444731723484D+03 0.512770721008511D+03
 0.690457077974034D+03 0.416437181913222D+03 -.117500406763145D+03 -.538056413822110D+03
 0.000000000000000D+00 0.000000000000000D+00 0.000000000000000D+00 0.000000000000000D+00
 0.182267754233646D+04 0.000000000000000D+00 0.000000000000000D+00 0.182267754233646D+04
 0.847316088681637D+03 0.000000000000000D+00 0.000000000000000D+00 -.847316088681637D+03
 0.483860597813918D+03 -.413846125549867D+03 0.215842758097514D+03 0.252856928135988D+02
 0.523529216430085D+03 -.128128629705633D+02 -.104808676524455D+03 0.512770721008511D+03
 0.687029478359512D+03 0.409436289470100D+03 -.121929178397909D+03 -.538056413822110D+03
 0.975574338414582D+03 0.172226990503306D+02 0.108950968248504D+02 0.975361453654823D+03
-.118531773290D-02 0.000000000000D+00 0.000000000000D+00 0.298552577346D-05 0.000000000000D+00  6 21 2 25 3 2 -3 2 0.19064369D+00 0.19370607D+00 0.26851763D+06 0.26851763D+06 0.26851763D+06 0.10881322D+01  1  2 13  5  6  1        3 -.371024740810D-02 0.100000000000D+01
0.104695388584D-02 0.000000000000D+00 0.000000000000D+00 0.298552577346D-05 0.432272506179D-08  6 21 2 25 3 2 -3 2 0.18866850D+00 0.19374442D+00 0.26851763D+06 0.26851763D+06 0.26851763D+06 0.10881322D+01  1  2  1  5  6  1        3 0.339128691140D-02 0.100000000000D+01
  </mgrwgt>
  </event>
  <event>
  5     66 -.19643240E-05 0.36649797E+02 0.75467711E-02 0.95181624E-01
        3 -1    0    0  501    0 0.00000000E+00 0.00000000E+00 0.30670319E+03 0.30670360E+03 0.50000000E+00 0.0000E+00 0.9000E+01
        2 -1    0    0  502    0 -.00000000E+00 -.00000000E+00 -.22776375E+04 0.22776376E+04 0.32000000E+00 0.0000E+00 0.9000E+01
       25  1    1    2    0    0 -.23050047E+03 -.40316525E+03 -.55541564E+03 0.73470009E+03 0.12500000E+03 0.0000E+00 0.9000E+01
        3  1    1    2  501    0 0.19869499E+03 0.38497393E+03 0.42199992E+00 0.43322633E+03 0.50000000E+00 0.0000E+00 0.9000E+01
        2  1    1    2  502    0 0.31805482E+02 0.18191314E+02 -.14159407E+04 0.14164147E+04 0.32000000E+00 0.0000E+00 0.9000E+01
#aMCatNLO 1  0  0  4  1 0.75187758D+01 0.00000000D+00  -5  6  0 0.00000000D+00 0.00000000D+00 0.00000000D+00 0.00000000D+00 0.00000000D+00
  <mgrwgt>
 -.2238572201D-02    6    2    0
 0.835798571431504D+03 0.000000000000000D+00 0.000000000000000D+00 0.835798571431504D+03
 0.835798571431504D+03 -.000000000000000D+00 -.000000000000000D+00 -.835798571431504D+03
 0.480956381951948D+03 -.230485640786844D+03 -.403125749149315D+03 0.774861950217223D+01
 0.670201400404364D+03 0.198672056431290D+03 0.384929499374358D+03 0.511398681665038D+03
 0.520439360506697D+03 0.318135843555532D+02 0.181962497749566D+02 -.519147301167211D+03
 0.000000000000000D+00 0.000000000000000D+00 0.000000000000000D+00 0.000000000000000D+00
 0.835798571431504D+03 0.000000000000000D+00 0.000000000000000D+00 0.835798571431504D+03
 0.835798571431504D+03 -.000000000000000D+00 -.000000000000000D+00 -.835798571431504D+03
 0.480478262488176D+03 -.230253544600057D+03 -.402676059995282D+03 0.834605472318087D+01
 0.369894931021328D+03 0.814026114758046D+02 0.211352881088815D+03 0.292448003063193D+03
 0.519827236165850D+03 0.320647110563910D+02 0.186828107789016D+02 -.518500879792981D+03
 0.301396713187655D+03 0.116786222067861D+03 0.172640368127565D+03 0.217706822006607D+03
0.631082605328D-04 0.000000000000D+00 0.000000000000D+00 0.153261024796D-04 0.000000000000D+00  6 3 2 25 3 2 21 0 0.47185139D-01 0.35040581D+00 0.22596694D+06 0.22596694D+06 0.22596694D+06 0.10937768D+01  1  2  2  3  6  4        3 0.118575161658D-03 0.100000000000D+01
0.306470640827D-04 0.000000000000D+00 -.242352337233D-06 0.153261024796D-04 0.000000000000D+00  6 3 2 25 3 2 21 2 0.47185139D-01 0.35040581D+00 0.22596694D+06 0.22596694D+06 0.22596694D+06 0.10937768D+01  1  2  3  3  6  4        3 0.688896185137D-04 0.100000000000D+01
-.437676537952D-04 0.000000000000D+00 0.000000000000D+00 0.153261024796D-04 0.000000000000D+00  6 3 2 25 3 2 21 2 0.47185139D-01 0.35040581D+00 0.22596694D+06 0.22596694D+06 0.22596694D+06 0.10937768D+01  1  2 15  3  6  4        3 -.983825714937D-04 0.100000000000D+01
-.195399938046D-02 0.000000000000D+00 0.000000000000D+00 0.153261024796D-04 0.000000000000D+00  6 3 2 25 3 2 21 2 0.47185139D-01 0.35040581D+00 0.22596694D+06 0.22596694D+06 0.22596694D+06 0.10937768D+01  1  2  4  3  6  4        3 -.439227299335D-02 0.100000000000D+01
-.171637767392D-02 0.000000000000D+00 0.000000000000D+00 0.153261024796D-04 0.000000000000D+00  6 3 2 25 3 2 21 2 0.47185139D-01 0.35040581D+00 0.22596694D+06 0.22596694D+06 0.22596694D+06 0.10937768D+01  1  2  5  3  6  4        3 -.385813802139D-02 0.100000000000D+01
0.263486872404D-02 0.000000000000D+00 -.000000000000D+00 0.153261024796D-04 0.000000000000D+00  6 3 2 25 3 2 21 2 0.47185139D-01 0.35040581D+00 0.22596694D+06 0.22596694D+06 0.22596694D+06 0.10937768D+01  1  2  6  3  6  4        3 0.592275660541D-02 0.100000000000D+01
  </mgrwgt>
  </event>
  <event>
  5     66 -.19643240E-05 0.10374924E+03 0.75467711E-02 0.95517824E-01
        3 -1    0    0  501    0 0.00000000E+00 0.00000000E+00 0.12226651E+04 0.12226652E+04 0.50000000E+00 0.0000E+00 0.9000E+01
        2 -1    0    0  502    0 -.00000000E+00 -.00000000E+00 -.17576070E+04 0.17576071E+04 0.32000000E+00 0.0000E+00 0.9000E+01
       25  1    1    2    0    0 0.94409273E+02 -.44373646E+03 0.51571960E+03 0.69814531E+03 0.12500000E+03 0.0000E+00 0.9000E+01
        3  1    1    2  501    0 -.32230511E+02 0.98653416E+02 0.59272844E+03 0.60174625E+03 0.50000000E+00 0.0000E+00 0.9000E+01
        2  1    1    2  502    0 -.62178763E+02 0.34508305E+03 -.16433900E+04 0.16803807E+04 0.32000000E+00 0.0000E+00 0.9000E+01
#aMCatNLO 1  0  0  5  2 0.53838714D+01 0.00000000D+00  -5  6  0 0.00000000D+00 0.00000000D+00 0.00000000D+00 0.00000000D+00 0.00000000D+00
  <mgrwgt>
 -.1928316906D-02    8    2    0
 0.146593484289654D+04 0.000000000000000D+00 0.000000000000000D+00 0.146593484289654D+04
 0.146593484289654D+04 -.000000000000000D+00 -.000000000000000D+00 -.146593484289654D+04
 0.803989520061252D+03 0.944090711511667D+02 -.443761688615357D+03 0.651871643324009D+03
 0.719580948006857D+03 -.322194399251431D+02 0.986195303192025D+02 0.712062382565584D+03
 0.140829921772497D+04 -.621896312260237D+02 0.345142158296155D+03 -.136393402588959D+04
 0.000000000000000D+00 0.000000000000000D+00 0.000000000000000D+00 -.000000000000000D+00
 0.146593484289654D+04 0.000000000000000D+00 0.000000000000000D+00 0.146593484289654D+04
 0.146593484289654D+04 -.000000000000000D+00 -.000000000000000D+00 -.146593484289654D+04
 0.803901541244047D+03 0.944048742348259D+02 -.443738396424433D+03 0.651779597159910D+03
 0.719502452289024D+03 -.322231962198224D+02 0.986403771328475D+02 0.711980000052240D+03
 0.136515860716765D+04 -.605938373204052D+02 0.339774108746520D+03 -.132081034392839D+04
 0.433070850923498D+02 -.158784069459832D+01 0.532391054506529D+01 -.429492532837620D+02
0.121069140632D-03 0.000000000000D+00 0.000000000000D+00 0.712103913568D-04 0.000000000000D+00  6 3 2 25 3 2 21 0 0.18810233D+00 0.27040109D+00 0.21392822D+06 0.21392822D+06 0.21392822D+06 0.10955869D+01  1  2  2  4  6  5        2 0.142886034896D-04 0.100000000000D+01
0.160575382024D-04 0.000000000000D+00 -.464937378264D-06 0.712103913568D-04 0.000000000000D+00  6 3 2 25 3 2 21 2 0.18810233D+00 0.27040109D+00 0.21392822D+06 0.21392822D+06 0.21392822D+06 0.10955869D+01  1  2  3  4  6  5        2 0.227472508422D-05 0.100000000000D+01
-.798043968023D-04 0.000000000000D+00 0.000000000000D+00 0.712103913568D-04 0.000000000000D+00  6 3 2 25 3 2 21 2 0.18810233D+00 0.27040109D+00 0.21392822D+06 0.21392822D+06 0.21392822D+06 0.10955869D+01  1  2 15  4  6  5        2 -.113051615353D-04 0.100000000000D+01
0.980863844353D-02 0.000000000000D+00 0.000000000000D+00 0.712103913568D-04 0.000000000000D+00  6 3 2 25 3 2 21 2 0.18810233D+00 0.27040109D+00 0.21392287D+06 0.21392287D+06 0.21392287D+06 0.10955877D+01  1  2 12  4  6  5        2 0.138950526128D-02 0.100000000000D+01
-.143604157164D+00 0.000000000000D+00 0.000000000000D+00 0.712103913568D-04 0.000000000000D+00  6 3 2 25 3 2 21 2 0.18810233D+00 0.27040109D+00 0.21392822D+06 0.21392822D+06 0.21392822D+06 0.10955869D+01  1  2  4  4  6  5        2 -.203430920968D-01 0.100000000000D+01
-.698165156281D-01 0.000000000000D+00 0.000000000000D+00 0.712103913568D-04 0.000000000000D+00  6 3 2 25 3 2 21 2 0.18810233D+00 0.27040109D+00 0.21392822D+06 0.21392822D+06 0.21392822D+06 0.10955869D+01  1  2  5  4  6  5        2 -.989026944170D-02 0.100000000000D+01
0.719964616067D-01 0.000000000000D+00 -.000000000000D+00 0.712103913568D-04 0.000000000000D+00  6 3 2 25 3 2 21 2 0.18810233D+00 0.27040109D+00 0.21392822D+06 0.21392822D+06 0.21392822D+06 0.10955869D+01  1  2  6  4  6  5        2 0.101990825198D-01 0.100000000000D+01
0.117965804394D+00 0.000000000000D+00 0.000000000000D+00 0.712103913568D-04 0.560822041587D-04  6 3 2 25 3 2 21 2 0.18810233D+00 0.27040109D+00 0.21392287D+06 0.21392287D+06 0.21392287D+06 0.10955877D+01  1  2 11  4  6  5        2 0.167111986848D-01 0.100000000000D+01
  </mgrwgt>
  </event>
  <event>
  6     66 0.19643240E-05 0.21387373E+02 0.75467711E-02 0.94022146E-01
        1 -1    0    0  501    0 0.00000000E+00 0.00000000E+00 0.17208950E+04 0.17208951E+04 0.32000000E+00 0.0000E+00 0.9000E+01
        4 -1    0    0  503    0 0.00000000E+00 0.00000000E+00 -.27264980E+03 0.27265421E+03 0.15500000E+01 0.0000E+00 0.9000E+01
       25  1    1    2    0    0 0.19095655E+03 -.44433884E+03 0.86913765E+03 0.10024603E+04 0.12500000E+03 0.0000E+00 0.9000E+01
        1  1    1    2  501    0 -.21863098E+03 0.46450041E+03 0.69701887E+03 0.86567635E+03 0.32000000E+00 0.0000E+00 0.9000E+01
        4  1    1    2  502    0 0.27526549E+02 -.64225229E+01 -.89003320E+02 0.93396752E+02 0.15500000E+01 0.0000E+00 0.9000E+01
       21  1    1    2  503  502 0.14787746E+00 -.13739054E+02 -.28907960E+02 0.32015873E+02 0.75000000E+00 0.0000E+00 0.9000E+01
#aMCatNLO 2  0  0  2  5 0.13739849D+02 0.00000000D+00  -5  6  0 0.00000000D+00 0.00000000D+00 0.00000000D+00 0.00000000D+00 0.00000000D+00
  <mgrwgt>
 0.5507504956D-03    1    2    0
 0.645260208701745D+03 0.000000000000000D+00 0.000000000000000D+00 0.645260208701745D+03
 0.645260208701745D+03 0.000000000000000D+00 0.000000000000000D+00 -.645260208701745D+03
 0.533646822808145D+03 0.191050046820049D+03 -.450051327889645D+03 0.173515455703669D+03
 0.513056770250388D+03 -.218596693187037D+03 0.459064860697994D+03 0.685725083381324D+02
 0.243816824344957D+03 0.275466463669881D+02 -.901353280834866D+01 -.242087964041801D+03
 0.000000000000000D+00 0.000000000000000D+00 -.000000000000000D+00 -.000000000000000D+00
 0.645878284558098D+03 0.000000000000000D+00 0.000000000000000D+00 0.645878284558098D+03
 0.726458262393000D+03 0.000000000000000D+00 0.000000000000000D+00 -.726458262393000D+03
 0.528863868464796D+03 0.190989173344702D+03 -.444395672418853D+03 0.173515455703669D+03
 0.517998162349232D+03 -.218655764495718D+03 0.464553079798414D+03 0.685725083381324D+02
 0.243731526894121D+03 0.275187136950786D+02 -.641835374557844D+01 -.242087964041801D+03
 0.817429892429488D+02 0.147877455937654D+00 -.137390536339823D+02 -.805799778349028D+02
0.307509364727D-03 0.000000000000D+00 0.000000000000D+00 0.496111888424D-06 0.742158861887D-08  6 1 4 25 1 4 21 2 0.26475272D+00 0.41946353D-01 0.27826978D+06 0.27826978D+06 0.27826978D+06 0.10869761D+01  1  2  1  2  6  2        4 0.550750495626D-03 0.100000000000D+01
  </mgrwgt>
  </event>
  <event>
  5     66 0.19643240E-05 0.32423848E+02 0.75467711E-02 0.93930144E-01
        1 -1    0    0  501    0 0.00000000E+00 0.00000000E+00 0.17398441E+04 0.17398441E+04 0.32000000E+00 0.0000E+00 0.9000E+01
        4 -1    0    0  502    0 0.00000000E+00 0.00000000E+00 -.39303997E+03 0.39304302E+03 0.15500000E+01 0.0000E+00 0.9000E+01
       25  1    1    2    0    0 -.40408093E+03 0.33345835E+03 -.63363805E+00 0.53861050E+03 0.12500000E+03 0.0000E+00 0.9000E+01
        1  1    1    2  501    0 0.37452382E+03 -.32002154E+03 0.14263003E+04 0.15089780E+04 0.32000000E+00 0.0000E+00 0.9000E+01
        4  1    1    2  502    0 0.29557108E+02 -.13436811E+02 -.78862509E+02 0.85298701E+02 0.15500000E+01 0.0000E+00 0.9000E+01
#aMCatNLO 1  0  0  1  2 0.22480920D+03 0.00000000D+00  -5  6  0 0.00000000D+00 0.00000000D+00 0.00000000D+00 0.00000000D+00 0.00000000D+00
  <mgrwgt>
 0.1162633489D-02    7    2    0
 0.826941086183821D+03 0.000000000000000D+00 0.000000000000000D+00 0.826941086183821D+03
 0.826941086183821D+03 0.000000000000000D+00 0.000000000000000D+00 -.826941086183821D+03
 0.695446072690495D+03 -.404087237455618D+03 0.333480528389075D+03 -.439914175415459D+03
 0.784635330502232D+03 0.374570550725407D+03 -.320061470936109D+03 0.610663703869673D+03
 0.173800769174914D+03 0.295166867302116D+02 -.134190574529661D+02 -.170749528454214D+03
 0.000000000000000D+00 0.000000000000000D+00 -.000000000000000D+00 0.000000000000000D+00
 0.105153160188272D+04 0.000000000000000D+00 0.000000000000000D+00 0.105153160188272D+04
 0.892774213365040D+03 0.000000000000000D+00 0.000000000000000D+00 -.892774213365040D+03
 0.771556694426250D+03 -.491920637477372D+03 0.379689791022033D+03 -.439914175415459D+03
 0.726535469770197D+03 0.284092691803305D+03 -.272460955137294D+03 0.610663703869673D+03
 0.170999031224820D+03 0.887259561138374D+01 -.255817505410232D+01 -.170749528454214D+03
 0.275214619826491D+03 0.198955350062683D+03 -.104670660830636D+03 0.158757388517678D+03
0.872353778166D-03 0.000000000000D+00 0.000000000000D+00 0.297928558548D-05 0.000000000000D+00  6 1 4 25 1 4 21 0 0.26766856D+00 0.60467924D-01 0.28288646D+06 0.28288646D+06 0.28288646D+06 0.10864442D+01  1  2  2  1  6  1        1 0.561662179933D-03 0.100000000000D+01
0.263980886955D-03 0.000000000000D+00 -.335006820418D-05 0.297928558548D-05 0.000000000000D+00  6 1 4 25 1 4 21 2 0.26766856D+00 0.60467924D-01 0.28288646D+06 0.28288646D+06 0.28288646D+06 0.10864442D+01  1  2  3  1  6  1        1 0.200617987938D-03 0.100000000000D+01
-.574314470850D-03 0.000000000000D+00 0.000000000000D+00 0.297928558548D-05 0.000000000000D+00  6 1 4 25 1 4 21 2 0.26766856D+00 0.60467924D-01 0.28288646D+06 0.28288646D+06 0.28288646D+06 0.10864442D+01  1  2 15  1  6  1        1 -.436462711049D-03 0.100000000000D+01
-.190884535380D-03 0.000000000000D+00 0.000000000000D+00 0.297928558548D-05 0.000000000000D+00  6 1 4 25 1 4 21 2 0.26766856D+00 0.60467924D-01 0.28288646D+06 0.28288646D+06 0.28288646D+06 0.10864442D+01  1  2  4  1  6  1        1 -.145066833656D-03 0.100000000000D+01
-.209182177275D-02 0.000000000000D+00 -.677829961879D-03 0.297928558548D-05 0.000000000000D+00  6 1 4 25 1 4 21 2 0.35051222D+00 0.60467924D-01 0.28288646D+06 0.28288646D+06 0.28288646D+06 0.10864442D+01  1  2  5  1  6  1        1 -.694934101140D-03 0.100000000000D+01
0.221741054709D-02 0.000000000000D+00 0.653912892971D-03 0.297928558548D-05 0.000000000000D+00  6 1 4 25 1 4 21 2 0.26766856D+00 0.60467924D-01 0.28288646D+06 0.28288646D+06 0.28288646D+06 0.10864442D+01  1  2  6  1  6  1        1 0.168516913297D-02 0.100000000000D+01
-.619921406010D-04 0.000000000000D+00 -.242492966446D-04 0.297928558548D-05 0.000000000000D+00  6 21 4 25 1 4 -1 2 0.35051222D+00 0.60467924D-01 0.28288646D+06 0.28288646D+06 0.28288646D+06 0.10864442D+01  1  2  5  5  6  1        1 -.835216613010D-05 0.100000000000D+01
  </mgrwgt>
  </event>
  <event>
  6     66 0.19643240E-05 0.77600698E+02 0.75467711E-02 0.93125011E-01
        3 -1    0    0  503    0 0.00000000E+00 0.00000000E+00 0.56622644E+03 0.56622666E+03 0.50000000E+00 0.0000E+00 0.9000E+01
        2 -1    0    0  502    0 0.00000000E+00 0.00000000E+00 -.22807792E+04 0.22807792E+04 0.32000000E+00 0.0000E+00 0.9000E+01
       25  1    1    2    0    0 0.24177415E+03 -.43977583E+03 -.81168763E+03 0.96245484E+03 0.12500000E+03 0.0000E+00 0.9000E+01
        3  1    1    2  501    0 -.64134900E+02 -.52480503E+02 0.39685749E+03 0.40541782E+03 0.50000000E+00 0.0000E+00 0.9000E+01
        2  1    1    2  502    0 -.18445936E+03 0.50026435E+03 -.13375274E+04 0.14398852E+04 0.32000000E+00 0.0000E+00 0.9000E+01
       21  1    1    2  503  501 0.68201147E+01 -.80080154E+01 0.37804793E+02 0.39248021E+02 0.75000000E+00 0.0000E+00 0.9000E+01
#aMCatNLO 2  0  0  1  2 0.10518663D+02 0.00000000D+00  -5  6  0 0.00000000D+00 0.00000000D+00 0.00000000D+00 0.00000000D+00 0.00000000D+00
  <mgrwgt>
 0.1686630942D-02    4    2    0
 0.109688610116612D+04 0.000000000000000D+00 0.000000000000000D+00 0.109688610116612D+04
 0.109688610116612D+04 0.000000000000000D+00 0.000000000000000D+00 -.109688610116612D+04
 0.585880214754481D+03 0.243629208490458D+03 -.442011342774033D+03 -.270002606784021D+03
 0.835777867755239D+03 -.615286491035420D+02 -.555248443591457D+02 0.831658500364110D+03
 0.772114119822515D+03 -.182100559386916D+03 0.497536187133179D+03 -.561655893580089D+03
 0.000000000000000D+00 0.000000000000000D+00 -.000000000000000D+00 0.000000000000000D+00
 0.117697937037687D+04 0.000000000000000D+00 0.000000000000000D+00 0.117697937037687D+04
 0.109724411861679D+04 0.000000000000000D+00 0.000000000000000D+00 -.109724411861679D+04
 0.583516050196362D+03 0.241811478564651D+03 -.439877007811245D+03 -.270002606784021D+03
 0.835776073869338D+03 -.641269416698512D+02 -.524739914303957D+02 0.831658500364110D+03
 0.774505295478649D+03 -.184504651549076D+03 0.500359014596495D+03 -.561655893580089D+03
 0.804260694493062D+02 0.682011465427572D+01 -.800801535485414D+01 0.797352517600815D+02
-.581306270583D-03 0.000000000000D+00 0.000000000000D+00 0.609355524189D-05 0.000000000000D+00  6 3 2 25 3 2 21 2 0.81183706D-01 0.35077407D+00 0.32072293D+06 0.32072293D+06 0.32072293D+06 0.10824122D+01  1  2  8  1  6  1        3 -.394559521044D-03 0.100000000000D+01
-.295878360934D-02 0.000000000000D+00 0.000000000000D+00 0.609355524189D-05 0.000000000000D+00  6 3 2 25 3 2 21 2 0.87124350D-01 0.35077407D+00 0.32072293D+06 0.32072293D+06 0.32072293D+06 0.10824122D+01  1  2  9  1  6  1        3 -.170806865836D-02 0.100000000000D+01
0.295142052623D-02 0.000000000000D+00 0.000000000000D+00 0.609355524189D-05 0.000000000000D+00  6 3 2 25 3 2 21 2 0.81183706D-01 0.35077407D+00 0.32072293D+06 0.32072293D+06 0.32072293D+06 0.10824122D+01  1  2 10  1  6  1        3 0.200326596867D-02 0.100000000000D+01
0.310322107947D-02 0.000000000000D+00 0.000000000000D+00 0.609355524189D-05 0.116074788542D-06  6 3 2 25 3 2 21 2 0.87111640D-01 0.35088856D+00 0.32716227D+06 0.32716227D+06 0.32716227D+06 0.10817779D+01  1  2  1  1  6  1        3 0.178599315307D-02 0.100000000000D+01
  </mgrwgt>
  </event>
  <event>
  5     66 0.19643240E-05 0.12019597E+03 0.75467711E-02 0.94025291E-01
        3 -1    0    0  501    0 0.00000000E+00 0.00000000E+00 0.14910776E+04 0.14910777E+04 0.50000000E+00 0.0000E+00 0.9000E+01
        2 -1    0    0  502    0 0.00000000E+00 0.00000000E+00 -.83802009E+03 0.83802016E+03 0.32000000E+00 0.0000E+00 0.9000E+01
       25  1    1    2    0    0 -.44635546E+03 -.26292713E+03 -.73543343E+02 0.53795678E+03 0.12500000E+03 0.0000E+00 0.9000E+01
        3  1    1    2  501    0 0.35867024E+03 0.18075116E+03 0.12194302E+04 0.12838714E+04 0.50000000E+00 0.0000E+00 0.9000E+01
        2  1    1    2  502    0 0.87685215E+02 0.82175966E+02 -.49282942E+03 0.50726967E+03 0.32000000E+00 0.0000E+00 0.9000E+01
#aMCatNLO 1  0  0  4  1 0.21613462D+02 0.00000000D+00  -5  6  0 0.00000000D+00 0.00000000D+00 0.00000000D+00 0.00000000D+00 0.00000000D+00
  <mgrwgt>
 0.9016255965D-04    1    2    0
 0.111783413068547D+04 0.000000000000000D+00 0.000000000000000D+00 0.111783413068547D+04
 0.111783413068547D+04 -.000000000000000D+00 -.000000000000000D+00 -.111783413068547D+04
 0.581872927775289D+03 -.446356575408711D+03 -.262934131933277D+03 -.233629094788488D+03
 0.981275118619193D+03 0.358654213846117D+03 0.180743086375005D+03 0.895321143522911D+03
 0.672520214976454D+03 0.877023615625939D+02 0.821910455582720D+02 -.661692048734423D+03
 0.000000000000000D+00 0.000000000000000D+00 0.000000000000000D+00 0.000000000000000D+00
 0.111783413068547D+04 0.000000000000000D+00 0.000000000000000D+00 0.111783413068547D+04
 0.111783413068547D+04 -.000000000000000D+00 -.000000000000000D+00 -.111783413068547D+04
 0.567679562077408D+03 -.439170043562360D+03 -.259312493329585D+03 -.215689102276927D+03
 0.887277572241601D+03 0.218856194008795D+03 0.190369545424583D+03 0.838524235023516D+03
 0.653869880377402D+03 0.959944097683849D+02 0.863698069591571D+02 -.640992316805604D+03
 0.126841246674524D+03 0.124319439785180D+03 -.174268590541555D+02 0.181571840590152D+02
0.420129321944D-03 0.000000000000D+00 0.000000000000D+00 0.106758960959D-04 0.000000000000D+00  6 3 2 25 3 2 21 2 0.22939656D+00 0.12892618D+00 0.27811346D+06 0.27811346D+06 0.27811346D+06 0.10869943D+01  1  2 14  3  6  4        3 0.901625596490D-04 0.100000000000D+01
  </mgrwgt>
  </event>
  <event>
  5     66 0.19643240E-05 0.61260208E+02 0.75467711E-02 0.82085507E-01
        3 -1    0    0  501    0 0.00000000E+00 0.00000000E+00 0.53224213E+03 0.53224236E+03 0.50000000E+00 0.0000E+00 0.9000E+01
        2 -1    0    0  502    0 0.00000000E+00 0.00000000E+00 -.17749570E+04 0.17749571E+04 0.32000000E+00 0.0000E+00 0.9000E+01
       25  1    1    2    0    0 0.40176110E+03 -.29383525E+03 -.55727357E+02 0.51621863E+03 0.12500000E+03 0.0000E+00 0.9000E+01
        3  1    1    2  501    0 -.39077561E+03 0.35408810E+03 0.70476982E+02 0.53202558E+03 0.50000000E+00 0.0000E+00 0.9000E+01
        2  1    1    2  502    0 -.10985487E+02 -.60252843E+02 -.12574645E+04 0.12589552E+04 0.32000000E+00 0.0000E+00 0.9000E+01
#aMCatNLO 1  0  0  1  4 0.13876565D+02 0.00000000D+00  -5  6  0 0.00000000D+00 0.00000000D+00 0.00000000D+00 0.00000000D+00 0.00000000D+00
  <mgrwgt>
 0.1660522338D-02    5    2    0
 0.971960500793093D+03 0.000000000000000D+00 0.000000000000000D+00 0.971960500793093D+03
 0.971960500793093D+03 0.000000000000000D+00 0.000000000000000D+00 -.971960500793093D+03
 0.577067241870707D+03 0.401685679380310D+03 -.293750278447971D+03 0.264085195595632D+03
 0.676368546128226D+03 -.390697010648553D+03 0.354016871347699D+03 0.423677130446146D+03
 0.690485213587253D+03 -.109886687317565D+02 -.602665928997282D+02 -.687762326041778D+03
 0.000000000000000D+00 -.000000000000000D+00 0.000000000000000D+00 0.000000000000000D+00
 0.315540957965731D+04 0.000000000000000D+00 0.000000000000000D+00 0.315540957965731D+04
 0.165783276352287D+04 0.000000000000000D+00 0.000000000000000D+00 -.165783276352287D+04
 0.118557855720754D+04 0.864649120921190D+03 -.756711584732077D+03 0.264085195595632D+03
 0.439066268683446D+03 -.977251946718129D+02 0.610464066008800D+02 0.423677130446146D+03
 0.941545761766527D+03 0.417668454239985D+03 -.488921738840577D+03 -.687762326041778D+03
 0.224705175552267D+04 -.118459238048936D+04 0.118458691697177D+04 0.149757681613444D+04
0.195496584972D-02 0.000000000000D+00 0.000000000000D+00 0.472459155439D-05 0.000000000000D+00  6 3 2 25 3 2 21 0 0.81883425D-01 0.27307033D+00 0.30337235D+06 0.30337235D+06 0.30337235D+06 0.10841929D+01  1  2  2  1  6  1        3 0.211551352843D-02 0.100000000000D+01
0.747828022535D-03 0.000000000000D+00 -.750758361724D-05 0.472459155439D-05 0.000000000000D+00  6 3 2 25 3 2 21 2 0.81883425D-01 0.27307033D+00 0.30337235D+06 0.30337235D+06 0.30337235D+06 0.10841929D+01  1  2  3  1  6  1        3 0.951242976270D-03 0.100000000000D+01
-.114129006513D-02 0.000000000000D+00 0.000000000000D+00 0.472459155439D-05 0.000000000000D+00  6 3 2 25 3 2 21 2 0.81883425D-01 0.27307033D+00 0.30337235D+06 0.30337235D+06 0.30337235D+06 0.10841929D+01  1  2 15  1  6  1        3 -.145172971008D-02 0.100000000000D+01
0.206808869502D-02 0.000000000000D+00 -.131109579782D-02 0.472459155439D-05 0.000000000000D+00  6 3 2 25 3 2 21 2 0.36527677D+00 0.27307033D+00 0.30337235D+06 0.30337235D+06 0.30337235D+06 0.10841929D+01  1  2  5  1  6  1        3 0.834832786620D-05 0.100000000000D+01
0.364203945068D-03 0.000000000000D+00 -.236863668680D-03 0.472459155439D-05 0.000000000000D+00  6 21 2 25 3 2 -3 2 0.36527677D+00 0.27307033D+00 0.30337235D+06 0.30337235D+06 0.30337235D+06 0.10841929D+01  1  2  5  5  6  1        3 0.371472151598D-04 0.100000000000D+01
  </mgrwgt>
  </event>
</LesHouchesEvents>
