<event>
 5    0  0.1911311E+001  0.2296977E+03  0.7546771E-02  0.1126853E+00
         21   -1    0    0  502  501  0.00000000000E+00  0.00000000000E+00  0.25833236729E+03  0.25833236729E+03  0.00000000000E+00 0. -1.
         21   -1    0    0  504  502 -0.00000000000E+00 -0.00000000000E+00 -0.25505679996E+03  0.25505679996E+03  0.00000000000E+00 0. -1.
         25    1    1    2    0    0  0.22600244529E+02  0.22068140009E+03  0.37808269849E+02  0.25742089400E+03  0.12500000000E+03 0.  0.
         21    1    1    2  503  501 -0.25026095770E+01 -0.17334599480E+03  0.27348676598E+02  0.17550796871E+03  0.00000000000E+00 0. -1.
         21    1    1    2  504  503 -0.20097634952E+02 -0.47335405289E+02 -0.61881379116E+02  0.80460304535E+02  0.00000000000E+00 0. -1.
<mgrwt>
<rscale>  4 0.22969766E+03</rscale>
<asrwt>0</asrwt>
<pdfrwt beam="1">  1       21 0.39743441E-01 0.22969766E+03</pdfrwt>
<pdfrwt beam="2">  1       21 0.39239508E-01 0.22969766E+03</pdfrwt>
<totfact> 0.37512477E+04</totfact>
</mgrwt>
</event>
<event>
 5    0  0.1911311E+001  0.2252077E+03  0.7546771E-02  0.1130059E+00
         21   -1    0    0  503  501  0.00000000000E+00  0.00000000000E+00  0.10675139005E+04  0.10675139005E+04  0.00000000000E+00 0. -1.
         21   -1    0    0  501  502 -0.00000000000E+00 -0.00000000000E+00 -0.10301412468E+03  0.10301412468E+03  0.00000000000E+00 0. -1.
         25    1    1    2    0    0 -0.20329745491E+03 -0.18696311019E+02  0.41333816952E+03  0.47765348276E+03  0.12500000000E+03 0.  0.
         21    1    1    2  503  504  0.17595367974E+03 -0.62112436949E+02  0.62442590572E+02  0.19676567118E+03  0.00000000000E+00 0. -1.
         21    1    1    2  504  502  0.27343775163E+02  0.80808747968E+02  0.48871901571E+03  0.49610887123E+03  0.00000000000E+00 0. -1.
<mgrwt>
<rscale>  4 0.22520773E+03</rscale>
<asrwt>0</asrwt>
<pdfrwt beam="1">  1       21 0.16423290E+00 0.22520773E+03</pdfrwt>
<pdfrwt beam="2">  1       21 0.15848328E-01 0.22520773E+03</pdfrwt>
<totfact> 0.81156089E+03</totfact>
</mgrwt>
</event>
<event>
 5    0  0.1911311E+001  0.1959104E+03  0.7546771E-02  0.1153236E+00
         21   -1    0    0  502  501  0.00000000000E+00  0.00000000000E+00  0.62844137590E+02  0.62844137590E+02  0.00000000000E+00 0. -1.
         21   -1    0    0  504  502 -0.00000000000E+00 -0.00000000000E+00 -0.13006660217E+04  0.13006660217E+04  0.00000000000E+00 0. -1.
         25    1    1    2    0    0 -0.15313162225E+03 -0.15916606189E+03 -0.46448213985E+03  0.52929366824E+03  0.12500000000E+03 0.  0.
         21    1    1    2  503  501  0.87270222799E+02  0.95318963460E+02 -0.12628530326E+03  0.18069248574E+03  0.00000000000E+00 0. -1.
         21    1    1    2  504  503  0.65861399453E+02  0.63847098430E+02 -0.64705444104E+03  0.65352400536E+03  0.00000000000E+00 0. -1.
<mgrwt>
<rscale>  4 0.19591039E+03</rscale>
<asrwt>0</asrwt>
<pdfrwt beam="1">  1       21 0.96683299E-02 0.19591039E+03</pdfrwt>
<pdfrwt beam="2">  1       21 0.20010244E+00 0.19591039E+03</pdfrwt>
<totfact> 0.11514969E+04</totfact>
</mgrwt>
</event>
