<event>
 5    0  0.1856407E+000  0.2384942E+03  0.7546771E-02  0.1120800E+00
         21   -1    0    0  502  501  0.00000000000E+00  0.00000000000E+00  0.50761449495E+03  0.50761449495E+03  0.00000000000E+00 0.  1.
         21   -1    0    0  503  502 -0.00000000000E+00 -0.00000000000E+00 -0.11090961019E+03  0.11090961019E+03  0.00000000000E+00 0.  1.
         25    1    1    2    0    0  0.17182672062E+03 -0.10830540402E+03  0.31777582293E+03  0.39731719834E+03  0.12500000000E+03 0.  0.
         21    1    1    2  503  504 -0.11975894394E+03  0.92955391399E+02  0.66352037470E+02  0.16548565594E+03  0.00000000000E+00 0.  1.
         21    1    1    2  504  501 -0.52067776676E+02  0.15350012626E+02  0.12577024356E+02  0.55721250859E+02  0.00000000000E+00 0.  1.
<mgrwt>
<rscale>  4 0.23849420E+03</rscale>
<asrwt>0</asrwt>
<pdfrwt beam="1">  1       21 0.78094536E-01 0.23849420E+03</pdfrwt>
<pdfrwt beam="2">  1       21 0.17063017E-01 0.23849420E+03</pdfrwt>
<totfact> 0.44017919E+04</totfact>
</mgrwt>
</event>
<event>
 5    0  0.1856407E+000  0.2404532E+03  0.7546771E-02  0.1119491E+00
         21   -1    0    0  502  501  0.00000000000E+00  0.00000000000E+00  0.74981846659E+03  0.74981846659E+03  0.00000000000E+00 0.  1.
         21   -1    0    0  503  502 -0.00000000000E+00 -0.00000000000E+00 -0.75525399153E+02  0.75525399153E+02  0.00000000000E+00 0.  1.
         25    1    1    2    0    0  0.15779085152E+03 -0.13150959742E+03  0.49472720401E+03  0.55006611732E+03  0.12500000000E+03 0.  0.
         21    1    1    2  503  504 -0.30484683721E+02  0.96756167507E+01  0.21302205129E+02  0.38428081457E+02  0.00000000000E+00 0.  1.
         21    1    1    2  504  501 -0.12730616780E+03  0.12183398067E+03  0.15826365830E+03  0.23684966697E+03  0.00000000000E+00 0.  1.
<mgrwt>
<rscale>  4 0.24045317E+03</rscale>
<asrwt>0</asrwt>
<pdfrwt beam="1">  1       21 0.11535668E+00 0.24045317E+03</pdfrwt>
<pdfrwt beam="2">  1       21 0.11619293E-01 0.24045317E+03</pdfrwt>
<totfact> 0.35269022E+04</totfact>
</mgrwt>
</event>
<event>
 5    0  0.1856407E+000  0.2654436E+03  0.7546771E-02  0.1103916E+00
         21   -1    0    0  502  501  0.00000000000E+00  0.00000000000E+00  0.49825612074E+03  0.49825612074E+03  0.00000000000E+00 0.  1.
         21   -1    0    0  503  502 -0.00000000000E+00 -0.00000000000E+00 -0.16079966576E+03  0.16079966576E+03  0.00000000000E+00 0.  1.
         25    1    1    2    0    0 -0.22151606890E+03  0.75933760132E+02  0.32800595141E+03  0.42195759132E+03  0.12500000000E+03 0.  0.
         21    1    1    2  503  504  0.30915363544E+02 -0.15649477078E+02  0.13401987609E+02  0.37152107716E+02  0.00000000000E+00 0.  1.
         21    1    1    2  504  501  0.19060070536E+03 -0.60284283054E+02 -0.39514840365E+01  0.19994608746E+03  0.00000000000E+00 0.  1.
<mgrwt>
<rscale>  4 0.26544360E+03</rscale>
<asrwt>0</asrwt>
<pdfrwt beam="1">  1       21 0.76654787E-01 0.26544360E+03</pdfrwt>
<pdfrwt beam="2">  1       21 0.24738410E-01 0.26544360E+03</pdfrwt>
<totfact> 0.22528270E+04</totfact>
</mgrwt>
</event>
<event>
 5    0  0.1856407E+000  0.5341516E+03  0.7546771E-02  0.1005478E+00
         21   -1    0    0  502  501  0.00000000000E+00  0.00000000000E+00  0.10306303531E+04  0.10306303531E+04  0.00000000000E+00 0.  1.
         21   -1    0    0  503  502 -0.00000000000E+00 -0.00000000000E+00 -0.29467943316E+03  0.29467943316E+03  0.00000000000E+00 0.  1.
         25    1    1    2    0    0  0.51487508222E+03  0.14838674523E+02  0.53914662912E+03  0.75605596634E+03  0.12500000000E+03 0.  0.
         21    1    1    2  503  504 -0.59890688773E+02  0.43323346321E+02  0.42740479391E+02  0.85384749907E+02  0.00000000000E+00 0. -1.
         21    1    1    2  504  501 -0.45498439344E+03 -0.58162020843E+02  0.15406381145E+03  0.48386907004E+03  0.00000000000E+00 0.  1.
<mgrwt>
<rscale>  4 0.53312055E+03</rscale>
<asrwt>0</asrwt>
<pdfrwt beam="1">  1       21 0.15855851E+00 0.53415165E+03</pdfrwt>
<pdfrwt beam="2">  1       21 0.45335298E-01 0.53415165E+03</pdfrwt>
<totfact> 0.98199705E+02</totfact>
</mgrwt>
</event>
<event>
 5    0  0.1856407E+000  0.4009153E+03  0.7546771E-02  0.1043463E+00
         21   -1    0    0  502  501  0.00000000000E+00  0.00000000000E+00  0.20472097795E+03  0.20472097795E+03  0.00000000000E+00 0.  1.
         21   -1    0    0  503  502 -0.00000000000E+00 -0.00000000000E+00 -0.83437993460E+03  0.83437993460E+03  0.00000000000E+00 0.  1.
         25    1    1    2    0    0  0.90688262824E+02  0.35436820011E+03 -0.39618013355E+03  0.55352044270E+03  0.12500000000E+03 0.  0.
         21    1    1    2  503  504 -0.10615969562E+03 -0.37625433294E+03 -0.19039929626E+03  0.43484376051E+03  0.00000000000E+00 0.  1.
         21    1    1    2  504  501  0.15471432799E+02  0.21886132834E+02 -0.43079526840E+02  0.50736709353E+02  0.00000000000E+00 0.  1.
<mgrwt>
<rscale>  4 0.40091526E+03</rscale>
<asrwt>0</asrwt>
<pdfrwt beam="1">  1       21 0.31495536E-01 0.40091526E+03</pdfrwt>
<pdfrwt beam="2">  1       21 0.12836614E+00 0.40091526E+03</pdfrwt>
<totfact> 0.38325782E+03</totfact>
</mgrwt>
</event>
<event>
 5    0  0.1856407E+000  0.2628462E+03  0.7546771E-02  0.1105445E+00
         21   -1    0    0  502  501  0.00000000000E+00  0.00000000000E+00  0.38853861177E+03  0.38853861177E+03  0.00000000000E+00 0. -1.
         21   -1    0    0  503  502 -0.00000000000E+00 -0.00000000000E+00 -0.20258183881E+03  0.20258183881E+03  0.00000000000E+00 0.  1.
         25    1    1    2    0    0  0.94217666083E+02  0.23023451424E+03  0.17333833076E+03  0.32795743178E+03  0.12500000000E+03 0.  0.
         21    1    1    2  503  504 -0.13248014077E+02 -0.21429584551E+02  0.29234960701E+02  0.38593003229E+02  0.00000000000E+00 0.  1.
         21    1    1    2  504  501 -0.80969652006E+02 -0.20880492969E+03 -0.16616518492E+02  0.22457001557E+03  0.00000000000E+00 0.  1.
<mgrwt>
<rscale>  4 0.26284616E+03</rscale>
<asrwt>0</asrwt>
<pdfrwt beam="1">  1       21 0.59775171E-01 0.26284616E+03</pdfrwt>
<pdfrwt beam="2">  1       21 0.31166437E-01 0.26284616E+03</pdfrwt>
<totfact> 0.24931659E+04</totfact>
</mgrwt>
</event>
<event>
 5    0  0.1856407E+000  0.2440326E+03  0.7546771E-02  0.1117135E+00
         21   -1    0    0  502  501  0.00000000000E+00  0.00000000000E+00  0.49863226915E+03  0.49863226915E+03  0.00000000000E+00 0.  1.
         21   -1    0    0  503  502 -0.00000000000E+00 -0.00000000000E+00 -0.20236274196E+03  0.20236274196E+03  0.00000000000E+00 0.  1.
         25    1    1    2    0    0  0.85265753145E+02 -0.19145935650E+03  0.39583835584E+03  0.46501606188E+03  0.12500000000E+03 0.  0.
         21    1    1    2  503  504 -0.34295452261E+02  0.12662638758E+03 -0.67042350757E+02  0.14732649752E+03  0.00000000000E+00 0.  1.
         21    1    1    2  504  501 -0.50970300884E+02  0.64832968920E+02 -0.32526477885E+02  0.88652451713E+02  0.00000000000E+00 0.  1.
<mgrwt>
<rscale>  4 0.24403265E+03</rscale>
<asrwt>0</asrwt>
<pdfrwt beam="1">  1       21 0.76712657E-01 0.24403265E+03</pdfrwt>
<pdfrwt beam="2">  1       21 0.31132730E-01 0.24403265E+03</pdfrwt>
<totfact> 0.14532973E+04</totfact>
</mgrwt>
</event>
<event>
 5    0  0.1856407E+000  0.4147964E+03  0.7546771E-02  0.1038773E+00
         21   -1    0    0  502  501  0.00000000000E+00  0.00000000000E+00  0.51982065650E+02  0.51982065650E+02  0.00000000000E+00 0.  1.
         21   -1    0    0  503  502 -0.00000000000E+00 -0.00000000000E+00 -0.33843233994E+04  0.33843233994E+04  0.00000000000E+00 0.  1.
         25    1    1    2    0    0  0.37546313406E+03  0.12433220861E+03 -0.13209293643E+04  0.13845253514E+04  0.12500000000E+03 0.  0.
         21    1    1    2  503  504 -0.85212371319E+02  0.68836574461E+01 -0.48659857334E+03  0.49405131772E+03  0.00000000000E+00 0. -1.
         21    1    1    2  504  501 -0.29025076274E+03 -0.13121586606E+03 -0.15248133961E+04  0.15577287959E+04  0.00000000000E+00 0.  1.
<mgrwt>
<rscale>  4 0.41479641E+03</rscale>
<asrwt>0</asrwt>
<pdfrwt beam="1">  1       21 0.79972391E-02 0.41479641E+03</pdfrwt>
<pdfrwt beam="2">  1       21 0.52066525E+00 0.41479641E+03</pdfrwt>
<totfact> 0.12531319E+02</totfact>
</mgrwt>
</event>
<event>
 5    0  0.2303142E+000  0.2337433E+03  0.7546771E-02  0.1124032E+00
         21   -1    0    0  502  501  0.00000000000E+00  0.00000000000E+00  0.24550740074E+03  0.24550740074E+03  0.00000000000E+00 0. -1.
         21   -1    0    0  503  502 -0.00000000000E+00 -0.00000000000E+00 -0.56381272573E+03  0.56381272573E+03  0.00000000000E+00 0. -1.
         25    1    1    2    0    0  0.16419293072E+03 -0.12296673467E+03  0.14829426230E+03  0.28230537466E+03  0.12500000000E+03 0.  0.
         21    1    1    2  503  504 -0.14869752215E+03  0.81981546187E+02 -0.22720997400E+03  0.28364819635E+03  0.00000000000E+00 0. -1.
         21    1    1    2  504  501 -0.15495408568E+02  0.40985188485E+02 -0.23938961329E+03  0.24336655545E+03  0.00000000000E+00 0. -1.
<mgrwt>
<rscale>  4 0.23374333E+03</rscale>
<asrwt>0</asrwt>
<pdfrwt beam="1">  1       21 0.37770370E-01 0.23374333E+03</pdfrwt>
<pdfrwt beam="2">  1       21 0.86740419E-01 0.23374333E+03</pdfrwt>
<totfact> 0.75172343E+03</totfact>
</mgrwt>
</event>
<event>
 5    0  0.1856407E+000  0.3405854E+03  0.7546771E-02  0.1066547E+00
         21   -1    0    0  502  501  0.00000000000E+00  0.00000000000E+00  0.26241312450E+03  0.26241312450E+03  0.00000000000E+00 0.  1.
         21   -1    0    0  503  502 -0.00000000000E+00 -0.00000000000E+00 -0.42425298413E+03  0.42425298413E+03  0.00000000000E+00 0.  1.
         25    1    1    2    0    0 -0.29747687494E+03 -0.10899969649E+03 -0.10033766696E+03  0.35505784369E+03  0.12500000000E+03 0.  0.
         21    1    1    2  503  504  0.11942961147E+03  0.40975328935E+02 -0.62768586700E+02  0.14100462813E+03  0.00000000000E+00 0.  1.
         21    1    1    2  504  501  0.17804726346E+03  0.68024367560E+02  0.12663940332E+01  0.19060363680E+03  0.00000000000E+00 0.  1.
<mgrwt>
<rscale>  4 0.34058542E+03</rscale>
<asrwt>0</asrwt>
<pdfrwt beam="1">  1       21 0.40371250E-01 0.34058542E+03</pdfrwt>
<pdfrwt beam="2">  1       21 0.65269689E-01 0.34058542E+03</pdfrwt>
<totfact> 0.11845467E+04</totfact>
</mgrwt>
</event>
<event>
 5    0  0.1856407E+000  0.2384785E+03  0.7546771E-02  0.1120811E+00
         21   -1    0    0  502  501  0.00000000000E+00  0.00000000000E+00  0.16193618835E+03  0.16193618835E+03  0.00000000000E+00 0. -1.
         21   -1    0    0  503  502 -0.00000000000E+00 -0.00000000000E+00 -0.10432221486E+04  0.10432221486E+04  0.00000000000E+00 0.  1.
         25    1    1    2    0    0 -0.14886206778E+03 -0.13815604683E+03  0.54324804033E+02  0.24458780189E+03  0.12500000000E+03 0.  0.
         21    1    1    2  503  504  0.82159176156E+02  0.96289699636E+02 -0.41004647204E+03  0.42913860898E+03  0.00000000000E+00 0.  1.
         21    1    1    2  504  501  0.66702891621E+02  0.41866347194E+02 -0.52556429226E+03  0.53143192610E+03  0.00000000000E+00 0.  1.
<mgrwt>
<rscale>  4 0.23847853E+03</rscale>
<asrwt>0</asrwt>
<pdfrwt beam="1">  1       21 0.24913259E-01 0.23847853E+03</pdfrwt>
<pdfrwt beam="2">  1       21 0.16049572E+00 0.23847853E+03</pdfrwt>
<totfact> 0.36644990E+03</totfact>
</mgrwt>
</event>
<event>
 5    0  0.1856407E+000  0.3243559E+03  0.7546771E-02  0.1073662E+00
         21   -1    0    0  502  501  0.00000000000E+00  0.00000000000E+00  0.78987704807E+03  0.78987704807E+03  0.00000000000E+00 0. -1.
         21   -1    0    0  503  502 -0.00000000000E+00 -0.00000000000E+00 -0.12853878980E+03  0.12853878980E+03  0.00000000000E+00 0. -1.
         25    1    1    2    0    0 -0.18873448546E+03 -0.23229521574E+03  0.40656822068E+03  0.52010046272E+03  0.12500000000E+03 0.  0.
         21    1    1    2  503  504  0.97660834756E+02  0.16922831865E+03  0.16055964976E+03  0.25289377930E+03  0.00000000000E+00 0. -1.
         21    1    1    2  504  501  0.91073650706E+02  0.63066897086E+02  0.94210387830E+02  0.14542159584E+03  0.00000000000E+00 0. -1.
<mgrwt>
<rscale>  4 0.32435594E+03</rscale>
<asrwt>0</asrwt>
<pdfrwt beam="1">  1       21 0.12151954E+00 0.32435594E+03</pdfrwt>
<pdfrwt beam="2">  1       21 0.19775199E-01 0.32435594E+03</pdfrwt>
<totfact> 0.11217646E+04</totfact>
</mgrwt>
</event>
