<event>
 5    0  0.4638834E+000  0.6346625E+03  0.7546771E-02  0.9835992E-01
         21   -1    0    0  503  501  0.00000000000E+00  0.00000000000E+00  0.23129848805E+03  0.23129848805E+03  0.00000000000E+00 0.  1.
         21   -1    0    0  504  502 -0.00000000000E+00 -0.00000000000E+00 -0.13541417592E+04  0.13541417592E+04  0.00000000000E+00 0.  1.
         25    1    1    2    0    0  0.37036797069E+03 -0.81617021992E+02 -0.10649631620E+04  0.11373677103E+04  0.12500000000E+03 0.  0.
         21    1    1    2  503  502 -0.35723752635E+03  0.10903669830E+03 -0.10856841668E+03  0.38896626191E+03  0.00000000000E+00 0.  1.
         21    1    1    2  504  501 -0.13130444341E+02 -0.27419676311E+02  0.50688307586E+02  0.59106274992E+02  0.00000000000E+00 0. -1.
<mgrwt>
<rscale>  4 0.63466252E+03</rscale>
<asrwt>0</asrwt>
<pdfrwt beam="1">  1       21 0.35584383E-01 0.63466252E+03</pdfrwt>
<pdfrwt beam="2">  1       21 0.20832950E+00 0.63466252E+03</pdfrwt>
<totfact> 0.69649876E+02</totfact>
</mgrwt>
</event>
<event>
 5    0  0.2349231E+000  0.1086787E+04  0.7546771E-02  0.9218167E-01
         21   -1    0    0  503  501  0.00000000000E+00  0.00000000000E+00  0.33475100876E+03  0.33475100876E+03  0.00000000000E+00 0. -1.
         21   -1    0    0  504  502 -0.00000000000E+00 -0.00000000000E+00 -0.25559459553E+04  0.25559459553E+04  0.00000000000E+00 0.  1.
         25    1    1    2    0    0 -0.27958862060E+03  0.19706742841E+03 -0.40813331605E+03  0.54699467253E+03  0.12500000000E+03 0.  0.
         21    1    1    2  503  502  0.65093982019E+03  0.88469762265E+02 -0.17522379240E+04  0.18713330250E+04  0.00000000000E+00 0.  1.
         21    1    1    2  504  501 -0.37135119959E+03 -0.28553719068E+03 -0.60823706557E+02  0.47236926654E+03  0.00000000000E+00 0. -1.
<mgrwt>
<rscale>  4 0.10867865E+04</rscale>
<asrwt>0</asrwt>
<pdfrwt beam="1">  1       21 0.51500158E-01 0.10867865E+04</pdfrwt>
<pdfrwt beam="2">  1       21 0.39322244E+00 0.10867865E+04</pdfrwt>
<totfact> 0.18913231E+01</totfact>
</mgrwt>
</event>
<event>
 5    0  0.2349231E+000  0.4970540E+03  0.7546771E-02  0.1014551E+00
         21   -1    0    0  504  501  0.00000000000E+00  0.00000000000E+00  0.37783802390E+03  0.37783802390E+03  0.00000000000E+00 0.  1.
         21   -1    0    0  501  502 -0.00000000000E+00 -0.00000000000E+00 -0.37294852491E+03  0.37294852491E+03  0.00000000000E+00 0.  1.
         25    1    1    2    0    0 -0.12845131280E+03 -0.21561098140E+03  0.99751906376E+01  0.28055719468E+03  0.12500000000E+03 0.  0.
         21    1    1    2  503  502  0.20106383691E+03  0.10475568053E+01 -0.10008327465E+03  0.22459836543E+03  0.00000000000E+00 0.  1.
         21    1    1    2  504  503 -0.72612524106E+02  0.21456342459E+03  0.94997583002E+02  0.24563098869E+03  0.00000000000E+00 0.  1.
<mgrwt>
<rscale>  4 0.49705399E+03</rscale>
<asrwt>0</asrwt>
<pdfrwt beam="1">  1       21 0.58128927E-01 0.49705399E+03</pdfrwt>
<pdfrwt beam="2">  1       21 0.57376696E-01 0.49705399E+03</pdfrwt>
<totfact> 0.69102695E+03</totfact>
</mgrwt>
</event>
<event>
 5    0  0.2349231E+000  0.7306580E+03  0.7546771E-02  0.9666193E-01
         21   -1    0    0  504  501  0.00000000000E+00  0.00000000000E+00  0.15381899072E+04  0.15381899072E+04  0.00000000000E+00 0. -1.
         21   -1    0    0  503  502 -0.00000000000E+00 -0.00000000000E+00 -0.38333689999E+03  0.38333689999E+03  0.00000000000E+00 0.  1.
         25    1    1    2    0    0  0.22182816137E+03  0.22201366037E+03 -0.16455253773E+03  0.37576633196E+03  0.12500000000E+03 0.  0.
         21    1    1    2  503  501 -0.25302185274E+03 -0.21369780971E+03  0.12980064546E+03  0.35571761187E+03  0.00000000000E+00 0. -1.
         21    1    1    2  504  502  0.31193691367E+02 -0.83158506599E+01  0.11896048995E+04  0.11900428633E+04  0.00000000000E+00 0. -1.
<mgrwt>
<rscale>  4 0.73065797E+03</rscale>
<asrwt>0</asrwt>
<pdfrwt beam="1">  1       21 0.23664460E+00 0.73065797E+03</pdfrwt>
<pdfrwt beam="2">  1       21 0.58974909E-01 0.73065797E+03</pdfrwt>
<totfact> 0.15134246E+02</totfact>
</mgrwt>
</event>
<event>
 5    0  0.2349231E+000  0.1297791E+04  0.7546771E-02  0.9031319E-01
         21   -1    0    0  503  501  0.00000000000E+00  0.00000000000E+00  0.45907199745E+03  0.45907199745E+03  0.00000000000E+00 0. -1.
         21   -1    0    0  504  502 -0.00000000000E+00 -0.00000000000E+00 -0.16837467427E+04  0.16837467427E+04  0.00000000000E+00 0.  1.
         25    1    1    2    0    0  0.21865585519E+03 -0.19918759028E+02  0.18042630928E+03  0.31046061433E+03  0.12500000000E+03 0.  0.
         21    1    1    2  503  502 -0.38263731586E+02  0.29421954504E+02  0.20578771994E+03  0.21137253900E+03  0.00000000000E+00 0. -1.
         21    1    1    2  504  501 -0.18039212360E+03 -0.95031954767E+01 -0.16108887744E+04  0.16209855868E+04  0.00000000000E+00 0.  1.
<mgrwt>
<rscale>  4 0.12977910E+04</rscale>
<asrwt>0</asrwt>
<pdfrwt beam="1">  1       21 0.70626461E-01 0.12977910E+04</pdfrwt>
<pdfrwt beam="2">  1       21 0.25903796E+00 0.12977910E+04</pdfrwt>
<totfact> 0.62853791E+01</totfact>
</mgrwt>
</event>
