<event>
 5    0  0.2404318E+000  0.2724397E+03  0.7546771E-02  0.1099891E+00
         21   -1    0    0  502  501  0.00000000000E+00  0.00000000000E+00  0.14308777985E+03  0.14308777985E+03  0.00000000000E+00 0. -1.
         21   -1    0    0  503  502 -0.00000000000E+00 -0.00000000000E+00 -0.48520787448E+03  0.48520787448E+03  0.00000000000E+00 0. -1.
         25    1    1    2    0    0 -0.18818839160E+03 -0.15226132583E+03 -0.15197960136E+03  0.31196342944E+03  0.12500000000E+03 0.  0.
         21    1    1    2  503  504  0.37582692224E+02  0.56438715369E+02 -0.86542950066E+02  0.10994302867E+03  0.00000000000E+00 0. -1.
         21    1    1    2  504  501  0.15060569938E+03  0.95822610463E+02 -0.10359754320E+03  0.20638919622E+03  0.00000000000E+00 0. -1.
<mgrwt>
<rscale>  4 0.27243969E+03</rscale>
<asrwt>0</asrwt>
<pdfrwt beam="1">  1       21 0.22013505E-01 0.27243969E+03</pdfrwt>
<pdfrwt beam="2">  1       21 0.74647365E-01 0.27243969E+03</pdfrwt>
<totfact> 0.29803446E+04</totfact>
</mgrwt>
</event>
<event>
 5    0  0.1856407E+000  0.3586803E+03  0.7546771E-02  0.1059108E+00
         21   -1    0    0  502  501  0.00000000000E+00  0.00000000000E+00  0.17472596295E+03  0.17472596295E+03  0.00000000000E+00 0. -1.
         21   -1    0    0  503  502 -0.00000000000E+00 -0.00000000000E+00 -0.20625210299E+04  0.20625210299E+04  0.00000000000E+00 0. -1.
         25    1    1    2    0    0 -0.96825395407E+02 -0.32194934474E+03 -0.44001104404E+02  0.36136911180E+03  0.12500000000E+03 0.  0.
         21    1    1    2  503  504  0.78864884869E+02  0.29653499950E+03 -0.17588049260E+04  0.17853703940E+04  0.00000000000E+00 0. -1.
         21    1    1    2  504  501  0.17960510539E+02  0.25414345240E+02 -0.84989036615E+02  0.90507487135E+02  0.00000000000E+00 0.  1.
<mgrwt>
<rscale>  4 0.35868027E+03</rscale>
<asrwt>0</asrwt>
<pdfrwt beam="1">  1       21 0.26880917E-01 0.35868027E+03</pdfrwt>
<pdfrwt beam="2">  1       21 0.31731093E+00 0.35868027E+03</pdfrwt>
<totfact> 0.29858832E+02</totfact>
</mgrwt>
</event>
<event>
 5    0  0.1856407E+000  0.4044435E+03  0.7546771E-02  0.1042252E+00
         21   -1    0    0  502  501  0.00000000000E+00  0.00000000000E+00  0.54554400068E+03  0.54554400068E+03  0.00000000000E+00 0.  1.
         21   -1    0    0  503  502 -0.00000000000E+00 -0.00000000000E+00 -0.12639503391E+04  0.12639503391E+04  0.00000000000E+00 0. -1.
         25    1    1    2    0    0 -0.27025597369E+03 -0.34002833169E+03  0.38493958938E+03  0.59368429754E+03  0.12500000000E+03 0.  0.
         21    1    1    2  503  504  0.25629153352E+03  0.28246640212E+03 -0.10903979285E+04  0.11551797527E+04  0.00000000000E+00 0. -1.
         21    1    1    2  504  501  0.13964440170E+02  0.57561929568E+02 -0.12947999256E+02  0.60630289539E+02  0.00000000000E+00 0. -1.
<mgrwt>
<rscale>  4 0.40444349E+03</rscale>
<asrwt>0</asrwt>
<pdfrwt beam="1">  1       21 0.83929846E-01 0.40444349E+03</pdfrwt>
<pdfrwt beam="2">  1       21 0.19445390E+00 0.40444349E+03</pdfrwt>
<totfact> 0.14845279E+02</totfact>
</mgrwt>
</event>
<event>
 5    0  0.1856407E+000  0.3141315E+03  0.7546771E-02  0.1078382E+00
         21   -1    0    0  502  501  0.00000000000E+00  0.00000000000E+00  0.93779731833E+03  0.93779731833E+03  0.00000000000E+00 0. -1.
         21   -1    0    0  503  502 -0.00000000000E+00 -0.00000000000E+00 -0.55313791775E+03  0.55313791775E+03  0.00000000000E+00 0. -1.
         25    1    1    2    0    0  0.14760216779E+03 -0.24752211978E+03  0.86891095142E+03  0.92395067034E+03  0.12500000000E+03 0.  0.
         21    1    1    2  503  504 -0.94730319344E+02  0.17313805034E+03 -0.27303456712E+03  0.33689537355E+03  0.00000000000E+00 0. -1.
         21    1    1    2  504  501 -0.52871848447E+02  0.74384069435E+02 -0.21121698373E+03  0.23008919218E+03  0.00000000000E+00 0. -1.
<mgrwt>
<rscale>  4 0.31413150E+03</rscale>
<asrwt>0</asrwt>
<pdfrwt beam="1">  1       21 0.14427651E+00 0.31413150E+03</pdfrwt>
<pdfrwt beam="2">  1       21 0.85098142E-01 0.31413150E+03</pdfrwt>
<totfact> 0.35378311E+02</totfact>
</mgrwt>
</event>
<event>
 5    0  0.2106852E+000  0.2621265E+03  0.7546771E-02  0.1105872E+00
         21   -1    0    0  502  501  0.00000000000E+00  0.00000000000E+00  0.31362721874E+03  0.31362721874E+03  0.00000000000E+00 0. -1.
         21   -1    0    0  503  502 -0.00000000000E+00 -0.00000000000E+00 -0.29653227883E+03  0.29653227883E+03  0.00000000000E+00 0.  1.
         25    1    1    2    0    0  0.21445698784E+03  0.84222986020E+02  0.17939087471E+03  0.31763406136E+03  0.12500000000E+03 0.  0.
         21    1    1    2  503  504 -0.36597571573E+02  0.15180816785E+02 -0.26700929148E+02  0.47778437194E+02  0.00000000000E+00 0.  1.
         21    1    1    2  504  501 -0.17785941626E+03 -0.99403802805E+02 -0.13559500566E+03  0.24474699901E+03  0.00000000000E+00 0.  1.
<mgrwt>
<rscale>  4 0.26212652E+03</rscale>
<asrwt>0</asrwt>
<pdfrwt beam="1">  1       21 0.48250342E-01 0.26212652E+03</pdfrwt>
<pdfrwt beam="2">  1       21 0.45620350E-01 0.26212652E+03</pdfrwt>
<totfact> 0.18207521E+04</totfact>
</mgrwt>
</event>
<event>
 5    0  0.1856407E+000  0.2884653E+03  0.7546771E-02  0.1091153E+00
         21   -1    0    0  502  501  0.00000000000E+00  0.00000000000E+00  0.83995575500E+03  0.83995575500E+03  0.00000000000E+00 0. -1.
         21   -1    0    0  503  502 -0.00000000000E+00 -0.00000000000E+00 -0.14347063177E+03  0.14347063177E+03  0.00000000000E+00 0. -1.
         25    1    1    2    0    0 -0.23720755566E+03 -0.10639460224E+03  0.63667631394E+03  0.69897708445E+03  0.12500000000E+03 0.  0.
         21    1    1    2  503  504  0.11005029658E+03  0.86220033533E+00  0.43280571792E+01  0.11013874544E+03  0.00000000000E+00 0. -1.
         21    1    1    2  504  501  0.12715725907E+03  0.10553240190E+03  0.55480752107E+02  0.17431055688E+03  0.00000000000E+00 0. -1.
<mgrwt>
<rscale>  4 0.28846531E+03</rscale>
<asrwt>0</asrwt>
<pdfrwt beam="1">  1       21 0.12922396E+00 0.28846531E+03</pdfrwt>
<pdfrwt beam="2">  1       21 0.22072405E-01 0.28846531E+03</pdfrwt>
<totfact> 0.79227647E+03</totfact>
</mgrwt>
</event>
<event>
 5    0  0.1856407E+000  0.4204091E+03  0.7546771E-02  0.1036933E+00
         21   -1    0    0  502  501  0.00000000000E+00  0.00000000000E+00  0.46110852183E+03  0.46110852183E+03  0.00000000000E+00 0. -1.
         21   -1    0    0  503  502 -0.00000000000E+00 -0.00000000000E+00 -0.37911085624E+03  0.37911085624E+03  0.00000000000E+00 0. -1.
         25    1    1    2    0    0 -0.22187060100E+03  0.33450301760E+03  0.15682748243E+02  0.42070153430E+03  0.12500000000E+03 0.  0.
         21    1    1    2  503  504  0.14902964105E+03 -0.28659821073E+03  0.75851524738E+02  0.33181594614E+03  0.00000000000E+00 0. -1.
         21    1    1    2  504  501  0.72840959949E+02 -0.47904806865E+02 -0.95366073899E+01  0.87701897628E+02  0.00000000000E+00 0. -1.
<mgrwt>
<rscale>  4 0.42040912E+03</rscale>
<asrwt>0</asrwt>
<pdfrwt beam="1">  1       21 0.70939772E-01 0.42040912E+03</pdfrwt>
<pdfrwt beam="2">  1       21 0.58324747E-01 0.42040912E+03</pdfrwt>
<totfact> 0.43917324E+03</totfact>
</mgrwt>
</event>
<event>
 5    0  0.1856407E+000  0.3392397E+03  0.7546771E-02  0.1067498E+00
         21   -1    0    0  502  501  0.00000000000E+00  0.00000000000E+00  0.30601467077E+03  0.30601467077E+03  0.00000000000E+00 0. -1.
         21   -1    0    0  503  502 -0.00000000000E+00 -0.00000000000E+00 -0.57151553471E+03  0.57151553471E+03  0.00000000000E+00 0. -1.
         25    1    1    2    0    0  0.29085550341E+03 -0.11174090811E+03  0.12682348212E+03  0.35887623218E+03  0.12500000000E+03 0.  0.
         21    1    1    2  503  504 -0.74906403034E+02  0.57332778125E+02 -0.41361788793E+02  0.10299909822E+03  0.00000000000E+00 0. -1.
         21    1    1    2  504  501 -0.21594910038E+03  0.54408129983E+02 -0.35096255727E+03  0.41565487507E+03  0.00000000000E+00 0. -1.
<mgrwt>
<rscale>  4 0.33835632E+03</rscale>
<asrwt>0</asrwt>
<pdfrwt beam="1">  1       21 0.47079181E-01 0.33923967E+03</pdfrwt>
<pdfrwt beam="2">  1       21 0.87925466E-01 0.33923967E+03</pdfrwt>
<totfact> 0.43799355E+03</totfact>
</mgrwt>
</event>
<event>
 5    0  0.1856407E+000  0.2410594E+03  0.7546771E-02  0.1119089E+00
         21   -1    0    0  502  501  0.00000000000E+00  0.00000000000E+00  0.14934281541E+04  0.14934281541E+04  0.00000000000E+00 0.  1.
         21   -1    0    0  503  502 -0.00000000000E+00 -0.00000000000E+00 -0.19016191184E+03  0.19016191184E+03  0.00000000000E+00 0.  1.
         25    1    1    2    0    0 -0.20770643037E+03  0.38163385991E+01  0.13530350381E+04  0.13745855157E+04  0.12500000000E+03 0.  0.
         21    1    1    2  503  504  0.28237321694E+02  0.54677087582E+02  0.63857351135E+02  0.88683096117E+02  0.00000000000E+00 0.  1.
         21    1    1    2  504  501  0.17946910868E+03 -0.58493426181E+02 -0.11362614696E+03  0.22032145413E+03  0.00000000000E+00 0.  1.
<mgrwt>
<rscale>  4 0.24105944E+03</rscale>
<asrwt>0</asrwt>
<pdfrwt beam="1">  1       21 0.22975817E+00 0.24105944E+03</pdfrwt>
<pdfrwt beam="2">  1       21 0.29255680E-01 0.24105944E+03</pdfrwt>
<totfact> 0.93174915E+02</totfact>
</mgrwt>
</event>
<event>
 5    0  0.1856407E+000  0.2553405E+03  0.7546771E-02  0.1109976E+00
         21   -1    0    0  502  501  0.00000000000E+00  0.00000000000E+00  0.84559633882E+02  0.84559633882E+02  0.00000000000E+00 0.  1.
         21   -1    0    0  503  502 -0.00000000000E+00 -0.00000000000E+00 -0.72445672890E+03  0.72445672890E+03  0.00000000000E+00 0.  1.
         25    1    1    2    0    0 -0.70058765768E+02  0.21134220837E+03 -0.30584059177E+03  0.39841840730E+03  0.12500000000E+03 0.  0.
         21    1    1    2  503  504  0.42724831084E+02 -0.26529791656E+02 -0.52536584663E+02  0.72727805993E+02  0.00000000000E+00 0.  1.
         21    1    1    2  504  501  0.27333934684E+02 -0.18481241671E+03 -0.28151991858E+03  0.33787014949E+03  0.00000000000E+00 0.  1.
<mgrwt>
<rscale>  4 0.25534048E+03</rscale>
<asrwt>0</asrwt>
<pdfrwt beam="1">  1       21 0.13009175E-01 0.25534048E+03</pdfrwt>
<pdfrwt beam="2">  1       21 0.11145488E+00 0.25534048E+03</pdfrwt>
<totfact> 0.31086761E+04</totfact>
</mgrwt>
</event>
<event>
 5    0  0.1856407E+000  0.3207874E+03  0.7546771E-02  0.1075287E+00
         21   -1    0    0  502  501  0.00000000000E+00  0.00000000000E+00  0.14637405561E+03  0.14637405561E+03  0.00000000000E+00 0. -1.
         21   -1    0    0  503  502 -0.00000000000E+00 -0.00000000000E+00 -0.83707300502E+03  0.83707300502E+03  0.00000000000E+00 0. -1.
         25    1    1    2    0    0 -0.15362680469E+03 -0.25234570211E+03 -0.58078292920E+03  0.66348576423E+03  0.12500000000E+03 0.  0.
         21    1    1    2  503  504  0.30383978866E+02  0.65367915105E+02 -0.51303582444E+02  0.88477161282E+02  0.00000000000E+00 0. -1.
         21    1    1    2  504  501  0.12324282582E+03  0.18697778700E+03 -0.58612437767E+02  0.23148413512E+03  0.00000000000E+00 0. -1.
<mgrwt>
<rscale>  4 0.32078739E+03</rscale>
<asrwt>0</asrwt>
<pdfrwt beam="1">  1       21 0.22519085E-01 0.32078739E+03</pdfrwt>
<pdfrwt beam="2">  1       21 0.12878047E+00 0.32078739E+03</pdfrwt>
<totfact> 0.75722295E+03</totfact>
</mgrwt>
</event>
