<event>
 5    0  0.1911311E+001  0.5262549E+03  0.7546771E-02  0.1007144E+00
         21   -1    0    0  504  501  0.00000000000E+00  0.00000000000E+00  0.13248083587E+04  0.13248083587E+04  0.00000000000E+00 0. -1.
         21   -1    0    0  503  502 -0.00000000000E+00 -0.00000000000E+00 -0.78499558968E+03  0.78499558968E+03  0.00000000000E+00 0. -1.
         25    1    1    2    0    0 -0.67015379386E+03 -0.25435353404E+02  0.27408281341E+03  0.73518667917E+03  0.12500000000E+03 0.  0.
         21    1    1    2  503  501  0.20559283138E+03  0.32698164751E+02 -0.46455236612E+03  0.50906432124E+03  0.00000000000E+00 0. -1.
         21    1    1    2  504  502  0.46456096248E+03 -0.72628113472E+01  0.73028232168E+03  0.86555294792E+03  0.00000000000E+00 0. -1.
<mgrwt>
<rscale>  4 0.52625487E+03</rscale>
<asrwt>0</asrwt>
<pdfrwt beam="1">  1       21 0.20381667E+00 0.52625487E+03</pdfrwt>
<pdfrwt beam="2">  1       21 0.12076855E+00 0.52625487E+03</pdfrwt>
<totfact> 0.49454704E+01</totfact>
</mgrwt>
</event>
<event>
 5    0  0.1911311E+001  0.2687188E+03  0.7546771E-02  0.1102015E+00
         21   -1    0    0  502  501  0.00000000000E+00  0.00000000000E+00  0.27732242526E+03  0.27732242526E+03  0.00000000000E+00 0.  1.
         21   -1    0    0  504  502 -0.00000000000E+00 -0.00000000000E+00 -0.51590387925E+03  0.51590387925E+03  0.00000000000E+00 0.  1.
         25    1    1    2    0    0  0.88752619973E+02 -0.25084838439E+03 -0.20073303647E+03  0.35597849856E+03  0.12500000000E+03 0.  0.
         21    1    1    2  503  501 -0.35570951283E+02  0.22902881594E+03  0.12585833663E+03  0.26374194207E+03  0.00000000000E+00 0.  1.
         21    1    1    2  504  503 -0.53181668691E+02  0.21819568454E+02 -0.16370675414E+03  0.17350586389E+03  0.00000000000E+00 0.  1.
<mgrwt>
<rscale>  4 0.26871877E+03</rscale>
<asrwt>0</asrwt>
<pdfrwt beam="1">  1       21 0.42664989E-01 0.26871877E+03</pdfrwt>
<pdfrwt beam="2">  1       21 0.79369827E-01 0.26871877E+03</pdfrwt>
<totfact> 0.70475026E+03</totfact>
</mgrwt>
</event>
<event>
 5    0  0.1911311E+001  0.2287451E+03  0.7546771E-02  0.1127526E+00
         21   -1    0    0  504  501  0.00000000000E+00  0.00000000000E+00  0.70789179439E+03  0.70789179439E+03  0.00000000000E+00 0. -1.
         21   -1    0    0  503  502 -0.00000000000E+00 -0.00000000000E+00 -0.10218223488E+03  0.10218223488E+03  0.00000000000E+00 0. -1.
         25    1    1    2    0    0  0.66949988224E+02  0.21496634786E+03  0.25762857425E+03  0.36426681691E+03  0.12500000000E+03 0.  0.
         21    1    1    2  503  501 -0.14088071397E+02 -0.17402186357E+03  0.12991149732E+03  0.21762141414E+03  0.00000000000E+00 0. -1.
         21    1    1    2  504  502 -0.52861916827E+02 -0.40944484286E+02  0.21816948793E+03  0.22818579821E+03  0.00000000000E+00 0. -1.
<mgrwt>
<rscale>  4 0.22874506E+03</rscale>
<asrwt>0</asrwt>
<pdfrwt beam="1">  1       21 0.10890643E+00 0.22874506E+03</pdfrwt>
<pdfrwt beam="2">  1       21 0.15720344E-01 0.22874506E+03</pdfrwt>
<totfact> 0.23594967E+04</totfact>
</mgrwt>
</event>
