<event>
 4    0  0.1775285E-001  0.4633125E+03  0.7546771E-02  0.1023825E+00
         21   -1    0    0  503  501  0.00000000000E+00  0.00000000000E+00  0.44884741791E+03  0.44884741791E+03  0.00000000000E+00 0.  1.
         21   -1    0    0  501  502 -0.00000000000E+00 -0.00000000000E+00 -0.11956094592E+03  0.11956094592E+03  0.00000000000E+00 0.  1.
         25    1    1    2    0    0 -0.16765927681E+03 -0.11440400561E+03  0.26284326899E+03  0.35483727771E+03  0.12500000000E+03 0.  0.
         21    1    1    2  503  502  0.16765927681E+03  0.11440400561E+03  0.66443202997E+02  0.21357108612E+03  0.00000000000E+00 0.  1.
<mgrwt>
<rscale>  3 0.46331252E+03</rscale>
<asrwt>0</asrwt>
<pdfrwt beam="1">  1       21 0.69053448E-01 0.46331252E+03</pdfrwt>
<pdfrwt beam="2">  1       21 0.18393992E-01 0.46331252E+03</pdfrwt>
<totfact> 0.47187327E+04</totfact>
</mgrwt>
</event>
<event>
 4    0  0.1775285E-001  0.4467279E+03  0.7546771E-02  0.1028702E+00
         21   -1    0    0  502  501  0.00000000000E+00  0.00000000000E+00  0.31035665552E+03  0.31035665552E+03  0.00000000000E+00 0.  1.
         21   -1    0    0  503  502 -0.00000000000E+00 -0.00000000000E+00 -0.16075519816E+03  0.16075519816E+03  0.00000000000E+00 0.  1.
         25    1    1    2    0    0  0.19546372862E+03 -0.43530275722E+02  0.13105521618E+03  0.27000263665E+03  0.12500000000E+03 0.  0.
         21    1    1    2  503  501 -0.19546372862E+03  0.43530275722E+02  0.18546241179E+02  0.20110921703E+03  0.00000000000E+00 0.  1.
<mgrwt>
<rscale>  3 0.44672786E+03</rscale>
<asrwt>0</asrwt>
<pdfrwt beam="1">  1       21 0.47747178E-01 0.44672786E+03</pdfrwt>
<pdfrwt beam="2">  1       21 0.24731569E-01 0.44672786E+03</pdfrwt>
<totfact> 0.59958974E+04</totfact>
</mgrwt>
</event>
<event>
 4    0  0.1775285E-001  0.4726612E+03  0.7546771E-02  0.1021172E+00
         21   -1    0    0  502  501  0.00000000000E+00  0.00000000000E+00  0.15401888377E+03  0.15401888377E+03  0.00000000000E+00 0.  1.
         21   -1    0    0  503  502 -0.00000000000E+00 -0.00000000000E+00 -0.36263183366E+03  0.36263183366E+03  0.00000000000E+00 0.  1.
         25    1    1    2    0    0  0.10757170244E+03 -0.17166051653E+03 -0.20482587900E+03  0.31403446437E+03  0.12500000000E+03 0.  0.
         21    1    1    2  503  501 -0.10757170244E+03  0.17166051653E+03 -0.37870708896E+01  0.20261625307E+03  0.00000000000E+00 0.  1.
<mgrwt>
<rscale>  3 0.47266119E+03</rscale>
<asrwt>0</asrwt>
<pdfrwt beam="1">  1       21 0.23695213E-01 0.47266119E+03</pdfrwt>
<pdfrwt beam="2">  1       21 0.55789513E-01 0.47266119E+03</pdfrwt>
<totfact> 0.46448642E+04</totfact>
</mgrwt>
</event>
<event>
 4    0  0.1775285E-001  0.4739822E+03  0.7546771E-02  0.1020802E+00
         21   -1    0    0  503  501  0.00000000000E+00  0.00000000000E+00  0.10493710001E+03  0.10493710001E+03  0.00000000000E+00 0.  1.
         21   -1    0    0  501  502 -0.00000000000E+00 -0.00000000000E+00 -0.53522341230E+03  0.53522341230E+03  0.00000000000E+00 0.  1.
         25    1    1    2    0    0 -0.55501348675E+02  0.21098078325E+03 -0.27346628679E+03  0.37148633975E+03  0.12500000000E+03 0.  0.
         21    1    1    2  503  502  0.55501348675E+02 -0.21098078325E+03 -0.15682002549E+03  0.26867417256E+03  0.00000000000E+00 0.  1.
<mgrwt>
<rscale>  3 0.47398225E+03</rscale>
<asrwt>0</asrwt>
<pdfrwt beam="1">  1       21 0.16144170E-01 0.47398225E+03</pdfrwt>
<pdfrwt beam="2">  1       21 0.82342061E-01 0.47398225E+03</pdfrwt>
<totfact> 0.40224079E+04</totfact>
</mgrwt>
</event>
<event>
 4    0  0.1775285E-001  0.6787246E+03  0.7546771E-02  0.9754324E-01
         21   -1    0    0  503  501  0.00000000000E+00  0.00000000000E+00  0.22297281145E+04  0.22297281145E+04  0.00000000000E+00 0. -1.
         21   -1    0    0  501  502 -0.00000000000E+00 -0.00000000000E+00 -0.51650584965E+02  0.51650584965E+02  0.00000000000E+00 0. -1.
         25    1    1    2    0    0  0.62606835225E+02  0.32151953076E+03  0.10793618380E+04  0.11348750600E+04  0.12500000000E+03 0.  0.
         21    1    1    2  503  502 -0.62606835225E+02 -0.32151953076E+03  0.10987156916E+04  0.11465036395E+04  0.00000000000E+00 0. -1.
<mgrwt>
<rscale>  3 0.67872457E+03</rscale>
<asrwt>0</asrwt>
<pdfrwt beam="1">  1       21 0.34303502E+00 0.67872457E+03</pdfrwt>
<pdfrwt beam="2">  1       21 0.79462456E-02 0.67872457E+03</pdfrwt>
<totfact> 0.17039095E+03</totfact>
</mgrwt>
</event>
<event>
 4    0  0.1775285E-001  0.4643553E+03  0.7546771E-02  0.1023526E+00
         21   -1    0    0  503  501  0.00000000000E+00  0.00000000000E+00  0.14454633820E+03  0.14454633820E+03  0.00000000000E+00 0. -1.
         21   -1    0    0  501  502 -0.00000000000E+00 -0.00000000000E+00 -0.37293555797E+03  0.37293555797E+03  0.00000000000E+00 0. -1.
         25    1    1    2    0    0  0.97764196863E+01 -0.20853632498E+03 -0.18137588303E+03  0.30348836578E+03  0.12500000000E+03 0.  0.
         21    1    1    2  503  502 -0.97764196863E+01  0.20853632498E+03 -0.47013336730E+02  0.21399353039E+03  0.00000000000E+00 0. -1.
<mgrwt>
<rscale>  3 0.46435534E+03</rscale>
<asrwt>0</asrwt>
<pdfrwt beam="1">  1       21 0.22237898E-01 0.46435534E+03</pdfrwt>
<pdfrwt beam="2">  1       21 0.57374701E-01 0.46435534E+03</pdfrwt>
<totfact> 0.49493157E+04</totfact>
</mgrwt>
</event>
<event>
 4    0  0.1775285E-001  0.4888313E+03  0.7546771E-02  0.1016736E+00
         21   -1    0    0  503  501  0.00000000000E+00  0.00000000000E+00  0.26808033203E+03  0.26808033203E+03  0.00000000000E+00 0. -1.
         21   -1    0    0  501  502 -0.00000000000E+00 -0.00000000000E+00 -0.22283997038E+03  0.22283997038E+03  0.00000000000E+00 0. -1.
         25    1    1    2    0    0  0.21360018714E+03 -0.14131160920E+02 -0.55973547440E+02  0.25413139843E+03  0.12500000000E+03 0.  0.
         21    1    1    2  503  502 -0.21360018714E+03  0.14131160920E+02  0.10121390909E+03  0.23678890398E+03  0.00000000000E+00 0. -1.
<mgrwt>
<rscale>  3 0.48883131E+03</rscale>
<asrwt>0</asrwt>
<pdfrwt beam="1">  1       21 0.41243128E-01 0.48883131E+03</pdfrwt>
<pdfrwt beam="2">  1       21 0.34283072E-01 0.48883131E+03</pdfrwt>
<totfact> 0.42271161E+04</totfact>
</mgrwt>
</event>
<event>
 4    0  0.1775285E-001  0.6085828E+03  0.7546771E-02  0.9887758E-01
         21   -1    0    0  503  501  0.00000000000E+00  0.00000000000E+00  0.90519004030E+03  0.90519004030E+03  0.00000000000E+00 0.  1.
         21   -1    0    0  501  502 -0.00000000000E+00 -0.00000000000E+00 -0.10229150576E+03  0.10229150576E+03  0.00000000000E+00 0.  1.
         25    1    1    2    0    0  0.24722464852E+03  0.23878055912E+02  0.16593321185E+03  0.32380398265E+03  0.12500000000E+03 0.  0.
         21    1    1    2  503  502 -0.24722464852E+03 -0.23878055912E+02  0.63696532269E+03  0.68367756340E+03  0.00000000000E+00 0.  1.
<mgrwt>
<rscale>  3 0.60858279E+03</rscale>
<asrwt>0</asrwt>
<pdfrwt beam="1">  1       21 0.13926000E+00 0.60858279E+03</pdfrwt>
<pdfrwt beam="2">  1       21 0.15737155E-01 0.60858279E+03</pdfrwt>
<totfact> 0.11088101E+04</totfact>
</mgrwt>
</event>
<event>
 4    0  0.1775285E-001  0.5448538E+03  0.7546771E-02  0.1002692E+00
         21   -1    0    0  503  501  0.00000000000E+00  0.00000000000E+00  0.14521074010E+04  0.14521074010E+04  0.00000000000E+00 0. -1.
         21   -1    0    0  501  502 -0.00000000000E+00 -0.00000000000E+00 -0.51109445570E+02  0.51109445570E+02  0.00000000000E+00 0. -1.
         25    1    1    2    0    0  0.24729784513E+03 -0.35723662742E+02  0.55905713812E+03  0.62498183011E+03  0.12500000000E+03 0.  0.
         21    1    1    2  503  502 -0.24729784513E+03  0.35723662742E+02  0.84194081733E+03  0.87823501648E+03  0.00000000000E+00 0. -1.
<mgrwt>
<rscale>  3 0.54485376E+03</rscale>
<asrwt>0</asrwt>
<pdfrwt beam="1">  1       21 0.22340111E+00 0.54485376E+03</pdfrwt>
<pdfrwt beam="2">  1       21 0.78629927E-02 0.54485376E+03</pdfrwt>
<totfact> 0.99348830E+03</totfact>
</mgrwt>
</event>
<event>
 4    0  0.1775285E-001  0.4756411E+03  0.7546771E-02  0.1020340E+00
         21   -1    0    0  502  501  0.00000000000E+00  0.00000000000E+00  0.98018988891E+02  0.98018988891E+02  0.00000000000E+00 0.  1.
         21   -1    0    0  503  502 -0.00000000000E+00 -0.00000000000E+00 -0.57701700494E+03  0.57701700494E+03  0.00000000000E+00 0.  1.
         25    1    1    2    0    0  0.17987342293E+03  0.12907635989E+03 -0.25727376244E+03  0.36170422143E+03  0.12500000000E+03 0.  0.
         21    1    1    2  503  501 -0.17987342293E+03 -0.12907635989E+03 -0.22172425360E+03  0.31333177240E+03  0.00000000000E+00 0.  1.
<mgrwt>
<rscale>  3 0.47564114E+03</rscale>
<asrwt>0</asrwt>
<pdfrwt beam="1">  1       21 0.15079844E-01 0.47564114E+03</pdfrwt>
<pdfrwt beam="2">  1       21 0.88771848E-01 0.47564114E+03</pdfrwt>
<totfact> 0.38274177E+04</totfact>
</mgrwt>
</event>
<event>
 4    0  0.1775285E-001  0.5415896E+03  0.7546771E-02  0.1003460E+00
         21   -1    0    0  503  501  0.00000000000E+00  0.00000000000E+00  0.75493285325E+02  0.75493285325E+02  0.00000000000E+00 0.  1.
         21   -1    0    0  501  502 -0.00000000000E+00 -0.00000000000E+00 -0.97134245436E+03  0.97134245436E+03  0.00000000000E+00 0.  1.
         25    1    1    2    0    0 -0.16045547483E+03  0.18028354277E+03 -0.63892544500E+03  0.69433337775E+03  0.12500000000E+03 0.  0.
         21    1    1    2  503  502  0.16045547483E+03 -0.18028354277E+03 -0.25692372403E+03  0.35250236193E+03  0.00000000000E+00 0.  1.
<mgrwt>
<rscale>  3 0.54158963E+03</rscale>
<asrwt>0</asrwt>
<pdfrwt beam="1">  1       21 0.11614352E-01 0.54158963E+03</pdfrwt>
<pdfrwt beam="2">  1       21 0.14943729E+00 0.54158963E+03</pdfrwt>
<totfact> 0.16321191E+04</totfact>
</mgrwt>
</event>
<event>
 4    0  0.1775285E-001  0.5352889E+03  0.7546771E-02  0.1004957E+00
         21   -1    0    0  502  501  0.00000000000E+00  0.00000000000E+00  0.23696961602E+03  0.23696961602E+03  0.00000000000E+00 0.  1.
         21   -1    0    0  503  502 -0.00000000000E+00 -0.00000000000E+00 -0.30229005988E+03  0.30229005988E+03  0.00000000000E+00 0.  1.
         25    1    1    2    0    0 -0.17454811100E+03 -0.14011457292E+03 -0.15336320222E+03  0.29873802636E+03  0.12500000000E+03 0.  0.
         21    1    1    2  503  501  0.17454811100E+03  0.14011457292E+03  0.88042758356E+02  0.24052164954E+03  0.00000000000E+00 0.  1.
<mgrwt>
<rscale>  3 0.53528893E+03</rscale>
<asrwt>0</asrwt>
<pdfrwt beam="1">  1       21 0.36456864E-01 0.53528893E+03</pdfrwt>
<pdfrwt beam="2">  1       21 0.46506163E-01 0.53528893E+03</pdfrwt>
<totfact> 0.28743667E+04</totfact>
</mgrwt>
</event>
<event>
 4    0  0.1775285E-001  0.9130112E+03  0.7546771E-02  0.9409461E-01
         21   -1    0    0  503  501  0.00000000000E+00  0.00000000000E+00  0.29366640966E+03  0.29366640966E+03  0.00000000000E+00 0.  1.
         21   -1    0    0  501  502 -0.00000000000E+00 -0.00000000000E+00 -0.70963970067E+03  0.70963970067E+03  0.00000000000E+00 0.  1.
         25    1    1    2    0    0 -0.81535127594E+02  0.44045765526E+03 -0.21482146169E+03  0.51227354364E+03  0.12500000000E+03 0.  0.
         21    1    1    2  503  502  0.81535127594E+02 -0.44045765526E+03 -0.20115182932E+03  0.49103256669E+03  0.00000000000E+00 0.  1.
<mgrwt>
<rscale>  3 0.91301116E+03</rscale>
<asrwt>0</asrwt>
<pdfrwt beam="1">  1       21 0.45179448E-01 0.91301116E+03</pdfrwt>
<pdfrwt beam="2">  1       21 0.10917534E+00 0.91301116E+03</pdfrwt>
<totfact> 0.24180448E+03</totfact>
</mgrwt>
</event>
<event>
 4    0  0.1775285E-001  0.5417519E+03  0.7546771E-02  0.1003421E+00
         21   -1    0    0  502  501  0.00000000000E+00  0.00000000000E+00  0.98352234205E+02  0.98352234205E+02  0.00000000000E+00 0.  1.
         21   -1    0    0  503  502 -0.00000000000E+00 -0.00000000000E+00 -0.74603064496E+03  0.74603064496E+03  0.00000000000E+00 0.  1.
         25    1    1    2    0    0  0.86549929889E+02 -0.22092030634E+03 -0.18938410185E+03  0.32831084379E+03  0.12500000000E+03 0.  0.
         21    1    1    2  503  501 -0.86549929889E+02  0.22092030634E+03 -0.45829430891E+03  0.51607203537E+03  0.00000000000E+00 0.  1.
<mgrwt>
<rscale>  3 0.54175190E+03</rscale>
<asrwt>0</asrwt>
<pdfrwt beam="1">  1       21 0.15131113E-01 0.54175190E+03</pdfrwt>
<pdfrwt beam="2">  1       21 0.11477395E+00 0.54175190E+03</pdfrwt>
<totfact> 0.20012082E+04</totfact>
</mgrwt>
</event>
<event>
 4    0  0.1775285E-001  0.6532220E+03  0.7546771E-02  0.9800752E-01
         21   -1    0    0  503  501  0.00000000000E+00  0.00000000000E+00  0.72357911401E+02  0.72357911401E+02  0.00000000000E+00 0.  1.
         21   -1    0    0  501  502 -0.00000000000E+00 -0.00000000000E+00 -0.14742649116E+04  0.14742649116E+04  0.00000000000E+00 0.  1.
         25    1    1    2    0    0  0.25723926236E+03  0.83793861301E+02 -0.11070146362E+04  0.11464291753E+04  0.12500000000E+03 0.  0.
         21    1    1    2  503  502 -0.25723926236E+03 -0.83793861301E+02 -0.29489236402E+03  0.40019364769E+03  0.00000000000E+00 0.  1.
<mgrwt>
<rscale>  3 0.65322195E+03</rscale>
<asrwt>0</asrwt>
<pdfrwt beam="1">  1       21 0.11131986E-01 0.65322195E+03</pdfrwt>
<pdfrwt beam="2">  1       21 0.22680999E+00 0.65322195E+03</pdfrwt>
<totfact> 0.48963505E+03</totfact>
</mgrwt>
</event>
<event>
 4    0  0.1775285E-001  0.4521395E+03  0.7546771E-02  0.1027086E+00
         21   -1    0    0  503  501  0.00000000000E+00  0.00000000000E+00  0.71967274743E+03  0.71967274743E+03  0.00000000000E+00 0. -1.
         21   -1    0    0  501  502 -0.00000000000E+00 -0.00000000000E+00 -0.71014971203E+02  0.71014971203E+02  0.00000000000E+00 0. -1.
         25    1    1    2    0    0 -0.11840192315E+03  0.17119734899E+03  0.37764244917E+03  0.44896143166E+03  0.12500000000E+03 0.  0.
         21    1    1    2  503  502  0.11840192315E+03 -0.17119734899E+03  0.27101532706E+03  0.34172628698E+03  0.00000000000E+00 0. -1.
<mgrwt>
<rscale>  3 0.45213953E+03</rscale>
<asrwt>0</asrwt>
<pdfrwt beam="1">  1       21 0.11071888E+00 0.45213953E+03</pdfrwt>
<pdfrwt beam="2">  1       21 0.10925381E-01 0.45213953E+03</pdfrwt>
<totfact> 0.40651553E+04</totfact>
</mgrwt>
</event>
<event>
 4    0  0.1775285E-001  0.8817030E+03  0.7546771E-02  0.9448747E-01
         21   -1    0    0  503  501  0.00000000000E+00  0.00000000000E+00  0.26427017800E+03  0.26427017800E+03  0.00000000000E+00 0. -1.
         21   -1    0    0  501  502 -0.00000000000E+00 -0.00000000000E+00 -0.73542183603E+03  0.73542183603E+03  0.00000000000E+00 0. -1.
         25    1    1    2    0    0  0.29927759113E+03 -0.27228569422E+03 -0.68697097318E+02  0.42901149986E+03  0.12500000000E+03 0.  0.
         21    1    1    2  503  502 -0.29927759113E+03  0.27228569422E+03 -0.40245456071E+03  0.57068051418E+03  0.00000000000E+00 0. -1.
<mgrwt>
<rscale>  3 0.88170303E+03</rscale>
<asrwt>0</asrwt>
<pdfrwt beam="1">  1       21 0.40656951E-01 0.88170303E+03</pdfrwt>
<pdfrwt beam="2">  1       21 0.11314182E+00 0.88170303E+03</pdfrwt>
<totfact> 0.27748455E+03</totfact>
</mgrwt>
</event>
<event>
 4    0  0.1775285E-001  0.4512637E+03  0.7546771E-02  0.1027346E+00
         21   -1    0    0  502  501  0.00000000000E+00  0.00000000000E+00  0.19185661990E+03  0.19185661990E+03  0.00000000000E+00 0.  1.
         21   -1    0    0  503  502 -0.00000000000E+00 -0.00000000000E+00 -0.26535304482E+03  0.26535304482E+03  0.00000000000E+00 0.  1.
         25    1    1    2    0    0 -0.28240328664E+02 -0.20598187716E+03 -0.26322322568E+02  0.24401621779E+03  0.12500000000E+03 0.  0.
         21    1    1    2  503  501  0.28240328664E+02  0.20598187716E+03 -0.47174102355E+02  0.21319344693E+03  0.00000000000E+00 0.  1.
<mgrwt>
<rscale>  3 0.45126373E+03</rscale>
<asrwt>0</asrwt>
<pdfrwt beam="1">  1       21 0.29516403E-01 0.45126373E+03</pdfrwt>
<pdfrwt beam="2">  1       21 0.40823545E-01 0.45126373E+03</pdfrwt>
<totfact> 0.58723838E+04</totfact>
</mgrwt>
</event>
<event>
 4    0  0.1775285E-001  0.6280500E+03  0.7546771E-02  0.9848861E-01
         21   -1    0    0  502  501  0.00000000000E+00  0.00000000000E+00  0.16511468918E+03  0.16511468918E+03  0.00000000000E+00 0. -1.
         21   -1    0    0  503  502 -0.00000000000E+00 -0.00000000000E+00 -0.59723154342E+03  0.59723154342E+03  0.00000000000E+00 0. -1.
         25    1    1    2    0    0 -0.59906799566E+02  0.29384695575E+03 -0.18586790311E+03  0.37430834274E+03  0.12500000000E+03 0.  0.
         21    1    1    2  503  501  0.59906799566E+02 -0.29384695575E+03 -0.24624895113E+03  0.38803788986E+03  0.00000000000E+00 0. -1.
<mgrwt>
<rscale>  3 0.62805000E+03</rscale>
<asrwt>0</asrwt>
<pdfrwt beam="1">  1       21 0.25402260E-01 0.62805000E+03</pdfrwt>
<pdfrwt beam="2">  1       21 0.91881776E-01 0.62805000E+03</pdfrwt>
<totfact> 0.12622241E+04</totfact>
</mgrwt>
</event>
<event>
 4    0  0.1775285E-001  0.4365512E+03  0.7546771E-02  0.1031810E+00
         21   -1    0    0  503  501  0.00000000000E+00  0.00000000000E+00  0.75168238353E+02  0.75168238353E+02  0.00000000000E+00 0. -1.
         21   -1    0    0  501  502 -0.00000000000E+00 -0.00000000000E+00 -0.63383469361E+03  0.63383469361E+03  0.00000000000E+00 0. -1.
         25    1    1    2    0    0 -0.16059015192E+03  0.11968923049E+03 -0.31215331374E+03  0.39138139974E+03  0.12500000000E+03 0.  0.
         21    1    1    2  503  502  0.16059015192E+03 -0.11968923049E+03 -0.24651314152E+03  0.31762153222E+03  0.00000000000E+00 0. -1.
<mgrwt>
<rscale>  3 0.43655120E+03</rscale>
<asrwt>0</asrwt>
<pdfrwt beam="1">  1       21 0.11564345E-01 0.43655120E+03</pdfrwt>
<pdfrwt beam="2">  1       21 0.97513029E-01 0.43655120E+03</pdfrwt>
<totfact> 0.50254703E+04</totfact>
</mgrwt>
</event>
<event>
 4    0  0.1775285E-001  0.4835329E+03  0.7546771E-02  0.1018169E+00
         21   -1    0    0  503  501  0.00000000000E+00  0.00000000000E+00  0.53525863497E+03  0.53525863497E+03  0.00000000000E+00 0.  1.
         21   -1    0    0  501  502 -0.00000000000E+00 -0.00000000000E+00 -0.10920143396E+03  0.10920143396E+03  0.00000000000E+00 0.  1.
         25    1    1    2    0    0 -0.74609394892E+02 -0.19891945311E+03  0.32845434360E+03  0.41066137688E+03  0.12500000000E+03 0.  0.
         21    1    1    2  503  502  0.74609394892E+02  0.19891945311E+03  0.97602857416E+02  0.23379869205E+03  0.00000000000E+00 0.  1.
<mgrwt>
<rscale>  3 0.48353288E+03</rscale>
<asrwt>0</asrwt>
<pdfrwt beam="1">  1       21 0.82347481E-01 0.48353288E+03</pdfrwt>
<pdfrwt beam="2">  1       21 0.16800221E-01 0.48353288E+03</pdfrwt>
<totfact> 0.37249672E+04</totfact>
</mgrwt>
</event>
<event>
 4    0  0.1775285E-001  0.6353442E+03  0.7546771E-02  0.9834675E-01
         21   -1    0    0  503  501  0.00000000000E+00  0.00000000000E+00  0.31259064232E+04  0.31259064232E+04  0.00000000000E+00 0.  1.
         21   -1    0    0  501  502 -0.00000000000E+00 -0.00000000000E+00 -0.32283621115E+02  0.32283621115E+02  0.00000000000E+00 0.  1.
         25    1    1    2    0    0  0.22083205732E+03  0.30049945296E+02  0.26444412048E+04  0.26567581904E+04  0.12500000000E+03 0.  0.
         21    1    1    2  503  502 -0.22083205732E+03 -0.30049945296E+02  0.44918159728E+03  0.50143185389E+03  0.00000000000E+00 0.  1.
<mgrwt>
<rscale>  3 0.63534425E+03</rscale>
<asrwt>0</asrwt>
<pdfrwt beam="1">  1       21 0.48090844E+00 0.63534425E+03</pdfrwt>
<pdfrwt beam="2">  1       21 0.49667134E-02 0.63534425E+03</pdfrwt>
<totfact> 0.49044116E+02</totfact>
</mgrwt>
</event>
