<event>
 5    0  0.2306346E+000  0.5875784E+03  0.7546771E-02  0.9931517E-01
         21   -1    0    0  503  502  0.00000000000E+00  0.00000000000E+00  0.89580547505E+03  0.89580547505E+03  0.00000000000E+00 0. -1.
          1   -1    0    0  502    0 -0.00000000000E+00 -0.00000000000E+00 -0.32063793018E+04  0.32063793018E+04  0.00000000000E+00 0. -1.
         25    1    1    2    0    0 -0.27474213777E+03  0.41954692183E+03  0.61186797776E+02  0.52045334671E+03  0.12500000000E+03 0.  0.
         21    1    1    2  503  501 -0.75038409634E+02  0.44768434681E+02  0.57326204595E+03  0.57988304768E+03  0.00000000000E+00 0. -1.
          1    1    1    2  501    0  0.34978054740E+03 -0.46431535651E+03 -0.29450226704E+04  0.30018483824E+04  0.00000000000E+00 0. -1.
<mgrwt>
<rscale>  4 0.58757837E+03</rscale>
<asrwt>0</asrwt>
<pdfrwt beam="1">  1       21 0.13781623E+00 0.58757837E+03</pdfrwt>
<pdfrwt beam="2">  1        1 0.49328912E+00 0.58757837E+03</pdfrwt>
<totfact> 0.16347714E+00</totfact>
</mgrwt>
</event>
<event>
 5    0  0.2306346E+000  0.2636828E+03  0.7546771E-02  0.1104950E+00
         21   -1    0    0  503  502  0.00000000000E+00  0.00000000000E+00  0.53080016739E+02  0.53080016739E+02  0.00000000000E+00 0. -1.
          1   -1    0    0  502    0 -0.00000000000E+00 -0.00000000000E+00 -0.33478888820E+04  0.33478888820E+04  0.00000000000E+00 0. -1.
         25    1    1    2    0    0 -0.43486493047E+02 -0.24561120745E+03 -0.54814919355E+03  0.61506786511E+03  0.12500000000E+03 0.  0.
         21    1    1    2  503  501 -0.16598386458E+01  0.20378108441E+02  0.77973106815E+01  0.21881965676E+02  0.00000000000E+00 0. -1.
          1    1    1    2  501    0  0.45146331693E+02  0.22523309900E+03 -0.27544569824E+04  0.27640190679E+04  0.00000000000E+00 0. -1.
<mgrwt>
<rscale>  4 0.26368282E+03</rscale>
<asrwt>0</asrwt>
<pdfrwt beam="1">  1       21 0.81661569E-02 0.26368282E+03</pdfrwt>
<pdfrwt beam="2">  1        1 0.51505980E+00 0.26368282E+03</pdfrwt>
<totfact> 0.52486376E+02</totfact>
</mgrwt>
</event>
<event>
 5    0  0.2306346E+000  0.4144016E+03  0.7546771E-02  0.1038904E+00
          2   -1    0    0  502    0 -0.00000000000E+00  0.00000000000E+00  0.49858183270E+03  0.49858183270E+03  0.00000000000E+00 0.  1.
         21   -1    0    0  503  502  0.00000000000E+00 -0.00000000000E+00 -0.90613254245E+03  0.90613254245E+03  0.00000000000E+00 0.  1.
         25    1    1    2    0    0  0.41053963600E+02 -0.22257782701E+03 -0.50973792993E+03  0.57156283487E+03  0.12500000000E+03 0.  0.
         21    1    1    2  503  501  0.40401162171E+02 -0.19820043734E+03 -0.21858414568E+03  0.29781654757E+03  0.00000000000E+00 0.  1.
          2    1    1    2  501    0 -0.81455125771E+02  0.42077826435E+03  0.32077136585E+03  0.53533499270E+03  0.00000000000E+00 0.  1.
<mgrwt>
<rscale>  4 0.41440164E+03</rscale>
<asrwt>0</asrwt>
<pdfrwt beam="1">  1       21 0.13940501E+00 0.41440164E+03</pdfrwt>
<pdfrwt beam="2">  1        2 0.76704898E-01 0.41440164E+03</pdfrwt>
<totfact> 0.25305688E+02</totfact>
</mgrwt>
</event>
<event>
 5    0  0.2306346E+000  0.2411254E+03  0.7546771E-02  0.1119045E+00
          1   -1    0    0  502    0 -0.00000000000E+00  0.00000000000E+00  0.72900107687E+03  0.72900107687E+03  0.00000000000E+00 0. -1.
         21   -1    0    0  503  502  0.00000000000E+00 -0.00000000000E+00 -0.11996838469E+03  0.11996838469E+03  0.00000000000E+00 0. -1.
         25    1    1    2    0    0 -0.11135108997E+03 -0.19091042944E+03  0.12386017395E+03  0.28251053077E+03  0.12500000000E+03 0.  0.
         21    1    1    2  503  501  0.97681996160E+02  0.16264716483E+03  0.18616204105E+03  0.26580477447E+03  0.00000000000E+00 0. -1.
          1    1    1    2  501    0  0.13669093808E+02  0.28263264603E+02  0.29901047718E+03  0.30065415632E+03  0.00000000000E+00 0. -1.
<mgrwt>
<rscale>  4 0.24112538E+03</rscale>
<asrwt>0</asrwt>
<pdfrwt beam="1">  1       21 0.18456675E-01 0.24112538E+03</pdfrwt>
<pdfrwt beam="2">  1        1 0.11215401E+00 0.24112538E+03</pdfrwt>
<totfact> 0.78280819E+03</totfact>
</mgrwt>
</event>
<event>
 5    0  0.2306346E+000  0.3067292E+03  0.7546771E-02  0.1081924E+00
         21   -1    0    0  503  502  0.00000000000E+00  0.00000000000E+00  0.79386403701E+03  0.79386403701E+03  0.00000000000E+00 0. -1.
          1   -1    0    0  502    0 -0.00000000000E+00 -0.00000000000E+00 -0.14511475561E+03  0.14511475561E+03  0.00000000000E+00 0. -1.
         25    1    1    2    0    0 -0.23300439106E+03 -0.19126130654E+03  0.23897573968E+03  0.40448280283E+03  0.12500000000E+03 0.  0.
         21    1    1    2  503  501  0.34470286858E+02  0.21357572250E+02  0.18629222231E+03  0.19065450076E+03  0.00000000000E+00 0.  1.
          1    1    1    2  501    0  0.19853410420E+03  0.16990373429E+03  0.22348131940E+03  0.34384148903E+03  0.00000000000E+00 0. -1.
<mgrwt>
<rscale>  4 0.30672924E+03</rscale>
<asrwt>0</asrwt>
<pdfrwt beam="1">  1       21 0.12213293E+00 0.30672924E+03</pdfrwt>
<pdfrwt beam="2">  1        1 0.22325348E-01 0.30672924E+03</pdfrwt>
<totfact> 0.11523129E+03</totfact>
</mgrwt>
</event>
<event>
 5    0  0.2306346E+000  0.3078276E+03  0.7546771E-02  0.1081392E+00
         -4   -1    0    0    0  501 -0.00000000000E+00  0.00000000000E+00  0.25675831079E+03  0.25675831079E+03  0.00000000000E+00 0.  1.
         21   -1    0    0  501  502  0.00000000000E+00 -0.00000000000E+00 -0.40473135590E+03  0.40473135590E+03  0.00000000000E+00 0. -1.
         25    1    1    2    0    0 -0.12163778830E+03  0.26112174198E+03 -0.86136337198E+02  0.32561447182E+03  0.12500000000E+03 0.  0.
         21    1    1    2  503  502  0.25911551293E+02 -0.11797970755E+01 -0.52676016432E+02  0.58715952846E+02  0.00000000000E+00 0. -1.
         -4    1    1    2    0  503  0.95726237003E+02 -0.25994194490E+03 -0.91606914728E+01  0.27715924202E+03  0.00000000000E+00 0.  1.
<mgrwt>
<rscale>  4 0.30782757E+03</rscale>
<asrwt>0</asrwt>
<pdfrwt beam="1">  1       21 0.62266362E-01 0.30782757E+03</pdfrwt>
<pdfrwt beam="2">  1       -4 0.39501279E-01 0.30782757E+03</pdfrwt>
<totfact> 0.62219999E+02</totfact>
</mgrwt>
</event>
<event>
 5    0  0.2306346E+000  0.3499550E+03  0.7546771E-02  0.1062634E+00
         21   -1    0    0  503  502  0.00000000000E+00  0.00000000000E+00  0.40194268497E+03  0.40194268497E+03  0.00000000000E+00 0. -1.
          2   -1    0    0  502    0 -0.00000000000E+00 -0.00000000000E+00 -0.34193027968E+03  0.34193027968E+03  0.00000000000E+00 0. -1.
         25    1    1    2    0    0  0.25401015227E+03 -0.20572388793E+03 -0.10276382140E+03  0.36473124148E+03  0.12500000000E+03 0.  0.
         21    1    1    2  503  501 -0.49107668591E+02  0.39842620100E+02  0.81720704380E+02  0.10333088123E+03  0.00000000000E+00 0. -1.
          2    1    1    2  501    0 -0.20490248368E+03  0.16588126783E+03  0.81055522309E+02  0.27581084194E+03  0.00000000000E+00 0. -1.
<mgrwt>
<rscale>  4 0.34995496E+03</rscale>
<asrwt>0</asrwt>
<pdfrwt beam="1">  1       21 0.61837337E-01 0.34995496E+03</pdfrwt>
<pdfrwt beam="2">  1        2 0.52604658E-01 0.34995496E+03</pdfrwt>
<totfact> 0.27321241E+03</totfact>
</mgrwt>
</event>
<event>
 5    0  0.2306346E+000  0.2593459E+03  0.7546771E-02  0.1107537E+00
         21   -1    0    0  503  502  0.00000000000E+00  0.00000000000E+00  0.10222839124E+03  0.10222839124E+03  0.00000000000E+00 0. -1.
          2   -1    0    0  502    0 -0.00000000000E+00 -0.00000000000E+00 -0.98243932075E+03  0.98243932075E+03  0.00000000000E+00 0. -1.
         25    1    1    2    0    0 -0.80767483190E+02 -0.19858416024E+03 -0.16742541306E+03  0.29935818675E+03  0.12500000000E+03 0.  0.
         21    1    1    2  503  501  0.11649793895E+02 -0.21726077283E+02  0.99514809859E+01  0.26585185831E+02  0.00000000000E+00 0. -1.
          2    1    1    2  501    0  0.69117689295E+02  0.22031023752E+03 -0.72273699745E+03  0.75872433941E+03  0.00000000000E+00 0. -1.
<mgrwt>
<rscale>  4 0.25934591E+03</rscale>
<asrwt>0</asrwt>
<pdfrwt beam="1">  1       21 0.15727445E-01 0.25934591E+03</pdfrwt>
<pdfrwt beam="2">  1        2 0.15114451E+00 0.25934591E+03</pdfrwt>
<totfact> 0.12103809E+04</totfact>
</mgrwt>
</event>
<event>
 5    0  0.2306346E+000  0.2364238E+03  0.7546771E-02  0.1122198E+00
          1   -1    0    0  502    0 -0.00000000000E+00  0.00000000000E+00  0.44379102127E+03  0.44379102127E+03  0.00000000000E+00 0. -1.
         21   -1    0    0  503  502  0.00000000000E+00 -0.00000000000E+00 -0.41838315693E+03  0.41838315693E+03  0.00000000000E+00 0. -1.
         25    1    1    2    0    0  0.26033690026E+02  0.19994061161E+03 -0.32878413583E+03  0.40543557954E+03  0.12500000000E+03 0.  0.
         21    1    1    2  503  501 -0.32730311266E+02  0.73177144970E+00 -0.15361080634E+02  0.36163124357E+02  0.00000000000E+00 0. -1.
          1    1    1    2  501    0  0.66966212408E+01 -0.20067238306E+03  0.36955308080E+03  0.42057547430E+03  0.00000000000E+00 0. -1.
<mgrwt>
<rscale>  4 0.23642379E+03</rscale>
<asrwt>0</asrwt>
<pdfrwt beam="1">  1       21 0.64366639E-01 0.23642379E+03</pdfrwt>
<pdfrwt beam="2">  1        1 0.68275542E-01 0.23642379E+03</pdfrwt>
<totfact> 0.12728125E+03</totfact>
</mgrwt>
</event>
<event>
 5    0  0.2306346E+000  0.3005465E+03  0.7546771E-02  0.1084968E+00
          4   -1    0    0  502    0 -0.00000000000E+00  0.00000000000E+00  0.12953292804E+03  0.12953292804E+03  0.00000000000E+00 0.  1.
         21   -1    0    0  503  502  0.00000000000E+00 -0.00000000000E+00 -0.79253320074E+03  0.79253320074E+03  0.00000000000E+00 0.  1.
         25    1    1    2    0    0  0.28949150196E+03  0.47128369927E+02 -0.34421951485E+03  0.46918918078E+03  0.12500000000E+03 0.  0.
         21    1    1    2  503  501 -0.32585345004E+02 -0.41638655106E+01 -0.12222568338E+03  0.12656326546E+03  0.00000000000E+00 0.  1.
          4    1    1    2  501    0 -0.25690615695E+03 -0.42964504416E+02 -0.19655507447E+03  0.32631368255E+03  0.00000000000E+00 0.  1.
<mgrwt>
<rscale>  4 0.30054646E+03</rscale>
<asrwt>0</asrwt>
<pdfrwt beam="1">  1       21 0.12192819E+00 0.30054646E+03</pdfrwt>
<pdfrwt beam="2">  1        4 0.19928142E-01 0.30054646E+03</pdfrwt>
<totfact> 0.47699646E+02</totfact>
</mgrwt>
</event>
<event>
 5    0  0.2306346E+000  0.5741439E+03  0.7546771E-02  0.9960550E-01
         21   -1    0    0  503  502  0.00000000000E+00  0.00000000000E+00  0.42816208856E+03  0.42816208856E+03  0.00000000000E+00 0. -1.
          2   -1    0    0  502    0 -0.00000000000E+00 -0.00000000000E+00 -0.31054783792E+04  0.31054783792E+04  0.00000000000E+00 0. -1.
         25    1    1    2    0    0 -0.45833531087E+03  0.32684323028E+03 -0.17046110260E+04  0.17995059056E+04  0.12500000000E+03 0.  0.
         21    1    1    2  503  501 -0.38475240858E+02 -0.67958151683E+02  0.31781233087E+03  0.32726645443E+03  0.00000000000E+00 0. -1.
          2    1    1    2  501    0  0.49681055173E+03 -0.25888507860E+03 -0.12905175955E+04  0.14068681077E+04  0.00000000000E+00 0. -1.
<mgrwt>
<rscale>  4 0.57414390E+03</rscale>
<asrwt>0</asrwt>
<pdfrwt beam="1">  1       21 0.65871090E-01 0.57414390E+03</pdfrwt>
<pdfrwt beam="2">  1        2 0.47776591E+00 0.57414390E+03</pdfrwt>
<totfact> 0.39485043E+01</totfact>
</mgrwt>
</event>
<event>
 5    0  0.2306346E+000  0.2981869E+03  0.7546771E-02  0.1086150E+00
          2   -1    0    0  502    0 -0.00000000000E+00  0.00000000000E+00  0.20278198515E+04  0.20278198515E+04  0.00000000000E+00 0.  1.
         21   -1    0    0  503  502  0.00000000000E+00 -0.00000000000E+00 -0.56076703410E+02  0.56076703410E+02  0.00000000000E+00 0.  1.
         25    1    1    2    0    0  0.81951310499E+02  0.26568657245E+03  0.13747429064E+04  0.14081365100E+04  0.12500000000E+03 0.  0.
         21    1    1    2  503  501  0.22117656087E+02 -0.27787274812E+02  0.15176875624E+02  0.38622026177E+02  0.00000000000E+00 0.  1.
          2    1    1    2  501    0 -0.10406896659E+03 -0.23789929764E+03  0.58182336602E+03  0.63713801870E+03  0.00000000000E+00 0.  1.
<mgrwt>
<rscale>  4 0.29818692E+03</rscale>
<asrwt>0</asrwt>
<pdfrwt beam="1">  1       21 0.86271867E-02 0.29818692E+03</pdfrwt>
<pdfrwt beam="2">  1        2 0.31197223E+00 0.29818692E+03</pdfrwt>
<totfact> 0.94388628E+03</totfact>
</mgrwt>
</event>
<event>
 5    0  0.2306346E+000  0.2024400E+03  0.7546771E-02  0.1147697E+00
         21   -1    0    0  503  502  0.00000000000E+00  0.00000000000E+00  0.10005356932E+03  0.10005356932E+03  0.00000000000E+00 0.  1.
          2   -1    0    0  502    0 -0.00000000000E+00 -0.00000000000E+00 -0.35011311160E+04  0.35011311160E+04  0.00000000000E+00 0.  1.
         25    1    1    2    0    0  0.19833471921E+02 -0.29601997420E+03 -0.52889398542E+03  0.61917286725E+03  0.12500000000E+03 0.  0.
         21    1    1    2  503  501 -0.27523585673E+02  0.14319482399E+03 -0.47748471436E+02  0.15343474806E+03  0.00000000000E+00 0.  1.
          2    1    1    2  501    0  0.76901137520E+01  0.15282515021E+03 -0.28244350899E+04  0.28285770701E+04  0.00000000000E+00 0.  1.
<mgrwt>
<rscale>  4 0.20244004E+03</rscale>
<asrwt>0</asrwt>
<pdfrwt beam="1">  1       21 0.15392855E-01 0.20244004E+03</pdfrwt>
<pdfrwt beam="2">  1        2 0.53863562E+00 0.20244004E+03</pdfrwt>
<totfact> 0.49924485E+02</totfact>
</mgrwt>
</event>
<event>
 5    0  0.2306346E+000  0.2282883E+03  0.7546771E-02  0.1127850E+00
         -1   -1    0    0    0  501 -0.00000000000E+00  0.00000000000E+00  0.44247308226E+04  0.44247308226E+04  0.00000000000E+00 0.  1.
         21   -1    0    0  501  502  0.00000000000E+00 -0.00000000000E+00 -0.98016742233E+02  0.98016742233E+02  0.00000000000E+00 0. -1.
         25    1    1    2    0    0  0.14631045034E+02  0.20761138986E+03  0.15147770359E+04  0.15341091960E+04  0.12500000000E+03 0.  0.
         21    1    1    2  503  502  0.16640768357E+02 -0.24281764619E+02 -0.82829010855E+02  0.87904290588E+02  0.00000000000E+00 0. -1.
         -1    1    1    2    0  503 -0.31271813390E+02 -0.18332962524E+03  0.28947660553E+04  0.29007340782E+04  0.00000000000E+00 0.  1.
<mgrwt>
<rscale>  4 0.22828827E+03</rscale>
<asrwt>0</asrwt>
<pdfrwt beam="1">  1       21 0.15079502E-01 0.22828827E+03</pdfrwt>
<pdfrwt beam="2">  1       -1 0.68072766E+00 0.22828827E+03</pdfrwt>
<totfact> 0.10396622E+00</totfact>
</mgrwt>
</event>
<event>
 5    0  0.2306346E+000  0.3093624E+03  0.7546771E-02  0.1080652E+00
          1   -1    0    0  502    0 -0.00000000000E+00  0.00000000000E+00  0.18679191314E+04  0.18679191314E+04  0.00000000000E+00 0. -1.
         21   -1    0    0  503  502  0.00000000000E+00 -0.00000000000E+00 -0.23021719613E+03  0.23021719613E+03  0.00000000000E+00 0.  1.
         25    1    1    2    0    0  0.37896922499E+03  0.42137956793E+02  0.11041733560E+03  0.41618537804E+03  0.12500000000E+03 0.  0.
         21    1    1    2  503  501 -0.10371092849E+03 -0.51561521771E+02 -0.13625912065E+02  0.11661994981E+03  0.00000000000E+00 0.  1.
          1    1    1    2  501    0 -0.27525829650E+03  0.94235649778E+01  0.15409105117E+04  0.15653309997E+04  0.00000000000E+00 0. -1.
<mgrwt>
<rscale>  4 0.30936242E+03</rscale>
<asrwt>0</asrwt>
<pdfrwt beam="1">  1       21 0.35418031E-01 0.30936242E+03</pdfrwt>
<pdfrwt beam="2">  1        1 0.28737216E+00 0.30936242E+03</pdfrwt>
<totfact> 0.33588008E+02</totfact>
</mgrwt>
</event>
<event>
 5    0  0.2306346E+000  0.2273998E+03  0.7546771E-02  0.1128483E+00
          1   -1    0    0  502    0 -0.00000000000E+00  0.00000000000E+00  0.80930252366E+03  0.80930252366E+03  0.00000000000E+00 0. -1.
         21   -1    0    0  503  502  0.00000000000E+00 -0.00000000000E+00 -0.43199636357E+03  0.43199636357E+03  0.00000000000E+00 0. -1.
         25    1    1    2    0    0  0.18241455330E+03  0.27483306056E+03 -0.16580294319E+02  0.35314046298E+03  0.12500000000E+03 0.  0.
         21    1    1    2  503  501 -0.30717555537E+02 -0.17530747952E+03 -0.19967842808E+03  0.26748412146E+03  0.00000000000E+00 0. -1.
          1    1    1    2  501    0 -0.15169699776E+03 -0.99525581043E+02  0.59356488249E+03  0.62067430279E+03  0.00000000000E+00 0. -1.
<mgrwt>
<rscale>  4 0.22739981E+03</rscale>
<asrwt>0</asrwt>
<pdfrwt beam="1">  1       21 0.66460979E-01 0.22739981E+03</pdfrwt>
<pdfrwt beam="2">  1        1 0.12450808E+00 0.22739981E+03</pdfrwt>
<totfact> 0.51433360E+02</totfact>
</mgrwt>
</event>
<event>
 5    0  0.2306346E+000  0.4003504E+03  0.7546771E-02  0.1043658E+00
          2   -1    0    0  502    0 -0.00000000000E+00  0.00000000000E+00  0.10052627968E+04  0.10052627968E+04  0.00000000000E+00 0.  1.
         21   -1    0    0  503  502  0.00000000000E+00 -0.00000000000E+00 -0.30361893742E+03  0.30361893742E+03  0.00000000000E+00 0. -1.
         25    1    1    2    0    0  0.29471937957E+03  0.13224220208E+03  0.88173200015E+02  0.35741715950E+03  0.12500000000E+03 0.  0.
         21    1    1    2  503  501  0.55897784559E+02  0.67224130610E+02 -0.99399467534E+02  0.13237786900E+03  0.00000000000E+00 0. -1.
          2    1    1    2  501    0 -0.35061716413E+03 -0.19946633269E+03  0.71287012695E+03  0.81908670576E+03  0.00000000000E+00 0.  1.
<mgrwt>
<rscale>  4 0.40035036E+03</rscale>
<asrwt>0</asrwt>
<pdfrwt beam="1">  1       21 0.46710606E-01 0.40035036E+03</pdfrwt>
<pdfrwt beam="2">  1        2 0.15465581E+00 0.40035036E+03</pdfrwt>
<totfact> 0.13433824E+03</totfact>
</mgrwt>
</event>
<event>
 5    0  0.2306346E+000  0.2102844E+03  0.7546771E-02  0.1141341E+00
         21   -1    0    0  503  502  0.00000000000E+00  0.00000000000E+00  0.20385761003E+03  0.20385761003E+03  0.00000000000E+00 0. -1.
          2   -1    0    0  502    0 -0.00000000000E+00 -0.00000000000E+00 -0.12281646085E+04  0.12281646085E+04  0.00000000000E+00 0. -1.
         25    1    1    2    0    0 -0.28815079811E+02  0.21498380982E+03 -0.11333275402E+03  0.27480476787E+03  0.12500000000E+03 0.  0.
         21    1    1    2  503  501  0.21465295595E+01 -0.51972900937E+02  0.11068131027E+03  0.12229530843E+03  0.00000000000E+00 0. -1.
          2    1    1    2  501    0  0.26668550251E+02 -0.16301090889E+03 -0.10216555547E+04  0.10349221422E+04  0.00000000000E+00 0. -1.
<mgrwt>
<rscale>  4 0.21028436E+03</rscale>
<asrwt>0</asrwt>
<pdfrwt beam="1">  1       21 0.31362709E-01 0.21028436E+03</pdfrwt>
<pdfrwt beam="2">  1        2 0.18894840E+00 0.21028436E+03</pdfrwt>
<totfact> 0.23847617E+03</totfact>
</mgrwt>
</event>
<event>
 5    0  0.2306346E+000  0.3877666E+03  0.7546771E-02  0.1048100E+00
          1   -1    0    0  502    0 -0.00000000000E+00  0.00000000000E+00  0.10720745390E+03  0.10720745390E+03  0.00000000000E+00 0.  1.
         21   -1    0    0  503  502  0.00000000000E+00 -0.00000000000E+00 -0.19710616926E+04  0.19710616926E+04  0.00000000000E+00 0.  1.
         25    1    1    2    0    0  0.22928218316E+02  0.34651658723E+03 -0.95579234200E+03  0.10245796452E+04  0.12500000000E+03 0.  0.
         21    1    1    2  503  501 -0.11419497905E+03  0.50151683755E+02 -0.17020690810E+03  0.21101202854E+03  0.00000000000E+00 0.  1.
          1    1    1    2  501    0  0.91266760737E+02 -0.39666827099E+03 -0.73785498862E+03  0.84267747273E+03  0.00000000000E+00 0.  1.
<mgrwt>
<rscale>  4 0.38776661E+03</rscale>
<asrwt>0</asrwt>
<pdfrwt beam="1">  1       21 0.30324026E+00 0.38776661E+03</pdfrwt>
<pdfrwt beam="2">  1        1 0.16493455E-01 0.38776661E+03</pdfrwt>
<totfact> 0.99212382E+01</totfact>
</mgrwt>
</event>
<event>
 5    0  0.2306346E+000  0.3092006E+03  0.7546771E-02  0.1080730E+00
          2   -1    0    0  502    0 -0.00000000000E+00  0.00000000000E+00  0.17853172550E+04  0.17853172550E+04  0.00000000000E+00 0.  1.
         21   -1    0    0  503  502  0.00000000000E+00 -0.00000000000E+00 -0.73315322116E+02  0.73315322116E+02  0.00000000000E+00 0. -1.
         25    1    1    2    0    0 -0.26694935686E+03 -0.13302913235E+03  0.58581451224E+03  0.66915047032E+03  0.12500000000E+03 0.  0.
         21    1    1    2  503  501  0.83915103065E+02 -0.69372572030E+02  0.28223603058E+03  0.30250863662E+03  0.00000000000E+00 0. -1.
          2    1    1    2  501    0  0.18303425379E+03  0.20240170438E+03  0.84395139003E+03  0.88697347014E+03  0.00000000000E+00 0.  1.
<mgrwt>
<rscale>  4 0.30920060E+03</rscale>
<asrwt>0</asrwt>
<pdfrwt beam="1">  1       21 0.11279282E-01 0.30920060E+03</pdfrwt>
<pdfrwt beam="2">  1        2 0.27466416E+00 0.30920060E+03</pdfrwt>
<totfact> 0.78351305E+03</totfact>
</mgrwt>
</event>
<event>
 5    0  0.2306346E+000  0.2700884E+03  0.7546771E-02  0.1101229E+00
          1   -1    0    0  502    0 -0.00000000000E+00  0.00000000000E+00  0.32988814804E+04  0.32988814804E+04  0.00000000000E+00 0. -1.
         21   -1    0    0  503  502  0.00000000000E+00 -0.00000000000E+00 -0.41549291380E+02  0.41549291380E+02  0.00000000000E+00 0. -1.
         25    1    1    2    0    0  0.23325028654E+03  0.17564023647E+03  0.21116961594E+04  0.21354486317E+04  0.12500000000E+03 0.  0.
         21    1    1    2  503  501 -0.22432272725E+03 -0.52511924711E+02  0.54337539199E+03  0.59019912303E+03  0.00000000000E+00 0. -1.
          1    1    1    2  501    0 -0.89275592869E+01 -0.12312831176E+03  0.60226063758E+03  0.61478301705E+03  0.00000000000E+00 0. -1.
<mgrwt>
<rscale>  4 0.27008835E+03</rscale>
<asrwt>0</asrwt>
<pdfrwt beam="1">  1       21 0.63922013E-02 0.27008835E+03</pdfrwt>
<pdfrwt beam="2">  1        1 0.50752002E+00 0.27008835E+03</pdfrwt>
<totfact> 0.87061700E+02</totfact>
</mgrwt>
</event>
<event>
 5    0  0.2306346E+000  0.2478005E+03  0.7546771E-02  0.1114703E+00
         21   -1    0    0  503  502  0.00000000000E+00  0.00000000000E+00  0.19556610875E+03  0.19556610875E+03  0.00000000000E+00 0. -1.
          1   -1    0    0  502    0 -0.00000000000E+00 -0.00000000000E+00 -0.12367596367E+04  0.12367596367E+04  0.00000000000E+00 0. -1.
         25    1    1    2    0    0 -0.16231897457E+03 -0.13389312666E+03  0.91133425423E+02  0.26116109990E+03  0.12500000000E+03 0.  0.
         21    1    1    2  503  501 -0.25009979918E+02  0.29681881345E+02 -0.32446863366E+02  0.50589644375E+02  0.00000000000E+00 0. -1.
          1    1    1    2  501    0  0.18732895449E+03  0.10421124532E+03 -0.10998800900E+04  0.11205750012E+04  0.00000000000E+00 0. -1.
<mgrwt>
<rscale>  4 0.24780054E+03</rscale>
<asrwt>0</asrwt>
<pdfrwt beam="1">  1       21 0.30087094E-01 0.24780054E+03</pdfrwt>
<pdfrwt beam="2">  1        1 0.19027071E+00 0.24780054E+03</pdfrwt>
<totfact> 0.12562545E+03</totfact>
</mgrwt>
</event>
<event>
 5    0  0.2306346E+000  0.2404558E+03  0.7546771E-02  0.1119490E+00
          2   -1    0    0  502    0 -0.00000000000E+00  0.00000000000E+00  0.12930375356E+04  0.12930375356E+04  0.00000000000E+00 0. -1.
         21   -1    0    0  503  502  0.00000000000E+00 -0.00000000000E+00 -0.76293200615E+02  0.76293200615E+02  0.00000000000E+00 0. -1.
         25    1    1    2    0    0  0.16735124834E+03 -0.11889549779E+03  0.10675939386E+04  0.10943145788E+04  0.12500000000E+03 0.  0.
         21    1    1    2  503  501  0.13387715888E+02  0.18174333576E+02  0.58170073224E+01  0.23310403510E+02  0.00000000000E+00 0. -1.
          2    1    1    2  501    0 -0.18073896422E+03  0.10072116421E+03  0.14333338905E+03  0.25170575386E+03  0.00000000000E+00 0. -1.
<mgrwt>
<rscale>  4 0.24045583E+03</rscale>
<asrwt>0</asrwt>
<pdfrwt beam="1">  1       21 0.11737416E-01 0.24045583E+03</pdfrwt>
<pdfrwt beam="2">  1        2 0.19892884E+00 0.24045583E+03</pdfrwt>
<totfact> 0.13652614E+04</totfact>
</mgrwt>
</event>
<event>
 5    0  0.2306346E+000  0.3250281E+03  0.7546771E-02  0.1073358E+00
          1   -1    0    0  502    0 -0.00000000000E+00  0.00000000000E+00  0.12154509656E+04  0.12154509656E+04  0.00000000000E+00 0. -1.
         21   -1    0    0  503  502  0.00000000000E+00 -0.00000000000E+00 -0.12596719762E+03  0.12596719762E+03  0.00000000000E+00 0. -1.
         25    1    1    2    0    0  0.28598337696E+02  0.26260852394E+03  0.39495955455E+03  0.49132387638E+03  0.12500000000E+03 0.  0.
         21    1    1    2  503  501  0.59977765110E+02  0.54538499508E+02 -0.43903829390E+00  0.81067706214E+02  0.00000000000E+00 0. -1.
          1    1    1    2  501    0 -0.88576102806E+02 -0.31714702345E+03  0.69496325172E+03  0.76902658063E+03  0.00000000000E+00 0. -1.
<mgrwt>
<rscale>  4 0.32502807E+03</rscale>
<asrwt>0</asrwt>
<pdfrwt beam="1">  1       21 0.19379570E-01 0.32502807E+03</pdfrwt>
<pdfrwt beam="2">  1        1 0.18699245E+00 0.32502807E+03</pdfrwt>
<totfact> 0.29436584E+03</totfact>
</mgrwt>
</event>
<event>
 5    0  0.2306346E+000  0.2455814E+03  0.7546771E-02  0.1116130E+00
         21   -1    0    0  503  502  0.00000000000E+00  0.00000000000E+00  0.33888904922E+03  0.33888904922E+03  0.00000000000E+00 0.  1.
          2   -1    0    0  502    0 -0.00000000000E+00 -0.00000000000E+00 -0.87931592791E+03  0.87931592791E+03  0.00000000000E+00 0.  1.
         25    1    1    2    0    0  0.23688284824E+02 -0.21381308714E+03  0.26329846961E+03  0.36225440669E+03  0.12500000000E+03 0.  0.
         21    1    1    2  503  501 -0.39630768107E+01  0.62325282733E+02 -0.33790948312E+02  0.71006866101E+02  0.00000000000E+00 0.  1.
          2    1    1    2  501    0 -0.19725208014E+02  0.15148780440E+03 -0.76993439999E+03  0.78494370435E+03  0.00000000000E+00 0.  1.
<mgrwt>
<rscale>  4 0.24558135E+03</rscale>
<asrwt>0</asrwt>
<pdfrwt beam="1">  1       21 0.52136776E-01 0.24558135E+03</pdfrwt>
<pdfrwt beam="2">  1        2 0.13527937E+00 0.24558135E+03</pdfrwt>
<totfact> 0.13514058E+03</totfact>
</mgrwt>
</event>
<event>
 5    0  0.2306346E+000  0.3161526E+03  0.7546771E-02  0.1077434E+00
         21   -1    0    0  503  502  0.00000000000E+00  0.00000000000E+00  0.10993875547E+04  0.10993875547E+04  0.00000000000E+00 0.  1.
          2   -1    0    0  502    0 -0.00000000000E+00 -0.00000000000E+00 -0.33527188436E+03  0.33527188436E+03  0.00000000000E+00 0.  1.
         25    1    1    2    0    0 -0.97559970534E+02 -0.23246688867E+03  0.41029819153E+03  0.49752226900E+03  0.12500000000E+03 0.  0.
         21    1    1    2  503  501 -0.32767626127E+02  0.35325429721E+03  0.56126596538E+03  0.66398930693E+03  0.00000000000E+00 0.  1.
          2    1    1    2  501    0  0.13032759666E+03 -0.12078740855E+03 -0.20744848661E+03  0.27314786309E+03  0.00000000000E+00 0.  1.
<mgrwt>
<rscale>  4 0.31615263E+03</rscale>
<asrwt>0</asrwt>
<pdfrwt beam="1">  1       21 0.16913655E+00 0.31615263E+03</pdfrwt>
<pdfrwt beam="2">  1        2 0.51580290E-01 0.31615263E+03</pdfrwt>
<totfact> 0.24151212E+02</totfact>
</mgrwt>
</event>
<event>
 5    0  0.2306346E+000  0.1861649E+03  0.7546771E-02  0.1161967E+00
         21   -1    0    0  503  502  0.00000000000E+00  0.00000000000E+00  0.49458951468E+03  0.49458951468E+03  0.00000000000E+00 0. -1.
          3   -1    0    0  502    0 -0.00000000000E+00 -0.00000000000E+00 -0.16517700071E+03  0.16517700071E+03  0.00000000000E+00 0. -1.
         25    1    1    2    0    0  0.16897650042E+03 -0.12443370756E+03  0.13349424575E+03  0.27835681942E+03  0.12500000000E+03 0.  0.
         21    1    1    2  503  501 -0.93614701361E+02  0.80851462897E+02  0.24999626365E+03  0.27892436825E+03  0.00000000000E+00 0. -1.
          3    1    1    2  501    0 -0.75361799062E+02  0.43582244658E+02 -0.54077995428E+02  0.10248532771E+03  0.00000000000E+00 0. -1.
<mgrwt>
<rscale>  4 0.18616490E+03</rscale>
<asrwt>0</asrwt>
<pdfrwt beam="1">  1       21 0.76090694E-01 0.18616490E+03</pdfrwt>
<pdfrwt beam="2">  1        3 0.25411846E-01 0.18616490E+03</pdfrwt>
<totfact> 0.11074976E+03</totfact>
</mgrwt>
</event>
<event>
 5    0  0.2306346E+000  0.2638232E+03  0.7546771E-02  0.1104868E+00
         21   -1    0    0  501  502  0.00000000000E+00  0.00000000000E+00  0.20459634289E+03  0.20459634289E+03  0.00000000000E+00 0. -1.
         -1   -1    0    0    0  501 -0.00000000000E+00 -0.00000000000E+00 -0.92894899714E+03  0.92894899714E+03  0.00000000000E+00 0. -1.
         25    1    1    2    0    0  0.21522685065E+03  0.24151097740E+02 -0.37424067876E+03  0.45009661008E+03  0.12500000000E+03 0.  0.
         21    1    1    2  503  502  0.30152537902E+02 -0.30579300964E+02  0.13397244391E+03  0.14068718818E+03  0.00000000000E+00 0. -1.
         -1    1    1    2    0  503 -0.24537938855E+03  0.64282032243E+01 -0.48408441940E+03  0.54276154177E+03  0.00000000000E+00 0. -1.
<mgrwt>
<rscale>  4 0.26382322E+03</rscale>
<asrwt>0</asrwt>
<pdfrwt beam="1">  1       21 0.31476360E-01 0.26382322E+03</pdfrwt>
<pdfrwt beam="2">  1       -1 0.14291523E+00 0.26382322E+03</pdfrwt>
<totfact> 0.38099956E+02</totfact>
</mgrwt>
</event>
<event>
 5    0  0.2306346E+000  0.3146004E+03  0.7546771E-02  0.1078162E+00
         21   -1    0    0  501  502  0.00000000000E+00  0.00000000000E+00  0.10008758596E+04  0.10008758596E+04  0.00000000000E+00 0.  1.
         -2   -1    0    0    0  501 -0.00000000000E+00 -0.00000000000E+00 -0.30027757271E+03  0.30027757271E+03  0.00000000000E+00 0.  1.
         25    1    1    2    0    0 -0.28281421655E+03 -0.12502693658E+03  0.45569478151E+03  0.56471085509E+03  0.12500000000E+03 0.  0.
         21    1    1    2  503  502  0.13680843196E+02  0.29802848657E+02  0.40688698298E+03  0.40820631080E+03  0.00000000000E+00 0.  1.
         -2    1    1    2    0  503  0.26913337336E+03  0.95224087927E+02 -0.16198347761E+03  0.32823626642E+03  0.00000000000E+00 0.  1.
<mgrwt>
<rscale>  4 0.31460040E+03</rscale>
<asrwt>0</asrwt>
<pdfrwt beam="1">  1       21 0.15398090E+00 0.31460040E+03</pdfrwt>
<pdfrwt beam="2">  1       -2 0.46196550E-01 0.31460040E+03</pdfrwt>
<totfact> 0.94695335E+01</totfact>
</mgrwt>
</event>
<event>
 5    0  0.2306346E+000  0.2354452E+03  0.7546771E-02  0.1122865E+00
         21   -1    0    0  503  502  0.00000000000E+00  0.00000000000E+00  0.11119876381E+03  0.11119876381E+03  0.00000000000E+00 0.  1.
          1   -1    0    0  502    0 -0.00000000000E+00 -0.00000000000E+00 -0.95443602036E+03  0.95443602036E+03  0.00000000000E+00 0.  1.
         25    1    1    2    0    0 -0.12159648490E+03 -0.18347121069E+03 -0.51854701940E+03  0.57702981000E+03  0.12500000000E+03 0.  0.
         21    1    1    2  503  501  0.10319712015E+03  0.16562292286E+03 -0.35578851231E+02  0.19835940320E+03  0.00000000000E+00 0.  1.
          1    1    1    2  501    0  0.18399364754E+02  0.17848287828E+02 -0.28911138591E+03  0.29024557097E+03  0.00000000000E+00 0.  1.
<mgrwt>
<rscale>  4 0.23544519E+03</rscale>
<asrwt>0</asrwt>
<pdfrwt beam="1">  1       21 0.17107503E-01 0.23544519E+03</pdfrwt>
<pdfrwt beam="2">  1        1 0.14683630E+00 0.23544519E+03</pdfrwt>
<totfact> 0.59112347E+03</totfact>
</mgrwt>
</event>
<event>
 5    0  0.2306346E+000  0.3154741E+03  0.7546771E-02  0.1077751E+00
          1   -1    0    0  502    0 -0.00000000000E+00  0.00000000000E+00  0.70507590168E+03  0.70507590168E+03  0.00000000000E+00 0. -1.
         21   -1    0    0  503  502  0.00000000000E+00 -0.00000000000E+00 -0.46484396262E+03  0.46484396262E+03  0.00000000000E+00 0. -1.
         25    1    1    2    0    0 -0.20745348598E+03  0.23807436460E+03  0.14040108361E+03  0.36749668870E+03  0.12500000000E+03 0.  0.
         21    1    1    2  503  501  0.11529167223E+02 -0.38334777548E+02 -0.30648754372E+03  0.30909074933E+03  0.00000000000E+00 0. -1.
          1    1    1    2  501    0  0.19592431875E+03 -0.19973958706E+03  0.40631839916E+03  0.49333242628E+03  0.00000000000E+00 0. -1.
<mgrwt>
<rscale>  4 0.31547414E+03</rscale>
<asrwt>0</asrwt>
<pdfrwt beam="1">  1       21 0.71514455E-01 0.31547414E+03</pdfrwt>
<pdfrwt beam="2">  1        1 0.10847322E+00 0.31547414E+03</pdfrwt>
<totfact> 0.51671442E+02</totfact>
</mgrwt>
</event>
<event>
 5    0  0.2306346E+000  0.2826895E+03  0.7546771E-02  0.1094229E+00
          1   -1    0    0  502    0 -0.00000000000E+00  0.00000000000E+00  0.94886093281E+03  0.94886093281E+03  0.00000000000E+00 0. -1.
         21   -1    0    0  503  502  0.00000000000E+00 -0.00000000000E+00 -0.89902089408E+02  0.89902089408E+02  0.00000000000E+00 0. -1.
         25    1    1    2    0    0  0.13502729217E+03 -0.21460655908E+03  0.26652131182E+03  0.38851892423E+03  0.12500000000E+03 0.  0.
         21    1    1    2  503  501 -0.92664631208E+02  0.18029143101E+03  0.37730704172E+03  0.42831336391E+03  0.00000000000E+00 0. -1.
          1    1    1    2  501    0 -0.42362660967E+02  0.34315128067E+02  0.21513048986E+03  0.22193073408E+03  0.00000000000E+00 0. -1.
<mgrwt>
<rscale>  4 0.28268948E+03</rscale>
<asrwt>0</asrwt>
<pdfrwt beam="1">  1       21 0.13831091E-01 0.28268948E+03</pdfrwt>
<pdfrwt beam="2">  1        1 0.14597860E+00 0.28268948E+03</pdfrwt>
<totfact> 0.87144932E+03</totfact>
</mgrwt>
</event>
<event>
 5    0  0.2306346E+000  0.1950481E+03  0.7546771E-02  0.1153985E+00
         21   -1    0    0  503  502  0.00000000000E+00  0.00000000000E+00  0.29031642245E+03  0.29031642245E+03  0.00000000000E+00 0. -1.
          2   -1    0    0  502    0 -0.00000000000E+00 -0.00000000000E+00 -0.22881754688E+04  0.22881754688E+04  0.00000000000E+00 0. -1.
         25    1    1    2    0    0  0.51521946629E+02  0.19393545203E+03 -0.58494344969E+03  0.63091149132E+03  0.12500000000E+03 0.  0.
         21    1    1    2  503  501  0.23503240747E+01 -0.61322133123E+02  0.26071501336E+03  0.26783996383E+03  0.00000000000E+00 0. -1.
          2    1    1    2  501    0 -0.53872270704E+02 -0.13261331891E+03 -0.16736306100E+04  0.16797404361E+04  0.00000000000E+00 0. -1.
<mgrwt>
<rscale>  4 0.19504814E+03</rscale>
<asrwt>0</asrwt>
<pdfrwt beam="1">  1       21 0.44664065E-01 0.19504814E+03</pdfrwt>
<pdfrwt beam="2">  1        2 0.35202700E+00 0.19504814E+03</pdfrwt>
<totfact> 0.32691398E+02</totfact>
</mgrwt>
</event>
<event>
 5    0  0.2306346E+000  0.2285541E+03  0.7546771E-02  0.1127662E+00
         21   -1    0    0  503  502  0.00000000000E+00  0.00000000000E+00  0.11155055528E+03  0.11155055528E+03  0.00000000000E+00 0.  1.
          2   -1    0    0  502    0 -0.00000000000E+00 -0.00000000000E+00 -0.13237411264E+04  0.13237411264E+04  0.00000000000E+00 0.  1.
         25    1    1    2    0    0  0.21781133934E+03 -0.83311210469E+01 -0.74700956555E+02  0.26213816974E+03  0.12500000000E+03 0.  0.
         21    1    1    2  503  501 -0.28773972348E+02  0.33016994583E+01 -0.11126571279E+02  0.31026493396E+02  0.00000000000E+00 0.  1.
          2    1    1    2  501    0 -0.18903736699E+03  0.50294215886E+01 -0.11263630433E+04  0.11421270185E+04  0.00000000000E+00 0.  1.
<mgrwt>
<rscale>  4 0.22855414E+03</rscale>
<asrwt>0</asrwt>
<pdfrwt beam="1">  1       21 0.17161623E-01 0.22855414E+03</pdfrwt>
<pdfrwt beam="2">  1        2 0.20365250E+00 0.22855414E+03</pdfrwt>
<totfact> 0.65975069E+03</totfact>
</mgrwt>
</event>
<event>
 5    0  0.2306346E+000  0.2749399E+03  0.7546771E-02  0.1098485E+00
         21   -1    0    0  503  502  0.00000000000E+00  0.00000000000E+00  0.49711850044E+03  0.49711850044E+03  0.00000000000E+00 0. -1.
          1   -1    0    0  502    0 -0.00000000000E+00 -0.00000000000E+00 -0.10297229678E+04  0.10297229678E+04  0.00000000000E+00 0. -1.
         25    1    1    2    0    0  0.21714703408E+03  0.10953249296E+03  0.40310334448E+03  0.48710112682E+03  0.12500000000E+03 0.  0.
         21    1    1    2  503  501  0.12525165797E+02 -0.24265875647E+02  0.31673045764E+02  0.41819783920E+02  0.00000000000E+00 0. -1.
          1    1    1    2  501    0 -0.22967219988E+03 -0.85266617316E+02 -0.96738085756E+03  0.99792055746E+03  0.00000000000E+00 0. -1.
<mgrwt>
<rscale>  4 0.27493992E+03</rscale>
<asrwt>0</asrwt>
<pdfrwt beam="1">  1       21 0.76479769E-01 0.27493992E+03</pdfrwt>
<pdfrwt beam="2">  1        1 0.15841892E+00 0.27493992E+03</pdfrwt>
<totfact> 0.24665307E+02</totfact>
</mgrwt>
</event>
<event>
 5    0  0.2306346E+000  0.1716936E+03  0.7546771E-02  0.1176093E+00
         21   -1    0    0  503  502  0.00000000000E+00  0.00000000000E+00  0.13391629966E+03  0.13391629966E+03  0.00000000000E+00 0.  1.
          1   -1    0    0  502    0 -0.00000000000E+00 -0.00000000000E+00 -0.11249367064E+04  0.11249367064E+04  0.00000000000E+00 0. -1.
         25    1    1    2    0    0 -0.10492760395E+03  0.18068305448E+03 -0.42196786008E+02  0.24710673200E+03  0.12500000000E+03 0.  0.
         21    1    1    2  503  501  0.30084283184E+02 -0.93963393244E+02 -0.59793274001E+02  0.11536645518E+03  0.00000000000E+00 0.  1.
          1    1    1    2  501    0  0.74843320768E+02 -0.86719661239E+02 -0.88903034676E+03  0.89637981892E+03  0.00000000000E+00 0. -1.
<mgrwt>
<rscale>  4 0.17169361E+03</rscale>
<asrwt>0</asrwt>
<pdfrwt beam="1">  1       21 0.20602507E-01 0.17169361E+03</pdfrwt>
<pdfrwt beam="2">  1        1 0.17306719E+00 0.17169361E+03</pdfrwt>
<totfact> 0.32178947E+03</totfact>
</mgrwt>
</event>
<event>
 5    0  0.2306346E+000  0.3053152E+03  0.7546771E-02  0.1082613E+00
         21   -1    0    0  503  502  0.00000000000E+00  0.00000000000E+00  0.22578709736E+03  0.22578709736E+03  0.00000000000E+00 0. -1.
          2   -1    0    0  502    0 -0.00000000000E+00 -0.00000000000E+00 -0.15443685373E+04  0.15443685373E+04  0.00000000000E+00 0. -1.
         25    1    1    2    0    0 -0.57686203350E+02  0.37938505229E+03 -0.77728685048E+03  0.87581993805E+03  0.12500000000E+03 0.  0.
         21    1    1    2  503  501  0.63719351927E+02 -0.14330606163E+03  0.11654237589E+03  0.19539423863E+03  0.00000000000E+00 0. -1.
          2    1    1    2  501    0 -0.60331485767E+01 -0.23607899066E+03 -0.65783696540E+03  0.69894145804E+03  0.00000000000E+00 0. -1.
<mgrwt>
<rscale>  4 0.30531523E+03</rscale>
<asrwt>0</asrwt>
<pdfrwt beam="1">  1       21 0.34736477E-01 0.30531523E+03</pdfrwt>
<pdfrwt beam="2">  1        2 0.23759516E+00 0.30531523E+03</pdfrwt>
<totfact> 0.12552289E+03</totfact>
</mgrwt>
</event>
<event>
 5    0  0.2306346E+000  0.2385737E+03  0.7546771E-02  0.1120747E+00
          2   -1    0    0  502    0 -0.00000000000E+00  0.00000000000E+00  0.22405229199E+03  0.22405229199E+03  0.00000000000E+00 0. -1.
         21   -1    0    0  503  502  0.00000000000E+00 -0.00000000000E+00 -0.39342120191E+03  0.39342120191E+03  0.00000000000E+00 0. -1.
         25    1    1    2    0    0 -0.36281751916E+02  0.20087804292E+03 -0.13926253850E+03  0.27692491451E+03  0.12500000000E+03 0.  0.
         21    1    1    2  503  501 -0.90697227347E+02 -0.34447740733E+02 -0.79535594790E+02  0.12545335679E+03  0.00000000000E+00 0.  1.
          2    1    1    2  501    0  0.12697897926E+03 -0.16643030219E+03  0.49429223367E+02  0.21509522260E+03  0.00000000000E+00 0. -1.
<mgrwt>
<rscale>  4 0.23857365E+03</rscale>
<asrwt>0</asrwt>
<pdfrwt beam="1">  1       21 0.60526339E-01 0.23857365E+03</pdfrwt>
<pdfrwt beam="2">  1        2 0.34469584E-01 0.23857365E+03</pdfrwt>
<totfact> 0.46578271E+03</totfact>
</mgrwt>
</event>
<event>
 5    0  0.2306346E+000  0.2430995E+03  0.7546771E-02  0.1117745E+00
         21   -1    0    0  503  502  0.00000000000E+00  0.00000000000E+00  0.53908552935E+02  0.53908552935E+02  0.00000000000E+00 0. -1.
          2   -1    0    0  502    0 -0.00000000000E+00 -0.00000000000E+00 -0.14389399666E+04  0.14389399666E+04  0.00000000000E+00 0.  1.
         25    1    1    2    0    0  0.24964480507E+02  0.22264985638E+03 -0.47010157000E+03  0.53555267710E+03  0.12500000000E+03 0.  0.
         21    1    1    2  503  501 -0.19018899760E+02 -0.19398060874E+02 -0.86875391771E+01  0.28521512069E+02  0.00000000000E+00 0. -1.
          2    1    1    2  501    0 -0.59455807477E+01 -0.20325179550E+03 -0.90624230454E+03  0.92877433042E+03  0.00000000000E+00 0.  1.
<mgrwt>
<rscale>  4 0.24309950E+03</rscale>
<asrwt>0</asrwt>
<pdfrwt beam="1">  1       21 0.82936242E-02 0.24309950E+03</pdfrwt>
<pdfrwt beam="2">  1        2 0.22137536E+00 0.24309950E+03</pdfrwt>
<totfact> 0.21035397E+04</totfact>
</mgrwt>
</event>
<event>
 5    0  0.2306346E+000  0.2881982E+03  0.7546771E-02  0.1091294E+00
         -2   -1    0    0    0  501 -0.00000000000E+00  0.00000000000E+00  0.17287550441E+04  0.17287550441E+04  0.00000000000E+00 0. -1.
         21   -1    0    0  501  502  0.00000000000E+00 -0.00000000000E+00 -0.58822136963E+03  0.58822136963E+03  0.00000000000E+00 0. -1.
         25    1    1    2    0    0  0.27705552928E+03 -0.12053198791E+03 -0.48073811390E+03  0.58139647451E+03  0.12500000000E+03 0.  0.
         21    1    1    2  503  502 -0.76198305965E+02 -0.43096748536E+02 -0.60638850979E+01  0.87751252235E+02  0.00000000000E+00 0.  1.
         -2    1    1    2    0  503 -0.20085722331E+03  0.16362873645E+03  0.16273356735E+04  0.16478286870E+04  0.00000000000E+00 0. -1.
<mgrwt>
<rscale>  4 0.28819816E+03</rscale>
<asrwt>0</asrwt>
<pdfrwt beam="1">  1       21 0.90495596E-01 0.28819816E+03</pdfrwt>
<pdfrwt beam="2">  1       -2 0.26596231E+00 0.28819816E+03</pdfrwt>
<totfact> 0.46560710E+00</totfact>
</mgrwt>
</event>
<event>
 5    0  0.2306346E+000  0.1792474E+03  0.7546771E-02  0.1168533E+00
         21   -1    0    0  503  502  0.00000000000E+00  0.00000000000E+00  0.20618270985E+04  0.20618270985E+04  0.00000000000E+00 0.  1.
          1   -1    0    0  502    0 -0.00000000000E+00 -0.00000000000E+00 -0.16430174947E+03  0.16430174947E+03  0.00000000000E+00 0.  1.
         25    1    1    2    0    0 -0.13365281354E+03 -0.17428333564E+03  0.16449750641E+04  0.16642733301E+04  0.12500000000E+03 0.  0.
         21    1    1    2  503  501  0.58107088911E+02  0.72220316641E+02  0.37449901441E+03  0.38580010330E+03  0.00000000000E+00 0.  1.
          1    1    1    2  501    0  0.75545724631E+02  0.10206301899E+03 -0.12194872953E+03  0.17605541455E+03  0.00000000000E+00 0.  1.
<mgrwt>
<rscale>  4 0.17924741E+03</rscale>
<asrwt>0</asrwt>
<pdfrwt beam="1">  1       21 0.31720415E+00 0.17924741E+03</pdfrwt>
<pdfrwt beam="2">  1        1 0.25277194E-01 0.17924741E+03</pdfrwt>
<totfact> 0.56364415E+01</totfact>
</mgrwt>
</event>
<event>
 5    0  0.2306346E+000  0.3167240E+03  0.7546771E-02  0.1077167E+00
         21   -1    0    0  503  502  0.00000000000E+00  0.00000000000E+00  0.65807746992E+03  0.65807746992E+03  0.00000000000E+00 0.  1.
          2   -1    0    0  502    0 -0.00000000000E+00 -0.00000000000E+00 -0.26020181119E+03  0.26020181119E+03  0.00000000000E+00 0.  1.
         25    1    1    2    0    0  0.30108663438E+03 -0.14438824659E+03  0.23404761486E+03  0.42650253595E+03  0.12500000000E+03 0.  0.
         21    1    1    2  503  501 -0.40723678376E+02  0.53018771211E+02  0.20240805266E+03  0.21316291390E+03  0.00000000000E+00 0. -1.
          2    1    1    2  501    0 -0.26036295600E+03  0.91369475377E+02 -0.38580008789E+02  0.27861383125E+03  0.00000000000E+00 0.  1.
<mgrwt>
<rscale>  4 0.31672400E+03</rscale>
<asrwt>0</asrwt>
<pdfrwt beam="1">  1       21 0.10124269E+00 0.31672400E+03</pdfrwt>
<pdfrwt beam="2">  1        2 0.40031048E-01 0.31672400E+03</pdfrwt>
<totfact> 0.11987345E+03</totfact>
</mgrwt>
</event>
<event>
 5    0  0.2306346E+000  0.4752052E+03  0.7546771E-02  0.1043895E+00
         21   -1    0    0  503  502  0.00000000000E+00  0.00000000000E+00  0.11597724572E+04  0.11597724572E+04  0.00000000000E+00 0.  1.
          1   -1    0    0  502    0 -0.00000000000E+00 -0.00000000000E+00 -0.72656079100E+03  0.72656079100E+03  0.00000000000E+00 0.  1.
         25    1    1    2    0    0  0.98709326802E+02 -0.17653317974E+03 -0.19652181929E+03  0.30846931809E+03  0.12500000000E+03 0.  0.
         21    1    1    2  503  501  0.36371278856E+03  0.15892969887E+01  0.93056820460E+03  0.99912296633E+03  0.00000000000E+00 0.  1.
          1    1    1    2  501    0 -0.46242211537E+03  0.17494388275E+03 -0.30083471913E+03  0.57874096375E+03  0.00000000000E+00 0.  1.
<mgrwt>
<rscale>  4 0.39966694E+03</rscale>
<asrwt>0</asrwt>
<pdfrwt beam="1">  1       21 0.17842653E+00 0.47520522E+03</pdfrwt>
<pdfrwt beam="2">  1        1 0.11177858E+00 0.47520522E+03</pdfrwt>
<totfact> 0.46490102E+01</totfact>
</mgrwt>
</event>
<event>
 5    0  0.2306346E+000  0.2656737E+03  0.7546771E-02  0.1103782E+00
         21   -1    0    0  503  502  0.00000000000E+00  0.00000000000E+00  0.13813098691E+03  0.13813098691E+03  0.00000000000E+00 0. -1.
          2   -1    0    0  502    0 -0.00000000000E+00 -0.00000000000E+00 -0.57673688639E+03  0.57673688639E+03  0.00000000000E+00 0.  1.
         25    1    1    2    0    0 -0.23679680582E+03 -0.46700877634E+01 -0.11224103042E+03  0.29037490573E+03  0.12500000000E+03 0.  0.
         21    1    1    2  503  501  0.54271954908E+01 -0.30195513458E+02 -0.12780069202E+02  0.33234825901E+02  0.00000000000E+00 0. -1.
          2    1    1    2  501    0  0.23136961033E+03  0.34865601221E+02 -0.31358479985E+03  0.39125814168E+03  0.00000000000E+00 0.  1.
<mgrwt>
<rscale>  4 0.26567368E+03</rscale>
<asrwt>0</asrwt>
<pdfrwt beam="1">  1       21 0.21250921E-01 0.26567368E+03</pdfrwt>
<pdfrwt beam="2">  1        2 0.88728753E-01 0.26567368E+03</pdfrwt>
<totfact> 0.13477430E+04</totfact>
</mgrwt>
</event>
<event>
 5    0  0.2306346E+000  0.3552892E+03  0.7546771E-02  0.1060465E+00
         21   -1    0    0  503  502  0.00000000000E+00  0.00000000000E+00  0.83064497657E+03  0.83064497657E+03  0.00000000000E+00 0. -1.
          2   -1    0    0  502    0 -0.00000000000E+00 -0.00000000000E+00 -0.38998041879E+04  0.38998041879E+04  0.00000000000E+00 0.  1.
         25    1    1    2    0    0  0.28498620934E+03 -0.15852279310E+03  0.73085523306E+03  0.81001295492E+03  0.12500000000E+03 0.  0.
         21    1    1    2  503  501 -0.51622156187E+01 -0.21332841212E+02  0.50770054144E+02  0.55311273554E+02  0.00000000000E+00 0. -1.
          2    1    1    2  501    0 -0.27982399372E+03  0.17985563431E+03 -0.38507844985E+04  0.38651249360E+04  0.00000000000E+00 0.  1.
<mgrwt>
<rscale>  4 0.35528923E+03</rscale>
<asrwt>0</asrwt>
<pdfrwt beam="1">  1       21 0.12779153E+00 0.35528923E+03</pdfrwt>
<pdfrwt beam="2">  1        2 0.59996988E+00 0.35528923E+03</pdfrwt>
<totfact> 0.26607890E+00</totfact>
</mgrwt>
</event>
<event>
 5    0  0.2306346E+000  0.3092972E+03  0.7546771E-02  0.1080683E+00
         21   -1    0    0  503  502  0.00000000000E+00  0.00000000000E+00  0.89722126078E+02  0.89722126078E+02  0.00000000000E+00 0. -1.
          2   -1    0    0  502    0 -0.00000000000E+00 -0.00000000000E+00 -0.23909631027E+04  0.23909631027E+04  0.00000000000E+00 0.  1.
         25    1    1    2    0    0  0.33627579438E+03  0.56493446408E+02 -0.43923454502E+03  0.56993412330E+03  0.12500000000E+03 0.  0.
         21    1    1    2  503  501 -0.63184942741E+02 -0.36652282908E+02 -0.82035351678E+02  0.10984318712E+03  0.00000000000E+00 0. -1.
          2    1    1    2  501    0 -0.27309085163E+03 -0.19841163500E+02 -0.17799710799E+04  0.18009079184E+04  0.00000000000E+00 0.  1.
<mgrwt>
<rscale>  4 0.30929723E+03</rscale>
<asrwt>0</asrwt>
<pdfrwt beam="1">  1       21 0.13803405E-01 0.30929723E+03</pdfrwt>
<pdfrwt beam="2">  1        2 0.36784045E+00 0.30929723E+03</pdfrwt>
<totfact> 0.25838212E+03</totfact>
</mgrwt>
</event>
<event>
 5    0  0.2306346E+000  0.2336816E+03  0.7546771E-02  0.1124075E+00
         21   -1    0    0  503  502  0.00000000000E+00  0.00000000000E+00  0.31682907167E+03  0.31682907167E+03  0.00000000000E+00 0. -1.
          2   -1    0    0  502    0 -0.00000000000E+00 -0.00000000000E+00 -0.51458623761E+03  0.51458623761E+03  0.00000000000E+00 0. -1.
         25    1    1    2    0    0 -0.21418134033E+03  0.10425535517E+03  0.13641146496E+03  0.30162213679E+03  0.12500000000E+03 0.  0.
         21    1    1    2  503  501  0.90289737995E+02  0.46431449483E+02  0.38958971019E+02  0.10874703541E+03  0.00000000000E+00 0. -1.
          2    1    1    2  501    0  0.12389160234E+03 -0.15068680465E+03 -0.37312760193E+03  0.42104613708E+03  0.00000000000E+00 0. -1.
<mgrwt>
<rscale>  4 0.23368165E+03</rscale>
<asrwt>0</asrwt>
<pdfrwt beam="1">  1       21 0.48742934E-01 0.23368165E+03</pdfrwt>
<pdfrwt beam="2">  1        2 0.79167113E-01 0.23368165E+03</pdfrwt>
<totfact> 0.29868461E+03</totfact>
</mgrwt>
</event>
<event>
 5    0  0.2306346E+000  0.2965291E+03  0.7546771E-02  0.1086989E+00
         21   -1    0    0  503  502  0.00000000000E+00  0.00000000000E+00  0.25816445261E+03  0.25816445261E+03  0.00000000000E+00 0. -1.
          1   -1    0    0  502    0 -0.00000000000E+00 -0.00000000000E+00 -0.11858721292E+04  0.11858721292E+04  0.00000000000E+00 0. -1.
         25    1    1    2    0    0 -0.21498141635E+03  0.27562273561E+03  0.25933450570E+02  0.37213229586E+03  0.12500000000E+03 0.  0.
         21    1    1    2  503  501  0.10655442060E+03 -0.36846751876E+02 -0.37266315789E+02  0.11874470921E+03  0.00000000000E+00 0.  1.
          1    1    1    2  501    0  0.10842699575E+03 -0.23877598374E+03 -0.91637481134E+03  0.95315957671E+03  0.00000000000E+00 0. -1.
<mgrwt>
<rscale>  4 0.29652906E+03</rscale>
<asrwt>0</asrwt>
<pdfrwt beam="1">  1       21 0.39717607E-01 0.29652906E+03</pdfrwt>
<pdfrwt beam="2">  1        1 0.18244187E+00 0.29652906E+03</pdfrwt>
<totfact> 0.76641384E+02</totfact>
</mgrwt>
</event>
<event>
 5    0  0.2306346E+000  0.3030742E+03  0.7546771E-02  0.1083714E+00
          1   -1    0    0  502    0 -0.00000000000E+00  0.00000000000E+00  0.63875009937E+03  0.63875009937E+03  0.00000000000E+00 0. -1.
         21   -1    0    0  503  502  0.00000000000E+00 -0.00000000000E+00 -0.39774682720E+03  0.39774682720E+03  0.00000000000E+00 0.  1.
         25    1    1    2    0    0 -0.20643645122E+03  0.13847821285E+03 -0.10077273396E+03  0.29592628768E+03  0.12500000000E+03 0.  0.
         21    1    1    2  503  501 -0.59494928148E+01  0.46302305252E+02 -0.15920657596E+03  0.16590971570E+03  0.00000000000E+00 0. -1.
          1    1    1    2  501    0  0.21238594404E+03 -0.18478051810E+03  0.50098258208E+03  0.57466092319E+03  0.00000000000E+00 0. -1.
<mgrwt>
<rscale>  4 0.30307418E+03</rscale>
<asrwt>0</asrwt>
<pdfrwt beam="1">  1       21 0.61191820E-01 0.30307418E+03</pdfrwt>
<pdfrwt beam="2">  1        1 0.98269246E-01 0.30307418E+03</pdfrwt>
<totfact> 0.84548856E+02</totfact>
</mgrwt>
</event>
<event>
 5    0  0.2306346E+000  0.2394931E+03  0.7546771E-02  0.1120131E+00
          2   -1    0    0  502    0 -0.00000000000E+00  0.00000000000E+00  0.23854743168E+04  0.23854743168E+04  0.00000000000E+00 0. -1.
         21   -1    0    0  503  502  0.00000000000E+00 -0.00000000000E+00 -0.97791278458E+02  0.97791278458E+02  0.00000000000E+00 0. -1.
         25    1    1    2    0    0 -0.23081916527E+03 -0.58841284173E+02  0.19616412884E+03  0.33293415148E+03  0.12500000000E+03 0.  0.
         21    1    1    2  503  501  0.31589125115E+02  0.25882757471E+02 -0.75845811890E+01  0.41536921306E+02  0.00000000000E+00 0. -1.
          2    1    1    2  501    0  0.19923004015E+03  0.32958526702E+02  0.20991034907E+04  0.21087945225E+04  0.00000000000E+00 0. -1.
<mgrwt>
<rscale>  4 0.23949305E+03</rscale>
<asrwt>0</asrwt>
<pdfrwt beam="1">  1       21 0.15044814E-01 0.23949305E+03</pdfrwt>
<pdfrwt beam="2">  1        2 0.36699600E+00 0.23949305E+03</pdfrwt>
<totfact> 0.22939231E+03</totfact>
</mgrwt>
</event>
<event>
 5    0  0.2306346E+000  0.2005765E+03  0.7546771E-02  0.1149253E+00
         21   -1    0    0  501  502  0.00000000000E+00  0.00000000000E+00  0.32913212177E+03  0.32913212177E+03  0.00000000000E+00 0.  1.
         -1   -1    0    0    0  501 -0.00000000000E+00 -0.00000000000E+00 -0.53036398501E+03  0.53036398501E+03  0.00000000000E+00 0. -1.
         25    1    1    2    0    0  0.50607864345E+02 -0.19381109889E+03  0.14464742174E+03  0.27689668579E+03  0.12500000000E+03 0.  0.
         21    1    1    2  503  502 -0.45840549508E+02  0.39431141050E+02  0.96585469979E+02  0.11395141015E+03  0.00000000000E+00 0.  1.
         -1    1    1    2    0  503 -0.47673148366E+01  0.15437995784E+03 -0.44246475497E+03  0.46864801084E+03  0.00000000000E+00 0. -1.
<mgrwt>
<rscale>  4 0.20057654E+03</rscale>
<asrwt>0</asrwt>
<pdfrwt beam="1">  1       21 0.50635711E-01 0.20057654E+03</pdfrwt>
<pdfrwt beam="2">  1       -1 0.81594459E-01 0.20057654E+03</pdfrwt>
<totfact> 0.54084831E+02</totfact>
</mgrwt>
</event>
<event>
 5    0  0.2306346E+000  0.2025963E+03  0.7546771E-02  0.1147567E+00
         21   -1    0    0  503  502  0.00000000000E+00  0.00000000000E+00  0.69172995887E+03  0.69172995887E+03  0.00000000000E+00 0.  1.
          1   -1    0    0  502    0 -0.00000000000E+00 -0.00000000000E+00 -0.79788394696E+03  0.79788394696E+03  0.00000000000E+00 0. -1.
         25    1    1    2    0    0  0.25924232708E+03 -0.81412461132E+02 -0.25835082022E+03  0.39522742729E+03  0.12500000000E+03 0.  0.
         21    1    1    2  503  501 -0.14548909483E+03  0.56452887084E+02  0.60605502255E+03  0.62582481217E+03  0.00000000000E+00 0.  1.
          1    1    1    2  501    0 -0.11375323225E+03  0.24959574048E+02 -0.45385819041E+03  0.46856166636E+03  0.00000000000E+00 0. -1.
<mgrwt>
<rscale>  4 0.20259629E+03</rscale>
<asrwt>0</asrwt>
<pdfrwt beam="1">  1       21 0.10641999E+00 0.20259629E+03</pdfrwt>
<pdfrwt beam="2">  1        1 0.12275138E+00 0.20259629E+03</pdfrwt>
<totfact> 0.18147513E+02</totfact>
</mgrwt>
</event>
<event>
 5    0  0.2306346E+000  0.4296025E+03  0.7546771E-02  0.1033986E+00
         -2   -1    0    0    0  501 -0.00000000000E+00  0.00000000000E+00  0.59041901496E+03  0.59041901496E+03  0.00000000000E+00 0.  1.
         21   -1    0    0  501  502  0.00000000000E+00 -0.00000000000E+00 -0.44883904479E+03  0.44883904479E+03  0.00000000000E+00 0.  1.
         25    1    1    2    0    0  0.39399158731E+03  0.21060768415E+03 -0.15644030132E+02  0.46417098484E+03  0.12500000000E+03 0.  0.
         21    1    1    2  503  502 -0.38982315755E+02 -0.37594955951E+02 -0.92960790510E+02  0.10758582726E+03  0.00000000000E+00 0.  1.
         -2    1    1    2    0  503 -0.35500927155E+03 -0.17301272819E+03  0.25018479080E+03  0.46750124765E+03  0.00000000000E+00 0.  1.
<mgrwt>
<rscale>  4 0.42960253E+03</rscale>
<asrwt>0</asrwt>
<pdfrwt beam="1">  1       21 0.69052161E-01 0.42960253E+03</pdfrwt>
<pdfrwt beam="2">  1       -2 0.90833694E-01 0.42960253E+03</pdfrwt>
<totfact> 0.15370143E+02</totfact>
</mgrwt>
</event>
<event>
 5    0  0.2306346E+000  0.3053091E+03  0.7546771E-02  0.1082616E+00
         -1   -1    0    0    0  501 -0.00000000000E+00  0.00000000000E+00  0.47726790071E+03  0.47726790071E+03  0.00000000000E+00 0. -1.
         21   -1    0    0  501  502  0.00000000000E+00 -0.00000000000E+00 -0.52610983985E+03  0.52610983985E+03  0.00000000000E+00 0. -1.
         25    1    1    2    0    0  0.29009094670E+03 -0.14459366725E+03  0.27849490853E+03  0.44524656096E+03  0.12500000000E+03 0.  0.
         21    1    1    2  503  502 -0.26597448468E+03  0.64875338680E+02 -0.37335723155E+03  0.46297608839E+03  0.00000000000E+00 0. -1.
         -1    1    1    2    0  503 -0.24116462017E+02  0.79718328574E+02  0.46020383878E+02  0.95155091210E+02  0.00000000000E+00 0. -1.
<mgrwt>
<rscale>  4 0.30530910E+03</rscale>
<asrwt>0</asrwt>
<pdfrwt beam="1">  1       21 0.80939975E-01 0.30530910E+03</pdfrwt>
<pdfrwt beam="2">  1       -1 0.73425831E-01 0.30530910E+03</pdfrwt>
<totfact> 0.23026968E+02</totfact>
</mgrwt>
</event>
<event>
 5    0  0.2306346E+000  0.2257254E+03  0.7546771E-02  0.1129685E+00
         21   -1    0    0  503  502  0.00000000000E+00  0.00000000000E+00  0.95564495517E+02  0.95564495517E+02  0.00000000000E+00 0.  1.
          2   -1    0    0  502    0 -0.00000000000E+00 -0.00000000000E+00 -0.30701396337E+04  0.30701396337E+04  0.00000000000E+00 0. -1.
         25    1    1    2    0    0  0.14618915207E+03 -0.21303741425E+03 -0.57577914396E+03  0.64335280420E+03  0.12500000000E+03 0.  0.
         21    1    1    2  503  501 -0.60557860445E+02  0.53500116675E+02  0.30460687584E+02  0.86356067731E+02  0.00000000000E+00 0.  1.
          2    1    1    2  501    0 -0.85631291626E+02  0.15953729757E+03 -0.24292566818E+04  0.24359952573E+04  0.00000000000E+00 0. -1.
<mgrwt>
<rscale>  4 0.22572541E+03</rscale>
<asrwt>0</asrwt>
<pdfrwt beam="1">  1       21 0.14702228E-01 0.22572541E+03</pdfrwt>
<pdfrwt beam="2">  1        2 0.47232923E+00 0.22572541E+03</pdfrwt>
<totfact> 0.99100675E+02</totfact>
</mgrwt>
</event>
<event>
 5    0  0.2306346E+000  0.1786068E+03  0.7546771E-02  0.1169158E+00
          1   -1    0    0  502    0 -0.00000000000E+00  0.00000000000E+00  0.17911554171E+04  0.17911554171E+04  0.00000000000E+00 0.  1.
         21   -1    0    0  503  502  0.00000000000E+00 -0.00000000000E+00 -0.64240745690E+02  0.64240745690E+02  0.00000000000E+00 0. -1.
         25    1    1    2    0    0 -0.17302212456E+03  0.12695425420E+03  0.44310282726E+03  0.50795585809E+03  0.12500000000E+03 0.  0.
         21    1    1    2  503  501  0.60033493349E+02 -0.85674574222E+02  0.65982821758E+02  0.12368462216E+03  0.00000000000E+00 0. -1.
          1    1    1    2  501    0  0.11298863121E+03 -0.41279679976E+02  0.12178290224E+04  0.12237556826E+04  0.00000000000E+00 0.  1.
<mgrwt>
<rscale>  4 0.17860682E+03</rscale>
<asrwt>0</asrwt>
<pdfrwt beam="1">  1       21 0.98831930E-02 0.17860682E+03</pdfrwt>
<pdfrwt beam="2">  1        1 0.27556233E+00 0.17860682E+03</pdfrwt>
<totfact> 0.43883415E+03</totfact>
</mgrwt>
</event>
<event>
 5    0  0.2306346E+000  0.3222240E+03  0.7546771E-02  0.1074630E+00
          2   -1    0    0  502    0 -0.00000000000E+00  0.00000000000E+00  0.14013074773E+04  0.14013074773E+04  0.00000000000E+00 0. -1.
         21   -1    0    0  503  502  0.00000000000E+00 -0.00000000000E+00 -0.15436535810E+03  0.15436535810E+03  0.00000000000E+00 0. -1.
         25    1    1    2    0    0  0.31455196736E+03  0.72424172655E+02  0.18839472636E+03  0.39408853557E+03  0.12500000000E+03 0.  0.
         21    1    1    2  503  501 -0.33727767827E+02  0.83123159375E+01 -0.22735554908E+02  0.41515808745E+02  0.00000000000E+00 0. -1.
          2    1    1    2  501    0 -0.28082419953E+03 -0.80736488592E+02  0.10812829477E+04  0.11200684911E+04  0.00000000000E+00 0. -1.
<mgrwt>
<rscale>  4 0.32222397E+03</rscale>
<asrwt>0</asrwt>
<pdfrwt beam="1">  1       21 0.23748518E-01 0.32222397E+03</pdfrwt>
<pdfrwt beam="2">  1        2 0.21558576E+00 0.32222397E+03</pdfrwt>
<totfact> 0.31451196E+03</totfact>
</mgrwt>
</event>
<event>
 5    0  0.2306346E+000  0.2231058E+03  0.7546771E-02  0.1131589E+00
         21   -1    0    0  503  502  0.00000000000E+00  0.00000000000E+00  0.21555066428E+03  0.21555066428E+03  0.00000000000E+00 0.  1.
          2   -1    0    0  502    0 -0.00000000000E+00 -0.00000000000E+00 -0.14103720637E+04  0.14103720637E+04  0.00000000000E+00 0.  1.
         25    1    1    2    0    0 -0.23369936870E+03 -0.14819734588E+02  0.10491843401E+03  0.28542581744E+03  0.12500000000E+03 0.  0.
         21    1    1    2  503  501  0.56593022696E+02 -0.32194206138E+02 -0.64181968200E+02  0.91425172511E+02  0.00000000000E+00 0.  1.
          2    1    1    2  501    0  0.17710634601E+03  0.47013940725E+02 -0.12355578652E+04  0.12490717380E+04  0.00000000000E+00 0.  1.
<mgrwt>
<rscale>  4 0.22310580E+03</rscale>
<asrwt>0</asrwt>
<pdfrwt beam="1">  1       21 0.33161640E-01 0.22310580E+03</pdfrwt>
<pdfrwt beam="2">  1        2 0.21698032E+00 0.22310580E+03</pdfrwt>
<totfact> 0.16865122E+03</totfact>
</mgrwt>
</event>
<event>
 5    0  0.2306346E+000  0.2899922E+03  0.7546771E-02  0.1090353E+00
         21   -1    0    0  501  502  0.00000000000E+00  0.00000000000E+00  0.32892909575E+03  0.32892909575E+03  0.00000000000E+00 0. -1.
         -4   -1    0    0    0  501 -0.00000000000E+00 -0.00000000000E+00 -0.49769980013E+03  0.49769980013E+03  0.00000000000E+00 0. -1.
         25    1    1    2    0    0  0.12518769049E+03 -0.19616197372E+03  0.17564905008E+03  0.31722084827E+03  0.12500000000E+03 0.  0.
         21    1    1    2  503  502  0.41374942381E+02 -0.12396790379E+02  0.27812605717E+02  0.51372242558E+02  0.00000000000E+00 0. -1.
         -4    1    1    2    0  503 -0.16656263287E+03  0.20855876409E+03 -0.37223236018E+03  0.45803580506E+03  0.00000000000E+00 0. -1.
<mgrwt>
<rscale>  4 0.28999218E+03</rscale>
<asrwt>0</asrwt>
<pdfrwt beam="1">  1       21 0.50604477E-01 0.28999218E+03</pdfrwt>
<pdfrwt beam="2">  1       -4 0.76569199E-01 0.28999218E+03</pdfrwt>
<totfact> 0.24149474E+02</totfact>
</mgrwt>
</event>
<event>
 5    0  0.2306346E+000  0.3275013E+03  0.7546771E-02  0.1072248E+00
         -1   -1    0    0    0  501 -0.00000000000E+00  0.00000000000E+00  0.49031670770E+03  0.49031670770E+03  0.00000000000E+00 0. -1.
         21   -1    0    0  501  502  0.00000000000E+00 -0.00000000000E+00 -0.26469567763E+04  0.26469567763E+04  0.00000000000E+00 0. -1.
         25    1    1    2    0    0  0.92523091886E+02 -0.21921732327E+03 -0.10663246963E+04  0.10996772778E+04  0.12500000000E+03 0.  0.
         21    1    1    2  503  502  0.45914271279E+02 -0.53327618810E+02 -0.15137300258E+04  0.15153648228E+04  0.00000000000E+00 0. -1.
         -1    1    1    2    0  503 -0.13843736316E+03  0.27254494208E+03  0.42341465351E+03  0.52223138338E+03  0.00000000000E+00 0. -1.
<mgrwt>
<rscale>  4 0.32750134E+03</rscale>
<asrwt>0</asrwt>
<pdfrwt beam="1">  1       21 0.40722412E+00 0.32750134E+03</pdfrwt>
<pdfrwt beam="2">  1       -1 0.75433340E-01 0.32750134E+03</pdfrwt>
<totfact> 0.11255898E+00</totfact>
</mgrwt>
</event>
<event>
 5    0  0.2306346E+000  0.2296198E+03  0.7546771E-02  0.1126908E+00
         21   -1    0    0  501  502  0.00000000000E+00  0.00000000000E+00  0.10461027226E+03  0.10461027226E+03  0.00000000000E+00 0. -1.
         -4   -1    0    0    0  501 -0.00000000000E+00 -0.00000000000E+00 -0.70079309369E+03  0.70079309369E+03  0.00000000000E+00 0. -1.
         25    1    1    2    0    0 -0.19584200950E+03  0.62592689770E+02 -0.10110063953E+03  0.26099478311E+03  0.12500000000E+03 0.  0.
         21    1    1    2  503  502  0.22019389796E+02  0.13761436479E+02 -0.19935303267E+02  0.32736019570E+02  0.00000000000E+00 0.  1.
         -4    1    1    2    0  503  0.17382261971E+03 -0.76354126249E+02 -0.47514687863E+03  0.51167256326E+03  0.00000000000E+00 0. -1.
<mgrwt>
<rscale>  4 0.22961985E+03</rscale>
<asrwt>0</asrwt>
<pdfrwt beam="1">  1       21 0.16093889E-01 0.22961985E+03</pdfrwt>
<pdfrwt beam="2">  1       -4 0.10781432E+00 0.22961985E+03</pdfrwt>
<totfact> 0.10402202E+03</totfact>
</mgrwt>
</event>
<event>
 5    0  0.2306346E+000  0.3037907E+03  0.7546771E-02  0.1083361E+00
         21   -1    0    0  503  502  0.00000000000E+00  0.00000000000E+00  0.69135589120E+02  0.69135589120E+02  0.00000000000E+00 0.  1.
          2   -1    0    0  502    0 -0.00000000000E+00 -0.00000000000E+00 -0.18405776983E+04  0.18405776983E+04  0.00000000000E+00 0.  1.
         25    1    1    2    0    0 -0.26524091050E+03  0.12380935672E+03 -0.96611588063E+03  0.10171953560E+04  0.12500000000E+03 0.  0.
         21    1    1    2  503  501  0.24903258665E+03 -0.10484744874E+03 -0.37897578402E+03  0.46543835424E+03  0.00000000000E+00 0.  1.
          2    1    1    2  501    0  0.16208323846E+02 -0.18961907984E+02 -0.42635044449E+03  0.42707957716E+03  0.00000000000E+00 0.  1.
<mgrwt>
<rscale>  4 0.30379068E+03</rscale>
<asrwt>0</asrwt>
<pdfrwt beam="1">  1       21 0.10636244E-01 0.30379068E+03</pdfrwt>
<pdfrwt beam="2">  1        2 0.28316580E+00 0.30379068E+03</pdfrwt>
<totfact> 0.81529825E+03</totfact>
</mgrwt>
</event>
<event>
 5    0  0.2306346E+000  0.2646398E+03  0.7546771E-02  0.1104387E+00
          2   -1    0    0  502    0 -0.00000000000E+00  0.00000000000E+00  0.24590943780E+04  0.24590943780E+04  0.00000000000E+00 0. -1.
         21   -1    0    0  503  502  0.00000000000E+00 -0.00000000000E+00 -0.51704378062E+02  0.51704378062E+02  0.00000000000E+00 0. -1.
         25    1    1    2    0    0  0.11324752563E+03  0.19701710120E+03  0.50556034815E+03  0.56820507376E+03  0.12500000000E+03 0.  0.
         21    1    1    2  503  501 -0.17335767374E+02  0.17367604618E+02 -0.17302224775E+01  0.24599922570E+02  0.00000000000E+00 0.  1.
          2    1    1    2  501    0 -0.95911758255E+02 -0.21438470581E+03  0.19035598742E+04  0.19179937597E+04  0.00000000000E+00 0. -1.
<mgrwt>
<rscale>  4 0.26463980E+03</rscale>
<asrwt>0</asrwt>
<pdfrwt beam="1">  1       21 0.79545216E-02 0.26463980E+03</pdfrwt>
<pdfrwt beam="2">  1        2 0.37832212E+00 0.26463980E+03</pdfrwt>
<totfact> 0.64711104E+03</totfact>
</mgrwt>
</event>
<event>
 5    0  0.2306346E+000  0.2076047E+03  0.7546771E-02  0.1143477E+00
         21   -1    0    0  501  502  0.00000000000E+00  0.00000000000E+00  0.31637478633E+04  0.31637478633E+04  0.00000000000E+00 0. -1.
         -1   -1    0    0    0  501 -0.00000000000E+00 -0.00000000000E+00 -0.31861351807E+03  0.31861351807E+03  0.00000000000E+00 0.  1.
         25    1    1    2    0    0  0.12330521663E+03  0.17866143296E+03  0.35479586842E+02  0.25299779674E+03  0.12500000000E+03 0.  0.
         21    1    1    2  503  502 -0.66906895856E+02 -0.32872303338E+02  0.29898702397E+04  0.29907994201E+04  0.00000000000E+00 0. -1.
         -1    1    1    2    0  503 -0.56398320774E+02 -0.14578912962E+03 -0.18021548130E+03  0.23856416454E+03  0.00000000000E+00 0.  1.
<mgrwt>
<rscale>  4 0.20760468E+03</rscale>
<asrwt>0</asrwt>
<pdfrwt beam="1">  1       21 0.48673042E+00 0.20760468E+03</pdfrwt>
<pdfrwt beam="2">  1       -1 0.49017466E-01 0.20760468E+03</pdfrwt>
<totfact> 0.89906159E-01</totfact>
</mgrwt>
</event>
<event>
 5    0  0.2306346E+000  0.2755818E+03  0.7546771E-02  0.1098127E+00
         21   -1    0    0  501  502  0.00000000000E+00  0.00000000000E+00  0.17919821660E+03  0.17919821660E+03  0.00000000000E+00 0. -1.
         -2   -1    0    0    0  501 -0.00000000000E+00 -0.00000000000E+00 -0.64492325694E+03  0.64492325694E+03  0.00000000000E+00 0.  1.
         25    1    1    2    0    0 -0.12943540741E+01 -0.21368905709E+03 -0.33230653129E+02  0.24978783954E+03  0.12500000000E+03 0.  0.
         21    1    1    2  503  502 -0.94947591244E+01 -0.41499836103E+02  0.25721365560E+02  0.49739074114E+02  0.00000000000E+00 0.  1.
         -2    1    1    2    0  503  0.10789113198E+02  0.25518889320E+03 -0.45821575278E+03  0.52459455989E+03  0.00000000000E+00 0.  1.
<mgrwt>
<rscale>  4 0.27558183E+03</rscale>
<asrwt>0</asrwt>
<pdfrwt beam="1">  1       21 0.27568956E-01 0.27558183E+03</pdfrwt>
<pdfrwt beam="2">  1       -2 0.99218963E-01 0.27558183E+03</pdfrwt>
<totfact> 0.87962409E+02</totfact>
</mgrwt>
</event>
<event>
 5    0  0.2306346E+000  0.2433303E+03  0.7546771E-02  0.1117594E+00
         21   -1    0    0  503  502  0.00000000000E+00  0.00000000000E+00  0.47914818488E+02  0.47914818488E+02  0.00000000000E+00 0. -1.
          1   -1    0    0  502    0 -0.00000000000E+00 -0.00000000000E+00 -0.22992420528E+04  0.22992420528E+04  0.00000000000E+00 0. -1.
         25    1    1    2    0    0  0.15667939120E+03 -0.13679585578E+03 -0.45234952654E+03  0.51332897049E+03  0.12500000000E+03 0.  0.
         21    1    1    2  503  501  0.15673525091E+02  0.18306713049E+02 -0.14182294765E+01  0.24141385757E+02  0.00000000000E+00 0. -1.
          1    1    1    2  501    0 -0.17235291629E+03  0.11848914273E+03 -0.17975594783E+04  0.18096865151E+04  0.00000000000E+00 0. -1.
<mgrwt>
<rscale>  4 0.24333025E+03</rscale>
<asrwt>0</asrwt>
<pdfrwt beam="1">  1       21 0.73715104E-02 0.24333025E+03</pdfrwt>
<pdfrwt beam="2">  1        1 0.35372955E+00 0.24333025E+03</pdfrwt>
<totfact> 0.33405145E+03</totfact>
</mgrwt>
</event>
<event>
 5    0  0.2306346E+000  0.3366243E+03  0.7546771E-02  0.1068243E+00
         21   -1    0    0  503  502  0.00000000000E+00  0.00000000000E+00  0.27024526754E+04  0.27024526754E+04  0.00000000000E+00 0.  1.
          1   -1    0    0  502    0 -0.00000000000E+00 -0.00000000000E+00 -0.38223681975E+03  0.38223681975E+03  0.00000000000E+00 0. -1.
         25    1    1    2    0    0  0.54602710733E+02 -0.30988275518E+03  0.20735211562E+04  0.21009816190E+04  0.12500000000E+03 0.  0.
         21    1    1    2  503  501 -0.32059321901E+02 -0.18424418148E+01  0.54837898836E+03  0.54931840456E+03  0.00000000000E+00 0. -1.
          1    1    1    2  501    0 -0.22543388833E+02  0.31172519699E+03 -0.30168428896E+03  0.43438947158E+03  0.00000000000E+00 0. -1.
<mgrwt>
<rscale>  4 0.33662431E+03</rscale>
<asrwt>0</asrwt>
<pdfrwt beam="1">  1       21 0.41576194E+00 0.33662431E+03</pdfrwt>
<pdfrwt beam="2">  1        1 0.58805666E-01 0.33662431E+03</pdfrwt>
<totfact> 0.40706348E+00</totfact>
</mgrwt>
</event>
<event>
 5    0  0.2306346E+000  0.3349686E+03  0.7546771E-02  0.1068959E+00
         21   -1    0    0  501  502  0.00000000000E+00  0.00000000000E+00  0.12934097312E+04  0.12934097312E+04  0.00000000000E+00 0. -1.
         -1   -1    0    0    0  501 -0.00000000000E+00 -0.00000000000E+00 -0.16788169277E+03  0.16788169277E+03  0.00000000000E+00 0. -1.
         25    1    1    2    0    0 -0.12553679270E+03 -0.26620773298E+03  0.78579064142E+03  0.84836193666E+03  0.12500000000E+03 0.  0.
         21    1    1    2  503  502 -0.19278743732E+02 -0.12929286497E+02  0.29428071538E+03  0.29519481001E+03  0.00000000000E+00 0. -1.
         -1    1    1    2    0  503  0.14481553643E+03  0.27913701948E+03  0.45456681589E+02  0.31773467726E+03  0.00000000000E+00 0. -1.
<mgrwt>
<rscale>  4 0.33496864E+03</rscale>
<asrwt>0</asrwt>
<pdfrwt beam="1">  1       21 0.19898611E+00 0.33496864E+03</pdfrwt>
<pdfrwt beam="2">  1       -1 0.25827954E-01 0.33496864E+03</pdfrwt>
<totfact> 0.15021709E+02</totfact>
</mgrwt>
</event>
<event>
 5    0  0.2306346E+000  0.2614427E+03  0.7546771E-02  0.1106280E+00
          2   -1    0    0  502    0 -0.00000000000E+00  0.00000000000E+00  0.83495867049E+03  0.83495867049E+03  0.00000000000E+00 0. -1.
         21   -1    0    0  503  502  0.00000000000E+00 -0.00000000000E+00 -0.21873339009E+03  0.21873339009E+03  0.00000000000E+00 0.  1.
         25    1    1    2    0    0  0.15803225133E+03 -0.18726970826E+03  0.17234687485E+03  0.32461143135E+03  0.12500000000E+03 0.  0.
         21    1    1    2  503  501 -0.51926819690E+01  0.21754733521E+02 -0.11989322224E+03  0.12196153949E+03  0.00000000000E+00 0.  1.
          2    1    1    2  501    0 -0.15283956936E+03  0.16551497474E+03  0.56377162779E+03  0.60711908974E+03  0.00000000000E+00 0. -1.
<mgrwt>
<rscale>  4 0.26144270E+03</rscale>
<asrwt>0</asrwt>
<pdfrwt beam="1">  1       21 0.33651291E-01 0.26144270E+03</pdfrwt>
<pdfrwt beam="2">  1        2 0.12845518E+00 0.26144270E+03</pdfrwt>
<totfact> 0.35241899E+03</totfact>
</mgrwt>
</event>
<event>
 5    0  0.2306346E+000  0.5000045E+03  0.7546771E-02  0.1013778E+00
          1   -1    0    0  502    0 -0.00000000000E+00  0.00000000000E+00  0.76858178723E+03  0.76858178723E+03  0.00000000000E+00 0.  1.
         21   -1    0    0  503  502  0.00000000000E+00 -0.00000000000E+00 -0.76158839082E+03  0.76158839082E+03  0.00000000000E+00 0.  1.
         25    1    1    2    0    0 -0.35061708586E+03  0.37961574341E+03 -0.45191801275E+03  0.69777886453E+03  0.12500000000E+03 0.  0.
         21    1    1    2  503  501  0.44975892093E+02 -0.10620914394E+02 -0.91584546447E+02  0.10258344818E+03  0.00000000000E+00 0.  1.
          1    1    1    2  501    0  0.30564119377E+03 -0.36899482901E+03  0.55049595560E+03  0.72980786533E+03  0.00000000000E+00 0.  1.
<mgrwt>
<rscale>  4 0.50000453E+03</rscale>
<asrwt>0</asrwt>
<pdfrwt beam="1">  1       21 0.11716744E+00 0.50000453E+03</pdfrwt>
<pdfrwt beam="2">  1        1 0.11824335E+00 0.50000453E+03</pdfrwt>
<totfact> 0.13178382E+02</totfact>
</mgrwt>
</event>
<event>
 5    0  0.2306346E+000  0.2395068E+03  0.7546771E-02  0.1120122E+00
          2   -1    0    0  502    0 -0.00000000000E+00  0.00000000000E+00  0.52459427574E+03  0.52459427574E+03  0.00000000000E+00 0.  1.
         21   -1    0    0  503  502  0.00000000000E+00 -0.00000000000E+00 -0.22215817630E+03  0.22215817630E+03  0.00000000000E+00 0. -1.
         25    1    1    2    0    0  0.22362368865E+03  0.37796133722E+02 -0.90305639828E+02  0.27425573911E+03  0.12500000000E+03 0.  0.
         21    1    1    2  503  501 -0.29099069182E+02  0.14404797551E+02  0.15555883905E+01  0.32506520500E+02  0.00000000000E+00 0. -1.
          2    1    1    2  501    0 -0.19452461946E+03 -0.52200931273E+02  0.39118615088E+03  0.43999019244E+03  0.00000000000E+00 0.  1.
<mgrwt>
<rscale>  4 0.23950682E+03</rscale>
<asrwt>0</asrwt>
<pdfrwt beam="1">  1       21 0.34178181E-01 0.23950682E+03</pdfrwt>
<pdfrwt beam="2">  1        2 0.80706811E-01 0.23950682E+03</pdfrwt>
<totfact> 0.60117095E+03</totfact>
</mgrwt>
</event>
<event>
 5    0  0.2306346E+000  0.2593835E+03  0.7546771E-02  0.1107514E+00
          1   -1    0    0  502    0 -0.00000000000E+00  0.00000000000E+00  0.78208565985E+03  0.78208565985E+03  0.00000000000E+00 0. -1.
         21   -1    0    0  503  502  0.00000000000E+00 -0.00000000000E+00 -0.39251659144E+03  0.39251659144E+03  0.00000000000E+00 0.  1.
         25    1    1    2    0    0  0.18953877767E+02  0.21445920755E+03 -0.27412382910E+03  0.37029835925E+03  0.12500000000E+03 0.  0.
         21    1    1    2  503  501  0.92814229254E+02 -0.14544225020E+02 -0.83372811971E+01  0.94316095610E+02  0.00000000000E+00 0.  1.
          1    1    1    2  501    0 -0.11176810702E+03 -0.19991498253E+03  0.67203017871E+03  0.70998779643E+03  0.00000000000E+00 0. -1.
<mgrwt>
<rscale>  4 0.25938353E+03</rscale>
<asrwt>0</asrwt>
<pdfrwt beam="1">  1       21 0.60387168E-01 0.25938353E+03</pdfrwt>
<pdfrwt beam="2">  1        1 0.12032087E+00 0.25938353E+03</pdfrwt>
<totfact> 0.65729647E+02</totfact>
</mgrwt>
</event>
<event>
 5    0  0.2306346E+000  0.2664049E+03  0.7546771E-02  0.1103355E+00
         21   -1    0    0  503  502  0.00000000000E+00  0.00000000000E+00  0.52508505381E+03  0.52508505381E+03  0.00000000000E+00 0.  1.
          2   -1    0    0  502    0 -0.00000000000E+00 -0.00000000000E+00 -0.13549688668E+04  0.13549688668E+04  0.00000000000E+00 0.  1.
         25    1    1    2    0    0  0.35319146736E+02  0.28217214864E+03  0.39687684366E+03  0.50398888145E+03  0.12500000000E+03 0.  0.
         21    1    1    2  503  501 -0.84646954871E+01 -0.49615440881E+02  0.54154735276E+02  0.73932931744E+02  0.00000000000E+00 0.  1.
          2    1    1    2  501    0 -0.26854451249E+02 -0.23255670776E+03 -0.12809153919E+04  0.13021321074E+04  0.00000000000E+00 0.  1.
<mgrwt>
<rscale>  4 0.26640490E+03</rscale>
<asrwt>0</asrwt>
<pdfrwt beam="1">  1       21 0.80782317E-01 0.26640490E+03</pdfrwt>
<pdfrwt beam="2">  1        2 0.20845675E+00 0.26640490E+03</pdfrwt>
<totfact> 0.26813388E+02</totfact>
</mgrwt>
</event>
<event>
 5    0  0.2306346E+000  0.2265576E+03  0.7546771E-02  0.1129086E+00
          1   -1    0    0  502    0 -0.00000000000E+00  0.00000000000E+00  0.42422151022E+03  0.42422151022E+03  0.00000000000E+00 0.  1.
         21   -1    0    0  503  502  0.00000000000E+00 -0.00000000000E+00 -0.74502128235E+03  0.74502128235E+03  0.00000000000E+00 0. -1.
         25    1    1    2    0    0 -0.10625035914E+03 -0.18028906462E+03 -0.26638933830E+03  0.36108387558E+03  0.12500000000E+03 0.  0.
         21    1    1    2  503  501  0.11972998775E+01  0.25018689700E+02 -0.40756289878E+03  0.40833183175E+03  0.00000000000E+00 0. -1.
          1    1    1    2  501    0  0.10505305926E+03  0.15527037493E+03  0.35315246495E+03  0.39982708524E+03  0.00000000000E+00 0.  1.
<mgrwt>
<rscale>  4 0.22655765E+03</rscale>
<asrwt>0</asrwt>
<pdfrwt beam="1">  1       21 0.11461866E+00 0.22655765E+03</pdfrwt>
<pdfrwt beam="2">  1        1 0.65264848E-01 0.22655765E+03</pdfrwt>
<totfact> 0.35750572E+02</totfact>
</mgrwt>
</event>
<event>
 5    0  0.2306346E+000  0.2731091E+03  0.7546771E-02  0.1099513E+00
         -1   -1    0    0    0  501 -0.00000000000E+00  0.00000000000E+00  0.98679800458E+03  0.98679800458E+03  0.00000000000E+00 0.  1.
         21   -1    0    0  501  502  0.00000000000E+00 -0.00000000000E+00 -0.15745076123E+04  0.15745076123E+04  0.00000000000E+00 0. -1.
         25    1    1    2    0    0  0.30555026241E+01 -0.32745240311E+03  0.23495732960E+03  0.42197672819E+03  0.12500000000E+03 0.  0.
         21    1    1    2  503  502 -0.27150480033E+02  0.23881770918E+03 -0.14679723112E+04  0.14875193287E+04  0.00000000000E+00 0. -1.
         -1    1    1    2    0  503  0.24094977409E+02  0.88634693930E+02  0.64530537389E+03  0.65180955998E+03  0.00000000000E+00 0.  1.
<mgrwt>
<rscale>  4 0.27310907E+03</rscale>
<asrwt>0</asrwt>
<pdfrwt beam="1">  1       21 0.24223194E+00 0.27310907E+03</pdfrwt>
<pdfrwt beam="2">  1       -1 0.15181508E+00 0.27310907E+03</pdfrwt>
<totfact> 0.23341180E+00</totfact>
</mgrwt>
</event>
<event>
 5    0  0.2306346E+000  0.2560324E+03  0.7546771E-02  0.1109551E+00
          2   -1    0    0  502    0 -0.00000000000E+00  0.00000000000E+00  0.41970724593E+04  0.41970724593E+04  0.00000000000E+00 0. -1.
         21   -1    0    0  503  502  0.00000000000E+00 -0.00000000000E+00 -0.49722503453E+02  0.49722503453E+02  0.00000000000E+00 0.  1.
         25    1    1    2    0    0  0.14839725522E+03 -0.17761565275E+03  0.46372234814E+03  0.53313458115E+03  0.12500000000E+03 0.  0.
         21    1    1    2  503  501 -0.46122417717E+02 -0.20722630012E+02  0.43504254781E+02  0.66703260750E+02  0.00000000000E+00 0. -1.
          2    1    1    2  501    0 -0.10227483750E+03  0.19833828276E+03  0.36401233529E+04  0.36469571208E+04  0.00000000000E+00 0. -1.
<mgrwt>
<rscale>  4 0.25603237E+03</rscale>
<asrwt>0</asrwt>
<pdfrwt beam="1">  1       21 0.76496192E-02 0.25603237E+03</pdfrwt>
<pdfrwt beam="2">  1        2 0.64570318E+00 0.25603237E+03</pdfrwt>
<totfact> 0.51672758E+02</totfact>
</mgrwt>
</event>
<event>
 5    0  0.2306346E+000  0.3785911E+03  0.7546771E-02  0.1051456E+00
         21   -1    0    0  503  502  0.00000000000E+00  0.00000000000E+00  0.29693701676E+03  0.29693701676E+03  0.00000000000E+00 0.  1.
          1   -1    0    0  502    0 -0.00000000000E+00 -0.00000000000E+00 -0.21758791223E+04  0.21758791223E+04  0.00000000000E+00 0.  1.
         25    1    1    2    0    0 -0.26400566466E+03 -0.19628984857E+03  0.13552290230E+03  0.37712087276E+03  0.12500000000E+03 0.  0.
         21    1    1    2  503  501 -0.29021767537E+02 -0.11303775210E+02  0.15094277126E+02  0.34610338440E+02  0.00000000000E+00 0. -1.
          1    1    1    2  501    0  0.29302743220E+03  0.20759362378E+03 -0.20295592850E+04  0.20610849279E+04  0.00000000000E+00 0.  1.
<mgrwt>
<rscale>  4 0.37859107E+03</rscale>
<asrwt>0</asrwt>
<pdfrwt beam="1">  1       21 0.45682619E-01 0.37859107E+03</pdfrwt>
<pdfrwt beam="2">  1        1 0.33475063E+00 0.37859107E+03</pdfrwt>
<totfact> 0.12127788E+02</totfact>
</mgrwt>
</event>
<event>
 5    0  0.2306346E+000  0.2286475E+03  0.7546771E-02  0.1127595E+00
         21   -1    0    0  503  502  0.00000000000E+00  0.00000000000E+00  0.33852856771E+03  0.33852856771E+03  0.00000000000E+00 0.  1.
          1   -1    0    0  502    0 -0.00000000000E+00 -0.00000000000E+00 -0.91963756256E+03  0.91963756256E+03  0.00000000000E+00 0. -1.
         25    1    1    2    0    0  0.12668940991E+03  0.16262457561E+03  0.27518579450E+03  0.36585404285E+03  0.12500000000E+03 0.  0.
         21    1    1    2  503  501  0.11924602615E+01 -0.20774481023E+02 -0.72242071896E+01  0.22027033227E+02  0.00000000000E+00 0.  1.
          1    1    1    2  501    0 -0.12788187018E+03 -0.14185009458E+03 -0.84907058216E+03  0.87028505419E+03  0.00000000000E+00 0. -1.
<mgrwt>
<rscale>  4 0.22864753E+03</rscale>
<asrwt>0</asrwt>
<pdfrwt beam="1">  1       21 0.52081318E-01 0.22864753E+03</pdfrwt>
<pdfrwt beam="2">  1        1 0.14148270E+00 0.22864753E+03</pdfrwt>
<totfact> 0.70835679E+02</totfact>
</mgrwt>
</event>
<event>
 5    0  0.2306346E+000  0.2781070E+03  0.7546771E-02  0.1096727E+00
         21   -1    0    0  503  502  0.00000000000E+00  0.00000000000E+00  0.39428415286E+03  0.39428415286E+03  0.00000000000E+00 0.  1.
          2   -1    0    0  502    0 -0.00000000000E+00 -0.00000000000E+00 -0.84010353088E+03  0.84010353088E+03  0.00000000000E+00 0.  1.
         25    1    1    2    0    0 -0.17015320393E+03  0.18169312709E+03  0.31274895319E+03  0.41880951871E+03  0.12500000000E+03 0.  0.
         21    1    1    2  503  501  0.24561948554E+02  0.12402004670E+02 -0.11019673750E+02  0.29640044639E+02  0.00000000000E+00 0.  1.
          2    1    1    2  501    0  0.14559125537E+03 -0.19409513176E+03 -0.74754865746E+03  0.78593812039E+03  0.00000000000E+00 0.  1.
<mgrwt>
<rscale>  4 0.27810699E+03</rscale>
<asrwt>0</asrwt>
<pdfrwt beam="1">  1       21 0.60659101E-01 0.27810699E+03</pdfrwt>
<pdfrwt beam="2">  1        2 0.12924670E+00 0.27810699E+03</pdfrwt>
<totfact> 0.10236696E+03</totfact>
</mgrwt>
</event>
<event>
 5    0  0.2306346E+000  0.2853782E+03  0.7546771E-02  0.1092787E+00
         21   -1    0    0  503  502  0.00000000000E+00  0.00000000000E+00  0.12249533765E+03  0.12249533765E+03  0.00000000000E+00 0.  1.
          1   -1    0    0  502    0 -0.00000000000E+00 -0.00000000000E+00 -0.14802604932E+04  0.14802604932E+04  0.00000000000E+00 0.  1.
         25    1    1    2    0    0 -0.27725574976E+03 -0.18180110581E+02 -0.21242418804E+03  0.37141661629E+03  0.12500000000E+03 0.  0.
         21    1    1    2  503  501  0.32276098168E+02 -0.47425965893E+02  0.90288640880E+00  0.57374070430E+02  0.00000000000E+00 0.  1.
          1    1    1    2  501    0  0.24497965159E+03  0.65606076474E+02 -0.11462438539E+04  0.11739651441E+04  0.00000000000E+00 0.  1.
<mgrwt>
<rscale>  4 0.28537820E+03</rscale>
<asrwt>0</asrwt>
<pdfrwt beam="1">  1       21 0.18845436E-01 0.28537820E+03</pdfrwt>
<pdfrwt beam="2">  1        1 0.22773239E+00 0.28537820E+03</pdfrwt>
<totfact> 0.20725150E+03</totfact>
</mgrwt>
</event>
<event>
 5    0  0.2306346E+000  0.2561115E+03  0.7546771E-02  0.1109502E+00
         21   -1    0    0  503  502  0.00000000000E+00  0.00000000000E+00  0.50532297889E+03  0.50532297889E+03  0.00000000000E+00 0. -1.
          2   -1    0    0  502    0 -0.00000000000E+00 -0.00000000000E+00 -0.12294845829E+04  0.12294845829E+04  0.00000000000E+00 0. -1.
         25    1    1    2    0    0 -0.24723395498E+03 -0.19498754882E+02  0.36794065508E+03  0.46098823802E+03  0.12500000000E+03 0.  0.
         21    1    1    2  503  501  0.16328348951E+03 -0.10962670976E+03 -0.28030007272E+02  0.19865848773E+03  0.00000000000E+00 0. -1.
          2    1    1    2  501    0  0.83950465468E+02  0.12912546464E+03 -0.10640722519E+04  0.10751608361E+04  0.00000000000E+00 0. -1.
<mgrwt>
<rscale>  4 0.25611151E+03</rscale>
<asrwt>0</asrwt>
<pdfrwt beam="1">  1       21 0.77741997E-01 0.25611151E+03</pdfrwt>
<pdfrwt beam="2">  1        2 0.18915147E+00 0.25611151E+03</pdfrwt>
<totfact> 0.34562726E+02</totfact>
</mgrwt>
</event>
<event>
 5    0  0.2306346E+000  0.3368750E+03  0.7546771E-02  0.1068135E+00
         21   -1    0    0  503  502  0.00000000000E+00  0.00000000000E+00  0.10588572551E+03  0.10588572551E+03  0.00000000000E+00 0. -1.
          1   -1    0    0  502    0 -0.00000000000E+00 -0.00000000000E+00 -0.17187916651E+04  0.17187916651E+04  0.00000000000E+00 0.  1.
         25    1    1    2    0    0 -0.16585930502E+03 -0.25013503148E+03 -0.25038588717E+03  0.41035951985E+03  0.12500000000E+03 0.  0.
         21    1    1    2  503  501  0.36027154692E+01 -0.20751800727E+02 -0.65350658784E+01  0.22052752168E+02  0.00000000000E+00 0.  1.
          1    1    1    2  501    0  0.16225658955E+03  0.27088683221E+03 -0.13559849866E+04  0.13922651186E+04  0.00000000000E+00 0.  1.
<mgrwt>
<rscale>  4 0.33687503E+03</rscale>
<asrwt>0</asrwt>
<pdfrwt beam="1">  1       21 0.16290112E-01 0.33687503E+03</pdfrwt>
<pdfrwt beam="2">  1        1 0.26442948E+00 0.33687503E+03</pdfrwt>
<totfact> 0.18583225E+03</totfact>
</mgrwt>
</event>
<event>
 5    0  0.2306346E+000  0.2548606E+03  0.7546771E-02  0.1110271E+00
         21   -1    0    0  503  502  0.00000000000E+00  0.00000000000E+00  0.72484695241E+03  0.72484695241E+03  0.00000000000E+00 0. -1.
          2   -1    0    0  502    0 -0.00000000000E+00 -0.00000000000E+00 -0.82679330958E+03  0.82679330958E+03  0.00000000000E+00 0. -1.
         25    1    1    2    0    0 -0.40783393220E+02 -0.22503269540E+03  0.63120778279E+03  0.68289916109E+03  0.12500000000E+03 0.  0.
         21    1    1    2  503  501  0.93349753477E+02  0.89195986866E+01  0.87816650981E+01  0.94185207739E+02  0.00000000000E+00 0. -1.
          2    1    1    2  501    0 -0.52566360257E+02  0.21611309671E+03 -0.74193580506E+03  0.77455589316E+03  0.00000000000E+00 0. -1.
<mgrwt>
<rscale>  4 0.25486059E+03</rscale>
<asrwt>0</asrwt>
<pdfrwt beam="1">  1       21 0.11151492E+00 0.25486059E+03</pdfrwt>
<pdfrwt beam="2">  1        2 0.12719897E+00 0.25486059E+03</pdfrwt>
<totfact> 0.26064185E+02</totfact>
</mgrwt>
</event>
<event>
 5    0  0.3746056E+000  0.2728548E+03  0.7546771E-02  0.1099657E+00
         21   -1    0    0  503  502  0.00000000000E+00  0.00000000000E+00  0.37242359855E+03  0.37242359855E+03  0.00000000000E+00 0. -1.
          3   -1    0    0  502    0 -0.00000000000E+00 -0.00000000000E+00 -0.12946673014E+04  0.12946673014E+04  0.00000000000E+00 0.  1.
         25    1    1    2    0    0  0.24992505358E+03  0.10427928175E+03  0.28165482248E+03  0.41023303138E+03  0.12500000000E+03 0.  0.
         21    1    1    2  503  501 -0.26211887457E+02 -0.13160789454E+02 -0.37546822582E+00  0.29332753016E+02  0.00000000000E+00 0.  1.
          3    1    1    2  501    0 -0.22371316612E+03 -0.91118492291E+02 -0.12035230571E+04  0.12275251155E+04  0.00000000000E+00 0.  1.
<mgrwt>
<rscale>  4 0.27285481E+03</rscale>
<asrwt>0</asrwt>
<pdfrwt beam="1">  1       21 0.57295939E-01 0.27285481E+03</pdfrwt>
<pdfrwt beam="2">  1        3 0.19917958E+00 0.27285481E+03</pdfrwt>
<totfact> 0.22184395E+01</totfact>
</mgrwt>
</event>
<event>
 5    0  0.2306346E+000  0.2807729E+03  0.7546771E-02  0.1095268E+00
          2   -1    0    0  502    0 -0.00000000000E+00  0.00000000000E+00  0.45683152856E+04  0.45683152856E+04  0.00000000000E+00 0.  1.
         21   -1    0    0  503  502  0.00000000000E+00 -0.00000000000E+00 -0.10228325232E+03  0.10228325232E+03  0.00000000000E+00 0.  1.
         25    1    1    2    0    0  0.12100369391E+03 -0.28411180393E+03  0.66812702035E+03  0.74657894853E+03  0.12500000000E+03 0.  0.
         21    1    1    2  503  501  0.51089220124E+01  0.73008946684E+02 -0.36467746729E+02  0.81769822866E+02  0.00000000000E+00 0.  1.
          2    1    1    2  501    0 -0.12611261592E+03  0.21110285725E+03  0.38343727597E+04  0.38422497665E+04  0.00000000000E+00 0.  1.
<mgrwt>
<rscale>  4 0.28077287E+03</rscale>
<asrwt>0</asrwt>
<pdfrwt beam="1">  1       21 0.15735888E-01 0.28077287E+03</pdfrwt>
<pdfrwt beam="2">  1        2 0.70281758E+00 0.28077287E+03</pdfrwt>
<totfact> 0.65280938E+01</totfact>
</mgrwt>
</event>
<event>
 5    0  0.2306346E+000  0.3903890E+03  0.7546771E-02  0.1047159E+00
          2   -1    0    0  502    0 -0.00000000000E+00  0.00000000000E+00  0.28789488241E+04  0.28789488241E+04  0.00000000000E+00 0. -1.
         21   -1    0    0  503  502  0.00000000000E+00 -0.00000000000E+00 -0.28457234063E+03  0.28457234063E+03  0.00000000000E+00 0. -1.
         25    1    1    2    0    0  0.20219174892E+03 -0.29451460307E+03  0.62080471854E+02  0.38353531746E+03  0.12500000000E+03 0.  0.
         21    1    1    2  503  501 -0.52522107597E+02 -0.45310282681E+02 -0.99958893649E+02  0.12166911655E+03  0.00000000000E+00 0. -1.
          2    1    1    2  501    0 -0.14966964132E+03  0.33982488575E+03  0.26322549052E+04  0.26583167307E+04  0.00000000000E+00 0. -1.
<mgrwt>
<rscale>  4 0.39038905E+03</rscale>
<asrwt>0</asrwt>
<pdfrwt beam="1">  1       21 0.43780362E-01 0.39038905E+03</pdfrwt>
<pdfrwt beam="2">  1        2 0.44291518E+00 0.39038905E+03</pdfrwt>
<totfact> 0.14100366E+02</totfact>
</mgrwt>
</event>
<event>
 5    0  0.2306346E+000  0.2228199E+03  0.7546771E-02  0.1131798E+00
          2   -1    0    0  502    0 -0.00000000000E+00  0.00000000000E+00  0.14657345049E+04  0.14657345049E+04  0.00000000000E+00 0.  1.
         21   -1    0    0  503  502  0.00000000000E+00 -0.00000000000E+00 -0.24404593160E+03  0.24404593160E+03  0.00000000000E+00 0. -1.
         25    1    1    2    0    0 -0.21000472052E+03 -0.21805957720E+03 -0.54862319784E+02  0.33209461902E+03  0.12500000000E+03 0.  0.
         21    1    1    2  503  501  0.91311787433E+02  0.82129852760E+02  0.41671573520E+02  0.12969069079E+03  0.00000000000E+00 0. -1.
          2    1    1    2  501    0  0.11869293309E+03  0.13592972444E+03  0.12348793196E+04  0.12479951267E+04  0.00000000000E+00 0.  1.
<mgrwt>
<rscale>  4 0.22281992E+03</rscale>
<asrwt>0</asrwt>
<pdfrwt beam="1">  1       21 0.37545529E-01 0.22281992E+03</pdfrwt>
<pdfrwt beam="2">  1        2 0.22549761E+00 0.22281992E+03</pdfrwt>
<totfact> 0.12297535E+03</totfact>
</mgrwt>
</event>
<event>
 5    0  0.2306346E+000  0.4445814E+03  0.7546771E-02  0.1029350E+00
          2   -1    0    0  502    0 -0.00000000000E+00  0.00000000000E+00  0.33537697523E+03  0.33537697523E+03  0.00000000000E+00 0. -1.
         21   -1    0    0  503  502  0.00000000000E+00 -0.00000000000E+00 -0.13131622548E+04  0.13131622548E+04  0.00000000000E+00 0.  1.
         25    1    1    2    0    0  0.33953337869E+03  0.29244856373E+03 -0.39106410882E+03  0.60775423888E+03  0.12500000000E+03 0.  0.
         21    1    1    2  503  501 -0.55827199322E+02  0.16041801620E+02 -0.61779705141E+03  0.62052172590E+03  0.00000000000E+00 0.  1.
          2    1    1    2  501    0 -0.28370617937E+03 -0.30849036535E+03  0.31075880712E+02  0.42026326521E+03  0.00000000000E+00 0. -1.
<mgrwt>
<rscale>  4 0.44458139E+03</rscale>
<asrwt>0</asrwt>
<pdfrwt beam="1">  1       21 0.20202496E+00 0.44458139E+03</pdfrwt>
<pdfrwt beam="2">  1        2 0.51596458E-01 0.44458139E+03</pdfrwt>
<totfact> 0.13568308E+02</totfact>
</mgrwt>
</event>
<event>
 5    0  0.2306346E+000  0.2545044E+03  0.7546771E-02  0.1110491E+00
          2   -1    0    0  502    0 -0.00000000000E+00  0.00000000000E+00  0.16888608070E+04  0.16888608070E+04  0.00000000000E+00 0.  1.
         21   -1    0    0  503  502  0.00000000000E+00 -0.00000000000E+00 -0.13830657319E+03  0.13830657319E+03  0.00000000000E+00 0.  1.
         25    1    1    2    0    0 -0.28391895092E+03  0.16218684181E+03  0.47213662529E+03  0.58775210361E+03  0.12500000000E+03 0.  0.
         21    1    1    2  503  501  0.16709400779E+03 -0.10357335683E+03  0.50166620796E+02  0.20289045696E+03  0.00000000000E+00 0.  1.
          2    1    1    2  501    0  0.11682494313E+03 -0.58613484975E+02  0.10282509877E+04  0.10365248196E+04  0.00000000000E+00 0.  1.
<mgrwt>
<rscale>  4 0.25450443E+03</rscale>
<asrwt>0</asrwt>
<pdfrwt beam="1">  1       21 0.21277935E-01 0.25450443E+03</pdfrwt>
<pdfrwt beam="2">  1        2 0.25982473E+00 0.25450443E+03</pdfrwt>
<totfact> 0.27870842E+03</totfact>
</mgrwt>
</event>
<event>
 5    0  0.2306346E+000  0.3691010E+03  0.7546771E-02  0.1055037E+00
          2   -1    0    0  502    0 -0.00000000000E+00  0.00000000000E+00  0.71743689135E+03  0.71743689135E+03  0.00000000000E+00 0.  1.
         21   -1    0    0  503  502  0.00000000000E+00 -0.00000000000E+00 -0.18236254392E+04  0.18236254392E+04  0.00000000000E+00 0.  1.
         25    1    1    2    0    0 -0.47403873889E+03 -0.16570065321E+03 -0.33402783617E+03  0.61592940162E+03  0.12500000000E+03 0.  0.
         21    1    1    2  503  501  0.14388539617E+03  0.12619189098E+03 -0.12930640534E+04  0.13071503535E+04  0.00000000000E+00 0.  1.
          2    1    1    2  501    0  0.33015334273E+03  0.39508762228E+02  0.52090334174E+03  0.61798257536E+03  0.00000000000E+00 0.  1.
<mgrwt>
<rscale>  4 0.36910104E+03</rscale>
<asrwt>0</asrwt>
<pdfrwt beam="1">  1       21 0.28055776E+00 0.36910104E+03</pdfrwt>
<pdfrwt beam="2">  1        2 0.11037491E+00 0.36910104E+03</pdfrwt>
<totfact> 0.19158331E+01</totfact>
</mgrwt>
</event>
<event>
 5    0  0.2306346E+000  0.2501511E+03  0.7546771E-02  0.1113209E+00
          2   -1    0    0  502    0 -0.00000000000E+00  0.00000000000E+00  0.11436170780E+04  0.11436170780E+04  0.00000000000E+00 0.  1.
         21   -1    0    0  503  502  0.00000000000E+00 -0.00000000000E+00 -0.55394336688E+03  0.55394336688E+03  0.00000000000E+00 0.  1.
         25    1    1    2    0    0 -0.31807940944E+03  0.21222164593E+03 -0.11346355019E+03  0.41798506544E+03  0.12500000000E+03 0.  0.
         21    1    1    2  503  501  0.10999450924E+03 -0.17846118378E+03 -0.23681571339E+03  0.31627340749E+03  0.00000000000E+00 0.  1.
          2    1    1    2  501    0  0.20808490019E+03 -0.33760462151E+02  0.93995297469E+03  0.96330197193E+03  0.00000000000E+00 0.  1.
<mgrwt>
<rscale>  4 0.25015113E+03</rscale>
<asrwt>0</asrwt>
<pdfrwt beam="1">  1       21 0.85222057E-01 0.25015113E+03</pdfrwt>
<pdfrwt beam="2">  1        2 0.17594109E+00 0.25015113E+03</pdfrwt>
<totfact> 0.31476930E+02</totfact>
</mgrwt>
</event>
<event>
 5    0  0.2306346E+000  0.2330859E+03  0.7546771E-02  0.1124486E+00
         21   -1    0    0  503  502  0.00000000000E+00  0.00000000000E+00  0.29365376482E+03  0.29365376482E+03  0.00000000000E+00 0. -1.
          2   -1    0    0  502    0 -0.00000000000E+00 -0.00000000000E+00 -0.23315189653E+03  0.23315189653E+03  0.00000000000E+00 0. -1.
         25    1    1    2    0    0 -0.70439685427E+02  0.20508699599E+03  0.11578817942E+03  0.27577949108E+03  0.12500000000E+03 0.  0.
         21    1    1    2  503  501 -0.10295987140E+02 -0.32446819750E+02  0.26986801130E+02  0.43440659506E+02  0.00000000000E+00 0. -1.
          2    1    1    2  501    0  0.80735672568E+02 -0.17264017624E+03 -0.82273112255E+02  0.20758551076E+03  0.00000000000E+00 0. -1.
<mgrwt>
<rscale>  4 0.23308592E+03</rscale>
<asrwt>0</asrwt>
<pdfrwt beam="1">  1       21 0.45177503E-01 0.23308592E+03</pdfrwt>
<pdfrwt beam="2">  1        2 0.35869522E-01 0.23308592E+03</pdfrwt>
<totfact> 0.82810014E+03</totfact>
</mgrwt>
</event>
<event>
 5    0  0.2306346E+000  0.2912385E+03  0.7546771E-02  0.1089704E+00
         21   -1    0    0  503  502  0.00000000000E+00  0.00000000000E+00  0.10744269513E+03  0.10744269513E+03  0.00000000000E+00 0.  1.
          2   -1    0    0  502    0 -0.00000000000E+00 -0.00000000000E+00 -0.93911877315E+03  0.93911877315E+03  0.00000000000E+00 0.  1.
         25    1    1    2    0    0 -0.20651263132E+03  0.13543605614E+03 -0.46213932239E+03  0.53869114110E+03  0.12500000000E+03 0.  0.
         21    1    1    2  503  501 -0.23398972450E+02  0.29812171561E+02  0.51385665722E+01  0.38245030414E+02  0.00000000000E+00 0. -1.
          2    1    1    2  501    0  0.22991160377E+03 -0.16524822770E+03 -0.37467532220E+03  0.46962529678E+03  0.00000000000E+00 0.  1.
<mgrwt>
<rscale>  4 0.29123848E+03</rscale>
<asrwt>0</asrwt>
<pdfrwt beam="1">  1       21 0.16529646E-01 0.29123848E+03</pdfrwt>
<pdfrwt beam="2">  1        2 0.14447981E+00 0.29123848E+03</pdfrwt>
<totfact> 0.11674825E+04</totfact>
</mgrwt>
</event>
<event>
 5    0  0.2306346E+000  0.2752298E+03  0.7546771E-02  0.1098323E+00
          2   -1    0    0  502    0 -0.00000000000E+00  0.00000000000E+00  0.23554076980E+04  0.23554076980E+04  0.00000000000E+00 0. -1.
         21   -1    0    0  503  502  0.00000000000E+00 -0.00000000000E+00 -0.27579169635E+03  0.27579169635E+03  0.00000000000E+00 0. -1.
         25    1    1    2    0    0  0.11542054669E+03  0.20131420791E+03 -0.13093027810E+03  0.29430774816E+03  0.12500000000E+03 0.  0.
         21    1    1    2  503  501  0.55543705828E+02 -0.24656328306E+02 -0.40132585049E+02  0.72826246405E+02  0.00000000000E+00 0. -1.
          2    1    1    2  501    0 -0.17096425252E+03 -0.17665787960E+03  0.22506788648E+04  0.22640653997E+04  0.00000000000E+00 0. -1.
<mgrwt>
<rscale>  4 0.27522984E+03</rscale>
<asrwt>0</asrwt>
<pdfrwt beam="1">  1       21 0.42429493E-01 0.27522984E+03</pdfrwt>
<pdfrwt beam="2">  1        2 0.36237040E+00 0.27522984E+03</pdfrwt>
<totfact> 0.31519884E+02</totfact>
</mgrwt>
</event>
<event>
 5    0  0.2306346E+000  0.4275814E+03  0.7546771E-02  0.1034627E+00
         21   -1    0    0  503  502  0.00000000000E+00  0.00000000000E+00  0.12763219229E+04  0.12763219229E+04  0.00000000000E+00 0. -1.
          2   -1    0    0  502    0 -0.00000000000E+00 -0.00000000000E+00 -0.91385072097E+03  0.91385072097E+03  0.00000000000E+00 0.  1.
         25    1    1    2    0    0  0.35806095970E+03  0.10593446241E+03  0.19806650843E+03  0.44077783855E+03  0.12500000000E+03 0.  0.
         21    1    1    2  503  501  0.32729383303E+02  0.33829591126E+02  0.90190567366E+03  0.90313315627E+03  0.00000000000E+00 0. -1.
          2    1    1    2  501    0 -0.39079034301E+03 -0.13976405354E+03 -0.73750098018E+03  0.84626164903E+03  0.00000000000E+00 0.  1.
<mgrwt>
<rscale>  4 0.42758138E+03</rscale>
<asrwt>0</asrwt>
<pdfrwt beam="1">  1       21 0.19635722E+00 0.42758138E+03</pdfrwt>
<pdfrwt beam="2">  1        2 0.14059242E+00 0.42758138E+03</pdfrwt>
<totfact> 0.45267054E+01</totfact>
</mgrwt>
</event>
<event>
 5    0  0.2306346E+000  0.3049625E+03  0.7546771E-02  0.1082786E+00
         21   -1    0    0  503  502  0.00000000000E+00  0.00000000000E+00  0.71218046311E+03  0.71218046311E+03  0.00000000000E+00 0.  1.
          1   -1    0    0  502    0 -0.00000000000E+00 -0.00000000000E+00 -0.42990846734E+04  0.42990846734E+04  0.00000000000E+00 0. -1.
         25    1    1    2    0    0 -0.11009064131E+03  0.23574320980E+03  0.36947361672E+02  0.29100673155E+03  0.12500000000E+03 0.  0.
         21    1    1    2  503  501  0.19172452066E+02  0.27728361938E+02  0.54302515210E+03  0.54407054762E+03  0.00000000000E+00 0.  1.
          1    1    1    2  501    0  0.90918189247E+02 -0.26347157174E+03 -0.41668767240E+04  0.41761878573E+04  0.00000000000E+00 0. -1.
<mgrwt>
<rscale>  4 0.30496248E+03</rscale>
<asrwt>0</asrwt>
<pdfrwt beam="1">  1       21 0.10956623E+00 0.30496248E+03</pdfrwt>
<pdfrwt beam="2">  1        1 0.66139764E+00 0.30496248E+03</pdfrwt>
<totfact> 0.46166040E-01</totfact>
</mgrwt>
</event>
<event>
 5    0  0.2306346E+000  0.2354779E+03  0.7546771E-02  0.1122843E+00
         21   -1    0    0  503  502  0.00000000000E+00  0.00000000000E+00  0.45249971179E+03  0.45249971179E+03  0.00000000000E+00 0. -1.
          1   -1    0    0  502    0 -0.00000000000E+00 -0.00000000000E+00 -0.25880257878E+04  0.25880257878E+04  0.00000000000E+00 0. -1.
         25    1    1    2    0    0 -0.21284112596E+03  0.25655302619E+03  0.67530850710E+02  0.36236199573E+03  0.12500000000E+03 0.  0.
         21    1    1    2  503  501  0.13480505024E+03 -0.10687122813E+03  0.20305930887E+03  0.26613331977E+03  0.00000000000E+00 0. -1.
          1    1    1    2  501    0  0.78036075721E+02 -0.14968179806E+03 -0.24061162356E+04  0.24120301841E+04  0.00000000000E+00 0. -1.
<mgrwt>
<rscale>  4 0.23547786E+03</rscale>
<asrwt>0</asrwt>
<pdfrwt beam="1">  1       21 0.69615339E-01 0.23547786E+03</pdfrwt>
<pdfrwt beam="2">  1        1 0.39815782E+00 0.23547786E+03</pdfrwt>
<totfact> 0.28697790E+01</totfact>
</mgrwt>
</event>
<event>
 5    0  0.2306346E+000  0.2229605E+03  0.7546771E-02  0.1131695E+00
         21   -1    0    0  501  502  0.00000000000E+00  0.00000000000E+00  0.16454255493E+03  0.16454255493E+03  0.00000000000E+00 0. -1.
         -3   -1    0    0    0  501 -0.00000000000E+00 -0.00000000000E+00 -0.43564611413E+03  0.43564611413E+03  0.00000000000E+00 0. -1.
         25    1    1    2    0    0 -0.14003606216E+03  0.14649499860E+03 -0.12169903043E+03  0.26740706297E+03  0.12500000000E+03 0.  0.
         21    1    1    2  503  502  0.10324448770E+02 -0.26626730730E+02  0.55407792411E+02  0.62334585036E+02  0.00000000000E+00 0. -1.
         -3    1    1    2    0  503  0.12971161339E+03 -0.11986826787E+03 -0.20481232118E+03  0.27044702106E+03  0.00000000000E+00 0. -1.
<mgrwt>
<rscale>  4 0.22296054E+03</rscale>
<asrwt>0</asrwt>
<pdfrwt beam="1">  1       21 0.25314239E-01 0.22296054E+03</pdfrwt>
<pdfrwt beam="2">  1       -3 0.67022479E-01 0.22296054E+03</pdfrwt>
<totfact> 0.15920117E+03</totfact>
</mgrwt>
</event>
<event>
 5    0  0.2306346E+000  0.2213635E+03  0.7546771E-02  0.1132871E+00
         -1   -1    0    0    0  501 -0.00000000000E+00  0.00000000000E+00  0.86344923561E+03  0.86344923561E+03  0.00000000000E+00 0. -1.
         21   -1    0    0  501  502  0.00000000000E+00 -0.00000000000E+00 -0.11641577659E+03  0.11641577659E+03  0.00000000000E+00 0. -1.
         25    1    1    2    0    0  0.67787935752E+02  0.18985566530E+03  0.12233566414E+03  0.26689209918E+03  0.12500000000E+03 0.  0.
         21    1    1    2  503  502  0.17808754326E+02 -0.31715405101E+02 -0.21479353141E+02  0.42241937251E+02  0.00000000000E+00 0.  1.
         -1    1    1    2    0  503 -0.85596690077E+02 -0.15814026020E+03  0.64617714801E+03  0.67073097577E+03  0.00000000000E+00 0. -1.
<mgrwt>
<rscale>  4 0.22136351E+03</rscale>
<asrwt>0</asrwt>
<pdfrwt beam="1">  1       21 0.17910120E-01 0.22136351E+03</pdfrwt>
<pdfrwt beam="2">  1       -1 0.13283834E+00 0.22136351E+03</pdfrwt>
<totfact> 0.13669466E+03</totfact>
</mgrwt>
</event>
<event>
 5    0  0.2306346E+000  0.2299019E+03  0.7546771E-02  0.1126709E+00
          2   -1    0    0  502    0 -0.00000000000E+00  0.00000000000E+00  0.21270716675E+03  0.21270716675E+03  0.00000000000E+00 0. -1.
         21   -1    0    0  503  502  0.00000000000E+00 -0.00000000000E+00 -0.73440190999E+03  0.73440190999E+03  0.00000000000E+00 0.  1.
         25    1    1    2    0    0 -0.22410289291E+03 -0.15498402090E+03 -0.26977459293E+03  0.40329329815E+03  0.12500000000E+03 0.  0.
         21    1    1    2  503  501  0.75110960447E+02  0.55161966910E+02 -0.33387490061E+03  0.34663662274E+03  0.00000000000E+00 0.  1.
          2    1    1    2  501    0  0.14899193247E+03  0.99822053992E+02  0.81954750292E+02  0.19717915584E+03  0.00000000000E+00 0. -1.
<mgrwt>
<rscale>  4 0.22990186E+03</rscale>
<asrwt>0</asrwt>
<pdfrwt beam="1">  1       21 0.11298491E+00 0.22990186E+03</pdfrwt>
<pdfrwt beam="2">  1        2 0.32724179E-01 0.22990186E+03</pdfrwt>
<totfact> 0.11807690E+03</totfact>
</mgrwt>
</event>
<event>
 5    0  0.2306346E+000  0.3524647E+03  0.7546771E-02  0.1061608E+00
         21   -1    0    0  503  502  0.00000000000E+00  0.00000000000E+00  0.89790902514E+03  0.89790902514E+03  0.00000000000E+00 0.  1.
          2   -1    0    0  502    0 -0.00000000000E+00 -0.00000000000E+00 -0.13037891861E+04  0.13037891861E+04  0.00000000000E+00 0. -1.
         25    1    1    2    0    0 -0.36195059081E+03 -0.11145304238E+03 -0.91992952155E+03  0.10026591322E+04  0.12500000000E+03 0.  0.
         21    1    1    2  503  501  0.32773568690E+03  0.18894722598E+02  0.81696564582E+03  0.88045474470E+03  0.00000000000E+00 0.  1.
          2    1    1    2  501    0  0.34214903909E+02  0.92558319782E+02 -0.30291628526E+03  0.31858433434E+03  0.00000000000E+00 0. -1.
<mgrwt>
<rscale>  4 0.35246472E+03</rscale>
<asrwt>0</asrwt>
<pdfrwt beam="1">  1       21 0.13813985E+00 0.35246472E+03</pdfrwt>
<pdfrwt beam="2">  1        2 0.20058295E+00 0.35246472E+03</pdfrwt>
<totfact> 0.73703023E+01</totfact>
</mgrwt>
</event>
<event>
 5    0  0.2306346E+000  0.2632268E+03  0.7546771E-02  0.1105220E+00
         21   -1    0    0  503  502  0.00000000000E+00  0.00000000000E+00  0.20874852272E+03  0.20874852272E+03  0.00000000000E+00 0.  1.
          1   -1    0    0  502    0 -0.00000000000E+00 -0.00000000000E+00 -0.91780991012E+03  0.91780991012E+03  0.00000000000E+00 0.  1.
         25    1    1    2    0    0  0.25258182806E+03 -0.27843509040E+02  0.70175437977E+02  0.29175748998E+03  0.12500000000E+03 0.  0.
         21    1    1    2  503  501 -0.23584356848E+02  0.11188060054E+02 -0.41619285014E+01  0.26433240902E+02  0.00000000000E+00 0.  1.
          1    1    1    2  501    0 -0.22899747122E+03  0.16655448986E+02 -0.77507489688E+03  0.80836770196E+03  0.00000000000E+00 0.  1.
<mgrwt>
<rscale>  4 0.26322684E+03</rscale>
<asrwt>0</asrwt>
<pdfrwt beam="1">  1       21 0.32115158E-01 0.26322684E+03</pdfrwt>
<pdfrwt beam="2">  1        1 0.14120152E+00 0.26322684E+03</pdfrwt>
<totfact> 0.18763555E+03</totfact>
</mgrwt>
</event>
<event>
 5    0  0.2306346E+000  0.2894714E+03  0.7546771E-02  0.1090625E+00
         -1   -1    0    0    0  501 -0.00000000000E+00  0.00000000000E+00  0.14156387293E+04  0.14156387293E+04  0.00000000000E+00 0. -1.
         21   -1    0    0  501  502  0.00000000000E+00 -0.00000000000E+00 -0.11869676146E+04  0.11869676146E+04  0.00000000000E+00 0.  1.
         25    1    1    2    0    0 -0.16097056777E+03 -0.17736627180E+03 -0.66764288975E+03  0.72023770125E+03  0.12500000000E+03 0.  0.
         21    1    1    2  503  502 -0.25584701249E+01 -0.26670367555E+02 -0.48034761305E+03  0.48109425650E+03  0.00000000000E+00 0.  1.
         -1    1    1    2    0  503  0.16352903789E+03  0.20403663936E+03  0.13766616174E+04  0.14012743862E+04  0.00000000000E+00 0. -1.
<mgrwt>
<rscale>  4 0.28947140E+03</rscale>
<asrwt>0</asrwt>
<pdfrwt beam="1">  1       21 0.18261040E+00 0.28947140E+03</pdfrwt>
<pdfrwt beam="2">  1       -1 0.21779057E+00 0.28947140E+03</pdfrwt>
<totfact> 0.19218960E+00</totfact>
</mgrwt>
</event>
<event>
 5    0  0.2306346E+000  0.2570049E+03  0.7546771E-02  0.1108956E+00
          2   -1    0    0  502    0 -0.00000000000E+00  0.00000000000E+00  0.80478460312E+03  0.80478460312E+03  0.00000000000E+00 0. -1.
         21   -1    0    0  503  502  0.00000000000E+00 -0.00000000000E+00 -0.28504791294E+03  0.28504791294E+03  0.00000000000E+00 0.  1.
         25    1    1    2    0    0 -0.16073368617E+03 -0.13456868707E+03 -0.50366586358E+02  0.24921043804E+03  0.12500000000E+03 0.  0.
         21    1    1    2  503  501 -0.49977510009E+02  0.48708605984E+02 -0.10619545013E+03  0.12707381096E+03  0.00000000000E+00 0. -1.
          2    1    1    2  501    0  0.21071119617E+03  0.85860081086E+02  0.67629872667E+03  0.71354826705E+03  0.00000000000E+00 0. -1.
<mgrwt>
<rscale>  4 0.25700491E+03</rscale>
<asrwt>0</asrwt>
<pdfrwt beam="1">  1       21 0.43853525E-01 0.25700491E+03</pdfrwt>
<pdfrwt beam="2">  1        2 0.12381301E+00 0.25700491E+03</pdfrwt>
<totfact> 0.21655102E+03</totfact>
</mgrwt>
</event>
<event>
 5    0  0.2306346E+000  0.2401714E+03  0.7546771E-02  0.1119679E+00
          2   -1    0    0  502    0 -0.00000000000E+00  0.00000000000E+00  0.28675476526E+04  0.28675476526E+04  0.00000000000E+00 0. -1.
         21   -1    0    0  503  502  0.00000000000E+00 -0.00000000000E+00 -0.47347334655E+02  0.47347334655E+02  0.00000000000E+00 0. -1.
         25    1    1    2    0    0 -0.11004910794E+03  0.19683839493E+03  0.14428689650E+04  0.14657257622E+04  0.12500000000E+03 0.  0.
         21    1    1    2  503  501  0.24741310619E+02 -0.23395351589E+02 -0.19357928663E+02  0.39168920450E+02  0.00000000000E+00 0. -1.
          2    1    1    2  501    0  0.85307797317E+02 -0.17344304335E+03  0.13966892816E+04  0.14100003045E+04  0.00000000000E+00 0. -1.
<mgrwt>
<rscale>  4 0.24017145E+03</rscale>
<asrwt>0</asrwt>
<pdfrwt beam="1">  1       21 0.72842076E-02 0.24017145E+03</pdfrwt>
<pdfrwt beam="2">  1        2 0.44116104E+00 0.24017145E+03</pdfrwt>
<totfact> 0.45073260E+03</totfact>
</mgrwt>
</event>
<event>
 5    0  0.2306346E+000  0.2560256E+03  0.7546771E-02  0.1109555E+00
         21   -1    0    0  503  502  0.00000000000E+00  0.00000000000E+00  0.64670504517E+02  0.64670504517E+02  0.00000000000E+00 0.  1.
          1   -1    0    0  502    0 -0.00000000000E+00 -0.00000000000E+00 -0.21634466284E+04  0.21634466284E+04  0.00000000000E+00 0.  1.
         25    1    1    2    0    0  0.16347484059E+03 -0.20093202917E+03 -0.67044384543E+03  0.72953248984E+03  0.12500000000E+03 0.  0.
         21    1    1    2  503  501 -0.10353202099E+03 -0.81877647857E+01 -0.75563332436E+02  0.12843572740E+03  0.00000000000E+00 0.  1.
          1    1    1    2  501    0 -0.59942819593E+02  0.20911979395E+03 -0.13527689460E+04  0.13701489157E+04  0.00000000000E+00 0.  1.
<mgrwt>
<rscale>  4 0.25602561E+03</rscale>
<asrwt>0</asrwt>
<pdfrwt beam="1">  1       21 0.99493085E-02 0.25602561E+03</pdfrwt>
<pdfrwt beam="2">  1        1 0.33283794E+00 0.25602561E+03</pdfrwt>
<totfact> 0.24044947E+03</totfact>
</mgrwt>
</event>
<event>
 5    0  0.2306346E+000  0.2373966E+03  0.7546771E-02  0.1121539E+00
         21   -1    0    0  503  502  0.00000000000E+00  0.00000000000E+00  0.12259686509E+03  0.12259686509E+03  0.00000000000E+00 0. -1.
          3   -1    0    0  502    0 -0.00000000000E+00 -0.00000000000E+00 -0.52644093325E+03  0.52644093325E+03  0.00000000000E+00 0. -1.
         25    1    1    2    0    0  0.16490991557E+03  0.14561495066E+03 -0.21375459542E+03  0.33123257867E+03  0.12500000000E+03 0.  0.
         21    1    1    2  503  501 -0.12535806211E+02 -0.31225764024E+02  0.15893995991E+02  0.37213087547E+02  0.00000000000E+00 0.  1.
          3    1    1    2  501    0 -0.15237410936E+03 -0.11438918664E+03 -0.20598346873E+03  0.28059213213E+03  0.00000000000E+00 0. -1.
<mgrwt>
<rscale>  4 0.23739655E+03</rscale>
<asrwt>0</asrwt>
<pdfrwt beam="1">  1       21 0.18861057E-01 0.23739655E+03</pdfrwt>
<pdfrwt beam="2">  1        3 0.80990911E-01 0.23739655E+03</pdfrwt>
<totfact> 0.18466199E+03</totfact>
</mgrwt>
</event>
<event>
 5    0  0.2306346E+000  0.2081992E+03  0.7546771E-02  0.1143000E+00
          2   -1    0    0  502    0 -0.00000000000E+00  0.00000000000E+00  0.49154719836E+04  0.49154719836E+04  0.00000000000E+00 0. -1.
         21   -1    0    0  503  502  0.00000000000E+00 -0.00000000000E+00 -0.12910361774E+03  0.12910361774E+03  0.00000000000E+00 0. -1.
         25    1    1    2    0    0 -0.25107549296E+03 -0.43352086904E+02  0.24495788838E+04  0.24659643174E+04  0.12500000000E+03 0.  0.
         21    1    1    2  503  501  0.16262267248E+03  0.24625009571E+02 -0.63728540946E+02  0.17639118922E+03  0.00000000000E+00 0. -1.
          2    1    1    2  501    0  0.88452820472E+02  0.18727077333E+02  0.24005180230E+04  0.24022200947E+04  0.00000000000E+00 0. -1.
<mgrwt>
<rscale>  4 0.20819917E+03</rscale>
<asrwt>0</asrwt>
<pdfrwt beam="1">  1       21 0.19862099E-01 0.20819917E+03</pdfrwt>
<pdfrwt beam="2">  1        2 0.75622632E+00 0.20819917E+03</pdfrwt>
<totfact> 0.19915474E+01</totfact>
</mgrwt>
</event>
<event>
 5    0  0.2306346E+000  0.2596313E+03  0.7546771E-02  0.1107365E+00
         21   -1    0    0  503  502  0.00000000000E+00  0.00000000000E+00  0.24544745580E+03  0.24544745580E+03  0.00000000000E+00 0.  1.
          2   -1    0    0  502    0 -0.00000000000E+00 -0.00000000000E+00 -0.10644913629E+04  0.10644913629E+04  0.00000000000E+00 0.  1.
         25    1    1    2    0    0  0.91952702380E+01  0.29500398878E+03 -0.32029335640E+03  0.45312773094E+03  0.12500000000E+03 0.  0.
         21    1    1    2  503  501 -0.22486287919E+02 -0.21492468862E+03  0.11013056791E+03  0.24254277336E+03  0.00000000000E+00 0.  1.
          2    1    1    2  501    0  0.13291017681E+02 -0.80079300165E+02 -0.60888111862E+03  0.61426831441E+03  0.00000000000E+00 0.  1.
<mgrwt>
<rscale>  4 0.25963127E+03</rscale>
<asrwt>0</asrwt>
<pdfrwt beam="1">  1       21 0.37761147E-01 0.25963127E+03</pdfrwt>
<pdfrwt beam="2">  1        2 0.16376790E+00 0.25963127E+03</pdfrwt>
<totfact> 0.20045584E+03</totfact>
</mgrwt>
</event>
<event>
 5    0  0.2306346E+000  0.2550745E+03  0.7546771E-02  0.1110139E+00
          1   -1    0    0  502    0 -0.00000000000E+00  0.00000000000E+00  0.87767242592E+03  0.87767242592E+03  0.00000000000E+00 0.  1.
         21   -1    0    0  503  502  0.00000000000E+00 -0.00000000000E+00 -0.52036741861E+03  0.52036741861E+03  0.00000000000E+00 0.  1.
         25    1    1    2    0    0  0.21263223233E+02 -0.25161601856E+03 -0.39410094414E+03  0.48446186602E+03  0.12500000000E+03 0.  0.
         21    1    1    2  503  501  0.59982488733E+02  0.45383541608E+02 -0.44491781477E+02  0.87390408069E+02  0.00000000000E+00 0. -1.
          1    1    1    2  501    0 -0.81245711966E+02  0.20623247695E+03  0.79589773293E+03  0.82618757044E+03  0.00000000000E+00 0.  1.
<mgrwt>
<rscale>  4 0.25507453E+03</rscale>
<asrwt>0</asrwt>
<pdfrwt beam="1">  1       21 0.80056526E-01 0.25507453E+03</pdfrwt>
<pdfrwt beam="2">  1        1 0.13502653E+00 0.25507453E+03</pdfrwt>
<totfact> 0.29403846E+02</totfact>
</mgrwt>
</event>
<event>
 5    0  0.2306346E+000  0.3093416E+03  0.7546771E-02  0.1080662E+00
         21   -1    0    0  503  502  0.00000000000E+00  0.00000000000E+00  0.65482811640E+03  0.65482811640E+03  0.00000000000E+00 0. -1.
          1   -1    0    0  502    0 -0.00000000000E+00 -0.00000000000E+00 -0.14470596657E+04  0.14470596657E+04  0.00000000000E+00 0.  1.
         25    1    1    2    0    0  0.41250933402E+02 -0.33644653540E+03  0.26747835143E+03  0.44951927564E+03  0.12500000000E+03 0.  0.
         21    1    1    2  503  501 -0.78783216374E+01  0.57750071497E+02  0.27875794061E+03  0.28478610949E+03  0.00000000000E+00 0. -1.
          1    1    1    2  501    0 -0.33372611765E+02  0.27869646390E+03 -0.13384678413E+04  0.13675823969E+04  0.00000000000E+00 0.  1.
<mgrwt>
<rscale>  4 0.30934161E+03</rscale>
<asrwt>0</asrwt>
<pdfrwt beam="1">  1       21 0.10074279E+00 0.30934161E+03</pdfrwt>
<pdfrwt beam="2">  1        1 0.22262456E+00 0.30934161E+03</pdfrwt>
<totfact> 0.64959162E+01</totfact>
</mgrwt>
</event>
<event>
 5    0  0.2306346E+000  0.4004932E+03  0.7546771E-02  0.1043609E+00
         21   -1    0    0  503  502  0.00000000000E+00  0.00000000000E+00  0.21524339712E+03  0.21524339712E+03  0.00000000000E+00 0. -1.
          2   -1    0    0  502    0 -0.00000000000E+00 -0.00000000000E+00 -0.24322943754E+04  0.24322943754E+04  0.00000000000E+00 0.  1.
         25    1    1    2    0    0  0.17007733356E+03 -0.43950384773E+03 -0.57008121935E+03  0.75013833938E+03  0.12500000000E+03 0.  0.
         21    1    1    2  503  501 -0.91977970770E+02  0.85710381403E+02  0.69126488117E+02  0.14347364896E+03  0.00000000000E+00 0. -1.
          2    1    1    2  501    0 -0.78099362789E+02  0.35379346633E+03 -0.17160962471E+04  0.17539257842E+04  0.00000000000E+00 0.  1.
<mgrwt>
<rscale>  4 0.40049320E+03</rscale>
<asrwt>0</asrwt>
<pdfrwt beam="1">  1       21 0.33114369E-01 0.40049320E+03</pdfrwt>
<pdfrwt beam="2">  1        2 0.37419914E+00 0.40049320E+03</pdfrwt>
<totfact> 0.44497783E+02</totfact>
</mgrwt>
</event>
<event>
 5    0  0.2306346E+000  0.3526890E+03  0.7546771E-02  0.1061517E+00
          2   -1    0    0  502    0 -0.00000000000E+00  0.00000000000E+00  0.35364169143E+04  0.35364169143E+04  0.00000000000E+00 0.  1.
         21   -1    0    0  503  502  0.00000000000E+00 -0.00000000000E+00 -0.76242928610E+02  0.76242928610E+02  0.00000000000E+00 0.  1.
         25    1    1    2    0    0  0.20420491537E+03  0.32314674367E+03  0.60855448975E+03  0.72944296035E+03  0.12500000000E+03 0.  0.
         21    1    1    2  503  501 -0.37487482831E+02 -0.48190035806E+02  0.14179008617E+03  0.15437622698E+03  0.00000000000E+00 0.  1.
          2    1    1    2  501    0 -0.16671743254E+03 -0.27495670786E+03  0.27098294098E+04  0.27288406556E+04  0.00000000000E+00 0.  1.
<mgrwt>
<rscale>  4 0.35268898E+03</rscale>
<asrwt>0</asrwt>
<pdfrwt beam="1">  1       21 0.11729684E-01 0.35268898E+03</pdfrwt>
<pdfrwt beam="2">  1        2 0.54406401E+00 0.35268898E+03</pdfrwt>
<totfact> 0.70411389E+02</totfact>
</mgrwt>
</event>
<event>
 5    0  0.2306346E+000  0.1884915E+03  0.7546771E-02  0.1159829E+00
          2   -1    0    0  502    0 -0.00000000000E+00  0.00000000000E+00  0.19012137904E+04  0.19012137904E+04  0.00000000000E+00 0.  1.
         21   -1    0    0  503  502  0.00000000000E+00 -0.00000000000E+00 -0.26246362689E+03  0.26246362689E+03  0.00000000000E+00 0.  1.
         25    1    1    2    0    0  0.16718964055E+03  0.12311280843E+03 -0.49842054937E+02  0.24742346281E+03  0.12500000000E+03 0.  0.
         21    1    1    2  503  501 -0.87132427399E+02 -0.81996657653E+01 -0.93846460488E+02  0.12832167615E+03  0.00000000000E+00 0.  1.
          2    1    1    2  501    0 -0.80057213147E+02 -0.11491314267E+03  0.17824386790E+04  0.17879322784E+04  0.00000000000E+00 0.  1.
<mgrwt>
<rscale>  4 0.18849151E+03</rscale>
<asrwt>0</asrwt>
<pdfrwt beam="1">  1       21 0.40379021E-01 0.18849151E+03</pdfrwt>
<pdfrwt beam="2">  1        2 0.29249442E+00 0.18849151E+03</pdfrwt>
<totfact> 0.64284272E+02</totfact>
</mgrwt>
</event>
<event>
 5    0  0.2306346E+000  0.3005863E+03  0.7546771E-02  0.1084948E+00
          2   -1    0    0  502    0 -0.00000000000E+00  0.00000000000E+00  0.15812059574E+04  0.15812059574E+04  0.00000000000E+00 0. -1.
         21   -1    0    0  503  502  0.00000000000E+00 -0.00000000000E+00 -0.14653824216E+03  0.14653824216E+03  0.00000000000E+00 0.  1.
         25    1    1    2    0    0 -0.25091917379E+03 -0.30771821176E+02  0.80718887670E+02  0.29333918180E+03  0.12500000000E+03 0.  0.
         21    1    1    2  503  501 -0.25323249511E+02  0.40843388374E+02 -0.43600541307E+01  0.48254112899E+02  0.00000000000E+00 0.  1.
          2    1    1    2  501    0  0.27624242330E+03 -0.10071567199E+02  0.13583088817E+04  0.13861509048E+04  0.00000000000E+00 0. -1.
<mgrwt>
<rscale>  4 0.30058625E+03</rscale>
<asrwt>0</asrwt>
<pdfrwt beam="1">  1       21 0.22544346E-01 0.30058625E+03</pdfrwt>
<pdfrwt beam="2">  1        2 0.24326244E+00 0.30058625E+03</pdfrwt>
<totfact> 0.27976769E+03</totfact>
</mgrwt>
</event>
<event>
 5    0  0.2306346E+000  0.2316991E+03  0.7546771E-02  0.1125450E+00
          2   -1    0    0  502    0 -0.00000000000E+00  0.00000000000E+00  0.10527581197E+04  0.10527581197E+04  0.00000000000E+00 0. -1.
         21   -1    0    0  503  502  0.00000000000E+00 -0.00000000000E+00 -0.49712158930E+03  0.49712158930E+03  0.00000000000E+00 0.  1.
         25    1    1    2    0    0 -0.19915944508E+03  0.14177984630E+03 -0.38842686509E+03  0.47567471963E+03  0.12500000000E+03 0.  0.
         21    1    1    2  503  501  0.51081641455E+02 -0.16402804255E+02 -0.42686289158E+02  0.68560231645E+02  0.00000000000E+00 0.  1.
          2    1    1    2  501    0  0.14807780362E+03 -0.12537704205E+03  0.98674968465E+03  0.10056447577E+04  0.00000000000E+00 0. -1.
<mgrwt>
<rscale>  4 0.23169915E+03</rscale>
<asrwt>0</asrwt>
<pdfrwt beam="1">  1       21 0.76480245E-01 0.23169915E+03</pdfrwt>
<pdfrwt beam="2">  1        2 0.16196279E+00 0.23169915E+03</pdfrwt>
<totfact> 0.46047594E+02</totfact>
</mgrwt>
</event>
<event>
 5    0  0.2306346E+000  0.2999772E+03  0.7546771E-02  0.1085252E+00
         21   -1    0    0  503  502  0.00000000000E+00  0.00000000000E+00  0.15528822865E+03  0.15528822865E+03  0.00000000000E+00 0.  1.
          2   -1    0    0  502    0 -0.00000000000E+00 -0.00000000000E+00 -0.12193338727E+04  0.12193338727E+04  0.00000000000E+00 0.  1.
         25    1    1    2    0    0  0.14967930870E+03  0.13380748621E+03 -0.22757926820E+03  0.32821587733E+03  0.12500000000E+03 0.  0.
         21    1    1    2  503  501  0.36368837206E+02  0.11908779299E+03  0.27192581420E+02  0.12745207430E+03  0.00000000000E+00 0.  1.
          2    1    1    2  501    0 -0.18604814591E+03 -0.25289527919E+03 -0.86365895729E+03  0.91895414975E+03  0.00000000000E+00 0.  1.
<mgrwt>
<rscale>  4 0.29997716E+03</rscale>
<asrwt>0</asrwt>
<pdfrwt beam="1">  1       21 0.23890497E-01 0.29997716E+03</pdfrwt>
<pdfrwt beam="2">  1        2 0.18758983E+00 0.29997716E+03</pdfrwt>
<totfact> 0.39540442E+03</totfact>
</mgrwt>
</event>
<event>
 5    0  0.2306346E+000  0.4885158E+03  0.7546771E-02  0.1016821E+00
         21   -1    0    0  503  502  0.00000000000E+00  0.00000000000E+00  0.21833861748E+04  0.21833861748E+04  0.00000000000E+00 0.  1.
          3   -1    0    0  502    0 -0.00000000000E+00 -0.00000000000E+00 -0.10823308006E+03  0.10823308006E+03  0.00000000000E+00 0.  1.
         25    1    1    2    0    0 -0.32360562646E+02 -0.47114271687E+03  0.11908705692E+04  0.12871753487E+04  0.12500000000E+03 0.  0.
         21    1    1    2  503  501 -0.10532290066E+02  0.29798571379E+02  0.80135774771E+02  0.86143057691E+02  0.00000000000E+00 0.  1.
          3    1    1    2  501    0  0.42892852712E+02  0.44134414549E+03  0.80414675078E+03  0.91830084850E+03  0.00000000000E+00 0.  1.
<mgrwt>
<rscale>  4 0.48851578E+03</rscale>
<asrwt>0</asrwt>
<pdfrwt beam="1">  1       21 0.33590553E+00 0.48851578E+03</pdfrwt>
<pdfrwt beam="2">  1        3 0.16651245E-01 0.48851578E+03</pdfrwt>
<totfact> 0.26895449E+01</totfact>
</mgrwt>
</event>
<event>
 5    0  0.2306346E+000  0.2535390E+03  0.7546771E-02  0.1111088E+00
          2   -1    0    0  502    0 -0.00000000000E+00  0.00000000000E+00  0.27153637795E+04  0.27153637795E+04  0.00000000000E+00 0.  1.
         21   -1    0    0  503  502  0.00000000000E+00 -0.00000000000E+00 -0.29449267646E+03  0.29449267646E+03  0.00000000000E+00 0. -1.
         25    1    1    2    0    0  0.52344547274E+02  0.20675680001E+03 -0.22338383066E+03  0.33318712727E+03  0.12500000000E+03 0.  0.
         21    1    1    2  503  501 -0.27422388158E+02  0.12567744123E+02  0.80251622714E+01  0.31214400428E+02  0.00000000000E+00 0. -1.
          2    1    1    2  501    0 -0.24922159116E+02 -0.21932454413E+03  0.26362297714E+04  0.26454549283E+04  0.00000000000E+00 0.  1.
<mgrwt>
<rscale>  4 0.25353898E+03</rscale>
<asrwt>0</asrwt>
<pdfrwt beam="1">  1       21 0.45306567E-01 0.25353898E+03</pdfrwt>
<pdfrwt beam="2">  1        2 0.41774826E+00 0.25353898E+03</pdfrwt>
<totfact> 0.17705904E+02</totfact>
</mgrwt>
</event>
<event>
 5    0  0.2306346E+000  0.2483774E+03  0.7546771E-02  0.1114335E+00
         -2   -1    0    0    0  501 -0.00000000000E+00  0.00000000000E+00  0.57037900792E+03  0.57037900792E+03  0.00000000000E+00 0. -1.
         21   -1    0    0  501  502  0.00000000000E+00 -0.00000000000E+00 -0.82032285334E+03  0.82032285334E+03  0.00000000000E+00 0.  1.
         25    1    1    2    0    0  0.14174733997E+03 -0.19849404518E+03 -0.63332708287E+03  0.69008723236E+03  0.12500000000E+03 0.  0.
         21    1    1    2  503  502 -0.12848123413E+02  0.28047448108E+02 -0.13575341671E+03  0.13921466793E+03  0.00000000000E+00 0.  1.
         -2    1    1    2    0  503 -0.12889921656E+03  0.17044659707E+03  0.51913665416E+03  0.56139996097E+03  0.00000000000E+00 0. -1.
<mgrwt>
<rscale>  4 0.24837744E+03</rscale>
<asrwt>0</asrwt>
<pdfrwt beam="1">  1       21 0.12620352E+00 0.24837744E+03</pdfrwt>
<pdfrwt beam="2">  1       -2 0.87750617E-01 0.24837744E+03</pdfrwt>
<totfact> 0.42551522E+01</totfact>
</mgrwt>
</event>
<event>
 5    0  0.2306346E+000  0.3028722E+03  0.7546771E-02  0.1083814E+00
          2   -1    0    0  502    0 -0.00000000000E+00  0.00000000000E+00  0.88897846618E+03  0.88897846618E+03  0.00000000000E+00 0.  1.
         21   -1    0    0  503  502  0.00000000000E+00 -0.00000000000E+00 -0.20704749535E+03  0.20704749535E+03  0.00000000000E+00 0.  1.
         25    1    1    2    0    0 -0.76028156927E+02 -0.29369653320E+03  0.27351217982E+03  0.42716723513E+03  0.12500000000E+03 0.  0.
         21    1    1    2  503  501  0.13613775757E+03  0.27312309288E+02 -0.39410650271E+02  0.14433520233E+03  0.00000000000E+00 0.  1.
          2    1    1    2  501    0 -0.60109600646E+02  0.26638422391E+03  0.44782944128E+03  0.52452352408E+03  0.00000000000E+00 0.  1.
<mgrwt>
<rscale>  4 0.30287215E+03</rscale>
<asrwt>0</asrwt>
<pdfrwt beam="1">  1       21 0.31853461E-01 0.30287215E+03</pdfrwt>
<pdfrwt beam="2">  1        2 0.13676592E+00 0.30287215E+03</pdfrwt>
<totfact> 0.35738118E+03</totfact>
</mgrwt>
</event>
<event>
 5    0  0.2306346E+000  0.2127170E+03  0.7546771E-02  0.1139432E+00
         21   -1    0    0  503  502  0.00000000000E+00  0.00000000000E+00  0.70188691104E+02  0.70188691104E+02  0.00000000000E+00 0. -1.
          2   -1    0    0  502    0 -0.00000000000E+00 -0.00000000000E+00 -0.19292899433E+04  0.19292899433E+04  0.00000000000E+00 0.  1.
         25    1    1    2    0    0  0.20881508998E+03 -0.45629163268E+02 -0.10760989654E+04  0.11042190660E+04  0.12500000000E+03 0.  0.
         21    1    1    2  503  501 -0.56849015115E+02  0.39731507773E+02  0.24502988859E+02  0.73558138180E+02  0.00000000000E+00 0. -1.
          2    1    1    2  501    0 -0.15196607486E+03  0.58976554950E+01 -0.80750527566E+03  0.82170143025E+03  0.00000000000E+00 0.  1.
<mgrwt>
<rscale>  4 0.21271705E+03</rscale>
<asrwt>0</asrwt>
<pdfrwt beam="1">  1       21 0.10798260E-01 0.21271705E+03</pdfrwt>
<pdfrwt beam="2">  1        2 0.29681383E+00 0.21271705E+03</pdfrwt>
<totfact> 0.73600475E+03</totfact>
</mgrwt>
</event>
<event>
 5    0  0.2306346E+000  0.2968772E+03  0.7546771E-02  0.1086812E+00
          2   -1    0    0  502    0 -0.00000000000E+00  0.00000000000E+00  0.57119466686E+03  0.57119466686E+03  0.00000000000E+00 0.  1.
         21   -1    0    0  503  502  0.00000000000E+00 -0.00000000000E+00 -0.66906099696E+03  0.66906099696E+03  0.00000000000E+00 0. -1.
         25    1    1    2    0    0  0.24279808349E+03 -0.12404822912E+03 -0.52329225888E+03  0.60315724376E+03  0.12500000000E+03 0.  0.
         21    1    1    2  503  501 -0.59785650415E+02 -0.74587945660E+02 -0.36238965904E+02  0.10222987960E+03  0.00000000000E+00 0.  1.
          2    1    1    2  501    0 -0.18301243308E+03  0.19863617478E+03  0.46166489468E+03  0.53486854046E+03  0.00000000000E+00 0.  1.
<mgrwt>
<rscale>  4 0.29687720E+03</rscale>
<asrwt>0</asrwt>
<pdfrwt beam="1">  1       21 0.10293246E+00 0.29687720E+03</pdfrwt>
<pdfrwt beam="2">  1        2 0.87876103E-01 0.29687720E+03</pdfrwt>
<totfact> 0.48653871E+02</totfact>
</mgrwt>
</event>
<event>
 5    0  0.2306346E+000  0.2326616E+03  0.7546771E-02  0.1124780E+00
         -4   -1    0    0    0  501 -0.00000000000E+00  0.00000000000E+00  0.10314781243E+03  0.10314781243E+03  0.00000000000E+00 0.  1.
         21   -1    0    0  501  502  0.00000000000E+00 -0.00000000000E+00 -0.83513986513E+03  0.83513986513E+03  0.00000000000E+00 0.  1.
         25    1    1    2    0    0  0.14232436990E+03  0.14522342664E+03 -0.88157557246E+02  0.25444611377E+03  0.12500000000E+03 0.  0.
         21    1    1    2  503  502 -0.39770319457E+02  0.23587169047E+01 -0.21842679821E+03  0.22203042141E+03  0.00000000000E+00 0. -1.
         -4    1    1    2    0  503 -0.10255405045E+03 -0.14758214354E+03 -0.42540769724E+03  0.46181114238E+03  0.00000000000E+00 0.  1.
<mgrwt>
<rscale>  4 0.23266160E+03</rscale>
<asrwt>0</asrwt>
<pdfrwt beam="1">  1       21 0.12848306E+00 0.23266160E+03</pdfrwt>
<pdfrwt beam="2">  1       -4 0.15868894E-01 0.23266160E+03</pdfrwt>
<totfact> 0.63546128E+02</totfact>
</mgrwt>
</event>
<event>
 5    0  0.2306346E+000  0.3078068E+03  0.7546771E-02  0.1081402E+00
         21   -1    0    0  503  502  0.00000000000E+00  0.00000000000E+00  0.13238406850E+04  0.13238406850E+04  0.00000000000E+00 0.  1.
          2   -1    0    0  502    0 -0.00000000000E+00 -0.00000000000E+00 -0.23826609211E+03  0.23826609211E+03  0.00000000000E+00 0.  1.
         25    1    1    2    0    0  0.16151976125E+03 -0.20952265581E+03  0.23769732094E+03  0.37697930043E+03  0.12500000000E+03 0.  0.
         21    1    1    2  503  501  0.11975303763E+02 -0.20337119311E+02  0.89327352066E+03  0.89358524441E+03  0.00000000000E+00 0.  1.
          2    1    1    2  501    0 -0.17349506501E+03  0.22985977512E+03 -0.45396248712E+02  0.29154223227E+03  0.00000000000E+00 0.  1.
<mgrwt>
<rscale>  4 0.30780681E+03</rscale>
<asrwt>0</asrwt>
<pdfrwt beam="1">  1       21 0.20366779E+00 0.30780681E+03</pdfrwt>
<pdfrwt beam="2">  1        2 0.36656323E-01 0.30780681E+03</pdfrwt>
<totfact> 0.20444666E+02</totfact>
</mgrwt>
</event>
<event>
 5    0  0.2306346E+000  0.2879464E+03  0.7546771E-02  0.1091426E+00
         21   -1    0    0  503  502  0.00000000000E+00  0.00000000000E+00  0.19835236043E+03  0.19835236043E+03  0.00000000000E+00 0.  1.
          2   -1    0    0  502    0 -0.00000000000E+00 -0.00000000000E+00 -0.68154607431E+03  0.68154607431E+03  0.00000000000E+00 0.  1.
         25    1    1    2    0    0 -0.17393852426E+03 -0.22986367219E+03 -0.97464967052E+01  0.31434362124E+03  0.12500000000E+03 0.  0.
         21    1    1    2  503  501  0.58640779835E+01  0.40331177625E+02 -0.18331236232E+02  0.44688091490E+02  0.00000000000E+00 0.  1.
          2    1    1    2  501    0  0.16807444628E+03  0.18953249456E+03 -0.45511598095E+03  0.52086672201E+03  0.00000000000E+00 0.  1.
<mgrwt>
<rscale>  4 0.28794639E+03</rscale>
<asrwt>0</asrwt>
<pdfrwt beam="1">  1       21 0.30515748E-01 0.28794639E+03</pdfrwt>
<pdfrwt beam="2">  1        2 0.10485324E+00 0.28794639E+03</pdfrwt>
<totfact> 0.54759900E+03</totfact>
</mgrwt>
</event>
<event>
 5    0  0.2306346E+000  0.1851242E+03  0.7546771E-02  0.1162934E+00
         21   -1    0    0  503  502  0.00000000000E+00  0.00000000000E+00  0.50855136053E+03  0.50855136053E+03  0.00000000000E+00 0. -1.
          2   -1    0    0  502    0 -0.00000000000E+00 -0.00000000000E+00 -0.14818238683E+04  0.14818238683E+04  0.00000000000E+00 0.  1.
         25    1    1    2    0    0  0.19305243681E+03 -0.80021308297E+02  0.20702177079E+03  0.31961800125E+03  0.12500000000E+03 0.  0.
         21    1    1    2  503  501 -0.59286044745E+02  0.57076882876E+02  0.23498824993E+03  0.24898209426E+03  0.00000000000E+00 0. -1.
          2    1    1    2  501    0 -0.13376639207E+03  0.22944425421E+02 -0.14152825285E+04  0.14217751334E+04  0.00000000000E+00 0.  1.
<mgrwt>
<rscale>  4 0.18512416E+03</rscale>
<asrwt>0</asrwt>
<pdfrwt beam="1">  1       21 0.78238671E-01 0.18512416E+03</pdfrwt>
<pdfrwt beam="2">  1        2 0.22797290E+00 0.18512416E+03</pdfrwt>
<totfact> 0.26117910E+02</totfact>
</mgrwt>
</event>
<event>
 5    0  0.2306346E+000  0.3302676E+03  0.7546771E-02  0.1071019E+00
          2   -1    0    0  502    0 -0.00000000000E+00  0.00000000000E+00  0.25235622104E+04  0.25235622104E+04  0.00000000000E+00 0.  1.
         21   -1    0    0  503  502  0.00000000000E+00 -0.00000000000E+00 -0.24449576833E+03  0.24449576833E+03  0.00000000000E+00 0.  1.
         25    1    1    2    0    0  0.44185867906E+02  0.34295723003E+03  0.18408831534E+03  0.41120014640E+03  0.12500000000E+03 0.  0.
         21    1    1    2  503  501 -0.30289727476E+02 -0.41112060050E+02 -0.11525738541E+03  0.12606321416E+03  0.00000000000E+00 0.  1.
          2    1    1    2  501    0 -0.13896140430E+02 -0.30184516998E+03  0.22102355121E+04  0.22307946182E+04  0.00000000000E+00 0.  1.
<mgrwt>
<rscale>  4 0.33026758E+03</rscale>
<asrwt>0</asrwt>
<pdfrwt beam="1">  1       21 0.37614735E-01 0.33026758E+03</pdfrwt>
<pdfrwt beam="2">  1        2 0.38824032E+00 0.33026758E+03</pdfrwt>
<totfact> 0.31625828E+02</totfact>
</mgrwt>
</event>
<event>
 5    0  0.2306346E+000  0.3705412E+03  0.7546771E-02  0.1054486E+00
          2   -1    0    0  502    0 -0.00000000000E+00  0.00000000000E+00  0.33462731752E+04  0.33462731752E+04  0.00000000000E+00 0. -1.
         21   -1    0    0  503  502  0.00000000000E+00 -0.00000000000E+00 -0.57713881949E+03  0.57713881949E+03  0.00000000000E+00 0. -1.
         25    1    1    2    0    0 -0.16285763704E+03  0.34352035570E+03 -0.29453489581E+03  0.49689500860E+03  0.12500000000E+03 0.  0.
         21    1    1    2  503  501  0.37329097552E+02 -0.18837257346E+02 -0.16954124839E+03  0.17462112901E+03  0.00000000000E+00 0. -1.
          2    1    1    2  501    0  0.12552853949E+03 -0.32468309835E+03  0.32332104999E+04  0.32518958571E+04  0.00000000000E+00 0. -1.
<mgrwt>
<rscale>  4 0.37054117E+03</rscale>
<asrwt>0</asrwt>
<pdfrwt beam="1">  1       21 0.88790589E-01 0.37054117E+03</pdfrwt>
<pdfrwt beam="2">  1        2 0.51481125E+00 0.37054117E+03</pdfrwt>
<totfact> 0.15522406E+01</totfact>
</mgrwt>
</event>
<event>
 5    0  0.2306346E+000  0.3727267E+03  0.7546771E-02  0.1053655E+00
          2   -1    0    0  502    0 -0.00000000000E+00  0.00000000000E+00  0.65083771606E+03  0.65083771606E+03  0.00000000000E+00 0. -1.
         21   -1    0    0  503  502  0.00000000000E+00 -0.00000000000E+00 -0.69897282570E+03  0.69897282570E+03  0.00000000000E+00 0. -1.
         25    1    1    2    0    0  0.49258145451E+03  0.62316717062E+02 -0.31394321056E+03  0.60058738082E+03  0.12500000000E+03 0.  0.
         21    1    1    2  503  501 -0.16653691010E+03 -0.13719782613E+03 -0.11322520413E+03  0.24367546608E+03  0.00000000000E+00 0. -1.
          2    1    1    2  501    0 -0.32604454441E+03  0.74881109071E+02  0.37903330505E+03  0.50554769485E+03  0.00000000000E+00 0. -1.
<mgrwt>
<rscale>  4 0.37272671E+03</rscale>
<asrwt>0</asrwt>
<pdfrwt beam="1">  1       21 0.10753428E+00 0.37272671E+03</pdfrwt>
<pdfrwt beam="2">  1        2 0.10012888E+00 0.37272671E+03</pdfrwt>
<totfact> 0.36385141E+02</totfact>
</mgrwt>
</event>
<event>
 5    0  0.2306346E+000  0.3617649E+03  0.7546771E-02  0.1057887E+00
         21   -1    0    0  503  502  0.00000000000E+00  0.00000000000E+00  0.72953188396E+02  0.72953188396E+02  0.00000000000E+00 0. -1.
          2   -1    0    0  502    0 -0.00000000000E+00 -0.00000000000E+00 -0.29866527626E+04  0.29866527626E+04  0.00000000000E+00 0. -1.
         25    1    1    2    0    0 -0.26546580795E+03 -0.21547085552E+03 -0.79586802475E+03  0.87517466690E+03  0.12500000000E+03 0.  0.
         21    1    1    2  503  501 -0.18143729116E+02  0.29570106617E+02  0.46750433741E+01  0.35006315746E+02  0.00000000000E+00 0.  1.
          2    1    1    2  501    0  0.28360953707E+03  0.18590074890E+03 -0.21225065928E+04  0.21494249683E+04  0.00000000000E+00 0. -1.
<mgrwt>
<rscale>  4 0.36176488E+03</rscale>
<asrwt>0</asrwt>
<pdfrwt beam="1">  1       21 0.11223568E-01 0.36176488E+03</pdfrwt>
<pdfrwt beam="2">  1        2 0.45948500E+00 0.36176488E+03</pdfrwt>
<totfact> 0.16918426E+03</totfact>
</mgrwt>
</event>
<event>
 5    0  0.2306346E+000  0.1935389E+03  0.7546771E-02  0.1155308E+00
          2   -1    0    0  502    0 -0.00000000000E+00  0.00000000000E+00  0.78323626282E+03  0.78323626282E+03  0.00000000000E+00 0.  1.
         21   -1    0    0  503  502  0.00000000000E+00 -0.00000000000E+00 -0.11241285208E+03  0.11241285208E+03  0.00000000000E+00 0.  1.
         25    1    1    2    0    0  0.10706613402E+03  0.18239025092E+03  0.38211630568E+03  0.45427660269E+03  0.12500000000E+03 0.  0.
         21    1    1    2  503  501 -0.61983254935E+02 -0.12299418336E+03 -0.55229739362E+01  0.13784047401E+03  0.00000000000E+00 0.  1.
          2    1    1    2  501    0 -0.45082879086E+02 -0.59396067559E+02  0.29423007899E+03  0.30353203820E+03  0.00000000000E+00 0.  1.
<mgrwt>
<rscale>  4 0.19353892E+03</rscale>
<asrwt>0</asrwt>
<pdfrwt beam="1">  1       21 0.17294285E-01 0.19353892E+03</pdfrwt>
<pdfrwt beam="2">  1        2 0.12049788E+00 0.19353892E+03</pdfrwt>
<totfact> 0.13927321E+04</totfact>
</mgrwt>
</event>
<event>
 5    0  0.2306346E+000  0.2993015E+03  0.7546771E-02  0.1085590E+00
         21   -1    0    0  503  502  0.00000000000E+00  0.00000000000E+00  0.70712792443E+03  0.70712792443E+03  0.00000000000E+00 0.  1.
          2   -1    0    0  502    0 -0.00000000000E+00 -0.00000000000E+00 -0.22475621670E+03  0.22475621670E+03  0.00000000000E+00 0.  1.
         25    1    1    2    0    0  0.77028570096E+02  0.26195324502E+03  0.41930986864E+03  0.51575058810E+03  0.12500000000E+03 0.  0.
         21    1    1    2  503  501  0.39191971035E+02 -0.15691874957E+02  0.12918824741E+03  0.13591117982E+03  0.00000000000E+00 0.  1.
          2    1    1    2  501    0 -0.11622054113E+03 -0.24626137006E+03 -0.66126408325E+02  0.28022237320E+03  0.00000000000E+00 0.  1.
<mgrwt>
<rscale>  4 0.29930153E+03</rscale>
<asrwt>0</asrwt>
<pdfrwt beam="1">  1       21 0.10878891E+00 0.29930153E+03</pdfrwt>
<pdfrwt beam="2">  1        2 0.34577880E-01 0.29930153E+03</pdfrwt>
<totfact> 0.11876391E+03</totfact>
</mgrwt>
</event>
<event>
 5    0  0.2306346E+000  0.1871385E+03  0.7546771E-02  0.1161068E+00
          1   -1    0    0  502    0 -0.00000000000E+00  0.00000000000E+00  0.10922586281E+04  0.10922586281E+04  0.00000000000E+00 0. -1.
         21   -1    0    0  503  502  0.00000000000E+00 -0.00000000000E+00 -0.10715779023E+03  0.10715779023E+03  0.00000000000E+00 0. -1.
         25    1    1    2    0    0 -0.42496060658E+02  0.21219793206E+03  0.25371903729E+03  0.35613512524E+03  0.12500000000E+03 0.  0.
         21    1    1    2  503  501  0.34015984578E+02 -0.81638478360E+02 -0.11302404632E+02  0.89160937110E+02  0.00000000000E+00 0. -1.
          1    1    1    2  501    0  0.84800760793E+01 -0.13055945370E+03  0.74268420516E+03  0.75412035593E+03  0.00000000000E+00 0. -1.
<mgrwt>
<rscale>  4 0.18713851E+03</rscale>
<asrwt>0</asrwt>
<pdfrwt beam="1">  1       21 0.16485815E-01 0.18713851E+03</pdfrwt>
<pdfrwt beam="2">  1        1 0.16803978E+00 0.18713851E+03</pdfrwt>
<totfact> 0.50932494E+03</totfact>
</mgrwt>
</event>
<event>
 5    0  0.2306346E+000  0.4064847E+03  0.7546771E-02  0.1041557E+00
         21   -1    0    0  503  502  0.00000000000E+00  0.00000000000E+00  0.96159984370E+03  0.96159984370E+03  0.00000000000E+00 0. -1.
          2   -1    0    0  502    0 -0.00000000000E+00 -0.00000000000E+00 -0.10773067850E+04  0.10773067850E+04  0.00000000000E+00 0.  1.
         25    1    1    2    0    0 -0.16003491951E+03  0.27323874192E+03  0.52118948093E+03  0.62252233741E+03  0.12500000000E+03 0.  0.
         21    1    1    2  503  501 -0.12073071893E+03  0.51873814270E+00  0.34156199904E+03  0.36227168640E+03  0.00000000000E+00 0. -1.
          2    1    1    2  501    0  0.28076563844E+03 -0.27375748006E+03 -0.97845842130E+03  0.10541126049E+04  0.00000000000E+00 0.  1.
<mgrwt>
<rscale>  4 0.40648467E+03</rscale>
<asrwt>0</asrwt>
<pdfrwt beam="1">  1       21 0.14793844E+00 0.40648467E+03</pdfrwt>
<pdfrwt beam="2">  1        2 0.16573951E+00 0.40648467E+03</pdfrwt>
<totfact> 0.80929721E+01</totfact>
</mgrwt>
</event>
<event>
 5    0  0.2306346E+000  0.3000380E+03  0.7546771E-02  0.1085222E+00
          1   -1    0    0  502    0 -0.00000000000E+00  0.00000000000E+00  0.19567301374E+04  0.19567301374E+04  0.00000000000E+00 0. -1.
         21   -1    0    0  503  502  0.00000000000E+00 -0.00000000000E+00 -0.31651704769E+03  0.31651704769E+03  0.00000000000E+00 0. -1.
         25    1    1    2    0    0  0.25491983183E+03  0.10857476479E+03 -0.21492363855E+03  0.37227647067E+03  0.12500000000E+03 0.  0.
         21    1    1    2  503  501  0.11620190517E+02 -0.50590263286E+02  0.40209807320E+02  0.65659973893E+02  0.00000000000E+00 0. -1.
          1    1    1    2  501    0 -0.26654002235E+03 -0.57984501505E+02  0.18149269209E+04  0.18353107405E+04  0.00000000000E+00 0. -1.
<mgrwt>
<rscale>  4 0.30003804E+03</rscale>
<asrwt>0</asrwt>
<pdfrwt beam="1">  1       21 0.48694932E-01 0.30003804E+03</pdfrwt>
<pdfrwt beam="2">  1        1 0.30103540E+00 0.30003804E+03</pdfrwt>
<totfact> 0.15362897E+02</totfact>
</mgrwt>
</event>
<event>
 5    0  0.2306346E+000  0.2907221E+03  0.7546771E-02  0.1089973E+00
         -2   -1    0    0    0  501 -0.00000000000E+00  0.00000000000E+00  0.58986436803E+03  0.58986436803E+03  0.00000000000E+00 0. -1.
         21   -1    0    0  501  502  0.00000000000E+00 -0.00000000000E+00 -0.16736451891E+03  0.16736451891E+03  0.00000000000E+00 0. -1.
         25    1    1    2    0    0  0.12839723411E+03 -0.21914170634E+03  0.17630027516E+03  0.33349021606E+03  0.12500000000E+03 0.  0.
         21    1    1    2  503  502  0.22503578902E+02 -0.30581931668E+01 -0.30557477730E+02  0.38072602407E+02  0.00000000000E+00 0. -1.
         -2    1    1    2    0  503 -0.15090081302E+03  0.22219989951E+03  0.27675705169E+03  0.38566606848E+03  0.00000000000E+00 0. -1.
<mgrwt>
<rscale>  4 0.29072209E+03</rscale>
<asrwt>0</asrwt>
<pdfrwt beam="1">  1       21 0.25748388E-01 0.29072209E+03</pdfrwt>
<pdfrwt beam="2">  1       -2 0.90748363E-01 0.29072209E+03</pdfrwt>
<totfact> 0.12290477E+03</totfact>
</mgrwt>
</event>
<event>
 5    0  0.2306346E+000  0.2096350E+03  0.7546771E-02  0.1141855E+00
         21   -1    0    0  503  502  0.00000000000E+00  0.00000000000E+00  0.17772020257E+03  0.17772020257E+03  0.00000000000E+00 0.  1.
          1   -1    0    0  502    0 -0.00000000000E+00 -0.00000000000E+00 -0.46036633851E+03  0.46036633851E+03  0.00000000000E+00 0.  1.
         25    1    1    2    0    0  0.12004144664E+03 -0.21984559964E+03 -0.19735476563E+03  0.34251414586E+03  0.12500000000E+03 0.  0.
         21    1    1    2  503  501 -0.38816916744E+02  0.11409709440E+03  0.24334417594E+02  0.12295146952E+03  0.00000000000E+00 0.  1.
          1    1    1    2  501    0 -0.81224529897E+02  0.10574850524E+03 -0.10962578790E+03  0.17262092570E+03  0.00000000000E+00 0.  1.
<mgrwt>
<rscale>  4 0.20963498E+03</rscale>
<asrwt>0</asrwt>
<pdfrwt beam="1">  1       21 0.27341570E-01 0.20963498E+03</pdfrwt>
<pdfrwt beam="2">  1        1 0.70825591E-01 0.20963498E+03</pdfrwt>
<totfact> 0.70608330E+03</totfact>
</mgrwt>
</event>
<event>
 5    0  0.2306346E+000  0.2171193E+03  0.7546771E-02  0.1136049E+00
          2   -1    0    0  502    0 -0.00000000000E+00  0.00000000000E+00  0.12689696370E+04  0.12689696370E+04  0.00000000000E+00 0.  1.
         21   -1    0    0  503  502  0.00000000000E+00 -0.00000000000E+00 -0.45345876133E+03  0.45345876133E+03  0.00000000000E+00 0. -1.
         25    1    1    2    0    0  0.17320070486E+03 -0.23472288471E+03  0.47954839645E+03  0.57505215530E+03  0.12500000000E+03 0.  0.
         21    1    1    2  503  501 -0.75259906514E+02  0.15646266848E+03 -0.38144339265E+03  0.41909865420E+03  0.00000000000E+00 0. -1.
          2    1    1    2  501    0 -0.97940798345E+02  0.78260216230E+02  0.71740587182E+03  0.72827758880E+03  0.00000000000E+00 0.  1.
<mgrwt>
<rscale>  4 0.21711933E+03</rscale>
<asrwt>0</asrwt>
<pdfrwt beam="1">  1       21 0.69762887E-01 0.21711933E+03</pdfrwt>
<pdfrwt beam="2">  1        2 0.19522610E+00 0.21711933E+03</pdfrwt>
<totfact> 0.42887252E+02</totfact>
</mgrwt>
</event>
<event>
 5    0  0.2306346E+000  0.3336594E+03  0.7546771E-02  0.1069529E+00
         21   -1    0    0  503  502  0.00000000000E+00  0.00000000000E+00  0.24231216329E+03  0.24231216329E+03  0.00000000000E+00 0.  1.
          2   -1    0    0  502    0 -0.00000000000E+00 -0.00000000000E+00 -0.10135031968E+04  0.10135031968E+04  0.00000000000E+00 0.  1.
         25    1    1    2    0    0  0.26883845580E+03  0.30780009342E+03 -0.17963283984E+03  0.46358167562E+03  0.12500000000E+03 0.  0.
         21    1    1    2  503  501 -0.11623990663E+03 -0.64477405846E+02  0.18877090507E+01  0.13293838875E+03  0.00000000000E+00 0.  1.
          2    1    1    2  501    0 -0.15259854917E+03 -0.24332268757E+03 -0.59344590276E+03  0.65929529575E+03  0.00000000000E+00 0.  1.
<mgrwt>
<rscale>  4 0.33365939E+03</rscale>
<asrwt>0</asrwt>
<pdfrwt beam="1">  1       21 0.37278794E-01 0.33365939E+03</pdfrwt>
<pdfrwt beam="2">  1        2 0.15592357E+00 0.33365939E+03</pdfrwt>
<totfact> 0.21543647E+03</totfact>
</mgrwt>
</event>
<event>
 5    0  0.2306346E+000  0.6708921E+03  0.7546771E-02  0.9768348E-01
         21   -1    0    0  503  502  0.00000000000E+00  0.00000000000E+00  0.12596175405E+04  0.12596175405E+04  0.00000000000E+00 0.  1.
          2   -1    0    0  502    0 -0.00000000000E+00 -0.00000000000E+00 -0.12634955105E+04  0.12634955105E+04  0.00000000000E+00 0.  1.
         25    1    1    2    0    0  0.37184614405E+03  0.13385539672E+02 -0.96442926856E+03  0.10412480692E+04  0.12500000000E+03 0.  0.
         21    1    1    2  503  501 -0.68568952990E+03 -0.95641870182E+02  0.92511865963E+03  0.11554921173E+04  0.00000000000E+00 0.  1.
          2    1    1    2  501    0  0.31384338584E+03  0.82256330510E+02  0.35432638919E+02  0.32637286445E+03  0.00000000000E+00 0.  1.
<mgrwt>
<rscale>  4 0.67089206E+03</rscale>
<asrwt>0</asrwt>
<pdfrwt beam="1">  1       21 0.19378731E+00 0.67089206E+03</pdfrwt>
<pdfrwt beam="2">  1        2 0.19438392E+00 0.67089206E+03</pdfrwt>
<totfact> 0.26260571E+01</totfact>
</mgrwt>
</event>
<event>
 5    0  0.2306346E+000  0.3156634E+03  0.7546771E-02  0.1077663E+00
         21   -1    0    0  503  502  0.00000000000E+00  0.00000000000E+00  0.21955121295E+03  0.21955121295E+03  0.00000000000E+00 0.  1.
          2   -1    0    0  502    0 -0.00000000000E+00 -0.00000000000E+00 -0.21655686024E+04  0.21655686024E+04  0.00000000000E+00 0. -1.
         25    1    1    2    0    0  0.30265846050E+03  0.72480099522E+02 -0.61364841203E+03  0.69931744017E+03  0.12500000000E+03 0.  0.
         21    1    1    2  503  501 -0.25099688395E+02 -0.15899183064E+02  0.16206138814E+03  0.16476247117E+03  0.00000000000E+00 0.  1.
          2    1    1    2  501    0 -0.27755877211E+03 -0.56580916457E+02 -0.14944303656E+04  0.15210399040E+04  0.00000000000E+00 0. -1.
<mgrwt>
<rscale>  4 0.31566340E+03</rscale>
<asrwt>0</asrwt>
<pdfrwt beam="1">  1       21 0.33777111E-01 0.31566340E+03</pdfrwt>
<pdfrwt beam="2">  1        2 0.33316439E+00 0.31566340E+03</pdfrwt>
<totfact> 0.61889841E+02</totfact>
</mgrwt>
</event>
<event>
 5    0  0.2306346E+000  0.2944744E+03  0.7546771E-02  0.1088036E+00
         21   -1    0    0  503  502  0.00000000000E+00  0.00000000000E+00  0.59625705239E+03  0.59625705239E+03  0.00000000000E+00 0.  1.
          1   -1    0    0  502    0 -0.00000000000E+00 -0.00000000000E+00 -0.67813939189E+03  0.67813939189E+03  0.00000000000E+00 0.  1.
         25    1    1    2    0    0  0.22524760199E+03 -0.11000693501E+03 -0.21967576428E+03  0.35597815855E+03  0.12500000000E+03 0.  0.
         21    1    1    2  503  501 -0.90834425214E+01 -0.71026561920E+02  0.47414372328E+03  0.47952012653E+03  0.00000000000E+00 0.  1.
          1    1    1    2  501    0 -0.21616415947E+03  0.18103349693E+03 -0.33635029849E+03  0.43889815920E+03  0.00000000000E+00 0.  1.
<mgrwt>
<rscale>  4 0.29447439E+03</rscale>
<asrwt>0</asrwt>
<pdfrwt beam="1">  1       21 0.91731854E-01 0.29447439E+03</pdfrwt>
<pdfrwt beam="2">  1        1 0.10432914E+00 0.29447439E+03</pdfrwt>
<totfact> 0.31170957E+02</totfact>
</mgrwt>
</event>
<event>
 5    0  0.2306346E+000  0.2443758E+03  0.7546771E-02  0.1116912E+00
          1   -1    0    0  502    0 -0.00000000000E+00  0.00000000000E+00  0.12342091447E+04  0.12342091447E+04  0.00000000000E+00 0. -1.
         21   -1    0    0  503  502  0.00000000000E+00 -0.00000000000E+00 -0.57493339636E+02  0.57493339636E+02  0.00000000000E+00 0. -1.
         25    1    1    2    0    0 -0.69421512432E+02 -0.20915243128E+03  0.66786176761E+03  0.71430275551E+03  0.12500000000E+03 0.  0.
         21    1    1    2  503  501  0.50415149264E+02  0.68113426817E+01  0.34852580711E+02  0.61666717496E+02  0.00000000000E+00 0. -1.
          1    1    1    2  501    0  0.19006363168E+02  0.20234108860E+03  0.47400145673E+03  0.51573301131E+03  0.00000000000E+00 0. -1.
<mgrwt>
<rscale>  4 0.24437581E+03</rscale>
<asrwt>0</asrwt>
<pdfrwt beam="1">  1       21 0.88451301E-02 0.24437581E+03</pdfrwt>
<pdfrwt beam="2">  1        1 0.18987831E+00 0.24437581E+03</pdfrwt>
<totfact> 0.12157418E+04</totfact>
</mgrwt>
</event>
<event>
 5    0  0.2306346E+000  0.3491564E+03  0.7546771E-02  0.1062962E+00
         21   -1    0    0  503  502  0.00000000000E+00  0.00000000000E+00  0.52906733629E+03  0.52906733629E+03  0.00000000000E+00 0.  1.
          2   -1    0    0  502    0 -0.00000000000E+00 -0.00000000000E+00 -0.10414635461E+04  0.10414635461E+04  0.00000000000E+00 0.  1.
         25    1    1    2    0    0 -0.20206819762E+03 -0.10755174239E+03 -0.47351774962E+02  0.26507758180E+03  0.12500000000E+03 0.  0.
         21    1    1    2  503  501 -0.34742849055E+02 -0.17017008643E+03  0.36197112140E+03  0.40148227433E+03  0.00000000000E+00 0.  1.
          2    1    1    2  501    0  0.23681104668E+03  0.27772182882E+03 -0.82701555626E+03  0.90397102627E+03  0.00000000000E+00 0.  1.
<mgrwt>
<rscale>  4 0.34915641E+03</rscale>
<asrwt>0</asrwt>
<pdfrwt beam="1">  1       21 0.81394975E-01 0.34915641E+03</pdfrwt>
<pdfrwt beam="2">  1        2 0.16022516E+00 0.34915641E+03</pdfrwt>
<totfact> 0.38343176E+02</totfact>
</mgrwt>
</event>
<event>
 5    0  0.2306346E+000  0.3235962E+03  0.7546771E-02  0.1074006E+00
         21   -1    0    0  501  502  0.00000000000E+00  0.00000000000E+00  0.23504725612E+03  0.23504725612E+03  0.00000000000E+00 0.  1.
         -1   -1    0    0    0  501 -0.00000000000E+00 -0.00000000000E+00 -0.94616818128E+03  0.94616818128E+03  0.00000000000E+00 0.  1.
         25    1    1    2    0    0 -0.28104452604E+03 -0.22637970876E+02  0.52216692450E+02  0.31280998436E+03  0.12500000000E+03 0.  0.
         21    1    1    2  503  502 -0.13968219259E+02 -0.38856663469E+02  0.63959516331E+01  0.41783485285E+02  0.00000000000E+00 0.  1.
         -1    1    1    2    0  503  0.29501274530E+03  0.61494634346E+02 -0.76973356925E+03  0.82662196775E+03  0.00000000000E+00 0.  1.
<mgrwt>
<rscale>  4 0.32359619E+03</rscale>
<asrwt>0</asrwt>
<pdfrwt beam="1">  1       21 0.36161117E-01 0.32359619E+03</pdfrwt>
<pdfrwt beam="2">  1       -1 0.14556433E+00 0.32359619E+03</pdfrwt>
<totfact> 0.26955883E+02</totfact>
</mgrwt>
</event>
<event>
 5    0  0.2306346E+000  0.2364059E+03  0.7546771E-02  0.1122211E+00
         21   -1    0    0  503  502  0.00000000000E+00  0.00000000000E+00  0.88095775958E+03  0.88095775958E+03  0.00000000000E+00 0. -1.
          1   -1    0    0  502    0 -0.00000000000E+00 -0.00000000000E+00 -0.41099259466E+03  0.41099259466E+03  0.00000000000E+00 0. -1.
         25    1    1    2    0    0  0.40083450833E+02 -0.23803301373E+03  0.77242364953E+03  0.81885877476E+03  0.12500000000E+03 0.  0.
         21    1    1    2  503  501 -0.58288511764E+02  0.39337146410E+02  0.36906166599E+02  0.79416791829E+02  0.00000000000E+00 0. -1.
          1    1    1    2  501    0  0.18205060931E+02  0.19869586732E+03 -0.33936465121E+03  0.39367478764E+03  0.00000000000E+00 0. -1.
<mgrwt>
<rscale>  4 0.23640586E+03</rscale>
<asrwt>0</asrwt>
<pdfrwt beam="1">  1       21 0.13553196E+00 0.23640586E+03</pdfrwt>
<pdfrwt beam="2">  1        1 0.63229630E-01 0.23640586E+03</pdfrwt>
<totfact> 0.24298560E+02</totfact>
</mgrwt>
</event>
<event>
 5    0  0.2306346E+000  0.2599021E+03  0.7546771E-02  0.1107202E+00
          1   -1    0    0  502    0 -0.00000000000E+00  0.00000000000E+00  0.78807216486E+03  0.78807216486E+03  0.00000000000E+00 0.  1.
         21   -1    0    0  503  502  0.00000000000E+00 -0.00000000000E+00 -0.25477097547E+03  0.25477097547E+03  0.00000000000E+00 0.  1.
         25    1    1    2    0    0 -0.25302302490E+03  0.34180667017E+01  0.56677185213E+02  0.28787086972E+03  0.12500000000E+03 0.  0.
         21    1    1    2  503  501  0.21558871174E+03  0.53874191955E+01 -0.54517626518E+02  0.22244030326E+03  0.00000000000E+00 0.  1.
          1    1    1    2  501    0  0.37434313160E+02 -0.88054858971E+01  0.53114163070E+03  0.53253196735E+03  0.00000000000E+00 0.  1.
<mgrwt>
<rscale>  4 0.25990214E+03</rscale>
<asrwt>0</asrwt>
<pdfrwt beam="1">  1       21 0.39195535E-01 0.25990214E+03</pdfrwt>
<pdfrwt beam="2">  1        1 0.12124187E+00 0.25990214E+03</pdfrwt>
<totfact> 0.16055890E+03</totfact>
</mgrwt>
</event>
<event>
 5    0  0.2306346E+000  0.3714563E+03  0.7546771E-02  0.1054137E+00
         21   -1    0    0  503  502  0.00000000000E+00  0.00000000000E+00  0.92842763859E+03  0.92842763859E+03  0.00000000000E+00 0.  1.
          1   -1    0    0  502    0 -0.00000000000E+00 -0.00000000000E+00 -0.14566242544E+04  0.14566242544E+04  0.00000000000E+00 0.  1.
         25    1    1    2    0    0  0.32830236095E+03 -0.20804980881E+03  0.71565488075E+03  0.82392601093E+03  0.12500000000E+03 0.  0.
         21    1    1    2  503  501 -0.41073422265E+02  0.10329661265E+02  0.13363648695E+03  0.14018715548E+03  0.00000000000E+00 0. -1.
          1    1    1    2  501    0 -0.28722893869E+03  0.19772014755E+03 -0.13774879835E+04  0.14209387266E+04  0.00000000000E+00 0.  1.
<mgrwt>
<rscale>  4 0.37145635E+03</rscale>
<asrwt>0</asrwt>
<pdfrwt beam="1">  1       21 0.14283502E+00 0.37145635E+03</pdfrwt>
<pdfrwt beam="2">  1        1 0.22409604E+00 0.37145635E+03</pdfrwt>
<totfact> 0.25585799E+01</totfact>
</mgrwt>
</event>
<event>
 5    0  0.2306346E+000  0.2249499E+03  0.7546771E-02  0.1130246E+00
          1   -1    0    0  502    0 -0.00000000000E+00  0.00000000000E+00  0.89655985229E+02  0.89655985229E+02  0.00000000000E+00 0. -1.
         21   -1    0    0  503  502  0.00000000000E+00 -0.00000000000E+00 -0.10746425942E+04  0.10746425942E+04  0.00000000000E+00 0. -1.
         25    1    1    2    0    0 -0.32824326618E+02  0.20765675370E+03 -0.86249708502E+03  0.89650710285E+03  0.12500000000E+03 0.  0.
         21    1    1    2  503  501  0.17975970282E+00 -0.26723722420E+02 -0.72490591136E+02  0.77259791980E+02  0.00000000000E+00 0. -1.
          1    1    1    2  501    0  0.32644566915E+02 -0.18093303128E+03 -0.49998932817E+02  0.19053168461E+03  0.00000000000E+00 0. -1.
<mgrwt>
<rscale>  4 0.22494991E+03</rscale>
<asrwt>0</asrwt>
<pdfrwt beam="1">  1       21 0.16532962E+00 0.22494991E+03</pdfrwt>
<pdfrwt beam="2">  1        1 0.13793229E-01 0.22494991E+03</pdfrwt>
<totfact> 0.10076342E+03</totfact>
</mgrwt>
</event>
<event>
 5    0  0.2306346E+000  0.3665574E+03  0.7546771E-02  0.1056017E+00
          1   -1    0    0  502    0 -0.00000000000E+00  0.00000000000E+00  0.88769477499E+03  0.88769477499E+03  0.00000000000E+00 0.  1.
         21   -1    0    0  503  502  0.00000000000E+00 -0.00000000000E+00 -0.11473904083E+04  0.11473904083E+04  0.00000000000E+00 0.  1.
         25    1    1    2    0    0 -0.24461382975E+03 -0.48317561241E+03 -0.80288134405E+03  0.97649272949E+03  0.12500000000E+03 0.  0.
         21    1    1    2  503  501  0.12596969927E+03  0.16842643583E+03 -0.16975697427E+03  0.27028366531E+03  0.00000000000E+00 0.  1.
          1    1    1    2  501    0  0.11864413048E+03  0.31474917658E+03  0.71294268502E+03  0.78830878847E+03  0.00000000000E+00 0.  1.
<mgrwt>
<rscale>  4 0.36655742E+03</rscale>
<asrwt>0</asrwt>
<pdfrwt beam="1">  1       21 0.17652160E+00 0.36655742E+03</pdfrwt>
<pdfrwt beam="2">  1        1 0.13656843E+00 0.36655742E+03</pdfrwt>
<totfact> 0.36825213E+01</totfact>
</mgrwt>
</event>
<event>
 5    0  0.2306346E+000  0.3342039E+03  0.7546771E-02  0.1069292E+00
         21   -1    0    0  503  502  0.00000000000E+00  0.00000000000E+00  0.10975986829E+03  0.10975986829E+03  0.00000000000E+00 0. -1.
          1   -1    0    0  502    0 -0.00000000000E+00 -0.00000000000E+00 -0.11569970710E+04  0.11569970710E+04  0.00000000000E+00 0. -1.
         25    1    1    2    0    0  0.18752209204E+03  0.25268373056E+03 -0.55195057865E+03  0.64752455086E+03  0.12500000000E+03 0.  0.
         21    1    1    2  503  501 -0.23092151651E+02  0.55206381040E+01  0.12105117251E+02  0.26650680603E+02  0.00000000000E+00 0. -1.
          1    1    1    2  501    0 -0.16442994038E+03 -0.25820436867E+03 -0.50739174130E+03  0.59258170781E+03  0.00000000000E+00 0. -1.
<mgrwt>
<rscale>  4 0.33420392E+03</rscale>
<asrwt>0</asrwt>
<pdfrwt beam="1">  1       21 0.16886133E-01 0.33420392E+03</pdfrwt>
<pdfrwt beam="2">  1        1 0.17799956E+00 0.33420392E+03</pdfrwt>
<totfact> 0.41808852E+03</totfact>
</mgrwt>
</event>
<event>
 5    0  0.2306346E+000  0.3171448E+03  0.7546771E-02  0.1076971E+00
          2   -1    0    0  502    0 -0.00000000000E+00  0.00000000000E+00  0.15416789557E+04  0.15416789557E+04  0.00000000000E+00 0.  1.
         21   -1    0    0  503  502  0.00000000000E+00 -0.00000000000E+00 -0.11533319566E+03  0.11533319566E+03  0.00000000000E+00 0.  1.
         25    1    1    2    0    0  0.37746810680E+02  0.35492311716E+03  0.39841124531E+03  0.54931936176E+03  0.12500000000E+03 0.  0.
         21    1    1    2  503  501  0.80706797530E+02 -0.20871440996E+03  0.59190188278E+03  0.63278995799E+03  0.00000000000E+00 0.  1.
          2    1    1    2  501    0 -0.11845360821E+03 -0.14620870721E+03  0.43603263199E+03  0.47490283166E+03  0.00000000000E+00 0.  1.
<mgrwt>
<rscale>  4 0.31714481E+03</rscale>
<asrwt>0</asrwt>
<pdfrwt beam="1">  1       21 0.17743570E-01 0.31714481E+03</pdfrwt>
<pdfrwt beam="2">  1        2 0.23718136E+00 0.31714481E+03</pdfrwt>
<totfact> 0.45923208E+03</totfact>
</mgrwt>
</event>
<event>
 5    0  0.2306346E+000  0.2957180E+03  0.7546771E-02  0.1087401E+00
          1   -1    0    0  502    0 -0.00000000000E+00  0.00000000000E+00  0.23421209681E+03  0.23421209681E+03  0.00000000000E+00 0. -1.
         21   -1    0    0  503  502  0.00000000000E+00 -0.00000000000E+00 -0.51773344822E+03  0.51773344822E+03  0.00000000000E+00 0. -1.
         25    1    1    2    0    0 -0.19842943036E+03 -0.15490029492E+03 -0.12419825419E+03  0.30727601036E+03  0.12500000000E+03 0.  0.
         21    1    1    2  503  501  0.54297245213E+02 -0.10407835621E+03 -0.29133198018E+02  0.12095138815E+03  0.00000000000E+00 0. -1.
          1    1    1    2  501    0  0.14413218514E+03  0.25897865113E+03 -0.13018989921E+03  0.32371814653E+03  0.00000000000E+00 0. -1.
<mgrwt>
<rscale>  4 0.29571798E+03</rscale>
<asrwt>0</asrwt>
<pdfrwt beam="1">  1       21 0.79651299E-01 0.29571798E+03</pdfrwt>
<pdfrwt beam="2">  1        1 0.36032631E-01 0.29571798E+03</pdfrwt>
<totfact> 0.17478647E+03</totfact>
</mgrwt>
</event>
<event>
 5    0  0.2306346E+000  0.2392539E+03  0.7546771E-02  0.1120291E+00
          2   -1    0    0  502    0 -0.00000000000E+00  0.00000000000E+00  0.15619295886E+04  0.15619295886E+04  0.00000000000E+00 0.  1.
         21   -1    0    0  503  502  0.00000000000E+00 -0.00000000000E+00 -0.45662429026E+02  0.45662429026E+02  0.00000000000E+00 0.  1.
         25    1    1    2    0    0  0.14387652115E+03 -0.15000200964E+03  0.44576949925E+03  0.50748054415E+03  0.12500000000E+03 0.  0.
         21    1    1    2  503  501  0.19570772265E+02  0.28831763574E+02  0.60447241589E+02  0.69772163028E+02  0.00000000000E+00 0.  1.
          2    1    1    2  501    0 -0.16344729341E+03  0.12117024607E+03  0.10100504188E+04  0.10303393105E+04  0.00000000000E+00 0.  1.
<mgrwt>
<rscale>  4 0.23925394E+03</rscale>
<asrwt>0</asrwt>
<pdfrwt beam="1">  1       21 0.70249903E-02 0.23925394E+03</pdfrwt>
<pdfrwt beam="2">  1        2 0.24029682E+00 0.23925394E+03</pdfrwt>
<totfact> 0.24180236E+04</totfact>
</mgrwt>
</event>
<event>
 5    0  0.2306346E+000  0.2570999E+03  0.7546771E-02  0.1108898E+00
         -4   -1    0    0    0  501 -0.00000000000E+00  0.00000000000E+00  0.22394217892E+03  0.22394217892E+03  0.00000000000E+00 0.  1.
         21   -1    0    0  501  502  0.00000000000E+00 -0.00000000000E+00 -0.37485755850E+03  0.37485755850E+03  0.00000000000E+00 0.  1.
         25    1    1    2    0    0 -0.19034094121E+03  0.13019127402E+03  0.59096973112E+02  0.26888081739E+03  0.12500000000E+03 0.  0.
         21    1    1    2  503  502  0.34998923847E+02  0.17299052482E+02 -0.44641599961E+02  0.59304758108E+02  0.00000000000E+00 0.  1.
         -4    1    1    2    0  503  0.15534201736E+03 -0.14749032650E+03 -0.16537075274E+03  0.27061416192E+03  0.00000000000E+00 0.  1.
<mgrwt>
<rscale>  4 0.25709985E+03</rscale>
<asrwt>0</asrwt>
<pdfrwt beam="1">  1       21 0.57670393E-01 0.25709985E+03</pdfrwt>
<pdfrwt beam="2">  1       -4 0.34452643E-01 0.25709985E+03</pdfrwt>
<totfact> 0.96490922E+02</totfact>
</mgrwt>
</event>
<event>
 5    0  0.2306346E+000  0.1960053E+03  0.7546771E-02  0.1153154E+00
         21   -1    0    0  503  502  0.00000000000E+00  0.00000000000E+00  0.16045538285E+03  0.16045538285E+03  0.00000000000E+00 0. -1.
          2   -1    0    0  502    0 -0.00000000000E+00 -0.00000000000E+00 -0.32061798759E+04  0.32061798759E+04  0.00000000000E+00 0.  1.
         25    1    1    2    0    0  0.10630050076E+03 -0.26708453850E+03 -0.13071657126E+03  0.33962592535E+03  0.12500000000E+03 0.  0.
         21    1    1    2  503  501 -0.19073041664E+02  0.14675874051E+03 -0.47177515771E+02  0.15533070150E+03  0.00000000000E+00 0. -1.
          2    1    1    2  501    0 -0.87227459091E+02  0.12032579799E+03 -0.28678304060E+04  0.28716786319E+04  0.00000000000E+00 0.  1.
<mgrwt>
<rscale>  4 0.19600531E+03</rscale>
<asrwt>0</asrwt>
<pdfrwt beam="1">  1       21 0.24685444E-01 0.19600531E+03</pdfrwt>
<pdfrwt beam="2">  1        2 0.49325842E+00 0.19600531E+03</pdfrwt>
<totfact> 0.31985034E+02</totfact>
</mgrwt>
</event>
<event>
 5    0  0.2306346E+000  0.3380695E+03  0.7546771E-02  0.1067621E+00
          1   -1    0    0  502    0 -0.00000000000E+00  0.00000000000E+00  0.36086159727E+03  0.36086159727E+03  0.00000000000E+00 0. -1.
         21   -1    0    0  503  502  0.00000000000E+00 -0.00000000000E+00 -0.17780101818E+04  0.17780101818E+04  0.00000000000E+00 0.  1.
         25    1    1    2    0    0 -0.22707138641E+03 -0.22080050122E+03 -0.16544285086E+04  0.16891041904E+04  0.12500000000E+03 0.  0.
         21    1    1    2  503  501  0.45507178272E+02  0.28305534919E+02 -0.39706938381E+02  0.66698932053E+02  0.00000000000E+00 0.  1.
          1    1    1    2  501    0  0.18156420814E+03  0.19249496630E+03  0.27698686246E+03  0.38306865665E+03  0.00000000000E+00 0. -1.
<mgrwt>
<rscale>  4 0.33806954E+03</rscale>
<asrwt>0</asrwt>
<pdfrwt beam="1">  1       21 0.27354002E+00 0.33806954E+03</pdfrwt>
<pdfrwt beam="2">  1        1 0.55517170E-01 0.33806954E+03</pdfrwt>
<totfact> 0.32243842E+01</totfact>
</mgrwt>
</event>
<event>
 5    0  0.2306346E+000  0.2215210E+03  0.7546771E-02  0.1132754E+00
         21   -1    0    0  503  502  0.00000000000E+00  0.00000000000E+00  0.27918577545E+03  0.27918577545E+03  0.00000000000E+00 0.  1.
          2   -1    0    0  502    0 -0.00000000000E+00 -0.00000000000E+00 -0.15859108412E+04  0.15859108412E+04  0.00000000000E+00 0. -1.
         25    1    1    2    0    0  0.19423982384E+03  0.20903725471E+03 -0.72235414863E+03  0.78666778189E+03  0.12500000000E+03 0.  0.
         21    1    1    2  503  501 -0.65803623390E+02 -0.16665436868E+03  0.20803794319E+03  0.27456070596E+03  0.00000000000E+00 0.  1.
          2    1    1    2  501    0 -0.12843620045E+03 -0.42382886027E+02 -0.79240886026E+03  0.80386812876E+03  0.00000000000E+00 0. -1.
<mgrwt>
<rscale>  4 0.22152098E+03</rscale>
<asrwt>0</asrwt>
<pdfrwt beam="1">  1       21 0.42951657E-01 0.22152098E+03</pdfrwt>
<pdfrwt beam="2">  1        2 0.24398629E+00 0.22152098E+03</pdfrwt>
<totfact> 0.80888270E+02</totfact>
</mgrwt>
</event>
<event>
 5    0  0.2306346E+000  0.2515831E+03  0.7546771E-02  0.1112308E+00
          2   -1    0    0  502    0 -0.00000000000E+00  0.00000000000E+00  0.10905957784E+04  0.10905957784E+04  0.00000000000E+00 0. -1.
         21   -1    0    0  503  502  0.00000000000E+00 -0.00000000000E+00 -0.92970416325E+02  0.92970416325E+02  0.00000000000E+00 0. -1.
         25    1    1    2    0    0  0.14208461948E+03  0.16408380513E+03  0.76804600907E+03  0.80785593162E+03  0.12500000000E+03 0.  0.
         21    1    1    2  503  501  0.52652375254E+02 -0.42594203893E+02  0.57508765822E+02  0.88847042559E+02  0.00000000000E+00 0. -1.
          2    1    1    2  501    0 -0.19473699473E+03 -0.12148960123E+03  0.17207058715E+03  0.28686322052E+03  0.00000000000E+00 0. -1.
<mgrwt>
<rscale>  4 0.25158311E+03</rscale>
<asrwt>0</asrwt>
<pdfrwt beam="1">  1       21 0.14303142E-01 0.25158311E+03</pdfrwt>
<pdfrwt beam="2">  1        2 0.16778396E+00 0.25158311E+03</pdfrwt>
<totfact> 0.12415874E+04</totfact>
</mgrwt>
</event>
<event>
 5    0  0.2306346E+000  0.2543557E+03  0.7546771E-02  0.1110583E+00
         21   -1    0    0  503  502  0.00000000000E+00  0.00000000000E+00  0.16914711080E+03  0.16914711080E+03  0.00000000000E+00 0.  1.
          1   -1    0    0  502    0 -0.00000000000E+00 -0.00000000000E+00 -0.38627672620E+03  0.38627672620E+03  0.00000000000E+00 0.  1.
         25    1    1    2    0    0  0.34077874162E+02  0.20496288566E+03 -0.41279816545E+02  0.24596769963E+03  0.12500000000E+03 0.  0.
         21    1    1    2  503  501  0.18867355893E+01  0.21346490142E+02 -0.14296168718E+01  0.21477341944E+02  0.00000000000E+00 0. -1.
          1    1    1    2  501    0 -0.35964609751E+02 -0.22630937580E+03 -0.17442018198E+03  0.28797879542E+03  0.00000000000E+00 0.  1.
<mgrwt>
<rscale>  4 0.25435574E+03</rscale>
<asrwt>0</asrwt>
<pdfrwt beam="1">  1       21 0.26022632E-01 0.25435574E+03</pdfrwt>
<pdfrwt beam="2">  1        1 0.59427189E-01 0.25435574E+03</pdfrwt>
<totfact> 0.96484696E+03</totfact>
</mgrwt>
</event>
<event>
 5    0  0.2306346E+000  0.3446130E+03  0.7546771E-02  0.1064848E+00
          2   -1    0    0  502    0 -0.00000000000E+00  0.00000000000E+00  0.32901467720E+03  0.32901467720E+03  0.00000000000E+00 0.  1.
         21   -1    0    0  503  502  0.00000000000E+00 -0.00000000000E+00 -0.60984941044E+03  0.60984941044E+03  0.00000000000E+00 0.  1.
         25    1    1    2    0    0 -0.16600840407E+02  0.30197787516E+03 -0.36623569574E+03  0.49114133386E+03  0.12500000000E+03 0.  0.
         21    1    1    2  503  501 -0.18805364250E+02  0.21701405083E+02 -0.78212526270E+02  0.83317416982E+02  0.00000000000E+00 0. -1.
          2    1    1    2  501    0  0.35406204657E+02 -0.32367928025E+03  0.16361348877E+03  0.36440533681E+03  0.00000000000E+00 0.  1.
<mgrwt>
<rscale>  4 0.34461298E+03</rscale>
<asrwt>0</asrwt>
<pdfrwt beam="1">  1       21 0.93822986E-01 0.34461298E+03</pdfrwt>
<pdfrwt beam="2">  1        2 0.50617643E-01 0.34461298E+03</pdfrwt>
<totfact> 0.11044986E+03</totfact>
</mgrwt>
</event>
<event>
 5    0  0.2306346E+000  0.2291959E+03  0.7546771E-02  0.1127207E+00
         21   -1    0    0  503  502  0.00000000000E+00  0.00000000000E+00  0.74602484199E+02  0.74602484199E+02  0.00000000000E+00 0. -1.
          1   -1    0    0  502    0 -0.00000000000E+00 -0.00000000000E+00 -0.12046941939E+04  0.12046941939E+04  0.00000000000E+00 0. -1.
         25    1    1    2    0    0  0.61345237261E+02 -0.21351207808E+03 -0.45414721118E+03  0.52079298674E+03  0.12500000000E+03 0.  0.
         21    1    1    2  503  501 -0.14535581640E+02  0.38096770682E+02  0.15499135935E+02  0.43621901434E+02  0.00000000000E+00 0. -1.
          1    1    1    2  501    0 -0.46809655621E+02  0.17541530740E+03 -0.69144363448E+03  0.71488178994E+03  0.00000000000E+00 0. -1.
<mgrwt>
<rscale>  4 0.22919586E+03</rscale>
<asrwt>0</asrwt>
<pdfrwt beam="1">  1       21 0.11477306E-01 0.22919586E+03</pdfrwt>
<pdfrwt beam="2">  1        1 0.18533756E+00 0.22919586E+03</pdfrwt>
<totfact> 0.80581348E+03</totfact>
</mgrwt>
</event>
<event>
 5    0  0.2306346E+000  0.3101212E+03  0.7546771E-02  0.1080288E+00
          1   -1    0    0  502    0 -0.00000000000E+00  0.00000000000E+00  0.18593144530E+04  0.18593144530E+04  0.00000000000E+00 0.  1.
         21   -1    0    0  503  502  0.00000000000E+00 -0.00000000000E+00 -0.23086761896E+03  0.23086761896E+03  0.00000000000E+00 0. -1.
         25    1    1    2    0    0  0.18166743907E+03  0.15084860933E+03  0.86666225022E+03  0.90691058948E+03  0.12500000000E+03 0.  0.
         21    1    1    2  503  501 -0.25026549643E+03 -0.14558690891E+03 -0.10929929329E+03  0.30947488147E+03  0.00000000000E+00 0. -1.
          1    1    1    2  501    0  0.68598057360E+02 -0.52617004262E+01  0.87108387716E+03  0.87379660105E+03  0.00000000000E+00 0.  1.
<mgrwt>
<rscale>  4 0.31012121E+03</rscale>
<asrwt>0</asrwt>
<pdfrwt beam="1">  1       21 0.35518096E-01 0.31012121E+03</pdfrwt>
<pdfrwt beam="2">  1        1 0.28604837E+00 0.31012121E+03</pdfrwt>
<totfact> 0.33820183E+02</totfact>
</mgrwt>
</event>
<event>
 5    0  0.2306346E+000  0.2753191E+03  0.7546771E-02  0.1098273E+00
         21   -1    0    0  503  502  0.00000000000E+00  0.00000000000E+00  0.60247820944E+02  0.60247820944E+02  0.00000000000E+00 0.  1.
          1   -1    0    0  502    0 -0.00000000000E+00 -0.00000000000E+00 -0.25016202408E+04  0.25016202408E+04  0.00000000000E+00 0.  1.
         25    1    1    2    0    0 -0.12636575610E+03  0.17541564260E+03 -0.28669533233E+03  0.38020805562E+03  0.12500000000E+03 0.  0.
         21    1    1    2  503  501 -0.27686395365E+02  0.21380450289E+02 -0.43871001148E+02  0.56109935703E+02  0.00000000000E+00 0. -1.
          1    1    1    2  501    0  0.15405215146E+03 -0.19679609289E+03 -0.21108060864E+04  0.21255500704E+04  0.00000000000E+00 0.  1.
<mgrwt>
<rscale>  4 0.27531906E+03</rscale>
<asrwt>0</asrwt>
<pdfrwt beam="1">  1       21 0.92688934E-02 0.27531906E+03</pdfrwt>
<pdfrwt beam="2">  1        1 0.38486474E+00 0.27531906E+03</pdfrwt>
<totfact> 0.16198133E+03</totfact>
</mgrwt>
</event>
<event>
 5    0  0.2306346E+000  0.3290988E+03  0.7546771E-02  0.1071536E+00
         21   -1    0    0  503  502  0.00000000000E+00  0.00000000000E+00  0.63285498816E+03  0.63285498816E+03  0.00000000000E+00 0. -1.
          2   -1    0    0  502    0 -0.00000000000E+00 -0.00000000000E+00 -0.17707424228E+03  0.17707424228E+03  0.00000000000E+00 0. -1.
         25    1    1    2    0    0  0.95097359856E+02  0.28920147015E+03  0.12001410338E+03  0.35029899115E+03  0.12500000000E+03 0.  0.
         21    1    1    2  503  501 -0.28851909547E+02 -0.29563811960E+02  0.75605038605E+02  0.86154358709E+02  0.00000000000E+00 0.  1.
          2    1    1    2  501    0 -0.66245450309E+02 -0.25963765819E+03  0.26016160389E+03  0.37347588059E+03  0.00000000000E+00 0. -1.
<mgrwt>
<rscale>  4 0.32909877E+03</rscale>
<asrwt>0</asrwt>
<pdfrwt beam="1">  1       21 0.97362305E-01 0.32909877E+03</pdfrwt>
<pdfrwt beam="2">  1        2 0.27242191E-01 0.32909877E+03</pdfrwt>
<totfact> 0.20061084E+03</totfact>
</mgrwt>
</event>
<event>
 5    0  0.2306346E+000  0.2236126E+03  0.7546771E-02  0.1131218E+00
          2   -1    0    0  502    0 -0.00000000000E+00  0.00000000000E+00  0.38209835723E+03  0.38209835723E+03  0.00000000000E+00 0. -1.
         21   -1    0    0  503  502  0.00000000000E+00 -0.00000000000E+00 -0.43500781812E+03  0.43500781812E+03  0.00000000000E+00 0.  1.
         25    1    1    2    0    0 -0.11929312333E+03 -0.19693447095E+03 -0.32786928439E+03  0.41968714869E+03  0.12500000000E+03 0.  0.
         21    1    1    2  503  501  0.47172626323E+02  0.10740366498E+03  0.21713868006E+02  0.11929918688E+03  0.00000000000E+00 0.  1.
          2    1    1    2  501    0  0.72120497006E+02  0.89530805969E+02  0.25324595549E+03  0.27811983978E+03  0.00000000000E+00 0. -1.
<mgrwt>
<rscale>  4 0.22361259E+03</rscale>
<asrwt>0</asrwt>
<pdfrwt beam="1">  1       21 0.66924280E-01 0.22361259E+03</pdfrwt>
<pdfrwt beam="2">  1        2 0.58784362E-01 0.22361259E+03</pdfrwt>
<totfact> 0.21116622E+03</totfact>
</mgrwt>
</event>
<event>
 5    0  0.2306346E+000  0.2789603E+03  0.7546771E-02  0.1096258E+00
          1   -1    0    0  502    0 -0.00000000000E+00  0.00000000000E+00  0.15372969616E+04  0.15372969616E+04  0.00000000000E+00 0.  1.
         21   -1    0    0  503  502  0.00000000000E+00 -0.00000000000E+00 -0.13321805767E+03  0.13321805767E+03  0.00000000000E+00 0. -1.
         25    1    1    2    0    0 -0.14363121523E+03 -0.16221457006E+03  0.26528220048E+03  0.36461368408E+03  0.12500000000E+03 0.  0.
         21    1    1    2  503  501 -0.22678128841E+02 -0.35619396923E+02 -0.63434455357E+02  0.76203471649E+02  0.00000000000E+00 0. -1.
          1    1    1    2  501    0  0.16630934407E+03  0.19783396698E+03  0.12022311589E+04  0.12296978636E+04  0.00000000000E+00 0.  1.
<mgrwt>
<rscale>  4 0.27896034E+03</rscale>
<asrwt>0</asrwt>
<pdfrwt beam="1">  1       21 0.20495087E-01 0.27896034E+03</pdfrwt>
<pdfrwt beam="2">  1        1 0.23650721E+00 0.27896034E+03</pdfrwt>
<totfact> 0.16259334E+03</totfact>
</mgrwt>
</event>
<event>
 5    0  0.2306346E+000  0.2809394E+03  0.7546771E-02  0.1095177E+00
          2   -1    0    0  502    0 -0.00000000000E+00  0.00000000000E+00  0.30147756293E+04  0.30147756293E+04  0.00000000000E+00 0. -1.
         21   -1    0    0  503  502  0.00000000000E+00 -0.00000000000E+00 -0.43587387576E+02  0.43587387576E+02  0.00000000000E+00 0. -1.
         25    1    1    2    0    0  0.22329548082E+03  0.11401509951E+03  0.52910276366E+03  0.59869445394E+03  0.12500000000E+03 0.  0.
         21    1    1    2  503  501 -0.12013370900E+02  0.32149502188E+02  0.20150168688E+03  0.20440362371E+03  0.00000000000E+00 0. -1.
          2    1    1    2  501    0 -0.21128210992E+03 -0.14616460170E+03  0.22405837912E+04  0.22552649392E+04  0.00000000000E+00 0. -1.
<mgrwt>
<rscale>  4 0.28093942E+03</rscale>
<asrwt>0</asrwt>
<pdfrwt beam="1">  1       21 0.67057543E-02 0.28093942E+03</pdfrwt>
<pdfrwt beam="2">  1        2 0.46381147E+00 0.28093942E+03</pdfrwt>
<totfact> 0.41869830E+03</totfact>
</mgrwt>
</event>
<event>
 5    0  0.2306346E+000  0.2365984E+03  0.7546771E-02  0.1122080E+00
         21   -1    0    0  503  502  0.00000000000E+00  0.00000000000E+00  0.92366073371E+02  0.92366073371E+02  0.00000000000E+00 0.  1.
          2   -1    0    0  502    0 -0.00000000000E+00 -0.00000000000E+00 -0.23503519609E+04  0.23503519609E+04  0.00000000000E+00 0.  1.
         25    1    1    2    0    0 -0.17099128750E+03  0.11057717022E+03 -0.81975508137E+02  0.25260703654E+03  0.12500000000E+03 0.  0.
         21    1    1    2  503  501  0.42126570531E+02 -0.23749487466E+01 -0.11953778610E+03  0.12676581018E+03  0.00000000000E+00 0.  1.
          2    1    1    2  501    0  0.12886471697E+03 -0.10820222147E+03 -0.20564725933E+04  0.20633451875E+04  0.00000000000E+00 0.  1.
<mgrwt>
<rscale>  4 0.23659841E+03</rscale>
<asrwt>0</asrwt>
<pdfrwt beam="1">  1       21 0.14210168E-01 0.23659841E+03</pdfrwt>
<pdfrwt beam="2">  1        2 0.36159254E+00 0.23659841E+03</pdfrwt>
<totfact> 0.26630175E+03</totfact>
</mgrwt>
</event>
<event>
 5    0  0.2306346E+000  0.2019851E+03  0.7546771E-02  0.1148075E+00
         -3   -1    0    0    0  501 -0.00000000000E+00  0.00000000000E+00  0.11520719055E+04  0.11520719055E+04  0.00000000000E+00 0.  1.
         21   -1    0    0  501  502  0.00000000000E+00 -0.00000000000E+00 -0.11797639620E+03  0.11797639620E+03  0.00000000000E+00 0. -1.
         25    1    1    2    0    0  0.22101693511E+03 -0.79149949943E+02  0.20082663560E+03  0.33327096745E+03  0.12500000000E+03 0.  0.
         21    1    1    2  503  502 -0.12563290417E+03  0.42919352322E+02  0.42420796389E+02  0.13937439285E+03  0.00000000000E+00 0. -1.
         -3    1    1    2    0  503 -0.95384030932E+02  0.36230597621E+02  0.79084807731E+03  0.79740294140E+03  0.00000000000E+00 0.  1.
<mgrwt>
<rscale>  4 0.20198507E+03</rscale>
<asrwt>0</asrwt>
<pdfrwt beam="1">  1       21 0.18150216E-01 0.20198507E+03</pdfrwt>
<pdfrwt beam="2">  1       -3 0.17724182E+00 0.20198507E+03</pdfrwt>
<totfact> 0.30376461E+02</totfact>
</mgrwt>
</event>
<event>
 5    0  0.2306346E+000  0.2740805E+03  0.7546771E-02  0.1098967E+00
          2   -1    0    0  502    0 -0.00000000000E+00  0.00000000000E+00  0.99603387966E+03  0.99603387966E+03  0.00000000000E+00 0.  1.
         21   -1    0    0  503  502  0.00000000000E+00 -0.00000000000E+00 -0.83656284648E+02  0.83656284648E+02  0.00000000000E+00 0.  1.
         25    1    1    2    0    0  0.20342909155E+03 -0.16318653770E+03  0.56307344129E+03  0.63300074381E+03  0.12500000000E+03 0.  0.
         21    1    1    2  503  501 -0.39874867076E+02  0.50870211094E+01  0.16235016220E+02  0.43352722633E+02  0.00000000000E+00 0.  1.
          2    1    1    2  501    0 -0.16355422448E+03  0.15809951659E+03  0.33306913750E+03  0.40333669787E+03  0.00000000000E+00 0.  1.
<mgrwt>
<rscale>  4 0.27408049E+03</rscale>
<asrwt>0</asrwt>
<pdfrwt beam="1">  1       21 0.12870198E-01 0.27408049E+03</pdfrwt>
<pdfrwt beam="2">  1        2 0.15323597E+00 0.27408049E+03</pdfrwt>
<totfact> 0.17071920E+04</totfact>
</mgrwt>
</event>
<event>
 5    0  0.2306346E+000  0.3252519E+03  0.7546771E-02  0.1073257E+00
         21   -1    0    0  503  502  0.00000000000E+00  0.00000000000E+00  0.36496751610E+03  0.36496751610E+03  0.00000000000E+00 0. -1.
          2   -1    0    0  502    0 -0.00000000000E+00 -0.00000000000E+00 -0.21439343002E+04  0.21439343002E+04  0.00000000000E+00 0. -1.
         25    1    1    2    0    0 -0.17062619307E+03 -0.29580327628E+03  0.16356043982E+03  0.39873536775E+03  0.12500000000E+03 0.  0.
         21    1    1    2  503  501  0.61245646960E+02  0.17755399250E+02  0.58751320318E+02  0.86706407567E+02  0.00000000000E+00 0. -1.
          2    1    1    2  501    0  0.10938054612E+03  0.27804787703E+03 -0.20012785443E+04  0.20234600410E+04  0.00000000000E+00 0. -1.
<mgrwt>
<rscale>  4 0.32525186E+03</rscale>
<asrwt>0</asrwt>
<pdfrwt beam="1">  1       21 0.56148848E-01 0.32525186E+03</pdfrwt>
<pdfrwt beam="2">  1        2 0.32983605E+00 0.32525186E+03</pdfrwt>
<totfact> 0.22080139E+02</totfact>
</mgrwt>
</event>
<event>
 5    0  0.2306346E+000  0.2324945E+03  0.7546771E-02  0.1124896E+00
         -2   -1    0    0    0  501 -0.00000000000E+00  0.00000000000E+00  0.21417460650E+03  0.21417460650E+03  0.00000000000E+00 0.  1.
         21   -1    0    0  501  502  0.00000000000E+00 -0.00000000000E+00 -0.45110392149E+03  0.45110392149E+03  0.00000000000E+00 0.  1.
         25    1    1    2    0    0 -0.87143833023E+02  0.20337386588E+03 -0.30957475311E+03  0.40052029252E+03  0.12500000000E+03 0.  0.
         21    1    1    2  503  502  0.25149923880E+02 -0.21587647044E+02 -0.31968666934E+02  0.46049330523E+02  0.00000000000E+00 0.  1.
         -2    1    1    2    0  503  0.61993909143E+02 -0.18178621884E+03  0.10461410505E+03  0.21870890495E+03  0.00000000000E+00 0.  1.
<mgrwt>
<rscale>  4 0.23249454E+03</rscale>
<asrwt>0</asrwt>
<pdfrwt beam="1">  1       21 0.69400602E-01 0.23249454E+03</pdfrwt>
<pdfrwt beam="2">  1       -2 0.32949940E-01 0.23249454E+03</pdfrwt>
<totfact> 0.12883136E+03</totfact>
</mgrwt>
</event>
<event>
 5    0  0.2306346E+000  0.1873353E+03  0.7546771E-02  0.1160887E+00
          2   -1    0    0  502    0 -0.00000000000E+00  0.00000000000E+00  0.11869528927E+04  0.11869528927E+04  0.00000000000E+00 0.  1.
         21   -1    0    0  503  502  0.00000000000E+00 -0.00000000000E+00 -0.61713029481E+03  0.61713029481E+03  0.00000000000E+00 0. -1.
         25    1    1    2    0    0  0.13880344843E+03  0.20037628561E+03 -0.43211158887E+03  0.51162728462E+03  0.12500000000E+03 0.  0.
         21    1    1    2  503  501 -0.65942596422E+02 -0.82478148792E+02 -0.12123024024E+03  0.16077264133E+03  0.00000000000E+00 0. -1.
          2    1    1    2  501    0 -0.72860852009E+02 -0.11789813682E+03  0.11231644270E+04  0.11316832616E+04  0.00000000000E+00 0.  1.
<mgrwt>
<rscale>  4 0.18733529E+03</rscale>
<asrwt>0</asrwt>
<pdfrwt beam="1">  1       21 0.94943122E-01 0.18733529E+03</pdfrwt>
<pdfrwt beam="2">  1        2 0.18260814E+00 0.18733529E+03</pdfrwt>
<totfact> 0.24201557E+02</totfact>
</mgrwt>
</event>
<event>
 5    0  0.2306346E+000  0.2032195E+03  0.7546771E-02  0.1147051E+00
         -3   -1    0    0    0  501 -0.00000000000E+00  0.00000000000E+00  0.11973157015E+03  0.11973157015E+03  0.00000000000E+00 0.  1.
         21   -1    0    0  501  502  0.00000000000E+00 -0.00000000000E+00 -0.66842713575E+03  0.66842713575E+03  0.00000000000E+00 0. -1.
         25    1    1    2    0    0 -0.15108899076E+03  0.15817674246E+03 -0.38503914315E+03  0.46013900806E+03  0.12500000000E+03 0.  0.
         21    1    1    2  503  502  0.59061636588E+02 -0.39757854036E+02 -0.16319070988E+03  0.17804542023E+03  0.00000000000E+00 0. -1.
         -3    1    1    2    0  503  0.92027354176E+02 -0.11841888843E+03 -0.46571257308E+00  0.14997427760E+03  0.00000000000E+00 0.  1.
<mgrwt>
<rscale>  4 0.20321951E+03</rscale>
<asrwt>0</asrwt>
<pdfrwt beam="1">  1       21 0.10283494E+00 0.20321951E+03</pdfrwt>
<pdfrwt beam="2">  1       -3 0.18420242E-01 0.20321951E+03</pdfrwt>
<totfact> 0.98047422E+02</totfact>
</mgrwt>
</event>
<event>
 5    0  0.2306346E+000  0.2234943E+03  0.7546771E-02  0.1131304E+00
         -2   -1    0    0    0  501 -0.00000000000E+00  0.00000000000E+00  0.16458871738E+04  0.16458871738E+04  0.00000000000E+00 0.  1.
         21   -1    0    0  501  502  0.00000000000E+00 -0.00000000000E+00 -0.59764677811E+02  0.59764677811E+02  0.00000000000E+00 0.  1.
         25    1    1    2    0    0 -0.20313650381E+03  0.32438967249E+01  0.13156810318E+04  0.13371299636E+04  0.12500000000E+03 0.  0.
         21    1    1    2  503  502  0.17614486286E+03 -0.51600468712E+02  0.15404920775E+03  0.23962633305E+03  0.00000000000E+00 0.  1.
         -2    1    1    2    0  503  0.26991640951E+02  0.48356571987E+02  0.11639225638E+03  0.12889555493E+03  0.00000000000E+00 0.  1.
<mgrwt>
<rscale>  4 0.22349434E+03</rscale>
<asrwt>0</asrwt>
<pdfrwt beam="1">  1       21 0.91945671E-02 0.22349434E+03</pdfrwt>
<pdfrwt beam="2">  1       -2 0.25321338E+00 0.22349434E+03</pdfrwt>
<totfact> 0.53480874E+02</totfact>
</mgrwt>
</event>
<event>
 5    0  0.2306346E+000  0.2232984E+03  0.7546771E-02  0.1131448E+00
         21   -1    0    0  503  502  0.00000000000E+00  0.00000000000E+00  0.13137684564E+03  0.13137684564E+03  0.00000000000E+00 0. -1.
          2   -1    0    0  502    0 -0.00000000000E+00 -0.00000000000E+00 -0.29810830669E+04  0.29810830669E+04  0.00000000000E+00 0. -1.
         25    1    1    2    0    0 -0.11280310832E+03  0.17691367025E+03 -0.25872205469E+03  0.35578798399E+03  0.12500000000E+03 0.  0.
         21    1    1    2  503  501  0.26832462511E+02 -0.14838785988E+02  0.76743965497E+02  0.82642645494E+02  0.00000000000E+00 0. -1.
          2    1    1    2  501    0  0.85970645810E+02 -0.16207488427E+03 -0.26677281321E+04  0.26740292831E+04  0.00000000000E+00 0. -1.
<mgrwt>
<rscale>  4 0.22329838E+03</rscale>
<asrwt>0</asrwt>
<pdfrwt beam="1">  1       21 0.20211822E-01 0.22329838E+03</pdfrwt>
<pdfrwt beam="2">  1        2 0.45862817E+00 0.22329838E+03</pdfrwt>
<totfact> 0.62222057E+02</totfact>
</mgrwt>
</event>
<event>
 5    0  0.2306346E+000  0.2430920E+03  0.7546771E-02  0.1117750E+00
         21   -1    0    0  501  502  0.00000000000E+00  0.00000000000E+00  0.48191117754E+03  0.48191117754E+03  0.00000000000E+00 0.  1.
         -1   -1    0    0    0  501 -0.00000000000E+00 -0.00000000000E+00 -0.14033109663E+03  0.14033109663E+03  0.00000000000E+00 0.  1.
         25    1    1    2    0    0 -0.11793935563E+03  0.16721676445E+03  0.10495067033E+03  0.26174564203E+03  0.12500000000E+03 0.  0.
         21    1    1    2  503  502  0.34009078579E+02  0.31154602083E+02  0.86226437391E+02  0.97786630794E+02  0.00000000000E+00 0.  1.
         -1    1    1    2    0  503  0.83930277050E+02 -0.19837136653E+03  0.15040297319E+03  0.26271000135E+03  0.00000000000E+00 0.  1.
<mgrwt>
<rscale>  4 0.24309204E+03</rscale>
<asrwt>0</asrwt>
<pdfrwt beam="1">  1       21 0.74140180E-01 0.24309204E+03</pdfrwt>
<pdfrwt beam="2">  1       -1 0.21589400E-01 0.24309204E+03</pdfrwt>
<totfact> 0.25946627E+03</totfact>
</mgrwt>
</event>
<event>
 5    0  0.2306346E+000  0.3702077E+03  0.7546771E-02  0.1054614E+00
          2   -1    0    0  502    0 -0.00000000000E+00  0.00000000000E+00  0.71797307175E+03  0.71797307175E+03  0.00000000000E+00 0.  1.
         21   -1    0    0  503  502  0.00000000000E+00 -0.00000000000E+00 -0.83025090393E+03  0.83025090393E+03  0.00000000000E+00 0. -1.
         25    1    1    2    0    0 -0.24287976843E+03 -0.23556479487E+03 -0.59031251600E+03  0.69179131321E+03  0.12500000000E+03 0.  0.
         21    1    1    2  503  501  0.12469960732E+02 -0.26914171255E+02 -0.14185450916E+03  0.14492264939E+03  0.00000000000E+00 0. -1.
          2    1    1    2  501    0  0.23040980770E+03  0.26247896612E+03  0.61988919298E+03  0.71151001308E+03  0.00000000000E+00 0.  1.
<mgrwt>
<rscale>  4 0.37020769E+03</rscale>
<asrwt>0</asrwt>
<pdfrwt beam="1">  1       21 0.12773091E+00 0.37020769E+03</pdfrwt>
<pdfrwt beam="2">  1        2 0.11045740E+00 0.37020769E+03</pdfrwt>
<totfact> 0.20968094E+02</totfact>
</mgrwt>
</event>
