<LesHouchesEvents version="3.0">
  <!--
  <scalesfunctionalform>
    muR  H_T/2 := sum_i mT(i)/2, i=final state
    muF1 H_T/2 := sum_i mT(i)/2, i=final state
    muF2 H_T/2 := sum_i mT(i)/2, i=final state
    QES  H_T/2 := sum_i mT(i)/2, i=final state
  </scalesfunctionalform>
HERWIG6   
  -->
  <header>
      180
  </header>
  <init>
   2212   2212 0.65000000D+04 0.65000000D+04 -1 -1   247000   247000 -3   1
 0.33008898D-01 0.77157776D-03 0.39191994D-03     66
  </init>
  <event>
  5     66 0.39191994E-03 0.43243759E+02 0.75467711E-02 0.11824302E+00
       -2 -1    0    0    0  501 0.00000000E+00 0.00000000E+00 0.52326047E+03 0.52326057E+03 0.32000000E+00 0.0000E+00 0.9000E+01
        1 -1    0    0  502    0 0.00000000E+00 0.00000000E+00 -.36715999E+02 0.36717393E+02 0.32000000E+00 0.0000E+00 0.9000E+01
       25  1    1    2    0    0 -.10539289E+02 -.20845598E+02 0.17707983E+03 0.21800890E+03 0.12500000E+03 0.0000E+00 0.9000E+01
      -24  1    1    2    0    0 0.50003457E+02 0.38513333E+02 0.21376438E+03 0.23695157E+03 0.80419002E+02 0.0000E+00 0.9000E+01
       21  1    1    2  502  501 -.39464168E+02 -.17667735E+02 0.95700269E+02 0.10501749E+03 0.75000000E+00 0.0000E+00 0.9000E+01
#aMCatNLO 1  0  0  2  5 0.35262422D+02 0.00000000D+00  -5  6  0 0.00000000D+00 0.00000000D+00 0.00000000D+00 0.00000000D+00 0.00000000D+00
  <mgrwgt>
 0.6447186460D-01    4    2    0
 0.138608977905692D+03 0.000000000000000D+00 0.000000000000000D+00 0.138608977905692D+03
 0.138608977905692D+03 0.000000000000000D+00 0.000000000000000D+00 -.138608977905692D+03
 0.129583554978261D+03 -.105366293973337D+02 -.208444067788164D+02 -.249276526730135D+02
 0.103464237163129D+03 0.500055807694503D+02 0.385142833878024D+02 0.159287251345417D+02
 0.441701636699929D+02 -.394689513721166D+02 -.176698766089860D+02 0.899892753847178D+01
 0.000000000000000D+00 0.000000000000000D+00 0.000000000000000D+00 0.000000000000000D+00
 0.182128370635670D+03 0.000000000000000D+00 0.000000000000000D+00 0.182128370635670D+03
 0.158616916398300D+03 0.000000000000000D+00 0.000000000000000D+00 -.158616916398300D+03
 0.136276992788295D+03 -.147897828239300D+02 -.458943702392311D+02 -.249276526730135D+02
 0.964322940884917D+02 0.468076989325255D+02 0.196795941276509D+02 0.159287251345417D+02
 0.496194268297762D+02 -.409693677428954D+02 -.265069373715684D+02 0.899892753847178D+01
 0.584165733274072D+02 0.895145163429996D+01 0.527217134831486D+02 0.235114542373693D+02
0.273044614353D-03 0.000000000000D+00 0.000000000000D+00 0.127953121684D-04 0.000000000000D+00  6 -2 1 25 -24 21 21 2 0.80501726D-01 0.56487300D-02 0.18582845D+05 0.18582845D+05 0.18582845D+05 0.12373555D+01  1  2  2  2  6  2        1 0.698041627618D-01 0.100000000000D+01
0.939571959360D-05 0.144089601632D-04 -.104856321341D-05 0.127953121684D-04 0.000000000000D+00  6 -2 1 25 -24 21 21 4 0.80501726D-01 0.56487300D-02 0.18582845D+05 0.18582845D+05 0.18582845D+05 0.12373555D+01  1  2  3  2  6  2        1 0.367761885602D-02 0.100000000000D+01
0.125091548393D-04 0.000000000000D+00 0.000000000000D+00 0.127953121684D-04 0.000000000000D+00  6 -2 1 25 -24 21 21 4 0.80501726D-01 0.56487300D-02 0.18582845D+05 0.18582845D+05 0.18582845D+05 0.12373555D+01  1  2 15  2  6  2        1 0.489626188306D-02 0.100000000000D+01
-.355280312274D-04 0.000000000000D+00 0.000000000000D+00 0.127953121684D-04 0.000000000000D+00  6 -2 1 25 -24 21 21 4 0.80501726D-01 0.56487300D-02 0.18582845D+05 0.18582845D+05 0.18582845D+05 0.12373555D+01  1  2  4  2  6  2        1 -.139061788996D-01 0.100000000000D+01
  </mgrwgt>
  </event>
  <event>
  5     66 0.39191994E-03 0.48313824E+02 0.75467711E-02 0.11283725E+00
       -2 -1    0    0    0  501 0.00000000E+00 0.00000000E+00 0.16099942E+03 0.16099974E+03 0.32000000E+00 0.0000E+00 0.9000E+01
        1 -1    0    0  502    0 0.00000000E+00 0.00000000E+00 -.28630148E+03 0.28630166E+03 0.32000000E+00 0.0000E+00 0.9000E+01
       25  1    1    2    0    0 -.21603771E+02 0.43006307E+02 -.41474447E+01 0.13400920E+03 0.12500000E+03 0.0000E+00 0.9000E+01
      -24  1    1    2    0    0 0.69101086E+02 -.34163956E+02 0.59496913E+02 0.12629028E+03 0.80419002E+02 0.0000E+00 0.9000E+01
       21  1    1    2  502  501 -.47497315E+02 -.88423509E+01 -.18065152E+03 0.18700192E+03 0.75000000E+00 0.0000E+00 0.9000E+01
#aMCatNLO 1  0  0  1  5 0.20737779D+03 0.00000000D+00  -5  6  0 0.00000000D+00 0.00000000D+00 0.00000000D+00 0.00000000D+00 0.00000000D+00
  <mgrwgt>
 0.5892394394D-01    7    4    0
 0.214696260971734D+03 0.000000000000000D+00 0.000000000000000D+00 0.214696260971734D+03
 0.214696260971734D+03 0.000000000000000D+00 0.000000000000000D+00 -.214696260971734D+03
 0.138388243521567D+03 -.216035578642284D+02 0.430063466426608D+02 0.347857209360790D+02
 0.148919988647890D+03 0.691013151922086D+02 -.341639133599877D+02 0.988320915854530D+02
 0.142084289774012D+03 -.474977573279803D+02 -.884243328267317D+01 -.133617812521532D+03
 0.000000000000000D+00 0.000000000000000D+00 -.000000000000000D+00 0.000000000000000D+00
 0.348627621312569D+03 0.000000000000000D+00 0.000000000000000D+00 0.348627621312569D+03
 0.260462801601323D+03 0.000000000000000D+00 0.000000000000000D+00 -.260462801601323D+03
 0.159206008002066D+03 -.299559755486095D+02 0.872590747821816D+02 0.347857209360790D+02
 0.141531990841958D+03 0.609493558128391D+02 0.902674781758275D+01 0.988320915854530D+02
 0.148781501997884D+03 -.556613309539452D+02 0.344097624249647D+02 -.133617812521532D+03
 0.159570922071983D+03 0.246679506897156D+02 -.130695585024729D+03 0.881648197112457D+02
 0.214696260971734D+03 0.000000000000000D+00 0.000000000000000D+00 0.214696260971734D+03
 0.214696260971734D+03 0.000000000000000D+00 0.000000000000000D+00 -.214696260971734D+03
 0.138388243521567D+03 -.216035578642284D+02 0.430063466426608D+02 0.347857209360790D+02
 0.148919988647890D+03 0.691013151922086D+02 -.341639133599877D+02 0.988320915854530D+02
 0.000000000000000D+00 0.000000000000000D+00 -.000000000000000D+00 0.000000000000000D+00
 0.142084289774012D+03 -.474977573279803D+02 -.884243328267317D+01 -.133617812521532D+03
 0.348627621312569D+03 0.000000000000000D+00 0.000000000000000D+00 0.348627621312569D+03
 0.260462801601323D+03 0.000000000000000D+00 0.000000000000000D+00 -.260462801601323D+03
 0.159206008002066D+03 -.299559755486095D+02 0.872590747821816D+02 0.347857209360790D+02
 0.141531990841958D+03 0.609493558128391D+02 0.902674781758275D+01 0.988320915854530D+02
 0.159570922071983D+03 0.246679506897156D+02 -.130695585024729D+03 0.881648197112457D+02
 0.148781501997884D+03 -.556613309539452D+02 0.344097624249647D+02 -.133617812521532D+03
0.308404339982D-03 0.000000000000D+00 0.000000000000D+00 0.137410276467D-04 0.000000000000D+00  6 -2 1 25 -24 21 21 2 0.24769180D-01 0.44046420D-01 0.21558493D+05 0.21558493D+05 0.21558493D+05 0.12302544D+01  1  2  2  1  6  1       -2 0.544087553080D-01 0.100000000000D+01
0.110244194256D-04 0.162749441497D-04 -.118435387026D-05 0.137410276467D-04 0.000000000000D+00  6 -2 1 25 -24 21 21 4 0.24769180D-01 0.44046420D-01 0.21558493D+05 0.21558493D+05 0.21558493D+05 0.12302544D+01  1  2  3  1  6  1       -2 0.294370233032D-02 0.100000000000D+01
0.149971768186D-04 0.000000000000D+00 0.000000000000D+00 0.137410276467D-04 0.000000000000D+00  6 -2 1 25 -24 21 21 4 0.24769180D-01 0.44046420D-01 0.21558493D+05 0.21558493D+05 0.21558493D+05 0.12302544D+01  1  2 15  1  6  1       -2 0.400449426356D-02 0.100000000000D+01
-.216863191176D-03 0.000000000000D+00 0.000000000000D+00 0.137410276467D-04 0.000000000000D+00  6 -2 1 25 -24 21 21 4 0.24769180D-01 0.44046420D-01 0.21558493D+05 0.21558493D+05 0.21558493D+05 0.12302544D+01  1  2  4  1  6  1       -2 -.579060589568D-01 0.100000000000D+01
-.175294641935D-03 0.000000000000D+00 -.180904068856D-03 0.137410276467D-04 0.000000000000D+00  6 -2 1 25 -24 21 21 4 0.47719593D-01 0.44046420D-01 0.21558493D+05 0.21558493D+05 0.21558493D+05 0.12302544D+01  1  2  5  1  6  1       -2 -.139398010786D-01 0.100000000000D+01
0.267321350687D-03 0.000000000000D+00 0.147940779372D-03 0.137410276467D-04 0.000000000000D+00  6 -2 1 25 -24 21 21 4 0.24769180D-01 0.44046420D-01 0.21558493D+05 0.21558493D+05 0.21558493D+05 0.12302544D+01  1  2  6  1  6  1       -2 0.713792221233D-01 0.100000000000D+01
-.198331797750D-05 0.000000000000D+00 -.128697012761D-04 0.137410276467D-04 0.000000000000D+00  6 21 1 25 -24 2 21 4 0.47719593D-01 0.44046420D-01 0.21558493D+05 0.21558493D+05 0.21558493D+05 0.12302544D+01  3  4  5  4  5  1       -2 -.196637004871D-02 0.100000000000D+01
  </mgrwgt>
  </event>
  <event>
  5     66 0.39191994E-03 0.24687554E+02 0.75467711E-02 0.11085555E+00
       -2 -1    0    0    0  501 0.00000000E+00 0.00000000E+00 0.45187907E+02 0.45189040E+02 0.32000000E+00 0.0000E+00 0.9000E+01
        1 -1    0    0  502    0 0.00000000E+00 0.00000000E+00 -.45826240E+03 0.45826251E+03 0.32000000E+00 0.0000E+00 0.9000E+01
       25  1    1    2    0    0 0.12917521E+02 0.28068660E+02 -.95594498E+02 0.16036839E+03 0.12500000E+03 0.0000E+00 0.9000E+01
      -24  1    1    2    0    0 0.11760458E+02 -.27442955E+02 -.14219207E+03 0.16606392E+03 0.80419002E+02 0.0000E+00 0.9000E+01
       21  1    1    2  502  501 -.24677980E+02 -.62570460E+00 -.17528793E+03 0.17701925E+03 0.75000000E+00 0.0000E+00 0.9000E+01
#aMCatNLO 1  0  0  1  2 0.21371693D+03 0.00000000D+00  -5  6  0 0.00000000D+00 0.00000000D+00 0.00000000D+00 0.00000000D+00 0.00000000D+00
  <mgrwgt>
 0.2264580225D+00    5    4    0
 0.143903551844345D+03 0.000000000000000D+00 0.000000000000000D+00 0.143903551844345D+03
 0.143903551844345D+03 0.000000000000000D+00 0.000000000000000D+00 -.143903551844345D+03
 0.143326446587507D+03 0.129185464138512D+02 0.280686856452085D+02 0.629502210965554D+02
 0.864092549072892D+02 0.117610764009052D+02 -.274429393875018D+02 -.103877590907914D+02
 0.580714021938945D+02 -.246796228147564D+02 -.625746257706769D+00 -.525624620057640D+02
 0.000000000000000D+00 0.000000000000000D+00 0.000000000000000D+00 0.000000000000000D+00
 0.346022309588231D+03 0.000000000000000D+00 0.000000000000000D+00 0.346022309588231D+03
 0.231361579425747D+03 0.000000000000000D+00 0.000000000000000D+00 -.231361579425747D+03
 0.159792000683853D+03 -.771016743949449D+02 0.104161026254118D+01 0.629502210965554D+02
 0.102478526639161D+03 -.443348819809114D+02 -.442848187144650D+02 -.103877590907914D+02
 0.867676159766752D+02 -.676939642869254D+02 -.135400874919210D+02 -.525624620057640D+02
 0.228345745714290D+03 0.189130520662782D+03 0.567832959438449D+02 0.114660730162484D+03
 0.143903551844345D+03 0.000000000000000D+00 0.000000000000000D+00 0.143903551844345D+03
 0.143903551844345D+03 0.000000000000000D+00 0.000000000000000D+00 -.143903551844345D+03
 0.143326446587507D+03 0.129185464138512D+02 0.280686856452085D+02 0.629502210965554D+02
 0.864092549072892D+02 0.117610764009052D+02 -.274429393875018D+02 -.103877590907914D+02
 0.000000000000000D+00 0.000000000000000D+00 0.000000000000000D+00 0.000000000000000D+00
 0.580714021938945D+02 -.246796228147564D+02 -.625746257706769D+00 -.525624620057640D+02
 0.346022309588231D+03 0.000000000000000D+00 0.000000000000000D+00 0.346022309588231D+03
 0.231361579425747D+03 0.000000000000000D+00 0.000000000000000D+00 -.231361579425747D+03
 0.159792000683853D+03 -.771016743949449D+02 0.104161026254118D+01 0.629502210965554D+02
 0.102478526639161D+03 -.443348819809114D+02 -.442848187144650D+02 -.103877590907914D+02
 0.228345745714290D+03 0.189130520662782D+03 0.567832959438449D+02 0.114660730162484D+03
 0.867676159766752D+02 -.676939642869254D+02 -.135400874919210D+02 -.525624620057640D+02
0.187439255895D-03 0.000000000000D+00 0.000000000000D+00 0.428818239311D-04 0.000000000000D+00  6 -2 1 25 -24 21 21 2 0.69520815D-02 0.70502004D-01 0.14308046D+05 0.14308046D+05 0.14308046D+05 0.12501676D+01  1  2  2  1  6  1       -2 0.146895926202D+00 0.100000000000D+01
0.175023285651D-04 0.989144128560D-05 -.719816096528D-06 0.428818239311D-04 0.000000000000D+00  6 -2 1 25 -24 21 21 4 0.69520815D-02 0.70502004D-01 0.14308046D+05 0.14308046D+05 0.14308046D+05 0.12501676D+01  1  2  3  1  6  1       -2 0.214378640519D-01 0.100000000000D+01
0.918314602457D-05 0.000000000000D+00 0.000000000000D+00 0.428818239311D-04 0.000000000000D+00  6 -2 1 25 -24 21 21 4 0.69520815D-02 0.70502004D-01 0.14308046D+05 0.14308046D+05 0.14308046D+05 0.12501676D+01  1  2 15  1  6  1       -2 0.112480482418D-01 0.100000000000D+01
0.968135334147D-04 0.000000000000D+00 -.121683108008D-03 0.428818239311D-04 0.000000000000D+00  6 -2 1 25 -24 21 21 4 0.26534705D-01 0.70502004D-01 0.14308046D+05 0.14308046D+05 0.14308046D+05 0.12501676D+01  1  2  5  1  6  1       -2 0.135153210641D-01 0.100000000000D+01
0.177128894590D-04 0.000000000000D+00 -.193263553051D-04 0.428818239311D-04 0.000000000000D+00  6 21 1 25 -24 2 21 4 0.26534705D-01 0.70502004D-01 0.14308046D+05 0.14308046D+05 0.14308046D+05 0.12501676D+01  3  4  5  4  5  1       -2 0.333608629626D-01 0.100000000000D+01
  </mgrwgt>
  </event>
  <event>
  5     66 0.39191994E-03 0.98105418E+02 0.75467711E-02 0.11753776E+00
       -2 -1    0    0    0  501 0.00000000E+00 0.00000000E+00 0.99495037E+02 0.99495552E+02 0.32000000E+00 0.0000E+00 0.9000E+01
        1 -1    0    0  502    0 -.00000000E+00 -.00000000E+00 -.31443548E+03 0.31443564E+03 0.32000000E+00 0.0000E+00 0.9000E+01
       25  1    1    2    0    0 0.82716400E+02 -.69586736E+02 -.57887333E+02 0.17510071E+03 0.12500000E+03 0.0000E+00 0.9000E+01
      -24  1    1    2    0    0 -.30353841E+01 0.12357256E+02 -.79212759E+02 0.11359486E+03 0.80419002E+02 0.0000E+00 0.9000E+01
       21  1    1    2  502  501 -.79681016E+02 0.57229480E+02 -.77840350E+02 0.12523562E+03 0.75000000E+00 0.0000E+00 0.9000E+01
#aMCatNLO 1  0  0  5  2 0.21082726D+03 0.00000000D+00  -5  6  0 0.00000000D+00 0.00000000D+00 0.00000000D+00 0.00000000D+00 0.00000000D+00
  <mgrwgt>
 0.3360591137D-02    1    2    0
 0.176875407817085D+03 0.000000000000000D+00 0.000000000000000D+00 0.176875407817085D+03
 0.176875407817085D+03 -.000000000000000D+00 -.000000000000000D+00 -.176875407817085D+03
 0.169717310412148D+03 0.827174913614509D+02 -.695875201165863D+02 0.386569414261569D+02
 0.847896102510896D+02 -.303483875040211D+01 0.123568638941509D+02 -.236676936058762D+02
 0.992438949709324D+02 -.796826526110488D+02 0.572306562224354D+02 -.149892478202807D+02
 0.000000000000000D+00 0.000000000000000D+00 0.000000000000000D+00 0.000000000000000D+00
 0.176875407817085D+03 0.000000000000000D+00 0.000000000000000D+00 0.176875407817085D+03
 0.176875407817085D+03 -.000000000000000D+00 -.000000000000000D+00 -.176875407817085D+03
 0.154618441244866D+03 0.630890488364075D+02 -.554897383595465D+02 0.349645996215968D+02
 0.877503275818967D+02 -.134767657835056D+02 0.198565933427717D+02 -.256319433753269D+02
 0.586670847767089D+02 -.565623136267865D+02 -.141957754932556D+02 0.640401995059880D+01
 0.527149620306981D+02 0.695003057388457D+01 0.498289205100303D+02 -.157366761968687D+02
0.654021028295D-05 0.000000000000D+00 0.000000000000D+00 0.255485943674D-05 0.000000000000D+00  6 -2 1 25 -24 21 21 4 0.15306981D-01 0.48374741D-01 0.29718484D+05 0.29718484D+05 0.29718484D+05 0.12153284D+01  1  2 14  3  6  5       21 0.336059113750D-02 0.100000000000D+01
  </mgrwgt>
  </event>
  <event>
  5     66 0.39191994E-03 0.27728582E+02 0.75467711E-02 0.11353423E+00
       -2 -1    0    0    0  501 0.00000000E+00 0.00000000E+00 0.99474650E+02 0.99475165E+02 0.32000000E+00 0.0000E+00 0.9000E+01
        1 -1    0    0  502    0 -.00000000E+00 -.00000000E+00 -.53142844E+03 0.53142854E+03 0.32000000E+00 0.0000E+00 0.9000E+01
       25  1    1    2    0    0 -.40779616E+02 0.15587985E+03 -.11036627E+03 0.23187759E+03 0.12500000E+03 0.0000E+00 0.9000E+01
      -24  1    1    2    0    0 0.52106187E+02 -.18118344E+03 -.25690281E+03 0.32864687E+03 0.80419002E+02 0.0000E+00 0.9000E+01
       21  1    1    2  502  501 -.11326571E+02 0.25303593E+02 -.64684716E+02 0.70379244E+02 0.75000000E+00 0.0000E+00 0.9000E+01
#aMCatNLO 1  0  0  5  2 0.41609090D+01 0.00000000D+00  -5  6  0 0.00000000D+00 0.00000000D+00 0.00000000D+00 0.00000000D+00 0.00000000D+00
  <mgrwgt>
 0.1058356754D+00   25    2    0
 0.229921402605593D+03 0.000000000000000D+00 0.000000000000000D+00 0.229921402605593D+03
 0.229921402605593D+03 -.000000000000000D+00 -.000000000000000D+00 -.229921402605593D+03
 0.214461692840952D+03 -.407784564261580D+02 0.155877259880794D+03 0.663943901226768D+02
 0.209583148102822D+03 0.521073207257906D+02 -.181185975836732D+03 -.437532776051105D+02
 0.357979642674123D+02 -.113288642996326D+02 0.253087159559378D+02 -.226411125175662D+02
 0.000000000000000D+00 0.000000000000000D+00 0.000000000000000D+00 -.000000000000000D+00
 0.229921402605593D+03 0.000000000000000D+00 0.000000000000000D+00 0.229921402605593D+03
 0.229921402605593D+03 -.000000000000000D+00 -.000000000000000D+00 -.229921402605593D+03
 0.214925115647427D+03 -.411637318262831D+02 0.156737966250707D+03 0.656244044070948D+02
 0.208923547466892D+03 0.517318077118760D+02 -.180347078666145D+03 -.445037528667947D+02
 0.311035369717071D+02 -.113234073713626D+02 0.239478675340636D+02 -.163006164982636D+02
 0.489060512516093D+01 0.755331485769689D+00 -.338755118625842D+00 -.482003504203653D+01
0.261086664318D-03 0.000000000000D+00 0.000000000000D+00 0.199484983654D-04 0.000000000000D+00  6 -2 1 25 -24 21 21 2 0.15303839D-01 0.81758269D-01 0.47659103D+05 0.47659103D+05 0.47659103D+05 0.11943496D+01  1  2  2  3  6  5       21 0.449635346728D-01 0.100000000000D+01
0.672727487365D-04 0.137779218031D-04 -.100264153668D-05 0.199484983654D-04 0.000000000000D+00  6 -2 1 25 -24 21 21 4 0.15303839D-01 0.81758269D-01 0.47659103D+05 0.47659103D+05 0.47659103D+05 0.11943496D+01  1  2  3  3  6  5       21 0.165263854279D-01 0.100000000000D+01
0.485861659539D-05 0.000000000000D+00 0.000000000000D+00 0.199484983654D-04 0.000000000000D+00  6 -2 1 25 -24 21 21 4 0.15303839D-01 0.81758269D-01 0.47659103D+05 0.47659103D+05 0.47659103D+05 0.11943496D+01  1  2 15  3  6  5       21 0.119357945096D-02 0.100000000000D+01
0.551292918012D-05 0.000000000000D+00 0.000000000000D+00 0.199518863091D-04 0.000000000000D+00  6 -2 1 25 -24 21 21 4 0.15303839D-01 0.81758269D-01 0.47547471D+05 0.47547471D+05 0.47547471D+05 0.11944510D+01  1  2 12  3  6  5       21 0.135476121786D-02 0.100000000000D+01
0.493895405006D-05 0.000000000000D+00 0.000000000000D+00 0.199518863091D-04 0.000000000000D+00  6 -2 1 25 -24 21 21 4 0.15303839D-01 0.81758269D-01 0.47547471D+05 0.47547471D+05 0.47547471D+05 0.11944510D+01  1  2 12  3  6  5       21 0.121371111168D-02 0.100000000000D+01
-.980754106646D-03 0.000000000000D+00 0.000000000000D+00 0.199484983654D-04 0.000000000000D+00  6 -2 1 25 -24 21 21 4 0.15303839D-01 0.81758269D-01 0.47659103D+05 0.47659103D+05 0.47659103D+05 0.11943496D+01  1  2  4  3  6  5       21 -.240934415210D+00 0.100000000000D+01
-.913260468069D-03 0.000000000000D+00 0.000000000000D+00 0.199484983654D-04 0.000000000000D+00  6 -2 1 25 -24 21 21 4 0.15303839D-01 0.81758269D-01 0.47659103D+05 0.47659103D+05 0.47659103D+05 0.11943496D+01  1  2  5  3  6  5       21 -.224353765453D+00 0.100000000000D+01
0.118074896326D-02 0.000000000000D+00 -.000000000000D+00 0.199484983654D-04 0.000000000000D+00  6 -2 1 25 -24 21 21 4 0.15303839D-01 0.81758269D-01 0.47659103D+05 0.47659103D+05 0.47659103D+05 0.11943496D+01  1  2  6  3  6  5       21 0.290065633216D+00 0.100000000000D+01
0.865681693962D-03 0.000000000000D+00 0.000000000000D+00 0.199484983654D-04 0.975016685429D-04  6 -2 1 25 -24 21 21 4 0.15303839D-01 0.81758269D-01 0.47547471D+05 0.47547471D+05 0.47547471D+05 0.11944510D+01  1  2 11  3  6  5       21 0.212734818038D+00 0.100000000000D+01
0.668381222766D-06 0.000000000000D+00 0.000000000000D+00 0.199518863091D-04 0.000000000000D+00  6 -2 1 25 -24 1 -1 4 0.15303839D-01 0.81758269D-01 0.47547471D+05 0.47547471D+05 0.47547471D+05 0.11944510D+01  1  2 12  6  6  5       21 0.164249699164D-03 0.100000000000D+01
0.640982113910D-06 0.000000000000D+00 0.000000000000D+00 0.199518863091D-04 0.000000000000D+00  6 -2 1 25 -24 1 -1 4 0.15303839D-01 0.81758269D-01 0.47547471D+05 0.47547471D+05 0.47547471D+05 0.11944510D+01  1  2 12  6  6  5       21 0.157516572569D-03 0.100000000000D+01
-.625100264939D-05 0.000000000000D+00 0.000000000000D+00 0.199484983654D-04 0.000000000000D+00  6 -2 1 25 -24 1 -1 4 0.15303839D-01 0.81758269D-01 0.47659103D+05 0.47659103D+05 0.47659103D+05 0.11943496D+01  1  2  5  6  6  5       21 -.153563636145D-02 0.100000000000D+01
0.804241118320D-05 0.000000000000D+00 0.000000000000D+00 0.199484983654D-04 0.126092469444D-06  6 -2 1 25 -24 1 -1 4 0.15303839D-01 0.81758269D-01 0.47547471D+05 0.47547471D+05 0.47547471D+05 0.11944510D+01  1  2 11  6  6  5       21 0.197636254940D-02 0.100000000000D+01
0.668381222766D-06 0.000000000000D+00 0.000000000000D+00 0.199518863091D-04 0.000000000000D+00  6 -2 1 25 -24 2 -2 4 0.15303839D-01 0.81758269D-01 0.47547471D+05 0.47547471D+05 0.47547471D+05 0.11944510D+01  1  2 12  7  6  5       21 0.164249699164D-03 0.100000000000D+01
0.640982113910D-06 0.000000000000D+00 0.000000000000D+00 0.199518863091D-04 0.000000000000D+00  6 -2 1 25 -24 2 -2 4 0.15303839D-01 0.81758269D-01 0.47547471D+05 0.47547471D+05 0.47547471D+05 0.11944510D+01  1  2 12  7  6  5       21 0.157516572569D-03 0.100000000000D+01
-.625100264939D-05 0.000000000000D+00 0.000000000000D+00 0.199484983654D-04 0.000000000000D+00  6 -2 1 25 -24 2 -2 4 0.15303839D-01 0.81758269D-01 0.47659103D+05 0.47659103D+05 0.47659103D+05 0.11943496D+01  1  2  5  7  6  5       21 -.153563636145D-02 0.100000000000D+01
0.810245007502D-05 0.000000000000D+00 0.000000000000D+00 0.199484983654D-04 0.127515267538D-06  6 -2 1 25 -24 2 -2 4 0.15303839D-01 0.81758269D-01 0.47547471D+05 0.47547471D+05 0.47547471D+05 0.11944510D+01  1  2 11  7  6  5       21 0.199111665915D-02 0.100000000000D+01
0.668381222766D-06 0.000000000000D+00 0.000000000000D+00 0.199518863091D-04 0.000000000000D+00  6 -2 1 25 -24 3 -3 4 0.15303839D-01 0.81758269D-01 0.47547471D+05 0.47547471D+05 0.47547471D+05 0.11944510D+01  1  2 12  8  6  5       21 0.164249699164D-03 0.100000000000D+01
0.668381222766D-06 0.000000000000D+00 0.000000000000D+00 0.199518863091D-04 0.000000000000D+00  6 -2 1 25 -24 4 -4 4 0.15303839D-01 0.81758269D-01 0.47547471D+05 0.47547471D+05 0.47547471D+05 0.11944510D+01  1  2 12  8  6  5       21 0.164249699164D-03 0.100000000000D+01
0.640982113910D-06 0.000000000000D+00 0.000000000000D+00 0.199518863091D-04 0.000000000000D+00  6 -2 1 25 -24 3 -3 4 0.15303839D-01 0.81758269D-01 0.47547471D+05 0.47547471D+05 0.47547471D+05 0.11944510D+01  1  2 12  8  6  5       21 0.157516572569D-03 0.100000000000D+01
0.640982113910D-06 0.000000000000D+00 0.000000000000D+00 0.199518863091D-04 0.000000000000D+00  6 -2 1 25 -24 4 -4 4 0.15303839D-01 0.81758269D-01 0.47547471D+05 0.47547471D+05 0.47547471D+05 0.11944510D+01  1  2 12  8  6  5       21 0.157516572569D-03 0.100000000000D+01
-.625100264939D-05 0.000000000000D+00 0.000000000000D+00 0.199484983654D-04 0.000000000000D+00  6 -2 1 25 -24 3 -3 4 0.15303839D-01 0.81758269D-01 0.47659103D+05 0.47659103D+05 0.47659103D+05 0.11943496D+01  1  2  5  8  6  5       21 -.153563636145D-02 0.100000000000D+01
-.625100264939D-05 0.000000000000D+00 0.000000000000D+00 0.199484983654D-04 0.000000000000D+00  6 -2 1 25 -24 4 -4 4 0.15303839D-01 0.81758269D-01 0.47659103D+05 0.47659103D+05 0.47659103D+05 0.11943496D+01  1  2  5  8  6  5       21 -.153563636145D-02 0.100000000000D+01
0.805606154042D-05 0.000000000000D+00 0.000000000000D+00 0.199484983654D-04 0.125763792543D-06  6 -2 1 25 -24 3 -3 4 0.15303839D-01 0.81758269D-01 0.47547471D+05 0.47547471D+05 0.47547471D+05 0.11944510D+01  1  2 11  8  6  5       21 0.197971702285D-02 0.100000000000D+01
0.805606154042D-05 0.000000000000D+00 0.000000000000D+00 0.199484983654D-04 0.125763792543D-06  6 -2 1 25 -24 4 -4 4 0.15303839D-01 0.81758269D-01 0.47547471D+05 0.47547471D+05 0.47547471D+05 0.11944510D+01  1  2 11  8  6  5       21 0.197971702285D-02 0.100000000000D+01
  </mgrwgt>
  </event>
  <event>
  6     66 -.39191994E-03 0.46108294E+02 0.75467711E-02 0.12042481E+00
       -2 -1    0    0    0  503 0.00000000E+00 0.00000000E+00 0.10380360E+03 0.10380410E+03 0.32000000E+00 0.0000E+00 0.9000E+01
        1 -1    0    0  502    0 0.00000000E+00 0.00000000E+00 -.45083380E+03 0.45083392E+03 0.32000000E+00 0.0000E+00 0.9000E+01
       25  1    1    2    0    0 0.15891336E+02 0.32671813E+02 -.20563276E+03 0.24337176E+03 0.12500000E+03 0.0000E+00 0.9000E+01
      -24  1    1    2    0    0 -.36430477E+02 -.75434637E+02 -.20265087E+03 0.23356402E+03 0.80419002E+02 0.0000E+00 0.9000E+01
       21  1    1    2  502  501 0.15335100E+02 0.35807704E+02 0.47736910E+02 0.61617628E+02 0.75000000E+00 0.0000E+00 0.9000E+01
       21  1    1    2  501  503 0.52040412E+01 0.69551196E+01 0.13516516E+02 0.16084602E+02 0.75000000E+00 0.0000E+00 0.9000E+01
#aMCatNLO 2  0  0  1  5 0.86865260D+01 0.00000000D+00  -5  6  0 0.00000000D+00 0.00000000D+00 0.00000000D+00 0.00000000D+00 0.00000000D+00
  <mgrwgt>
 -.1596719249D+00    2    2    0
 0.199981491567997D+03 0.000000000000000D+00 0.000000000000000D+00 0.199981491567997D+03
 0.199981491567997D+03 0.000000000000000D+00 0.000000000000000D+00 -.199981491567997D+03
 0.143109501680770D+03 0.177477900111073D+02 0.351528385110249D+02 -.574858536133706D+02
 0.130030895720949D+03 -.347274934341498D+02 -.731587124074978D+02 -.623106883791201D+02
 0.126822585734275D+03 0.169797034230425D+02 0.380058738964729D+02 0.119796541992491D+03
 0.000000000000000D+00 0.000000000000000D+00 0.000000000000000D+00 0.000000000000000D+00
 0.233287025785401D+03 0.000000000000000D+00 0.000000000000000D+00 0.233287025785401D+03
 0.200595843677271D+03 0.000000000000000D+00 0.000000000000000D+00 -.200595843677271D+03
 0.142301040041265D+03 0.158912267956050D+02 0.326715708544671D+02 -.574858536133706D+02
 0.131785595761916D+03 -.364305800278200D+02 -.754348609630146D+02 -.623106883791201D+02
 0.125970664608913D+03 0.153353119899765D+02 0.358081705037104D+02 0.119796541992491D+03
 0.338255690505778D+02 0.520404124223848D+01 0.695511960483714D+01 0.326911821081296D+02
-.134103770154D-02 0.000000000000D+00 0.000000000000D+00 0.193056330338D-04 0.000000000000D+00  6 -2 1 25 -24 21 21 4 0.17164851D-01 0.69145243D-01 0.21599782D+05 0.21599782D+05 0.21599782D+05 0.12301637D+01  1  2 13  1  6  1       -2 -.379507155992D+00 0.100000000000D+01
0.692052036515D-03 0.000000000000D+00 0.000000000000D+00 0.193789000740D-04 0.231162768141D-04  6 -2 1 25 -24 21 21 4 0.15969502D-01 0.69357660D-01 0.21599782D+05 0.21599782D+05 0.21599782D+05 0.12301637D+01  1  2  1  1  6  1       -2 0.219835231122D+00 0.100000000000D+01
  </mgrwgt>
  </event>
  <event>
  6     66 0.39191994E-03 0.25312242E+02 0.75467711E-02 0.12093907E+00
       -2 -1    0    0    0  501 0.00000000E+00 0.00000000E+00 0.10649441E+04 0.10649442E+04 0.32000000E+00 0.0000E+00 0.9000E+01
        1 -1    0    0  503    0 0.00000000E+00 0.00000000E+00 -.54604591E+02 0.54605529E+02 0.32000000E+00 0.0000E+00 0.9000E+01
       25  1    1    2    0    0 0.91436086E+01 0.17804553E+02 0.79019316E+03 0.80026923E+03 0.12500000E+03 0.0000E+00 0.9000E+01
      -24  1    1    2    0    0 -.87899242E+01 -.45677396E+02 0.23273029E+03 0.25058789E+03 0.80419002E+02 0.0000E+00 0.9000E+01
       21  1    1    2  502  501 -.27417052E+02 -.23866497E+00 0.77944365E+00 0.27439420E+02 0.75000000E+00 0.0000E+00 0.9000E+01
       21  1    1    2  503  502 0.27063368E+02 0.28111508E+02 -.13363349E+02 0.41253174E+02 0.75000000E+00 0.0000E+00 0.9000E+01
#aMCatNLO 2  0  0  2  5 0.26622694D+02 0.00000000D+00  -5  6  0 0.00000000D+00 0.00000000D+00 0.00000000D+00 0.00000000D+00 0.00000000D+00
  <mgrwgt>
 0.7634106123D-01    1    2    0
 0.168250652670214D+03 0.000000000000000D+00 0.000000000000000D+00 0.168250652670214D+03
 0.168250652670214D+03 0.000000000000000D+00 0.000000000000000D+00 -.168250652670214D+03
 0.162712027870393D+03 0.220545692273391D+02 0.312149902076657D+02 0.968990421842614D+02
 0.904584732124622D+02 -.138286370065187D+01 -.379837740175427D+02 -.164572178975934D+02
 0.833308042575739D+02 -.206717055266872D+02 0.676878380987702D+01 -.804418242866680D+02
 0.000000000000000D+00 0.000000000000000D+00 0.000000000000000D+00 -.000000000000000D+00
 0.171624675985334D+03 0.000000000000000D+00 0.000000000000000D+00 0.171624675985334D+03
 0.338825654543475D+03 0.000000000000000D+00 0.000000000000000D+00 -.338825654543475D+03
 0.159420922336786D+03 0.914393648144259D+01 0.178043401480553D+02 0.968990421842614D+02
 0.943490580936354D+02 -.878968800668535D+01 -.456774580356868D+02 -.164572178975934D+02
 0.849862907661391D+02 -.274176164845999D+02 -.238390274492402D+00 -.804418242866680D+02
 0.171694059332248D+03 0.270633680098426D+02 0.281115081621239D+02 -.167200978558142D+03
0.184482258137D-02 0.000000000000D+00 0.000000000000D+00 0.524140799912D-04 0.789438049727D-07  6 -2 1 25 -24 21 21 4 0.16383686D+00 0.84007426D-02 0.20439730D+05 0.20439730D+05 0.20439730D+05 0.12327876D+01  1  2  1  2  6  2        1 0.763410612317D-01 0.100000000000D+01
  </mgrwgt>
  </event>
  <event>
  5     66 0.39191994E-03 0.30368003E+02 0.75467711E-02 0.12417053E+00
       -2 -1    0    0    0  501 0.00000000E+00 0.00000000E+00 0.20872517E+03 0.20872542E+03 0.32000000E+00 0.0000E+00 0.9000E+01
        1 -1    0    0  502    0 0.00000000E+00 0.00000000E+00 -.81162987E+02 0.81163618E+02 0.32000000E+00 0.0000E+00 0.9000E+01
       25  1    1    2    0    0 -.26005833E+02 0.14534277E+02 0.82821600E+02 0.15287893E+03 0.12500000E+03 0.0000E+00 0.9000E+01
      -24  1    1    2    0    0 -.42806084E+01 -.16713698E+02 0.61147090E+02 0.10248831E+03 0.80419002E+02 0.0000E+00 0.9000E+01
       21  1    1    2  502  501 0.30286441E+02 0.21794206E+01 -.16406507E+02 0.34521796E+02 0.75000000E+00 0.0000E+00 0.9000E+01
#aMCatNLO 1  0  0  5  1 0.50852959D+01 0.00000000D+00  -5  6  0 0.00000000D+00 0.00000000D+00 0.00000000D+00 0.00000000D+00 0.00000000D+00
  <mgrwgt>
 0.2864382570D+00   25    2    0
 0.130157155705686D+03 0.000000000000000D+00 0.000000000000000D+00 0.130157155705686D+03
 0.130157155705686D+03 -.000000000000000D+00 -.000000000000000D+00 -.130157155705686D+03
 0.129663242209319D+03 -.260077970098299D+02 0.145341359767312D+02 0.173179030583324D+02
 0.841685745489003D+02 -.428188327773861D+01 -.167137896301839D+02 0.178730998715115D+02
 0.464824946531532D+02 0.302896802875685D+02 0.217965365345272D+01 -.351910029298440D+02
 0.000000000000000D+00 0.000000000000000D+00 0.000000000000000D+00 0.000000000000000D+00
 0.130157155705686D+03 0.000000000000000D+00 0.000000000000000D+00 0.130157155705686D+03
 0.130157155705686D+03 -.000000000000000D+00 -.000000000000000D+00 -.130157155705686D+03
 0.129533311397340D+03 -.256305660212294D+02 0.145612816215413D+02 0.168796304618891D+02
 0.840930065662622D+02 -.403699775860517D+01 -.166961676014471D+02 0.175885882180545D+02
 0.191987883893806D+02 0.959104782057658D+01 0.489495909251039D+01 -.158947995522523D+02
 0.274892050583888D+02 0.200765159592579D+02 -.276007311260464D+01 -.185734191276913D+02
0.147774384906D-03 0.000000000000D+00 0.000000000000D+00 0.309584795436D-04 0.000000000000D+00  6 -2 1 25 -24 21 21 2 0.32111632D-01 0.12486681D-01 0.14534541D+05 0.14534541D+05 0.14534541D+05 0.12493862D+01  1  2  2  3  6  5       21 0.824784079240D-01 0.100000000000D+01
0.904186428298D-05 0.779826853682D-05 -.567492547928D-06 0.309584795436D-04 0.000000000000D+00  6 -2 1 25 -24 21 21 4 0.32111632D-01 0.12486681D-01 0.14534541D+05 0.14534541D+05 0.14534541D+05 0.12493862D+01  1  2  3  3  6  5       21 0.787757454013D-02 0.100000000000D+01
0.618829563144D-05 0.000000000000D+00 0.000000000000D+00 0.309584795436D-04 0.000000000000D+00  6 -2 1 25 -24 21 21 4 0.32111632D-01 0.12486681D-01 0.14534541D+05 0.14534541D+05 0.14534541D+05 0.12493862D+01  1  2 15  3  6  5       21 0.539145010226D-02 0.100000000000D+01
0.786858136709D-04 0.000000000000D+00 0.000000000000D+00 0.309467178057D-04 0.000000000000D+00  6 -2 1 25 -24 21 21 4 0.32111632D-01 0.12486681D-01 0.14604138D+05 0.14604138D+05 0.14604138D+05 0.12491489D+01  1  2 12  3  6  5       21 0.685125088511D-01 0.100000000000D+01
0.758841704664D-04 0.000000000000D+00 0.000000000000D+00 0.309467178057D-04 0.000000000000D+00  6 -2 1 25 -24 21 21 4 0.32111632D-01 0.12486681D-01 0.14604138D+05 0.14604138D+05 0.14604138D+05 0.12491489D+01  1  2 12  3  6  5       21 0.660730906651D-01 0.100000000000D+01
-.743625125299D-03 0.000000000000D+00 0.000000000000D+00 0.309584795436D-04 0.000000000000D+00  6 -2 1 25 -24 21 21 4 0.32111632D-01 0.12486681D-01 0.14534541D+05 0.14534541D+05 0.14534541D+05 0.12493862D+01  1  2  4  3  6  5       21 -.647871077372D+00 0.100000000000D+01
-.338771860603D-03 0.000000000000D+00 0.000000000000D+00 0.309584795436D-04 0.000000000000D+00  6 -2 1 25 -24 21 21 4 0.32111632D-01 0.12486681D-01 0.14534541D+05 0.14534541D+05 0.14534541D+05 0.12493862D+01  1  2  5  3  6  5       21 -.295149374120D+00 0.100000000000D+01
0.934143329334D-03 0.000000000000D+00 -.000000000000D+00 0.309584795436D-04 0.000000000000D+00  6 -2 1 25 -24 21 21 4 0.32111632D-01 0.12486681D-01 0.14534541D+05 0.14534541D+05 0.14534541D+05 0.12493862D+01  1  2  6  3  6  5       21 0.813856908011D+00 0.100000000000D+01
0.220638951751D-03 0.000000000000D+00 0.000000000000D+00 0.309584795436D-04 0.733590350961D-05  6 -2 1 25 -24 21 21 4 0.32111632D-01 0.12486681D-01 0.14604138D+05 0.14604138D+05 0.14604138D+05 0.12491489D+01  1  2 11  3  6  5       21 0.192112496897D+00 0.100000000000D+01
0.438813750813D-05 0.000000000000D+00 0.000000000000D+00 0.309467178057D-04 0.000000000000D+00  6 -2 1 25 -24 1 -1 4 0.32111632D-01 0.12486681D-01 0.14604138D+05 0.14604138D+05 0.14604138D+05 0.12491489D+01  1  2 12  6  6  5       21 0.382079431908D-02 0.100000000000D+01
0.423826806972D-05 0.000000000000D+00 0.000000000000D+00 0.309467178057D-04 0.000000000000D+00  6 -2 1 25 -24 1 -1 4 0.32111632D-01 0.12486681D-01 0.14604138D+05 0.14604138D+05 0.14604138D+05 0.12491489D+01  1  2 12  6  6  5       21 0.369030153077D-02 0.100000000000D+01
-.260193105695D-04 0.000000000000D+00 0.000000000000D+00 0.309584795436D-04 0.000000000000D+00  6 -2 1 25 -24 1 -1 4 0.32111632D-01 0.12486681D-01 0.14534541D+05 0.14534541D+05 0.14534541D+05 0.12493862D+01  1  2  5  6  6  5       21 -.226688935024D-01 0.100000000000D+01
0.153799318513D-04 0.000000000000D+00 0.000000000000D+00 0.309584795436D-04 0.328163830429D-06  6 -2 1 25 -24 1 -1 4 0.32111632D-01 0.12486681D-01 0.14604138D+05 0.14604138D+05 0.14604138D+05 0.12491489D+01  1  2 11  6  6  5       21 0.133914573407D-01 0.100000000000D+01
0.438813750813D-05 0.000000000000D+00 0.000000000000D+00 0.309467178057D-04 0.000000000000D+00  6 -2 1 25 -24 2 -2 4 0.32111632D-01 0.12486681D-01 0.14604138D+05 0.14604138D+05 0.14604138D+05 0.12491489D+01  1  2 12  7  6  5       21 0.382079431908D-02 0.100000000000D+01
0.423826806972D-05 0.000000000000D+00 0.000000000000D+00 0.309467178057D-04 0.000000000000D+00  6 -2 1 25 -24 2 -2 4 0.32111632D-01 0.12486681D-01 0.14604138D+05 0.14604138D+05 0.14604138D+05 0.12491489D+01  1  2 12  7  6  5       21 0.369030153077D-02 0.100000000000D+01
-.260193105695D-04 0.000000000000D+00 0.000000000000D+00 0.309584795436D-04 0.000000000000D+00  6 -2 1 25 -24 2 -2 4 0.32111632D-01 0.12486681D-01 0.14534541D+05 0.14534541D+05 0.14534541D+05 0.12493862D+01  1  2  5  7  6  5       21 -.226688935024D-01 0.100000000000D+01
0.154770325748D-04 0.000000000000D+00 0.000000000000D+00 0.309584795436D-04 0.316622705504D-06  6 -2 1 25 -24 2 -2 4 0.32111632D-01 0.12486681D-01 0.14604138D+05 0.14604138D+05 0.14604138D+05 0.12491489D+01  1  2 11  7  6  5       21 0.134760038920D-01 0.100000000000D+01
0.438813750813D-05 0.000000000000D+00 0.000000000000D+00 0.309467178057D-04 0.000000000000D+00  6 -2 1 25 -24 3 -3 4 0.32111632D-01 0.12486681D-01 0.14604138D+05 0.14604138D+05 0.14604138D+05 0.12491489D+01  1  2 12  8  6  5       21 0.382079431908D-02 0.100000000000D+01
0.438813750813D-05 0.000000000000D+00 0.000000000000D+00 0.309467178057D-04 0.000000000000D+00  6 -2 1 25 -24 4 -4 4 0.32111632D-01 0.12486681D-01 0.14604138D+05 0.14604138D+05 0.14604138D+05 0.12491489D+01  1  2 12  8  6  5       21 0.382079431908D-02 0.100000000000D+01
0.423826806972D-05 0.000000000000D+00 0.000000000000D+00 0.309467178057D-04 0.000000000000D+00  6 -2 1 25 -24 3 -3 4 0.32111632D-01 0.12486681D-01 0.14604138D+05 0.14604138D+05 0.14604138D+05 0.12491489D+01  1  2 12  8  6  5       21 0.369030153077D-02 0.100000000000D+01
0.423826806972D-05 0.000000000000D+00 0.000000000000D+00 0.309467178057D-04 0.000000000000D+00  6 -2 1 25 -24 4 -4 4 0.32111632D-01 0.12486681D-01 0.14604138D+05 0.14604138D+05 0.14604138D+05 0.12491489D+01  1  2 12  8  6  5       21 0.369030153077D-02 0.100000000000D+01
-.260193105695D-04 0.000000000000D+00 0.000000000000D+00 0.309584795436D-04 0.000000000000D+00  6 -2 1 25 -24 3 -3 4 0.32111632D-01 0.12486681D-01 0.14534541D+05 0.14534541D+05 0.14534541D+05 0.12493862D+01  1  2  5  8  6  5       21 -.226688935024D-01 0.100000000000D+01
-.260193105695D-04 0.000000000000D+00 0.000000000000D+00 0.309584795436D-04 0.000000000000D+00  6 -2 1 25 -24 4 -4 4 0.32111632D-01 0.12486681D-01 0.14534541D+05 0.14534541D+05 0.14534541D+05 0.12493862D+01  1  2  5  8  6  5       21 -.226688935024D-01 0.100000000000D+01
0.154586527838D-04 0.000000000000D+00 0.000000000000D+00 0.309584795436D-04 0.315980384131D-06  6 -2 1 25 -24 3 -3 4 0.32111632D-01 0.12486681D-01 0.14604138D+05 0.14604138D+05 0.14604138D+05 0.12491489D+01  1  2 11  8  6  5       21 0.134600004278D-01 0.100000000000D+01
0.154586527838D-04 0.000000000000D+00 0.000000000000D+00 0.309584795436D-04 0.315980384131D-06  6 -2 1 25 -24 4 -4 4 0.32111632D-01 0.12486681D-01 0.14604138D+05 0.14604138D+05 0.14604138D+05 0.12491489D+01  1  2 11  8  6  5       21 0.134600004278D-01 0.100000000000D+01
  </mgrwgt>
  </event>
  <event>
  5     66 0.39191994E-03 0.20826904E+02 0.75467711E-02 0.11342595E+00
       -2 -1    0    0    0  501 0.00000000E+00 0.00000000E+00 0.21990680E+02 0.21993008E+02 0.32000000E+00 0.0000E+00 0.9000E+01
        1 -1    0    0  502    0 0.00000000E+00 0.00000000E+00 -.10127320E+04 0.10127321E+04 0.32000000E+00 0.0000E+00 0.9000E+01
       25  1    1    2    0    0 -.20531385E+02 -.70269940E+02 -.37094373E+03 0.39822563E+03 0.12500000E+03 0.0000E+00 0.9000E+01
      -24  1    1    2    0    0 -.29096584E+00 0.69997110E+02 -.34950383E+03 0.36540365E+03 0.80419002E+02 0.0000E+00 0.9000E+01
       21  1    1    2  502  501 0.20822350E+02 0.27283016E+00 -.27029377E+03 0.27109580E+03 0.75000000E+00 0.0000E+00 0.9000E+01
#aMCatNLO 1  0  0  1  2 0.81532644D+00 0.00000000D+00  -5  6  0 0.00000000D+00 0.00000000D+00 0.00000000D+00 0.00000000D+00 0.00000000D+00
  <mgrwgt>
 0.2739878644D+00    3    2    0
 0.149237717082913D+03 0.000000000000000D+00 0.000000000000000D+00 0.149237717082913D+03
 0.149237717082913D+03 0.000000000000000D+00 0.000000000000000D+00 -.149237717082913D+03
 0.149241879339832D+03 -.205329976941095D+02 -.702699608999540D+02 0.358980103863366D+02
 0.106623269754611D+03 -.292118288847190D+00 0.699970945019846D+02 0.127558887563613D+01
 0.426102850713825D+02 0.208251159829567D+02 0.272866397969462D+00 -.371735992619728D+02
 0.000000000000000D+00 -.000000000000000D+00 -.000000000000000D+00 -.000000000000000D+00
 0.208789523381070D+03 0.000000000000000D+00 0.000000000000000D+00 0.208789523381070D+03
 0.262922082915994D+03 0.000000000000000D+00 0.000000000000000D+00 -.262922082915994D+03
 0.130803862165004D+03 -.773815921021103D+01 -.116663661703725D+02 0.358980103863366D+02
 0.147553761231246D+03 0.113208205128834D+02 0.123187289908710D+03 0.127558887563613D+01
 0.488222532418133D+02 0.250025212654077D+02 0.194064386194594D+02 -.371735992619728D+02
 0.144531729659000D+03 -.285851825680800D+02 -.130927362357797D+03 -.541325595349238D+02
0.290709884660D-03 0.000000000000D+00 0.000000000000D+00 0.523268295392D-04 0.000000000000D+00  6 -2 1 25 -24 21 21 2 0.33833645D-02 0.15580511D+00 0.18537193D+05 0.18537193D+05 0.18537193D+05 0.12374741D+01  1  2  2  1  6  1       -2 0.211412431228D+00 0.100000000000D+01
0.473219498856D-04 0.153411820887D-04 -.111640250277D-05 0.523268295392D-04 0.000000000000D+00  6 -2 1 25 -24 21 21 4 0.33833645D-02 0.15580511D+00 0.18537193D+05 0.18537193D+05 0.18537193D+05 0.12374741D+01  1  2  3  1  6  1       -2 0.526993926868D-01 0.100000000000D+01
0.886828991784D-05 0.000000000000D+00 0.000000000000D+00 0.523268295392D-04 0.000000000000D+00  6 -2 1 25 -24 21 21 4 0.33833645D-02 0.15580511D+00 0.18537193D+05 0.18537193D+05 0.18537193D+05 0.12374741D+01  1  2 15  1  6  1       -2 0.987604048375D-02 0.100000000000D+01
  </mgrwgt>
  </event>
  <event>
  5     66 0.39191994E-03 0.37790523E+02 0.75467711E-02 0.10961516E+00
       -4 -1    0    0    0  501 0.00000000E+00 0.00000000E+00 0.50079246E+03 0.50079486E+03 0.15500000E+01 0.0000E+00 0.9000E+01
        3 -1    0    0  502    0 0.00000000E+00 0.00000000E+00 -.19744511E+03 0.19744574E+03 0.50000000E+00 0.0000E+00 0.9000E+01
       25  1    1    2    0    0 -.82481307E+02 0.19204307E+03 0.28035344E+03 0.37135800E+03 0.12500000E+03 0.0000E+00 0.9000E+01
      -24  1    1    2    0    0 0.88654945E+02 -.22932471E+03 0.68625085E+02 0.26763060E+03 0.80419002E+02 0.0000E+00 0.9000E+01
       21  1    1    2  502  501 -.61736379E+01 0.37281633E+02 -.45631172E+02 0.59252007E+02 0.75000000E+00 0.0000E+00 0.9000E+01
#aMCatNLO 1  0  0  5  1 0.21663244D+02 0.00000000D+00  -5  6  0 0.00000000D+00 0.00000000D+00 0.00000000D+00 0.00000000D+00 0.00000000D+00
  <mgrwgt>
 0.1311238987D-01   15    2    0
 0.314452031218414D+03 0.000000000000000D+00 0.000000000000000D+00 0.314452031218414D+03
 0.314452031218414D+03 -.000000000000000D+00 -.000000000000000D+00 -.314452031218414D+03
 0.277073828989009D+03 -.824812080337300D+02 0.192042472662071D+03 0.132141763745475D+03
 0.264036284646053D+03 0.886550397436242D+02 -.229325276373088D+03 -.528974971032084D+02
 0.877939488017657D+02 -.617383170989422D+01 0.372828037110178D+02 -.792442666422668D+02
 0.000000000000000D+00 0.000000000000000D+00 0.000000000000000D+00 -.000000000000000D+00
 0.314452031218414D+03 0.000000000000000D+00 0.000000000000000D+00 0.314452031218414D+03
 0.314452031218414D+03 -.000000000000000D+00 -.000000000000000D+00 -.314452031218414D+03
 0.276493621403100D+03 -.828683982147410D+02 0.194380653583707D+03 0.127171981058309D+03
 0.262976935796914D+03 0.882864227953661D+02 -.227099256297997D+03 -.576288829117666D+02
 0.562568622720242D+02 -.246172047862729D+02 0.261663625052384D+02 -.432914455111938D+02
 0.331766429647889D+02 0.191991802056478D+02 0.655224020905173D+01 -.262516526353490D+02
0.144621270208D-02 0.000000000000D+00 0.000000000000D+00 0.986323191034D-05 0.000000000000D+00  6 -4 3 25 -24 21 21 2 0.77045228D-01 0.30376403D-01 0.72901901D+05 0.72901901D+05 0.72901901D+05 0.11763954D+01  1  2  2  3  6  5       21 0.691995131861D-02 0.100000000000D+01
0.250414893391D-03 0.763187410275D-04 -.555383757252D-05 0.986323191034D-05 0.000000000000D+00  6 -4 3 25 -24 21 21 4 0.77045228D-01 0.30376403D-01 0.72901901D+05 0.72901901D+05 0.72901901D+05 0.11763954D+01  1  2  3  3  6  5       21 0.165820294402D-02 0.100000000000D+01
0.311964004742D-04 0.000000000000D+00 0.000000000000D+00 0.986323191034D-05 0.000000000000D+00  6 -4 3 25 -24 21 21 4 0.77045228D-01 0.30376403D-01 0.72901901D+05 0.72901901D+05 0.72901901D+05 0.11763954D+01  1  2 15  3  6  5       21 0.206577022670D-03 0.100000000000D+01
0.925409858975D-03 0.000000000000D+00 0.000000000000D+00 0.981732258706D-05 0.000000000000D+00  6 -4 3 25 -24 21 21 4 0.77045228D-01 0.30376403D-01 0.77927274D+05 0.77927274D+05 0.77927274D+05 0.11736544D+01  1  2 12  3  6  5       21 0.608712761822D-02 0.100000000000D+01
-.137263329534D-02 0.000000000000D+00 0.000000000000D+00 0.986323191034D-05 0.000000000000D+00  6 -4 3 25 -24 21 21 4 0.77045228D-01 0.30376403D-01 0.72901901D+05 0.72901901D+05 0.72901901D+05 0.11763954D+01  1  2  4  3  6  5       21 -.908933386734D-02 0.100000000000D+01
-.141827544024D-02 0.000000000000D+00 0.000000000000D+00 0.986323191034D-05 0.000000000000D+00  6 -4 3 25 -24 21 21 4 0.77045228D-01 0.30376403D-01 0.72901901D+05 0.72901901D+05 0.72901901D+05 0.11763954D+01  1  2  5  3  6  5       21 -.939156804369D-02 0.100000000000D+01
0.267131348064D-02 0.000000000000D+00 -.000000000000D+00 0.986323191034D-05 0.000000000000D+00  6 -4 3 25 -24 21 21 4 0.77045228D-01 0.30376403D-01 0.72901901D+05 0.72901901D+05 0.72901901D+05 0.11763954D+01  1  2  6  3  6  5       21 0.176889633760D-01 0.100000000000D+01
0.215377221809D-04 0.000000000000D+00 0.000000000000D+00 0.981732258706D-05 0.000000000000D+00  6 -4 3 25 -24 3 -3 4 0.77045228D-01 0.30376403D-01 0.77927274D+05 0.77927274D+05 0.77927274D+05 0.11736544D+01  1  2 12  6  6  5       21 0.141670052733D-03 0.100000000000D+01
-.579225259425D-04 0.000000000000D+00 0.000000000000D+00 0.986323191034D-05 0.000000000000D+00  6 -4 3 25 -24 3 -3 4 0.77045228D-01 0.30376403D-01 0.72901901D+05 0.72901901D+05 0.72901901D+05 0.11763954D+01  1  2  5  6  6  5       21 -.383552678286D-03 0.100000000000D+01
0.215377221809D-04 0.000000000000D+00 0.000000000000D+00 0.981732258706D-05 0.000000000000D+00  6 -4 3 25 -24 4 -4 4 0.77045228D-01 0.30376403D-01 0.77927274D+05 0.77927274D+05 0.77927274D+05 0.11736544D+01  1  2 12  7  6  5       21 0.141670052733D-03 0.100000000000D+01
-.579225259425D-04 0.000000000000D+00 0.000000000000D+00 0.986323191034D-05 0.000000000000D+00  6 -4 3 25 -24 4 -4 4 0.77045228D-01 0.30376403D-01 0.72901901D+05 0.72901901D+05 0.72901901D+05 0.11763954D+01  1  2  5  7  6  5       21 -.383552678286D-03 0.100000000000D+01
0.215377221809D-04 0.000000000000D+00 0.000000000000D+00 0.981732258706D-05 0.000000000000D+00  6 -4 3 25 -24 1 -1 4 0.77045228D-01 0.30376403D-01 0.77927274D+05 0.77927274D+05 0.77927274D+05 0.11736544D+01  1  2 12  8  6  5       21 0.141670052733D-03 0.100000000000D+01
0.215377221809D-04 0.000000000000D+00 0.000000000000D+00 0.981732258706D-05 0.000000000000D+00  6 -4 3 25 -24 2 -2 4 0.77045228D-01 0.30376403D-01 0.77927274D+05 0.77927274D+05 0.77927274D+05 0.11736544D+01  1  2 12  8  6  5       21 0.141670052733D-03 0.100000000000D+01
-.579225259425D-04 0.000000000000D+00 0.000000000000D+00 0.986323191034D-05 0.000000000000D+00  6 -4 3 25 -24 1 -1 4 0.77045228D-01 0.30376403D-01 0.72901901D+05 0.72901901D+05 0.72901901D+05 0.11763954D+01  1  2  5  8  6  5       21 -.383552678286D-03 0.100000000000D+01
-.579225259425D-04 0.000000000000D+00 0.000000000000D+00 0.986323191034D-05 0.000000000000D+00  6 -4 3 25 -24 2 -2 4 0.77045228D-01 0.30376403D-01 0.72901901D+05 0.72901901D+05 0.72901901D+05 0.11763954D+01  1  2  5  8  6  5       21 -.383552678286D-03 0.100000000000D+01
  </mgrwgt>
  </event>
  <event>
  6     66 0.39191994E-03 0.75185903E+02 0.75467711E-02 0.11061398E+00
       -2 -1    0    0    0  501 0.00000000E+00 0.00000000E+00 0.62966415E+02 0.62967228E+02 0.32000000E+00 0.0000E+00 0.9000E+01
        1 -1    0    0  502    0 -.00000000E+00 -.00000000E+00 -.11083677E+04 0.11083677E+04 0.32000000E+00 0.0000E+00 0.9000E+01
       25  1    1    2    0    0 -.34233103E+02 0.19704820E+03 -.41134945E+03 0.47416587E+03 0.12500000E+03 0.0000E+00 0.9000E+01
      -24  1    1    2    0    0 0.10201021E+03 -.13279866E+03 -.36594608E+03 0.41039654E+03 0.80419002E+02 0.0000E+00 0.9000E+01
        1  1    1    2  502    0 -.42584884E+02 -.12825127E+02 -.12086121E+03 0.12878467E+03 0.32000000E+00 0.0000E+00 0.9000E+01
       -1  1    1    2    0  501 -.25192225E+02 -.51424418E+02 -.14724452E+03 0.15798788E+03 0.32000000E+00 0.0000E+00 0.9000E+01
#aMCatNLO 2  0  0  5  2 0.20020210D+02 0.00000000D+00  -5  6  0 0.00000000D+00 0.00000000D+00 0.00000000D+00 0.00000000D+00 0.00000000D+00
  <mgrwgt>
 0.1473964954D-02    3    2    0
 0.264178809033141D+03 0.000000000000000D+00 0.000000000000000D+00 0.264178809033141D+03
 0.264178809033141D+03 -.000000000000000D+00 -.000000000000000D+00 -.264178809033141D+03
 0.239084498176743D+03 -.316738105380109D+02 0.199474293406987D+03 0.272612043793072D+02
 0.185535419226760D+03 0.104004947484428D+03 -.130907742290729D+03 0.151978300577325D+01
 0.103737700662778D+03 -.723311369464175D+02 -.685665511162586D+02 -.287809873850804D+02
 0.000000000000000D+00 0.000000000000000D+00 -.000000000000000D+00 0.000000000000000D+00
 0.264178809033141D+03 0.000000000000000D+00 0.000000000000000D+00 0.264178809033141D+03
 0.264178809033141D+03 -.000000000000000D+00 -.000000000000000D+00 -.264178809033141D+03
 0.237308304404357D+03 -.342280584951402D+02 0.197052985233084D+03 0.262448540033002D+02
 0.185766315558264D+03 0.102014160276027D+03 -.132794915901557D+03 0.727636995765953D+00
 0.460854120953137D+02 -.423523934978097D+02 -.126492835208053D+02 -.130436037739520D+02
 0.591975860083458D+02 -.254337082830766D+02 -.516087858107214D+02 -.139288872251141D+02
-.518528503699D-05 0.000000000000D+00 0.000000000000D+00 0.169853118181D-05 0.000000000000D+00  6 -2 1 25 -24 1 -1 4 0.96872069D-02 0.17051817D+00 0.68474863D+05 0.68474863D+05 0.68474863D+05 0.11789895D+01  1  2 13  6  6  5       21 -.819798813848D-03 0.100000000000D+01
-.508368351184D-05 0.000000000000D+00 0.000000000000D+00 0.169853118181D-05 0.000000000000D+00  6 -2 1 25 -24 1 -1 4 0.96872069D-02 0.17051817D+00 0.68474863D+05 0.68474863D+05 0.68474863D+05 0.11789895D+01  1  2 13  6  6  5       21 -.803735509861D-03 0.100000000000D+01
0.195919003388D-04 0.000000000000D+00 0.000000000000D+00 0.169882162579D-05 0.148900388003D-08  6 -2 1 25 -24 1 -1 4 0.96872069D-02 0.17051817D+00 0.68474863D+05 0.68474863D+05 0.68474863D+05 0.11789895D+01  1  2  1  6  6  5       21 0.309749927810D-02 0.100000000000D+01
  </mgrwgt>
  </event>
  <event>
  5     66 0.39191994E-03 0.39763612E+03 0.75467711E-02 0.99292335E-01
       -2 -1    0    0    0  501 0.00000000E+00 0.00000000E+00 0.68824860E+03 0.68824867E+03 0.32000000E+00 0.0000E+00 0.9000E+01
        1 -1    0    0  502    0 -.00000000E+00 -.00000000E+00 -.86157891E+03 0.86157897E+03 0.32000000E+00 0.0000E+00 0.9000E+01
       25  1    1    2    0    0 0.19053452E+02 -.20474583E+03 0.36097212E+03 0.43383149E+03 0.12500000E+03 0.0000E+00 0.9000E+01
      -24  1    1    2    0    0 -.13109653E+03 -.34609238E+03 -.66147211E+02 0.38445923E+03 0.80419002E+02 0.0000E+00 0.9000E+01
       21  1    1    2  502  501 0.11204308E+03 0.55083821E+03 -.46815523E+03 0.73153692E+03 0.75000000E+00 0.0000E+00 0.9000E+01
#aMCatNLO 1  0  0  5  2 0.25613766D+02 0.00000000D+00  -5  6  0 0.00000000D+00 0.00000000D+00 0.00000000D+00 0.00000000D+00 0.00000000D+00
  <mgrwgt>
 0.6616541604D-02   20    2    0
 0.770052323988747D+03 0.000000000000000D+00 0.000000000000000D+00 0.770052323988747D+03
 0.770052323988747D+03 -.000000000000000D+00 -.000000000000000D+00 -.770052323988747D+03
 0.477195894437013D+03 0.190534310331655D+02 -.204745936281680D+03 0.412076437095769D+03
 0.379441974216797D+03 -.131096545722462D+03 -.346092457052507D+03 -.232959806440327D+02
 0.683466779323684D+03 0.112043114689297D+03 0.550838393334188D+03 -.388780456451737D+03
 0.000000000000000D+00 0.000000000000000D+00 0.000000000000000D+00 0.000000000000000D+00
 0.770052323988747D+03 0.000000000000000D+00 0.000000000000000D+00 0.770052323988747D+03
 0.770052323988747D+03 -.000000000000000D+00 -.000000000000000D+00 -.770052323988747D+03
 0.475946671740060D+03 0.193001727342012D+02 -.203532878232161D+03 0.411220263546682D+03
 0.378536902807148D+03 -.130900326390641D+03 -.345127782500381D+03 -.239768456985416D+02
 0.607461396373441D+03 0.965983726221189D+02 0.474867378873880D+03 -.366304620462506D+03
 0.781596770568449D+02 0.150017810343205D+02 0.737932818586619D+02 -.209387973856348D+02
0.622848630181D-03 0.000000000000D+00 0.000000000000D+00 0.114522313567D-06 0.000000000000D+00  6 -2 1 25 -24 21 21 2 0.10588441D+00 0.13255061D+00 0.34897780D+06 0.34897780D+06 0.34897780D+06 0.11167753D+01  1  2  2  3  6  5       21 0.100110635067D-02 0.100000000000D+01
-.719409419038D-04 0.328686252291D-04 -.239190273971D-05 0.114522313567D-06 0.000000000000D+00  6 -2 1 25 -24 21 21 4 0.10588441D+00 0.13255061D+00 0.34897780D+06 0.34897780D+06 0.34897780D+06 0.11167753D+01  1  2  3  3  6  5       21 -.144213324545D-03 0.100000000000D+01
0.177314465880D-04 0.000000000000D+00 0.000000000000D+00 0.114522313567D-06 0.000000000000D+00  6 -2 1 25 -24 21 21 4 0.10588441D+00 0.13255061D+00 0.34897780D+06 0.34897780D+06 0.34897780D+06 0.11167753D+01  1  2 15  3  6  5       21 0.355445841238D-04 0.100000000000D+01
0.112734265904D-01 0.000000000000D+00 0.000000000000D+00 0.114573487838D-06 0.000000000000D+00  6 -2 1 25 -24 21 21 4 0.10588441D+00 0.13255061D+00 0.34651097D+06 0.34651097D+06 0.34651097D+06 0.11170247D+01  1  2 12  3  6  5       21 0.226256349082D-01 0.100000000000D+01
0.107291558626D-01 0.000000000000D+00 0.000000000000D+00 0.114573487838D-06 0.000000000000D+00  6 -2 1 25 -24 21 21 4 0.10588441D+00 0.13255061D+00 0.34651097D+06 0.34651097D+06 0.34651097D+06 0.11170247D+01  1  2 12  3  6  5       21 0.215332899428D-01 0.100000000000D+01
-.216758926280D-01 0.000000000000D+00 0.000000000000D+00 0.114522313567D-06 0.000000000000D+00  6 -2 1 25 -24 21 21 4 0.10588441D+00 0.13255061D+00 0.34897780D+06 0.34897780D+06 0.34897780D+06 0.11167753D+01  1  2  4  3  6  5       21 -.434516487502D-01 0.100000000000D+01
-.220994601731D-01 0.000000000000D+00 0.000000000000D+00 0.114522313567D-06 0.000000000000D+00  6 -2 1 25 -24 21 21 4 0.10588441D+00 0.13255061D+00 0.34897780D+06 0.34897780D+06 0.34897780D+06 0.11167753D+01  1  2  5  3  6  5       21 -.443007352680D-01 0.100000000000D+01
0.246318842101D-01 0.000000000000D+00 -.000000000000D+00 0.114522313567D-06 0.000000000000D+00  6 -2 1 25 -24 21 21 4 0.10588441D+00 0.13255061D+00 0.34897780D+06 0.34897780D+06 0.34897780D+06 0.11167753D+01  1  2  6  3  6  5       21 0.493772505299D-01 0.100000000000D+01
0.948586694185D-04 0.000000000000D+00 0.000000000000D+00 0.114573487838D-06 0.000000000000D+00  6 -2 1 25 -24 1 -1 4 0.10588441D+00 0.13255061D+00 0.34651097D+06 0.34651097D+06 0.34651097D+06 0.11170247D+01  1  2 12  6  6  5       21 0.190380236650D-03 0.100000000000D+01
0.931132920530D-04 0.000000000000D+00 0.000000000000D+00 0.114573487838D-06 0.000000000000D+00  6 -2 1 25 -24 1 -1 4 0.10588441D+00 0.13255061D+00 0.34651097D+06 0.34651097D+06 0.34651097D+06 0.11170247D+01  1  2 12  6  6  5       21 0.186877284755D-03 0.100000000000D+01
-.195639015298D-03 0.000000000000D+00 0.000000000000D+00 0.114522313567D-06 0.000000000000D+00  6 -2 1 25 -24 1 -1 4 0.10588441D+00 0.13255061D+00 0.34897780D+06 0.34897780D+06 0.34897780D+06 0.11167753D+01  1  2  5  6  6  5       21 -.392179363520D-03 0.100000000000D+01
0.948586694185D-04 0.000000000000D+00 0.000000000000D+00 0.114573487838D-06 0.000000000000D+00  6 -2 1 25 -24 2 -2 4 0.10588441D+00 0.13255061D+00 0.34651097D+06 0.34651097D+06 0.34651097D+06 0.11170247D+01  1  2 12  7  6  5       21 0.190380236650D-03 0.100000000000D+01
0.931132920530D-04 0.000000000000D+00 0.000000000000D+00 0.114573487838D-06 0.000000000000D+00  6 -2 1 25 -24 2 -2 4 0.10588441D+00 0.13255061D+00 0.34651097D+06 0.34651097D+06 0.34651097D+06 0.11170247D+01  1  2 12  7  6  5       21 0.186877284755D-03 0.100000000000D+01
-.195639015298D-03 0.000000000000D+00 0.000000000000D+00 0.114522313567D-06 0.000000000000D+00  6 -2 1 25 -24 2 -2 4 0.10588441D+00 0.13255061D+00 0.34897780D+06 0.34897780D+06 0.34897780D+06 0.11167753D+01  1  2  5  7  6  5       21 -.392179363520D-03 0.100000000000D+01
0.948586694185D-04 0.000000000000D+00 0.000000000000D+00 0.114573487838D-06 0.000000000000D+00  6 -2 1 25 -24 3 -3 4 0.10588441D+00 0.13255061D+00 0.34651097D+06 0.34651097D+06 0.34651097D+06 0.11170247D+01  1  2 12  8  6  5       21 0.190380236650D-03 0.100000000000D+01
0.948586694185D-04 0.000000000000D+00 0.000000000000D+00 0.114573487838D-06 0.000000000000D+00  6 -2 1 25 -24 4 -4 4 0.10588441D+00 0.13255061D+00 0.34651097D+06 0.34651097D+06 0.34651097D+06 0.11170247D+01  1  2 12  8  6  5       21 0.190380236650D-03 0.100000000000D+01
0.931132920530D-04 0.000000000000D+00 0.000000000000D+00 0.114573487838D-06 0.000000000000D+00  6 -2 1 25 -24 3 -3 4 0.10588441D+00 0.13255061D+00 0.34651097D+06 0.34651097D+06 0.34651097D+06 0.11170247D+01  1  2 12  8  6  5       21 0.186877284755D-03 0.100000000000D+01
0.931132920530D-04 0.000000000000D+00 0.000000000000D+00 0.114573487838D-06 0.000000000000D+00  6 -2 1 25 -24 4 -4 4 0.10588441D+00 0.13255061D+00 0.34651097D+06 0.34651097D+06 0.34651097D+06 0.11170247D+01  1  2 12  8  6  5       21 0.186877284755D-03 0.100000000000D+01
-.195639015298D-03 0.000000000000D+00 0.000000000000D+00 0.114522313567D-06 0.000000000000D+00  6 -2 1 25 -24 3 -3 4 0.10588441D+00 0.13255061D+00 0.34897780D+06 0.34897780D+06 0.34897780D+06 0.11167753D+01  1  2  5  8  6  5       21 -.392179363520D-03 0.100000000000D+01
-.195639015298D-03 0.000000000000D+00 0.000000000000D+00 0.114522313567D-06 0.000000000000D+00  6 -2 1 25 -24 4 -4 4 0.10588441D+00 0.13255061D+00 0.34897780D+06 0.34897780D+06 0.34897780D+06 0.11167753D+01  1  2  5  8  6  5       21 -.392179363520D-03 0.100000000000D+01
  </mgrwgt>
  </event>
  <event>
  6     66 -.39191994E-03 0.11598920E+02 0.75467711E-02 0.12306479E+00
       -2 -1    0    0    0  501 0.00000000E+00 0.00000000E+00 0.20679838E+03 0.20679863E+03 0.32000000E+00 0.0000E+00 0.9000E+01
        1 -1    0    0  502    0 0.00000000E+00 0.00000000E+00 -.84752451E+02 0.84753056E+02 0.32000000E+00 0.0000E+00 0.9000E+01
       25  1    1    2    0    0 -.38618967E+02 -.63496932E+01 0.38058299E+02 0.13640080E+03 0.12500000E+03 0.0000E+00 0.9000E+01
      -24  1    1    2    0    0 0.56128673E+02 0.15964940E+01 0.79979019E+02 0.12655764E+03 0.80419002E+02 0.0000E+00 0.9000E+01
       21  1    1    2  502  503 -.59282514E+01 -.22234823E+01 -.81821100E+01 0.10372920E+02 0.75000000E+00 0.0000E+00 0.9000E+01
       21  1    1    2  503  501 -.11581454E+02 0.69766815E+01 0.12190721E+02 0.18220328E+02 0.75000000E+00 0.0000E+00 0.9000E+01
#aMCatNLO 2  0  0  5  2 0.10837266D+02 0.00000000D+00  -5  6  0 0.00000000D+00 0.00000000D+00 0.00000000D+00 0.00000000D+00 0.00000000D+00
  <mgrwgt>
 -.2744493891D+00    2    2    0
 0.132388798211475D+03 0.000000000000000D+00 0.000000000000000D+00 0.132388798211475D+03
 0.132388798211475D+03 -.000000000000000D+00 -.000000000000000D+00 -.132388798211475D+03
 0.131236410971495D+03 -.344359760777477D+02 -.748521153954138D+01 -.188714261374206D+02
 0.104796254530144D+03 0.594144502211131D+02 0.704534153858349D+00 0.313761971201900D+02
 0.287449309213120D+02 -.249784741433654D+02 0.678067738568302D+01 -.125047709827694D+02
 0.000000000000000D+00 0.000000000000000D+00 0.000000000000000D+00 0.000000000000000D+00
 0.132388798211475D+03 0.000000000000000D+00 0.000000000000000D+00 0.132388798211475D+03
 0.132388798211475D+03 -.000000000000000D+00 -.000000000000000D+00 -.132388798211475D+03
 0.132642970483730D+03 -.385963949546183D+02 -.635582076765315D+01 -.209542229067131D+02
 0.102501723029571D+03 0.561461144602045D+02 0.159175930042313D+01 0.297399966881547D+02
 0.145058760025969D+02 -.507190538682331D+01 -.245744460702330D+01 -.133662702483992D+02
 0.151270269070524D+02 -.124778141187629D+02 0.722150607425332D+01 0.458049646695766D+01
-.171707654903D-03 0.000000000000D+00 0.000000000000D+00 0.341504321435D-04 0.000000000000D+00  6 -2 1 25 -24 21 21 4 0.31815201D-01 0.13038904D-01 0.15515522D+05 0.15515522D+05 0.15515522D+05 0.12461530D+01  1  2 13  3  6  5       21 -.142614356211D+00 0.100000000000D+01
-.158729351890D-03 0.000000000000D+00 0.000000000000D+00 0.341504321435D-04 0.000000000000D+00  6 -2 1 25 -24 21 21 4 0.31815201D-01 0.13038904D-01 0.15515522D+05 0.15515522D+05 0.15515522D+05 0.12461530D+01  1  2 13  3  6  5       21 -.131835032890D+00 0.100000000000D+01
  </mgrwgt>
  </event>
  <event>
  6     66 -.39191994E-03 0.14174150E+02 0.75467711E-02 0.12193264E+00
       -2 -1    0    0    0  501 0.00000000E+00 0.00000000E+00 0.22743263E+02 0.22745514E+02 0.32000000E+00 0.0000E+00 0.9000E+01
        1 -1    0    0  502    0 -.00000000E+00 -.00000000E+00 -.12602800E+04 0.12602800E+04 0.32000000E+00 0.0000E+00 0.9000E+01
       25  1    1    2    0    0 -.40966769E+02 -.27246607E+02 -.83635104E+03 0.84707067E+03 0.12500000E+03 0.0000E+00 0.9000E+01
      -24  1    1    2    0    0 0.49667566E+02 0.51522206E+02 -.16115364E+03 0.19380175E+03 0.80419002E+02 0.0000E+00 0.9000E+01
       21  1    1    2  502  503 -.40879515E+01 -.73447297E+01 -.15972549E+03 0.15994828E+03 0.75000000E+00 0.0000E+00 0.9000E+01
       21  1    1    2  503  501 -.46128448E+01 -.16930869E+02 -.80306535E+02 0.82204834E+02 0.75000000E+00 0.0000E+00 0.9000E+01
#aMCatNLO 2  0  0  5  2 0.94054051D+01 0.00000000D+00  -5  6  0 0.00000000D+00 0.00000000D+00 0.00000000D+00 0.00000000D+00 0.00000000D+00
  <mgrwgt>
 -.8097374760D-01    2    2    0
 0.169305490215293D+03 0.000000000000000D+00 0.000000000000000D+00 0.169305490215293D+03
 0.169305490215293D+03 -.000000000000000D+00 -.000000000000000D+00 -.169305490215293D+03
 0.151879183697964D+03 -.404437212350447D+02 -.257872802238519D+02 -.717050070223716D+02
 0.146977309450308D+03 0.501691349638830D+02 0.529216064686867D+02 0.990831721566802D+02
 0.397544872823141D+02 -.972541372883828D+01 -.271343262448347D+02 -.273781651343086D+02
 0.000000000000000D+00 0.000000000000000D+00 -.000000000000000D+00 0.000000000000000D+00
 0.169305490215293D+03 0.000000000000000D+00 0.000000000000000D+00 0.169305490215293D+03
 0.169305490215293D+03 -.000000000000000D+00 -.000000000000000D+00 -.169305490215293D+03
 0.152968329283129D+03 -.409647832294299D+02 -.272410657946918D+02 -.731718568372221D+02
 0.145361795007585D+03 0.496694530235056D+02 0.515274721761118D+02 0.976765096680996D+02
 0.216662488950858D+02 -.390945269078493D+01 -.682572829310218D+01 -.201879160418074D+02
 0.186146072447867D+02 -.479521710329073D+01 -.174606780883178D+02 -.431673678907011D+01
-.588485833019D-04 0.000000000000D+00 0.000000000000D+00 0.168732457392D-04 0.000000000000D+00  6 -2 1 25 -24 21 21 4 0.34991398D-02 0.19388940D+00 0.17950563D+05 0.17950563D+05 0.17950563D+05 0.12390288D+01  1  2 13  3  6  5       21 -.420855074753D-01 0.100000000000D+01
-.543778125887D-04 0.000000000000D+00 0.000000000000D+00 0.168732457392D-04 0.000000000000D+00  6 -2 1 25 -24 21 21 4 0.34991398D-02 0.19388940D+00 0.17950563D+05 0.17950563D+05 0.17950563D+05 0.12390288D+01  1  2 13  3  6  5       21 -.388882401205D-01 0.100000000000D+01
  </mgrwgt>
  </event>
  <event>
  5     66 -.39191994E-03 0.27090174E+02 0.75467711E-02 0.11247454E+00
       -2 -1    0    0    0  501 0.00000000E+00 0.00000000E+00 0.13372860E+04 0.13372860E+04 0.32000000E+00 0.0000E+00 0.9000E+01
        1 -1    0    0  502    0 0.00000000E+00 0.00000000E+00 -.50864626E+02 0.50865633E+02 0.32000000E+00 0.0000E+00 0.9000E+01
       25  1    1    2    0    0 -.93515976E+02 0.15431201E+03 0.87507958E+03 0.90218995E+03 0.12500000E+03 0.0000E+00 0.9000E+01
      -24  1    1    2    0    0 0.11805125E+03 -.16577835E+03 0.29974778E+03 0.37112600E+03 0.80419002E+02 0.0000E+00 0.9000E+01
       21  1    1    2  502  501 -.24535271E+02 0.11466347E+02 0.11159399E+03 0.11483570E+03 0.75000000E+00 0.0000E+00 0.9000E+01
#aMCatNLO 1  0  0  1  5 0.33585434D+02 0.00000000D+00  -5  6  0 0.00000000D+00 0.00000000D+00 0.00000000D+00 0.00000000D+00 0.00000000D+00
  <mgrwgt>
 -.7102022335D-01    1    2    0
 0.260808887845218D+03 0.000000000000000D+00 0.000000000000000D+00 0.260808887845218D+03
 0.260808887845218D+03 0.000000000000000D+00 0.000000000000000D+00 -.260808887845218D+03
 0.242809469443031D+03 -.935124967436481D+02 0.154310381108819D+03 0.103803457004218D+03
 0.248417870110780D+03 0.118054806517259D+03 -.165780017926863D+03 -.117576658186681D+03
 0.303904361366249D+02 -.245423097736106D+02 0.114696368180438D+02 0.137732011824625D+02
 0.000000000000000D+00 -.000000000000000D+00 0.000000000000000D+00 0.000000000000000D+00
 0.868793115105459D+03 0.000000000000000D+00 0.000000000000000D+00 0.868793115105459D+03
 0.679933265516208D+03 0.000000000000000D+00 0.000000000000000D+00 -.679933265516208D+03
 0.210588037546648D+03 0.112799002932473D+03 0.722741226799849D+02 0.103803457004218D+03
 0.625378914166268D+03 0.515662473514144D+03 -.323881943288503D+03 -.117576658186681D+03
 0.147225232430035D+02 -.401435767648767D+01 0.330704585293529D+01 0.137732011824625D+02
 0.698036905665748D+03 -.624447118770129D+03 0.248300774755583D+03 0.188859849589251D+03
-.339883238772D-02 0.000000000000D+00 0.000000000000D+00 0.170839536884D-04 0.000000000000D+00  6 -2 1 25 -24 21 21 4 0.20573638D+00 0.78254074D-02 0.54154849D+05 0.54154849D+05 0.54154849D+05 0.11888636D+01  1  2 14  1  6  1       -2 -.710202233526D-01 0.100000000000D+01
  </mgrwgt>
  </event>
  <event>
  5     66 -.39191994E-03 0.42096865E+02 0.75467711E-02 0.11325071E+00
       -2 -1    0    0    0  501 0.00000000E+00 0.00000000E+00 0.26712220E+02 0.26714137E+02 0.32000000E+00 0.0000E+00 0.9000E+01
        1 -1    0    0  502    0 0.00000000E+00 0.00000000E+00 -.13049542E+04 0.13049542E+04 0.32000000E+00 0.0000E+00 0.9000E+01
       25  1    1    2    0    0 0.12621117E+03 0.66373493E+02 -.72123390E+03 0.74574663E+03 0.12500000E+03 0.0000E+00 0.9000E+01
      -24  1    1    2    0    0 -.85887865E+02 -.54295900E+02 -.48950263E+03 0.50636430E+03 0.80419002E+02 0.0000E+00 0.9000E+01
       21  1    1    2  502  501 -.40323302E+02 -.12077593E+02 -.67505412E+02 0.79557401E+02 0.75000000E+00 0.0000E+00 0.9000E+01
#aMCatNLO 1  0  0  1  1 0.78541529D+01 0.00000000D+00  -5  6  0 0.00000000D+00 0.00000000D+00 0.00000000D+00 0.00000000D+00 0.00000000D+00
  <mgrwgt>
 -.1397731252D+00    5    4    0
 0.186707058120327D+03 0.000000000000000D+00 0.000000000000000D+00 0.186707058120327D+03
 0.186707058120327D+03 0.000000000000000D+00 0.000000000000000D+00 -.186707058120327D+03
 0.190609870416598D+03 0.126213256655073D+03 0.663741187793895D+02 -.192824505966606D+02
 0.130166861704990D+03 -.858864378344528D+02 -.542954722641918D+02 -.123173625209497D+02
 0.526373841190660D+02 -.403268188206199D+02 -.120786465151977D+02 0.315998131176104D+02
 0.000000000000000D+00 0.000000000000000D+00 -.000000000000000D+00 0.000000000000000D+00
 0.865503129707769D+03 0.000000000000000D+00 0.000000000000000D+00 0.865503129707769D+03
 0.192313029255947D+03 0.000000000000000D+00 0.000000000000000D+00 -.192313029255947D+03
 0.175960593998661D+03 0.929239585145506D+02 0.795641607341848D+02 -.192824505966606D+02
 0.144479280391458D+03 -.110827828903635D+03 -.444130772306654D+02 -.123173625209497D+02
 0.601688968991384D+02 -.505710754792374D+02 -.801961905981327D+01 0.315998131176104D+02
 0.677207387674458D+03 0.684749458683221D+02 -.271314644437061D+02 0.673190100451822D+03
 0.186707058120327D+03 0.000000000000000D+00 0.000000000000000D+00 0.186707058120327D+03
 0.186707058120327D+03 0.000000000000000D+00 0.000000000000000D+00 -.186707058120327D+03
 0.190609870416598D+03 0.126213256655073D+03 0.663741187793895D+02 -.192824505966606D+02
 0.130166861704990D+03 -.858864378344528D+02 -.542954722641918D+02 -.123173625209497D+02
 0.000000000000000D+00 0.000000000000000D+00 -.000000000000000D+00 0.000000000000000D+00
 0.526373841190660D+02 -.403268188206199D+02 -.120786465151977D+02 0.315998131176104D+02
 0.865503129707769D+03 0.000000000000000D+00 0.000000000000000D+00 0.865503129707769D+03
 0.192313029255947D+03 0.000000000000000D+00 0.000000000000000D+00 -.192313029255947D+03
 0.175960593998661D+03 0.929239585145506D+02 0.795641607341848D+02 -.192824505966606D+02
 0.144479280391458D+03 -.110827828903635D+03 -.444130772306654D+02 -.123173625209497D+02
 0.677207387674458D+03 0.684749458683221D+02 -.271314644437061D+02 0.673190100451822D+03
 0.601688968991384D+02 -.505710754792374D+02 -.801961905981327D+01 0.315998131176104D+02
0.393354179791D-04 0.000000000000D+00 0.000000000000D+00 0.106665881582D-04 0.000000000000D+00  6 -2 1 25 -24 21 21 2 0.41097228D-02 0.20076233D+00 0.32636531D+05 0.32636531D+05 0.32636531D+05 0.12110776D+01  1  2  2  1  6  1       -2 0.129188487322D-01 0.100000000000D+01
0.356097724750D-05 0.207578703578D-05 -.151058362293D-06 0.106665881582D-04 0.000000000000D+00  6 -2 1 25 -24 21 21 4 0.41097228D-02 0.20076233D+00 0.32636531D+05 0.32636531D+05 0.32636531D+05 0.12110776D+01  1  2  3  1  6  1       -2 0.171535160279D-02 0.100000000000D+01
0.155344117999D-05 0.000000000000D+00 0.000000000000D+00 0.106665881582D-04 0.000000000000D+00  6 -2 1 25 -24 21 21 4 0.41097228D-02 0.20076233D+00 0.32636531D+05 0.32636531D+05 0.32636531D+05 0.12110776D+01  1  2 15  1  6  1       -2 0.748305207456D-03 0.100000000000D+01
-.102719357695D-02 0.000000000000D+00 -.290040601909D-04 0.106665881582D-04 0.000000000000D+00  6 -2 1 25 -24 21 21 4 0.19406861D-01 0.20076233D+00 0.32636531D+05 0.32636531D+05 0.32636531D+05 0.12110776D+01  1  2  5  1  6  1       -2 -.427584157861D-01 0.100000000000D+01
-.194092287098D-03 0.000000000000D+00 -.546600145569D-05 0.106665881582D-04 0.000000000000D+00  6 21 1 25 -24 2 21 4 0.19406861D-01 0.20076233D+00 0.32636531D+05 0.32636531D+05 0.32636531D+05 0.12110776D+01  3  4  5  4  5  1       -2 -.112397214930D+00 0.100000000000D+01
  </mgrwgt>
  </event>
  <event>
  6     66 -.39191994E-03 0.68423174E+02 0.75467711E-02 0.11766886E+00
       -2 -1    0    0    0  501 0.00000000E+00 0.00000000E+00 0.11750235E+03 0.11750279E+03 0.32000000E+00 0.0000E+00 0.9000E+01
        1 -1    0    0  502    0 -.00000000E+00 -.00000000E+00 -.30858099E+03 0.30858115E+03 0.32000000E+00 0.0000E+00 0.9000E+01
       25  1    1    2    0    0 0.29279294E+02 -.22691185E+02 -.53344398E+02 0.14086444E+03 0.12500000E+03 0.0000E+00 0.9000E+01
      -24  1    1    2    0    0 -.20997755E+02 0.99698956E+02 -.59687862E+01 0.12993702E+03 0.80419002E+02 0.0000E+00 0.9000E+01
       21  1    1    2  503  501 -.20522074E+00 -.72991548E+02 -.11966339E+03 0.14017024E+03 0.75000000E+00 0.0000E+00 0.9000E+01
       21  1    1    2  502  503 -.80763186E+01 -.40162233E+01 -.12102068E+02 0.15112231E+02 0.75000000E+00 0.0000E+00 0.9000E+01
#aMCatNLO 2  0  0  5  2 0.77695318D+01 0.00000000D+00  -5  6  0 0.00000000D+00 0.00000000D+00 0.00000000D+00 0.00000000D+00 0.00000000D+00
  <mgrwgt>
 -.1288214604D-01    4    2    0
 0.190418275156110D+03 0.000000000000000D+00 0.000000000000000D+00 0.190418275156110D+03
 0.190418275156110D+03 -.000000000000000D+00 -.000000000000000D+00 -.190418275156110D+03
 0.130774988059476D+03 0.293768079252303D+02 -.217844283614752D+02 0.118126770481480D+02
 0.143428050044413D+03 -.208912210992755D+02 0.100689581741472D+03 0.594100546614862D+02
 0.106633512208331D+03 -.848558682595478D+01 -.789051533799972D+02 -.712227317096342D+02
 0.000000000000000D+00 0.000000000000000D+00 0.000000000000000D+00 -.000000000000000D+00
 0.190418275156110D+03 0.000000000000000D+00 0.000000000000000D+00 0.190418275156110D+03
 0.190418275156110D+03 -.000000000000000D+00 -.000000000000000D+00 -.190418275156110D+03
 0.130836325375855D+03 0.292787095626175D+02 -.226966182320231D+02 0.109893004797584D+02
 0.142373926079217D+03 -.209983904166918D+02 0.996930435406618D+02 0.585105421471017D+02
 0.967371939974613D+02 -.126994102086841D+00 -.729697809766513D+02 -.635096814605462D+02
 0.108891048596858D+02 -.815332504383888D+01 -.402664433198751D+01 -.599016116631391D+01
-.481896880469D-04 0.000000000000D+00 0.000000000000D+00 0.393386965770D-05 0.000000000000D+00  6 -2 1 25 -24 21 21 4 0.18077331D-01 0.47474045D-01 0.29280813D+05 0.29280813D+05 0.29280813D+05 0.12160060D+01  1  2 13  3  6  5       21 -.192640704518D-01 0.100000000000D+01
-.375423856889D-04 0.000000000000D+00 0.000000000000D+00 0.393386965770D-05 0.000000000000D+00  6 -2 1 25 -24 21 21 4 0.18077331D-01 0.47474045D-01 0.29280813D+05 0.29280813D+05 0.29280813D+05 0.12160060D+01  1  2 13  3  6  5       21 -.150077577206D-01 0.100000000000D+01
-.331463388157D-04 0.000000000000D+00 0.000000000000D+00 0.393749119585D-05 0.000000000000D+00  6 -2 1 25 -24 21 21 4 0.18077331D-01 0.47474045D-01 0.28924776D+05 0.28924776D+05 0.28924776D+05 0.12165656D+01  1  2  8  3  6  5       21 -.132723260813D-01 0.100000000000D+01
0.867081215803D-04 0.000000000000D+00 0.000000000000D+00 0.393749119585D-05 0.355831958809D-06  6 -2 1 25 -24 21 21 4 0.18077331D-01 0.47474045D-01 0.29280813D+05 0.29280813D+05 0.29280813D+05 0.12160060D+01  1  2  1  3  6  5       21 0.346620082130D-01 0.100000000000D+01
  </mgrwgt>
  </event>
  <event>
  6     66 0.39191994E-03 0.30577498E+02 0.75467711E-02 0.12164536E+00
       21 -1    0    0  503  501 0.00000000E+00 0.00000000E+00 0.51911270E+03 0.51911324E+03 0.75000000E+00 0.0000E+00 0.9000E+01
        3 -1    0    0  502    0 0.00000000E+00 0.00000000E+00 -.47272562E+02 0.47275206E+02 0.50000000E+00 0.0000E+00 0.9000E+01
       25  1    1    2    0    0 0.43819231E+02 -.13128284E+01 0.14933360E+03 0.19961807E+03 0.12500000E+03 0.0000E+00 0.9000E+01
      -24  1    1    2    0    0 -.14871576E+02 0.19343889E+02 0.79575250E+02 0.11573585E+03 0.80419002E+02 0.0000E+00 0.9000E+01
        4  1    1    2  503    0 -.39929054E+02 -.26823304E+01 0.20232322E+03 0.20624891E+03 0.15500000E+01 0.0000E+00 0.9000E+01
       21  1    1    2  502  501 0.10981399E+02 -.15348730E+02 0.40608064E+02 0.44785623E+02 0.75000000E+00 0.0000E+00 0.9000E+01
#aMCatNLO 2  0  0  1  2 0.50263031D+02 0.00000000D+00  -5  6  0 0.00000000D+00 0.00000000D+00 0.00000000D+00 0.00000000D+00 0.00000000D+00
  <mgrwgt>
 0.4847815603D-02    1    2    0
 0.117749303987248D+03 0.000000000000000D+00 0.000000000000000D+00 0.117749303987248D+03
 0.117749303987248D+03 0.000000000000000D+00 0.000000000000000D+00 -.117749303987248D+03
 0.126948298635563D+03 0.219810918895036D+02 -.277394968830532D+01 -.856092056818607D-01
 0.882235413659582D+02 -.294292093479513D+02 0.183700508496772D+02 -.106132071361643D+02
 0.000000000000000D+00 -.000000000000000D+00 -.000000000000000D+00 0.000000000000000D+00
 0.203267679729742D+02 0.744811745844769D+01 -.155961011613718D+02 0.106988163418462D+02
 0.196926895149032D+03 0.000000000000000D+00 0.000000000000000D+00 0.196926895149032D+03
 0.124604250015257D+03 0.000000000000000D+00 0.000000000000000D+00 -.124604250015257D+03
 0.132463540132802D+03 0.438163621465155D+02 -.130711278154682D+01 -.856092056818607D-01
 0.847077845992253D+02 -.148731958048497D+02 0.193478861422557D+02 -.106132071361643D+02
 0.826564529615329D+02 -.399290535900711D+02 -.268233041169005D+01 0.723226451337744D+02
 0.217033674707290D+02 0.109858872484053D+02 -.153584429490189D+02 0.106988163418462D+02
0.247242223725D-05 0.000000000000D+00 0.000000000000D+00 0.851851282306D-04 0.353517019994D-07  6 21 3 25 -24 4 21 4 0.79859244D-01 0.72725377D-02 0.18962108D+05 0.18962108D+05 0.18962108D+05 0.12363821D+01  1  2  1  4  5  1       -4 0.484781560349D-02 0.100000000000D+01
  </mgrwgt>
  </event>
  <event>
  6     66 0.39191994E-03 0.18236951E+02 0.75467711E-02 0.12370900E+00
       -4 -1    0    0    0  501 0.00000000E+00 0.00000000E+00 0.68400095E+02 0.68417655E+02 0.15500000E+01 0.0000E+00 0.9000E+01
       21 -1    0    0  502  503 0.00000000E+00 0.00000000E+00 -.61593982E+03 0.61594027E+03 0.75000000E+00 0.0000E+00 0.9000E+01
       25  1    1    2    0    0 -.39414010E+02 -.10873588E+02 -.10197056E+03 0.16641723E+03 0.12500000E+03 0.0000E+00 0.9000E+01
      -24  1    1    2    0    0 0.14877650E+02 -.26925485E+01 -.11631403E+02 0.82650467E+02 0.80419002E+02 0.0000E+00 0.9000E+01
       -3  1    1    2    0  503 0.12177816E+01 0.10496110E+02 -.15587193E+03 0.15623047E+03 0.50000000E+00 0.0000E+00 0.9000E+01
       21  1    1    2  502  501 0.23318579E+02 0.30700262E+01 -.27806584E+03 0.27905976E+03 0.75000000E+00 0.0000E+00 0.9000E+01
#aMCatNLO 2  0  0  2  2 0.10566519D+02 0.00000000D+00  -5  6  0 0.00000000D+00 0.00000000D+00 0.00000000D+00 0.00000000D+00 0.00000000D+00
  <mgrwgt>
 0.6367012072D-01    1    2    0
 0.177061642542179D+03 0.000000000000000D+00 0.000000000000000D+00 0.177061642542179D+03
 0.177061642542179D+03 0.000000000000000D+00 0.000000000000000D+00 -.177061642542179D+03
 0.134949894402038D+03 -.389495710641730D+02 -.686877712012809D+01 0.319722506857444D+02
 0.110369386422898D+03 0.152568980512867D+02 0.577675095577878D+00 0.740343086570890D+02
 0.000000000000000D+00 0.000000000000000D+00 0.000000000000000D+00 -.000000000000000D+00
 0.108804004259423D+03 0.236926730128863D+02 0.629110202455021D+01 -.106006559342833D+03
 0.177604845107940D+03 0.000000000000000D+00 0.000000000000000D+00 0.177604845107940D+03
 0.237245883161622D+03 0.000000000000000D+00 0.000000000000000D+00 -.237245883161622D+03
 0.135347487333626D+03 -.394142255624522D+02 -.108736533385125D+02 0.319722506857444D+02
 0.110348920008120D+03 0.148774724228282D+02 -.269260999083903D+01 0.740343086570890D+02
 0.605698335598848D+02 0.121778163971630D+01 0.104961100046311D+02 -.596410380536825D+02
 0.108584487367931D+03 0.233189714999076D+02 0.307015332472051D+01 -.106006559342833D+03
0.977582352611D-04 0.000000000000D+00 0.000000000000D+00 0.586726881974D-04 0.323796617208D-06  6 -4 21 25 -24 -3 21 4 0.10524416D-01 0.94760809D-01 0.15305601D+05 0.15305601D+05 0.15305601D+05 0.12468252D+01  1  2  1  5  5  2        3 0.636701207165D-01 0.100000000000D+01
  </mgrwgt>
  </event>
  <event>
  5     66 0.39191994E-03 0.22275252E+02 0.75467711E-02 0.12202591E+00
       -2 -1    0    0    0  501 0.00000000E+00 0.00000000E+00 0.37591583E+02 0.37592945E+02 0.32000000E+00 0.0000E+00 0.9000E+01
        1 -1    0    0  502    0 -.00000000E+00 -.00000000E+00 -.50354850E+03 0.50354860E+03 0.32000000E+00 0.0000E+00 0.9000E+01
       25  1    1    2    0    0 0.49673952E+02 -.24511210E+02 -.26506973E+03 0.29825369E+03 0.12500000E+03 0.0000E+00 0.9000E+01
      -24  1    1    2    0    0 -.63634429E+02 0.41856156E+02 -.14312618E+03 0.18097955E+03 0.80419002E+02 0.0000E+00 0.9000E+01
       21  1    1    2  502  501 0.13960478E+02 -.17344947E+02 -.57761007E+02 0.61908308E+02 0.75000000E+00 0.0000E+00 0.9000E+01
#aMCatNLO 1  0  0  5  1 0.29352129D+01 0.00000000D+00  -5  6  0 0.00000000D+00 0.00000000D+00 0.00000000D+00 0.00000000D+00 0.00000000D+00
  <mgrwgt>
 0.3027990507D+00   19    2    0
 0.137584815093046D+03 0.000000000000000D+00 0.000000000000000D+00 0.137584815093046D+03
 0.137584815093046D+03 -.000000000000000D+00 -.000000000000000D+00 -.137584815093046D+03
 0.137681505375208D+03 0.496705205620078D+02 -.245069467283467D+02 -.162310157272020D+02
 0.113551125104579D+03 -.636372591074242D+02 0.418596717510586D+02 0.249941831699554D+02
 0.239369997063042D+02 0.139667385454164D+02 -.173527250227119D+02 -.876316744275346D+01
 0.000000000000000D+00 0.000000000000000D+00 0.000000000000000D+00 0.000000000000000D+00
 0.137584815093046D+03 0.000000000000000D+00 0.000000000000000D+00 0.137584815093046D+03
 0.137584815093046D+03 -.000000000000000D+00 -.000000000000000D+00 -.137584815093046D+03
 0.138375122708783D+03 0.507130446020702D+02 -.258022121146030D+02 -.168851278305005D+02
 0.112568686942078D+03 -.627833207628563D+02 0.407987112962286D+02 0.244583956147648D+02
 0.212665826954493D+02 0.113547405200006D+02 -.170860919265875D+02 -.560382636615733D+01
 0.295923783978020D+01 0.715535640785508D+00 0.208959274496196D+01 -.196944141810692D+01
0.198471345163D-03 0.000000000000D+00 0.000000000000D+00 0.436611069853D-04 0.000000000000D+00  6 -2 1 25 -24 21 21 2 0.57834331D-02 0.77469112D-01 0.18193003D+05 0.18193003D+05 0.18193003D+05 0.12383795D+01  1  2  2  3  6  5       21 0.179967637818D+00 0.100000000000D+01
0.405924392699D-04 0.104736206307D-04 -.762182224132D-06 0.436611069853D-04 0.000000000000D+00  6 -2 1 25 -24 21 21 4 0.57834331D-02 0.77469112D-01 0.18193003D+05 0.18193003D+05 0.18193003D+05 0.12383795D+01  1  2  3  3  6  5       21 0.564480886318D-01 0.100000000000D+01
0.464224214441D-05 0.000000000000D+00 0.000000000000D+00 0.436611069853D-04 0.000000000000D+00  6 -2 1 25 -24 21 21 4 0.57834331D-02 0.77469112D-01 0.18193003D+05 0.18193003D+05 0.18193003D+05 0.12383795D+01  1  2 15  3  6  5       21 0.645552966836D-02 0.100000000000D+01
0.394631691153D-06 0.000000000000D+00 0.000000000000D+00 0.436565244780D-04 0.000000000000D+00  6 -2 1 25 -24 21 21 4 0.57834331D-02 0.77469112D-01 0.18217470D+05 0.18217470D+05 0.18217470D+05 0.12383145D+01  1  2 12  3  6  5       21 0.548682937717D-03 0.100000000000D+01
0.335757832118D-06 0.000000000000D+00 0.000000000000D+00 0.436565244780D-04 0.000000000000D+00  6 -2 1 25 -24 21 21 4 0.57834331D-02 0.77469112D-01 0.18217470D+05 0.18217470D+05 0.18217470D+05 0.12383145D+01  1  2 12  3  6  5       21 0.466826658421D-03 0.100000000000D+01
-.307656513047D-03 0.000000000000D+00 0.000000000000D+00 0.436611069853D-04 0.000000000000D+00  6 -2 1 25 -24 21 21 4 0.57834331D-02 0.77469112D-01 0.18193003D+05 0.18193003D+05 0.18193003D+05 0.12383795D+01  1  2  4  3  6  5       21 -.427828985619D+00 0.100000000000D+01
0.334119921294D-03 0.000000000000D+00 0.000000000000D+00 0.436611069853D-04 0.258674458225D-04  6 -2 1 25 -24 21 21 4 0.57834331D-02 0.77469112D-01 0.18217470D+05 0.18217470D+05 0.18217470D+05 0.12383145D+01  1  2 11  3  6  5       21 0.464549361025D+00 0.100000000000D+01
0.291349432600D-07 0.000000000000D+00 0.000000000000D+00 0.436565244780D-04 0.000000000000D+00  6 -2 1 25 -24 1 -1 4 0.57834331D-02 0.77469112D-01 0.18217470D+05 0.18217470D+05 0.18217470D+05 0.12383145D+01  1  2 12  6  6  5       21 0.405082678774D-04 0.100000000000D+01
0.279929916708D-07 0.000000000000D+00 0.000000000000D+00 0.436565244780D-04 0.000000000000D+00  6 -2 1 25 -24 1 -1 4 0.57834331D-02 0.77469112D-01 0.18217470D+05 0.18217470D+05 0.18217470D+05 0.12383145D+01  1  2 12  6  6  5       21 0.389205359067D-04 0.100000000000D+01
0.394140302337D-05 0.000000000000D+00 0.000000000000D+00 0.436565244780D-04 0.404034252072D-06  6 -2 1 25 -24 1 -1 4 0.57834331D-02 0.77469112D-01 0.18217470D+05 0.18217470D+05 0.18217470D+05 0.12383145D+01  1  2 11  6  6  5       21 0.547999726853D-02 0.100000000000D+01
0.291349432600D-07 0.000000000000D+00 0.000000000000D+00 0.436565244780D-04 0.000000000000D+00  6 -2 1 25 -24 2 -2 4 0.57834331D-02 0.77469112D-01 0.18217470D+05 0.18217470D+05 0.18217470D+05 0.12383145D+01  1  2 12  7  6  5       21 0.405082678774D-04 0.100000000000D+01
0.279929916708D-07 0.000000000000D+00 0.000000000000D+00 0.436565244780D-04 0.000000000000D+00  6 -2 1 25 -24 2 -2 4 0.57834331D-02 0.77469112D-01 0.18217470D+05 0.18217470D+05 0.18217470D+05 0.12383145D+01  1  2 12  7  6  5       21 0.389205359067D-04 0.100000000000D+01
0.390229243863D-05 0.000000000000D+00 0.000000000000D+00 0.436565244780D-04 0.413149044444D-06  6 -2 1 25 -24 2 -2 4 0.57834331D-02 0.77469112D-01 0.18217470D+05 0.18217470D+05 0.18217470D+05 0.12383145D+01  1  2 11  7  6  5       21 0.542561919649D-02 0.100000000000D+01
0.291349432600D-07 0.000000000000D+00 0.000000000000D+00 0.436565244780D-04 0.000000000000D+00  6 -2 1 25 -24 3 -3 4 0.57834331D-02 0.77469112D-01 0.18217470D+05 0.18217470D+05 0.18217470D+05 0.12383145D+01  1  2 12  8  6  5       21 0.405082678774D-04 0.100000000000D+01
0.291349432600D-07 0.000000000000D+00 0.000000000000D+00 0.436565244780D-04 0.000000000000D+00  6 -2 1 25 -24 4 -4 4 0.57834331D-02 0.77469112D-01 0.18217470D+05 0.18217470D+05 0.18217470D+05 0.12383145D+01  1  2 12  8  6  5       21 0.405082678774D-04 0.100000000000D+01
0.279929916708D-07 0.000000000000D+00 0.000000000000D+00 0.436565244780D-04 0.000000000000D+00  6 -2 1 25 -24 3 -3 4 0.57834331D-02 0.77469112D-01 0.18217470D+05 0.18217470D+05 0.18217470D+05 0.12383145D+01  1  2 12  8  6  5       21 0.389205359067D-04 0.100000000000D+01
0.279929916708D-07 0.000000000000D+00 0.000000000000D+00 0.436565244780D-04 0.000000000000D+00  6 -2 1 25 -24 4 -4 4 0.57834331D-02 0.77469112D-01 0.18217470D+05 0.18217470D+05 0.18217470D+05 0.12383145D+01  1  2 12  8  6  5       21 0.389205359067D-04 0.100000000000D+01
0.394448975025D-05 0.000000000000D+00 0.000000000000D+00 0.436565244780D-04 0.401507007152D-06  6 -2 1 25 -24 3 -3 4 0.57834331D-02 0.77469112D-01 0.18217470D+05 0.18217470D+05 0.18217470D+05 0.12383145D+01  1  2 11  8  6  5       21 0.548428895217D-02 0.100000000000D+01
0.394448975025D-05 0.000000000000D+00 0.000000000000D+00 0.436565244780D-04 0.401507007152D-06  6 -2 1 25 -24 4 -4 4 0.57834331D-02 0.77469112D-01 0.18217470D+05 0.18217470D+05 0.18217470D+05 0.12383145D+01  1  2 11  8  6  5       21 0.548428895217D-02 0.100000000000D+01
  </mgrwgt>
  </event>
  <event>
  6     66 -.39191994E-03 0.26087354E+02 0.75467711E-02 0.11915540E+00
       -2 -1    0    0    0  503 0.00000000E+00 0.00000000E+00 0.25971764E+02 0.25973735E+02 0.32000000E+00 0.0000E+00 0.9000E+01
        1 -1    0    0  502    0 0.00000000E+00 0.00000000E+00 -.14621078E+04 0.14621078E+04 0.32000000E+00 0.0000E+00 0.9000E+01
       25  1    1    2    0    0 -.76349179E+02 0.56371115E+01 -.39849664E+03 0.42460046E+03 0.12500000E+03 0.0000E+00 0.9000E+01
      -24  1    1    2    0    0 0.97060522E+02 -.16337592E+01 -.33141606E+03 0.35458036E+03 0.80419002E+02 0.0000E+00 0.9000E+01
       21  1    1    2  502  501 -.30023440E+02 -.95574259E+01 -.67681320E+03 0.67754662E+03 0.75000000E+00 0.0000E+00 0.9000E+01
       21  1    1    2  501  503 0.93120969E+01 0.55540736E+01 -.29410128E+02 0.31354123E+02 0.75000000E+00 0.0000E+00 0.9000E+01
#aMCatNLO 2  0  0  1  5 0.10842642D+02 0.00000000D+00  -5  6  0 0.00000000D+00 0.00000000D+00 0.00000000D+00 0.00000000D+00 0.00000000D+00
  <mgrwgt>
 -.1909810819D+00    3    2    0
 0.189116042830467D+03 0.000000000000000D+00 0.000000000000000D+00 0.189116042830467D+03
 0.189116042830467D+03 0.000000000000000D+00 0.000000000000000D+00 -.189116042830467D+03
 0.151420232866557D+03 -.726002582855031D+02 0.787299206565763D+01 0.443881224448006D+02
 0.135394043554844D+03 0.100363780151967D+03 0.336323411433388D+00 0.423241018325385D+02
 0.914178092395326D+02 -.277635218664640D+02 -.820931547709102D+01 -.867122242773390D+02
 0.000000000000000D+00 0.000000000000000D+00 0.000000000000000D+00 0.000000000000000D+00
 0.196536819428544D+03 0.000000000000000D+00 0.000000000000000D+00 0.196536819428544D+03
 0.193196234395484D+03 0.000000000000000D+00 0.000000000000000D+00 -.193196234395484D+03
 0.153154250229172D+03 -.763488094442429D+02 0.563721966325711D+01 0.443881224448006D+02
 0.132973762897672D+03 0.970608427501826D+02 -.163366872073980D+01 0.423241018325385D+02
 0.922594516572317D+02 -.300241301819423D+02 -.955762458915945D+01 -.867122242773390D+02
 0.113455890399522D+02 0.931209687600259D+01 0.555407364664214D+01 0.334058503305946D+01
-.525662537408D-03 0.000000000000D+00 0.000000000000D+00 0.293300679425D-04 0.000000000000D+00  6 -2 1 25 -24 21 21 4 0.40817612D-02 0.22017519D+00 0.24804732D+05 0.24804732D+05 0.24804732D+05 0.12236629D+01  1  2 13  1  6  1       -2 -.219517906225D+00 0.100000000000D+01
-.150316407216D-03 0.000000000000D+00 0.000000000000D+00 0.295145706513D-04 0.000000000000D+00  6 -2 1 25 -24 21 21 4 0.38446928D-02 0.22017519D+00 0.22850644D+05 0.22850644D+05 0.22850644D+05 0.12275057D+01  1  2  8  1  6  1       -2 -.694760200407D-01 0.100000000000D+01
0.238201000421D-03 0.000000000000D+00 0.000000000000D+00 0.295145706513D-04 0.754118535834D-06  6 -2 1 25 -24 21 21 4 0.39955558D-02 0.22492549D+00 0.24804732D+05 0.24804732D+05 0.24804732D+05 0.12236629D+01  1  2  1  1  6  1       -2 0.980128443358D-01 0.100000000000D+01
  </mgrwgt>
  </event>
  <event>
  6     66 0.39191994E-03 0.28751144E+02 0.75467711E-02 0.11964934E+00
       21 -1    0    0  503  501 0.00000000E+00 0.00000000E+00 0.31985510E+02 0.31994302E+02 0.75000000E+00 0.0000E+00 0.9000E+01
        1 -1    0    0  502    0 0.00000000E+00 0.00000000E+00 -.17251430E+04 0.17251430E+04 0.32000000E+00 0.0000E+00 0.9000E+01
       25  1    1    2    0    0 -.80346157E+02 -.46011736E+02 -.51752620E+03 0.54039888E+03 0.12500000E+03 0.0000E+00 0.9000E+01
      -24  1    1    2    0    0 0.36935870E+02 0.44302195E+02 -.98057073E+03 0.98555219E+03 0.80419002E+02 0.0000E+00 0.9000E+01
        2  1    1    2  503    0 0.33775995E+02 0.13879798E+02 -.10281512E+01 0.36532535E+02 0.32000000E+00 0.0000E+00 0.9000E+01
       21  1    1    2  502  501 0.96342922E+01 -.12170257E+02 -.19403241E+03 0.19465373E+03 0.75000000E+00 0.0000E+00 0.9000E+01
#aMCatNLO 2  0  0  1  2 0.96983594D+02 0.00000000D+00  -5  6  0 0.00000000D+00 0.00000000D+00 0.00000000D+00 0.00000000D+00 0.00000000D+00
  <mgrwgt>
 0.2651719972D+00    1    2    0
 0.154794783524587D+03 0.000000000000000D+00 0.000000000000000D+00 0.154794783524587D+03
 0.154794783524587D+03 0.000000000000000D+00 0.000000000000000D+00 -.154794783524587D+03
 0.163894655776091D+03 -.620079158778998D+02 -.384708233343104D+02 0.768860996046939D+02
 0.123890532085610D+03 0.500317618177889D+02 0.496875997480977D+02 -.625269000252364D+02
 0.000000000000000D+00 0.000000000000000D+00 0.000000000000000D+00 0.000000000000000D+00
 0.218043791874728D+02 0.119761540601109D+02 -.112167764137873D+02 -.143591995794575D+02
 0.350210110759006D+03 0.000000000000000D+00 0.000000000000000D+00 0.350210110759006D+03
 0.157583224677049D+03 0.000000000000000D+00 0.000000000000000D+00 -.157583224677049D+03
 0.173520597934397D+03 -.803502170959932D+02 -.460083493261229D+02 0.768860996046939D+02
 0.117063309623776D+03 0.369332196040378D+02 0.443049271370073D+02 -.625269000252364D+02
 0.196057603393146D+03 0.337759946091457D+02 0.138797980819670D+02 0.192626886081957D+03
 0.211518244847354D+02 0.964100288280976D+01 -.121763758928513D+02 -.143591995794575D+02
0.722444827826D-04 0.000000000000D+00 0.000000000000D+00 0.586662260551D-04 0.529400812360D-07  6 21 1 25 -24 2 21 4 0.49215222D-02 0.26540708D+00 0.23496322D+05 0.23496322D+05 0.23496322D+05 0.12261965D+01  1  2  1  4  5  1       -2 0.265171997211D+00 0.100000000000D+01
  </mgrwgt>
  </event>
  <event>
  5     66 0.39191994E-03 0.26249013E+02 0.75467711E-02 0.11971073E+00
       -2 -1    0    0    0  501 0.00000000E+00 0.00000000E+00 0.83720663E+02 0.83721275E+02 0.32000000E+00 0.0000E+00 0.9000E+01
        1 -1    0    0  502    0 -.00000000E+00 -.00000000E+00 -.69214164E+03 0.69214171E+03 0.32000000E+00 0.0000E+00 0.9000E+01
       25  1    1    2    0    0 0.92107399E+01 0.85515761E+02 -.52230317E+02 0.16047052E+03 0.12500000E+03 0.0000E+00 0.9000E+01
      -24  1    1    2    0    0 -.18863698E+02 -.61106279E+02 -.60968638E+02 0.11947471E+03 0.80419002E+02 0.0000E+00 0.9000E+01
       21  1    1    2  502  501 0.96529581E+01 -.24409482E+02 -.49522202E+03 0.49591775E+03 0.75000000E+00 0.0000E+00 0.9000E+01
#aMCatNLO 1  0  0  5  1 0.14491683D+02 0.00000000D+00  -5  6  0 0.00000000D+00 0.00000000D+00 0.00000000D+00 0.00000000D+00 0.00000000D+00
  <mgrwgt>
 0.4380647258D+00   15    2    0
 0.240721462757962D+03 0.000000000000000D+00 0.000000000000000D+00 0.240721462757962D+03
 0.240721462757962D+03 -.000000000000000D+00 -.000000000000000D+00 -.240721462757962D+03
 0.192598796859126D+03 0.921070373385639D+01 0.855158522554250D+02 0.118623347201715D+03
 0.115489249477614D+03 -.188637196399663D+02 -.611062238423047D+02 0.527327249401245D+02
 0.173354879179184D+03 0.965301590610989D+01 -.244096284131202D+02 -.171356072141839D+03
 0.000000000000000D+00 0.000000000000000D+00 0.000000000000000D+00 -.000000000000000D+00
 0.240721462757962D+03 0.000000000000000D+00 0.000000000000000D+00 0.240721462757962D+03
 0.240721462757962D+03 -.000000000000000D+00 -.000000000000000D+00 -.240721462757962D+03
 0.190285209366367D+03 0.940484015710804D+01 0.850249385348721D+02 0.115177123216213D+03
 0.114696637318514D+03 -.187470068391728D+02 -.614013560710437D+02 0.506608908825440D+02
 0.159367726449203D+03 0.113815912076211D+02 -.364504793608063D+02 -.154725221504246D+03
 0.170933523818400D+02 -.203942452555636D+01 0.128268968969780D+02 -.111127925945106D+02
0.628609994395D-03 0.000000000000D+00 0.000000000000D+00 0.588850732289D-04 0.000000000000D+00  6 -2 1 25 -24 21 21 2 0.12880155D-01 0.10648338D+00 0.19702201D+05 0.19702201D+05 0.19702201D+05 0.12345440D+01  1  2  2  3  6  5       21 0.105910887765D+00 0.100000000000D+01
0.131128311089D-03 0.331726607716D-04 -.241402789529D-05 0.588850732289D-04 0.000000000000D+00  6 -2 1 25 -24 21 21 4 0.12880155D-01 0.10648338D+00 0.19702201D+05 0.19702201D+05 0.19702201D+05 0.12345440D+01  1  2  3  3  6  5       21 0.336720001297D-01 0.100000000000D+01
0.230151908868D-04 0.000000000000D+00 0.000000000000D+00 0.588850732289D-04 0.000000000000D+00  6 -2 1 25 -24 21 21 4 0.12880155D-01 0.10648338D+00 0.19702201D+05 0.19702201D+05 0.19702201D+05 0.12345440D+01  1  2 15  3  6  5       21 0.590999383802D-02 0.100000000000D+01
0.176685108811D-02 0.000000000000D+00 0.000000000000D+00 0.581212631765D-04 0.000000000000D+00  6 -2 1 25 -24 21 21 4 0.12880155D-01 0.10648338D+00 0.23339348D+05 0.23339348D+05 0.23339348D+05 0.12265111D+01  1  2 12  3  6  5       21 0.442379594395D+00 0.100000000000D+01
-.853859483326D-03 0.000000000000D+00 0.000000000000D+00 0.588850732289D-04 0.000000000000D+00  6 -2 1 25 -24 21 21 4 0.12880155D-01 0.10648338D+00 0.19702201D+05 0.19702201D+05 0.19702201D+05 0.12345440D+01  1  2  4  3  6  5       21 -.219259718932D+00 0.100000000000D+01
-.336239077203D-02 0.000000000000D+00 0.000000000000D+00 0.588850732289D-04 0.000000000000D+00  6 -2 1 25 -24 21 21 4 0.12880155D-01 0.10648338D+00 0.19702201D+05 0.19702201D+05 0.19702201D+05 0.12345440D+01  1  2  5  3  6  5       21 -.863417072727D+00 0.100000000000D+01
0.367009920526D-02 0.000000000000D+00 -.000000000000D+00 0.588850732289D-04 0.000000000000D+00  6 -2 1 25 -24 21 21 4 0.12880155D-01 0.10648338D+00 0.19702201D+05 0.19702201D+05 0.19702201D+05 0.12345440D+01  1  2  6  3  6  5       21 0.942432491424D+00 0.100000000000D+01
0.132076937316D-04 0.000000000000D+00 0.000000000000D+00 0.581212631765D-04 0.000000000000D+00  6 -2 1 25 -24 1 -1 4 0.12880155D-01 0.10648338D+00 0.23339348D+05 0.23339348D+05 0.23339348D+05 0.12265111D+01  1  2 12  6  6  5       21 0.330690811194D-02 0.100000000000D+01
-.221887335441D-04 0.000000000000D+00 0.000000000000D+00 0.588850732289D-04 0.000000000000D+00  6 -2 1 25 -24 1 -1 4 0.12880155D-01 0.10648338D+00 0.19702201D+05 0.19702201D+05 0.19702201D+05 0.12345440D+01  1  2  5  6  6  5       21 -.569777062307D-02 0.100000000000D+01
0.132076937316D-04 0.000000000000D+00 0.000000000000D+00 0.581212631765D-04 0.000000000000D+00  6 -2 1 25 -24 2 -2 4 0.12880155D-01 0.10648338D+00 0.23339348D+05 0.23339348D+05 0.23339348D+05 0.12265111D+01  1  2 12  7  6  5       21 0.330690811194D-02 0.100000000000D+01
-.221887335441D-04 0.000000000000D+00 0.000000000000D+00 0.588850732289D-04 0.000000000000D+00  6 -2 1 25 -24 2 -2 4 0.12880155D-01 0.10648338D+00 0.19702201D+05 0.19702201D+05 0.19702201D+05 0.12345440D+01  1  2  5  7  6  5       21 -.569777062307D-02 0.100000000000D+01
0.132076937316D-04 0.000000000000D+00 0.000000000000D+00 0.581212631765D-04 0.000000000000D+00  6 -2 1 25 -24 3 -3 4 0.12880155D-01 0.10648338D+00 0.23339348D+05 0.23339348D+05 0.23339348D+05 0.12265111D+01  1  2 12  8  6  5       21 0.330690811194D-02 0.100000000000D+01
0.132076937316D-04 0.000000000000D+00 0.000000000000D+00 0.581212631765D-04 0.000000000000D+00  6 -2 1 25 -24 4 -4 4 0.12880155D-01 0.10648338D+00 0.23339348D+05 0.23339348D+05 0.23339348D+05 0.12265111D+01  1  2 12  8  6  5       21 0.330690811194D-02 0.100000000000D+01
-.221887335441D-04 0.000000000000D+00 0.000000000000D+00 0.588850732289D-04 0.000000000000D+00  6 -2 1 25 -24 3 -3 4 0.12880155D-01 0.10648338D+00 0.19702201D+05 0.19702201D+05 0.19702201D+05 0.12345440D+01  1  2  5  8  6  5       21 -.569777062307D-02 0.100000000000D+01
-.221887335441D-04 0.000000000000D+00 0.000000000000D+00 0.588850732289D-04 0.000000000000D+00  6 -2 1 25 -24 4 -4 4 0.12880155D-01 0.10648338D+00 0.19702201D+05 0.19702201D+05 0.19702201D+05 0.12345440D+01  1  2  5  8  6  5       21 -.569777062307D-02 0.100000000000D+01
  </mgrwgt>
  </event>
  <event>
  5     66 0.39191994E-03 0.20288286E+02 0.75467711E-02 0.11538117E+00
       -2 -1    0    0    0  501 0.00000000E+00 0.00000000E+00 0.16463442E+02 0.16466551E+02 0.32000000E+00 0.0000E+00 0.9000E+01
        1 -1    0    0  502    0 0.00000000E+00 0.00000000E+00 -.12402520E+04 0.12402520E+04 0.32000000E+00 0.0000E+00 0.9000E+01
       25  1    1    2    0    0 0.75149519E+02 -.96407982E+01 -.69491602E+03 0.71012229E+03 0.12500000E+03 0.0000E+00 0.9000E+01
      -24  1    1    2    0    0 -.84177396E+02 -.85143082E+01 -.42373836E+03 0.43952218E+03 0.80419002E+02 0.0000E+00 0.9000E+01
       21  1    1    2  502  501 0.90278773E+01 0.18155106E+02 -.10513413E+03 0.10707408E+03 0.75000000E+00 0.0000E+00 0.9000E+01
#aMCatNLO 1  0  0  2  5 0.70551795D+01 0.00000000D+00  -5  6  0 0.00000000D+00 0.00000000D+00 0.00000000D+00 0.00000000D+00 0.00000000D+00
  <mgrwgt>
 0.4895330673D+00    7    4    0
 0.142901349260600D+03 0.000000000000000D+00 0.000000000000000D+00 0.142901349260600D+03
 0.142901349260600D+03 0.000000000000000D+00 0.000000000000000D+00 -.142901349260600D+03
 0.146930882287074D+03 0.751464529719161D+02 -.964696419360168D+01 -.149542922682775D+02
 0.118229049874735D+03 -.841798635331866D+02 -.851926963675962D+01 0.187633925584474D+02
 0.206427663593911D+02 0.903341056127049D+01 0.181662338303613D+02 -.380910029016994D+01
 0.000000000000000D+00 -.000000000000000D+00 -.000000000000000D+00 -.000000000000000D+00
 0.182448945806684D+03 0.000000000000000D+00 0.000000000000000D+00 0.182448945806684D+03
 0.217021888340005D+03 0.000000000000000D+00 0.000000000000000D+00 -.217021888340005D+03
 0.177386340405333D+03 0.124938914943884D+03 0.274780599690400D+01 -.149542922682775D+02
 0.971202294542156D+02 -.511172629328870D+02 -.289041202345214D+00 0.187633925584474D+02
 0.259719894490963D+02 0.161901795933242D+02 0.199477586625492D+02 -.380910029016994D+01
 0.989922748380441D+02 -.900118316043211D+02 -.224065234571080D+02 -.345729425333202D+02
 0.142901349260600D+03 0.000000000000000D+00 0.000000000000000D+00 0.142901349260600D+03
 0.142901349260600D+03 0.000000000000000D+00 0.000000000000000D+00 -.142901349260600D+03
 0.146930882287074D+03 0.751464529719161D+02 -.964696419360168D+01 -.149542922682775D+02
 0.118229049874735D+03 -.841798635331866D+02 -.851926963675962D+01 0.187633925584474D+02
 0.000000000000000D+00 -.000000000000000D+00 -.000000000000000D+00 -.000000000000000D+00
 0.206427663593911D+02 0.903341056127049D+01 0.181662338303613D+02 -.380910029016994D+01
 0.182448945806684D+03 0.000000000000000D+00 0.000000000000000D+00 0.182448945806684D+03
 0.217021888340005D+03 0.000000000000000D+00 0.000000000000000D+00 -.217021888340005D+03
 0.177386340405333D+03 0.124938914943884D+03 0.274780599690400D+01 -.149542922682775D+02
 0.971202294542156D+02 -.511172629328870D+02 -.289041202345214D+00 0.187633925584474D+02
 0.989922748380441D+02 -.900118316043211D+02 -.224065234571080D+02 -.345729425333202D+02
 0.259719894490963D+02 0.161901795933242D+02 0.199477586625492D+02 -.380910029016994D+01
0.218919274988D-03 0.000000000000D+00 0.000000000000D+00 0.506504877367D-04 0.000000000000D+00  6 -2 1 25 -24 21 21 2 0.25330796D-02 0.19080824D+00 0.20048694D+05 0.20048694D+05 0.20048694D+05 0.12337098D+01  1  2  2  2  6  2        1 0.167985145633D+00 0.100000000000D+01
0.572927045633D-04 0.115526875333D-04 -.840707658724D-06 0.506504877367D-04 0.000000000000D+00  6 -2 1 25 -24 21 21 4 0.25330796D-02 0.19080824D+00 0.20048694D+05 0.20048694D+05 0.20048694D+05 0.12337098D+01  1  2  3  2  6  2        1 0.669132660995D-01 0.100000000000D+01
0.961936956724D-05 0.000000000000D+00 0.000000000000D+00 0.506504877367D-04 0.000000000000D+00  6 -2 1 25 -24 21 21 4 0.25330796D-02 0.19080824D+00 0.20048694D+05 0.20048694D+05 0.20048694D+05 0.12337098D+01  1  2 15  2  6  2        1 0.112346491664D-01 0.100000000000D+01
-.204910314333D-04 0.000000000000D+00 0.000000000000D+00 0.506504877367D-04 0.000000000000D+00  6 -2 1 25 -24 21 21 4 0.25330796D-02 0.19080824D+00 0.20048694D+05 0.20048694D+05 0.20048694D+05 0.12337098D+01  1  2  4  2  6  2        1 -.239318749115D-01 0.100000000000D+01
-.246161385274D-03 0.000000000000D+00 -.141259070077D-03 0.506504877367D-04 0.000000000000D+00  6 -2 1 25 -24 21 21 4 0.25330796D-02 0.32708298D+00 0.20048694D+05 0.20048694D+05 0.20048694D+05 0.12337098D+01  1  2  5  2  6  2        1 -.770205505445D-01 0.100000000000D+01
0.296476979388D-03 0.000000000000D+00 0.122964381796D-03 0.506504877367D-04 0.000000000000D+00  6 -2 1 25 -24 21 21 4 0.25330796D-02 0.19080824D+00 0.20048694D+05 0.20048694D+05 0.20048694D+05 0.12337098D+01  1  2  6  2  6  2        1 0.346261241555D+00 0.100000000000D+01
-.783779809466D-05 0.000000000000D+00 -.846206881616D-05 0.506504877367D-04 0.000000000000D+00  6 -2 21 25 -24 -1 21 4 0.25330796D-02 0.32708298D+00 0.20048694D+05 0.20048694D+05 0.20048694D+05 0.12337098D+01  3  4  5  5  5  2        1 -.190880967428D-02 0.100000000000D+01
  </mgrwgt>
  </event>
  <event>
  5     66 0.39191994E-03 0.81172637E+02 0.75467711E-02 0.11630726E+00
       -2 -1    0    0    0  501 0.00000000E+00 0.00000000E+00 0.51918384E+02 0.51919371E+02 0.32000000E+00 0.0000E+00 0.9000E+01
        1 -1    0    0  502    0 0.00000000E+00 0.00000000E+00 -.11140952E+04 0.11140952E+04 0.32000000E+00 0.0000E+00 0.9000E+01
       25  1    1    2    0    0 0.12964452E+01 -.35774097E+02 -.63745854E+02 0.14481022E+03 0.12500000E+03 0.0000E+00 0.9000E+01
      -24  1    1    2    0    0 0.69630963E+02 0.75244852E+02 -.69468377E+03 0.70679772E+03 0.80419002E+02 0.0000E+00 0.9000E+01
       21  1    1    2  502  501 -.70927408E+02 -.39470755E+02 -.30374716E+03 0.31440664E+03 0.75000000E+00 0.0000E+00 0.9000E+01
#aMCatNLO 1  0  0  2  5 0.28336430D+02 0.00000000D+00  -5  6  0 0.00000000D+00 0.00000000D+00 0.00000000D+00 0.00000000D+00 0.00000000D+00
  <mgrwgt>
 0.2097125343D-01    4    2    0
 0.240504933511427D+03 0.000000000000000D+00 0.000000000000000D+00 0.240504933511427D+03
 0.240504933511427D+03 0.000000000000000D+00 0.000000000000000D+00 -.240504933511427D+03
 0.210269398131638D+03 0.129748885647172D+01 -.357735162286836D+02 0.165247668213336D+03
 0.179330142531175D+03 0.696318533671541D+02 0.752453470324351D+02 -.123213744413943D+03
 0.914103263600419D+02 -.709293422236258D+02 -.394718308037515D+02 -.420339237993928D+02
 0.000000000000000D+00 0.000000000000000D+00 -.000000000000000D+00 0.000000000000000D+00
 0.326636007584843D+03 0.000000000000000D+00 0.000000000000000D+00 0.326636007584843D+03
 0.243263850709900D+03 0.000000000000000D+00 0.000000000000000D+00 -.243263850709900D+03
 0.210130873121834D+03 -.108166174406961D+02 -.332594764862774D+02 0.165247668213336D+03
 0.176525327011533D+03 0.593776473657746D+02 0.773734017796776D+02 -.123213744413943D+03
 0.951875976165282D+02 -.763062823458174D+02 -.383559547475138D+02 -.420339237993928D+02
 0.880560605448483D+02 0.277452524207389D+02 -.575797054588633D+01 0.833721568749434D+02
0.153066279590D-03 0.000000000000D+00 0.000000000000D+00 0.139877272345D-05 0.000000000000D+00  6 -2 1 25 -24 21 21 2 0.79875231D-02 0.17139934D+00 0.29154838D+05 0.29154838D+05 0.29154838D+05 0.12162031D+01  1  2  2  2  6  2        1 0.249434289613D-01 0.100000000000D+01
-.900519183355D-05 0.807752949154D-05 -.587814816901D-06 0.139877272345D-05 0.000000000000D+00  6 -2 1 25 -24 21 21 4 0.79875231D-02 0.17139934D+00 0.29154838D+05 0.29154838D+05 0.29154838D+05 0.12162031D+01  1  2  3  2  6  2        1 -.217061004942D-02 0.100000000000D+01
0.587031383349D-05 0.000000000000D+00 0.000000000000D+00 0.139877272345D-05 0.000000000000D+00  6 -2 1 25 -24 21 21 4 0.79875231D-02 0.17139934D+00 0.29154838D+05 0.29154838D+05 0.29154838D+05 0.12162031D+01  1  2 15  2  6  2        1 0.141497954022D-02 0.100000000000D+01
-.133444535612D-04 0.000000000000D+00 0.000000000000D+00 0.139877272345D-05 0.000000000000D+00  6 -2 1 25 -24 21 21 4 0.79875231D-02 0.17139934D+00 0.29154838D+05 0.29154838D+05 0.29154838D+05 0.12162031D+01  1  2  4  2  6  2        1 -.321654502639D-02 0.100000000000D+01
  </mgrwgt>
  </event>
  <event>
  6     66 -.39191994E-03 0.10112621E+02 0.75467711E-02 0.12231742E+00
       -2 -1    0    0    0  501 0.00000000E+00 0.00000000E+00 0.11282527E+03 0.11282573E+03 0.32000000E+00 0.0000E+00 0.9000E+01
        1 -1    0    0  502    0 -.00000000E+00 -.00000000E+00 -.29980077E+03 0.29980094E+03 0.32000000E+00 0.0000E+00 0.9000E+01
       25  1    1    2    0    0 0.37934734E+02 -.38591330E+02 0.59706675E+01 0.13634142E+03 0.12500000E+03 0.0000E+00 0.9000E+01
      -24  1    1    2    0    0 -.41133328E+02 0.59085871E+02 -.35125579E+02 0.11350821E+03 0.80419002E+02 0.0000E+00 0.9000E+01
       21  1    1    2  502  503 0.99954102E+01 -.12014201E+02 -.14546786E+03 0.14630691E+03 0.75000000E+00 0.0000E+00 0.9000E+01
       21  1    1    2  503  501 -.67968166E+01 -.84803403E+01 -.12352722E+02 0.16470128E+02 0.75000000E+00 0.0000E+00 0.9000E+01
#aMCatNLO 2  0  0  5  1 0.10110946D+02 0.00000000D+00  -5  6  0 0.00000000D+00 0.00000000D+00 0.00000000D+00 0.00000000D+00 0.00000000D+00
  <mgrwgt>
 -.2349420930D+00    2    2    0
 0.183916372966372D+03 0.000000000000000D+00 0.000000000000000D+00 0.183916372966372D+03
 0.183916372966372D+03 -.000000000000000D+00 -.000000000000000D+00 -.183916372966372D+03
 0.157033775425297D+03 0.378519716124903D+02 -.380610412024679D+02 0.784422845916279D+02
 0.109997236403283D+03 -.411913574835383D+02 0.594576897915891D+02 0.200057805471257D+02
 0.100801734104163D+03 0.333938587104800D+01 -.213966485891213D+02 -.984480651387536D+02
 0.000000000000000D+00 0.000000000000000D+00 -.000000000000000D+00 0.000000000000000D+00
 0.183916372966372D+03 0.000000000000000D+00 0.000000000000000D+00 0.183916372966372D+03
 0.183916372966372D+03 -.000000000000000D+00 -.000000000000000D+00 -.183916372966372D+03
 0.155971875420274D+03 0.379353656659151D+02 -.385953769529494D+02 0.759837537357199D+02
 0.109472206153417D+03 -.411328842694980D+02 0.590830308390127D+02 0.182819381979637D+02
 0.900943949632325D+02 0.100649815870938D+02 -.119215556653717D+02 -.887331542319997D+02
 0.122942693958194D+02 -.686746298351088D+01 -.856609822069156D+01 -.553253770168386D+01
-.408251808042D-03 0.000000000000D+00 0.000000000000D+00 0.614386541820D-04 0.000000000000D+00  6 -2 1 25 -24 21 21 4 0.17357782D-01 0.46123243D-01 0.18323419D+05 0.18323419D+05 0.18323419D+05 0.12380342D+01  1  2 13  3  6  5       21 -.192955374470D+00 0.100000000000D+01
-.883906866641D-04 0.000000000000D+00 0.000000000000D+00 0.616133175044D-04 0.000000000000D+00  6 -2 1 25 -24 21 21 4 0.17357782D-01 0.46123243D-01 0.17669935D+05 0.17669935D+05 0.17669935D+05 0.12397927D+01  1  2  8  3  6  5       21 -.419867185202D-01 0.100000000000D+01
  </mgrwgt>
  </event>
  <event>
  5     66 -.39191994E-03 0.41538862E+02 0.75467711E-02 0.11917680E+00
       -2 -1    0    0    0  501 0.00000000E+00 0.00000000E+00 0.10101914E+03 0.10101964E+03 0.32000000E+00 0.0000E+00 0.9000E+01
        1 -1    0    0  502    0 0.00000000E+00 0.00000000E+00 -.18524573E+03 0.18524600E+03 0.32000000E+00 0.0000E+00 0.9000E+01
       25  1    1    2    0    0 -.11033062E+02 -.36203835E+02 -.95010476E+02 0.16150677E+03 0.12500000E+03 0.0000E+00 0.9000E+01
      -24  1    1    2    0    0 0.36161659E+01 -.46637232E+01 -.38175688E+01 0.80725564E+02 0.80419002E+02 0.0000E+00 0.9000E+01
       21  1    1    2  502  501 0.74168962E+01 0.40867558E+02 0.14601455E+02 0.44033313E+02 0.75000000E+00 0.0000E+00 0.9000E+01
#aMCatNLO 1  0  0  2  5 0.90599480D+01 0.00000000D+00  -5  6  0 0.00000000D+00 0.00000000D+00 0.00000000D+00 0.00000000D+00 0.00000000D+00
  <mgrwgt>
 -.4703612628D-01    5    4    0
 0.136797205945501D+03 0.000000000000000D+00 0.000000000000000D+00 0.136797205945501D+03
 0.136797205945501D+03 0.000000000000000D+00 0.000000000000000D+00 -.136797205945501D+03
 0.139738822412193D+03 -.110334787560479D+02 -.362061307464179D+02 -.496922220479188D+02
 0.832888611988298D+02 0.361591747412843D+01 -.466509180407791D+01 0.208561862455057D+02
 0.505667282799791D+02 0.741756128191948D+01 0.408712225504958D+02 0.288360358024131D+02
 0.000000000000000D+00 -.000000000000000D+00 -.000000000000000D+00 -.000000000000000D+00
 0.142560844043249D+03 0.000000000000000D+00 0.000000000000000D+00 0.142560844043249D+03
 0.399187006307131D+03 0.000000000000000D+00 0.000000000000000D+00 -.399187006307131D+03
 0.139873403262246D+03 0.170071699080940D+02 -.343657995661470D+02 -.496922220479188D+02
 0.856591003685224D+02 0.205587046552189D+02 -.355312253747789D+01 0.208561862455057D+02
 0.536450216914967D+02 0.178683384629856D+02 0.415571157812389D+02 0.288360358024131D+02
 0.262570325028114D+03 -.554342130262985D+02 -.363819367761397D+01 -.256626162263882D+03
 0.136797205945501D+03 0.000000000000000D+00 0.000000000000000D+00 0.136797205945501D+03
 0.136797205945501D+03 0.000000000000000D+00 0.000000000000000D+00 -.136797205945501D+03
 0.139738822412193D+03 -.110334787560479D+02 -.362061307464179D+02 -.496922220479188D+02
 0.832888611988298D+02 0.361591747412843D+01 -.466509180407791D+01 0.208561862455057D+02
 0.000000000000000D+00 -.000000000000000D+00 -.000000000000000D+00 -.000000000000000D+00
 0.505667282799791D+02 0.741756128191948D+01 0.408712225504958D+02 0.288360358024131D+02
 0.142560844043249D+03 0.000000000000000D+00 0.000000000000000D+00 0.142560844043249D+03
 0.399187006307131D+03 0.000000000000000D+00 0.000000000000000D+00 -.399187006307131D+03
 0.139873403262246D+03 0.170071699080940D+02 -.343657995661470D+02 -.496922220479188D+02
 0.856591003685224D+02 0.205587046552189D+02 -.355312253747789D+01 0.208561862455057D+02
 0.262570325028114D+03 -.554342130262985D+02 -.363819367761397D+01 -.256626162263882D+03
 0.536450216914967D+02 0.178683384629856D+02 0.415571157812389D+02 0.288360358024131D+02
0.160697626441D-04 0.000000000000D+00 0.000000000000D+00 0.145232471721D-04 0.000000000000D+00  6 -2 1 25 -24 21 21 2 0.15541466D-01 0.28499403D-01 0.15974306D+05 0.15974306D+05 0.15974306D+05 0.12447188D+01  1  2  2  2  6  2        1 0.108673952387D-01 0.100000000000D+01
0.224672369993D-06 0.848024672890D-06 -.617121198189D-07 0.145232471721D-04 0.000000000000D+00  6 -2 1 25 -24 21 21 4 0.15541466D-01 0.28499403D-01 0.15974306D+05 0.15974306D+05 0.15974306D+05 0.12447188D+01  1  2  3  2  6  2        1 0.235400920102D-03 0.100000000000D+01
0.705900282344D-06 0.000000000000D+00 0.000000000000D+00 0.145232471721D-04 0.000000000000D+00  6 -2 1 25 -24 21 21 4 0.15541466D-01 0.28499403D-01 0.15974306D+05 0.15974306D+05 0.15974306D+05 0.12447188D+01  1  2 15  2  6  2        1 0.739608417223D-03 0.100000000000D+01
-.164102728964D-03 0.000000000000D+00 -.112520773446D-04 0.145232471721D-04 0.000000000000D+00  6 -2 1 25 -24 21 21 4 0.15541466D-01 0.84591750D-01 0.15974306D+05 0.15974306D+05 0.15974306D+05 0.12447188D+01  1  2  5  2  6  2        1 -.439701281399D-01 0.100000000000D+01
-.196989426844D-04 0.000000000000D+00 -.139004665933D-05 0.145232471721D-04 0.000000000000D+00  6 -2 21 25 -24 -1 21 4 0.15541466D-01 0.84591750D-01 0.15974306D+05 0.15974306D+05 0.15974306D+05 0.12447188D+01  3  4  5  5  5  2        1 -.149084027176D-01 0.100000000000D+01
  </mgrwgt>
  </event>
  <event>
  5     66 0.39191994E-03 0.21431068E+02 0.75467711E-02 0.12180126E+00
       -2 -1    0    0    0  501 0.00000000E+00 0.00000000E+00 0.16607340E+02 0.16610422E+02 0.32000000E+00 0.0000E+00 0.9000E+01
        1 -1    0    0  502    0 -.00000000E+00 -.00000000E+00 -.23888602E+04 0.23888602E+04 0.32000000E+00 0.0000E+00 0.9000E+01
       25  1    1    2    0    0 0.29382781E+02 -.52433102E+02 -.32287176E+03 0.35140255E+03 0.12500000E+03 0.0000E+00 0.9000E+01
      -24  1    1    2    0    0 -.45735404E+02 0.66268779E+02 -.18599777E+04 0.18634558E+04 0.80419002E+02 0.0000E+00 0.9000E+01
       21  1    1    2  502  501 0.16352623E+02 -.13835677E+02 -.18940337E+03 0.19061225E+03 0.75000000E+00 0.0000E+00 0.9000E+01
#aMCatNLO 1  0  0  5  1 0.32777233D+01 0.00000000D+00  -5  6  0 0.00000000D+00 0.00000000D+00 0.00000000D+00 0.00000000D+00 0.00000000D+00
  <mgrwgt>
 0.9002103767D-01   25    2    0
 0.199189219557650D+03 0.000000000000000D+00 0.000000000000000D+00 0.199189219557650D+03
 0.199189219557650D+03 -.000000000000000D+00 -.000000000000000D+00 -.199189219557650D+03
 0.199195191717668D+03 0.293784649900076D+02 -.524294501412782D+02 0.142974763354072D+03
 0.176091570968891D+03 -.457392196798919D+02 0.662720073339205D+02 -.134376226464836D+03
 0.230916764287415D+02 0.163607546898843D+02 -.138425571926422D+02 -.859853688923593D+01
 0.000000000000000D+00 0.000000000000000D+00 0.000000000000000D+00 0.000000000000000D+00
 0.199189219557650D+03 0.000000000000000D+00 0.000000000000000D+00 0.199189219557650D+03
 0.199189219557650D+03 -.000000000000000D+00 -.000000000000000D+00 -.199189219557650D+03
 0.199193385982305D+03 0.297152364081058D+02 -.527143867291212D+02 0.142797770206955D+03
 0.176039343258192D+03 -.454415514384350D+02 0.660201552809496D+02 -.134532668597453D+03
 0.120441521746530D+02 0.657750852030247D+01 -.711667302989366D+01 -.715198911192769D+01
 0.111015577001515D+02 0.914880651002666D+01 -.618909552193463D+01 -.111311249757431D+01
0.326234533288D-03 0.000000000000D+00 0.000000000000D+00 0.191312063109D-04 0.000000000000D+00  6 -2 1 25 -24 21 21 2 0.25552141D-02 0.36751719D+00 0.18759688D+05 0.18759688D+05 0.18759688D+05 0.12368989D+01  1  2  2  3  6  5       21 0.451480530110D-01 0.100000000000D+01
0.678820502649D-04 0.172158693009D-04 -.125282650735D-05 0.191312063109D-04 0.000000000000D+00  6 -2 1 25 -24 21 21 4 0.25552141D-02 0.36751719D+00 0.18759688D+05 0.18759688D+05 0.18759688D+05 0.12368989D+01  1  2  3  3  6  5       21 0.143725035109D-01 0.100000000000D+01
0.281429437866D-05 0.000000000000D+00 0.000000000000D+00 0.191312063109D-04 0.000000000000D+00  6 -2 1 25 -24 21 21 4 0.25552141D-02 0.36751719D+00 0.18759688D+05 0.18759688D+05 0.18759688D+05 0.12368989D+01  1  2 15  3  6  5       21 0.595863791388D-03 0.100000000000D+01
0.707858556620D-05 0.000000000000D+00 0.000000000000D+00 0.191397212571D-04 0.000000000000D+00  6 -2 1 25 -24 21 21 4 0.25552141D-02 0.36751719D+00 0.18652868D+05 0.18652868D+05 0.18652868D+05 0.12371741D+01  1  2 12  3  6  5       21 0.150016559189D-02 0.100000000000D+01
0.704951609703D-05 0.000000000000D+00 0.000000000000D+00 0.191397212571D-04 0.000000000000D+00  6 -2 1 25 -24 21 21 4 0.25552141D-02 0.36751719D+00 0.18652868D+05 0.18652868D+05 0.18652868D+05 0.12371741D+01  1  2 12  3  6  5       21 0.149400489537D-02 0.100000000000D+01
-.239382820412D-02 0.000000000000D+00 0.000000000000D+00 0.191312063109D-04 0.000000000000D+00  6 -2 1 25 -24 21 21 4 0.25552141D-02 0.36751719D+00 0.18759688D+05 0.18759688D+05 0.18759688D+05 0.12368989D+01  1  2  4  3  6  5       21 -.506839497835D+00 0.100000000000D+01
-.840674109652D-03 0.000000000000D+00 0.000000000000D+00 0.191312063109D-04 0.000000000000D+00  6 -2 1 25 -24 21 21 4 0.25552141D-02 0.36751719D+00 0.18759688D+05 0.18759688D+05 0.18759688D+05 0.12368989D+01  1  2  5  3  6  5       21 -.177993910693D+00 0.100000000000D+01
0.226816459529D-02 0.000000000000D+00 -.000000000000D+00 0.191312063109D-04 0.000000000000D+00  6 -2 1 25 -24 21 21 4 0.25552141D-02 0.36751719D+00 0.18759688D+05 0.18759688D+05 0.18759688D+05 0.12368989D+01  1  2  6  3  6  5       21 0.480233043668D+00 0.100000000000D+01
0.108987711317D-02 0.000000000000D+00 0.000000000000D+00 0.191312063109D-04 0.132210540674D-04  6 -2 1 25 -24 21 21 4 0.25552141D-02 0.36751719D+00 0.18652868D+05 0.18652868D+05 0.18652868D+05 0.12371741D+01  1  2 11  3  6  5       21 0.230977803302D+00 0.100000000000D+01
0.394325705542D-06 0.000000000000D+00 0.000000000000D+00 0.191397212571D-04 0.000000000000D+00  6 -2 1 25 -24 1 -1 4 0.25552141D-02 0.36751719D+00 0.18652868D+05 0.18652868D+05 0.18652868D+05 0.12371741D+01  1  2 12  6  6  5       21 0.835694998552D-04 0.100000000000D+01
0.392710176004D-06 0.000000000000D+00 0.000000000000D+00 0.191397212571D-04 0.000000000000D+00  6 -2 1 25 -24 1 -1 4 0.25552141D-02 0.36751719D+00 0.18652868D+05 0.18652868D+05 0.18652868D+05 0.12371741D+01  1  2 12  6  6  5       21 0.832271204628D-04 0.100000000000D+01
-.762528664566D-05 0.000000000000D+00 0.000000000000D+00 0.191312063109D-04 0.000000000000D+00  6 -2 1 25 -24 1 -1 4 0.25552141D-02 0.36751719D+00 0.18759688D+05 0.18759688D+05 0.18759688D+05 0.12368989D+01  1  2  5  6  6  5       21 -.161448363240D-02 0.100000000000D+01
0.747906824501D-05 0.000000000000D+00 0.000000000000D+00 0.191312063109D-04 0.980217729370D-07  6 -2 1 25 -24 1 -1 4 0.25552141D-02 0.36751719D+00 0.18652868D+05 0.18652868D+05 0.18652868D+05 0.12371741D+01  1  2 11  6  6  5       21 0.158503993991D-02 0.100000000000D+01
0.394325705542D-06 0.000000000000D+00 0.000000000000D+00 0.191397212571D-04 0.000000000000D+00  6 -2 1 25 -24 2 -2 4 0.25552141D-02 0.36751719D+00 0.18652868D+05 0.18652868D+05 0.18652868D+05 0.12371741D+01  1  2 12  7  6  5       21 0.835694998552D-04 0.100000000000D+01
0.392710176004D-06 0.000000000000D+00 0.000000000000D+00 0.191397212571D-04 0.000000000000D+00  6 -2 1 25 -24 2 -2 4 0.25552141D-02 0.36751719D+00 0.18652868D+05 0.18652868D+05 0.18652868D+05 0.12371741D+01  1  2 12  7  6  5       21 0.832271204628D-04 0.100000000000D+01
-.762528664566D-05 0.000000000000D+00 0.000000000000D+00 0.191312063109D-04 0.000000000000D+00  6 -2 1 25 -24 2 -2 4 0.25552141D-02 0.36751719D+00 0.18759688D+05 0.18759688D+05 0.18759688D+05 0.12368989D+01  1  2  5  7  6  5       21 -.161448363240D-02 0.100000000000D+01
0.745840518604D-05 0.000000000000D+00 0.000000000000D+00 0.191312063109D-04 0.975121613065D-07  6 -2 1 25 -24 2 -2 4 0.25552141D-02 0.36751719D+00 0.18652868D+05 0.18652868D+05 0.18652868D+05 0.12371741D+01  1  2 11  7  6  5       21 0.158066081504D-02 0.100000000000D+01
0.394325705542D-06 0.000000000000D+00 0.000000000000D+00 0.191397212571D-04 0.000000000000D+00  6 -2 1 25 -24 3 -3 4 0.25552141D-02 0.36751719D+00 0.18652868D+05 0.18652868D+05 0.18652868D+05 0.12371741D+01  1  2 12  8  6  5       21 0.835694998552D-04 0.100000000000D+01
0.394325705542D-06 0.000000000000D+00 0.000000000000D+00 0.191397212571D-04 0.000000000000D+00  6 -2 1 25 -24 4 -4 4 0.25552141D-02 0.36751719D+00 0.18652868D+05 0.18652868D+05 0.18652868D+05 0.12371741D+01  1  2 12  8  6  5       21 0.835694998552D-04 0.100000000000D+01
0.392710176004D-06 0.000000000000D+00 0.000000000000D+00 0.191397212571D-04 0.000000000000D+00  6 -2 1 25 -24 3 -3 4 0.25552141D-02 0.36751719D+00 0.18652868D+05 0.18652868D+05 0.18652868D+05 0.12371741D+01  1  2 12  8  6  5       21 0.832271204628D-04 0.100000000000D+01
0.392710176004D-06 0.000000000000D+00 0.000000000000D+00 0.191397212571D-04 0.000000000000D+00  6 -2 1 25 -24 4 -4 4 0.25552141D-02 0.36751719D+00 0.18652868D+05 0.18652868D+05 0.18652868D+05 0.12371741D+01  1  2 12  8  6  5       21 0.832271204628D-04 0.100000000000D+01
-.762528664566D-05 0.000000000000D+00 0.000000000000D+00 0.191312063109D-04 0.000000000000D+00  6 -2 1 25 -24 3 -3 4 0.25552141D-02 0.36751719D+00 0.18759688D+05 0.18759688D+05 0.18759688D+05 0.12368989D+01  1  2  5  8  6  5       21 -.161448363240D-02 0.100000000000D+01
-.762528664566D-05 0.000000000000D+00 0.000000000000D+00 0.191312063109D-04 0.000000000000D+00  6 -2 1 25 -24 4 -4 4 0.25552141D-02 0.36751719D+00 0.18759688D+05 0.18759688D+05 0.18759688D+05 0.12368989D+01  1  2  5  8  6  5       21 -.161448363240D-02 0.100000000000D+01
0.745070003381D-05 0.000000000000D+00 0.000000000000D+00 0.191312063109D-04 0.973304268753D-07  6 -2 1 25 -24 3 -3 4 0.25552141D-02 0.36751719D+00 0.18652868D+05 0.18652868D+05 0.18652868D+05 0.12371741D+01  1  2 11  8  6  5       21 0.157902786110D-02 0.100000000000D+01
0.745070003381D-05 0.000000000000D+00 0.000000000000D+00 0.191312063109D-04 0.973304268753D-07  6 -2 1 25 -24 4 -4 4 0.25552141D-02 0.36751719D+00 0.18652868D+05 0.18652868D+05 0.18652868D+05 0.12371741D+01  1  2 11  8  6  5       21 0.157902786110D-02 0.100000000000D+01
  </mgrwgt>
  </event>
  <event>
  6     66 0.39191994E-03 0.27089072E+02 0.75467711E-02 0.12281456E+00
       -2 -1    0    0    0  501 0.00000000E+00 0.00000000E+00 0.65643701E+02 0.65644481E+02 0.32000000E+00 0.0000E+00 0.9000E+01
        1 -1    0    0  502    0 -.00000000E+00 -.00000000E+00 -.59361047E+03 0.59361056E+03 0.32000000E+00 0.0000E+00 0.9000E+01
       25  1    1    2    0    0 0.14917241E+02 -.84453210E+01 -.41108501E+03 0.43001132E+03 0.12500000E+03 0.0000E+00 0.9000E+01
      -24  1    1    2    0    0 -.41783757E+02 -.11445792E+02 0.10009997E+02 0.91892897E+02 0.80419002E+02 0.0000E+00 0.9000E+01
       21  1    1    2  502  503 0.19413922E+02 0.25657918E+02 -.12297815E+03 0.12711969E+03 0.75000000E+00 0.0000E+00 0.9000E+01
       21  1    1    2  503  501 0.74525937E+01 -.57668049E+01 -.39136075E+01 0.10231130E+02 0.75000000E+00 0.0000E+00 0.9000E+01
#aMCatNLO 2  0  0  5  1 0.11805848D+02 0.00000000D+00  -5  6  0 0.00000000D+00 0.00000000D+00 0.00000000D+00 0.00000000D+00 0.00000000D+00
  <mgrwgt>
 0.2164299906D-01    3    2    0
 0.197400795289713D+03 0.000000000000000D+00 0.000000000000000D+00 0.197400795289713D+03
 0.197400795289713D+03 -.000000000000000D+00 -.000000000000000D+00 -.197400795289713D+03
 0.165272599016330D+03 0.107009802278977D+02 -.115669064883571D+02 -.106966011807790D+03
 0.171952071740701D+03 -.460658067099720D+02 -.146160855192251D+02 0.144099307832491D+03
 0.575769198223940D+02 0.353648264820743D+02 0.261829920075822D+02 -.371332960247006D+02
 0.000000000000000D+00 0.000000000000000D+00 0.000000000000000D+00 0.000000000000000D+00
 0.197400795289713D+03 0.000000000000000D+00 0.000000000000000D+00 0.197400795289713D+03
 0.197400795289713D+03 -.000000000000000D+00 -.000000000000000D+00 -.197400795289713D+03
 0.168367547087529D+03 0.149981959342345D+02 -.838538474242393D+01 -.111478116030506D+03
 0.166738052019602D+03 -.417035483414875D+02 -.113864082562833D+02 0.139518908394782D+03
 0.475998731416270D+02 0.190191975496751D+02 0.256404185424973D+02 -.353070387406106D+02
 0.120961183306669D+02 0.768615485757795D+01 -.586862554379003D+01 0.726624637633495D+01
-.980942913909D-04 0.000000000000D+00 0.000000000000D+00 0.477733156607D-05 0.000000000000D+00  6 -2 1 25 -24 21 21 4 0.10099098D-01 0.91324755D-01 0.16779608D+05 0.16779608D+05 0.16779608D+05 0.12423097D+01  1  2 13  3  6  5       21 -.469799834205D-01 0.100000000000D+01
-.326720123566D-04 0.000000000000D+00 0.000000000000D+00 0.476374187516D-05 0.000000000000D+00  6 -2 1 25 -24 21 21 4 0.10099098D-01 0.91324755D-01 0.17399667D+05 0.17399667D+05 0.17399667D+05 0.12405415D+01  1  2  8  3  6  5       21 -.155670701503D-01 0.100000000000D+01
0.175788984024D-03 0.000000000000D+00 0.000000000000D+00 0.476374187516D-05 0.378742992637D-06  6 -2 1 25 -24 21 21 4 0.10099098D-01 0.91324755D-01 0.16779608D+05 0.16779608D+05 0.16779608D+05 0.12423097D+01  1  2  1  3  6  5       21 0.841900526303D-01 0.100000000000D+01
  </mgrwgt>
  </event>
  <event>
  6     66 0.39191994E-03 0.16321359E+02 0.75467711E-02 0.12344095E+00
       -2 -1    0    0    0  501 0.00000000E+00 0.00000000E+00 0.14152694E+02 0.14156311E+02 0.32000000E+00 0.0000E+00 0.9000E+01
        1 -1    0    0  502    0 -.00000000E+00 -.00000000E+00 -.18431176E+04 0.18431176E+04 0.32000000E+00 0.0000E+00 0.9000E+01
       25  1    1    2    0    0 -.24563340E+02 -.39453020E+02 -.40861941E+03 0.42983104E+03 0.12500000E+03 0.0000E+00 0.9000E+01
      -24  1    1    2    0    0 0.33324293E+02 0.22311077E+02 -.61188169E+03 0.61844540E+03 0.80419002E+02 0.0000E+00 0.9000E+01
       21  1    1    2  503  501 -.18938994E+01 0.19972392E+02 -.69411504E+03 0.69440531E+03 0.75000000E+00 0.0000E+00 0.9000E+01
       21  1    1    2  502  503 -.68670538E+01 -.28304495E+01 -.11434878E+03 0.11459221E+03 0.75000000E+00 0.0000E+00 0.9000E+01
#aMCatNLO 2  0  0  5  1 0.11805848D+02 0.00000000D+00  -5  6  0 0.00000000D+00 0.00000000D+00 0.00000000D+00 0.00000000D+00 0.00000000D+00
  <mgrwgt>
 0.3093191825D+00    1    2    0
 0.161519238044552D+03 0.000000000000000D+00 0.000000000000000D+00 0.161519238044552D+03
 0.161519238044552D+03 -.000000000000000D+00 -.000000000000000D+00 -.161519238044552D+03
 0.158701767552350D+03 -.243546254721580D+02 -.398613965418776D+02 0.859021088686552D+02
 0.911821622818643D+02 0.334446822156515D+02 0.220755198602498D+02 -.155272476124875D+02
 0.731545462548901D+02 -.909005674349346D+01 0.177858766816278D+02 -.703748612561677D+02
 0.000000000000000D+00 0.000000000000000D+00 0.000000000000000D+00 -.000000000000000D+00
 0.161519238044552D+03 0.000000000000000D+00 0.000000000000000D+00 0.161519238044552D+03
 0.161519238044552D+03 -.000000000000000D+00 -.000000000000000D+00 -.161519238044552D+03
 0.157755044804787D+03 -.245650532347992D+02 -.394496672928379D+02 0.842729854189124D+02
 0.913602237526707D+02 0.333233007683876D+02 0.223130184274638D+02 -.164669779960611D+02
 0.623652028017352D+02 -.179264657476116D+01 0.200083914302093D+02 -.590412500810669D+02
 0.115580047299118D+02 -.696560095882722D+01 -.287174256483516D+01 -.876475734178434D+01
0.504595249085D-03 0.000000000000D+00 0.000000000000D+00 0.602952517694D-04 0.320709855953D-05  6 -2 1 25 -24 21 21 4 0.21776179D-02 0.28355684D+00 0.15730954D+05 0.15730954D+05 0.15730954D+05 0.12454737D+01  1  2  1  3  6  5       21 0.309319182481D+00 0.100000000000D+01
  </mgrwgt>
  </event>
  <event>
  5     66 -.39191994E-03 0.50385441E+02 0.75467711E-02 0.10168952E+00
       -2 -1    0    0    0  501 0.00000000E+00 0.00000000E+00 0.82921141E+03 0.82921147E+03 0.32000000E+00 0.0000E+00 0.9000E+01
        1 -1    0    0  502    0 0.00000000E+00 0.00000000E+00 -.29905083E+03 0.29905100E+03 0.32000000E+00 0.0000E+00 0.9000E+01
       25  1    1    2    0    0 -.19248694E+03 -.43562250E+03 0.22484485E+03 0.54129326E+03 0.12500000E+03 0.0000E+00 0.9000E+01
      -24  1    1    2    0    0 0.18026020E+03 0.38674600E+03 0.21728367E+03 0.48553643E+03 0.80419002E+02 0.0000E+00 0.9000E+01
       21  1    1    2  502  501 0.12226737E+02 0.48876500E+02 0.88032052E+02 0.10143279E+03 0.75000000E+00 0.0000E+00 0.9000E+01
#aMCatNLO 1  0  0  5  2 0.35118372D+01 0.00000000D+00  -5  6  0 0.00000000D+00 0.00000000D+00 0.00000000D+00 0.00000000D+00 0.00000000D+00
  <mgrwgt>
 -.4133050998D+01   25    2    0
 0.497972382448927D+03 0.000000000000000D+00 0.000000000000000D+00 0.497972382448927D+03
 0.497972382448927D+03 -.000000000000000D+00 -.000000000000000D+00 -.497972382448927D+03
 0.493519866714525D+03 -.192487306599167D+03 -.435623975309845D+03 -.334252565490275D+02
 0.434377549257015D+03 0.180259878135670D+03 0.386744709164729D+03 -.123103863368515D+02
 0.680473489263152D+02 0.122274284634971D+02 0.488792661451161D+02 0.457356428858790D+02
 0.000000000000000D+00 0.000000000000000D+00 0.000000000000000D+00 0.000000000000000D+00
 0.497972382448927D+03 0.000000000000000D+00 0.000000000000000D+00 0.497972382448927D+03
 0.497972382448927D+03 -.000000000000000D+00 -.000000000000000D+00 -.497972382448927D+03
 0.493252098596278D+03 -.192423109505913D+03 -.435367346795004D+03 -.331851328517074D+02
 0.434596286857374D+03 0.180316411556109D+03 0.386970702071739D+03 -.120989279475401D+02
 0.103497098222381D+02 0.168708002206878D+01 0.940059771258351D+01 0.398735715102608D+01
 0.577466696219648D+02 0.104196179277355D+02 0.389960470106821D+02 0.412967036482215D+02
0.775927939085D-01 0.000000000000D+00 0.000000000000D+00 0.523923157808D-05 0.000000000000D+00  6 -2 1 25 -24 21 21 2 0.12757100D+00 0.46007838D-01 0.23862012D+06 0.23862012D+06 0.23862012D+06 0.11303911D+01  1  2  2  3  6  5       21 0.360032016855D+00 0.100000000000D+01
0.251404079095D-01 0.409468422965D-02 -.297976759261D-03 0.523923157808D-05 0.000000000000D+00  6 -2 1 25 -24 21 21 4 0.12757100D+00 0.46007838D-01 0.23862012D+06 0.23862012D+06 0.23862012D+06 0.11303911D+01  1  2  3  3  6  5       21 0.149056021001D+00 0.100000000000D+01
0.947209672276D-03 0.000000000000D+00 0.000000000000D+00 0.523923157808D-05 0.000000000000D+00  6 -2 1 25 -24 21 21 4 0.12757100D+00 0.46007838D-01 0.23862012D+06 0.23862012D+06 0.23862012D+06 0.11303911D+01  1  2 15  3  6  5       21 0.561595123321D-02 0.100000000000D+01
0.112348018490D-02 0.000000000000D+00 0.000000000000D+00 0.523957651402D-05 0.000000000000D+00  6 -2 1 25 -24 21 21 4 0.12757100D+00 0.46007838D-01 0.23837695D+06 0.23837695D+06 0.23837695D+06 0.11304283D+01  1  2 12  3  6  5       21 0.666208778470D-02 0.100000000000D+01
0.113752956126D-02 0.000000000000D+00 0.000000000000D+00 0.523957651402D-05 0.000000000000D+00  6 -2 1 25 -24 21 21 4 0.12757100D+00 0.46007838D-01 0.23837695D+06 0.23837695D+06 0.23837695D+06 0.11304283D+01  1  2 12  3  6  5       21 0.674539871433D-02 0.100000000000D+01
-.151365138247D+01 0.000000000000D+00 0.000000000000D+00 0.523923157808D-05 0.000000000000D+00  6 -2 1 25 -24 21 21 4 0.12757100D+00 0.46007838D-01 0.23862012D+06 0.23862012D+06 0.23862012D+06 0.11303911D+01  1  2  4  3  6  5       21 -.897435129395D+01 0.100000000000D+01
-.500292786256D-01 0.000000000000D+00 0.000000000000D+00 0.523923157808D-05 0.000000000000D+00  6 -2 1 25 -24 21 21 4 0.12757100D+00 0.46007838D-01 0.23862012D+06 0.23862012D+06 0.23862012D+06 0.11303911D+01  1  2  5  3  6  5       21 -.296620692564D+00 0.100000000000D+01
0.742992375183D+00 0.000000000000D+00 -.000000000000D+00 0.523923157808D-05 0.000000000000D+00  6 -2 1 25 -24 21 21 4 0.12757100D+00 0.46007838D-01 0.23862012D+06 0.23862012D+06 0.23862012D+06 0.11303911D+01  1  2  6  3  6  5       21 0.440515871808D+01 0.100000000000D+01
0.442990184798D-01 0.000000000000D+00 0.000000000000D+00 0.523923157808D-05 0.227261840077D-05  6 -2 1 25 -24 21 21 4 0.12757100D+00 0.46007838D-01 0.23837695D+06 0.23837695D+06 0.23837695D+06 0.11304283D+01  1  2 11  3  6  5       21 0.262687276424D+00 0.100000000000D+01
0.411555971647D-03 0.000000000000D+00 0.000000000000D+00 0.523957651402D-05 0.000000000000D+00  6 -2 1 25 -24 1 -1 4 0.12757100D+00 0.46007838D-01 0.23837695D+06 0.23837695D+06 0.23837695D+06 0.11304283D+01  1  2 12  6  6  5       21 0.244047206909D-02 0.100000000000D+01
0.414047293555D-03 0.000000000000D+00 0.000000000000D+00 0.523957651402D-05 0.000000000000D+00  6 -2 1 25 -24 1 -1 4 0.12757100D+00 0.46007838D-01 0.23837695D+06 0.23837695D+06 0.23837695D+06 0.11304283D+01  1  2 12  6  6  5       21 0.245524527602D-02 0.100000000000D+01
-.126203226045D-01 0.000000000000D+00 0.000000000000D+00 0.523923157808D-05 0.000000000000D+00  6 -2 1 25 -24 1 -1 4 0.12757100D+00 0.46007838D-01 0.23862012D+06 0.23862012D+06 0.23862012D+06 0.11303911D+01  1  2  5  6  6  5       21 -.748251610693D-01 0.100000000000D+01
0.927967057384D-02 0.000000000000D+00 0.000000000000D+00 0.523923157808D-05 0.265063885127D-07  6 -2 1 25 -24 1 -1 4 0.12757100D+00 0.46007838D-01 0.23837695D+06 0.23837695D+06 0.23837695D+06 0.11304283D+01  1  2 11  6  6  5       21 0.550272099204D-01 0.100000000000D+01
0.411555971647D-03 0.000000000000D+00 0.000000000000D+00 0.523957651402D-05 0.000000000000D+00  6 -2 1 25 -24 2 -2 4 0.12757100D+00 0.46007838D-01 0.23837695D+06 0.23837695D+06 0.23837695D+06 0.11304283D+01  1  2 12  7  6  5       21 0.244047206909D-02 0.100000000000D+01
0.414047293555D-03 0.000000000000D+00 0.000000000000D+00 0.523957651402D-05 0.000000000000D+00  6 -2 1 25 -24 2 -2 4 0.12757100D+00 0.46007838D-01 0.23837695D+06 0.23837695D+06 0.23837695D+06 0.11304283D+01  1  2 12  7  6  5       21 0.245524527602D-02 0.100000000000D+01
-.126203226045D-01 0.000000000000D+00 0.000000000000D+00 0.523923157808D-05 0.000000000000D+00  6 -2 1 25 -24 2 -2 4 0.12757100D+00 0.46007838D-01 0.23862012D+06 0.23862012D+06 0.23862012D+06 0.11303911D+01  1  2  5  7  6  5       21 -.748251610693D-01 0.100000000000D+01
0.941363850255D-02 0.000000000000D+00 0.000000000000D+00 0.523923157808D-05 0.268862209690D-07  6 -2 1 25 -24 2 -2 4 0.12757100D+00 0.46007838D-01 0.23837695D+06 0.23837695D+06 0.23837695D+06 0.11304283D+01  1  2 11  7  6  5       21 0.558216218855D-01 0.100000000000D+01
0.411555971647D-03 0.000000000000D+00 0.000000000000D+00 0.523957651402D-05 0.000000000000D+00  6 -2 1 25 -24 3 -3 4 0.12757100D+00 0.46007838D-01 0.23837695D+06 0.23837695D+06 0.23837695D+06 0.11304283D+01  1  2 12  8  6  5       21 0.244047206909D-02 0.100000000000D+01
0.411555971647D-03 0.000000000000D+00 0.000000000000D+00 0.523957651402D-05 0.000000000000D+00  6 -2 1 25 -24 4 -4 4 0.12757100D+00 0.46007838D-01 0.23837695D+06 0.23837695D+06 0.23837695D+06 0.11304283D+01  1  2 12  8  6  5       21 0.244047206909D-02 0.100000000000D+01
0.414047293555D-03 0.000000000000D+00 0.000000000000D+00 0.523957651402D-05 0.000000000000D+00  6 -2 1 25 -24 3 -3 4 0.12757100D+00 0.46007838D-01 0.23837695D+06 0.23837695D+06 0.23837695D+06 0.11304283D+01  1  2 12  8  6  5       21 0.245524527602D-02 0.100000000000D+01
0.414047293555D-03 0.000000000000D+00 0.000000000000D+00 0.523957651402D-05 0.000000000000D+00  6 -2 1 25 -24 4 -4 4 0.12757100D+00 0.46007838D-01 0.23837695D+06 0.23837695D+06 0.23837695D+06 0.11304283D+01  1  2 12  8  6  5       21 0.245524527602D-02 0.100000000000D+01
-.126203226045D-01 0.000000000000D+00 0.000000000000D+00 0.523923157808D-05 0.000000000000D+00  6 -2 1 25 -24 3 -3 4 0.12757100D+00 0.46007838D-01 0.23862012D+06 0.23862012D+06 0.23862012D+06 0.11303911D+01  1  2  5  8  6  5       21 -.748251610693D-01 0.100000000000D+01
-.126203226045D-01 0.000000000000D+00 0.000000000000D+00 0.523923157808D-05 0.000000000000D+00  6 -2 1 25 -24 4 -4 4 0.12757100D+00 0.46007838D-01 0.23862012D+06 0.23862012D+06 0.23862012D+06 0.11303911D+01  1  2  5  8  6  5       21 -.748251610693D-01 0.100000000000D+01
0.934527424030D-02 0.000000000000D+00 0.000000000000D+00 0.523923157808D-05 0.266786873599D-07  6 -2 1 25 -24 3 -3 4 0.12757100D+00 0.46007838D-01 0.23837695D+06 0.23837695D+06 0.23837695D+06 0.11304283D+01  1  2 11  8  6  5       21 0.554162309204D-01 0.100000000000D+01
0.934527424030D-02 0.000000000000D+00 0.000000000000D+00 0.523923157808D-05 0.266786873599D-07  6 -2 1 25 -24 4 -4 4 0.12757100D+00 0.46007838D-01 0.23837695D+06 0.23837695D+06 0.23837695D+06 0.11304283D+01  1  2 11  8  6  5       21 0.554162309204D-01 0.100000000000D+01
  </mgrwgt>
  </event>
  <event>
  5     66 0.39191994E-03 0.35073897E+02 0.75467711E-02 0.12086517E+00
       -2 -1    0    0    0  501 0.00000000E+00 0.00000000E+00 0.87020213E+02 0.87020801E+02 0.32000000E+00 0.0000E+00 0.9000E+01
        1 -1    0    0  502    0 -.00000000E+00 -.00000000E+00 -.49498349E+03 0.49498360E+03 0.32000000E+00 0.0000E+00 0.9000E+01
       25  1    1    2    0    0 0.91124879E+01 0.14421348E+02 -.52281762E+01 0.12626697E+03 0.12500000E+03 0.0000E+00 0.9000E+01
      -24  1    1    2    0    0 0.25570658E+02 -.19640396E+02 -.47566085E+02 0.98840033E+02 0.80419002E+02 0.0000E+00 0.9000E+01
       21  1    1    2  502  501 -.34683146E+02 0.52190480E+01 -.35516902E+03 0.35689740E+03 0.75000000E+00 0.0000E+00 0.9000E+01
#aMCatNLO 1  0  0  5  2 0.54925032D+02 0.00000000D+00  -5  6  0 0.00000000D+00 0.00000000D+00 0.00000000D+00 0.00000000D+00 0.00000000D+00
  <mgrwgt>
 0.2001716444D+00    3    2    0
 0.207542212828917D+03 0.000000000000000D+00 0.000000000000000D+00 0.207542212828917D+03
 0.207542212828917D+03 -.000000000000000D+00 -.000000000000000D+00 -.207542212828917D+03
 0.171905363632738D+03 0.911266426572959D+01 0.144213217589732D+02 0.116770881962962D+03
 0.918371842698309D+02 0.255707520732104D+02 -.196404104856343D+02 0.304506711684084D+02
 0.151341877755266D+03 -.346834163389399D+02 0.521908872666112D+01 -.147221553131370D+03
 0.000000000000000D+00 0.000000000000000D+00 -.000000000000000D+00 0.000000000000000D+00
 0.207542212828917D+03 0.000000000000000D+00 0.000000000000000D+00 0.207542212828917D+03
 0.207542212828917D+03 -.000000000000000D+00 -.000000000000000D+00 -.207542212828917D+03
 0.142130806122981D+03 -.294147991886403D+01 0.162352044344445D+02 0.656043587121101D+02
 0.846763093862885D+02 0.187953570455856D+02 -.186208630609577D+02 0.169098471486893D+01
 0.672020330945171D+02 -.384979273924449D+02 0.237148061577712D+02 0.497154986641183D+02
 0.121075277054048D+03 0.226440502657234D+02 -.213291475312579D+02 -.117010842091097D+03
0.652613508049D-03 0.000000000000D+00 0.000000000000D+00 0.389172231804D-04 0.000000000000D+00  6 -2 1 25 -24 21 21 2 0.13387778D-01 0.76151360D-01 0.15360445D+05 0.15360445D+05 0.15360445D+05 0.12466486D+01  1  2  2  3  6  5       21 0.165500063976D+00 0.100000000000D+01
0.608227824826D-04 0.344393609878D-04 -.250620770799D-05 0.389172231804D-04 0.000000000000D+00  6 -2 1 25 -24 21 21 4 0.13387778D-01 0.76151360D-01 0.15360445D+05 0.15360445D+05 0.15360445D+05 0.12466486D+01  1  2  3  3  6  5       21 0.239715713197D-01 0.100000000000D+01
0.271490057942D-04 0.000000000000D+00 0.000000000000D+00 0.389172231804D-04 0.000000000000D+00  6 -2 1 25 -24 21 21 4 0.13387778D-01 0.76151360D-01 0.15360445D+05 0.15360445D+05 0.15360445D+05 0.12466486D+01  1  2 15  3  6  5       21 0.107000091428D-01 0.100000000000D+01
  </mgrwgt>
  </event>
  <event>
  5     66 0.39191994E-03 0.77036928E+02 0.75467711E-02 0.10546423E+00
       -2 -1    0    0    0  501 0.00000000E+00 0.00000000E+00 0.73742897E+02 0.73743591E+02 0.32000000E+00 0.0000E+00 0.9000E+01
        1 -1    0    0  502    0 0.00000000E+00 0.00000000E+00 -.13198285E+04 0.13198286E+04 0.32000000E+00 0.0000E+00 0.9000E+01
       25  1    1    2    0    0 0.23852553E+02 -.39751088E+02 -.10821268E+04 0.10903085E+04 0.12500000E+03 0.0000E+00 0.9000E+01
      -24  1    1    2    0    0 -.75353603E+02 -.17540215E+02 -.19133844E+03 0.22150268E+03 0.80419002E+02 0.0000E+00 0.9000E+01
       21  1    1    2  502  501 0.51501050E+02 0.57291303E+02 0.27379649E+02 0.81760989E+02 0.75000000E+00 0.0000E+00 0.9000E+01
#aMCatNLO 1  0  0  2  2 0.93423034D+02 0.00000000D+00  -5  6  0 0.00000000D+00 0.00000000D+00 0.00000000D+00 0.00000000D+00 0.00000000D+00
  <mgrwgt>
 0.1160593112D+00    3    2    0
 0.311975142984429D+03 0.000000000000000D+00 0.000000000000000D+00 0.311975142984429D+03
 0.311975142984429D+03 0.000000000000000D+00 0.000000000000000D+00 -.311975142984429D+03
 0.274062082846857D+03 0.238524396471714D+02 -.397512132867258D+02 -.239449216786083D+03
 0.112598555420692D+03 -.753536494806064D+02 -.175402669451809D+02 0.150128369704633D+02
 0.237289647701310D+03 0.515012098334350D+02 0.572914802319067D+02 0.224436379815620D+03
 0.000000000000000D+00 -.000000000000000D+00 -.000000000000000D+00 0.000000000000000D+00
 0.494762284566409D+03 0.000000000000000D+00 0.000000000000000D+00 0.494762284566409D+03
 0.470242183204284D+03 0.000000000000000D+00 0.000000000000000D+00 -.470242183204284D+03
 0.308712502443257D+03 0.147589140103558D+03 -.236627865814922D+02 -.239449216786083D+03
 0.888672818264150D+02 -.325777313385507D+02 -.119784795269032D+02 0.150128369704633D+02
 0.286327073621094D+03 0.162677309539245D+03 0.717467592630548D+02 0.224436379815620D+03
 0.281097609879928D+03 -.277688718304252D+03 -.361054931546594D+02 0.245201013621250D+02
0.162312365298D-02 0.000000000000D+00 0.000000000000D+00 0.468792179038D-05 0.000000000000D+00  6 -2 1 25 -24 21 21 2 0.11345117D-01 0.20305060D+00 0.25912901D+05 0.25912901D+05 0.25912901D+05 0.12216312D+01  1  2  2  2  6  2        1 0.111080488487D+00 0.100000000000D+01
-.127053960615D-04 0.856545883945D-04 -.623322220570D-05 0.468792179038D-05 0.000000000000D+00  6 -2 1 25 -24 21 21 4 0.11345117D-01 0.20305060D+00 0.25912901D+05 0.25912901D+05 0.25912901D+05 0.12216312D+01  1  2  3  2  6  2        1 -.129764119546D-02 0.100000000000D+01
0.614537827816D-04 0.000000000000D+00 0.000000000000D+00 0.468792179038D-05 0.000000000000D+00  6 -2 1 25 -24 21 21 4 0.11345117D-01 0.20305060D+00 0.25912901D+05 0.25912901D+05 0.25912901D+05 0.12216312D+01  1  2 15  2  6  2        1 0.627646393458D-02 0.100000000000D+01
  </mgrwgt>
  </event>
  <event>
  6     66 -.39191994E-03 0.16121355E+02 0.75467711E-02 0.10704621E+00
       -2 -1    0    0    0  501 0.00000000E+00 0.00000000E+00 0.62202780E+02 0.62203604E+02 0.32000000E+00 0.0000E+00 0.9000E+01
        1 -1    0    0  502    0 -.00000000E+00 -.00000000E+00 -.18037924E+04 0.18037924E+04 0.32000000E+00 0.0000E+00 0.9000E+01
       25  1    1    2    0    0 0.29680145E+03 -.40422399E+02 -.74220373E+03 0.81007188E+03 0.12500000E+03 0.0000E+00 0.9000E+01
      -24  1    1    2    0    0 -.30395597E+03 0.24050875E+02 -.90346932E+03 0.95691781E+03 0.80419002E+02 0.0000E+00 0.9000E+01
        1  1    1    2  502    0 0.55331112E+01 -.21279117E+01 -.25435092E+02 0.26118761E+02 0.32000000E+00 0.0000E+00 0.9000E+01
       -1  1    1    2    0  501 0.16214031E+01 0.18499436E+02 -.70481487E+02 0.72887588E+02 0.32000000E+00 0.0000E+00 0.9000E+01
#aMCatNLO 2  0  0  5  1 0.60067113D+01 0.00000000D+00  -5  6  0 0.00000000D+00 0.00000000D+00 0.00000000D+00 0.00000000D+00 0.00000000D+00
  <mgrwgt>
 -.1238156557D-01    2    2    0
 0.334965218703086D+03 0.000000000000000D+00 0.000000000000000D+00 0.334965218703086D+03
 0.334965218703086D+03 -.000000000000000D+00 -.000000000000000D+00 -.334965218703086D+03
 0.326395253404830D+03 0.295760622647059D+03 -.428041092740408D+02 0.400290365345365D+02
 0.317328570656464D+03 -.304966073766199D+03 0.217394699695282D+02 -.274462219180888D+02
 0.262066133448788D+02 0.920545111914003D+01 0.210646393045125D+02 -.125828146164477D+02
 0.000000000000000D+00 0.000000000000000D+00 0.000000000000000D+00 0.000000000000000D+00
 0.334965218703086D+03 0.000000000000000D+00 0.000000000000000D+00 0.334965218703086D+03
 0.334965218703086D+03 -.000000000000000D+00 -.000000000000000D+00 -.334965218703086D+03
 0.326836314951623D+03 0.296740159765246D+03 -.405626551820099D+02 0.386901196462108D+02
 0.316687218991507D+03 -.304015351190070D+03 0.239149883537578D+02 -.287457525735969D+02
 0.616302447726653D+01 0.512601920556380D+01 -.212572188804475D+01 -.268106401756188D+01
 0.202438789857761D+02 0.214917221926035D+01 0.187733887162968D+02 -.726330305505197D+01
-.123868725547D-03 0.000000000000D+00 0.000000000000D+00 0.268284442774D-04 0.000000000000D+00  6 -2 1 25 -24 1 -1 4 0.95697240D-02 0.27750659D+00 0.11034469D+06 0.11034469D+06 0.11034469D+06 0.11596647D+01  1  2 13  6  6  5       21 -.629007824248D-02 0.100000000000D+01
-.119957931059D-03 0.000000000000D+00 0.000000000000D+00 0.268284442774D-04 0.000000000000D+00  6 -2 1 25 -24 1 -1 4 0.95697240D-02 0.27750659D+00 0.11034469D+06 0.11034469D+06 0.11034469D+06 0.11596647D+01  1  2 13  6  6  5       21 -.609148732930D-02 0.100000000000D+01
  </mgrwgt>
  </event>
  <event>
  5     66 -.39191994E-03 0.31543233E+02 0.75467711E-02 0.12031668E+00
       -2 -1    0    0    0  501 0.00000000E+00 0.00000000E+00 0.10879684E+03 0.10879731E+03 0.32000000E+00 0.0000E+00 0.9000E+01
        1 -1    0    0  502    0 0.00000000E+00 0.00000000E+00 -.49734613E+03 0.49734624E+03 0.32000000E+00 0.0000E+00 0.9000E+01
       25  1    1    2    0    0 0.51825068E+02 0.47971465E+02 -.10067777E+03 0.17535139E+03 0.12500000E+03 0.0000E+00 0.9000E+01
      -24  1    1    2    0    0 -.80386740E+02 -.34585501E+02 -.34534696E+03 0.36522585E+03 0.80419002E+02 0.0000E+00 0.9000E+01
       21  1    1    2  502  501 0.28561672E+02 -.13385963E+02 0.57475424E+02 0.65566302E+02 0.75000000E+00 0.0000E+00 0.9000E+01
#aMCatNLO 1  0  0  1  2 0.15872406D+01 0.00000000D+00  -5  6  0 0.00000000D+00 0.00000000D+00 0.00000000D+00 0.00000000D+00 0.00000000D+00
  <mgrwgt>
 -.3850222489D+00    9    4    0
 0.232615262100653D+03 0.000000000000000D+00 0.000000000000000D+00 0.232615262100653D+03
 0.232615262100653D+03 0.000000000000000D+00 0.000000000000000D+00 -.232615262100653D+03
 0.144379598629370D+03 0.518249282816540D+02 0.479715301703100D+02 0.152767012832737D+02
 0.187423857492410D+03 -.803869218674095D+02 -.345854159756966D+02 -.144921627776656D+03
 0.133427068079526D+03 0.285619935857555D+02 -.133861141946135D+02 0.129644926493382D+03
 0.000000000000000D+00 0.000000000000000D+00 0.000000000000000D+00 0.000000000000000D+00
 0.233994821853889D+03 0.000000000000000D+00 0.000000000000000D+00 0.233994821853889D+03
 0.233073610884870D+03 0.000000000000000D+00 0.000000000000000D+00 -.233073610884870D+03
 0.144148810420198D+03 0.515697022005988D+02 0.475506862032644D+02 0.152767012832737D+02
 0.187668057828894D+03 -.807187201811294D+02 -.351325204018102D+02 -.144921627776656D+03
 0.133416363562025D+03 0.283259495735297D+02 -.137753287219524D+02 0.129644926493382D+03
 0.183520092764232D+01 0.823068407000891D+00 0.135716292049822D+01 0.921210969019034D+00
 0.232615262100653D+03 0.000000000000000D+00 0.000000000000000D+00 0.232615262100653D+03
 0.232615262100653D+03 0.000000000000000D+00 0.000000000000000D+00 -.232615262100653D+03
 0.144379598629370D+03 0.518249282816540D+02 0.479715301703100D+02 0.152767012832737D+02
 0.187423857492410D+03 -.803869218674095D+02 -.345854159756966D+02 -.144921627776656D+03
 0.000000000000000D+00 0.000000000000000D+00 0.000000000000000D+00 0.000000000000000D+00
 0.133427068079526D+03 0.285619935857555D+02 -.133861141946135D+02 0.129644926493382D+03
 0.233994821853889D+03 0.000000000000000D+00 0.000000000000000D+00 0.233994821853889D+03
 0.233073610884870D+03 0.000000000000000D+00 0.000000000000000D+00 -.233073610884870D+03
 0.144148810420198D+03 0.515697022005988D+02 0.475506862032644D+02 0.152767012832737D+02
 0.187668057828894D+03 -.807187201811294D+02 -.351325204018102D+02 -.144921627776656D+03
 0.183520092764232D+01 0.823068407000891D+00 0.135716292049822D+01 0.921210969019034D+00
 0.133416363562025D+03 0.283259495735297D+02 -.137753287219524D+02 0.129644926493382D+03
0.684676149855D-03 0.000000000000D+00 0.000000000000D+00 0.198201572529D-04 0.000000000000D+00  6 -2 1 25 -24 21 21 2 0.16738019D-01 0.76514834D-01 0.21603528D+05 0.21603528D+05 0.21603528D+05 0.12301555D+01  1  2  2  1  6  1       -2 0.117097031973D+00 0.100000000000D+01
0.774524568824D-04 0.361313530807D-04 -.262933669481D-05 0.198201572529D-04 0.000000000000D+00  6 -2 1 25 -24 21 21 4 0.16738019D-01 0.76514834D-01 0.21603528D+05 0.21603528D+05 0.21603528D+05 0.12301555D+01  1  2  3  1  6  1       -2 0.200454555753D-01 0.100000000000D+01
0.318574963307D-04 0.000000000000D+00 0.000000000000D+00 0.198201572529D-04 0.000000000000D+00  6 -2 1 25 -24 21 21 4 0.16738019D-01 0.76514834D-01 0.21603528D+05 0.21603528D+05 0.21603528D+05 0.12301555D+01  1  2 15  1  6  1       -2 0.824503254180D-02 0.100000000000D+01
-.162558161028D-01 0.000000000000D+00 0.000000000000D+00 0.198201572529D-04 0.000000000000D+00  6 -2 1 25 -24 21 21 4 0.16738019D-01 0.76514834D-01 0.21603528D+05 0.21603528D+05 0.21603528D+05 0.12301555D+01  1  2  4  1  6  1       -2 -.420716466134D+01 0.100000000000D+01
-.208122485079D+00 0.000000000000D+00 -.205918695109D-01 0.198201572529D-04 0.000000000000D+00  6 -2 1 25 -24 21 21 4 0.16868486D-01 0.76514834D-01 0.21603528D+05 0.21603528D+05 0.21603528D+05 0.12301555D+01  1  2  5  1  6  1       -2 -.531751328281D+02 0.100000000000D+01
0.208276712047D+00 0.000000000000D+00 0.205912488194D-01 0.198201572529D-04 0.000000000000D+00  6 -2 1 25 -24 21 21 4 0.16738019D-01 0.76514834D-01 0.21603528D+05 0.21603528D+05 0.21603528D+05 0.12301555D+01  1  2  6  1  6  1       -2 0.539040560720D+02 0.100000000000D+01
0.154279763140D-01 0.000000000000D+00 0.000000000000D+00 0.198201572529D-04 0.326431856870D-04  6 -2 1 25 -24 21 21 4 0.16837286D-01 0.76665600D-01 0.21853315D+05 0.21853315D+05 0.21853315D+05 0.12296113D+01  1  2 11  1  6  1       -2 0.393719080152D+01 0.100000000000D+01
-.299032231213D-03 0.000000000000D+00 -.296321949455D-04 0.198201572529D-04 0.000000000000D+00  6 21 1 25 -24 2 21 4 0.16868486D-01 0.76514834D-01 0.21603528D+05 0.21603528D+05 0.21603528D+05 0.12301555D+01  3  4  5  4  5  1       -2 -.109704514024D+01 0.100000000000D+01
0.293847325434D-04 0.000000000000D+00 0.000000000000D+00 0.198201572529D-04 0.117834548487D-06  6 21 1 25 -24 2 21 4 0.16837286D-01 0.76665600D-01 0.21853315D+05 0.21853315D+05 0.21853315D+05 0.12296113D+01  3  4 11  4  5  1       -2 0.107685987075D+00 0.100000000000D+01
  </mgrwgt>
  </event>
  <event>
  5     66 0.39191994E-03 0.53237141E+02 0.75467711E-02 0.11818235E+00
       -2 -1    0    0    0  501 0.00000000E+00 0.00000000E+00 0.82894978E+02 0.82895596E+02 0.32000000E+00 0.0000E+00 0.9000E+01
        1 -1    0    0  502    0 0.00000000E+00 0.00000000E+00 -.42466867E+03 0.42466879E+03 0.32000000E+00 0.0000E+00 0.9000E+01
       25  1    1    2    0    0 -.26368880E+01 -.17664108E+02 -.32903949E+02 0.13048618E+03 0.12500000E+03 0.0000E+00 0.9000E+01
      -24  1    1    2    0    0 0.33124781E+01 -.35568169E+02 -.29694098E+02 0.92870999E+02 0.80419002E+02 0.0000E+00 0.9000E+01
       21  1    1    2  502  501 -.67559010E+00 0.53232277E+02 -.27917564E+03 0.28420720E+03 0.75000000E+00 0.0000E+00 0.9000E+01
#aMCatNLO 1  0  0  1  2 0.71947219D+02 0.00000000D+00  -5  6  0 0.00000000D+00 0.00000000D+00 0.00000000D+00 0.00000000D+00 0.00000000D+00
  <mgrwgt>
 0.2519712392D-01    7    4    0
 0.187624857772844D+03 0.000000000000000D+00 0.000000000000000D+00 0.187624857772844D+03
 0.187624857772844D+03 0.000000000000000D+00 0.000000000000000D+00 -.187624857772844D+03
 0.146528017290829D+03 -.263688361180149D+01 -.176644530839330D+02 0.743402568817514D+02
 0.985729445655275D+02 0.331248104314515D+01 -.355684008719988D+02 0.444221315865820D+02
 0.130148753689331D+03 -.675597431343665D+00 0.532328539559318D+02 -.118762388468333D+03
 0.000000000000000D+00 0.000000000000000D+00 0.000000000000000D+00 0.000000000000000D+00
 0.238785667863062D+03 0.000000000000000D+00 0.000000000000000D+00 0.238785667863062D+03
 0.218147759866653D+03 0.000000000000000D+00 0.000000000000000D+00 -.218147759866653D+03
 0.152620889968563D+03 -.728220073144152D+01 -.457015515497929D+02 0.743402568817514D+02
 0.106992466244207D+03 0.120370027970068D+00 -.548345841144801D+02 0.444221315865820D+02
 0.122471387381456D+03 -.459839520063140D+01 0.295565656667700D+02 -.118762388468333D+03
 0.748486841354889D+02 0.117602259041028D+02 0.709795699975030D+02 0.206379079964088D+02
 0.187624857772844D+03 0.000000000000000D+00 0.000000000000000D+00 0.187624857772844D+03
 0.187624857772844D+03 0.000000000000000D+00 0.000000000000000D+00 -.187624857772844D+03
 0.146528017290829D+03 -.263688361180149D+01 -.176644530839330D+02 0.743402568817514D+02
 0.985729445655275D+02 0.331248104314515D+01 -.355684008719988D+02 0.444221315865820D+02
 0.000000000000000D+00 0.000000000000000D+00 0.000000000000000D+00 0.000000000000000D+00
 0.130148753689331D+03 -.675597431343665D+00 0.532328539559318D+02 -.118762388468333D+03
 0.238785667863062D+03 0.000000000000000D+00 0.000000000000000D+00 0.238785667863062D+03
 0.218147759866653D+03 0.000000000000000D+00 0.000000000000000D+00 -.218147759866653D+03
 0.152620889968563D+03 -.728220073144152D+01 -.457015515497929D+02 0.743402568817514D+02
 0.106992466244207D+03 0.120370027970068D+00 -.548345841144801D+02 0.444221315865820D+02
 0.748486841354889D+02 0.117602259041028D+02 0.709795699975030D+02 0.206379079964088D+02
 0.122471387381456D+03 -.459839520063140D+01 0.295565656667700D+02 -.118762388468333D+03
0.967915187484D-04 0.000000000000D+00 0.000000000000D+00 0.159077084258D-04 0.000000000000D+00  6 -2 1 25 -24 21 21 2 0.12753130D-01 0.65333698D-01 0.17889418D+05 0.17889418D+05 0.17889418D+05 0.12391941D+01  1  2  2  1  6  1       -2 0.319947916127D-01 0.100000000000D+01
0.211307610382D-06 0.510782877402D-05 -.371704917786D-06 0.159077084258D-04 0.000000000000D+00  6 -2 1 25 -24 21 21 4 0.12753130D-01 0.65333698D-01 0.17889418D+05 0.17889418D+05 0.17889418D+05 0.12391941D+01  1  2  3  1  6  1       -2 0.107259503652D-03 0.100000000000D+01
0.394492890050D-05 0.000000000000D+00 0.000000000000D+00 0.159077084258D-04 0.000000000000D+00  6 -2 1 25 -24 21 21 4 0.12753130D-01 0.65333698D-01 0.17889418D+05 0.17889418D+05 0.17889418D+05 0.12391941D+01  1  2 15  1  6  1       -2 0.200244144091D-02 0.100000000000D+01
-.750491419616D-04 0.000000000000D+00 0.000000000000D+00 0.159077084258D-04 0.000000000000D+00  6 -2 1 25 -24 21 21 4 0.12753130D-01 0.65333698D-01 0.17889418D+05 0.17889418D+05 0.17889418D+05 0.12391941D+01  1  2  4  1  6  1       -2 -.380948594408D-01 0.100000000000D+01
-.132634227138D-03 0.000000000000D+00 -.757828812461D-04 0.159077084258D-04 0.000000000000D+00  6 -2 1 25 -24 21 21 4 0.18779831D-01 0.65333698D-01 0.17889418D+05 0.17889418D+05 0.17889418D+05 0.12391941D+01  1  2  5  1  6  1       -2 -.356915571916D-01 0.100000000000D+01
0.155512112168D-03 0.000000000000D+00 0.704415478304D-04 0.159077084258D-04 0.000000000000D+00  6 -2 1 25 -24 21 21 4 0.12753130D-01 0.65333698D-01 0.17889418D+05 0.17889418D+05 0.17889418D+05 0.12391941D+01  1  2  6  1  6  1       -2 0.789377719655D-01 0.100000000000D+01
-.369040556410D-05 0.000000000000D+00 -.352113722578D-05 0.159077084258D-04 0.000000000000D+00  6 21 1 25 -24 2 21 4 0.18779831D-01 0.65333698D-01 0.17889418D+05 0.17889418D+05 0.17889418D+05 0.12391941D+01  3  4  5  4  5  1       -2 -.140587239742D-01 0.100000000000D+01
  </mgrwgt>
  </event>
  <event>
  5     66 0.39191994E-03 0.35832871E+02 0.75467711E-02 0.12382436E+00
       -2 -1    0    0    0  501 0.00000000E+00 0.00000000E+00 0.28152352E+02 0.28154170E+02 0.32000000E+00 0.0000E+00 0.9000E+01
        1 -1    0    0  502    0 -.00000000E+00 -.00000000E+00 -.59235240E+03 0.59235249E+03 0.32000000E+00 0.0000E+00 0.9000E+01
       25  1    1    2    0    0 0.24104343E+02 0.18019997E+02 -.22005607E+03 0.25486352E+03 0.12500000E+03 0.0000E+00 0.9000E+01
      -24  1    1    2    0    0 0.93298676E+01 -.51475402E+01 -.28654751E+03 0.29780906E+03 0.80419002E+02 0.0000E+00 0.9000E+01
       21  1    1    2  502  501 -.33434211E+02 -.12872456E+02 -.57596464E+02 0.67834075E+02 0.75000000E+00 0.0000E+00 0.9000E+01
#aMCatNLO 1  0  0  5  1 0.27227431D+01 0.00000000D+00  -5  6  0 0.00000000D+00 0.00000000D+00 0.00000000D+00 0.00000000D+00 0.00000000D+00
  <mgrwgt>
 0.2528526350D+00    9    2    0
 0.129138314071947D+03 0.000000000000000D+00 0.000000000000000D+00 0.129138314071947D+03
 0.129138314071947D+03 -.000000000000000D+00 -.000000000000000D+00 -.129138314071947D+03
 0.131599288703883D+03 0.241078157648313D+02 0.180213334671523D+02 0.280609612537150D+02
 0.895261410902460D+02 0.933222979790636D+01 -.514663072204908D+01 -.378699836724289D+02
 0.371511983497648D+02 -.334400455627376D+02 -.128747027451032D+02 0.980902241871393D+01
 0.000000000000000D+00 0.000000000000000D+00 0.000000000000000D+00 -.000000000000000D+00
 0.129138314071947D+03 0.000000000000000D+00 0.000000000000000D+00 0.129138314071947D+03
 0.129138314071947D+03 -.000000000000000D+00 -.000000000000000D+00 -.129138314071947D+03
 0.131087348187054D+03 0.208785593708189D+02 0.167780422137767D+02 0.290082042323531D+02
 0.891056159158166D+02 0.713627590275258D+01 -.599209170053412D+01 -.372258409798715D+02
 0.396651609418003D+01 0.377995366203554D+01 -.837407544001113D+00 0.862524691532573D+00
 0.341171479468426D+02 -.317947889356069D+02 -.994854296924144D+01 0.735511205598576D+01
0.219195842174D-03 0.000000000000D+00 0.000000000000D+00 0.186726619210D-04 0.000000000000D+00  6 -2 1 25 -24 21 21 2 0.43312776D-02 0.91131285D-01 0.15070966D+05 0.15070966D+05 0.15070966D+05 0.12475889D+01  1  2  2  3  6  5       21 0.249447427808D+00 0.100000000000D+01
0.110767392135D-04 0.115672823846D-04 -.841769749538D-06 0.186726619210D-04 0.000000000000D+00  6 -2 1 25 -24 21 21 4 0.43312776D-02 0.91131285D-01 0.15070966D+05 0.15070966D+05 0.15070966D+05 0.12475889D+01  1  2  3  3  6  5       21 0.196201202781D-01 0.100000000000D+01
0.788635622196D-05 0.000000000000D+00 0.000000000000D+00 0.186726619210D-04 0.000000000000D+00  6 -2 1 25 -24 21 21 4 0.43312776D-02 0.91131285D-01 0.15070966D+05 0.15070966D+05 0.15070966D+05 0.12475889D+01  1  2 15  3  6  5       21 0.139690259605D-01 0.100000000000D+01
-.363549657697D-04 0.000000000000D+00 0.000000000000D+00 0.186726619210D-04 0.000000000000D+00  6 -2 1 25 -24 21 21 4 0.43312776D-02 0.91131285D-01 0.15070966D+05 0.15070966D+05 0.15070966D+05 0.12475889D+01  1  2  4  3  6  5       21 -.643951967595D-01 0.100000000000D+01
0.257885216862D-05 0.000000000000D+00 0.000000000000D+00 0.186726619210D-04 0.287051457204D-05  6 -2 1 25 -24 21 21 4 0.43312776D-02 0.91131285D-01 0.15126667D+05 0.15126667D+05 0.15126667D+05 0.12474064D+01  1  2 11  3  6  5       21 0.456575750746D-02 0.100000000000D+01
0.380590386943D-05 0.000000000000D+00 0.000000000000D+00 0.186671994051D-04 0.676944080033D-07  6 -2 1 25 -24 1 -1 4 0.43312776D-02 0.91131285D-01 0.15126667D+05 0.15126667D+05 0.15126667D+05 0.12474064D+01  1  2 11  6  6  5       21 0.673820484011D-02 0.100000000000D+01
0.431087490687D-05 0.000000000000D+00 0.000000000000D+00 0.186671994051D-04 0.629733589292D-07  6 -2 1 25 -24 2 -2 4 0.43312776D-02 0.91131285D-01 0.15126667D+05 0.15126667D+05 0.15126667D+05 0.12474064D+01  1  2 11  7  6  5       21 0.763223643034D-02 0.100000000000D+01
0.431386455283D-05 0.000000000000D+00 0.000000000000D+00 0.186671994051D-04 0.618787311519D-07  6 -2 1 25 -24 3 -3 4 0.43312776D-02 0.91131285D-01 0.15126667D+05 0.15126667D+05 0.15126667D+05 0.12474064D+01  1  2 11  8  6  5       21 0.763752948228D-02 0.100000000000D+01
0.431386455283D-05 0.000000000000D+00 0.000000000000D+00 0.186671994051D-04 0.618787311519D-07  6 -2 1 25 -24 4 -4 4 0.43312776D-02 0.91131285D-01 0.15126667D+05 0.15126667D+05 0.15126667D+05 0.12474064D+01  1  2 11  8  6  5       21 0.763752948228D-02 0.100000000000D+01
  </mgrwgt>
  </event>
  <event>
  5     66 0.39191994E-03 0.44901637E+02 0.75467711E-02 0.12239510E+00
       -2 -1    0    0    0  501 0.00000000E+00 0.00000000E+00 0.32657539E+02 0.32659107E+02 0.32000000E+00 0.0000E+00 0.9000E+01
        1 -1    0    0  502    0 -.00000000E+00 -.00000000E+00 -.54507615E+03 0.54507624E+03 0.32000000E+00 0.0000E+00 0.9000E+01
       25  1    1    2    0    0 0.35355675E+01 -.58428644E+02 -.27313658E+03 0.30603104E+03 0.12500000E+03 0.0000E+00 0.9000E+01
      -24  1    1    2    0    0 0.61017977E+01 0.14578551E+02 -.13158446E+03 0.15502081E+03 0.80419002E+02 0.0000E+00 0.9000E+01
       21  1    1    2  502  501 -.96373651E+01 0.43850093E+02 -.10769757E+03 0.11668350E+03 0.75000000E+00 0.0000E+00 0.9000E+01
#aMCatNLO 1  0  0  5  1 0.22770602D+01 0.00000000D+00  -5  6  0 0.00000000D+00 0.00000000D+00 0.00000000D+00 0.00000000D+00 0.00000000D+00
  <mgrwgt>
 0.2702805246D+00   25    2    0
 0.133421609211177D+03 0.000000000000000D+00 0.000000000000000D+00 0.133421609211177D+03
 0.133421609211177D+03 -.000000000000000D+00 -.000000000000000D+00 -.133421609211177D+03
 0.138077436178603D+03 0.353623576128546D+01 -.584316849769764D+02 -.368939141976544D+01
 0.829498875599832D+02 0.610219912648825D+01 0.145767247524899D+02 0.127964898762964D+02
 0.458158946837677D+02 -.963843488777370D+01 0.438549602244864D+02 -.910709845653097D+01
 0.000000000000000D+00 0.000000000000000D+00 0.000000000000000D+00 0.000000000000000D+00
 0.133421609211177D+03 0.000000000000000D+00 0.000000000000000D+00 0.133421609211177D+03
 0.133421609211177D+03 -.000000000000000D+00 -.000000000000000D+00 -.133421609211177D+03
 0.137763214274239D+03 0.337211597922162D+01 -.576849385810869D+02 -.384446379731666D+01
 0.830084889856464D+02 0.600345714431260D+01 0.150260016061721D+02 0.127031912273003D+02
 0.251620375756570D+01 -.210916168633302D+01 0.381244772843633D+00 -.131809360580799D+01
 0.435553114049027D+02 -.726641143720118D+01 0.422776922020710D+02 -.754063382417560D+01
0.222398096516D-03 0.000000000000D+00 0.000000000000D+00 0.129470502248D-04 0.000000000000D+00  6 -2 1 25 -24 21 21 2 0.50243647D-02 0.83857997D-01 0.17541238D+05 0.17541238D+05 0.17541238D+05 0.12401477D+01  1  2  2  3  6  5       21 0.224999708953D+00 0.100000000000D+01
0.454080768554D-05 0.117362699890D-04 -.854067249384D-06 0.129470502248D-04 0.000000000000D+00  6 -2 1 25 -24 21 21 4 0.50243647D-02 0.83857997D-01 0.17541238D+05 0.17541238D+05 0.17541238D+05 0.12401477D+01  1  2  3  3  6  5       21 0.706530304495D-02 0.100000000000D+01
0.844488247971D-05 0.000000000000D+00 0.000000000000D+00 0.129470502248D-04 0.000000000000D+00  6 -2 1 25 -24 21 21 4 0.50243647D-02 0.83857997D-01 0.17541238D+05 0.17541238D+05 0.17541238D+05 0.12401477D+01  1  2 15  3  6  5       21 0.131398768744D-01 0.100000000000D+01
0.888554287552D-08 0.000000000000D+00 0.000000000000D+00 0.129478580159D-04 0.000000000000D+00  6 -2 1 25 -24 21 21 4 0.50243647D-02 0.83857997D-01 0.17527273D+05 0.17527273D+05 0.17527273D+05 0.12401863D+01  1  2 12  3  6  5       21 0.138269136699D-04 0.100000000000D+01
0.841474802184D-08 0.000000000000D+00 0.000000000000D+00 0.129478580159D-04 0.000000000000D+00  6 -2 1 25 -24 21 21 4 0.50243647D-02 0.83857997D-01 0.17527273D+05 0.17527273D+05 0.17527273D+05 0.12401863D+01  1  2 12  3  6  5       21 0.130943034187D-04 0.100000000000D+01
-.149476898834D-03 0.000000000000D+00 0.000000000000D+00 0.129470502248D-04 0.000000000000D+00  6 -2 1 25 -24 21 21 4 0.50243647D-02 0.83857997D-01 0.17541238D+05 0.17541238D+05 0.17541238D+05 0.12401477D+01  1  2  4  3  6  5       21 -.232579677806D+00 0.100000000000D+01
-.381407816019D-05 0.000000000000D+00 0.000000000000D+00 0.129470502248D-04 0.000000000000D+00  6 -2 1 25 -24 21 21 4 0.50243647D-02 0.83857997D-01 0.17541238D+05 0.17541238D+05 0.17541238D+05 0.12401477D+01  1  2  5  3  6  5       21 -.593454290625D-02 0.100000000000D+01
0.161219776995D-03 0.000000000000D+00 -.000000000000D+00 0.129470502248D-04 0.000000000000D+00  6 -2 1 25 -24 21 21 4 0.50243647D-02 0.83857997D-01 0.17541238D+05 0.17541238D+05 0.17541238D+05 0.12401477D+01  1  2  6  3  6  5       21 0.250851095266D+00 0.100000000000D+01
0.441992147746D-05 0.000000000000D+00 0.000000000000D+00 0.129470502248D-04 0.180982849637D-04  6 -2 1 25 -24 21 21 4 0.50243647D-02 0.83857997D-01 0.17527273D+05 0.17527273D+05 0.17527273D+05 0.12401863D+01  1  2 11  3  6  5       21 0.687789970209D-02 0.100000000000D+01
0.136597873251D-07 0.000000000000D+00 0.000000000000D+00 0.129478580159D-04 0.000000000000D+00  6 -2 1 25 -24 1 -1 4 0.50243647D-02 0.83857997D-01 0.17527273D+05 0.17527273D+05 0.17527273D+05 0.12401863D+01  1  2 12  6  6  5       21 0.212561801500D-04 0.100000000000D+01
0.135372269321D-07 0.000000000000D+00 0.000000000000D+00 0.129478580159D-04 0.000000000000D+00  6 -2 1 25 -24 1 -1 4 0.50243647D-02 0.83857997D-01 0.17527273D+05 0.17527273D+05 0.17527273D+05 0.12401863D+01  1  2 12  6  6  5       21 0.210654622618D-04 0.100000000000D+01
-.895634674866D-05 0.000000000000D+00 0.000000000000D+00 0.129470502248D-04 0.000000000000D+00  6 -2 1 25 -24 1 -1 4 0.50243647D-02 0.83857997D-01 0.17541238D+05 0.17541238D+05 0.17541238D+05 0.12401477D+01  1  2  5  6  6  5       21 -.139356934575D-01 0.100000000000D+01
0.867397165266D-05 0.000000000000D+00 0.000000000000D+00 0.129470502248D-04 0.155010192230D-06  6 -2 1 25 -24 1 -1 4 0.50243647D-02 0.83857997D-01 0.17527273D+05 0.17527273D+05 0.17527273D+05 0.12401863D+01  1  2 11  6  6  5       21 0.134976848231D-01 0.100000000000D+01
0.136597873251D-07 0.000000000000D+00 0.000000000000D+00 0.129478580159D-04 0.000000000000D+00  6 -2 1 25 -24 2 -2 4 0.50243647D-02 0.83857997D-01 0.17527273D+05 0.17527273D+05 0.17527273D+05 0.12401863D+01  1  2 12  7  6  5       21 0.212561801500D-04 0.100000000000D+01
0.135372269321D-07 0.000000000000D+00 0.000000000000D+00 0.129478580159D-04 0.000000000000D+00  6 -2 1 25 -24 2 -2 4 0.50243647D-02 0.83857997D-01 0.17527273D+05 0.17527273D+05 0.17527273D+05 0.12401863D+01  1  2 12  7  6  5       21 0.210654622618D-04 0.100000000000D+01
-.895634674866D-05 0.000000000000D+00 0.000000000000D+00 0.129470502248D-04 0.000000000000D+00  6 -2 1 25 -24 2 -2 4 0.50243647D-02 0.83857997D-01 0.17541238D+05 0.17541238D+05 0.17541238D+05 0.12401477D+01  1  2  5  7  6  5       21 -.139356934575D-01 0.100000000000D+01
0.102765800773D-04 0.000000000000D+00 0.000000000000D+00 0.129470502248D-04 0.143762081261D-06  6 -2 1 25 -24 2 -2 4 0.50243647D-02 0.83857997D-01 0.17527273D+05 0.17527273D+05 0.17527273D+05 0.12401863D+01  1  2 11  7  6  5       21 0.159915255084D-01 0.100000000000D+01
0.136597873251D-07 0.000000000000D+00 0.000000000000D+00 0.129478580159D-04 0.000000000000D+00  6 -2 1 25 -24 3 -3 4 0.50243647D-02 0.83857997D-01 0.17527273D+05 0.17527273D+05 0.17527273D+05 0.12401863D+01  1  2 12  8  6  5       21 0.212561801500D-04 0.100000000000D+01
0.136597873251D-07 0.000000000000D+00 0.000000000000D+00 0.129478580159D-04 0.000000000000D+00  6 -2 1 25 -24 4 -4 4 0.50243647D-02 0.83857997D-01 0.17527273D+05 0.17527273D+05 0.17527273D+05 0.12401863D+01  1  2 12  8  6  5       21 0.212561801500D-04 0.100000000000D+01
0.135372269321D-07 0.000000000000D+00 0.000000000000D+00 0.129478580159D-04 0.000000000000D+00  6 -2 1 25 -24 3 -3 4 0.50243647D-02 0.83857997D-01 0.17527273D+05 0.17527273D+05 0.17527273D+05 0.12401863D+01  1  2 12  8  6  5       21 0.210654622618D-04 0.100000000000D+01
0.135372269321D-07 0.000000000000D+00 0.000000000000D+00 0.129478580159D-04 0.000000000000D+00  6 -2 1 25 -24 4 -4 4 0.50243647D-02 0.83857997D-01 0.17527273D+05 0.17527273D+05 0.17527273D+05 0.12401863D+01  1  2 12  8  6  5       21 0.210654622618D-04 0.100000000000D+01
-.895634674866D-05 0.000000000000D+00 0.000000000000D+00 0.129470502248D-04 0.000000000000D+00  6 -2 1 25 -24 3 -3 4 0.50243647D-02 0.83857997D-01 0.17541238D+05 0.17541238D+05 0.17541238D+05 0.12401477D+01  1  2  5  8  6  5       21 -.139356934575D-01 0.100000000000D+01
-.895634674866D-05 0.000000000000D+00 0.000000000000D+00 0.129470502248D-04 0.000000000000D+00  6 -2 1 25 -24 4 -4 4 0.50243647D-02 0.83857997D-01 0.17541238D+05 0.17541238D+05 0.17541238D+05 0.12401477D+01  1  2  5  8  6  5       21 -.139356934575D-01 0.100000000000D+01
0.102557481149D-04 0.000000000000D+00 0.000000000000D+00 0.129470502248D-04 0.143327211180D-06  6 -2 1 25 -24 3 -3 4 0.50243647D-02 0.83857997D-01 0.17527273D+05 0.17527273D+05 0.17527273D+05 0.12401863D+01  1  2 11  8  6  5       21 0.159591086095D-01 0.100000000000D+01
0.102557481149D-04 0.000000000000D+00 0.000000000000D+00 0.129470502248D-04 0.143327211180D-06  6 -2 1 25 -24 4 -4 4 0.50243647D-02 0.83857997D-01 0.17527273D+05 0.17527273D+05 0.17527273D+05 0.12401863D+01  1  2 11  8  6  5       21 0.159591086095D-01 0.100000000000D+01
  </mgrwgt>
  </event>
  <event>
  5     66 0.39191994E-03 0.20675759E+02 0.75467711E-02 0.12368437E+00
       -2 -1    0    0    0  501 0.00000000E+00 0.00000000E+00 0.10662384E+03 0.10662432E+03 0.32000000E+00 0.0000E+00 0.9000E+01
        1 -1    0    0  502    0 -.00000000E+00 -.00000000E+00 -.16680423E+03 0.16680453E+03 0.32000000E+00 0.0000E+00 0.9000E+01
       25  1    1    2    0    0 -.85243856E+00 -.48149042E+02 -.46870717E+02 0.14191871E+03 0.12500000E+03 0.0000E+00 0.9000E+01
      -24  1    1    2    0    0 -.19128506E+02 0.42855093E+02 0.17163972E+02 0.94679864E+02 0.80419002E+02 0.0000E+00 0.9000E+01
       21  1    1    2  502  501 0.19980944E+02 0.52939495E+01 -.30473642E+02 0.36830278E+02 0.75000000E+00 0.0000E+00 0.9000E+01
#aMCatNLO 1  0  0  5  1 0.83889448D+01 0.00000000D+00  -5  6  0 0.00000000D+00 0.00000000D+00 0.00000000D+00 0.00000000D+00 0.00000000D+00
  <mgrwgt>
 0.9993428444D+00   20    2    0
 0.133361969227703D+03 0.000000000000000D+00 0.000000000000000D+00 0.133361969227703D+03
 0.133361969227703D+03 -.000000000000000D+00 -.000000000000000D+00 -.133361969227703D+03
 0.134910818817389D+03 -.855420695090382D+00 -.481498321073895D+02 -.160246983573195D+02
 0.100933762010468D+03 -.191307366779589D+02 0.428545014021385D+02 0.389604284235673D+02
 0.308793576275487D+02 0.199861573730493D+02 0.529533070525107D+01 -.229357300662478D+02
 0.000000000000000D+00 0.000000000000000D+00 0.000000000000000D+00 -.000000000000000D+00
 0.133361969227703D+03 0.000000000000000D+00 0.000000000000000D+00 0.133361969227703D+03
 0.133361969227703D+03 -.000000000000000D+00 -.000000000000000D+00 -.133361969227703D+03
 0.135008099125490D+03 0.101698741804005D+01 -.476537377362129D+02 -.181734379201592D+02
 0.100228677209900D+03 -.177352873107047D+02 0.432242255939438D+02 0.373590375503213D+02
 0.110547765188995D+02 0.110365545667368D+02 -.597371446027483D+00 -.213762797800920D+00
 0.204323856011168D+02 0.568174532592787D+01 0.502688358829659D+01 -.189718368323612D+02
0.631451271731D-03 0.000000000000D+00 0.000000000000D+00 0.536459795832D-04 0.000000000000D+00  6 -2 1 25 -24 21 21 2 0.16403728D-01 0.25662249D-01 0.15344119D+05 0.15344119D+05 0.15344119D+05 0.12467011D+01  1  2  2  3  6  5       21 0.446218683307D+00 0.100000000000D+01
0.995119356849D-04 0.333225990960D-04 -.242493914839D-05 0.536459795832D-04 0.000000000000D+00  6 -2 1 25 -24 21 21 4 0.16403728D-01 0.25662249D-01 0.15344119D+05 0.15344119D+05 0.15344119D+05 0.12467011D+01  1  2  3  3  6  5       21 0.109296881503D+00 0.100000000000D+01
0.256982043830D-04 0.000000000000D+00 0.000000000000D+00 0.536459795832D-04 0.000000000000D+00  6 -2 1 25 -24 21 21 4 0.16403728D-01 0.25662249D-01 0.15344119D+05 0.15344119D+05 0.15344119D+05 0.12467011D+01  1  2 15  3  6  5       21 0.282250925977D-01 0.100000000000D+01
0.106322840254D-03 0.000000000000D+00 0.000000000000D+00 0.537260071638D-04 0.000000000000D+00  6 -2 1 25 -24 21 21 4 0.16403728D-01 0.25662249D-01 0.15058260D+05 0.15058260D+05 0.15058260D+05 0.12476307D+01  1  2 12  3  6  5       21 0.117054328365D+00 0.100000000000D+01
0.853028292050D-04 0.000000000000D+00 0.000000000000D+00 0.537260071638D-04 0.000000000000D+00  6 -2 1 25 -24 21 21 4 0.16403728D-01 0.25662249D-01 0.15058260D+05 0.15058260D+05 0.15058260D+05 0.12476307D+01  1  2 12  3  6  5       21 0.939127035771D-01 0.100000000000D+01
-.322767604396D-03 0.000000000000D+00 0.000000000000D+00 0.536459795832D-04 0.000000000000D+00  6 -2 1 25 -24 21 21 4 0.16403728D-01 0.25662249D-01 0.15344119D+05 0.15344119D+05 0.15344119D+05 0.12467011D+01  1  2  4  3  6  5       21 -.354505139186D+00 0.100000000000D+01
-.159545895468D-03 0.000000000000D+00 0.000000000000D+00 0.536459795832D-04 0.000000000000D+00  6 -2 1 25 -24 21 21 4 0.16403728D-01 0.25662249D-01 0.15344119D+05 0.15344119D+05 0.15344119D+05 0.12467011D+01  1  2  5  3  6  5       21 -.175233942654D+00 0.100000000000D+01
0.634259001675D-03 0.000000000000D+00 -.000000000000D+00 0.536459795832D-04 0.000000000000D+00  6 -2 1 25 -24 21 21 4 0.16403728D-01 0.25662249D-01 0.15344119D+05 0.15344119D+05 0.15344119D+05 0.12467011D+01  1  2  6  3  6  5       21 0.696625288926D+00 0.100000000000D+01
0.804746330425D-05 0.000000000000D+00 0.000000000000D+00 0.537260071638D-04 0.000000000000D+00  6 -2 1 25 -24 1 -1 4 0.16403728D-01 0.25662249D-01 0.15058260D+05 0.15058260D+05 0.15058260D+05 0.12476307D+01  1  2 12  6  6  5       21 0.885971828699D-02 0.100000000000D+01
0.665102053368D-05 0.000000000000D+00 0.000000000000D+00 0.537260071638D-04 0.000000000000D+00  6 -2 1 25 -24 1 -1 4 0.16403728D-01 0.25662249D-01 0.15058260D+05 0.15058260D+05 0.15058260D+05 0.12476307D+01  1  2 12  6  6  5       21 0.732232829422D-02 0.100000000000D+01
-.614097171968D-05 0.000000000000D+00 0.000000000000D+00 0.536459795832D-04 0.000000000000D+00  6 -2 1 25 -24 1 -1 4 0.16403728D-01 0.25662249D-01 0.15344119D+05 0.15344119D+05 0.15344119D+05 0.12467011D+01  1  2  5  6  6  5       21 -.674480959232D-02 0.100000000000D+01
0.804746330425D-05 0.000000000000D+00 0.000000000000D+00 0.537260071638D-04 0.000000000000D+00  6 -2 1 25 -24 2 -2 4 0.16403728D-01 0.25662249D-01 0.15058260D+05 0.15058260D+05 0.15058260D+05 0.12476307D+01  1  2 12  7  6  5       21 0.885971828699D-02 0.100000000000D+01
0.665102053368D-05 0.000000000000D+00 0.000000000000D+00 0.537260071638D-04 0.000000000000D+00  6 -2 1 25 -24 2 -2 4 0.16403728D-01 0.25662249D-01 0.15058260D+05 0.15058260D+05 0.15058260D+05 0.12476307D+01  1  2 12  7  6  5       21 0.732232829422D-02 0.100000000000D+01
-.614097171968D-05 0.000000000000D+00 0.000000000000D+00 0.536459795832D-04 0.000000000000D+00  6 -2 1 25 -24 2 -2 4 0.16403728D-01 0.25662249D-01 0.15344119D+05 0.15344119D+05 0.15344119D+05 0.12467011D+01  1  2  5  7  6  5       21 -.674480959232D-02 0.100000000000D+01
0.804746330425D-05 0.000000000000D+00 0.000000000000D+00 0.537260071638D-04 0.000000000000D+00  6 -2 1 25 -24 3 -3 4 0.16403728D-01 0.25662249D-01 0.15058260D+05 0.15058260D+05 0.15058260D+05 0.12476307D+01  1  2 12  8  6  5       21 0.885971828699D-02 0.100000000000D+01
0.804746330425D-05 0.000000000000D+00 0.000000000000D+00 0.537260071638D-04 0.000000000000D+00  6 -2 1 25 -24 4 -4 4 0.16403728D-01 0.25662249D-01 0.15058260D+05 0.15058260D+05 0.15058260D+05 0.12476307D+01  1  2 12  8  6  5       21 0.885971828699D-02 0.100000000000D+01
0.665102053368D-05 0.000000000000D+00 0.000000000000D+00 0.537260071638D-04 0.000000000000D+00  6 -2 1 25 -24 3 -3 4 0.16403728D-01 0.25662249D-01 0.15058260D+05 0.15058260D+05 0.15058260D+05 0.12476307D+01  1  2 12  8  6  5       21 0.732232829422D-02 0.100000000000D+01
0.665102053368D-05 0.000000000000D+00 0.000000000000D+00 0.537260071638D-04 0.000000000000D+00  6 -2 1 25 -24 4 -4 4 0.16403728D-01 0.25662249D-01 0.15058260D+05 0.15058260D+05 0.15058260D+05 0.12476307D+01  1  2 12  8  6  5       21 0.732232829422D-02 0.100000000000D+01
-.614097171968D-05 0.000000000000D+00 0.000000000000D+00 0.536459795832D-04 0.000000000000D+00  6 -2 1 25 -24 3 -3 4 0.16403728D-01 0.25662249D-01 0.15344119D+05 0.15344119D+05 0.15344119D+05 0.12467011D+01  1  2  5  8  6  5       21 -.674480959232D-02 0.100000000000D+01
-.614097171968D-05 0.000000000000D+00 0.000000000000D+00 0.536459795832D-04 0.000000000000D+00  6 -2 1 25 -24 4 -4 4 0.16403728D-01 0.25662249D-01 0.15344119D+05 0.15344119D+05 0.15344119D+05 0.12467011D+01  1  2  5  8  6  5       21 -.674480959232D-02 0.100000000000D+01
  </mgrwgt>
  </event>
  <event>
  6     66 -.39191994E-03 0.14381996E+02 0.75467711E-02 0.12259137E+00
       -2 -1    0    0    0  501 0.00000000E+00 0.00000000E+00 0.29966748E+03 0.29966765E+03 0.32000000E+00 0.0000E+00 0.9000E+01
        1 -1    0    0  502    0 0.00000000E+00 0.00000000E+00 -.72434433E+02 0.72435140E+02 0.32000000E+00 0.0000E+00 0.9000E+01
       25  1    1    2    0    0 -.39374621E+02 -.32029738E+02 0.32327427E+02 0.13873113E+03 0.12500000E+03 0.0000E+00 0.9000E+01
      -24  1    1    2    0    0 0.59552886E+02 0.22330460E+02 0.15187220E+03 0.18324185E+03 0.80419002E+02 0.0000E+00 0.9000E+01
       21  1    1    2  503  501 -.13946275E+02 0.11375444E+02 0.37476286E+02 0.41580450E+02 0.75000000E+00 0.0000E+00 0.9000E+01
       21  1    1    2  502  503 -.62319893E+01 -.16761652E+01 0.55571352E+01 0.85493550E+01 0.75000000E+00 0.0000E+00 0.9000E+01
#aMCatNLO 2  0  0  5  2 0.50637009D+01 0.00000000D+00  -5  6  0 0.00000000D+00 0.00000000D+00 0.00000000D+00 0.00000000D+00 0.00000000D+00
  <mgrwgt>
 -.1455987598D+00    3    2    0
 0.147330944762437D+03 0.000000000000000D+00 0.000000000000000D+00 0.147330944762437D+03
 0.147330944762437D+03 -.000000000000000D+00 -.000000000000000D+00 -.147330944762437D+03
 0.150460681962766D+03 -.383214537152416D+02 -.325359744937720D+02 -.669797981901396D+02
 0.114353835278057D+03 0.603535956972702D+02 0.219455747869889D+02 0.498539759909848D+02
 0.298473722840515D+02 -.220321419820287D+02 0.105903997067831D+02 0.171258221991548D+02
 0.000000000000000D+00 -.000000000000000D+00 0.000000000000000D+00 0.000000000000000D+00
 0.147330944762437D+03 0.000000000000000D+00 0.000000000000000D+00 0.147330944762437D+03
 0.147330944762437D+03 -.000000000000000D+00 -.000000000000000D+00 -.147330944762437D+03
 0.150258115425355D+03 -.393939921012530D+02 -.320204272438498D+02 -.661461025051906D+02
 0.114280331609886D+03 0.595381530895221D+02 0.223375413584207D+02 0.504878283474784D+02
 0.233569643076632D+02 -.136163246118088D+02 0.113969811472335D+02 0.151740669059059D+02
 0.676647818197030D+01 -.652783637646027D+01 -.171409526180443D+01 0.484207251806360D+00
-.596948779944D-04 0.000000000000D+00 0.000000000000D+00 0.303435426379D-04 0.000000000000D+00  6 -2 1 25 -24 21 21 4 0.46102757D-01 0.11143826D-01 0.17153696D+05 0.17153696D+05 0.17153696D+05 0.12412343D+01  1  2 13  3  6  5       21 -.299843423860D-01 0.100000000000D+01
-.648886691723D-04 0.000000000000D+00 0.000000000000D+00 0.303435426379D-04 0.000000000000D+00  6 -2 1 25 -24 21 21 4 0.46102757D-01 0.11143826D-01 0.17153696D+05 0.17153696D+05 0.17153696D+05 0.12412343D+01  1  2 13  3  6  5       21 -.325931493421D-01 0.100000000000D+01
-.165308003022D-03 0.000000000000D+00 0.000000000000D+00 0.303409018636D-04 0.000000000000D+00  6 -2 1 25 -24 21 21 4 0.46102757D-01 0.11143826D-01 0.17172731D+05 0.17172731D+05 0.17172731D+05 0.12411803D+01  1  2  8  3  6  5       21 -.830212680460D-01 0.100000000000D+01
  </mgrwgt>
  </event>
  <event>
  6     66 -.39191994E-03 0.18637965E+02 0.75467711E-02 0.11945374E+00
       -2 -1    0    0    0  501 0.00000000E+00 0.00000000E+00 0.18139753E+02 0.18142576E+02 0.32000000E+00 0.0000E+00 0.9000E+01
        1 -1    0    0  502    0 -.00000000E+00 -.00000000E+00 -.14630833E+04 0.14630834E+04 0.32000000E+00 0.0000E+00 0.9000E+01
       25  1    1    2    0    0 -.62477985E+02 0.59100490E+02 -.50716060E+03 0.52937061E+03 0.12500000E+03 0.0000E+00 0.9000E+01
      -24  1    1    2    0    0 0.74221049E+02 -.70558673E+02 -.66288943E+03 0.67555674E+03 0.80419002E+02 0.0000E+00 0.9000E+01
       21  1    1    2  503  501 -.13025347E+02 0.17363964E+02 -.21026191E+03 0.21138070E+03 0.75000000E+00 0.0000E+00 0.9000E+01
       21  1    1    2  502  503 0.12822826E+01 -.59057814E+01 -.64631647E+02 0.64917908E+02 0.75000000E+00 0.0000E+00 0.9000E+01
#aMCatNLO 2  0  0  5  1 0.84849199D+01 0.00000000D+00  -5  6  0 0.00000000D+00 0.00000000D+00 0.00000000D+00 0.00000000D+00 0.00000000D+00
  <mgrwgt>
 -.7049114462D-01    3    2    0
 0.162917424932890D+03 0.000000000000000D+00 0.000000000000000D+00 0.162917424932890D+03
 0.162917424932890D+03 -.000000000000000D+00 -.000000000000000D+00 -.162917424932890D+03
 0.157171817892922D+03 -.609922182089522D+02 0.576507670255765D+02 0.451034224763514D+02
 0.132441141523676D+03 0.754670487490621D+02 -.717744451924765D+02 -.150530257470987D+02
 0.362218904491821D+02 -.144748305401099D+02 0.141236781669000D+02 -.300503967292527D+02
 0.000000000000000D+00 0.000000000000000D+00 -.000000000000000D+00 0.000000000000000D+00
 0.162917424932890D+03 0.000000000000000D+00 0.000000000000000D+00 0.162917424932890D+03
 0.162917424932890D+03 -.000000000000000D+00 -.000000000000000D+00 -.162917424932890D+03
 0.157446633290088D+03 -.625156411629925D+02 0.591372324771278D+02 0.419407281685663D+02
 0.131373453268727D+03 0.741896245935290D+02 -.705280107278119D+02 -.177050155274921D+02
 0.282254333021476D+02 -.129537952644925D+02 0.174559829637394D+02 -.180045253230746D+02
 0.878933000481832D+01 0.127981183395592D+01 -.606520471305523D+01 -.623118731799957D+01
-.161493711682D-03 0.000000000000D+00 0.000000000000D+00 0.477974621354D-04 0.000000000000D+00  6 -2 1 25 -24 21 21 4 0.27909511D-02 0.22508997D+00 0.24004670D+05 0.24004670D+05 0.24004670D+05 0.12251939D+01  1  2 13  3  6  5       21 -.113408403167D+00 0.100000000000D+01
-.784862360067D-04 0.000000000000D+00 0.000000000000D+00 0.479770543698D-04 0.000000000000D+00  6 -2 1 25 -24 21 21 4 0.27909511D-02 0.22508997D+00 0.22856570D+05 0.22856570D+05 0.22856570D+05 0.12274934D+01  1  2  8  3  6  5       21 -.555084469062D-01 0.100000000000D+01
0.140158330898D-03 0.000000000000D+00 0.000000000000D+00 0.479770543698D-04 0.203519476369D-05  6 -2 1 25 -24 21 21 4 0.27909511D-02 0.22508997D+00 0.24004670D+05 0.24004670D+05 0.24004670D+05 0.12251939D+01  1  2  1  3  6  5       21 0.984257054487D-01 0.100000000000D+01
  </mgrwgt>
  </event>
  <event>
  6     66 0.39191994E-03 0.36175381E+02 0.75467711E-02 0.11996645E+00
       -2 -1    0    0    0  501 0.00000000E+00 0.00000000E+00 0.12064140E+03 0.12064182E+03 0.32000000E+00 0.0000E+00 0.9000E+01
        1 -1    0    0  502    0 -.00000000E+00 -.00000000E+00 -.21742354E+03 0.21742378E+03 0.32000000E+00 0.0000E+00 0.9000E+01
       25  1    1    2    0    0 -.33909669E+02 0.64858542E+02 -.58467499E+02 0.15620482E+03 0.12500000E+03 0.0000E+00 0.9000E+01
      -24  1    1    2    0    0 -.11888558E+02 -.45133310E+02 -.20986354E+02 0.95320494E+02 0.80419002E+02 0.0000E+00 0.9000E+01
       21  1    1    2  503  501 0.45838821E+02 -.18607273E+01 0.16104150E+02 0.48626803E+02 0.75000000E+00 0.0000E+00 0.9000E+01
       21  1    1    2  502  503 -.40594215E-01 -.17864504E+02 -.33432440E+02 0.37913489E+02 0.75000000E+00 0.0000E+00 0.9000E+01
#aMCatNLO 2  0  0  5  2 0.29763867D+02 0.00000000D+00  -5  6  0 0.00000000D+00 0.00000000D+00 0.00000000D+00 0.00000000D+00 0.00000000D+00
  <mgrwgt>
 0.1669118883D-01    2    2    0
 0.161957994570499D+03 0.000000000000000D+00 0.000000000000000D+00 0.161957994570499D+03
 0.161957994570499D+03 -.000000000000000D+00 -.000000000000000D+00 -.161957994570499D+03
 0.153111831237610D+03 -.492376031124731D+02 0.714602611594963D+02 -.169505864113752D+02
 0.929196671354266D+02 -.214410272159456D+02 -.410190754428424D+02 0.495644912487178D+01
 0.778844907679608D+02 0.706786303284187D+02 -.304411857166540D+02 0.119941372865034D+02
 0.000000000000000D+00 0.000000000000000D+00 0.000000000000000D+00 -.000000000000000D+00
 0.161957994570499D+03 0.000000000000000D+00 0.000000000000000D+00 0.161957994570499D+03
 0.161957994570499D+03 -.000000000000000D+00 -.000000000000000D+00 -.161957994570499D+03
 0.145498089972095D+03 -.337717436492896D+02 0.647991374506921D+02 -.143260358110984D+02
 0.932221742826251D+02 -.118002103672380D+02 -.451713615693288D+02 0.659249215938062D+01
 0.551988922416567D+02 0.452756182228270D+02 -.138721531443901D+01 0.315453916272761D+02
 0.299968326446204D+02 0.296335793700578D+00 -.182405605669243D+02 -.238118479755583D+02
-.381286770126D-04 0.000000000000D+00 0.000000000000D+00 0.426477746660D-05 0.000000000000D+00  6 -2 1 25 -24 21 21 4 0.18560266D-01 0.33449826D-01 0.22698390D+05 0.22698390D+05 0.22698390D+05 0.12278204D+01  1  2 13  3  6  5       21 -.233121230386D-01 0.100000000000D+01
0.654283333725D-04 0.000000000000D+00 0.000000000000D+00 0.422196244450D-05 0.142095938297D-06  6 -2 1 25 -24 21 21 4 0.18560266D-01 0.33449826D-01 0.22698390D+05 0.22698390D+05 0.22698390D+05 0.12278204D+01  1  2  1  3  6  5       21 0.400033118717D-01 0.100000000000D+01
  </mgrwgt>
  </event>
  <event>
  5     66 0.39191994E-03 0.30759862E+02 0.75467711E-02 0.10327188E+00
       -2 -1    0    0    0  501 0.00000000E+00 0.00000000E+00 0.34527487E+03 0.34527502E+03 0.32000000E+00 0.0000E+00 0.9000E+01
        1 -1    0    0  502    0 0.00000000E+00 0.00000000E+00 -.62829873E+02 0.62830688E+02 0.32000000E+00 0.0000E+00 0.9000E+01
       25  1    1    2    0    0 0.15841144E+02 0.86078805E+01 0.16756684E+03 0.20983013E+03 0.12500000E+03 0.0000E+00 0.9000E+01
      -24  1    1    2    0    0 0.11542090E+02 0.54012929E+01 0.13769732E+03 0.15996925E+03 0.80419002E+02 0.0000E+00 0.9000E+01
       21  1    1    2  502  501 -.27383234E+02 -.14009173E+02 -.22819157E+02 0.38306329E+02 0.75000000E+00 0.0000E+00 0.9000E+01
#aMCatNLO 1  0  0  1  5 0.64865960D+01 0.00000000D+00  -5  6  0 0.00000000D+00 0.00000000D+00 0.00000000D+00 0.00000000D+00 0.00000000D+00
  <mgrwgt>
 0.1013753935D+00    5    4    0
 0.147288060241898D+03 0.000000000000000D+00 0.000000000000000D+00 0.147288060241898D+03
 0.147288060241898D+03 0.000000000000000D+00 0.000000000000000D+00 -.147288060241898D+03
 0.130032913305761D+03 0.158417493604279D+02 0.860819017170178D+01 0.309595959591337D+02
 0.895951536473791D+02 0.115425069254109D+02 0.540150623282819D+01 0.373854231889983D+02
 0.749480535306564D+02 -.273842562858388D+02 -.140096964045300D+02 -.683450191481321D+02
 0.000000000000000D+00 -.000000000000000D+00 0.000000000000000D+00 0.000000000000000D+00
 0.574456882239791D+03 0.000000000000000D+00 0.000000000000000D+00 0.574456882239791D+03
 0.370078510069385D+03 0.000000000000000D+00 0.000000000000000D+00 -.370078510069385D+03
 0.221588221149829D+03 0.116723941530069D+03 -.137453136174034D+03 0.309595959591337D+02
 0.153752120785393D+03 0.813602854878257D+02 -.956835031233419D+02 0.373854231889983D+02
 0.120751009804274D+03 0.287629674734510D+02 -.953019224806855D+02 -.683450191481321D+02
 0.448444040569680D+03 -.226847194491346D+03 0.328438561778061D+03 0.204378372170405D+03
 0.147288060241898D+03 0.000000000000000D+00 0.000000000000000D+00 0.147288060241898D+03
 0.147288060241898D+03 0.000000000000000D+00 0.000000000000000D+00 -.147288060241898D+03
 0.130032913305761D+03 0.158417493604279D+02 0.860819017170178D+01 0.309595959591337D+02
 0.895951536473791D+02 0.115425069254109D+02 0.540150623282819D+01 0.373854231889983D+02
 0.000000000000000D+00 -.000000000000000D+00 0.000000000000000D+00 0.000000000000000D+00
 0.749480535306564D+02 -.273842562858388D+02 -.140096964045300D+02 -.683450191481321D+02
 0.574456882239791D+03 0.000000000000000D+00 0.000000000000000D+00 0.574456882239791D+03
 0.370078510069385D+03 0.000000000000000D+00 0.000000000000000D+00 -.370078510069385D+03
 0.221588221149829D+03 0.116723941530069D+03 -.137453136174034D+03 0.309595959591337D+02
 0.153752120785393D+03 0.813602854878257D+02 -.956835031233419D+02 0.373854231889983D+02
 0.448444040569680D+03 -.226847194491346D+03 0.328438561778061D+03 0.204378372170405D+03
 0.120751009804274D+03 0.287629674734510D+02 -.953019224806855D+02 -.683450191481321D+02
0.277355975316D-03 0.000000000000D+00 0.000000000000D+00 0.350182030981D-04 0.000000000000D+00  6 -2 1 25 -24 21 21 2 0.53119285D-01 0.96662084D-02 0.14217689D+05 0.14217689D+05 0.14217689D+05 0.12504832D+01  1  2  2  1  6  1       -2 0.833166287655D-01 0.100000000000D+01
0.166754602575D-04 0.146364769319D-04 -.106511997472D-05 0.350182030981D-04 0.000000000000D+00  6 -2 1 25 -24 21 21 4 0.53119285D-01 0.96662084D-02 0.14217689D+05 0.14217689D+05 0.14217689D+05 0.12504832D+01  1  2  3  1  6  1       -2 0.783299262739D-02 0.100000000000D+01
0.130668653125D-04 0.000000000000D+00 0.000000000000D+00 0.350182030981D-04 0.000000000000D+00  6 -2 1 25 -24 21 21 4 0.53119285D-01 0.96662084D-02 0.14217689D+05 0.14217689D+05 0.14217689D+05 0.12504832D+01  1  2 15  1  6  1       -2 0.613792111734D-02 0.100000000000D+01
0.530634011634D-03 0.000000000000D+00 -.254987976722D-03 0.350182030981D-04 0.000000000000D+00  6 -2 1 25 -24 21 21 4 0.36480382D+00 0.96662084D-02 0.14217689D+05 0.14217689D+05 0.14217689D+05 0.12504832D+01  1  2  5  1  6  1       -2 0.122625237489D-02 0.100000000000D+01
0.102007288909D-03 0.000000000000D+00 -.600953962833D-04 0.350182030981D-04 0.000000000000D+00  6 21 1 25 -24 2 21 4 0.36480382D+00 0.96662084D-02 0.14217689D+05 0.14217689D+05 0.14217689D+05 0.12504832D+01  3  4  5  4  5  1       -2 0.286159856917D-02 0.100000000000D+01
  </mgrwgt>
  </event>
  <event>
  5     66 0.39191994E-03 0.51838531E+02 0.75467711E-02 0.12078686E+00
       -2 -1    0    0    0  501 0.00000000E+00 0.00000000E+00 0.31535351E+03 0.31535367E+03 0.32000000E+00 0.0000E+00 0.9000E+01
        1 -1    0    0  502    0 0.00000000E+00 0.00000000E+00 -.10241410E+03 0.10241460E+03 0.32000000E+00 0.0000E+00 0.9000E+01
       25  1    1    2    0    0 -.13623187E+02 0.58277386E+02 -.22039679E+02 0.14033030E+03 0.12500000E+03 0.0000E+00 0.9000E+01
      -24  1    1    2    0    0 -.33728864E+02 -.37190417E+02 0.16578866E+03 0.19098131E+03 0.80419002E+02 0.0000E+00 0.9000E+01
       21  1    1    2  502  501 0.47352051E+02 -.21086970E+02 0.69190428E+02 0.86456664E+02 0.75000000E+00 0.0000E+00 0.9000E+01
#aMCatNLO 1  0  0  5  1 0.14201482D+02 0.00000000D+00  -5  6  0 0.00000000D+00 0.00000000D+00 0.00000000D+00 0.00000000D+00 0.00000000D+00
  <mgrwgt>
 0.7741653056D-01   14    2    0
 0.179713058585919D+03 0.000000000000000D+00 0.000000000000000D+00 0.179713058585919D+03
 0.179713058585919D+03 -.000000000000000D+00 -.000000000000000D+00 -.179713058585919D+03
 0.176167117116262D+03 -.136250309750215D+02 0.582782076213471D+02 -.108755975469983D+03
 0.123760817329910D+03 -.337301592799006D+02 -.371898397959014D+02 0.795532282355940D+02
 0.594981827256664D+02 0.473551902549221D+02 -.210883678254457D+02 0.292027472343891D+02
 0.000000000000000D+00 0.000000000000000D+00 0.000000000000000D+00 0.000000000000000D+00
 0.179713058585919D+03 0.000000000000000D+00 0.000000000000000D+00 0.179713058585919D+03
 0.179713058585919D+03 -.000000000000000D+00 -.000000000000000D+00 -.179713058585919D+03
 0.172981896331411D+03 -.819248279271024D+01 0.558589675405594D+02 -.105405860507871D+03
 0.124848200743448D+03 -.298619528201306D+02 -.389124421169831D+02 0.819386532520916D+02
 0.471007148935831D+02 0.329208834285450D+02 -.289649052684200D+02 0.171967159819022D+02
 0.144953052033962D+02 0.513355218429586D+01 0.120183798448437D+02 0.627049127387737D+01
0.188741564653D-03 0.000000000000D+00 0.000000000000D+00 0.503223010577D-05 0.000000000000D+00  6 -2 1 25 -24 21 21 2 0.48515975D-01 0.15756066D-01 0.20339467D+05 0.20339467D+05 0.20339467D+05 0.12330221D+01  1  2  2  3  6  5       21 0.351157088326D-01 0.100000000000D+01
-.211420567402D-05 0.996016600683D-05 -.724817305061D-06 0.503223010577D-05 0.000000000000D+00  6 -2 1 25 -24 21 21 4 0.48515975D-01 0.15756066D-01 0.20339467D+05 0.20339467D+05 0.20339467D+05 0.12330221D+01  1  2  3  3  6  5       21 -.598029860018D-03 0.100000000000D+01
0.464210541070D-05 0.000000000000D+00 0.000000000000D+00 0.503223010577D-05 0.000000000000D+00  6 -2 1 25 -24 21 21 4 0.48515975D-01 0.15756066D-01 0.20339467D+05 0.20339467D+05 0.20339467D+05 0.12330221D+01  1  2 15  3  6  5       21 0.131307832680D-02 0.100000000000D+01
0.108852648364D-03 0.000000000000D+00 0.000000000000D+00 0.502398475845D-05 0.000000000000D+00  6 -2 1 25 -24 21 21 4 0.48515975D-01 0.15756066D-01 0.20775389D+05 0.20775389D+05 0.20775389D+05 0.12320116D+01  1  2 12  3  6  5       21 0.307018027318D-01 0.100000000000D+01
0.146846763500D-03 0.000000000000D+00 0.000000000000D+00 0.502398475845D-05 0.000000000000D+00  6 -2 1 25 -24 21 21 4 0.48515975D-01 0.15756066D-01 0.20775389D+05 0.20775389D+05 0.20775389D+05 0.12320116D+01  1  2 12  3  6  5       21 0.414180126300D-01 0.100000000000D+01
-.122491327587D-03 0.000000000000D+00 0.000000000000D+00 0.503223010577D-05 0.000000000000D+00  6 -2 1 25 -24 21 21 4 0.48515975D-01 0.15756066D-01 0.20339467D+05 0.20339467D+05 0.20339467D+05 0.12330221D+01  1  2  4  3  6  5       21 -.346482238650D-01 0.100000000000D+01
0.166510142690D-05 0.000000000000D+00 0.000000000000D+00 0.502398475845D-05 0.000000000000D+00  6 -2 1 25 -24 1 -1 4 0.48515975D-01 0.15756066D-01 0.20775389D+05 0.20775389D+05 0.20775389D+05 0.12320116D+01  1  2 12  6  6  5       21 0.469640530619D-03 0.100000000000D+01
0.198158656111D-05 0.000000000000D+00 0.000000000000D+00 0.502398475845D-05 0.000000000000D+00  6 -2 1 25 -24 1 -1 4 0.48515975D-01 0.15756066D-01 0.20775389D+05 0.20775389D+05 0.20775389D+05 0.12320116D+01  1  2 12  6  6  5       21 0.558904910530D-03 0.100000000000D+01
0.166510142690D-05 0.000000000000D+00 0.000000000000D+00 0.502398475845D-05 0.000000000000D+00  6 -2 1 25 -24 2 -2 4 0.48515975D-01 0.15756066D-01 0.20775389D+05 0.20775389D+05 0.20775389D+05 0.12320116D+01  1  2 12  7  6  5       21 0.469640530619D-03 0.100000000000D+01
0.198158656111D-05 0.000000000000D+00 0.000000000000D+00 0.502398475845D-05 0.000000000000D+00  6 -2 1 25 -24 2 -2 4 0.48515975D-01 0.15756066D-01 0.20775389D+05 0.20775389D+05 0.20775389D+05 0.12320116D+01  1  2 12  7  6  5       21 0.558904910530D-03 0.100000000000D+01
0.166510142690D-05 0.000000000000D+00 0.000000000000D+00 0.502398475845D-05 0.000000000000D+00  6 -2 1 25 -24 3 -3 4 0.48515975D-01 0.15756066D-01 0.20775389D+05 0.20775389D+05 0.20775389D+05 0.12320116D+01  1  2 12  8  6  5       21 0.469640530619D-03 0.100000000000D+01
0.166510142690D-05 0.000000000000D+00 0.000000000000D+00 0.502398475845D-05 0.000000000000D+00  6 -2 1 25 -24 4 -4 4 0.48515975D-01 0.15756066D-01 0.20775389D+05 0.20775389D+05 0.20775389D+05 0.12320116D+01  1  2 12  8  6  5       21 0.469640530619D-03 0.100000000000D+01
0.198158656111D-05 0.000000000000D+00 0.000000000000D+00 0.502398475845D-05 0.000000000000D+00  6 -2 1 25 -24 3 -3 4 0.48515975D-01 0.15756066D-01 0.20775389D+05 0.20775389D+05 0.20775389D+05 0.12320116D+01  1  2 12  8  6  5       21 0.558904910530D-03 0.100000000000D+01
0.198158656111D-05 0.000000000000D+00 0.000000000000D+00 0.502398475845D-05 0.000000000000D+00  6 -2 1 25 -24 4 -4 4 0.48515975D-01 0.15756066D-01 0.20775389D+05 0.20775389D+05 0.20775389D+05 0.12320116D+01  1  2 12  8  6  5       21 0.558904910530D-03 0.100000000000D+01
  </mgrwgt>
  </event>
  <event>
  5     66 0.39191994E-03 0.20777251E+02 0.75467711E-02 0.12328549E+00
       -4 -1    0    0    0  501 0.00000000E+00 0.00000000E+00 0.27878193E+03 0.27878624E+03 0.15500000E+01 0.0000E+00 0.9000E+01
        3 -1    0    0  502    0 0.00000000E+00 0.00000000E+00 -.65974247E+02 0.65976142E+02 0.50000000E+00 0.0000E+00 0.9000E+01
       25  1    1    2    0    0 -.32518938E+02 -.43089372E+02 0.51321274E+02 0.14550962E+03 0.12500000E+03 0.0000E+00 0.9000E+01
      -24  1    1    2    0    0 0.45051459E+02 0.26531064E+02 0.13414670E+03 0.16491235E+03 0.80419002E+02 0.0000E+00 0.9000E+01
       21  1    1    2  502  501 -.12532521E+02 0.16558309E+02 0.27339714E+02 0.34340416E+02 0.75000000E+00 0.0000E+00 0.9000E+01
#aMCatNLO 1  0  0  5  1 0.16640989D-01 0.00000000D+00  -5  6  0 0.00000000D+00 0.00000000D+00 0.00000000D+00 0.00000000D+00 0.00000000D+00
  <mgrwgt>
 0.1319472965D-01    9    2    0
 0.135622629221375D+03 0.000000000000000D+00 0.000000000000000D+00 0.135622629221375D+03
 0.135622629221375D+03 -.000000000000000D+00 -.000000000000000D+00 -.135622629221375D+03
 0.144684829002158D+03 -.325151195873948D+02 -.430944178476392D+02 -.489319720834359D+02
 0.104363171508588D+03 0.450542137636329D+02 0.265274240990118D+02 0.411201800308854D+02
 0.221972579320040D+02 -.125390941762381D+02 0.165669937486273D+02 0.781179205255049D+01
 0.000000000000000D+00 0.000000000000000D+00 0.000000000000000D+00 -.000000000000000D+00
 0.135622629221375D+03 0.000000000000000D+00 0.000000000000000D+00 0.135622629221375D+03
 0.135622629221375D+03 -.000000000000000D+00 -.000000000000000D+00 -.135622629221375D+03
 0.144682444683778D+03 -.325214035795301D+02 -.430861152655739D+02 -.489280571882185D+02
 0.104363849896413D+03 0.450496809809715D+02 0.265334129352834D+02 0.411230039314856D+02
 0.221818983942723D+02 -.125417112336072D+02 0.165444957871866D+02 0.781164226359567D+01
 0.170654682858147D-01 0.134338321658460D-01 0.820654310391965D-02 -.658900686276284D-02
0.874921237830D-04 0.000000000000D+00 0.000000000000D+00 0.465378695251D-04 0.000000000000D+00  6 -4 3 25 -24 21 21 2 0.42890005D-01 0.10150361D-01 0.15984215D+05 0.15984215D+05 0.15984215D+05 0.12446883D+01  1  2  2  3  6  5       21 0.994797918511D-02 0.100000000000D+01
0.178624546451D-04 0.461708621931D-05 -.335992792532D-06 0.465378695251D-04 0.000000000000D+00  6 -4 3 25 -24 21 21 4 0.42890005D-01 0.10150361D-01 0.15984215D+05 0.15984215D+05 0.15984215D+05 0.12446883D+01  1  2  3  3  6  5       21 0.314650393684D-02 0.100000000000D+01
0.210876942833D-05 0.000000000000D+00 0.000000000000D+00 0.465378695251D-04 0.000000000000D+00  6 -4 3 25 -24 21 21 4 0.42890005D-01 0.10150361D-01 0.15984215D+05 0.15984215D+05 0.15984215D+05 0.12446883D+01  1  2 15  3  6  5       21 0.371463577652D-03 0.100000000000D+01
-.278957725331D-01 0.000000000000D+00 0.000000000000D+00 0.465378695251D-04 0.000000000000D+00  6 -4 3 25 -24 21 21 4 0.42890005D-01 0.10150361D-01 0.15984215D+05 0.15984215D+05 0.15984215D+05 0.12446883D+01  1  2  4  3  6  5       21 -.491389116671D+01 0.100000000000D+01
0.278866857298D-01 0.000000000000D+00 0.000000000000D+00 0.465378695251D-04 0.714887483793D+00  6 -4 3 25 -24 21 21 4 0.42890005D-01 0.10150361D-01 0.15983935D+05 0.15983935D+05 0.15983935D+05 0.12446892D+01  1  2 11  3  6  5       21 0.491229606922D+01 0.100000000000D+01
0.188373888604D-05 0.000000000000D+00 0.000000000000D+00 0.465379337645D-04 0.778480744618D-04  6 -4 3 25 -24 3 -3 4 0.42890005D-01 0.10150361D-01 0.15983935D+05 0.15983935D+05 0.15983935D+05 0.12446892D+01  1  2 11  6  6  5       21 0.331824413090D-03 0.100000000000D+01
0.186437281278D-05 0.000000000000D+00 0.000000000000D+00 0.465379337645D-04 0.812682735260D-04  6 -4 3 25 -24 4 -4 4 0.42890005D-01 0.10150361D-01 0.15983935D+05 0.15983935D+05 0.15983935D+05 0.12446892D+01  1  2 11  7  6  5       21 0.328413040133D-03 0.100000000000D+01
0.188372231135D-05 0.000000000000D+00 0.000000000000D+00 0.465379337645D-04 0.778472950431D-04  6 -4 3 25 -24 1 -1 4 0.42890005D-01 0.10150361D-01 0.15983935D+05 0.15983935D+05 0.15983935D+05 0.12446892D+01  1  2 11  8  6  5       21 0.331821493425D-03 0.100000000000D+01
0.188372231135D-05 0.000000000000D+00 0.000000000000D+00 0.465379337645D-04 0.778472950431D-04  6 -4 3 25 -24 2 -2 4 0.42890005D-01 0.10150361D-01 0.15983935D+05 0.15983935D+05 0.15983935D+05 0.12446892D+01  1  2 11  8  6  5       21 0.331821493425D-03 0.100000000000D+01
  </mgrwgt>
  </event>
  <event>
  5     66 0.39191994E-03 0.24076494E+02 0.75467711E-02 0.12278783E+00
       -2 -1    0    0    0  501 0.00000000E+00 0.00000000E+00 0.38266548E+02 0.38267886E+02 0.32000000E+00 0.0000E+00 0.9000E+01
        1 -1    0    0  502    0 -.00000000E+00 -.00000000E+00 -.45695193E+03 0.45695204E+03 0.32000000E+00 0.0000E+00 0.9000E+01
       25  1    1    2    0    0 -.38967019E+02 -.15123043E+02 -.22139717E+03 0.25766032E+03 0.12500000E+03 0.0000E+00 0.9000E+01
      -24  1    1    2    0    0 0.62947766E+02 0.13059454E+02 -.18179554E+03 0.20892536E+03 0.80419002E+02 0.0000E+00 0.9000E+01
       21  1    1    2  502  501 -.23980747E+02 0.20635892E+01 -.15492666E+02 0.28634243E+02 0.75000000E+00 0.0000E+00 0.9000E+01
#aMCatNLO 1  0  0  5  2 0.24378375D+01 0.00000000D+00  -5  6  0 0.00000000D+00 0.00000000D+00 0.00000000D+00 0.00000000D+00 0.00000000D+00
  <mgrwgt>
 0.1435139599D+00   14    2    0
 0.132235894844935D+03 0.000000000000000D+00 0.000000000000000D+00 0.132235894844935D+03
 0.132235894844935D+03 -.000000000000000D+00 -.000000000000000D+00 -.132235894844935D+03
 0.131970610286743D+03 -.389630403054599D+02 -.151233858275526D+02 -.666383303523296D+01
 0.103411448076330D+03 0.629508843242293D+02 0.130591859261093D+02 -.966206316568901D+01
 0.290897313267966D+02 -.239878440187695D+02 0.206419990144330D+01 0.163258962009220D+02
 0.000000000000000D+00 0.000000000000000D+00 -.000000000000000D+00 0.000000000000000D+00
 0.132235894844935D+03 0.000000000000000D+00 0.000000000000000D+00 0.132235894844935D+03
 0.132235894844935D+03 -.000000000000000D+00 -.000000000000000D+00 -.132235894844935D+03
 0.132600658457899D+03 -.413523396235348D+02 -.149177820470282D+02 -.503769887205832D+01
 0.102200635786712D+03 0.610940356418575D+02 0.132189713100791D+02 -.839830979020842D+01
 0.263330030973209D+02 -.215093047790341D+02 0.429163242074733D+01 0.145725341382797D+02
 0.333749234793801D+01 0.176760876071145D+01 -.259282168379826D+01 -.113652547601294D+01
0.102499823981D-03 0.000000000000D+00 0.000000000000D+00 0.411714320058D-04 0.000000000000D+00  6 -2 1 25 -24 21 21 2 0.58872728D-02 0.70300408D-01 0.16749256D+05 0.16749256D+05 0.16749256D+05 0.12423981D+01  1  2  2  3  6  5       21 0.102986968295D+00 0.100000000000D+01
0.156928062746D-04 0.540906431715D-05 -.393626312912D-06 0.411714320058D-04 0.000000000000D+00  6 -2 1 25 -24 21 21 4 0.58872728D-02 0.70300408D-01 0.16749256D+05 0.16749256D+05 0.16749256D+05 0.12423981D+01  1  2  3  3  6  5       21 0.243378005552D-01 0.100000000000D+01
0.260928662555D-05 0.000000000000D+00 0.000000000000D+00 0.411714320058D-04 0.000000000000D+00  6 -2 1 25 -24 21 21 4 0.58872728D-02 0.70300408D-01 0.16749256D+05 0.16749256D+05 0.16749256D+05 0.12423981D+01  1  2 15  3  6  5       21 0.404671391289D-02 0.100000000000D+01
0.146502597128D-06 0.000000000000D+00 0.000000000000D+00 0.411566110865D-04 0.000000000000D+00  6 -2 1 25 -24 21 21 4 0.58872728D-02 0.70300408D-01 0.16826137D+05 0.16826137D+05 0.16826137D+05 0.12421745D+01  1  2 12  3  6  5       21 0.227078892013D-03 0.100000000000D+01
-.128371033248D-03 0.000000000000D+00 0.000000000000D+00 0.411714320058D-04 0.000000000000D+00  6 -2 1 25 -24 21 21 4 0.58872728D-02 0.70300408D-01 0.16749256D+05 0.16749256D+05 0.16749256D+05 0.12423981D+01  1  2  4  3  6  5       21 -.199089222767D+00 0.100000000000D+01
0.131008589675D-03 0.000000000000D+00 0.000000000000D+00 0.411714320058D-04 0.135413247921D-04  6 -2 1 25 -24 21 21 4 0.58872728D-02 0.70300408D-01 0.16826137D+05 0.16826137D+05 0.16826137D+05 0.12421745D+01  1  2 11  3  6  5       21 0.203063194583D+00 0.100000000000D+01
0.376325791427D-08 0.000000000000D+00 0.000000000000D+00 0.411566110865D-04 0.000000000000D+00  6 -2 1 25 -24 1 -1 4 0.58872728D-02 0.70300408D-01 0.16826137D+05 0.16826137D+05 0.16826137D+05 0.12421745D+01  1  2 12  6  6  5       21 0.583304633692D-05 0.100000000000D+01
0.129251704128D-05 0.000000000000D+00 0.000000000000D+00 0.411566110865D-04 0.170714600853D-06  6 -2 1 25 -24 1 -1 4 0.58872728D-02 0.70300408D-01 0.16826137D+05 0.16826137D+05 0.16826137D+05 0.12421745D+01  1  2 11  6  6  5       21 0.200340023587D-02 0.100000000000D+01
0.376325791427D-08 0.000000000000D+00 0.000000000000D+00 0.411566110865D-04 0.000000000000D+00  6 -2 1 25 -24 2 -2 4 0.58872728D-02 0.70300408D-01 0.16826137D+05 0.16826137D+05 0.16826137D+05 0.12421745D+01  1  2 12  7  6  5       21 0.583304633692D-05 0.100000000000D+01
0.122736072079D-05 0.000000000000D+00 0.000000000000D+00 0.411566110865D-04 0.182678656497D-06  6 -2 1 25 -24 2 -2 4 0.58872728D-02 0.70300408D-01 0.16826137D+05 0.16826137D+05 0.16826137D+05 0.12421745D+01  1  2 11  7  6  5       21 0.190240799849D-02 0.100000000000D+01
0.376325791427D-08 0.000000000000D+00 0.000000000000D+00 0.411566110865D-04 0.000000000000D+00  6 -2 1 25 -24 3 -3 4 0.58872728D-02 0.70300408D-01 0.16826137D+05 0.16826137D+05 0.16826137D+05 0.12421745D+01  1  2 12  8  6  5       21 0.583304633692D-05 0.100000000000D+01
0.376325791427D-08 0.000000000000D+00 0.000000000000D+00 0.411566110865D-04 0.000000000000D+00  6 -2 1 25 -24 4 -4 4 0.58872728D-02 0.70300408D-01 0.16826137D+05 0.16826137D+05 0.16826137D+05 0.12421745D+01  1  2 12  8  6  5       21 0.583304633692D-05 0.100000000000D+01
0.129428656711D-05 0.000000000000D+00 0.000000000000D+00 0.411566110865D-04 0.170134245582D-06  6 -2 1 25 -24 3 -3 4 0.58872728D-02 0.70300408D-01 0.16826137D+05 0.16826137D+05 0.16826137D+05 0.12421745D+01  1  2 11  8  6  5       21 0.200614299928D-02 0.100000000000D+01
0.129428656711D-05 0.000000000000D+00 0.000000000000D+00 0.411566110865D-04 0.170134245582D-06  6 -2 1 25 -24 4 -4 4 0.58872728D-02 0.70300408D-01 0.16826137D+05 0.16826137D+05 0.16826137D+05 0.12421745D+01  1  2 11  8  6  5       21 0.200614299928D-02 0.100000000000D+01
  </mgrwgt>
  </event>
  <event>
  5     66 0.39191994E-03 0.32140321E+02 0.75467711E-02 0.11131699E+00
       -2 -1    0    0    0  501 0.00000000E+00 0.00000000E+00 0.22332110E+02 0.22334402E+02 0.32000000E+00 0.0000E+00 0.9000E+01
        1 -1    0    0  502    0 0.00000000E+00 0.00000000E+00 -.16130215E+04 0.16130215E+04 0.32000000E+00 0.0000E+00 0.9000E+01
       25  1    1    2    0    0 -.98285743E+02 0.85349948E+02 -.59359098E+03 0.62041917E+03 0.12500000E+03 0.0000E+00 0.9000E+01
      -24  1    1    2    0    0 0.88687441E+02 -.54678350E+02 -.50765463E+03 0.52443838E+03 0.80419002E+02 0.0000E+00 0.9000E+01
       21  1    1    2  502  501 0.95983025E+01 -.30671598E+02 -.48944376E+03 0.49049835E+03 0.75000000E+00 0.0000E+00 0.9000E+01
#aMCatNLO 1  0  0  2  5 0.21751207D+02 0.00000000D+00  -5  6  0 0.00000000D+00 0.00000000D+00 0.00000000D+00 0.00000000D+00 0.00000000D+00
  <mgrwgt>
 0.2166037538D+00    7    4    0
 0.189800086418490D+03 0.000000000000000D+00 0.000000000000000D+00 0.189800086418490D+03
 0.189800086418490D+03 0.000000000000000D+00 0.000000000000000D+00 -.189800086418490D+03
 0.185425965965021D+03 -.982860849034133D+02 0.853510397995279D+02 0.425773927520189D+02
 0.132040122111771D+03 0.886871975184279D+02 -.546775724512588D+02 0.105982055125153D+02
 0.621340847601870D+02 0.959888738498540D+01 -.306734673482691D+02 -.531755982645342D+02
 0.000000000000000D+00 -.000000000000000D+00 0.000000000000000D+00 -.000000000000000D+00
 0.257118974379998D+03 0.000000000000000D+00 0.000000000000000D+00 0.257118974379998D+03
 0.272049314086231D+03 0.000000000000000D+00 0.000000000000000D+00 -.272049314086231D+03
 0.155464824050918D+03 -.742185914586375D+02 0.349725295842173D+02 0.425773927520189D+02
 0.168793977754467D+03 0.109926617703870D+03 -.991363088475000D+02 0.105982055125153D+02
 0.762682733534768D+02 0.193703389589231D+02 -.511272455560238D+02 -.531755982645342D+02
 0.128641213307368D+03 -.550783652041553D+02 0.115291024819306D+03 -.149303397062331D+02
 0.189800086418490D+03 0.000000000000000D+00 0.000000000000000D+00 0.189800086418490D+03
 0.189800086418490D+03 0.000000000000000D+00 0.000000000000000D+00 -.189800086418490D+03
 0.185425965965021D+03 -.982860849034133D+02 0.853510397995279D+02 0.425773927520189D+02
 0.132040122111771D+03 0.886871975184279D+02 -.546775724512588D+02 0.105982055125153D+02
 0.000000000000000D+00 -.000000000000000D+00 0.000000000000000D+00 -.000000000000000D+00
 0.621340847601870D+02 0.959888738498540D+01 -.306734673482691D+02 -.531755982645342D+02
 0.257118974379998D+03 0.000000000000000D+00 0.000000000000000D+00 0.257118974379998D+03
 0.272049314086231D+03 0.000000000000000D+00 0.000000000000000D+00 -.272049314086231D+03
 0.155464824050918D+03 -.742185914586375D+02 0.349725295842173D+02 0.425773927520189D+02
 0.168793977754467D+03 0.109926617703870D+03 -.991363088475000D+02 0.105982055125153D+02
 0.128641213307368D+03 -.550783652041553D+02 0.115291024819306D+03 -.149303397062331D+02
 0.762682733534768D+02 0.193703389589231D+02 -.511272455560238D+02 -.531755982645342D+02
0.333972739685D-03 0.000000000000D+00 0.000000000000D+00 0.190802057837D-04 0.000000000000D+00  6 -2 1 25 -24 21 21 2 0.34358880D-02 0.24815733D+00 0.29622868D+05 0.29622868D+05 0.29622868D+05 0.12154755D+01  1  2  2  2  6  2        1 0.904283133854D-01 0.100000000000D+01
0.395597822008D-04 0.176242256715D-04 -.128254325743D-05 0.190802057837D-04 0.000000000000D+00  6 -2 1 25 -24 21 21 4 0.34358880D-02 0.24815733D+00 0.29622868D+05 0.29622868D+05 0.29622868D+05 0.12154755D+01  1  2  3  2  6  2        1 0.158248531419D-01 0.100000000000D+01
0.729759258964D-05 0.000000000000D+00 0.000000000000D+00 0.190802057837D-04 0.000000000000D+00  6 -2 1 25 -24 21 21 4 0.34358880D-02 0.24815733D+00 0.29622868D+05 0.29622868D+05 0.29622868D+05 0.12154755D+01  1  2 15  2  6  2        1 0.291921048590D-02 0.100000000000D+01
-.499880670368D-04 0.000000000000D+00 0.000000000000D+00 0.190802057837D-04 0.000000000000D+00  6 -2 1 25 -24 21 21 4 0.34358880D-02 0.24815733D+00 0.29622868D+05 0.29622868D+05 0.29622868D+05 0.12154755D+01  1  2  4  2  6  2        1 -.199964149370D-01 0.100000000000D+01
-.305214041346D-03 0.000000000000D+00 -.208347586162D-03 0.190802057837D-04 0.000000000000D+00  6 -2 1 25 -24 21 21 4 0.34358880D-02 0.40871144D+00 0.29622868D+05 0.29622868D+05 0.29622868D+05 0.12154755D+01  1  2  5  2  6  2        1 -.257730532188D-01 0.100000000000D+01
0.383877247724D-03 0.000000000000D+00 0.184856472283D-03 0.190802057837D-04 0.000000000000D+00  6 -2 1 25 -24 21 21 4 0.34358880D-02 0.24815733D+00 0.29622868D+05 0.29622868D+05 0.29622868D+05 0.12154755D+01  1  2  6  2  6  2        1 0.153560023130D+00 0.100000000000D+01
-.780497639437D-05 0.000000000000D+00 -.117275612121D-04 0.190802057837D-04 0.000000000000D+00  6 -2 21 25 -24 -1 21 4 0.34358880D-02 0.40871144D+00 0.29622868D+05 0.29622868D+05 0.29622868D+05 0.12154755D+01  3  4  5  5  5  2        1 -.359178207072D-03 0.100000000000D+01
  </mgrwgt>
  </event>
  <event>
  5     66 0.39191994E-03 0.10970889E+03 0.75467711E-02 0.11131148E+00
       -2 -1    0    0    0  501 0.00000000E+00 0.00000000E+00 0.39870663E+03 0.39870676E+03 0.32000000E+00 0.0000E+00 0.9000E+01
        1 -1    0    0  502    0 0.00000000E+00 0.00000000E+00 -.16136669E+03 0.16136701E+03 0.32000000E+00 0.0000E+00 0.9000E+01
       25  1    1    2    0    0 -.74846500E+02 0.18320922E+03 0.12688755E+03 0.26625753E+03 0.12500000E+03 0.0000E+00 0.9000E+01
      -24  1    1    2    0    0 -.24373145E+02 -.12571193E+03 0.31141699E+02 0.15438446E+03 0.80419002E+02 0.0000E+00 0.9000E+01
       21  1    1    2  502  501 0.99219645E+02 -.57497297E+02 0.79310684E+02 0.13943179E+03 0.75000000E+00 0.0000E+00 0.9000E+01
#aMCatNLO 1  0  0  5  2 0.37149100D+02 0.00000000D+00  -5  6  0 0.00000000D+00 0.00000000D+00 0.00000000D+00 0.00000000D+00 0.00000000D+00
  <mgrwgt>
 0.4150745401D-01   20    2    0
 0.253649553839481D+03 0.000000000000000D+00 0.000000000000000D+00 0.253649553839481D+03
 0.253649553839481D+03 -.000000000000000D+00 -.000000000000000D+00 -.253649553839481D+03
 0.234592834634502D+03 -.748474452991715D+02 0.183209772837512D+03 0.155189281480913D+02
 0.155875366102676D+03 -.243737728803892D+02 -.125711563574453D+03 -.378475333742400D+02
 0.116830906941783D+03 0.992212181795606D+02 -.574982092630586D+02 0.223286052261486D+02
 0.000000000000000D+00 0.000000000000000D+00 0.000000000000000D+00 0.000000000000000D+00
 0.253649553839481D+03 0.000000000000000D+00 0.000000000000000D+00 0.253649553839481D+03
 0.253649553839481D+03 -.000000000000000D+00 -.000000000000000D+00 -.253649553839481D+03
 0.225785452202039D+03 -.628667262402650D+02 0.176267004907327D+03 0.182150525366027D+02
 0.158250035309935D+03 -.161990863428225D+02 -.130448754326801D+03 -.360079132617907D+02
 0.799108107298385D+02 0.409753627601138D+02 -.664998433874594D+02 0.168679621656118D+02
 0.433528094371493D+02 0.380904498229736D+02 0.206815928069336D+02 0.924898559576178D+00
0.367657269777D-03 0.000000000000D+00 0.000000000000D+00 0.133164443958D-05 0.000000000000D+00  6 -2 1 25 -24 21 21 2 0.61339516D-01 0.24825680D-01 0.62491768D+05 0.62491768D+05 0.62491768D+05 0.11828073D+01  1  2  2  3  6  5       21 0.220877008719D-01 0.100000000000D+01
-.138880492533D-04 0.194018071607D-04 -.141190072233D-05 0.133164443958D-05 0.000000000000D+00  6 -2 1 25 -24 21 21 4 0.61339516D-01 0.24825680D-01 0.62491768D+05 0.62491768D+05 0.62491768D+05 0.11828073D+01  1  2  3  3  6  5       21 -.116728420199D-02 0.100000000000D+01
0.917829260743D-05 0.000000000000D+00 0.000000000000D+00 0.133164443958D-05 0.000000000000D+00  6 -2 1 25 -24 21 21 4 0.61339516D-01 0.24825680D-01 0.62491768D+05 0.62491768D+05 0.62491768D+05 0.11828073D+01  1  2 15  3  6  5       21 0.771431305178D-03 0.100000000000D+01
0.151730566999D-03 0.000000000000D+00 0.000000000000D+00 0.133140475510D-05 0.000000000000D+00  6 -2 1 25 -24 21 21 4 0.61339516D-01 0.24825680D-01 0.62650515D+05 0.62650515D+05 0.62650515D+05 0.11827009D+01  1  2 12  3  6  5       21 0.127483682772D-01 0.100000000000D+01
0.164470773720D-03 0.000000000000D+00 0.000000000000D+00 0.133140475510D-05 0.000000000000D+00  6 -2 1 25 -24 21 21 4 0.61339516D-01 0.24825680D-01 0.62650515D+05 0.62650515D+05 0.62650515D+05 0.11827009D+01  1  2 12  3  6  5       21 0.138187975942D-01 0.100000000000D+01
-.198823730197D-03 0.000000000000D+00 0.000000000000D+00 0.133164443958D-05 0.000000000000D+00  6 -2 1 25 -24 21 21 4 0.61339516D-01 0.24825680D-01 0.62491768D+05 0.62491768D+05 0.62491768D+05 0.11828073D+01  1  2  4  3  6  5       21 -.167110437907D-01 0.100000000000D+01
-.211399614474D-03 0.000000000000D+00 0.000000000000D+00 0.133164443958D-05 0.000000000000D+00  6 -2 1 25 -24 21 21 4 0.61339516D-01 0.24825680D-01 0.62491768D+05 0.62491768D+05 0.62491768D+05 0.11828073D+01  1  2  5  3  6  5       21 -.177680411252D-01 0.100000000000D+01
0.342540852800D-03 0.000000000000D+00 -.000000000000D+00 0.133164443958D-05 0.000000000000D+00  6 -2 1 25 -24 21 21 4 0.61339516D-01 0.24825680D-01 0.62491768D+05 0.62491768D+05 0.62491768D+05 0.11828073D+01  1  2  6  3  6  5       21 0.287904023607D-01 0.100000000000D+01
0.331682193551D-05 0.000000000000D+00 0.000000000000D+00 0.133140475510D-05 0.000000000000D+00  6 -2 1 25 -24 1 -1 4 0.61339516D-01 0.24825680D-01 0.62650515D+05 0.62650515D+05 0.62650515D+05 0.11827009D+01  1  2 12  6  6  5       21 0.278678636612D-03 0.100000000000D+01
0.355282317844D-05 0.000000000000D+00 0.000000000000D+00 0.133140475510D-05 0.000000000000D+00  6 -2 1 25 -24 1 -1 4 0.61339516D-01 0.24825680D-01 0.62650515D+05 0.62650515D+05 0.62650515D+05 0.11827009D+01  1  2 12  6  6  5       21 0.298507408219D-03 0.100000000000D+01
-.100286727193D-04 0.000000000000D+00 0.000000000000D+00 0.133164443958D-05 0.000000000000D+00  6 -2 1 25 -24 1 -1 4 0.61339516D-01 0.24825680D-01 0.62491768D+05 0.62491768D+05 0.62491768D+05 0.11828073D+01  1  2  5  6  6  5       21 -.842905365513D-03 0.100000000000D+01
0.331682193551D-05 0.000000000000D+00 0.000000000000D+00 0.133140475510D-05 0.000000000000D+00  6 -2 1 25 -24 2 -2 4 0.61339516D-01 0.24825680D-01 0.62650515D+05 0.62650515D+05 0.62650515D+05 0.11827009D+01  1  2 12  7  6  5       21 0.278678636612D-03 0.100000000000D+01
0.355282317844D-05 0.000000000000D+00 0.000000000000D+00 0.133140475510D-05 0.000000000000D+00  6 -2 1 25 -24 2 -2 4 0.61339516D-01 0.24825680D-01 0.62650515D+05 0.62650515D+05 0.62650515D+05 0.11827009D+01  1  2 12  7  6  5       21 0.298507408219D-03 0.100000000000D+01
-.100286727193D-04 0.000000000000D+00 0.000000000000D+00 0.133164443958D-05 0.000000000000D+00  6 -2 1 25 -24 2 -2 4 0.61339516D-01 0.24825680D-01 0.62491768D+05 0.62491768D+05 0.62491768D+05 0.11828073D+01  1  2  5  7  6  5       21 -.842905365513D-03 0.100000000000D+01
0.331682193551D-05 0.000000000000D+00 0.000000000000D+00 0.133140475510D-05 0.000000000000D+00  6 -2 1 25 -24 3 -3 4 0.61339516D-01 0.24825680D-01 0.62650515D+05 0.62650515D+05 0.62650515D+05 0.11827009D+01  1  2 12  8  6  5       21 0.278678636612D-03 0.100000000000D+01
0.331682193551D-05 0.000000000000D+00 0.000000000000D+00 0.133140475510D-05 0.000000000000D+00  6 -2 1 25 -24 4 -4 4 0.61339516D-01 0.24825680D-01 0.62650515D+05 0.62650515D+05 0.62650515D+05 0.11827009D+01  1  2 12  8  6  5       21 0.278678636612D-03 0.100000000000D+01
0.355282317844D-05 0.000000000000D+00 0.000000000000D+00 0.133140475510D-05 0.000000000000D+00  6 -2 1 25 -24 3 -3 4 0.61339516D-01 0.24825680D-01 0.62650515D+05 0.62650515D+05 0.62650515D+05 0.11827009D+01  1  2 12  8  6  5       21 0.298507408219D-03 0.100000000000D+01
0.355282317844D-05 0.000000000000D+00 0.000000000000D+00 0.133140475510D-05 0.000000000000D+00  6 -2 1 25 -24 4 -4 4 0.61339516D-01 0.24825680D-01 0.62650515D+05 0.62650515D+05 0.62650515D+05 0.11827009D+01  1  2 12  8  6  5       21 0.298507408219D-03 0.100000000000D+01
-.100286727193D-04 0.000000000000D+00 0.000000000000D+00 0.133164443958D-05 0.000000000000D+00  6 -2 1 25 -24 3 -3 4 0.61339516D-01 0.24825680D-01 0.62491768D+05 0.62491768D+05 0.62491768D+05 0.11828073D+01  1  2  5  8  6  5       21 -.842905365513D-03 0.100000000000D+01
-.100286727193D-04 0.000000000000D+00 0.000000000000D+00 0.133164443958D-05 0.000000000000D+00  6 -2 1 25 -24 4 -4 4 0.61339516D-01 0.24825680D-01 0.62491768D+05 0.62491768D+05 0.62491768D+05 0.11828073D+01  1  2  5  8  6  5       21 -.842905365513D-03 0.100000000000D+01
  </mgrwgt>
  </event>
  <event>
  5     66 0.39191994E-03 0.13294362E+03 0.75467711E-02 0.10347550E+00
       -2 -1    0    0    0  501 0.00000000E+00 0.00000000E+00 0.26464215E+03 0.26464235E+03 0.32000000E+00 0.0000E+00 0.9000E+01
        1 -1    0    0  502    0 0.00000000E+00 0.00000000E+00 -.86214484E+03 0.86214490E+03 0.32000000E+00 0.0000E+00 0.9000E+01
       25  1    1    2    0    0 0.10973271E+03 -.22918971E+03 -.10518573E+03 0.30208977E+03 0.12500000E+03 0.0000E+00 0.9000E+01
      -24  1    1    2    0    0 -.10494690E+03 -.13086887E+03 0.31871700E+02 0.18874198E+03 0.80419002E+02 0.0000E+00 0.9000E+01
       21  1    1    2  502  501 -.47858155E+01 0.36005858E+03 -.52418866E+03 0.63595550E+03 0.75000000E+00 0.0000E+00 0.9000E+01
#aMCatNLO 1  0  0  1  5 0.25042346D+02 0.00000000D+00  -5  6  0 0.00000000D+00 0.00000000D+00 0.00000000D+00 0.00000000D+00 0.00000000D+00
  <mgrwgt>
 0.2102585924D-01    9    4    0
 0.477660976701723D+03 0.000000000000000D+00 0.000000000000000D+00 0.477660976701723D+03
 0.477660976701723D+03 0.000000000000000D+00 0.000000000000000D+00 -.477660976701723D+03
 0.290522264399629D+03 0.109732715928609D+03 -.229189882120001D+03 0.648761520178180D+02
 0.242552372366420D+03 -.104946896265271D+03 -.130869013870265D+03 0.155640250446722D+03
 0.422247316637398D+03 -.478581966333803D+01 0.360058895990267D+03 -.220516402464540D+03
 0.000000000000000D+00 -.000000000000000D+00 -.000000000000000D+00 0.000000000000000D+00
 0.517694861713033D+03 0.000000000000000D+00 0.000000000000000D+00 0.517694861713033D+03
 0.481757354181500D+03 0.000000000000000D+00 0.000000000000000D+00 -.481757354181500D+03
 0.288950661216243D+03 0.115539885324166D+03 -.224296911293810D+03 0.648761520178180D+02
 0.238321436584842D+03 -.100127834764686D+03 -.126808597215290D+03 0.155640250446722D+03
 0.428378023177319D+03 0.373869498108257D+01 0.367241431683904D+03 -.220516402464540D+03
 0.438020949161291D+02 -.191507455405634D+02 -.161359231748038D+02 0.359375075315332D+02
 0.477660976701723D+03 0.000000000000000D+00 0.000000000000000D+00 0.477660976701723D+03
 0.477660976701723D+03 0.000000000000000D+00 0.000000000000000D+00 -.477660976701723D+03
 0.290522264399629D+03 0.109732715928609D+03 -.229189882120001D+03 0.648761520178180D+02
 0.242552372366420D+03 -.104946896265271D+03 -.130869013870265D+03 0.155640250446722D+03
 0.000000000000000D+00 -.000000000000000D+00 -.000000000000000D+00 0.000000000000000D+00
 0.422247316637398D+03 -.478581966333803D+01 0.360058895990267D+03 -.220516402464540D+03
 0.517694861713033D+03 0.000000000000000D+00 0.000000000000000D+00 0.517694861713033D+03
 0.481757354181500D+03 0.000000000000000D+00 0.000000000000000D+00 -.481757354181500D+03
 0.288950661216243D+03 0.115539885324166D+03 -.224296911293810D+03 0.648761520178180D+02
 0.238321436584842D+03 -.100127834764686D+03 -.126808597215290D+03 0.155640250446722D+03
 0.438020949161291D+02 -.191507455405634D+02 -.161359231748038D+02 0.359375075315332D+02
 0.428378023177319D+03 0.373869498108257D+01 0.367241431683904D+03 -.220516402464540D+03
0.311461694427D-03 0.000000000000D+00 0.000000000000D+00 0.378576521631D-06 0.000000000000D+00  6 -2 1 25 -24 21 21 2 0.40714197D-01 0.13263769D+00 0.17193805D+06 0.17193805D+06 0.17193805D+06 0.11425498D+01  1  2  2  1  6  1       -2 0.417490213678D-02 0.100000000000D+01
-.339358222883D-04 0.164362851764D-04 -.119609491635D-05 0.378576521631D-06 0.000000000000D+00  6 -2 1 25 -24 21 21 4 0.40714197D-01 0.13263769D+00 0.17193805D+06 0.17193805D+06 0.17193805D+06 0.11425498D+01  1  2  3  1  6  1       -2 -.593813886489D-03 0.100000000000D+01
0.914037142971D-05 0.000000000000D+00 0.000000000000D+00 0.378576521631D-06 0.000000000000D+00  6 -2 1 25 -24 21 21 4 0.40714197D-01 0.13263769D+00 0.17193805D+06 0.17193805D+06 0.17193805D+06 0.11425498D+01  1  2 15  1  6  1       -2 0.159939530462D-03 0.100000000000D+01
0.441796766180D-02 0.000000000000D+00 0.000000000000D+00 0.377094990167D-06 0.000000000000D+00  6 -2 1 25 -24 21 21 4 0.44379721D-01 0.13263769D+00 0.18248135D+06 0.18248135D+06 0.18248135D+06 0.11403120D+01  1  2 12  1  6  1       -2 0.647093669638D-01 0.100000000000D+01
-.351866731095D-02 0.000000000000D+00 0.000000000000D+00 0.378576521631D-06 0.000000000000D+00  6 -2 1 25 -24 21 21 4 0.40714197D-01 0.13263769D+00 0.17193805D+06 0.17193805D+06 0.17193805D+06 0.11425498D+01  1  2  4  1  6  1       -2 -.615701453593D-01 0.100000000000D+01
-.781985541957D-02 0.000000000000D+00 -.856254538503D-03 0.378576521631D-06 0.000000000000D+00  6 -2 1 25 -24 21 21 4 0.44392389D-01 0.13263769D+00 0.17193805D+06 0.17193805D+06 0.17193805D+06 0.11425498D+01  1  2  5  1  6  1       -2 -.115555964355D+00 0.100000000000D+01
0.786766039035D-02 0.000000000000D+00 0.853061787635D-03 0.378576521631D-06 0.000000000000D+00  6 -2 1 25 -24 21 21 4 0.40714197D-01 0.13263769D+00 0.17193805D+06 0.17193805D+06 0.17193805D+06 0.11425498D+01  1  2  6  1  6  1       -2 0.137669450125D+00 0.100000000000D+01
0.649515157650D-04 0.000000000000D+00 0.000000000000D+00 0.377094990167D-06 0.000000000000D+00  6 21 1 25 -24 2 21 4 0.44379721D-01 0.13263769D+00 0.18248135D+06 0.18248135D+06 0.18248135D+06 0.11403120D+01  3  4 12  4  5  1       -2 0.112611304399D-01 0.100000000000D+01
-.109760090852D-03 0.000000000000D+00 -.122539251172D-04 0.378576521631D-06 0.000000000000D+00  6 21 1 25 -24 2 21 4 0.44392389D-01 0.13263769D+00 0.17193805D+06 0.17193805D+06 0.17193805D+06 0.11425498D+01  3  4  5  4  5  1       -2 -.192290063561D-01 0.100000000000D+01
  </mgrwgt>
  </event>
  <event>
  5     66 -.39191994E-03 0.22589655E+02 0.75467711E-02 0.12357936E+00
       -2 -1    0    0    0  501 0.00000000E+00 0.00000000E+00 0.32522733E+02 0.32524307E+02 0.32000000E+00 0.0000E+00 0.9000E+01
        1 -1    0    0  502    0 -.00000000E+00 -.00000000E+00 -.63232209E+03 0.63232217E+03 0.32000000E+00 0.0000E+00 0.9000E+01
       25  1    1    2    0    0 -.87187051E+00 0.32316384E+02 -.22549055E+03 0.25983859E+03 0.12500000E+03 0.0000E+00 0.9000E+01
      -24  1    1    2    0    0 0.25209277E+01 -.54844029E+02 -.14544286E+03 0.17502875E+03 0.80419002E+02 0.0000E+00 0.9000E+01
       21  1    1    2  502  501 -.16490572E+01 0.22527645E+02 -.22886595E+03 0.22997913E+03 0.75000000E+00 0.0000E+00 0.9000E+01
#aMCatNLO 1  0  0  5  1 0.34475814D+01 0.00000000D+00  -5  6  0 0.00000000D+00 0.00000000D+00 0.00000000D+00 0.00000000D+00 0.00000000D+00
  <mgrwgt>
 -.1288700294D+00    9    2    0
 0.143406388832887D+03 0.000000000000000D+00 0.000000000000000D+00 0.143406388832887D+03
 0.143406388832887D+03 -.000000000000000D+00 -.000000000000000D+00 -.143406388832887D+03
 0.130760275094407D+03 -.871799271595317D+00 0.323154108732106D+02 0.206930840835950D+02
 0.101567890214657D+03 0.252098304956217D+01 -.548447852423954D+02 0.288879653915866D+02
 0.544846123567086D+02 -.164918377796685D+01 0.225293743691848D+02 -.495810494751817D+02
 0.000000000000000D+00 0.000000000000000D+00 0.000000000000000D+00 0.000000000000000D+00
 0.143406388832887D+03 0.000000000000000D+00 0.000000000000000D+00 0.143406388832887D+03
 0.143406388832887D+03 -.000000000000000D+00 -.000000000000000D+00 -.143406388832887D+03
 0.130663557168287D+03 -.973533314156462D+00 0.337051919040283D+02 0.176345525451919D+02
 0.100340220107619D+03 0.244240976834607D+01 -.537714016137284D+02 0.265257388189935D+02
 0.513968720514674D+02 -.378873934318071D+01 0.187888444418048D+02 -.476892360539147D+02
 0.441212833839994D+01 0.231986288899111D+01 0.127736526789530D+01 0.352894468972927D+01
0.182653077282D-03 0.000000000000D+00 0.000000000000D+00 0.523674496958D-04 0.000000000000D+00  6 -2 1 25 -24 21 21 2 0.50036246D-02 0.97280448D-01 0.15509625D+05 0.15509625D+05 0.15509625D+05 0.12461718D+01  1  2  2  3  6  5       21 0.153080465520D+00 0.100000000000D+01
0.226450122631D-04 0.963886770109D-05 -.701435910421D-06 0.523674496958D-04 0.000000000000D+00  6 -2 1 25 -24 21 21 4 0.50036246D-02 0.97280448D-01 0.15509625D+05 0.15509625D+05 0.15509625D+05 0.12461718D+01  1  2  3  3  6  5       21 0.294727833081D-01 0.100000000000D+01
0.620467870173D-05 0.000000000000D+00 0.000000000000D+00 0.523674496958D-04 0.000000000000D+00  6 -2 1 25 -24 21 21 4 0.50036246D-02 0.97280448D-01 0.15509625D+05 0.15509625D+05 0.15509625D+05 0.12461718D+01  1  2 15  3  6  5       21 0.807547148785D-02 0.100000000000D+01
0.427923083402D-05 0.000000000000D+00 0.000000000000D+00 0.524015265389D-04 0.000000000000D+00  6 -2 1 25 -24 21 21 4 0.50036246D-02 0.97280448D-01 0.15382696D+05 0.15382696D+05 0.15382696D+05 0.12465772D+01  1  2 12  3  6  5       21 0.557548278531D-02 0.100000000000D+01
-.250006312472D-03 0.000000000000D+00 0.000000000000D+00 0.523674496958D-04 0.000000000000D+00  6 -2 1 25 -24 21 21 4 0.50036246D-02 0.97280448D-01 0.15509625D+05 0.15509625D+05 0.15509625D+05 0.12461718D+01  1  2  4  3  6  5       21 -.325386526073D+00 0.100000000000D+01
0.599220014711D-07 0.000000000000D+00 0.000000000000D+00 0.524015265389D-04 0.000000000000D+00  6 -2 1 25 -24 1 -1 4 0.50036246D-02 0.97280448D-01 0.15382696D+05 0.15382696D+05 0.15382696D+05 0.12465772D+01  1  2 12  6  6  5       21 0.780733969776D-04 0.100000000000D+01
0.599220014711D-07 0.000000000000D+00 0.000000000000D+00 0.524015265389D-04 0.000000000000D+00  6 -2 1 25 -24 2 -2 4 0.50036246D-02 0.97280448D-01 0.15382696D+05 0.15382696D+05 0.15382696D+05 0.12465772D+01  1  2 12  7  6  5       21 0.780733969776D-04 0.100000000000D+01
0.599220014711D-07 0.000000000000D+00 0.000000000000D+00 0.524015265389D-04 0.000000000000D+00  6 -2 1 25 -24 3 -3 4 0.50036246D-02 0.97280448D-01 0.15382696D+05 0.15382696D+05 0.15382696D+05 0.12465772D+01  1  2 12  8  6  5       21 0.780733969776D-04 0.100000000000D+01
0.599220014711D-07 0.000000000000D+00 0.000000000000D+00 0.524015265389D-04 0.000000000000D+00  6 -2 1 25 -24 4 -4 4 0.50036246D-02 0.97280448D-01 0.15382696D+05 0.15382696D+05 0.15382696D+05 0.12465772D+01  1  2 12  8  6  5       21 0.780733969776D-04 0.100000000000D+01
  </mgrwgt>
  </event>
  <event>
  6     66 -.39191994E-03 0.44774287E+02 0.75467711E-02 0.11592203E+00
       -2 -1    0    0    0  501 0.00000000E+00 0.00000000E+00 0.30761928E+02 0.30763593E+02 0.32000000E+00 0.0000E+00 0.9000E+01
        1 -1    0    0  502    0 -.00000000E+00 -.00000000E+00 -.13356863E+04 0.13356863E+04 0.32000000E+00 0.0000E+00 0.9000E+01
       25  1    1    2    0    0 -.18383882E+02 0.59700072E+02 -.60538300E+03 0.62130158E+03 0.12500000E+03 0.0000E+00 0.9000E+01
      -24  1    1    2    0    0 0.50390834E+02 -.47143135E+02 -.17960702E+03 0.20853683E+03 0.80419002E+02 0.0000E+00 0.9000E+01
       21  1    1    2  503  501 -.65522765E+02 0.35132837E+02 -.28127106E+03 0.29093216E+03 0.75000000E+00 0.0000E+00 0.9000E+01
       21  1    1    2  502  503 0.33515813E+02 -.47689775E+02 -.23866324E+03 0.24567932E+03 0.75000000E+00 0.0000E+00 0.9000E+01
#aMCatNLO 2  0  0  5  1 0.60304094D+02 0.00000000D+00  -5  6  0 0.00000000D+00 0.00000000D+00 0.00000000D+00 0.00000000D+00 0.00000000D+00
  <mgrwgt>
 -.7590230983D-02    2    2    0
 0.202705322966060D+03 0.000000000000000D+00 0.000000000000000D+00 0.202705322966060D+03
 0.202705322966060D+03 -.000000000000000D+00 -.000000000000000D+00 -.202705322966060D+03
 0.145128942787684D+03 0.969982068335423D+01 0.707178442376864D+02 -.185016220844548D+02
 0.145438301589534D+03 0.764984248712954D+02 -.369006286890722D+02 0.864373658173344D+02
 0.114843401554903D+03 -.861982455546496D+02 -.338172155486143D+02 -.679357437328796D+02
 0.000000000000000D+00 0.000000000000000D+00 0.000000000000000D+00 0.000000000000000D+00
 0.202705322966060D+03 0.000000000000000D+00 0.000000000000000D+00 0.202705322966060D+03
 0.202705322966060D+03 -.000000000000000D+00 -.000000000000000D+00 -.202705322966060D+03
 0.145547944233883D+03 -.184929428187729D+02 0.596572854742475D+02 -.407212895971526D+02
 0.124703487357166D+03 0.502973613954408D+02 -.471798055500925D+02 0.657874242509941D+02
 0.748244909367695D+02 -.647474218559111D+02 0.359647861398362D+02 -.106306145107059D+02
 0.603347234043020D+02 0.329430032792433D+02 -.484422660639913D+02 -.144355201431356D+02
-.274888007670D-04 0.000000000000D+00 0.000000000000D+00 0.249862217976D-05 0.000000000000D+00  6 -2 1 25 -24 21 21 4 0.47327353D-02 0.20549032D+00 0.35781843D+05 0.35781843D+05 0.35781843D+05 0.12069462D+01  1  2 13  3  6  5       21 -.100747324343D-01 0.100000000000D+01
0.677893590178D-05 0.000000000000D+00 0.000000000000D+00 0.252397736074D-05 0.224133461344D-08  6 -2 1 25 -24 21 21 4 0.47327353D-02 0.20549032D+00 0.35781843D+05 0.35781843D+05 0.35781843D+05 0.12069462D+01  1  2  1  3  6  5       21 0.248450145128D-02 0.100000000000D+01
  </mgrwgt>
  </event>
  <event>
  5     66 -.39191994E-03 0.20285816E+02 0.75467711E-02 0.12463835E+00
       -2 -1    0    0    0  501 0.00000000E+00 0.00000000E+00 0.10527502E+04 0.10527502E+04 0.32000000E+00 0.0000E+00 0.9000E+01
        1 -1    0    0  502    0 0.00000000E+00 0.00000000E+00 -.15806024E+02 0.15809263E+02 0.32000000E+00 0.0000E+00 0.9000E+01
       25  1    1    2    0    0 -.20586186E+02 -.34684463E+02 0.50580161E+03 0.52257733E+03 0.12500000E+03 0.0000E+00 0.9000E+01
      -24  1    1    2    0    0 0.24598887E+01 0.25585450E+02 0.50896390E+03 0.51591873E+03 0.80419002E+02 0.0000E+00 0.9000E+01
       21  1    1    2  502  501 0.18126297E+02 0.90990124E+01 0.22178635E+02 0.30063417E+02 0.75000000E+00 0.0000E+00 0.9000E+01
#aMCatNLO 1  0  0  5  1 0.56349901D+00 0.00000000D+00  -5  6  0 0.00000000D+00 0.00000000D+00 0.00000000D+00 0.00000000D+00 0.00000000D+00
  <mgrwgt>
 -.1620038736D+01    4    2    0
 0.129002134888492D+03 0.000000000000000D+00 0.000000000000000D+00 0.129002134888492D+03
 0.129002134888492D+03 -.000000000000000D+00 -.000000000000000D+00 -.129002134888492D+03
 0.131459326681178D+03 -.205882625748457D+02 -.346855051693300D+02 -.544001348952910D+01
 0.911724195315034D+02 0.245844844109898D+01 0.255847273623831D+02 0.344176101133260D+02
 0.353725235643020D+02 0.181298141337467D+02 0.910077780694686D+01 -.289775966237968D+02
 0.000000000000000D+00 0.000000000000000D+00 0.000000000000000D+00 0.000000000000000D+00
 0.129002134888492D+03 0.000000000000000D+00 0.000000000000000D+00 0.129002134888492D+03
 0.129002134888492D+03 -.000000000000000D+00 -.000000000000000D+00 -.129002134888492D+03
 0.131375695922500D+03 -.202036082583969D+02 -.344924169533858D+02 -.605482164693375D+01
 0.910576767240651D+02 0.272513890121050D+01 0.257186002527946D+02 0.339913482377482D+02
 0.347301863342260D+02 0.173256440049373D+02 0.913413174751361D+01 -.286805777459817D+02
 0.840710796192414D+00 0.152825352249002D+00 -.360315046922377D+00 0.744051155167289D+00
0.139897387432D-02 0.000000000000D+00 0.000000000000D+00 0.616475147863D-04 0.000000000000D+00  6 -2 1 25 -24 21 21 2 0.16196182D+00 0.24319489D-02 0.13930970D+05 0.13930970D+05 0.13930970D+05 0.12514998D+01  1  2  2  3  6  5       21 0.218822473813D+00 0.100000000000D+01
0.195363861135D-03 0.738258795996D-04 -.537242803569D-05 0.616475147863D-04 0.000000000000D+00  6 -2 1 25 -24 21 21 4 0.16196182D+00 0.24319489D-02 0.13930970D+05 0.13930970D+05 0.13930970D+05 0.12514998D+01  1  2  3  3  6  5       21 0.478616994144D-01 0.100000000000D+01
0.666670952045D-04 0.000000000000D+00 0.000000000000D+00 0.616475147863D-04 0.000000000000D+00  6 -2 1 25 -24 21 21 4 0.16196182D+00 0.24319489D-02 0.13930970D+05 0.13930970D+05 0.13930970D+05 0.12514998D+01  1  2 15  3  6  5       21 0.163326034456D-01 0.100000000000D+01
-.776797057938D-02 0.000000000000D+00 0.000000000000D+00 0.616475147863D-04 0.000000000000D+00  6 -2 1 25 -24 21 21 4 0.16196182D+00 0.24319489D-02 0.13930970D+05 0.13930970D+05 0.13930970D+05 0.12514998D+01  1  2  4  3  6  5       21 -.190305551278D+01 0.100000000000D+01
  </mgrwgt>
  </event>
  <event>
  6     66 0.39191994E-03 0.17850277E+02 0.75467711E-02 0.11939503E+00
       21 -1    0    0  503  501 0.00000000E+00 0.00000000E+00 0.85682844E+02 0.85686126E+02 0.75000000E+00 0.0000E+00 0.9000E+01
        1 -1    0    0  502    0 0.00000000E+00 0.00000000E+00 -.19396663E+04 0.19396663E+04 0.32000000E+00 0.0000E+00 0.9000E+01
       25  1    1    2    0    0 -.18953451E+02 -.10327676E+03 -.22934127E+03 0.28150975E+03 0.12500000E+03 0.0000E+00 0.9000E+01
      -24  1    1    2    0    0 0.90587349E+01 0.69037670E+02 -.13437397E+04 0.13479436E+04 0.80419002E+02 0.0000E+00 0.9000E+01
        2  1    1    2  503    0 -.30009623E+01 0.25472073E+02 0.54446998E+02 0.60186463E+02 0.32000000E+00 0.0000E+00 0.9000E+01
       21  1    1    2  502  501 0.12895679E+02 0.87670155E+01 -.33534949E+03 0.33571268E+03 0.75000000E+00 0.0000E+00 0.9000E+01
#aMCatNLO 2  0  0  1  1 0.48986638D+01 0.00000000D+00  -5  6  0 0.00000000D+00 0.00000000D+00 0.00000000D+00 0.00000000D+00 0.00000000D+00
  <mgrwgt>
 0.1405704332D+01    1    2    0
 0.234047396549617D+03 0.000000000000000D+00 0.000000000000000D+00 0.234047396549617D+03
 0.234047396549617D+03 0.000000000000000D+00 0.000000000000000D+00 -.234047396549617D+03
 0.241316604745527D+03 -.205167964577811D+02 -.900165966667968D+02 0.184620630249022D+03
 0.184213539430469D+03 0.789055217557185D+01 0.789459434670104D+02 -.145508382410082D+03
 0.000000000000000D+00 -.000000000000000D+00 0.000000000000000D+00 0.000000000000000D+00
 0.425646489232388D+02 0.126262442822092D+02 0.110706531997864D+02 -.391122478389393D+02
 0.707997569548752D+03 0.000000000000000D+00 0.000000000000000D+00 0.707997569548752D+03
 0.234745719848626D+03 0.000000000000000D+00 0.000000000000000D+00 -.234745719848626D+03
 0.246445433435815D+03 -.189544436002867D+02 -.103277798270607D+03 0.184620630249022D+03
 0.180244485969536D+03 0.905794937512343D+01 0.690371129869329D+02 -.145508382410082D+03
 0.473946352984907D+03 -.300096226476177D+01 0.254720727187422D+02 0.473251849700126D+03
 0.421070170071213D+02 0.128974564899250D+02 0.876861256493174D+01 -.391122478389393D+02
0.291564835528D-02 0.000000000000D+00 0.000000000000D+00 0.264512070716D-04 0.896621520921D-07  6 21 1 25 -24 2 21 4 0.13182227D-01 0.29841039D+00 0.24159729D+05 0.24159729D+05 0.24159729D+05 0.12248927D+01  1  2  1  4  5  1       -2 0.140570433200D+01 0.100000000000D+01
  </mgrwgt>
  </event>
  <event>
  5     66 -.39191994E-03 0.21740355E+02 0.75467711E-02 0.12187314E+00
       -4 -1    0    0    0  501 0.00000000E+00 0.00000000E+00 0.18982680E+03 0.18983313E+03 0.15500000E+01 0.0000E+00 0.9000E+01
        3 -1    0    0  502    0 0.00000000E+00 0.00000000E+00 -.12055032E+03 0.12055135E+03 0.50000000E+00 0.0000E+00 0.9000E+01
       25  1    1    2    0    0 -.68924276E+02 -.10286079E+02 -.25956366E+02 0.14544790E+03 0.12500000E+03 0.0000E+00 0.9000E+01
      -24  1    1    2    0    0 0.70059337E+02 -.11413133E+02 0.94857930E+02 0.14319153E+03 0.80419002E+02 0.0000E+00 0.9000E+01
       21  1    1    2  502  501 -.11350611E+01 0.21699212E+02 0.37491793E+00 0.21745051E+02 0.75000000E+00 0.0000E+00 0.9000E+01
#aMCatNLO 1  0  0  2  5 0.48818336D+02 0.00000000D+00  -5  6  0 0.00000000D+00 0.00000000D+00 0.00000000D+00 0.00000000D+00 0.00000000D+00
  <mgrwgt>
 -.9661276810D-03    1    2    0
 0.151277306269585D+03 0.000000000000000D+00 0.000000000000000D+00 0.151277306269585D+03
 0.151277306269585D+03 0.000000000000000D+00 0.000000000000000D+00 -.151277306269585D+03
 0.155155005560018D+03 -.689239439477198D+02 -.102924225667854D+02 -.599302239168816D+02
 0.125178587275857D+03 0.700596045927478D+02 -.114182505844437D+02 0.645270339927970D+02
 0.222210197032944D+02 -.113566064502798D+01 0.217106731512290D+02 -.459681007591541D+01
 0.000000000000000D+00 -.000000000000000D+00 -.000000000000000D+00 -.000000000000000D+00
 0.155200814573598D+03 0.000000000000000D+00 0.000000000000000D+00 0.155200814573598D+03
 0.184003928944324D+03 0.000000000000000D+00 0.000000000000000D+00 -.184003928944324D+03
 0.151986698585108D+03 -.622932719527659D+02 -.169501548423122D+01 -.599302239168816D+02
 0.127880513075547D+03 0.755227242769943D+02 -.433470552265701D+01 0.645270339927970D+02
 0.234444844882243D+02 -.149819335652812D+00 0.229889265563057D+02 -.459681007591541D+01
 0.358930473690422D+02 -.130796329885756D+02 -.169592055494175D+02 -.288031143707252D+02
-.732752730253D-05 0.000000000000D+00 0.000000000000D+00 0.357543750495D-04 0.000000000000D+00  6 -4 3 25 -24 21 21 4 0.29204689D-01 0.18546769D-01 0.18512255D+05 0.18512255D+05 0.18512255D+05 0.12375391D+01  1  2 14  2  6  2        3 -.966127680979D-03 0.100000000000D+01
  </mgrwgt>
  </event>
  <event>
  5     66 0.39191994E-03 0.58542868E+02 0.75467711E-02 0.11901217E+00
       -2 -1    0    0    0  501 0.00000000E+00 0.00000000E+00 0.13103900E+02 0.13107806E+02 0.32000000E+00 0.0000E+00 0.9000E+01
        1 -1    0    0  502    0 -.00000000E+00 -.00000000E+00 -.20380372E+04 0.20380373E+04 0.32000000E+00 0.0000E+00 0.9000E+01
       25  1    1    2    0    0 -.56947127E+02 0.52740685E+02 -.69951491E+03 0.71482212E+03 0.12500000E+03 0.0000E+00 0.9000E+01
      -24  1    1    2    0    0 0.77650181E+02 0.20152314E+01 -.87865026E+03 0.88573534E+03 0.80419002E+02 0.0000E+00 0.9000E+01
       21  1    1    2  502  501 -.20703055E+02 -.54755916E+02 -.44676817E+03 0.45058761E+03 0.75000000E+00 0.0000E+00 0.9000E+01
#aMCatNLO 1  0  0  5  2 0.59729297D+02 0.00000000D+00  -5  6  0 0.00000000D+00 0.00000000D+00 0.00000000D+00 0.00000000D+00 0.00000000D+00
  <mgrwgt>
 0.4550415444D-02    1    2    0
 0.163432761994428D+03 0.000000000000000D+00 0.000000000000000D+00 0.163432761994428D+03
 0.163432761994428D+03 -.000000000000000D+00 -.000000000000000D+00 -.163432761994428D+03
 0.152151188871727D+03 -.569463684473925D+02 0.527426897850133D+02 0.387337587896621D+02
 0.114920647961640D+03 0.776507540073464D+02 0.201674591153926D+01 -.265675085691443D+02
 0.597936871554878D+02 -.207043855599539D+02 -.547594356965525D+02 -.121662502205179D+02
 0.000000000000000D+00 0.000000000000000D+00 0.000000000000000D+00 0.000000000000000D+00
 0.163432761994428D+03 0.000000000000000D+00 0.000000000000000D+00 0.163432761994428D+03
 0.163432761994428D+03 -.000000000000000D+00 -.000000000000000D+00 -.163432761994428D+03
 0.150483891530089D+03 -.596265409652780D+02 0.456541077923803D+02 0.371588436881090D+02
 0.113876984712223D+03 0.756244947698662D+02 -.334235117917353D+01 -.277581730698335D+02
 0.875267066885348D+01 0.463102516609043D+01 0.688225540784673D+01 -.279238433056938D+01
 0.537519770776902D+02 -.206289789706786D+02 -.491940120210535D+02 -.660828628770606D+01
0.949074089787D-05 0.000000000000D+00 0.000000000000D+00 0.610716425017D-05 0.000000000000D+00  6 -2 1 25 -24 21 21 4 0.20162870D-02 0.31354449D+00 0.25199768D+05 0.25199768D+05 0.25199768D+05 0.12229272D+01  1  2 14  3  6  5       21 0.455041544351D-02 0.100000000000D+01
  </mgrwgt>
  </event>
  <event>
  5     66 -.39191994E-03 0.25816607E+02 0.75467711E-02 0.12239848E+00
       -2 -1    0    0    0  501 0.00000000E+00 0.00000000E+00 0.15428065E+02 0.15431384E+02 0.32000000E+00 0.0000E+00 0.9000E+01
        1 -1    0    0  502    0 -.00000000E+00 -.00000000E+00 -.11540960E+04 0.11540960E+04 0.32000000E+00 0.0000E+00 0.9000E+01
       25  1    1    2    0    0 0.29921594E+02 0.66569090E+02 -.66714787E+03 0.68266978E+03 0.12500000E+03 0.0000E+00 0.9000E+01
      -24  1    1    2    0    0 -.26924364E+02 -.40936619E+02 -.33847666E+03 0.35133231E+03 0.80419002E+02 0.0000E+00 0.9000E+01
       21  1    1    2  502  501 -.29972302E+01 -.25632471E+02 -.13304335E+03 0.13552529E+03 0.75000000E+00 0.0000E+00 0.9000E+01
#aMCatNLO 1  0  0  5  1 0.41926607D+01 0.00000000D+00  -5  6  0 0.00000000D+00 0.00000000D+00 0.00000000D+00 0.00000000D+00 0.00000000D+00
  <mgrwgt>
 -.1046919976D+01   20    2    0
 0.133444498157373D+03 0.000000000000000D+00 0.000000000000000D+00 0.133444498157373D+03
 0.133444498157373D+03 -.000000000000000D+00 -.000000000000000D+00 -.133444498157373D+03
 0.145160924409568D+03 0.299222593691296D+02 0.665747795170643D+02 -.109156356636278D+02
 0.954697464333462D+02 -.269239262739051D+02 -.409328767758298D+02 0.157117256381643D+02
 0.262583254718327D+02 -.299833309522444D+01 -.256419027412345D+02 -.479608997453653D+01
 0.000000000000000D+00 0.000000000000000D+00 0.000000000000000D+00 -.000000000000000D+00
 0.133444498157373D+03 0.000000000000000D+00 0.000000000000000D+00 0.133444498157373D+03
 0.133444498157373D+03 -.000000000000000D+00 -.000000000000000D+00 -.133444498157373D+03
 0.144782539683505D+03 0.298273830076575D+02 0.657633918706473D+02 -.110673985103913D+02
 0.957015848526630D+02 -.269864820565882D+02 -.414678571280848D+02 0.156116623187641D+02
 0.171581246944881D+02 -.429586327785080D+01 -.166072364518485D+02 0.382752089490080D+00
 0.924674708409083D+01 0.145496232678149D+01 -.768829829071396D+01 -.492701589786290D+01
0.186127995867D-03 0.000000000000D+00 0.000000000000D+00 0.343251758497D-04 0.000000000000D+00  6 -2 1 25 -24 21 21 2 0.23738072D-02 0.17755348D+00 0.17521095D+05 0.17521095D+05 0.17521095D+05 0.12402035D+01  1  2  2  3  6  5       21 0.181301584290D+00 0.100000000000D+01
0.302456992165D-04 0.982224419282D-05 -.714780512756D-06 0.343251758497D-04 0.000000000000D+00  6 -2 1 25 -24 21 21 4 0.23738072D-02 0.17755348D+00 0.17521095D+05 0.17521095D+05 0.17521095D+05 0.12402035D+01  1  2  3  3  6  5       21 0.453147315730D-01 0.100000000000D+01
0.806374184673D-05 0.000000000000D+00 0.000000000000D+00 0.343251758497D-04 0.000000000000D+00  6 -2 1 25 -24 21 21 4 0.23738072D-02 0.17755348D+00 0.17521095D+05 0.17521095D+05 0.17521095D+05 0.12402035D+01  1  2 15  3  6  5       21 0.120812646665D-01 0.100000000000D+01
0.307035772455D-04 0.000000000000D+00 0.000000000000D+00 0.343450804603D-04 0.000000000000D+00  6 -2 1 25 -24 21 21 4 0.23738072D-02 0.17755348D+00 0.17391962D+05 0.17391962D+05 0.17391962D+05 0.12405630D+01  1  2 12  3  6  5       21 0.460465833111D-01 0.100000000000D+01
0.305255532738D-04 0.000000000000D+00 0.000000000000D+00 0.343450804603D-04 0.000000000000D+00  6 -2 1 25 -24 21 21 4 0.23738072D-02 0.17755348D+00 0.17391962D+05 0.17391962D+05 0.17391962D+05 0.12405630D+01  1  2 12  3  6  5       21 0.457795982761D-01 0.100000000000D+01
-.129657547247D-02 0.000000000000D+00 0.000000000000D+00 0.343251758497D-04 0.000000000000D+00  6 -2 1 25 -24 21 21 4 0.23738072D-02 0.17755348D+00 0.17521095D+05 0.17521095D+05 0.17521095D+05 0.12402035D+01  1  2  4  3  6  5       21 -.194255616571D+01 0.100000000000D+01
-.499868146647D-03 0.000000000000D+00 0.000000000000D+00 0.343251758497D-04 0.000000000000D+00  6 -2 1 25 -24 21 21 4 0.23738072D-02 0.17755348D+00 0.17521095D+05 0.17521095D+05 0.17521095D+05 0.12402035D+01  1  2  5  3  6  5       21 -.748912786743D+00 0.100000000000D+01
0.900128464861D-03 0.000000000000D+00 -.000000000000D+00 0.343251758497D-04 0.000000000000D+00  6 -2 1 25 -24 21 21 4 0.23738072D-02 0.17755348D+00 0.17521095D+05 0.17521095D+05 0.17521095D+05 0.12402035D+01  1  2  6  3  6  5       21 0.134859106660D+01 0.100000000000D+01
0.809543987796D-06 0.000000000000D+00 0.000000000000D+00 0.343450804603D-04 0.000000000000D+00  6 -2 1 25 -24 1 -1 4 0.23738072D-02 0.17755348D+00 0.17391962D+05 0.17391962D+05 0.17391962D+05 0.12405630D+01  1  2 12  6  6  5       21 0.121408441694D-02 0.100000000000D+01
0.805430439697D-06 0.000000000000D+00 0.000000000000D+00 0.343450804603D-04 0.000000000000D+00  6 -2 1 25 -24 1 -1 4 0.23738072D-02 0.17755348D+00 0.17391962D+05 0.17391962D+05 0.17391962D+05 0.12405630D+01  1  2 12  6  6  5       21 0.120791527144D-02 0.100000000000D+01
-.738440133032D-05 0.000000000000D+00 0.000000000000D+00 0.343251758497D-04 0.000000000000D+00  6 -2 1 25 -24 1 -1 4 0.23738072D-02 0.17755348D+00 0.17521095D+05 0.17521095D+05 0.17521095D+05 0.12402035D+01  1  2  5  6  6  5       21 -.110634626667D-01 0.100000000000D+01
0.809543987796D-06 0.000000000000D+00 0.000000000000D+00 0.343450804603D-04 0.000000000000D+00  6 -2 1 25 -24 2 -2 4 0.23738072D-02 0.17755348D+00 0.17391962D+05 0.17391962D+05 0.17391962D+05 0.12405630D+01  1  2 12  7  6  5       21 0.121408441694D-02 0.100000000000D+01
0.805430439697D-06 0.000000000000D+00 0.000000000000D+00 0.343450804603D-04 0.000000000000D+00  6 -2 1 25 -24 2 -2 4 0.23738072D-02 0.17755348D+00 0.17391962D+05 0.17391962D+05 0.17391962D+05 0.12405630D+01  1  2 12  7  6  5       21 0.120791527144D-02 0.100000000000D+01
-.738440133032D-05 0.000000000000D+00 0.000000000000D+00 0.343251758497D-04 0.000000000000D+00  6 -2 1 25 -24 2 -2 4 0.23738072D-02 0.17755348D+00 0.17521095D+05 0.17521095D+05 0.17521095D+05 0.12402035D+01  1  2  5  7  6  5       21 -.110634626667D-01 0.100000000000D+01
0.809543987796D-06 0.000000000000D+00 0.000000000000D+00 0.343450804603D-04 0.000000000000D+00  6 -2 1 25 -24 3 -3 4 0.23738072D-02 0.17755348D+00 0.17391962D+05 0.17391962D+05 0.17391962D+05 0.12405630D+01  1  2 12  8  6  5       21 0.121408441694D-02 0.100000000000D+01
0.809543987796D-06 0.000000000000D+00 0.000000000000D+00 0.343450804603D-04 0.000000000000D+00  6 -2 1 25 -24 4 -4 4 0.23738072D-02 0.17755348D+00 0.17391962D+05 0.17391962D+05 0.17391962D+05 0.12405630D+01  1  2 12  8  6  5       21 0.121408441694D-02 0.100000000000D+01
0.805430439697D-06 0.000000000000D+00 0.000000000000D+00 0.343450804603D-04 0.000000000000D+00  6 -2 1 25 -24 3 -3 4 0.23738072D-02 0.17755348D+00 0.17391962D+05 0.17391962D+05 0.17391962D+05 0.12405630D+01  1  2 12  8  6  5       21 0.120791527144D-02 0.100000000000D+01
0.805430439697D-06 0.000000000000D+00 0.000000000000D+00 0.343450804603D-04 0.000000000000D+00  6 -2 1 25 -24 4 -4 4 0.23738072D-02 0.17755348D+00 0.17391962D+05 0.17391962D+05 0.17391962D+05 0.12405630D+01  1  2 12  8  6  5       21 0.120791527144D-02 0.100000000000D+01
-.738440133032D-05 0.000000000000D+00 0.000000000000D+00 0.343251758497D-04 0.000000000000D+00  6 -2 1 25 -24 3 -3 4 0.23738072D-02 0.17755348D+00 0.17521095D+05 0.17521095D+05 0.17521095D+05 0.12402035D+01  1  2  5  8  6  5       21 -.110634626667D-01 0.100000000000D+01
-.738440133032D-05 0.000000000000D+00 0.000000000000D+00 0.343251758497D-04 0.000000000000D+00  6 -2 1 25 -24 4 -4 4 0.23738072D-02 0.17755348D+00 0.17521095D+05 0.17521095D+05 0.17521095D+05 0.12402035D+01  1  2  5  8  6  5       21 -.110634626667D-01 0.100000000000D+01
  </mgrwgt>
  </event>
  <event>
  5     66 0.39191994E-03 0.38337088E+02 0.75467711E-02 0.12233571E+00
       -4 -1    0    0    0  501 0.00000000E+00 0.00000000E+00 0.51275974E+03 0.51276209E+03 0.15500000E+01 0.0000E+00 0.9000E+01
        3 -1    0    0  502    0 0.00000000E+00 0.00000000E+00 -.50779493E+02 0.50781955E+02 0.50000000E+00 0.0000E+00 0.9000E+01
       25  1    1    2    0    0 -.26553671E+02 0.43277002E+02 0.92338987E+02 0.16349154E+03 0.12500000E+03 0.0000E+00 0.9000E+01
      -24  1    1    2    0    0 -.11773941E+02 -.42719944E+02 0.33828218E+03 0.35052199E+03 0.80419002E+02 0.0000E+00 0.9000E+01
       21  1    1    2  502  501 0.38327611E+02 -.55705777E+00 0.31359084E+02 0.49530504E+02 0.75000000E+00 0.0000E+00 0.9000E+01
#aMCatNLO 1  0  0  5  1 0.12498150D+02 0.00000000D+00  -5  6  0 0.00000000D+00 0.00000000D+00 0.00000000D+00 0.00000000D+00 0.00000000D+00
  <mgrwgt>
 0.4415194597D-01   14    2    0
 0.161366147304297D+03 0.000000000000000D+00 0.000000000000000D+00 0.161366147304297D+03
 0.161366147304297D+03 -.000000000000000D+00 -.000000000000000D+00 -.161366147304297D+03
 0.153303142923431D+03 -.265566304801363D+02 0.432770445292843D+02 -.727921453493009D+02
 0.127831017673490D+03 -.117764087361818D+02 -.427199078681844D+02 0.889374993693981D+02
 0.415981340116739D+02 0.383330392163180D+02 -.557136661099895D+00 -.161453540200972D+02
 0.000000000000000D+00 0.000000000000000D+00 0.000000000000000D+00 0.000000000000000D+00
 0.161366147304297D+03 0.000000000000000D+00 0.000000000000000D+00 0.161366147304297D+03
 0.161366147304297D+03 -.000000000000000D+00 -.000000000000000D+00 -.161366147304297D+03
 0.153687157204701D+03 -.190750695308442D+02 0.431683066892299D+02 -.759432769219270D+02
 0.125638748932860D+03 -.559917933552409D+01 -.428096884082483D+02 0.863357344799991D+02
 0.308293537922948D+02 0.252262806041292D+02 -.127814400600605D+02 -.122767508781149D+02
 0.125770346787393D+02 -.552031737760872D+00 0.124228217790789D+02 0.188429332004281D+01
0.420628928525D-03 0.000000000000D+00 0.000000000000D+00 0.999800622371D-05 0.000000000000D+00  6 -4 3 25 -24 21 21 2 0.78886484D-01 0.78125992D-02 0.17566327D+05 0.17566327D+05 0.17566327D+05 0.12400782D+01  1  2  2  3  6  5       21 0.205700278235D-01 0.100000000000D+01
0.176057551154D-04 0.221971983919D-04 -.161532583968D-05 0.999800622371D-05 0.000000000000D+00  6 -4 3 25 -24 21 21 4 0.78886484D-01 0.78125992D-02 0.17566327D+05 0.17566327D+05 0.17566327D+05 0.12400782D+01  1  2  3  3  6  5       21 0.132400178453D-02 0.100000000000D+01
0.118235881671D-04 0.000000000000D+00 0.000000000000D+00 0.999800622371D-05 0.000000000000D+00  6 -4 3 25 -24 21 21 4 0.78886484D-01 0.78125992D-02 0.17566327D+05 0.17566327D+05 0.17566327D+05 0.12400782D+01  1  2 15  3  6  5       21 0.889166737248D-03 0.100000000000D+01
0.266007205273D-03 0.000000000000D+00 0.000000000000D+00 0.999489723003D-05 0.000000000000D+00  6 -4 3 25 -24 21 21 4 0.78886484D-01 0.78125992D-02 0.17636228D+05 0.17636228D+05 0.17636228D+05 0.12398854D+01  1  2 12  3  6  5       21 0.199983625839D-01 0.100000000000D+01
0.204831626174D-03 0.000000000000D+00 0.000000000000D+00 0.999489723003D-05 0.000000000000D+00  6 -4 3 25 -24 21 21 4 0.78886484D-01 0.78125992D-02 0.17636228D+05 0.17636228D+05 0.17636228D+05 0.12398854D+01  1  2 12  3  6  5       21 0.153991961409D-01 0.100000000000D+01
-.216211736147D-03 0.000000000000D+00 0.000000000000D+00 0.999800622371D-05 0.000000000000D+00  6 -4 3 25 -24 21 21 4 0.78886484D-01 0.78125992D-02 0.17566327D+05 0.17566327D+05 0.17566327D+05 0.12400782D+01  1  2  4  3  6  5       21 -.162597243128D-01 0.100000000000D+01
0.399467563796D-05 0.000000000000D+00 0.000000000000D+00 0.999489723003D-05 0.000000000000D+00  6 -4 3 25 -24 3 -3 4 0.78886484D-01 0.78125992D-02 0.17636228D+05 0.17636228D+05 0.17636228D+05 0.12398854D+01  1  2 12  6  6  5       21 0.300318826820D-03 0.100000000000D+01
0.342392575227D-05 0.000000000000D+00 0.000000000000D+00 0.999489723003D-05 0.000000000000D+00  6 -4 3 25 -24 3 -3 4 0.78886484D-01 0.78125992D-02 0.17636228D+05 0.17636228D+05 0.17636228D+05 0.12398854D+01  1  2 12  6  6  5       21 0.257409977237D-03 0.100000000000D+01
0.399467563796D-05 0.000000000000D+00 0.000000000000D+00 0.999489723003D-05 0.000000000000D+00  6 -4 3 25 -24 4 -4 4 0.78886484D-01 0.78125992D-02 0.17636228D+05 0.17636228D+05 0.17636228D+05 0.12398854D+01  1  2 12  7  6  5       21 0.300318826820D-03 0.100000000000D+01
0.342392575227D-05 0.000000000000D+00 0.000000000000D+00 0.999489723003D-05 0.000000000000D+00  6 -4 3 25 -24 4 -4 4 0.78886484D-01 0.78125992D-02 0.17636228D+05 0.17636228D+05 0.17636228D+05 0.12398854D+01  1  2 12  7  6  5       21 0.257409977237D-03 0.100000000000D+01
0.399467563796D-05 0.000000000000D+00 0.000000000000D+00 0.999489723003D-05 0.000000000000D+00  6 -4 3 25 -24 1 -1 4 0.78886484D-01 0.78125992D-02 0.17636228D+05 0.17636228D+05 0.17636228D+05 0.12398854D+01  1  2 12  8  6  5       21 0.300318826820D-03 0.100000000000D+01
0.399467563796D-05 0.000000000000D+00 0.000000000000D+00 0.999489723003D-05 0.000000000000D+00  6 -4 3 25 -24 2 -2 4 0.78886484D-01 0.78125992D-02 0.17636228D+05 0.17636228D+05 0.17636228D+05 0.12398854D+01  1  2 12  8  6  5       21 0.300318826820D-03 0.100000000000D+01
0.342392575227D-05 0.000000000000D+00 0.000000000000D+00 0.999489723003D-05 0.000000000000D+00  6 -4 3 25 -24 1 -1 4 0.78886484D-01 0.78125992D-02 0.17636228D+05 0.17636228D+05 0.17636228D+05 0.12398854D+01  1  2 12  8  6  5       21 0.257409977237D-03 0.100000000000D+01
0.342392575227D-05 0.000000000000D+00 0.000000000000D+00 0.999489723003D-05 0.000000000000D+00  6 -4 3 25 -24 2 -2 4 0.78886484D-01 0.78125992D-02 0.17636228D+05 0.17636228D+05 0.17636228D+05 0.12398854D+01  1  2 12  8  6  5       21 0.257409977237D-03 0.100000000000D+01
  </mgrwgt>
  </event>
  <event>
  6     66 0.39191994E-03 0.39693998E+02 0.75467711E-02 0.11349629E+00
       -2 -1    0    0    0  501 0.00000000E+00 0.00000000E+00 0.22463209E+02 0.22465488E+02 0.32000000E+00 0.0000E+00 0.9000E+01
        1 -1    0    0  502    0 -.00000000E+00 -.00000000E+00 -.22382784E+04 0.22382784E+04 0.32000000E+00 0.0000E+00 0.9000E+01
       25  1    1    2    0    0 0.86021556E+02 -.16521799E+03 -.12410979E+04 0.12612080E+04 0.12500000E+03 0.0000E+00 0.9000E+01
      -24  1    1    2    0    0 -.68026073E+02 0.11914525E+03 -.82958690E+03 0.84469212E+03 0.80419002E+02 0.0000E+00 0.9000E+01
        3  1    1    2  502    0 0.18747666E+01 0.23990195E+02 -.71633931E+02 0.75569268E+02 0.50000000E+00 0.0000E+00 0.9000E+01
       -3  1    1    2    0  501 -.19870249E+02 0.22082543E+02 -.73496458E+02 0.79274490E+02 0.50000000E+00 0.0000E+00 0.9000E+01
#aMCatNLO 2  0  0  5  1 0.10591828D+02 0.00000000D+00  -5  6  0 0.00000000D+00 0.00000000D+00 0.00000000D+00 0.00000000D+00 0.00000000D+00
  <mgrwgt>
 0.3304089057D-02    3    2    0
 0.224235402959395D+03 0.000000000000000D+00 0.000000000000000D+00 0.224235402959395D+03
 0.224235402959395D+03 -.000000000000000D+00 -.000000000000000D+00 -.224235402959395D+03
 0.227140492004506D+03 0.866009609822559D+02 -.166701408953384D+03 -.260521960294228D+02
 0.158346613678881D+03 -.676197141469113D+02 0.118104878981284D+03 -.923287218065370D+01
 0.629837002354040D+02 -.189812468353446D+02 0.485965299720999D+02 0.352850682100765D+02
 0.000000000000000D+00 0.000000000000000D+00 0.000000000000000D+00 0.000000000000000D+00
 0.224235402959395D+03 0.000000000000000D+00 0.000000000000000D+00 0.224235402959395D+03
 0.224235402959395D+03 -.000000000000000D+00 -.000000000000000D+00 -.224235402959395D+03
 0.225724952910606D+03 0.860272308238455D+02 -.165232522579325D+03 -.249856639965538D+02
 0.159246226636863D+03 -.680220689581036D+02 0.119135003493712D+03 -.848491726068826D+01
 0.265523861000909D+02 0.195723388336891D+01 0.235975440184984D+02 0.120147559038510D+02
 0.369472402712317D+02 -.199623957491108D+02 0.224999750671149D+02 0.214558253533910D+02
-.150286601341D-04 0.000000000000D+00 0.000000000000D+00 0.626835529883D-05 0.000000000000D+00  6 -2 1 25 -24 3 -3 4 0.34560553D-02 0.34435069D+00 0.47767477D+05 0.47767477D+05 0.47767477D+05 0.11942514D+01  1  2 13  8  6  5       21 -.218638681941D-02 0.100000000000D+01
-.154813310687D-04 0.000000000000D+00 0.000000000000D+00 0.626835529883D-05 0.000000000000D+00  6 -2 1 25 -24 3 -3 4 0.34560553D-02 0.34435069D+00 0.47767477D+05 0.47767477D+05 0.47767477D+05 0.11942514D+01  1  2 13  8  6  5       21 -.225224190936D-02 0.100000000000D+01
0.532214487774D-04 0.000000000000D+00 0.000000000000D+00 0.627090310564D-05 0.178325902625D-07  6 -2 1 25 -24 3 -3 4 0.34560553D-02 0.34435069D+00 0.47767477D+05 0.47767477D+05 0.47767477D+05 0.11942514D+01  1  2  1  8  6  5       21 0.774271778580D-02 0.100000000000D+01
  </mgrwgt>
  </event>
  <event>
  5     66 0.39191994E-03 0.50751566E+02 0.75467711E-02 0.10954723E+00
       -2 -1    0    0    0  501 0.00000000E+00 0.00000000E+00 0.95341870E+02 0.95342407E+02 0.32000000E+00 0.0000E+00 0.9000E+01
        1 -1    0    0  502    0 0.00000000E+00 0.00000000E+00 -.65070256E+03 0.65070264E+03 0.32000000E+00 0.0000E+00 0.9000E+01
       25  1    1    2    0    0 0.10387194E+03 0.30683445E+01 -.22650834E+03 0.27880068E+03 0.12500000E+03 0.0000E+00 0.9000E+01
      -24  1    1    2    0    0 -.10173322E+03 0.47637714E+02 -.37438223E+03 0.39905923E+03 0.80419002E+02 0.0000E+00 0.9000E+01
       21  1    1    2  502  501 -.21387160E+01 -.50706058E+02 0.45529883E+02 0.68185124E+02 0.75000000E+00 0.0000E+00 0.9000E+01
#aMCatNLO 1  0  0  1  5 0.19080053D+03 0.00000000D+00  -5  6  0 0.00000000D+00 0.00000000D+00 0.00000000D+00 0.00000000D+00 0.00000000D+00
  <mgrwgt>
 0.8945269024D-01    5    4    0
 0.249077153111890D+03 0.000000000000000D+00 0.000000000000000D+00 0.249077153111890D+03
 0.249077153111890D+03 0.000000000000000D+00 0.000000000000000D+00 -.249077153111890D+03
 0.165017335441544D+03 0.103871948153430D+03 0.306854662296503D+01 -.284063972488775D+02
 0.180263857744301D+03 -.101733214344858D+03 0.476379344307272D+02 -.115796471261969D+03
 0.152873113037934D+03 -.213873380857234D+01 -.507064810536922D+02 0.144202868510847D+03
 0.000000000000000D+00 -.000000000000000D+00 -.000000000000000D+00 0.000000000000000D+00
 0.378108845162994D+03 0.000000000000000D+00 0.000000000000000D+00 0.378108845162994D+03
 0.348430168461337D+03 0.000000000000000D+00 0.000000000000000D+00 -.348430168461337D+03
 0.196451148500643D+03 0.135307353347582D+03 0.620729447717227D+02 -.284063972488775D+02
 0.190815802420924D+03 -.694619652738935D+02 0.108211215327870D+03 -.115796471261969D+03
 0.146177098703514D+03 0.238684148008011D+02 -.189094513857547D+01 0.144202868510847D+03
 0.193094963999250D+03 -.897138028744897D+02 -.168393214961018D+03 0.296786767016565D+02
 0.249077153111890D+03 0.000000000000000D+00 0.000000000000000D+00 0.249077153111890D+03
 0.249077153111890D+03 0.000000000000000D+00 0.000000000000000D+00 -.249077153111890D+03
 0.165017335441544D+03 0.103871948153430D+03 0.306854662296503D+01 -.284063972488775D+02
 0.180263857744301D+03 -.101733214344858D+03 0.476379344307272D+02 -.115796471261969D+03
 0.000000000000000D+00 -.000000000000000D+00 -.000000000000000D+00 0.000000000000000D+00
 0.152873113037934D+03 -.213873380857234D+01 -.507064810536922D+02 0.144202868510847D+03
 0.378108845162994D+03 0.000000000000000D+00 0.000000000000000D+00 0.378108845162994D+03
 0.348430168461337D+03 0.000000000000000D+00 0.000000000000000D+00 -.348430168461337D+03
 0.196451148500643D+03 0.135307353347582D+03 0.620729447717227D+02 -.284063972488775D+02
 0.190815802420924D+03 -.694619652738935D+02 0.108211215327870D+03 -.115796471261969D+03
 0.193094963999250D+03 -.897138028744897D+02 -.168393214961018D+03 0.296786767016565D+02
 0.146177098703514D+03 0.238684148008011D+02 -.189094513857547D+01 0.144202868510847D+03
0.480739366129D-03 0.000000000000D+00 0.000000000000D+00 0.969888669905D-05 0.000000000000D+00  6 -2 1 25 -24 21 21 2 0.14668027D-01 0.10010813D+00 0.30880768D+05 0.30880768D+05 0.30880768D+05 0.12135817D+01  1  2  2  1  6  1       -2 0.692896602709D-01 0.100000000000D+01
0.257179196365D-04 0.253693133332D-04 -.184616574752D-05 0.969888669905D-05 0.000000000000D+00  6 -2 1 25 -24 21 21 4 0.14668027D-01 0.10010813D+00 0.30880768D+05 0.30880768D+05 0.30880768D+05 0.12135817D+01  1  2  3  1  6  1       -2 0.545924516995D-02 0.100000000000D+01
0.160132425762D-04 0.000000000000D+00 0.000000000000D+00 0.969888669905D-05 0.000000000000D+00  6 -2 1 25 -24 21 21 4 0.14668027D-01 0.10010813D+00 0.30880768D+05 0.30880768D+05 0.30880768D+05 0.12135817D+01  1  2 15  1  6  1       -2 0.339919474146D-02 0.100000000000D+01
-.145807922804D-04 0.000000000000D+00 -.275287527495D-03 0.969888669905D-05 0.000000000000D+00  6 -2 1 25 -24 21 21 4 0.30915209D-01 0.10010813D+00 0.30880768D+05 0.30880768D+05 0.30880768D+05 0.12135817D+01  1  2  5  1  6  1       -2 -.858389322838D-03 0.100000000000D+01
0.159036630717D-04 0.000000000000D+00 -.221998204621D-04 0.969888669905D-05 0.000000000000D+00  6 21 1 25 -24 2 21 4 0.30915209D-01 0.10010813D+00 0.30880768D+05 0.30880768D+05 0.30880768D+05 0.12135817D+01  3  4  5  4  5  1       -2 0.121629793780D-01 0.100000000000D+01
  </mgrwgt>
  </event>
  <event>
  5     66 0.39191994E-03 0.42609578E+02 0.75467711E-02 0.11420321E+00
       -2 -1    0    0    0  501 0.00000000E+00 0.00000000E+00 0.56954885E+02 0.56955784E+02 0.32000000E+00 0.0000E+00 0.9000E+01
        1 -1    0    0  502    0 0.00000000E+00 0.00000000E+00 -.74739882E+03 0.74739889E+03 0.32000000E+00 0.0000E+00 0.9000E+01
       25  1    1    2    0    0 -.16040876E+02 -.12019826E+03 -.31086932E+03 0.35632804E+03 0.12500000E+03 0.0000E+00 0.9000E+01
      -24  1    1    2    0    0 0.78970813E+01 0.16201852E+03 -.23120213E+03 0.29365627E+03 0.80419002E+02 0.0000E+00 0.9000E+01
       21  1    1    2  502  501 0.81437944E+01 -.41820251E+02 -.14837248E+03 0.15437037E+03 0.75000000E+00 0.0000E+00 0.9000E+01
#aMCatNLO 1  0  0  2  1 0.20800196D+02 0.00000000D+00  -5  6  0 0.00000000D+00 0.00000000D+00 0.00000000D+00 0.00000000D+00 0.00000000D+00
  <mgrwgt>
 0.8293342164D-01    7    4    0
 0.206321115562325D+03 0.000000000000000D+00 0.000000000000000D+00 0.206321115562325D+03
 0.206321115562325D+03 0.000000000000000D+00 0.000000000000000D+00 -.206321115562325D+03
 0.174426532811118D+03 -.160412250246954D+02 -.120196471026591D+03 -.975206649736081D+01
 0.185566299588142D+03 0.789670967266250D+01 0.162020424035283D+03 0.406775092678755D+02
 0.526493987253907D+02 0.814451535203287D+01 -.418239530086921D+02 -.309254427705147D+02
 0.000000000000000D+00 0.000000000000000D+00 -.000000000000000D+00 -.000000000000000D+00
 0.213366395496107D+03 0.000000000000000D+00 0.000000000000000D+00 0.213366395496107D+03
 0.222528351252117D+03 0.000000000000000D+00 0.000000000000000D+00 -.222528351252117D+03
 0.170166151974369D+03 -.210494208344890D+02 -.113107640587750D+03 -.975206649736081D+01
 0.192242498227252D+03 0.240576189093556D+01 0.169792563794091D+03 0.406775092678755D+02
 0.507574895649167D+02 0.664163392852935D+01 -.396967055955485D+02 -.309254427705147D+02
 0.227286069816863D+02 0.120020250150240D+02 -.169882176107918D+02 -.916195575600959D+01
 0.206321115562325D+03 0.000000000000000D+00 0.000000000000000D+00 0.206321115562325D+03
 0.206321115562325D+03 0.000000000000000D+00 0.000000000000000D+00 -.206321115562325D+03
 0.174426532811118D+03 -.160412250246954D+02 -.120196471026591D+03 -.975206649736081D+01
 0.185566299588142D+03 0.789670967266250D+01 0.162020424035283D+03 0.406775092678755D+02
 0.000000000000000D+00 0.000000000000000D+00 -.000000000000000D+00 -.000000000000000D+00
 0.526493987253907D+02 0.814451535203287D+01 -.418239530086921D+02 -.309254427705147D+02
 0.213366395496107D+03 0.000000000000000D+00 0.000000000000000D+00 0.213366395496107D+03
 0.222528351252117D+03 0.000000000000000D+00 0.000000000000000D+00 -.222528351252117D+03
 0.170166151974369D+03 -.210494208344890D+02 -.113107640587750D+03 -.975206649736081D+01
 0.192242498227252D+03 0.240576189093556D+01 0.169792563794091D+03 0.406775092678755D+02
 0.227286069816863D+02 0.120020250150240D+02 -.169882176107918D+02 -.916195575600959D+01
 0.507574895649167D+02 0.664163392852935D+01 -.396967055955485D+02 -.309254427705147D+02
0.939223722410D-04 0.000000000000D+00 0.000000000000D+00 0.951204990551D-05 0.000000000000D+00  6 -2 1 25 -24 21 21 2 0.87623644D-02 0.11498451D+00 0.39564450D+05 0.39564450D+05 0.39564450D+05 0.12024834D+01  1  2  2  2  6  2        1 0.248643985343D-01 0.100000000000D+01
0.105185001014D-04 0.495641975310D-05 -.360686639734D-06 0.951204990551D-05 0.000000000000D+00  6 -2 1 25 -24 21 21 4 0.87623644D-02 0.11498451D+00 0.39564450D+05 0.39564450D+05 0.39564450D+05 0.12024834D+01  1  2  3  2  6  2        1 0.402643701380D-02 0.100000000000D+01
0.213620734265D-05 0.000000000000D+00 0.000000000000D+00 0.951204990551D-05 0.000000000000D+00  6 -2 1 25 -24 21 21 4 0.87623644D-02 0.11498451D+00 0.39564450D+05 0.39564450D+05 0.39564450D+05 0.12024834D+01  1  2 15  2  6  2        1 0.817731067236D-03 0.100000000000D+01
-.414836163159D-04 0.000000000000D+00 0.000000000000D+00 0.951204990551D-05 0.000000000000D+00  6 -2 1 25 -24 21 21 4 0.87623644D-02 0.11498451D+00 0.39564450D+05 0.39564450D+05 0.39564450D+05 0.12024834D+01  1  2  4  2  6  2        1 -.158797515417D-01 0.100000000000D+01
-.140518633979D-02 0.000000000000D+00 -.256377875619D-03 0.951204990551D-05 0.000000000000D+00  6 -2 1 25 -24 21 21 4 0.87623644D-02 0.12694593D+00 0.39564450D+05 0.39564450D+05 0.39564450D+05 0.12024834D+01  1  2  5  2  6  2        1 -.462928538751D+00 0.100000000000D+01
0.142482587887D-02 0.000000000000D+00 0.255127516989D-03 0.951204990551D-05 0.000000000000D+00  6 -2 1 25 -24 21 21 4 0.87623644D-02 0.11498451D+00 0.39564450D+05 0.39564450D+05 0.39564450D+05 0.12024834D+01  1  2  6  2  6  2        1 0.545417274479D+00 0.100000000000D+01
-.217895881569D-04 0.000000000000D+00 -.412683897121D-05 0.951204990551D-05 0.000000000000D+00  6 -2 21 25 -24 -1 21 4 0.87623644D-02 0.12694593D+00 0.39564450D+05 0.39564450D+05 0.39564450D+05 0.12024834D+01  3  4  5  5  5  2        1 -.133841291658D-01 0.100000000000D+01
  </mgrwgt>
  </event>
  <event>
  5     66 -.39191994E-03 0.22318116E+02 0.75467711E-02 0.12193377E+00
       -4 -1    0    0    0  501 0.00000000E+00 0.00000000E+00 0.46124392E+02 0.46150428E+02 0.15500000E+01 0.0000E+00 0.9000E+01
        3 -1    0    0  502    0 -.00000000E+00 -.00000000E+00 -.58714962E+03 0.58714983E+03 0.50000000E+00 0.0000E+00 0.9000E+01
       25  1    1    2    0    0 0.21949883E+02 -.53113208E+02 -.18640266E+03 0.23167598E+03 0.12500000E+03 0.0000E+00 0.9000E+01
      -24  1    1    2    0    0 -.40506482E+02 0.65511029E+02 -.11185841E+03 0.15783532E+03 0.80419002E+02 0.0000E+00 0.9000E+01
       21  1    1    2  502  501 0.18556598E+02 -.12397821E+02 -.24276416E+03 0.24378895E+03 0.75000000E+00 0.0000E+00 0.9000E+01
#aMCatNLO 1  0  0  5  2 0.18381038D+00 0.00000000D+00  -5  6  0 0.00000000D+00 0.00000000D+00 0.00000000D+00 0.00000000D+00 0.00000000D+00
  <mgrwgt>
 -.2130461900D-01   15    2    0
 0.164591101129779D+03 0.000000000000000D+00 0.000000000000000D+00 0.164591101129779D+03
 0.164591101129779D+03 -.000000000000000D+00 -.000000000000000D+00 -.164591101129779D+03
 0.139351224653834D+03 0.219494327356854D+02 -.531129068558207D+02 0.221586403109461D+02
 0.119809602194804D+03 -.405068692962543D+02 0.655112874195541D+02 0.442107405972275D+02
 0.700213754109196D+02 0.185574365605688D+02 -.123983805637334D+02 -.663693809081736D+02
 0.000000000000000D+00 0.000000000000000D+00 0.000000000000000D+00 -.000000000000000D+00
 0.164591101129779D+03 0.000000000000000D+00 0.000000000000000D+00 0.164591101129779D+03
 0.164591101129779D+03 -.000000000000000D+00 -.000000000000000D+00 -.164591101129779D+03
 0.139351205721586D+03 0.219495536813745D+02 -.531129876606601D+02 0.221582077571029D+02
 0.119809391818479D+03 -.405067653112108D+02 0.655112179462657D+02 0.442103687019533D+02
 0.236762482810807D+02 0.620644727406571D+01 -.436235036557979D+01 -.224279879656991D+02
 0.463453564384114D+02 0.123507643557706D+02 -.803587992002591D+01 -.439405884933571D+02
0.462726358979D-05 0.000000000000D+00 0.000000000000D+00 0.500661653105D-04 0.000000000000D+00  6 -4 3 25 -24 21 21 2 0.70980794D-02 0.90332729D-01 0.18394205D+05 0.18394205D+05 0.18394205D+05 0.12378479D+01  1  2  2  3  6  5       21 0.215362258586D-03 0.100000000000D+01
0.702591563669D-06 0.244187408304D-06 -.177699105713D-07 0.500661653105D-04 0.000000000000D+00  6 -4 3 25 -24 21 21 4 0.70980794D-02 0.90332729D-01 0.18394205D+05 0.18394205D+05 0.18394205D+05 0.12378479D+01  1  2  3  3  6  5       21 0.501052091264D-04 0.100000000000D+01
0.100552629245D-06 0.000000000000D+00 0.000000000000D+00 0.500661653105D-04 0.000000000000D+00  6 -4 3 25 -24 21 21 4 0.70980794D-02 0.90332729D-01 0.18394205D+05 0.18394205D+05 0.18394205D+05 0.12378479D+01  1  2 15  3  6  5       21 0.717089526414D-05 0.100000000000D+01
-.357997986202D-01 0.000000000000D+00 0.000000000000D+00 0.500661653105D-04 0.000000000000D+00  6 -4 3 25 -24 21 21 4 0.70980794D-02 0.90332729D-01 0.18394205D+05 0.18394205D+05 0.18394205D+05 0.12378479D+01  1  2  4  3  6  5       21 -.255305712352D+01 0.100000000000D+01
-.108051516514D-01 0.000000000000D+00 0.000000000000D+00 0.500661653105D-04 0.000000000000D+00  6 -4 3 25 -24 21 21 4 0.70980794D-02 0.90332729D-01 0.18394205D+05 0.18394205D+05 0.18394205D+05 0.12378479D+01  1  2  5  3  6  5       21 -.770567725452D+00 0.100000000000D+01
0.355512755500D-01 0.000000000000D+00 -.000000000000D+00 0.500661653105D-04 0.000000000000D+00  6 -4 3 25 -24 21 21 4 0.70980794D-02 0.90332729D-01 0.18394205D+05 0.18394205D+05 0.18394205D+05 0.12378479D+01  1  2  6  3  6  5       21 0.253533373905D+01 0.100000000000D+01
0.107625089608D-01 0.000000000000D+00 0.000000000000D+00 0.500661653105D-04 0.763579304536D-02  6 -4 3 25 -24 21 21 4 0.70980794D-02 0.90332729D-01 0.18394601D+05 0.18394601D+05 0.18394601D+05 0.12378469D+01  1  2 11  3  6  5       21 0.767525354386D+00 0.100000000000D+01
-.160827067115D-02 0.000000000000D+00 0.000000000000D+00 0.500661653105D-04 0.000000000000D+00  6 -4 3 25 -24 3 -3 4 0.70980794D-02 0.90332729D-01 0.18394205D+05 0.18394205D+05 0.18394205D+05 0.12378479D+01  1  2  5  6  6  5       21 -.114693575153D+00 0.100000000000D+01
0.160561741500D-02 0.000000000000D+00 0.000000000000D+00 0.500661653105D-04 0.460566167511D-03  6 -4 3 25 -24 3 -3 4 0.70980794D-02 0.90332729D-01 0.18394601D+05 0.18394601D+05 0.18394601D+05 0.12378469D+01  1  2 11  6  6  5       21 0.114504162546D+00 0.100000000000D+01
-.160827067115D-02 0.000000000000D+00 0.000000000000D+00 0.500661653105D-04 0.000000000000D+00  6 -4 3 25 -24 4 -4 4 0.70980794D-02 0.90332729D-01 0.18394205D+05 0.18394205D+05 0.18394205D+05 0.12378479D+01  1  2  5  7  6  5       21 -.114693575153D+00 0.100000000000D+01
0.160536564781D-02 0.000000000000D+00 0.000000000000D+00 0.500661653105D-04 0.460490711241D-03  6 -4 3 25 -24 4 -4 4 0.70980794D-02 0.90332729D-01 0.18394601D+05 0.18394601D+05 0.18394601D+05 0.12378469D+01  1  2 11  7  6  5       21 0.114486207839D+00 0.100000000000D+01
-.160827067115D-02 0.000000000000D+00 0.000000000000D+00 0.500661653105D-04 0.000000000000D+00  6 -4 3 25 -24 1 -1 4 0.70980794D-02 0.90332729D-01 0.18394205D+05 0.18394205D+05 0.18394205D+05 0.12378479D+01  1  2  5  8  6  5       21 -.114693575153D+00 0.100000000000D+01
-.160827067115D-02 0.000000000000D+00 0.000000000000D+00 0.500661653105D-04 0.000000000000D+00  6 -4 3 25 -24 2 -2 4 0.70980794D-02 0.90332729D-01 0.18394205D+05 0.18394205D+05 0.18394205D+05 0.12378479D+01  1  2  5  8  6  5       21 -.114693575153D+00 0.100000000000D+01
0.160536573702D-02 0.000000000000D+00 0.000000000000D+00 0.500661653105D-04 0.460490731558D-03  6 -4 3 25 -24 1 -1 4 0.70980794D-02 0.90332729D-01 0.18394601D+05 0.18394601D+05 0.18394601D+05 0.12378469D+01  1  2 11  8  6  5       21 0.114486214201D+00 0.100000000000D+01
0.160536573702D-02 0.000000000000D+00 0.000000000000D+00 0.500661653105D-04 0.460490731558D-03  6 -4 3 25 -24 2 -2 4 0.70980794D-02 0.90332729D-01 0.18394601D+05 0.18394601D+05 0.18394601D+05 0.12378469D+01  1  2 11  8  6  5       21 0.114486214201D+00 0.100000000000D+01
  </mgrwgt>
  </event>
  <event>
  5     66 -.39191994E-03 0.33404804E+02 0.75467711E-02 0.12091535E+00
       -2 -1    0    0    0  501 0.00000000E+00 0.00000000E+00 0.55514920E+02 0.55515842E+02 0.32000000E+00 0.0000E+00 0.9000E+01
        1 -1    0    0  502    0 0.00000000E+00 0.00000000E+00 -.40119001E+03 0.40119014E+03 0.32000000E+00 0.0000E+00 0.9000E+01
       25  1    1    2    0    0 -.53934781E+02 0.19933388E+02 -.10065222E+03 0.17047630E+03 0.12500000E+03 0.0000E+00 0.9000E+01
      -24  1    1    2    0    0 0.62418391E+02 -.52235599E+02 -.19457487E+03 0.22572374E+03 0.80419002E+02 0.0000E+00 0.9000E+01
       21  1    1    2  502  501 -.84836102E+01 0.32302210E+02 -.50448003E+02 0.60505933E+02 0.75000000E+00 0.0000E+00 0.9000E+01
#aMCatNLO 1  0  0  2  5 0.87823678D+00 0.00000000D+00  -5  6  0 0.00000000D+00 0.00000000D+00 0.00000000D+00 0.00000000D+00 0.00000000D+00
  <mgrwgt>
 -.1159306067D+00   11    4    0
 0.149238972283205D+03 0.000000000000000D+00 0.000000000000000D+00 0.149238972283205D+03
 0.149238972283205D+03 0.000000000000000D+00 0.000000000000000D+00 -.149238972283205D+03
 0.144279975716734D+03 -.539337916958579D+02 0.199296225366832D+02 0.434242749124767D+02
 0.120042942063441D+03 0.624192137224926D+02 -.522387317041838D+02 -.363049397889636D+02
 0.341550267862354D+02 -.848542202663464D+01 0.323091091675006D+02 -.711933512351311D+01
 0.000000000000000D+00 -.000000000000000D+00 0.000000000000000D+00 -.000000000000000D+00
 0.149323856358958D+03 0.000000000000000D+00 0.000000000000000D+00 0.149323856358958D+03
 0.151528666576989D+03 0.000000000000000D+00 0.000000000000000D+00 -.151528666576989D+03
 0.144117257849052D+03 -.535878479363316D+02 0.196839760162540D+02 0.434242749124767D+02
 0.120282200990540D+03 0.627074931295758D+02 -.524434321253111D+02 -.363049397889636D+02
 0.340797777790298D+02 -.840357171021520D+01 0.322509891844953D+02 -.711933512351311D+01
 0.237328631732484D+01 -.716073483028948D+00 0.508466924561829D+00 -.220481021803028D+01
 0.149238972283205D+03 0.000000000000000D+00 0.000000000000000D+00 0.149238972283205D+03
 0.149238972283205D+03 0.000000000000000D+00 0.000000000000000D+00 -.149238972283205D+03
 0.144279975716734D+03 -.539337916958579D+02 0.199296225366832D+02 0.434242749124767D+02
 0.120042942063441D+03 0.624192137224926D+02 -.522387317041838D+02 -.363049397889636D+02
 0.000000000000000D+00 -.000000000000000D+00 0.000000000000000D+00 -.000000000000000D+00
 0.341550267862354D+02 -.848542202663464D+01 0.323091091675006D+02 -.711933512351311D+01
 0.149323856358958D+03 0.000000000000000D+00 0.000000000000000D+00 0.149323856358958D+03
 0.151528666576989D+03 0.000000000000000D+00 0.000000000000000D+00 -.151528666576989D+03
 0.144117257849052D+03 -.535878479363316D+02 0.196839760162540D+02 0.434242749124767D+02
 0.120282200990540D+03 0.627074931295758D+02 -.524434321253111D+02 -.363049397889636D+02
 0.237328631732484D+01 -.716073483028948D+00 0.508466924561829D+00 -.220481021803028D+01
 0.340797777790298D+02 -.840357171021520D+01 0.322509891844953D+02 -.711933512351311D+01
0.144774610372D-04 0.000000000000D+00 0.000000000000D+00 0.177276170004D-04 0.000000000000D+00  6 -2 1 25 -24 21 21 2 0.85408376D-02 0.61721621D-01 0.20365622D+05 0.20365622D+05 0.20365622D+05 0.12329608D+01  1  2  2  2  6  2        1 0.961230294073D-02 0.100000000000D+01
0.156334320032D-05 0.763996608556D-06 -.555972623860D-07 0.177276170004D-04 0.000000000000D+00  6 -2 1 25 -24 21 21 4 0.85408376D-02 0.61721621D-01 0.20365622D+05 0.20365622D+05 0.20365622D+05 0.12329608D+01  1  2  3  2  6  2        1 0.157793070351D-02 0.100000000000D+01
0.542259419870D-06 0.000000000000D+00 0.000000000000D+00 0.177276170004D-04 0.000000000000D+00  6 -2 1 25 -24 21 21 4 0.85408376D-02 0.61721621D-01 0.20365622D+05 0.20365622D+05 0.20365622D+05 0.12329608D+01  1  2 15  2  6  2        1 0.547319224406D-03 0.100000000000D+01
0.299736566004D-09 0.000000000000D+00 0.000000000000D+00 0.177191586043D-04 0.000000000000D+00  6 -2 1 25 -24 21 21 4 0.85408376D-02 0.62862970D-01 0.20491634D+05 0.20491634D+05 0.20491634D+05 0.12326666D+01  1  2 12  2  6  2        1 0.295368356087D-06 0.100000000000D+01
-.399380810005D-02 0.000000000000D+00 0.000000000000D+00 0.177276170004D-04 0.000000000000D+00  6 -2 1 25 -24 21 21 4 0.85408376D-02 0.61721621D-01 0.20365622D+05 0.20365622D+05 0.20365622D+05 0.12329608D+01  1  2  4  2  6  2        1 -.403107419005D+01 0.100000000000D+01
-.546541515258D-02 0.000000000000D+00 -.254961171661D-03 0.177276170004D-04 0.000000000000D+00  6 -2 1 25 -24 21 21 4 0.85408376D-02 0.62687640D-01 0.20365622D+05 0.20365622D+05 0.20365622D+05 0.12329608D+01  1  2  5  2  6  2        1 -.540914955602D+01 0.100000000000D+01
0.546874595193D-02 0.000000000000D+00 0.254930428837D-03 0.177276170004D-04 0.000000000000D+00  6 -2 1 25 -24 21 21 4 0.85408376D-02 0.61721621D-01 0.20365622D+05 0.20365622D+05 0.20365622D+05 0.12329608D+01  1  2  6  2  6  2        1 0.551977463776D+01 0.100000000000D+01
0.386810473461D-02 0.000000000000D+00 0.000000000000D+00 0.177276170004D-04 0.144022109196D-03  6 -2 1 25 -24 21 21 4 0.85456955D-02 0.62668583D-01 0.20491634D+05 0.20491634D+05 0.20491634D+05 0.12326666D+01  1  2 11  2  6  2        1 0.382332649351D+01 0.100000000000D+01
0.300206058440D-10 0.000000000000D+00 0.000000000000D+00 0.177191586043D-04 0.000000000000D+00  6 -2 21 25 -24 -1 21 4 0.85408376D-02 0.62862970D-01 0.20491634D+05 0.20491634D+05 0.20491634D+05 0.12326666D+01  3  4 12  5  5  2        1 0.108653728196D-06 0.100000000000D+01
-.155276465177D-04 0.000000000000D+00 -.725418225703D-06 0.177276170004D-04 0.000000000000D+00  6 -2 21 25 -24 -1 21 4 0.85408376D-02 0.62687640D-01 0.20365622D+05 0.20365622D+05 0.20365622D+05 0.12329608D+01  3  4  5  5  5  2        1 -.565910710099D-01 0.100000000000D+01
0.715481379292D-05 0.000000000000D+00 0.000000000000D+00 0.177276170004D-04 0.530176839595D-06  6 -2 21 25 -24 -1 21 4 0.85456955D-02 0.62668583D-01 0.20491634D+05 0.20491634D+05 0.20491634D+05 0.12326666D+01  3  4 11  5  5  2        1 0.260451222559D-01 0.100000000000D+01
  </mgrwgt>
  </event>
  <event>
  5     66 0.39191994E-03 0.59828562E+02 0.75467711E-02 0.11157221E+00
       -2 -1    0    0    0  501 0.00000000E+00 0.00000000E+00 0.13642202E+03 0.13642240E+03 0.32000000E+00 0.0000E+00 0.9000E+01
        1 -1    0    0  502    0 -.00000000E+00 -.00000000E+00 -.11179905E+04 0.11179905E+04 0.32000000E+00 0.0000E+00 0.9000E+01
       25  1    1    2    0    0 0.18534006E+03 0.29967777E+02 -.28104302E+03 0.36035980E+03 0.12500000E+03 0.0000E+00 0.9000E+01
      -24  1    1    2    0    0 -.16293461E+03 0.25506820E+02 0.73738658E+01 0.18362972E+03 0.80419002E+02 0.0000E+00 0.9000E+01
       21  1    1    2  502  501 -.22405453E+02 -.55474597E+02 -.70789931E+03 0.71042342E+03 0.75000000E+00 0.0000E+00 0.9000E+01
#aMCatNLO 1  0  0  5  1 0.28921293D+02 0.00000000D+00  -5  6  0 0.00000000D+00 0.00000000D+00 0.00000000D+00 0.00000000D+00 0.00000000D+00
  <mgrwgt>
 0.6926367990D-01   15    2    0
 0.390536540310403D+03 0.000000000000000D+00 0.000000000000000D+00 0.390536540310403D+03
 0.390536540310403D+03 -.000000000000000D+00 -.000000000000000D+00 -.390536540310403D+03
 0.225557707277265D+03 0.185340087357189D+03 0.299678479661113D+02 0.150313634975081D+01
 0.304178581652266D+03 -.162934566544951D+03 0.255069166519314D+02 0.242608981303938D+03
 0.251336791691274D+03 -.224055208122380D+02 -.554747646180426D+02 -.244112117653688D+03
 0.000000000000000D+00 0.000000000000000D+00 0.000000000000000D+00 -.000000000000000D+00
 0.390536540310403D+03 0.000000000000000D+00 0.000000000000000D+00 0.390536540310403D+03
 0.390536540310403D+03 -.000000000000000D+00 -.000000000000000D+00 -.390536540310403D+03
 0.225335879614818D+03 0.185150652013167D+03 0.294988170871587D+02 -.560795275636093D+00
 0.302054840611659D+03 -.163189265303688D+03 0.248762973591294D+02 0.239833993215947D+03
 0.163149204560595D+03 -.413594249161280D+02 -.251955714455720D+02 -.155795520150270D+03
 0.905331558337339D+02 0.193980382066495D+02 -.291795430007160D+02 -.834776777900408D+02
0.647987864165D-03 0.000000000000D+00 0.000000000000D+00 0.544309629040D-05 0.000000000000D+00  6 -2 1 25 -24 21 21 2 0.20988036D-01 0.17199857D+00 0.54958092D+05 0.54958092D+05 0.54958092D+05 0.11882365D+01  1  2  2  3  6  5       21 0.206314577147D-01 0.100000000000D+01
0.593904367667D-04 0.341952590537D-04 -.248844401752D-05 0.544309629040D-05 0.000000000000D+00  6 -2 1 25 -24 21 21 4 0.20988036D-01 0.17199857D+00 0.54958092D+05 0.54958092D+05 0.54958092D+05 0.11882365D+01  1  2  3  3  6  5       21 0.266984048241D-02 0.100000000000D+01
0.192156396789D-04 0.000000000000D+00 0.000000000000D+00 0.544309629040D-05 0.000000000000D+00  6 -2 1 25 -24 21 21 4 0.20988036D-01 0.17199857D+00 0.54958092D+05 0.54958092D+05 0.54958092D+05 0.11882365D+01  1  2 15  3  6  5       21 0.863820768175D-03 0.100000000000D+01
0.169222298355D-02 0.000000000000D+00 0.000000000000D+00 0.540513012885D-05 0.000000000000D+00  6 -2 1 25 -24 21 21 4 0.20988036D-01 0.17199857D+00 0.60620590D+05 0.60620590D+05 0.60620590D+05 0.11840852D+01  1  2 12  3  6  5       21 0.748646461063D-01 0.100000000000D+01
-.188177088465D-02 0.000000000000D+00 0.000000000000D+00 0.544309629040D-05 0.000000000000D+00  6 -2 1 25 -24 21 21 4 0.20988036D-01 0.17199857D+00 0.54958092D+05 0.54958092D+05 0.54958092D+05 0.11882365D+01  1  2  4  3  6  5       21 -.845932166857D-01 0.100000000000D+01
-.306165821382D-02 0.000000000000D+00 0.000000000000D+00 0.544309629040D-05 0.000000000000D+00  6 -2 1 25 -24 21 21 4 0.20988036D-01 0.17199857D+00 0.54958092D+05 0.54958092D+05 0.54958092D+05 0.11882365D+01  1  2  5  3  6  5       21 -.137633927069D+00 0.100000000000D+01
0.458355369116D-02 0.000000000000D+00 -.000000000000D+00 0.544309629040D-05 0.000000000000D+00  6 -2 1 25 -24 21 21 4 0.20988036D-01 0.17199857D+00 0.54958092D+05 0.54958092D+05 0.54958092D+05 0.11882365D+01  1  2  6  3  6  5       21 0.206049287801D+00 0.100000000000D+01
0.382439385339D-04 0.000000000000D+00 0.000000000000D+00 0.540513012885D-05 0.000000000000D+00  6 -2 1 25 -24 1 -1 4 0.20988036D-01 0.17199857D+00 0.60620590D+05 0.60620590D+05 0.60620590D+05 0.11840852D+01  1  2 12  6  6  5       21 0.169192769031D-02 0.100000000000D+01
-.113204157171D-03 0.000000000000D+00 0.000000000000D+00 0.544309629040D-05 0.000000000000D+00  6 -2 1 25 -24 1 -1 4 0.20988036D-01 0.17199857D+00 0.54958092D+05 0.54958092D+05 0.54958092D+05 0.11882365D+01  1  2  5  6  6  5       21 -.508898499568D-02 0.100000000000D+01
0.382439385339D-04 0.000000000000D+00 0.000000000000D+00 0.540513012885D-05 0.000000000000D+00  6 -2 1 25 -24 2 -2 4 0.20988036D-01 0.17199857D+00 0.60620590D+05 0.60620590D+05 0.60620590D+05 0.11840852D+01  1  2 12  7  6  5       21 0.169192769031D-02 0.100000000000D+01
-.113204157171D-03 0.000000000000D+00 0.000000000000D+00 0.544309629040D-05 0.000000000000D+00  6 -2 1 25 -24 2 -2 4 0.20988036D-01 0.17199857D+00 0.54958092D+05 0.54958092D+05 0.54958092D+05 0.11882365D+01  1  2  5  7  6  5       21 -.508898499568D-02 0.100000000000D+01
0.382439385339D-04 0.000000000000D+00 0.000000000000D+00 0.540513012885D-05 0.000000000000D+00  6 -2 1 25 -24 3 -3 4 0.20988036D-01 0.17199857D+00 0.60620590D+05 0.60620590D+05 0.60620590D+05 0.11840852D+01  1  2 12  8  6  5       21 0.169192769031D-02 0.100000000000D+01
0.382439385339D-04 0.000000000000D+00 0.000000000000D+00 0.540513012885D-05 0.000000000000D+00  6 -2 1 25 -24 4 -4 4 0.20988036D-01 0.17199857D+00 0.60620590D+05 0.60620590D+05 0.60620590D+05 0.11840852D+01  1  2 12  8  6  5       21 0.169192769031D-02 0.100000000000D+01
-.113204157171D-03 0.000000000000D+00 0.000000000000D+00 0.544309629040D-05 0.000000000000D+00  6 -2 1 25 -24 3 -3 4 0.20988036D-01 0.17199857D+00 0.54958092D+05 0.54958092D+05 0.54958092D+05 0.11882365D+01  1  2  5  8  6  5       21 -.508898499568D-02 0.100000000000D+01
-.113204157171D-03 0.000000000000D+00 0.000000000000D+00 0.544309629040D-05 0.000000000000D+00  6 -2 1 25 -24 4 -4 4 0.20988036D-01 0.17199857D+00 0.54958092D+05 0.54958092D+05 0.54958092D+05 0.11882365D+01  1  2  5  8  6  5       21 -.508898499568D-02 0.100000000000D+01
  </mgrwgt>
  </event>
  <event>
  5     66 -.39191994E-03 0.23330851E+02 0.75467711E-02 0.12408977E+00
       -2 -1    0    0    0  501 0.00000000E+00 0.00000000E+00 0.18495399E+03 0.18495427E+03 0.32000000E+00 0.0000E+00 0.9000E+01
        1 -1    0    0  502    0 0.00000000E+00 0.00000000E+00 -.80677507E+02 0.80678141E+02 0.32000000E+00 0.0000E+00 0.9000E+01
       25  1    1    2    0    0 0.23048207E+01 -.13482605E+02 0.89891547E+02 0.15457226E+03 0.12500000E+03 0.0000E+00 0.9000E+01
      -24  1    1    2    0    0 0.17941866E+02 0.25058622E+02 0.16284945E+02 0.87648505E+02 0.80419002E+02 0.0000E+00 0.9000E+01
       21  1    1    2  502  501 -.20246687E+02 -.11576016E+02 -.19000106E+01 0.23411643E+02 0.75000000E+00 0.0000E+00 0.9000E+01
#aMCatNLO 1  0  0  2  5 0.74217485D+01 0.00000000D+00  -5  6  0 0.00000000D+00 0.00000000D+00 0.00000000D+00 0.00000000D+00 0.00000000D+00
  <mgrwgt>
 -.7774194606D-01    9    4    0
 0.122154605609154D+03 0.000000000000000D+00 0.000000000000000D+00 0.122154605609154D+03
 0.122154605609154D+03 0.000000000000000D+00 0.000000000000000D+00 -.122154605609154D+03
 0.129696044559079D+03 0.230920516720216D+01 -.134800985797560D+02 0.317650513622494D+02
 0.883483519929969D+02 0.179448526695245D+02 0.250603293991658D+02 -.197022206510410D+02
 0.262648146662327D+02 -.202540578367267D+02 -.115802308194098D+02 -.120628307112084D+02
 0.000000000000000D+00 -.000000000000000D+00 0.000000000000000D+00 -.000000000000000D+00
 0.124276964983528D+03 0.000000000000000D+00 0.000000000000000D+00 0.124276964983528D+03
 0.128876273156510D+03 0.000000000000000D+00 0.000000000000000D+00 -.128876273156510D+03
 0.129913868800912D+03 0.615618028782296D+01 -.143421150127158D+02 0.317650513622494D+02
 0.887545951331908D+02 0.205692155937489D+02 0.244722715366115D+02 -.197022206510410D+02
 0.257534520967958D+02 -.194832360469682D+02 -.117529538105447D+02 -.120628307112084D+02
 0.873132210914030D+01 -.724215983460366D+01 0.162279728664904D+01 -.459930817298212D+01
 0.122154605609154D+03 0.000000000000000D+00 0.000000000000000D+00 0.122154605609154D+03
 0.122154605609154D+03 0.000000000000000D+00 0.000000000000000D+00 -.122154605609154D+03
 0.129696044559079D+03 0.230920516720216D+01 -.134800985797560D+02 0.317650513622494D+02
 0.883483519929969D+02 0.179448526695245D+02 0.250603293991658D+02 -.197022206510410D+02
 0.000000000000000D+00 -.000000000000000D+00 0.000000000000000D+00 -.000000000000000D+00
 0.262648146662327D+02 -.202540578367267D+02 -.115802308194098D+02 -.120628307112084D+02
 0.124276964983528D+03 0.000000000000000D+00 0.000000000000000D+00 0.124276964983528D+03
 0.128876273156510D+03 0.000000000000000D+00 0.000000000000000D+00 -.128876273156510D+03
 0.129913868800912D+03 0.615618028782296D+01 -.143421150127158D+02 0.317650513622494D+02
 0.887545951331908D+02 0.205692155937489D+02 0.244722715366115D+02 -.197022206510410D+02
 0.873132210914030D+01 -.724215983460366D+01 0.162279728664904D+01 -.459930817298212D+01
 0.257534520967958D+02 -.194832360469682D+02 -.117529538105447D+02 -.120628307112084D+02
0.110078653866D-03 0.000000000000D+00 0.000000000000D+00 0.458336133228D-04 0.000000000000D+00  6 -2 1 25 -24 21 21 2 0.28454530D-01 0.12411994D-01 0.13829794D+05 0.13829794D+05 0.13829794D+05 0.12518641D+01  1  2  2  2  6  2        1 0.771078654229D-01 0.100000000000D+01
0.156471838424D-04 0.580901015806D-05 -.422731015221D-06 0.458336133228D-04 0.000000000000D+00  6 -2 1 25 -24 21 21 4 0.28454530D-01 0.12411994D-01 0.13829794D+05 0.13829794D+05 0.13829794D+05 0.12518641D+01  1  2  3  2  6  2        1 0.171769543006D-01 0.100000000000D+01
0.506977762134D-05 0.000000000000D+00 0.000000000000D+00 0.458336133228D-04 0.000000000000D+00  6 -2 1 25 -24 21 21 4 0.28454530D-01 0.12411994D-01 0.13829794D+05 0.13829794D+05 0.13829794D+05 0.12518641D+01  1  2 15  2  6  2        1 0.556543205429D-02 0.100000000000D+01
-.111486367988D-03 0.000000000000D+00 0.000000000000D+00 0.458336133228D-04 0.000000000000D+00  6 -2 1 25 -24 21 21 4 0.28454530D-01 0.12411994D-01 0.13829794D+05 0.13829794D+05 0.13829794D+05 0.12518641D+01  1  2  4  2  6  2        1 -.122386000405D+00 0.100000000000D+01
-.308249487018D-02 0.000000000000D+00 -.466727595358D-03 0.458336133228D-04 0.000000000000D+00  6 -2 1 25 -24 21 21 4 0.28454530D-01 0.13310835D-01 0.13829794D+05 0.13829794D+05 0.13829794D+05 0.12518641D+01  1  2  5  2  6  2        1 -.308960748096D+01 0.100000000000D+01
0.310866369908D-02 0.000000000000D+00 0.465589204858D-03 0.458336133228D-04 0.000000000000D+00  6 -2 1 25 -24 21 21 4 0.28454530D-01 0.12411994D-01 0.13829794D+05 0.13829794D+05 0.13829794D+05 0.12518641D+01  1  2  6  2  6  2        1 0.341258688035D+01 0.100000000000D+01
0.170020777366D-05 0.000000000000D+00 0.000000000000D+00 0.458336133228D-04 0.958185880336D-05  6 -2 1 25 -24 21 21 4 0.28948909D-01 0.13094975D-01 0.14724145D+05 0.14724145D+05 0.14724145D+05 0.12487426D+01  1  2 11  2  6  2        1 0.167498842091D-02 0.100000000000D+01
-.357119079953D-04 0.000000000000D+00 -.552572613598D-05 0.458336133228D-04 0.000000000000D+00  6 -2 21 25 -24 -1 21 4 0.28454530D-01 0.13310835D-01 0.13829794D+05 0.13829794D+05 0.13829794D+05 0.12518641D+01  3  4  5  5  5  2        1 -.379982468244D+00 0.100000000000D+01
0.115738860823D-07 0.000000000000D+00 0.000000000000D+00 0.458336133228D-04 0.129845821198D-06  6 -2 21 25 -24 -1 21 4 0.28948909D-01 0.13094975D-01 0.14724145D+05 0.14724145D+05 0.14724145D+05 0.12487426D+01  3  4 11  5  5  2        1 0.121882998715D-03 0.100000000000D+01
  </mgrwgt>
  </event>
  <event>
  5     66 0.39191994E-03 0.21822191E+02 0.75467711E-02 0.11880341E+00
       -2 -1    0    0    0  501 0.00000000E+00 0.00000000E+00 0.33013549E+02 0.33015099E+02 0.32000000E+00 0.0000E+00 0.9000E+01
        1 -1    0    0  502    0 -.00000000E+00 -.00000000E+00 -.92848047E+03 0.92848053E+03 0.32000000E+00 0.0000E+00 0.9000E+01
       25  1    1    2    0    0 0.74449588E+02 0.73974782E+02 -.51449830E+03 0.53976709E+03 0.12500000E+03 0.0000E+00 0.9000E+01
      -24  1    1    2    0    0 -.91726454E+02 -.60651079E+02 -.21635462E+03 0.25567329E+03 0.80419002E+02 0.0000E+00 0.9000E+01
       21  1    1    2  502  501 0.17276866E+02 -.13323703E+02 -.16461401E+03 0.16605525E+03 0.75000000E+00 0.0000E+00 0.9000E+01
#aMCatNLO 1  0  0  5  2 0.10747066D+01 0.00000000D+00  -5  6  0 0.00000000D+00 0.00000000D+00 0.00000000D+00 0.00000000D+00 0.00000000D+00
  <mgrwgt>
 0.1734080031D+00   11    2    0
 0.175080573678077D+03 0.000000000000000D+00 0.000000000000000D+00 0.175080573678077D+03
 0.175080573678077D+03 -.000000000000000D+00 -.000000000000000D+00 -.175080573678077D+03
 0.166401136602108D+03 0.744477020066532D+02 0.739762367037199D+02 -.323943564769706D+02
 0.148762655803818D+03 -.917281401964346D+02 -.606497788492521D+02 0.597550368510865D+02
 0.349973549502287D+02 0.172804381897814D+02 -.133264578544679D+02 -.273606803741159D+02
 0.000000000000000D+00 0.000000000000000D+00 0.000000000000000D+00 0.000000000000000D+00
 0.175080573678077D+03 0.000000000000000D+00 0.000000000000000D+00 0.175080573678077D+03
 0.175080573678077D+03 -.000000000000000D+00 -.000000000000000D+00 -.175080573678077D+03
 0.166964270745192D+03 0.757625950495148D+02 0.729622076307078D+02 -.344762694398698D+02
 0.147680577267681D+03 -.905588792708010D+02 -.615514982544663D+02 0.579037079606466D+02
 0.326457610590346D+02 0.153114167857218D+02 -.131238870417354D+02 -.256723551715316D+02
 0.287053828424660D+01 -.515132564435595D+00 0.171317766549397D+01 0.224491665075478D+01
0.213306211527D-03 0.000000000000D+00 0.000000000000D+00 0.368805087066D-04 0.000000000000D+00  6 -2 1 25 -24 21 21 2 0.50791310D-02 0.14284327D+00 0.25804169D+05 0.25804169D+05 0.25804169D+05 0.12218262D+01  1  2  2  3  6  5       21 0.958179742028D-01 0.100000000000D+01
0.440646935724D-04 0.112564780366D-04 -.819152017080D-06 0.368805087066D-04 0.000000000000D+00  6 -2 1 25 -24 21 21 4 0.50791310D-02 0.14284327D+00 0.25804169D+05 0.25804169D+05 0.25804169D+05 0.12218262D+01  1  2  3  3  6  5       21 0.295497032014D-01 0.100000000000D+01
0.465308591213D-05 0.000000000000D+00 0.000000000000D+00 0.368805087066D-04 0.000000000000D+00  6 -2 1 25 -24 21 21 4 0.50791310D-02 0.14284327D+00 0.25804169D+05 0.25804169D+05 0.25804169D+05 0.12218262D+01  1  2 15  3  6  5       21 0.312035093239D-02 0.100000000000D+01
-.471344924072D-03 0.000000000000D+00 0.000000000000D+00 0.368805087066D-04 0.000000000000D+00  6 -2 1 25 -24 21 21 4 0.50791310D-02 0.14284327D+00 0.25804169D+05 0.25804169D+05 0.25804169D+05 0.12218262D+01  1  2  4  3  6  5       21 -.316083047053D+00 0.100000000000D+01
0.188392187339D-08 0.000000000000D+00 0.000000000000D+00 0.368805087066D-04 0.000000000000D+00  6 -2 1 25 -24 21 21 4 0.50791310D-02 0.14284327D+00 0.25804169D+05 0.25804169D+05 0.25804169D+05 0.12218262D+01  1  2  5  3  6  5       21 0.126335457483D-05 0.100000000000D+01
-.204714179884D-08 0.000000000000D+00 0.000000000000D+00 0.368805087066D-04 0.000000000000D+00  6 -2 1 25 -24 21 21 4 0.50791310D-02 0.14284327D+00 0.25804169D+05 0.25804169D+05 0.25804169D+05 0.12218262D+01  1  2  6  3  6  5       21 -.137280955937D-05 0.100000000000D+01
0.533138916459D-03 0.000000000000D+00 0.000000000000D+00 0.368805087066D-04 0.453828018694D-04  6 -2 1 25 -24 21 21 4 0.50791310D-02 0.14284327D+00 0.25788611D+05 0.25788611D+05 0.25788611D+05 0.12218542D+01  1  2 11  3  6  5       21 0.357551938082D+00 0.100000000000D+01
0.153372727170D-05 0.000000000000D+00 0.000000000000D+00 0.368821977089D-04 0.834685190866D-07  6 -2 1 25 -24 1 -1 4 0.50791310D-02 0.14284327D+00 0.25788611D+05 0.25788611D+05 0.25788611D+05 0.12218542D+01  1  2 11  6  6  5       21 0.102860087972D-02 0.100000000000D+01
0.555321679579D-06 0.000000000000D+00 0.000000000000D+00 0.368821977089D-04 0.896510013831D-07  6 -2 1 25 -24 2 -2 4 0.50791310D-02 0.14284327D+00 0.25788611D+05 0.25788611D+05 0.25788611D+05 0.12218542D+01  1  2 11  7  6  5       21 0.372428904855D-03 0.100000000000D+01
0.152847985875D-05 0.000000000000D+00 0.000000000000D+00 0.368821977089D-04 0.786659887597D-07  6 -2 1 25 -24 3 -3 4 0.50791310D-02 0.14284327D+00 0.25788611D+05 0.25788611D+05 0.25788611D+05 0.12218542D+01  1  2 11  8  6  5       21 0.102508167936D-02 0.100000000000D+01
0.152847985875D-05 0.000000000000D+00 0.000000000000D+00 0.368821977089D-04 0.786659887597D-07  6 -2 1 25 -24 4 -4 4 0.50791310D-02 0.14284327D+00 0.25788611D+05 0.25788611D+05 0.25788611D+05 0.12218542D+01  1  2 11  8  6  5       21 0.102508167936D-02 0.100000000000D+01
  </mgrwgt>
  </event>
  <event>
  6     66 0.39191994E-03 0.45989446E+02 0.75467711E-02 0.11744516E+00
       -2 -1    0    0    0  501 0.00000000E+00 0.00000000E+00 0.22435646E+03 0.22435669E+03 0.32000000E+00 0.0000E+00 0.9000E+01
        1 -1    0    0  503    0 0.00000000E+00 0.00000000E+00 -.48045272E+03 0.48045282E+03 0.32000000E+00 0.0000E+00 0.9000E+01
       25  1    1    2    0    0 -.54544217E+02 0.53070238E+02 0.82172747E+02 0.16783588E+03 0.12500000E+03 0.0000E+00 0.9000E+01
      -24  1    1    2    0    0 0.88815168E+02 -.88504892E+02 0.40716795E+02 0.15442255E+03 0.80419002E+02 0.0000E+00 0.9000E+01
       21  1    1    2  502  501 -.34074959E+02 0.28684573E+02 -.34727610E+03 0.35012164E+03 0.75000000E+00 0.0000E+00 0.9000E+01
       21  1    1    2  503  502 -.19599276E+00 0.67500816E+01 -.31709694E+02 0.32429449E+02 0.75000000E+00 0.0000E+00 0.9000E+01
#aMCatNLO 2  0  0  2  2 0.67529263D+01 0.00000000D+00  -5  6  0 0.00000000D+00 0.00000000D+00 0.00000000D+00 0.00000000D+00 0.00000000D+00
  <mgrwgt>
 0.2021667156D+00    4    2    0
 0.316899045504430D+03 0.000000000000000D+00 0.000000000000000D+00 0.316899045504430D+03
 0.316899045504430D+03 0.000000000000000D+00 0.000000000000000D+00 -.316899045504430D+03
 0.207727075299213D+03 -.546083090478836D+02 0.552793001769569D+02 0.146586729847015D+03
 0.177268216058213D+03 0.887602474442174D+02 -.866119328847636D+02 0.978611057861969D+02
 0.248802799651433D+03 -.341519383963339D+02 0.313326327078068D+02 -.244447835633212D+03
 0.000000000000000D+00 -.000000000000000D+00 0.000000000000000D+00 -.000000000000000D+00
 0.317420137982592D+03 0.000000000000000D+00 0.000000000000000D+00 0.317420137982592D+03
 0.339577301621159D+03 0.000000000000000D+00 0.000000000000000D+00 -.339577301621159D+03
 0.207133242950564D+03 -.545441661357325D+02 0.530701885104359D+02 0.146586729847015D+03
 0.178228160656427D+03 0.888152119029968D+02 -.885049343569686D+02 0.978611057861969D+02
 0.248472661571531D+03 -.340750530090819D+02 0.286846642843703D+02 -.244447835633212D+03
 0.231633744252287D+02 -.195992758182308D+00 0.675008156216234D+01 -.221571636385670D+02
-.708539874114D-03 0.000000000000D+00 0.000000000000D+00 0.214906961553D-04 0.000000000000D+00  6 -2 1 25 -24 21 21 4 0.34459083D-01 0.68978133D-01 0.29128020D+05 0.29128020D+05 0.29128020D+05 0.12162452D+01  1  2  8  2  6  2        1 -.568566729544D-01 0.100000000000D+01
-.681592367212D-03 0.000000000000D+00 0.000000000000D+00 0.214906961553D-04 0.000000000000D+00  6 -2 1 25 -24 21 21 4 0.34459083D-01 0.73973679D-01 0.29128020D+05 0.29128020D+05 0.29128020D+05 0.12162452D+01  1  2  9  2  6  2        1 -.499521238063D-01 0.100000000000D+01
0.679929677451D-03 0.000000000000D+00 0.000000000000D+00 0.214906961553D-04 0.000000000000D+00  6 -2 1 25 -24 21 21 4 0.34459083D-01 0.68978133D-01 0.29128020D+05 0.29128020D+05 0.29128020D+05 0.12162452D+01  1  2 10  2  6  2        1 0.545608521344D-01 0.100000000000D+01
0.349501752367D-02 0.000000000000D+00 0.000000000000D+00 0.214906961553D-04 0.468878621493D-05  6 -2 1 25 -24 21 21 4 0.34515746D-01 0.73914417D-01 0.30032185D+05 0.30032185D+05 0.30032185D+05 0.12148495D+01  1  2  1  2  6  2        1 0.254414660241D+00 0.100000000000D+01
  </mgrwgt>
  </event>
  <event>
  5     66 0.39191994E-03 0.56575626E+02 0.75467711E-02 0.12019397E+00
       -2 -1    0    0    0  501 0.00000000E+00 0.00000000E+00 0.13121919E+03 0.13121958E+03 0.32000000E+00 0.0000E+00 0.9000E+01
        1 -1    0    0  502    0 -.00000000E+00 -.00000000E+00 -.24229795E+03 0.24229816E+03 0.32000000E+00 0.0000E+00 0.9000E+01
       25  1    1    2    0    0 -.14844885E+01 0.87364038E+02 -.13991584E+03 0.20696889E+03 0.12500000E+03 0.0000E+00 0.9000E+01
      -24  1    1    2    0    0 -.18581210E+02 -.34467745E+02 -.20175472E+02 0.91692706E+02 0.80419002E+02 0.0000E+00 0.9000E+01
       21  1    1    2  502  501 0.20065698E+02 -.52896294E+02 0.49012556E+02 0.74856151E+02 0.75000000E+00 0.0000E+00 0.9000E+01
#aMCatNLO 1  0  0  5  2 0.51611452D+01 0.00000000D+00  -5  6  0 0.00000000D+00 0.00000000D+00 0.00000000D+00 0.00000000D+00 0.00000000D+00
  <mgrwgt>
 0.4016439151D-01   25    2    0
 0.178309434081484D+03 0.000000000000000D+00 0.000000000000000D+00 0.178309434081484D+03
 0.178309434081484D+03 -.000000000000000D+00 -.000000000000000D+00 -.178309434081484D+03
 0.173196728683960D+03 -.148480089806389D+01 0.873648617722505D+02 -.820809546766715D+02
 0.897533062361057D+02 -.185813716737779D+02 -.344673178618916D+02 0.742809881934110D+01
 0.936688332429023D+02 0.200661725718419D+02 -.528975439103589D+02 0.746528558573305D+02
 0.000000000000000D+00 0.000000000000000D+00 0.000000000000000D+00 0.000000000000000D+00
 0.178309434081484D+03 0.000000000000000D+00 0.000000000000000D+00 0.178309434081484D+03
 0.178309434081484D+03 -.000000000000000D+00 -.000000000000000D+00 -.178309434081484D+03
 0.172669901520024D+03 -.131460683533666D+01 0.869162038194614D+02 -.814477759881568D+02
 0.898525860840847D+02 -.184929912003981D+02 -.347003025008251D+02 0.775690366322485D+01
 0.843376875483708D+02 0.162533815230195D+02 -.438244893496252D+02 0.702003366325146D+02
 0.975869301048862D+01 0.355421651271527D+01 -.839141196901108D+01 0.349053569241730D+01
0.329608467931D-04 0.000000000000D+00 0.000000000000D+00 0.771023867648D-05 0.000000000000D+00  6 -2 1 25 -24 21 21 2 0.20187615D-01 0.37276654D-01 0.22280449D+05 0.22280449D+05 0.22280449D+05 0.12286966D+01  1  2  2  3  6  5       21 0.101492801076D-01 0.100000000000D+01
-.441523584845D-06 0.173939167236D-05 -.126578330476D-06 0.771023867648D-05 0.000000000000D+00  6 -2 1 25 -24 21 21 4 0.20187615D-01 0.37276654D-01 0.22280449D+05 0.22280449D+05 0.22280449D+05 0.12286966D+01  1  2  3  3  6  5       21 -.205248548780D-03 0.100000000000D+01
0.131196202162D-05 0.000000000000D+00 0.000000000000D+00 0.771023867648D-05 0.000000000000D+00  6 -2 1 25 -24 21 21 4 0.20187615D-01 0.37276654D-01 0.22280449D+05 0.22280449D+05 0.22280449D+05 0.12286966D+01  1  2 15  3  6  5       21 0.609884296635D-03 0.100000000000D+01
0.586659308836D-04 0.000000000000D+00 0.000000000000D+00 0.771384751385D-05 0.000000000000D+00  6 -2 1 25 -24 21 21 4 0.20187615D-01 0.37276654D-01 0.22145190D+05 0.22145190D+05 0.22145190D+05 0.12289841D+01  1  2 12  3  6  5       21 0.272939898554D-01 0.100000000000D+01
0.721428400145D-04 0.000000000000D+00 0.000000000000D+00 0.771384751385D-05 0.000000000000D+00  6 -2 1 25 -24 21 21 4 0.20187615D-01 0.37276654D-01 0.22145190D+05 0.22145190D+05 0.22145190D+05 0.12289841D+01  1  2 12  3  6  5       21 0.335640449890D-01 0.100000000000D+01
-.332514535521D-03 0.000000000000D+00 0.000000000000D+00 0.771023867648D-05 0.000000000000D+00  6 -2 1 25 -24 21 21 4 0.20187615D-01 0.37276654D-01 0.22280449D+05 0.22280449D+05 0.22280449D+05 0.12286966D+01  1  2  4  3  6  5       21 -.154574134217D+00 0.100000000000D+01
-.494016894547D-03 0.000000000000D+00 0.000000000000D+00 0.771023867648D-05 0.000000000000D+00  6 -2 1 25 -24 21 21 4 0.20187615D-01 0.37276654D-01 0.22280449D+05 0.22280449D+05 0.22280449D+05 0.12286966D+01  1  2  5  3  6  5       21 -.229650814042D+00 0.100000000000D+01
0.539710552949D-03 0.000000000000D+00 -.000000000000D+00 0.771023867648D-05 0.000000000000D+00  6 -2 1 25 -24 21 21 4 0.20187615D-01 0.37276654D-01 0.22280449D+05 0.22280449D+05 0.22280449D+05 0.12286966D+01  1  2  6  3  6  5       21 0.250892164216D+00 0.100000000000D+01
0.219515103580D-03 0.000000000000D+00 0.000000000000D+00 0.771023867648D-05 0.181311029829D-05  6 -2 1 25 -24 21 21 4 0.20187615D-01 0.37276654D-01 0.22145190D+05 0.22145190D+05 0.22145190D+05 0.12289841D+01  1  2 11  3  6  5       21 0.102128150359D+00 0.100000000000D+01
0.838132837766D-06 0.000000000000D+00 0.000000000000D+00 0.771384751385D-05 0.000000000000D+00  6 -2 1 25 -24 1 -1 4 0.20187615D-01 0.37276654D-01 0.22145190D+05 0.22145190D+05 0.22145190D+05 0.12289841D+01  1  2 12  6  6  5       21 0.389936524094D-03 0.100000000000D+01
0.902590300266D-06 0.000000000000D+00 0.000000000000D+00 0.771384751385D-05 0.000000000000D+00  6 -2 1 25 -24 1 -1 4 0.20187615D-01 0.37276654D-01 0.22145190D+05 0.22145190D+05 0.22145190D+05 0.12289841D+01  1  2 12  6  6  5       21 0.419924991013D-03 0.100000000000D+01
-.308900346032D-05 0.000000000000D+00 0.000000000000D+00 0.771023867648D-05 0.000000000000D+00  6 -2 1 25 -24 1 -1 4 0.20187615D-01 0.37276654D-01 0.22280449D+05 0.22280449D+05 0.22280449D+05 0.12286966D+01  1  2  5  6  6  5       21 -.143596740733D-02 0.100000000000D+01
0.131038904322D-05 0.000000000000D+00 0.000000000000D+00 0.771023867648D-05 0.197918142976D-07  6 -2 1 25 -24 1 -1 4 0.20187615D-01 0.37276654D-01 0.22145190D+05 0.22145190D+05 0.22145190D+05 0.12289841D+01  1  2 11  6  6  5       21 0.609651031078D-03 0.100000000000D+01
0.838132837766D-06 0.000000000000D+00 0.000000000000D+00 0.771384751385D-05 0.000000000000D+00  6 -2 1 25 -24 2 -2 4 0.20187615D-01 0.37276654D-01 0.22145190D+05 0.22145190D+05 0.22145190D+05 0.12289841D+01  1  2 12  7  6  5       21 0.389936524094D-03 0.100000000000D+01
0.902590300266D-06 0.000000000000D+00 0.000000000000D+00 0.771384751385D-05 0.000000000000D+00  6 -2 1 25 -24 2 -2 4 0.20187615D-01 0.37276654D-01 0.22145190D+05 0.22145190D+05 0.22145190D+05 0.12289841D+01  1  2 12  7  6  5       21 0.419924991013D-03 0.100000000000D+01
-.308900346032D-05 0.000000000000D+00 0.000000000000D+00 0.771023867648D-05 0.000000000000D+00  6 -2 1 25 -24 2 -2 4 0.20187615D-01 0.37276654D-01 0.22280449D+05 0.22280449D+05 0.22280449D+05 0.12286966D+01  1  2  5  7  6  5       21 -.143596740733D-02 0.100000000000D+01
0.135500201275D-05 0.000000000000D+00 0.000000000000D+00 0.771023867648D-05 0.214879793534D-07  6 -2 1 25 -24 2 -2 4 0.20187615D-01 0.37276654D-01 0.22145190D+05 0.22145190D+05 0.22145190D+05 0.12289841D+01  1  2 11  7  6  5       21 0.630406960785D-03 0.100000000000D+01
0.838132837766D-06 0.000000000000D+00 0.000000000000D+00 0.771384751385D-05 0.000000000000D+00  6 -2 1 25 -24 3 -3 4 0.20187615D-01 0.37276654D-01 0.22145190D+05 0.22145190D+05 0.22145190D+05 0.12289841D+01  1  2 12  8  6  5       21 0.389936524094D-03 0.100000000000D+01
0.838132837766D-06 0.000000000000D+00 0.000000000000D+00 0.771384751385D-05 0.000000000000D+00  6 -2 1 25 -24 4 -4 4 0.20187615D-01 0.37276654D-01 0.22145190D+05 0.22145190D+05 0.22145190D+05 0.12289841D+01  1  2 12  8  6  5       21 0.389936524094D-03 0.100000000000D+01
0.902590300266D-06 0.000000000000D+00 0.000000000000D+00 0.771384751385D-05 0.000000000000D+00  6 -2 1 25 -24 3 -3 4 0.20187615D-01 0.37276654D-01 0.22145190D+05 0.22145190D+05 0.22145190D+05 0.12289841D+01  1  2 12  8  6  5       21 0.419924991013D-03 0.100000000000D+01
0.902590300266D-06 0.000000000000D+00 0.000000000000D+00 0.771384751385D-05 0.000000000000D+00  6 -2 1 25 -24 4 -4 4 0.20187615D-01 0.37276654D-01 0.22145190D+05 0.22145190D+05 0.22145190D+05 0.12289841D+01  1  2 12  8  6  5       21 0.419924991013D-03 0.100000000000D+01
-.308900346032D-05 0.000000000000D+00 0.000000000000D+00 0.771023867648D-05 0.000000000000D+00  6 -2 1 25 -24 3 -3 4 0.20187615D-01 0.37276654D-01 0.22280449D+05 0.22280449D+05 0.22280449D+05 0.12286966D+01  1  2  5  8  6  5       21 -.143596740733D-02 0.100000000000D+01
-.308900346032D-05 0.000000000000D+00 0.000000000000D+00 0.771023867648D-05 0.000000000000D+00  6 -2 1 25 -24 4 -4 4 0.20187615D-01 0.37276654D-01 0.22280449D+05 0.22280449D+05 0.22280449D+05 0.12286966D+01  1  2  5  8  6  5       21 -.143596740733D-02 0.100000000000D+01
0.131268676871D-05 0.000000000000D+00 0.000000000000D+00 0.771023867648D-05 0.198183615105D-07  6 -2 1 25 -24 3 -3 4 0.20187615D-01 0.37276654D-01 0.22145190D+05 0.22145190D+05 0.22145190D+05 0.12289841D+01  1  2 11  8  6  5       21 0.610720034763D-03 0.100000000000D+01
0.131268676871D-05 0.000000000000D+00 0.000000000000D+00 0.771023867648D-05 0.198183615105D-07  6 -2 1 25 -24 4 -4 4 0.20187615D-01 0.37276654D-01 0.22145190D+05 0.22145190D+05 0.22145190D+05 0.12289841D+01  1  2 11  8  6  5       21 0.610720034763D-03 0.100000000000D+01
  </mgrwgt>
  </event>
  <event>
  5     66 0.39191994E-03 0.22889913E+02 0.75467711E-02 0.11663060E+00
       -2 -1    0    0    0  501 0.00000000E+00 0.00000000E+00 0.57611093E+03 0.57611102E+03 0.32000000E+00 0.0000E+00 0.9000E+01
        1 -1    0    0  502    0 0.00000000E+00 0.00000000E+00 -.19920883E+03 0.19920909E+03 0.32000000E+00 0.0000E+00 0.9000E+01
       25  1    1    2    0    0 0.61677832E+02 -.11732939E+03 -.67682962E+02 0.19436132E+03 0.12500000E+03 0.0000E+00 0.9000E+01
      -24  1    1    2    0    0 -.42311009E+02 0.10512809E+03 0.32153477E+01 0.13899529E+03 0.80419002E+02 0.0000E+00 0.9000E+01
       21  1    1    2  502  501 -.19366823E+02 0.12201294E+02 0.44136971E+03 0.44196349E+03 0.75000000E+00 0.0000E+00 0.9000E+01
#aMCatNLO 1  0  0  5  2 0.17618282D+02 0.00000000D+00  -5  6  0 0.00000000D+00 0.00000000D+00 0.00000000D+00 0.00000000D+00 0.00000000D+00
  <mgrwgt>
 0.4841985571D+00   15    2    0
 0.338772077596334D+03 0.000000000000000D+00 0.000000000000000D+00 0.338772077596334D+03
 0.338772077596334D+03 -.000000000000000D+00 -.000000000000000D+00 -.338772077596334D+03
 0.260060249937981D+03 0.616778630454375D+02 -.117329406429699D+03 -.185569354136959D+03
 0.157265095287065D+03 -.423109900307724D+02 0.105128081348085D+03 -.736407555363572D+02
 0.260218809967623D+03 -.193668730146653D+02 0.122013250816139D+02 0.259210109673316D+03
 0.000000000000000D+00 -.000000000000000D+00 0.000000000000000D+00 0.000000000000000D+00
 0.338772077596334D+03 0.000000000000000D+00 0.000000000000000D+00 0.338772077596334D+03
 0.338772077596334D+03 -.000000000000000D+00 -.000000000000000D+00 -.338772077596334D+03
 0.259361492706034D+03 0.616084129434210D+02 -.117285652165858D+03 -.184639820053326D+03
 0.157031566978439D+03 -.423530135609132D+02 0.105154556595376D+03 -.730783041871690D+02
 0.147534960585235D+03 -.114069814153878D+01 0.215353255511964D+02 0.145950310571923D+03
 0.113616134922961D+03 -.181147012409692D+02 -.940422998071462D+01 0.111767813668572D+03
0.205612521591D-02 0.000000000000D+00 0.000000000000D+00 0.752610106157D-04 0.000000000000D+00  6 -2 1 25 -24 21 21 2 0.88632478D-01 0.30647539D-01 0.29591552D+05 0.29591552D+05 0.29591552D+05 0.12155237D+01  1  2  2  3  6  5       21 0.451087109891D-01 0.100000000000D+01
0.725335498550D-03 0.108504708642D-03 -.789606221929D-05 0.752610106157D-04 0.000000000000D+00  6 -2 1 25 -24 21 21 4 0.88632478D-01 0.30647539D-01 0.29591552D+05 0.29591552D+05 0.29591552D+05 0.12155237D+01  1  2  3  3  6  5       21 0.235113019841D-01 0.100000000000D+01
0.423344670770D-04 0.000000000000D+00 0.000000000000D+00 0.752610106157D-04 0.000000000000D+00  6 -2 1 25 -24 21 21 4 0.88632478D-01 0.30647539D-01 0.29591552D+05 0.29591552D+05 0.29591552D+05 0.12155237D+01  1  2 15  3  6  5       21 0.137224559087D-02 0.100000000000D+01
0.122464262223D-01 0.000000000000D+00 0.000000000000D+00 0.746561426270D-04 0.000000000000D+00  6 -2 1 25 -24 21 21 4 0.88632478D-01 0.30647539D-01 0.32962400D+05 0.32962400D+05 0.32962400D+05 0.12106293D+01  1  2 12  3  6  5       21 0.390355825035D+00 0.100000000000D+01
-.126733621744D-01 0.000000000000D+00 0.000000000000D+00 0.752610106157D-04 0.000000000000D+00  6 -2 1 25 -24 21 21 4 0.88632478D-01 0.30647539D-01 0.29591552D+05 0.29591552D+05 0.29591552D+05 0.12155237D+01  1  2  4  3  6  5       21 -.410799203723D+00 0.100000000000D+01
-.238075792277D-01 0.000000000000D+00 0.000000000000D+00 0.752610106157D-04 0.000000000000D+00  6 -2 1 25 -24 21 21 4 0.88632478D-01 0.30647539D-01 0.29591552D+05 0.29591552D+05 0.29591552D+05 0.12155237D+01  1  2  5  3  6  5       21 -.771707969418D+00 0.100000000000D+01
0.394939789512D-01 0.000000000000D+00 -.000000000000D+00 0.752610106157D-04 0.000000000000D+00  6 -2 1 25 -24 21 21 4 0.88632478D-01 0.30647539D-01 0.29591552D+05 0.29591552D+05 0.29591552D+05 0.12155237D+01  1  2  6  3  6  5       21 0.128017292347D+01 0.100000000000D+01
0.485227360747D-03 0.000000000000D+00 0.000000000000D+00 0.746561426270D-04 0.000000000000D+00  6 -2 1 25 -24 1 -1 4 0.88632478D-01 0.30647539D-01 0.32962400D+05 0.32962400D+05 0.32962400D+05 0.12106293D+01  1  2 12  6  6  5       21 0.154666613179D-01 0.100000000000D+01
-.104646389528D-02 0.000000000000D+00 0.000000000000D+00 0.752610106157D-04 0.000000000000D+00  6 -2 1 25 -24 1 -1 4 0.88632478D-01 0.30647539D-01 0.29591552D+05 0.29591552D+05 0.29591552D+05 0.12155237D+01  1  2  5  6  6  5       21 -.339204805314D-01 0.100000000000D+01
0.485227360747D-03 0.000000000000D+00 0.000000000000D+00 0.746561426270D-04 0.000000000000D+00  6 -2 1 25 -24 2 -2 4 0.88632478D-01 0.30647539D-01 0.32962400D+05 0.32962400D+05 0.32962400D+05 0.12106293D+01  1  2 12  7  6  5       21 0.154666613179D-01 0.100000000000D+01
-.104646389528D-02 0.000000000000D+00 0.000000000000D+00 0.752610106157D-04 0.000000000000D+00  6 -2 1 25 -24 2 -2 4 0.88632478D-01 0.30647539D-01 0.29591552D+05 0.29591552D+05 0.29591552D+05 0.12155237D+01  1  2  5  7  6  5       21 -.339204805314D-01 0.100000000000D+01
0.485227360747D-03 0.000000000000D+00 0.000000000000D+00 0.746561426270D-04 0.000000000000D+00  6 -2 1 25 -24 3 -3 4 0.88632478D-01 0.30647539D-01 0.32962400D+05 0.32962400D+05 0.32962400D+05 0.12106293D+01  1  2 12  8  6  5       21 0.154666613179D-01 0.100000000000D+01
0.485227360747D-03 0.000000000000D+00 0.000000000000D+00 0.746561426270D-04 0.000000000000D+00  6 -2 1 25 -24 4 -4 4 0.88632478D-01 0.30647539D-01 0.32962400D+05 0.32962400D+05 0.32962400D+05 0.12106293D+01  1  2 12  8  6  5       21 0.154666613179D-01 0.100000000000D+01
-.104646389528D-02 0.000000000000D+00 0.000000000000D+00 0.752610106157D-04 0.000000000000D+00  6 -2 1 25 -24 3 -3 4 0.88632478D-01 0.30647539D-01 0.29591552D+05 0.29591552D+05 0.29591552D+05 0.12155237D+01  1  2  5  8  6  5       21 -.339204805314D-01 0.100000000000D+01
-.104646389528D-02 0.000000000000D+00 0.000000000000D+00 0.752610106157D-04 0.000000000000D+00  6 -2 1 25 -24 4 -4 4 0.88632478D-01 0.30647539D-01 0.29591552D+05 0.29591552D+05 0.29591552D+05 0.12155237D+01  1  2  5  8  6  5       21 -.339204805314D-01 0.100000000000D+01
  </mgrwgt>
  </event>
  <event>
  5     66 0.39191994E-03 0.43714765E+02 0.75467711E-02 0.11607653E+00
       -2 -1    0    0    0  501 0.00000000E+00 0.00000000E+00 0.43257020E+02 0.43258204E+02 0.32000000E+00 0.0000E+00 0.9000E+01
        1 -1    0    0  502    0 0.00000000E+00 0.00000000E+00 -.94122944E+03 0.94122949E+03 0.32000000E+00 0.0000E+00 0.9000E+01
       25  1    1    2    0    0 -.99818352E+02 0.33262250E+02 -.46783924E+03 0.49554882E+03 0.12500000E+03 0.0000E+00 0.9000E+01
      -24  1    1    2    0    0 0.57109106E+02 -.42577617E+02 -.74753702E+02 0.13088023E+03 0.80419002E+02 0.0000E+00 0.9000E+01
       21  1    1    2  502  501 0.42709247E+02 0.93153665E+01 -.35537948E+03 0.35805865E+03 0.75000000E+00 0.0000E+00 0.9000E+01
#aMCatNLO 1  0  0  1  2 0.23139263D+02 0.00000000D+00  -5  6  0 0.00000000D+00 0.00000000D+00 0.00000000D+00 0.00000000D+00 0.00000000D+00
  <mgrwgt>
 0.7396733405D-01    4    2    0
 0.201780549175016D+03 0.000000000000000D+00 0.000000000000000D+00 0.201780549175016D+03
 0.201780549175016D+03 0.000000000000000D+00 0.000000000000000D+00 -.201780549175016D+03
 0.167892881204183D+03 -.998190827341647D+02 0.332620907316630D+02 -.386368166560137D+02
 0.152946968226263D+03 0.571084402649574D+02 -.425777616489640D+02 0.108863765315658D+03
 0.827212489195868D+02 0.427106424692073D+02 0.931567091730100D+01 -.702269486596445D+02
 0.000000000000000D+00 -.000000000000000D+00 -.000000000000000D+00 -.000000000000000D+00
 0.220482293346406D+03 0.000000000000000D+00 0.000000000000000D+00 0.220482293346406D+03
 0.243038594336507D+03 0.000000000000000D+00 0.000000000000000D+00 -.243038594336507D+03
 0.163058994469835D+03 -.846210780177280D+02 0.480593927481482D+02 -.386368166560137D+02
 0.155652337890189D+03 0.712799680748394D+02 -.287798729819701D+02 0.108863765315658D+03
 0.881790545986790D+02 0.505587430839003D+02 0.169568525867461D+02 -.702269486596445D+02
 0.566305007242100D+02 -.372176331410117D+02 -.362363723529241D+02 -.225563009901016D+02
0.283186384565D-03 0.000000000000D+00 0.000000000000D+00 0.884906340989D-05 0.000000000000D+00  6 -2 1 25 -24 21 21 2 0.66550214D-02 0.14480462D+00 0.24732695D+05 0.24732695D+05 0.24732695D+05 0.12237985D+01  1  2  2  1  6  1       -2 0.827362392377D-01 0.100000000000D+01
0.776618432269D-05 0.149441560810D-04 -.108751028142D-05 0.884906340989D-05 0.000000000000D+00  6 -2 1 25 -24 21 21 4 0.66550214D-02 0.14480462D+00 0.24732695D+05 0.24732695D+05 0.24732695D+05 0.12237985D+01  1  2  3  1  6  1       -2 0.339821556886D-02 0.100000000000D+01
0.108109838242D-04 0.000000000000D+00 0.000000000000D+00 0.884906340989D-05 0.000000000000D+00  6 -2 1 25 -24 21 21 4 0.66550214D-02 0.14480462D+00 0.24732695D+05 0.24732695D+05 0.24732695D+05 0.12237985D+01  1  2 15  1  6  1       -2 0.473051527230D-02 0.100000000000D+01
-.386173723688D-04 0.000000000000D+00 0.000000000000D+00 0.884906340989D-05 0.000000000000D+00  6 -2 1 25 -24 21 21 4 0.66550214D-02 0.14480462D+00 0.24732695D+05 0.24732695D+05 0.24732695D+05 0.12237985D+01  1  2  4  1  6  1       -2 -.168976360281D-01 0.100000000000D+01
  </mgrwgt>
  </event>
  <event>
  5     66 0.39191994E-03 0.71028225E+02 0.75467711E-02 0.11661555E+00
       -2 -1    0    0    0  501 0.00000000E+00 0.00000000E+00 0.90485533E+03 0.90485539E+03 0.32000000E+00 0.0000E+00 0.9000E+01
        1 -1    0    0  502    0 0.00000000E+00 0.00000000E+00 -.44883175E+02 0.44884315E+02 0.32000000E+00 0.0000E+00 0.9000E+01
       25  1    1    2    0    0 -.90542074E+02 0.10178929E+02 0.64769688E+03 0.66591120E+03 0.12500000E+03 0.0000E+00 0.9000E+01
      -24  1    1    2    0    0 0.49779191E+02 -.68343319E+02 0.14354513E+03 0.18498972E+03 0.80419002E+02 0.0000E+00 0.9000E+01
       21  1    1    2  502  501 0.40762883E+02 0.58164391E+02 0.68730144E+02 0.98838779E+02 0.75000000E+00 0.0000E+00 0.9000E+01
#aMCatNLO 1  0  0  1  5 0.20859058D+02 0.00000000D+00  -5  6  0 0.00000000D+00 0.00000000D+00 0.00000000D+00 0.00000000D+00 0.00000000D+00
  <mgrwgt>
 0.5411276984D-01    9    4    0
 0.201527537992367D+03 0.000000000000000D+00 0.000000000000000D+00 0.201527537992367D+03
 0.201527537992367D+03 0.000000000000000D+00 0.000000000000000D+00 -.201527537992367D+03
 0.187173762421949D+03 -.905427898000386D+02 0.101779076110022D+02 0.105391796412606D+03
 0.129628037129310D+03 0.497786957813140D+02 -.683440267102011D+02 -.564569527602587D+02
 0.862532764334740D+02 0.407640940187246D+02 0.581661190991989D+02 -.489348436523472D+02
 0.000000000000000D+00 -.000000000000000D+00 0.000000000000000D+00 0.000000000000000D+00
 0.222173419271974D+03 0.000000000000000D+00 0.000000000000000D+00 0.222173419271974D+03
 0.207135577417391D+03 0.000000000000000D+00 0.000000000000000D+00 -.207135577417391D+03
 0.185140823629881D+03 -.868506713578214D+02 0.128635452748854D+01 0.105391796412606D+03
 0.134055995672575D+03 0.523935615880770D+02 -.746412835536558D+02 -.564569527602587D+02
 0.843976486683443D+02 0.424563818080140D+02 0.540906629765041D+02 -.489348436523472D+02
 0.257145287185650D+02 -.799927203826963D+01 0.192642660496632D+02 0.150378418545833D+02
 0.201527537992367D+03 0.000000000000000D+00 0.000000000000000D+00 0.201527537992367D+03
 0.201527537992367D+03 0.000000000000000D+00 0.000000000000000D+00 -.201527537992367D+03
 0.187173762421949D+03 -.905427898000386D+02 0.101779076110022D+02 0.105391796412606D+03
 0.129628037129310D+03 0.497786957813140D+02 -.683440267102011D+02 -.564569527602587D+02
 0.000000000000000D+00 -.000000000000000D+00 0.000000000000000D+00 0.000000000000000D+00
 0.862532764334740D+02 0.407640940187246D+02 0.581661190991989D+02 -.489348436523472D+02
 0.222173419271974D+03 0.000000000000000D+00 0.000000000000000D+00 0.222173419271974D+03
 0.207135577417391D+03 0.000000000000000D+00 0.000000000000000D+00 -.207135577417391D+03
 0.185140823629881D+03 -.868506713578214D+02 0.128635452748854D+01 0.105391796412606D+03
 0.134055995672575D+03 0.523935615880770D+02 -.746412835536558D+02 -.564569527602587D+02
 0.257145287185650D+02 -.799927203826963D+01 0.192642660496632D+02 0.150378418545833D+02
 0.843976486683443D+02 0.424563818080140D+02 0.540906629765041D+02 -.489348436523472D+02
0.402014809796D-03 0.000000000000D+00 0.000000000000D+00 0.319756444270D-05 0.000000000000D+00  6 -2 1 25 -24 21 21 2 0.13920860D+00 0.69051959D-02 0.29309137D+05 0.29309137D+05 0.29309137D+05 0.12159618D+01  1  2  2  1  6  1       -2 0.211525927940D-01 0.100000000000D+01
-.129394820484D-04 0.212149043595D-04 -.154384272255D-05 0.319756444270D-05 0.000000000000D+00  6 -2 1 25 -24 21 21 4 0.13920860D+00 0.69051959D-02 0.29309137D+05 0.29309137D+05 0.29309137D+05 0.12159618D+01  1  2  3  1  6  1       -2 -.100664953552D-02 0.100000000000D+01
0.181514771926D-04 0.000000000000D+00 0.000000000000D+00 0.319756444270D-05 0.000000000000D+00  6 -2 1 25 -24 21 21 4 0.13920860D+00 0.69051959D-02 0.29309137D+05 0.29309137D+05 0.29309137D+05 0.12159618D+01  1  2 15  1  6  1       -2 0.141212577262D-02 0.100000000000D+01
0.152992123587D-02 0.000000000000D+00 0.000000000000D+00 0.316917171584D-05 0.000000000000D+00  6 -2 1 25 -24 21 21 4 0.15910289D+00 0.69051959D-02 0.33019593D+05 0.33019593D+05 0.33019593D+05 0.12105512D+01  1  2 12  1  6  1       -2 0.830894997252D-01 0.100000000000D+01
-.140721349421D-02 0.000000000000D+00 0.000000000000D+00 0.319756444270D-05 0.000000000000D+00  6 -2 1 25 -24 21 21 4 0.13920860D+00 0.69051959D-02 0.29309137D+05 0.29309137D+05 0.29309137D+05 0.12159618D+01  1  2  4  1  6  1       -2 -.109476623950D+00 0.100000000000D+01
-.429971408937D-02 0.000000000000D+00 -.767398182775D-03 0.319756444270D-05 0.000000000000D+00  6 -2 1 25 -24 21 21 4 0.15595268D+00 0.69051959D-02 0.29309137D+05 0.29309137D+05 0.29309137D+05 0.12159618D+01  1  2  5  1  6  1       -2 -.250260950780D+00 0.100000000000D+01
0.436362170172D-02 0.000000000000D+00 0.762474855424D-03 0.319756444270D-05 0.000000000000D+00  6 -2 1 25 -24 21 21 4 0.13920860D+00 0.69051959D-02 0.29309137D+05 0.29309137D+05 0.29309137D+05 0.12159618D+01  1  2  6  1  6  1       -2 0.339475547999D+00 0.100000000000D+01
0.317413900943D-04 0.000000000000D+00 0.000000000000D+00 0.316917171584D-05 0.000000000000D+00  6 21 1 25 -24 2 21 4 0.15910289D+00 0.69051959D-02 0.33019593D+05 0.33019593D+05 0.33019593D+05 0.12105512D+01  3  4 12  4  5  1       -2 0.196851541264D-01 0.100000000000D+01
-.746729901234D-04 0.000000000000D+00 -.138997296702D-04 0.319756444270D-05 0.000000000000D+00  6 21 1 25 -24 2 21 4 0.15595268D+00 0.69051959D-02 0.29309137D+05 0.29309137D+05 0.29309137D+05 0.12159618D+01  3  4  5  4  5  1       -2 -.499579263066D-01 0.100000000000D+01
  </mgrwgt>
  </event>
  <event>
  5     66 -.39191994E-03 0.20961022E+02 0.75467711E-02 0.11978950E+00
       -2 -1    0    0    0  501 0.00000000E+00 0.00000000E+00 0.17706162E+02 0.17709053E+02 0.32000000E+00 0.0000E+00 0.9000E+01
        1 -1    0    0  502    0 0.00000000E+00 0.00000000E+00 -.20681106E+04 0.20681107E+04 0.32000000E+00 0.0000E+00 0.9000E+01
       25  1    1    2    0    0 -.89398042E+02 0.59305012E+02 -.14199816E+04 0.14295040E+04 0.12500000E+03 0.0000E+00 0.9000E+01
      -24  1    1    2    0    0 0.70869289E+02 -.49512714E+02 -.26292496E+03 0.28821991E+03 0.80419002E+02 0.0000E+00 0.9000E+01
       21  1    1    2  502  501 0.18528753E+02 -.97922978E+01 -.36749795E+03 0.36809578E+03 0.75000000E+00 0.0000E+00 0.9000E+01
#aMCatNLO 1  0  0  2  5 0.50379976D+00 0.00000000D+00  -5  6  0 0.00000000D+00 0.00000000D+00 0.00000000D+00 0.00000000D+00 0.00000000D+00
  <mgrwgt>
 -.1649225377D+01   11    4    0
 0.191367038003465D+03 0.000000000000000D+00 0.000000000000000D+00 0.191367038003465D+03
 0.191367038003465D+03 0.000000000000000D+00 0.000000000000000D+00 -.191367038003465D+03
 0.183289301211385D+03 -.893998397670758D+02 0.593059617362441D+02 -.803768591742569D+02
 0.162182009404860D+03 0.708676981642803D+02 -.495118730389664D+02 0.111185124928191D+03
 0.372627653906846D+02 0.185321416027955D+02 -.979408869727768D+01 -.308082657539336D+02
 0.000000000000000D+00 0.000000000000000D+00 0.000000000000000D+00 -.000000000000000D+00
 0.191375695815894D+03 0.000000000000000D+00 0.000000000000000D+00 0.191375695815894D+03
 0.198839340310345D+03 0.000000000000000D+00 0.000000000000000D+00 -.198839340310345D+03
 0.183367746022470D+03 -.896223453960897D+02 0.592125493147087D+02 -.803768591742569D+02
 0.162121365901632D+03 0.706708948379614D+02 -.495944951072670D+02 0.111185124928191D+03
 0.372452956630380D+02 0.184869264266072D+02 -.981307095456535D+01 -.308082657539336D+02
 0.748062853909846D+01 0.464524131521106D+00 0.195016747123675D+00 -.746364449445111D+01
 0.191367038003465D+03 0.000000000000000D+00 0.000000000000000D+00 0.191367038003465D+03
 0.191367038003465D+03 0.000000000000000D+00 0.000000000000000D+00 -.191367038003465D+03
 0.183289301211385D+03 -.893998397670758D+02 0.593059617362441D+02 -.803768591742569D+02
 0.162182009404860D+03 0.708676981642803D+02 -.495118730389664D+02 0.111185124928191D+03
 0.000000000000000D+00 0.000000000000000D+00 0.000000000000000D+00 -.000000000000000D+00
 0.372627653906846D+02 0.185321416027955D+02 -.979408869727768D+01 -.308082657539336D+02
 0.191375695815894D+03 0.000000000000000D+00 0.000000000000000D+00 0.191375695815894D+03
 0.198839340310345D+03 0.000000000000000D+00 0.000000000000000D+00 -.198839340310345D+03
 0.183367746022470D+03 -.896223453960897D+02 0.592125493147087D+02 -.803768591742569D+02
 0.162121365901632D+03 0.706708948379614D+02 -.495944951072670D+02 0.111185124928191D+03
 0.748062853909846D+01 0.464524131521106D+00 0.195016747123675D+00 -.746364449445111D+01
 0.372452956630380D+02 0.184869264266072D+02 -.981307095456535D+01 -.308082657539336D+02
0.665587526975D-04 0.000000000000D+00 0.000000000000D+00 0.299604642854D-04 0.000000000000D+00  6 -2 1 25 -24 21 21 2 0.27242492D-02 0.31817109D+00 0.23067247D+05 0.23067247D+05 0.23067247D+05 0.12270619D+01  1  2  2  2  6  2        1 0.132363771293D-01 0.100000000000D+01
0.117782374463D-04 0.351240187764D-05 -.255603135680D-06 0.299604642854D-04 0.000000000000D+00  6 -2 1 25 -24 21 21 4 0.27242492D-02 0.31817109D+00 0.23067247D+05 0.23067247D+05 0.23067247D+05 0.12270619D+01  1  2  3  2  6  2        1 0.352677071435D-02 0.100000000000D+01
0.866113756972D-06 0.000000000000D+00 0.000000000000D+00 0.299604642854D-04 0.000000000000D+00  6 -2 1 25 -24 21 21 4 0.27242492D-02 0.31817109D+00 0.23067247D+05 0.23067247D+05 0.23067247D+05 0.12270619D+01  1  2 15  2  6  2        1 0.259341403780D-03 0.100000000000D+01
0.978943181875D-15 0.000000000000D+00 0.000000000000D+00 0.299532671109D-04 0.000000000000D+00  6 -2 1 25 -24 21 21 4 0.27242492D-02 0.33102881D+00 0.23139704D+05 0.23139704D+05 0.23139704D+05 0.12269145D+01  1  2 12  2  6  2        1 0.259037418962D-12 0.100000000000D+01
-.171361640829D+00 0.000000000000D+00 0.000000000000D+00 0.299604642854D-04 0.000000000000D+00  6 -2 1 25 -24 21 21 4 0.27242492D-02 0.31817109D+00 0.23067247D+05 0.23067247D+05 0.23067247D+05 0.12270619D+01  1  2  4  2  6  2        1 -.513110063534D+02 0.100000000000D+01
-.149985034255D+00 0.000000000000D+00 -.349368083974D-03 0.299604642854D-04 0.000000000000D+00  6 -2 1 25 -24 21 21 4 0.27242492D-02 0.33059962D+00 0.23067247D+05 0.23067247D+05 0.23067247D+05 0.12270619D+01  1  2  5  2  6  2        1 -.398713463825D+02 0.100000000000D+01
0.149888621589D+00 0.000000000000D+00 0.349111747180D-03 0.299604642854D-04 0.000000000000D+00  6 -2 1 25 -24 21 21 4 0.27242492D-02 0.31817109D+00 0.23067247D+05 0.23067247D+05 0.23067247D+05 0.12270619D+01  1  2  6  2  6  2        1 0.448813163637D+02 0.100000000000D+01
0.168020272548D+00 0.000000000000D+00 0.000000000000D+00 0.299604642854D-04 0.549510840235D-03  6 -2 1 25 -24 21 21 4 0.27243725D-02 0.33059471D+00 0.23139704D+05 0.23139704D+05 0.23139704D+05 0.12269145D+01  1  2 11  2  6  2        1 0.446422181631D+02 0.100000000000D+01
0.257103159441D-16 0.000000000000D+00 0.000000000000D+00 0.299532671109D-04 0.000000000000D+00  6 -2 21 25 -24 -1 21 4 0.27242492D-02 0.33102881D+00 0.23139704D+05 0.23139704D+05 0.23139704D+05 0.12269145D+01  3  4 12  5  5  2        1 0.516484331295D-14 0.100000000000D+01
-.101809948307D-02 0.000000000000D+00 -.237193998255D-05 0.299604642854D-04 0.000000000000D+00  6 -2 21 25 -24 -1 21 4 0.27242492D-02 0.33059962D+00 0.23067247D+05 0.23067247D+05 0.23067247D+05 0.12270619D+01  3  4  5  5  5  2        1 -.205839204297D+00 0.100000000000D+01
0.982086749084D-03 0.000000000000D+00 0.000000000000D+00 0.299604642854D-04 0.642358092447D-05  6 -2 21 25 -24 -1 21 4 0.27243725D-02 0.33059471D+00 0.23139704D+05 0.23139704D+05 0.23139704D+05 0.12269145D+01  3  4 11  5  5  2        1 0.198409547293D+00 0.100000000000D+01
  </mgrwgt>
  </event>
  <event>
  6     66 -.39191994E-03 0.15436955E+02 0.75467711E-02 0.11613428E+00
       -2 -1    0    0    0  503 0.00000000E+00 0.00000000E+00 0.46244574E+02 0.46245681E+02 0.32000000E+00 0.0000E+00 0.9000E+01
        1 -1    0    0  502    0 0.00000000E+00 0.00000000E+00 -.11090597E+04 0.11090597E+04 0.32000000E+00 0.0000E+00 0.9000E+01
       25  1    1    2    0    0 -.33481648E+02 -.13829123E+03 -.47371577E+03 0.51017362E+03 0.12500000E+03 0.0000E+00 0.9000E+01
      -24  1    1    2    0    0 0.16040351E+02 0.12618125E+03 -.19207809E+03 0.24400862E+03 0.80419002E+02 0.0000E+00 0.9000E+01
       21  1    1    2  502  501 0.21548727E+02 0.57900157E+00 -.37719067E+03 0.37780690E+03 0.75000000E+00 0.0000E+00 0.9000E+01
       21  1    1    2  501  503 -.41074303E+01 0.11530980E+02 -.19830578E+02 0.23316278E+02 0.75000000E+00 0.0000E+00 0.9000E+01
#aMCatNLO 2  0  0  1  5 0.12240689D+02 0.00000000D+00  -5  6  0 0.00000000D+00 0.00000000D+00 0.00000000D+00 0.00000000D+00 0.00000000D+00
  <mgrwgt>
 -.5045927319D+00    3    2    0
 0.219904997270176D+03 0.000000000000000D+00 0.000000000000000D+00 0.219904997270176D+03
 0.219904997270176D+03 0.000000000000000D+00 0.000000000000000D+00 -.219904997270176D+03
 0.186388840340563D+03 -.352375501754558D+02 -.133363011375760D+03 -.940330037386274D+01
 0.175689526795047D+03 0.144145619011411D+02 0.130744268716441D+03 0.842481481938814D+02
 0.777316274047427D+02 0.208229882743147D+02 0.261874265931950D+01 -.748448478200186D+02
 0.000000000000000D+00 -.000000000000000D+00 0.000000000000000D+00 0.000000000000000D+00
 0.228594676762593D+03 0.000000000000000D+00 0.000000000000000D+00 0.228594676762593D+03
 0.224343513137409D+03 0.000000000000000D+00 0.000000000000000D+00 -.224343513137409D+03
 0.189628452332001D+03 -.334820581772042D+02 -.138291285539354D+03 -.940330037386274D+01
 0.172464312359304D+03 0.160399692712437D+02 0.126181187167012D+03 0.842481481938814D+02
 0.778875368850552D+02 0.215495192158669D+02 0.579118626928655D+00 -.748448478200186D+02
 0.129578883236419D+02 -.410743030990645D+01 0.115309797454140D+02 0.425116362518435D+01
-.173099621112D-02 0.000000000000D+00 0.000000000000D+00 0.404187314793D-04 0.000000000000D+00  6 -2 1 25 -24 21 21 4 0.73090455D-02 0.16724091D+00 0.34909122D+05 0.34909122D+05 0.34909122D+05 0.12080507D+01  1  2 13  1  6  1       -2 -.487136274372D+00 0.100000000000D+01
-.547301689333D-03 0.000000000000D+00 0.000000000000D+00 0.406215465887D-04 0.000000000000D+00  6 -2 1 25 -24 21 21 4 0.68438577D-02 0.16724091D+00 0.32636351D+05 0.32636351D+05 0.32636351D+05 0.12110778D+01  1  2  8  1  6  1       -2 -.172169199284D+00 0.100000000000D+01
0.546642752097D-03 0.000000000000D+00 0.000000000000D+00 0.406215465887D-04 0.955252223402D-06  6 -2 1 25 -24 21 21 4 0.71142969D-02 0.17061646D+00 0.34909122D+05 0.34909122D+05 0.34909122D+05 0.12080507D+01  1  2  1  1  6  1       -2 0.154712741713D+00 0.100000000000D+01
  </mgrwgt>
  </event>
  <event>
  5     66 0.39191994E-03 0.45211642E+02 0.75467711E-02 0.99278493E-01
       -2 -1    0    0    0  501 0.00000000E+00 0.00000000E+00 0.58341528E+03 0.58341537E+03 0.32000000E+00 0.0000E+00 0.9000E+01
        1 -1    0    0  502    0 -.00000000E+00 -.00000000E+00 -.93351870E+03 0.93351876E+03 0.32000000E+00 0.0000E+00 0.9000E+01
       25  1    1    2    0    0 -.34779903E+03 0.17690733E+03 0.23889657E+03 0.47429625E+03 0.12500000E+03 0.0000E+00 0.9000E+01
      -24  1    1    2    0    0 0.32224152E+03 -.13961251E+03 0.82513430E+02 0.36960375E+03 0.80419002E+02 0.0000E+00 0.9000E+01
       21  1    1    2  502  501 0.25557511E+02 -.37294820E+02 -.67151342E+03 0.67303412E+03 0.75000000E+00 0.0000E+00 0.9000E+01
#aMCatNLO 1  0  0  5  1 0.31413320D+02 0.00000000D+00  -5  6  0 0.00000000D+00 0.00000000D+00 0.00000000D+00 0.00000000D+00 0.00000000D+00
  <mgrwgt>
 0.9260332720D+00    4    2    0
 0.737989960483794D+03 0.000000000000000D+00 0.000000000000000D+00 0.737989960483794D+03
 0.737989960483794D+03 -.000000000000000D+00 -.000000000000000D+00 -.737989960483794D+03
 0.544123176610833D+03 -.347799036677065D+03 0.176907343165706D+03 0.358028844292775D+03
 0.399431482394791D+03 0.322241509236869D+03 -.139612499650528D+03 0.172473339504415D+03
 0.532425261961964D+03 0.255575274401959D+02 -.372948435151774D+02 -.530502183797191D+03
 0.000000000000000D+00 0.000000000000000D+00 0.000000000000000D+00 0.000000000000000D+00
 0.737989960483794D+03 0.000000000000000D+00 0.000000000000000D+00 0.737989960483794D+03
 0.737989960483794D+03 -.000000000000000D+00 -.000000000000000D+00 -.737989960483794D+03
 0.457366158051624D+03 -.341228551686939D+03 0.167319357391300D+03 0.221644108170507D+03
 0.373801635156532D+03 0.327314470492569D+03 -.147015222649950D+03 0.671729722930371D+02
 0.423483467221352D+03 0.173245038050643D+03 0.109805914926157D+03 -.370495701524159D+03
 0.221328660538079D+03 -.159330956856274D+03 -.130110049667506D+03 0.816786210606147D+02
0.301179877773D+00 0.000000000000D+00 0.000000000000D+00 0.124061608678D-04 0.000000000000D+00  6 -2 1 25 -24 21 21 2 0.89756208D-01 0.14361827D+00 0.16614809D+06 0.16614809D+06 0.16614809D+06 0.11438440D+01  1  2  2  3  6  5       21 0.674312081350D+00 0.100000000000D+01
0.118940651029D+00 0.158936988048D-01 -.115661003313D-02 0.124061608678D-04 0.000000000000D+00  6 -2 1 25 -24 21 21 4 0.89756208D-01 0.14361827D+00 0.16614809D+06 0.16614809D+06 0.16614809D+06 0.11438440D+01  1  2  3  3  6  5       21 0.348416672473D+00 0.100000000000D+01
0.806828405458D-03 0.000000000000D+00 0.000000000000D+00 0.124061608678D-04 0.000000000000D+00  6 -2 1 25 -24 21 21 4 0.89756208D-01 0.14361827D+00 0.16614809D+06 0.16614809D+06 0.16614809D+06 0.11438440D+01  1  2 15  3  6  5       21 0.236346838406D-02 0.100000000000D+01
-.338162233696D-01 0.000000000000D+00 0.000000000000D+00 0.124061608678D-04 0.000000000000D+00  6 -2 1 25 -24 21 21 4 0.89756208D-01 0.14361827D+00 0.16614809D+06 0.16614809D+06 0.16614809D+06 0.11438440D+01  1  2  4  3  6  5       21 -.990589501582D-01 0.100000000000D+01
  </mgrwgt>
  </event>
  <event>
  5     66 0.39191994E-03 0.10057715E+03 0.75467711E-02 0.11603320E+00
       -2 -1    0    0    0  501 0.00000000E+00 0.00000000E+00 0.44641815E+02 0.44642962E+02 0.32000000E+00 0.0000E+00 0.9000E+01
        1 -1    0    0  502    0 -.00000000E+00 -.00000000E+00 -.10855656E+04 0.10855657E+04 0.32000000E+00 0.0000E+00 0.9000E+01
       25  1    1    2    0    0 0.30630711E+00 -.22957766E+02 -.23425670E+03 0.26651145E+03 0.12500000E+03 0.0000E+00 0.9000E+01
      -24  1    1    2    0    0 0.10878047E+03 0.93952331E+02 -.31965472E+03 0.35959225E+03 0.80419002E+02 0.0000E+00 0.9000E+01
       21  1    1    2  502  501 -.10908677E+03 -.70994564E+02 -.48701241E+03 0.50410495E+03 0.75000000E+00 0.0000E+00 0.9000E+01
#aMCatNLO 1  0  0  5  1 0.54846544D+02 0.00000000D+00  -5  6  0 0.00000000D+00 0.00000000D+00 0.00000000D+00 0.00000000D+00 0.00000000D+00
  <mgrwgt>
 0.8773534238D-02    9    2    0
 0.220141534795247D+03 0.000000000000000D+00 0.000000000000000D+00 0.220141534795247D+03
 0.220141534795247D+03 -.000000000000000D+00 -.000000000000000D+00 -.220141534795247D+03
 0.130302920776859D+03 0.306753409261084D+00 -.229574759715689D+02 0.287525887937274D+02
 0.167343107734567D+03 0.108781038522643D+03 0.939527038289270D+02 0.295985616721781D+02
 0.142637041079066D+03 -.109087791931904D+03 -.709952278573581D+02 -.583511504659054D+02
 0.000000000000000D+00 0.000000000000000D+00 0.000000000000000D+00 0.000000000000000D+00
 0.220141534795247D+03 0.000000000000000D+00 0.000000000000000D+00 0.220141534795247D+03
 0.220141534795247D+03 -.000000000000000D+00 -.000000000000000D+00 -.220141534795247D+03
 0.131255780934478D+03 -.122110149177387D+02 -.311041420549353D+02 0.220568241237259D+02
 0.150808754392018D+03 0.935548148227737D+02 0.840433528205749D+02 0.214540419747475D+02
 0.977621684432752D+02 -.446465266216446D+02 -.257006714765324D+02 -.830879336908160D+02
 0.604563658207218D+02 -.366972732833905D+02 -.272385392891073D+02 0.395770675923426D+02
0.319003173678D-04 0.000000000000D+00 0.000000000000D+00 0.149750559090D-05 0.000000000000D+00  6 -2 1 25 -24 21 21 2 0.68680634D-02 0.16701019D+00 0.44510732D+05 0.44510732D+05 0.44510732D+05 0.11973162D+01  1  2  2  3  6  5       21 0.667039140563D-02 0.100000000000D+01
-.255314874658D-05 0.168342599702D-05 -.122505618239D-06 0.149750559090D-05 0.000000000000D+00  6 -2 1 25 -24 21 21 4 0.68680634D-02 0.16701019D+00 0.44510732D+05 0.44510732D+05 0.44510732D+05 0.11973162D+01  1  2  3  3  6  5       21 -.765332506112D-03 0.100000000000D+01
0.151768961341D-05 0.000000000000D+00 0.000000000000D+00 0.149750559090D-05 0.000000000000D+00  6 -2 1 25 -24 21 21 4 0.68680634D-02 0.16701019D+00 0.44510732D+05 0.44510732D+05 0.44510732D+05 0.11973162D+01  1  2 15  3  6  5       21 0.454943017671D-03 0.100000000000D+01
0.103971069191D-04 0.000000000000D+00 0.000000000000D+00 0.152315067720D-05 0.000000000000D+00  6 -2 1 25 -24 21 21 4 0.68680634D-02 0.16701019D+00 0.35321648D+05 0.35321648D+05 0.35321648D+05 0.12075248D+01  1  2 12  3  6  5       21 0.322339424867D-02 0.100000000000D+01
-.372981026652D-05 0.000000000000D+00 0.000000000000D+00 0.149750559090D-05 0.000000000000D+00  6 -2 1 25 -24 21 21 4 0.68680634D-02 0.16701019D+00 0.44510732D+05 0.44510732D+05 0.44510732D+05 0.11973162D+01  1  2  4  3  6  5       21 -.111804885729D-02 0.100000000000D+01
0.248515401104D-06 0.000000000000D+00 0.000000000000D+00 0.152315067720D-05 0.000000000000D+00  6 -2 1 25 -24 1 -1 4 0.68680634D-02 0.16701019D+00 0.35321648D+05 0.35321648D+05 0.35321648D+05 0.12075248D+01  1  2 12  6  6  5       21 0.770467324094D-04 0.100000000000D+01
0.248515401104D-06 0.000000000000D+00 0.000000000000D+00 0.152315067720D-05 0.000000000000D+00  6 -2 1 25 -24 2 -2 4 0.68680634D-02 0.16701019D+00 0.35321648D+05 0.35321648D+05 0.35321648D+05 0.12075248D+01  1  2 12  7  6  5       21 0.770467324094D-04 0.100000000000D+01
0.248515401104D-06 0.000000000000D+00 0.000000000000D+00 0.152315067720D-05 0.000000000000D+00  6 -2 1 25 -24 3 -3 4 0.68680634D-02 0.16701019D+00 0.35321648D+05 0.35321648D+05 0.35321648D+05 0.12075248D+01  1  2 12  8  6  5       21 0.770467324094D-04 0.100000000000D+01
0.248515401104D-06 0.000000000000D+00 0.000000000000D+00 0.152315067720D-05 0.000000000000D+00  6 -2 1 25 -24 4 -4 4 0.68680634D-02 0.16701019D+00 0.35321648D+05 0.35321648D+05 0.35321648D+05 0.12075248D+01  1  2 12  8  6  5       21 0.770467324094D-04 0.100000000000D+01
  </mgrwgt>
  </event>
  <event>
  5     66 0.39191994E-03 0.91568756E+02 0.75467711E-02 0.11168085E+00
       -2 -1    0    0    0  501 0.00000000E+00 0.00000000E+00 0.72479546E+02 0.72480252E+02 0.32000000E+00 0.0000E+00 0.9000E+01
        1 -1    0    0  502    0 -.00000000E+00 -.00000000E+00 -.88257980E+03 0.88257986E+03 0.32000000E+00 0.0000E+00 0.9000E+01
       25  1    1    2    0    0 0.16212614E+03 -.14176382E+03 -.50900694E+03 0.56665238E+03 0.12500000E+03 0.0000E+00 0.9000E+01
      -24  1    1    2    0    0 -.83818701E+02 0.94305183E+02 -.15090239E+03 0.21250362E+03 0.80419002E+02 0.0000E+00 0.9000E+01
       21  1    1    2  502  501 -.78307437E+02 0.47458634E+02 -.15019093E+03 0.17590411E+03 0.75000000E+00 0.0000E+00 0.9000E+01
#aMCatNLO 1  0  0  5  1 0.39111949D+02 0.00000000D+00  -5  6  0 0.00000000D+00 0.00000000D+00 0.00000000D+00 0.00000000D+00 0.00000000D+00
  <mgrwgt>
 0.1084024473D+00   14    2    0
 0.252921625238985D+03 0.000000000000000D+00 0.000000000000000D+00 0.252921625238985D+03
 0.252921625238985D+03 -.000000000000000D+00 -.000000000000000D+00 -.252921625238985D+03
 0.254705561678302D+03 0.162127460509620D+03 -.141764617563297D+03 -.535481363419208D+02
 0.159550021514305D+03 -.838178731557272D+02 0.943046808572134D+02 0.554092475938291D+02
 0.915876672853634D+02 -.783095873538932D+02 0.474599367060833D+02 -.186111125190840D+01
 0.000000000000000D+00 0.000000000000000D+00 0.000000000000000D+00 0.000000000000000D+00
 0.252921625238985D+03 0.000000000000000D+00 0.000000000000000D+00 0.252921625238985D+03
 0.252921625238985D+03 -.000000000000000D+00 -.000000000000000D+00 -.252921625238985D+03
 0.232851038276388D+03 0.139063804502993D+03 -.127786767707713D+03 -.540962688395433D+02
 0.173782949856947D+03 -.995860465084989D+02 0.103861065133779D+03 0.550345000585591D+02
 0.391157922757211D+02 -.200918218201048D+02 -.324321820217929D+02 -.863235023686004D+01
 0.600934700689146D+02 -.193859361743893D+02 0.563578845957270D+02 0.769411901784421D+01
0.579391918985D-03 0.000000000000D+00 0.000000000000D+00 0.183296689628D-05 0.000000000000D+00  6 -2 1 25 -24 21 21 2 0.11150758D-01 0.13578157D+00 0.60074365D+05 0.60074365D+05 0.60074365D+05 0.11844665D+01  1  2  2  3  6  5       21 0.785849896463D-01 0.100000000000D+01
0.630389905958D-07 0.305753515752D-04 -.222501752630D-05 0.183296689628D-05 0.000000000000D+00  6 -2 1 25 -24 21 21 4 0.11150758D-01 0.13578157D+00 0.60074365D+05 0.60074365D+05 0.60074365D+05 0.11844665D+01  1  2  3  3  6  5       21 0.119955996335D-04 0.100000000000D+01
0.153443123651D-04 0.000000000000D+00 0.000000000000D+00 0.183296689628D-05 0.000000000000D+00  6 -2 1 25 -24 21 21 4 0.11150758D-01 0.13578157D+00 0.60074365D+05 0.60074365D+05 0.60074365D+05 0.11844665D+01  1  2 15  3  6  5       21 0.291984732058D-02 0.100000000000D+01
0.944367941735D-04 0.000000000000D+00 0.000000000000D+00 0.183357063436D-05 0.000000000000D+00  6 -2 1 25 -24 21 21 4 0.11150758D-01 0.13578157D+00 0.59797056D+05 0.59797056D+05 0.59797056D+05 0.11846615D+01  1  2 12  3  6  5       21 0.179822806714D-01 0.100000000000D+01
0.930153683883D-04 0.000000000000D+00 0.000000000000D+00 0.183357063436D-05 0.000000000000D+00  6 -2 1 25 -24 21 21 4 0.11150758D-01 0.13578157D+00 0.59797056D+05 0.59797056D+05 0.59797056D+05 0.11846615D+01  1  2 12  3  6  5       21 0.177116183978D-01 0.100000000000D+01
-.886975444076D-04 0.000000000000D+00 0.000000000000D+00 0.183296689628D-05 0.000000000000D+00  6 -2 1 25 -24 21 21 4 0.11150758D-01 0.13578157D+00 0.60074365D+05 0.60074365D+05 0.60074365D+05 0.11844665D+01  1  2  4  3  6  5       21 -.168781292520D-01 0.100000000000D+01
0.533088535872D-05 0.000000000000D+00 0.000000000000D+00 0.183357063436D-05 0.000000000000D+00  6 -2 1 25 -24 1 -1 4 0.11150758D-01 0.13578157D+00 0.59797056D+05 0.59797056D+05 0.59797056D+05 0.11846615D+01  1  2 12  6  6  5       21 0.101508609633D-02 0.100000000000D+01
0.526413167662D-05 0.000000000000D+00 0.000000000000D+00 0.183357063436D-05 0.000000000000D+00  6 -2 1 25 -24 1 -1 4 0.11150758D-01 0.13578157D+00 0.59797056D+05 0.59797056D+05 0.59797056D+05 0.11846615D+01  1  2 12  6  6  5       21 0.100237512432D-02 0.100000000000D+01
0.533088535872D-05 0.000000000000D+00 0.000000000000D+00 0.183357063436D-05 0.000000000000D+00  6 -2 1 25 -24 2 -2 4 0.11150758D-01 0.13578157D+00 0.59797056D+05 0.59797056D+05 0.59797056D+05 0.11846615D+01  1  2 12  7  6  5       21 0.101508609633D-02 0.100000000000D+01
0.526413167662D-05 0.000000000000D+00 0.000000000000D+00 0.183357063436D-05 0.000000000000D+00  6 -2 1 25 -24 2 -2 4 0.11150758D-01 0.13578157D+00 0.59797056D+05 0.59797056D+05 0.59797056D+05 0.11846615D+01  1  2 12  7  6  5       21 0.100237512432D-02 0.100000000000D+01
0.533088535872D-05 0.000000000000D+00 0.000000000000D+00 0.183357063436D-05 0.000000000000D+00  6 -2 1 25 -24 3 -3 4 0.11150758D-01 0.13578157D+00 0.59797056D+05 0.59797056D+05 0.59797056D+05 0.11846615D+01  1  2 12  8  6  5       21 0.101508609633D-02 0.100000000000D+01
0.533088535872D-05 0.000000000000D+00 0.000000000000D+00 0.183357063436D-05 0.000000000000D+00  6 -2 1 25 -24 4 -4 4 0.11150758D-01 0.13578157D+00 0.59797056D+05 0.59797056D+05 0.59797056D+05 0.11846615D+01  1  2 12  8  6  5       21 0.101508609633D-02 0.100000000000D+01
0.526413167662D-05 0.000000000000D+00 0.000000000000D+00 0.183357063436D-05 0.000000000000D+00  6 -2 1 25 -24 3 -3 4 0.11150758D-01 0.13578157D+00 0.59797056D+05 0.59797056D+05 0.59797056D+05 0.11846615D+01  1  2 12  8  6  5       21 0.100237512432D-02 0.100000000000D+01
0.526413167662D-05 0.000000000000D+00 0.000000000000D+00 0.183357063436D-05 0.000000000000D+00  6 -2 1 25 -24 4 -4 4 0.11150758D-01 0.13578157D+00 0.59797056D+05 0.59797056D+05 0.59797056D+05 0.11846615D+01  1  2 12  8  6  5       21 0.100237512432D-02 0.100000000000D+01
  </mgrwgt>
  </event>
  <event>
  5     66 0.39191994E-03 0.25803988E+02 0.75467711E-02 0.11764719E+00
       -2 -1    0    0    0  501 0.00000000E+00 0.00000000E+00 0.82242439E+02 0.82243062E+02 0.32000000E+00 0.0000E+00 0.9000E+01
        1 -1    0    0  502    0 0.00000000E+00 0.00000000E+00 -.29788452E+03 0.29788469E+03 0.32000000E+00 0.0000E+00 0.9000E+01
       25  1    1    2    0    0 -.45769706E+02 -.34246246E+02 -.10005207E+03 0.17000908E+03 0.12500000E+03 0.0000E+00 0.9000E+01
      -24  1    1    2    0    0 0.59641123E+02 0.56002166E+02 -.13548441E+03 0.17752901E+03 0.80419002E+02 0.0000E+00 0.9000E+01
       21  1    1    2  502  501 -.13871417E+02 -.21755920E+02 0.19894403E+02 0.32589662E+02 0.75000000E+00 0.0000E+00 0.9000E+01
#aMCatNLO 1  0  0  1  2 0.54267387D+02 0.00000000D+00  -5  6  0 0.00000000D+00 0.00000000D+00 0.00000000D+00 0.00000000D+00 0.00000000D+00
  <mgrwgt>
 0.4824913558D-01    4    2    0
 0.156521244860428D+03 0.000000000000000D+00 0.000000000000000D+00 0.156521244860428D+03
 0.156521244860428D+03 0.000000000000000D+00 0.000000000000000D+00 -.156521244860428D+03
 0.137520044189848D+03 -.457691017374259D+02 -.342452986633927D+02 -.438308106040141D+01
 0.122245256448974D+03 0.596416597979965D+02 0.560030077558322D+02 -.422282169733122D+02
 0.532771890820340D+02 -.138725580605706D+02 -.217577090924394D+02 0.466112980337136D+02
 0.000000000000000D+00 -.000000000000000D+00 0.000000000000000D+00 -.000000000000000D+00
 0.179723857041816D+03 0.000000000000000D+00 0.000000000000000D+00 0.179723857041816D+03
 0.198870833901727D+03 0.000000000000000D+00 0.000000000000000D+00 -.198870833901727D+03
 0.139215306979840D+03 -.296342990769297D+02 -.534649288424485D+02 -.438308106040141D+01
 0.123441241514847D+03 0.739661873447644D+02 0.389397608273379D+02 -.422282169733122D+02
 0.555768280192070D+02 -.752592371368569D+01 -.293177622021977D+02 0.466112980337136D+02
 0.603613144296494D+02 -.368059645541490D+02 0.438429302173083D+02 -.191469768599112D+02
0.980062978368D-04 0.000000000000D+00 0.000000000000D+00 0.339965949820D-04 0.000000000000D+00  6 -2 1 25 -24 21 21 2 0.12652744D-01 0.45828448D-01 0.19317410D+05 0.19317410D+05 0.19317410D+05 0.12354898D+01  1  2  2  1  6  1       -2 0.508919039490D-01 0.100000000000D+01
0.115034481942D-04 0.517193442772D-05 -.376369989344D-06 0.339965949820D-04 0.000000000000D+00  6 -2 1 25 -24 21 21 4 0.12652744D-01 0.45828448D-01 0.19317410D+05 0.19317410D+05 0.19317410D+05 0.12354898D+01  1  2  3  1  6  1       -2 0.911803147896D-02 0.100000000000D+01
0.323738039377D-05 0.000000000000D+00 0.000000000000D+00 0.339965949820D-04 0.000000000000D+00  6 -2 1 25 -24 21 21 4 0.12652744D-01 0.45828448D-01 0.19317410D+05 0.19317410D+05 0.19317410D+05 0.12354898D+01  1  2 15  1  6  1       -2 0.256605983191D-02 0.100000000000D+01
-.180749856502D-04 0.000000000000D+00 0.000000000000D+00 0.339965949820D-04 0.000000000000D+00  6 -2 1 25 -24 21 21 4 0.12652744D-01 0.45828448D-01 0.19317410D+05 0.19317410D+05 0.19317410D+05 0.12354898D+01  1  2  4  1  6  1       -2 -.143268596822D-01 0.100000000000D+01
  </mgrwgt>
  </event>
  <event>
  5     66 -.39191994E-03 0.20320859E+02 0.75467711E-02 0.12198546E+00
       -2 -1    0    0    0  501 0.00000000E+00 0.00000000E+00 0.27028643E+02 0.27030537E+02 0.32000000E+00 0.0000E+00 0.9000E+01
        1 -1    0    0  502    0 0.00000000E+00 0.00000000E+00 -.18311732E+04 0.18311732E+04 0.32000000E+00 0.0000E+00 0.9000E+01
       25  1    1    2    0    0 -.40153977E+02 0.59663617E+02 -.14135500E+04 0.14208873E+04 0.12500000E+03 0.0000E+00 0.9000E+01
      -24  1    1    2    0    0 0.20571790E+02 -.65091936E+02 -.40088164E+03 0.41452800E+03 0.80419002E+02 0.0000E+00 0.9000E+01
       21  1    1    2  502  501 0.19582187E+02 0.54283189E+01 0.10287071E+02 0.22788485E+02 0.75000000E+00 0.0000E+00 0.9000E+01
#aMCatNLO 1  0  0  1  5 0.45121528D+00 0.00000000D+00  -5  6  0 0.00000000D+00 0.00000000D+00 0.00000000D+00 0.00000000D+00 0.00000000D+00
  <mgrwgt>
 -.3285526008D+00    9    4    0
 0.222476766858818D+03 0.000000000000000D+00 0.000000000000000D+00 0.222476766858818D+03
 0.222476766858818D+03 0.000000000000000D+00 0.000000000000000D+00 -.222476766858818D+03
 0.202380385764423D+03 -.401541106281781D+02 0.596635796945532D+02 -.141988468545330D+03
 0.105694293564297D+03 0.205717197279428D+02 -.650919550240540D+02 0.662642258437984D+01
 0.136878854388916D+03 0.195823909002353D+02 0.542837532950075D+01 0.135362045960950D+03
 0.000000000000000D+00 0.000000000000000D+00 -.000000000000000D+00 0.000000000000000D+00
 0.224020993851452D+03 0.000000000000000D+00 0.000000000000000D+00 0.224020993851452D+03
 0.222509844394472D+03 0.000000000000000D+00 0.000000000000000D+00 -.222509844394472D+03
 0.202444434418635D+03 -.401727133913521D+02 0.598679958409270D+02 -.141988468545330D+03
 0.105626720924636D+03 0.205620089725982D+02 -.649852485543022D+02 0.662642258437984D+01
 0.136882607156876D+03 0.195698108424389D+02 0.556661108038560D+01 0.135362045960950D+03
 0.157707574577707D+01 0.408935763150665D-01 -.449358367010305D+00 0.151114945698044D+01
 0.222476766858818D+03 0.000000000000000D+00 0.000000000000000D+00 0.222476766858818D+03
 0.222476766858818D+03 0.000000000000000D+00 0.000000000000000D+00 -.222476766858818D+03
 0.202380385764423D+03 -.401541106281781D+02 0.596635796945532D+02 -.141988468545330D+03
 0.105694293564297D+03 0.205717197279428D+02 -.650919550240540D+02 0.662642258437984D+01
 0.000000000000000D+00 0.000000000000000D+00 -.000000000000000D+00 0.000000000000000D+00
 0.136878854388916D+03 0.195823909002353D+02 0.542837532950075D+01 0.135362045960950D+03
 0.224020993851452D+03 0.000000000000000D+00 0.000000000000000D+00 0.224020993851452D+03
 0.222509844394472D+03 0.000000000000000D+00 0.000000000000000D+00 -.222509844394472D+03
 0.202444434418635D+03 -.401727133913521D+02 0.598679958409270D+02 -.141988468545330D+03
 0.105626720924636D+03 0.205620089725982D+02 -.649852485543022D+02 0.662642258437984D+01
 0.157707574577707D+01 0.408935763150665D-01 -.449358367010305D+00 0.151114945698044D+01
 0.136882607156876D+03 0.195698108424389D+02 0.556661108038560D+01 0.135362045960950D+03
0.133921554596D-03 0.000000000000D+00 0.000000000000D+00 0.618450898821D-04 0.000000000000D+00  6 -2 1 25 -24 21 21 2 0.41584006D-02 0.28171910D+00 0.18227593D+05 0.18227593D+05 0.18227593D+05 0.12382876D+01  1  2  2  1  6  1       -2 0.205781125421D-01 0.100000000000D+01
0.311717416926D-04 0.706723459733D-05 -.514294032003D-06 0.618450898821D-04 0.000000000000D+00  6 -2 1 25 -24 21 21 4 0.41584006D-02 0.28171910D+00 0.18227593D+05 0.18227593D+05 0.18227593D+05 0.12382876D+01  1  2  3  1  6  1       -2 0.734444846746D-02 0.100000000000D+01
0.637249793043D-05 0.000000000000D+00 0.000000000000D+00 0.618450898821D-04 0.000000000000D+00  6 -2 1 25 -24 21 21 4 0.41584006D-02 0.28171910D+00 0.18227593D+05 0.18227593D+05 0.18227593D+05 0.12382876D+01  1  2 15  1  6  1       -2 0.150143944861D-02 0.100000000000D+01
-.423089404883D-01 0.000000000000D+00 0.000000000000D+00 0.618450898821D-04 0.000000000000D+00  6 -2 1 25 -24 21 21 4 0.41584006D-02 0.28171910D+00 0.18227593D+05 0.18227593D+05 0.18227593D+05 0.12382876D+01  1  2  4  1  6  1       -2 -.996851046033D+01 0.100000000000D+01
-.143641674047D+00 0.000000000000D+00 -.449142535695D-02 0.618450898821D-04 0.000000000000D+00  6 -2 1 25 -24 21 21 4 0.41878183D-02 0.28171910D+00 0.18227593D+05 0.18227593D+05 0.18227593D+05 0.12382876D+01  1  2  5  1  6  1       -2 -.334905061663D+02 0.100000000000D+01
0.143669877647D+00 0.000000000000D+00 0.449131376132D-02 0.618450898821D-04 0.000000000000D+00  6 -2 1 25 -24 21 21 4 0.41584006D-02 0.28171910D+00 0.18227593D+05 0.18227593D+05 0.18227593D+05 0.12382876D+01  1  2  6  1  6  1       -2 0.338504028140D+02 0.100000000000D+01
0.415757695774D-01 0.000000000000D+00 0.000000000000D+00 0.618450898821D-04 0.105084835899D-02  6 -2 1 25 -24 21 21 4 0.41872643D-02 0.28176099D+00 0.18294977D+05 0.18294977D+05 0.18294977D+05 0.12381093D+01  1  2 11  1  6  1       -2 0.968571657453D+01 0.100000000000D+01
-.187784811445D-03 0.000000000000D+00 -.587429860247D-05 0.618450898821D-04 0.000000000000D+00  6 21 1 25 -24 2 21 4 0.41878183D-02 0.28171910D+00 0.18227593D+05 0.18227593D+05 0.18227593D+05 0.12382876D+01  3  4  5  4  5  1       -2 -.808912541977D+00 0.100000000000D+01
0.868561756615D-04 0.000000000000D+00 0.000000000000D+00 0.618450898821D-04 0.438443435056D-05  6 21 1 25 -24 2 21 4 0.41872643D-02 0.28176099D+00 0.18294977D+05 0.18294977D+05 0.18294977D+05 0.12381093D+01  3  4 11  4  5  1       -2 0.373833178901D+00 0.100000000000D+01
  </mgrwgt>
  </event>
  <event>
  5     66 -.39191994E-03 0.30440310E+02 0.75467711E-02 0.11826465E+00
       -2 -1    0    0    0  501 0.00000000E+00 0.00000000E+00 0.23244888E+02 0.23247091E+02 0.32000000E+00 0.0000E+00 0.9000E+01
        1 -1    0    0  502    0 0.00000000E+00 0.00000000E+00 -.13566211E+04 0.13566211E+04 0.32000000E+00 0.0000E+00 0.9000E+01
       25  1    1    2    0    0 -.32549121E+02 0.80698481E+02 -.42783737E+03 0.45413820E+03 0.12500000E+03 0.0000E+00 0.9000E+01
      -24  1    1    2    0    0 0.39713042E+02 -.11027877E+03 -.85495300E+03 0.86668932E+03 0.80419002E+02 0.0000E+00 0.9000E+01
       21  1    1    2  502  501 -.71639215E+01 0.29580285E+02 -.50585843E+02 0.59040707E+02 0.75000000E+00 0.0000E+00 0.9000E+01
#aMCatNLO 1  0  0  1  5 0.60209533D+01 0.00000000D+00  -5  6  0 0.00000000D+00 0.00000000D+00 0.00000000D+00 0.00000000D+00 0.00000000D+00
  <mgrwgt>
 -.4098911351D+00   11    4    0
 0.177583927100848D+03 0.000000000000000D+00 0.000000000000000D+00 0.177583927100848D+03
 0.177583927100848D+03 0.000000000000000D+00 0.000000000000000D+00 -.177583927100848D+03
 0.158184461369876D+03 -.325485447366574D+02 0.806961022108756D+02 0.427323664495135D+02
 0.157514295899802D+03 0.397136161609830D+02 -.110281135642286D+03 -.678560039444245D+02
 0.394690969320183D+02 -.716507142432566D+01 0.295850334314103D+02 0.251236374949111D+02
 0.000000000000000D+00 0.000000000000000D+00 0.000000000000000D+00 0.000000000000000D+00
 0.229078512255390D+03 0.000000000000000D+00 0.000000000000000D+00 0.229078512255390D+03
 0.177785528446339D+03 0.000000000000000D+00 0.000000000000000D+00 -.177785528446339D+03
 0.157596857624263D+03 -.343940000523364D+02 0.787576482068035D+02 0.427323664495135D+02
 0.158426754380230D+03 0.378672273608547D+02 -.112220570172222D+03 -.678560039444245D+02
 0.391952733850901D+02 -.762479330027029D+01 0.291021446268897D+02 0.251236374949111D+02
 0.516451553121458D+02 0.415156599175199D+01 0.436077733852905D+01 0.512929838090509D+02
 0.177583927100848D+03 0.000000000000000D+00 0.000000000000000D+00 0.177583927100848D+03
 0.177583927100848D+03 0.000000000000000D+00 0.000000000000000D+00 -.177583927100848D+03
 0.158184461369876D+03 -.325485447366574D+02 0.806961022108756D+02 0.427323664495135D+02
 0.157514295899802D+03 0.397136161609830D+02 -.110281135642286D+03 -.678560039444245D+02
 0.000000000000000D+00 0.000000000000000D+00 0.000000000000000D+00 0.000000000000000D+00
 0.394690969320183D+02 -.716507142432566D+01 0.295850334314103D+02 0.251236374949111D+02
 0.229078512255390D+03 0.000000000000000D+00 0.000000000000000D+00 0.229078512255390D+03
 0.177785528446339D+03 0.000000000000000D+00 0.000000000000000D+00 -.177785528446339D+03
 0.157596857624263D+03 -.343940000523364D+02 0.787576482068035D+02 0.427323664495135D+02
 0.158426754380230D+03 0.378672273608547D+02 -.112220570172222D+03 -.678560039444245D+02
 0.516451553121458D+02 0.415156599175199D+01 0.436077733852905D+01 0.512929838090509D+02
 0.391952733850901D+02 -.762479330027029D+01 0.291021446268897D+02 0.251236374949111D+02
0.309221254167D-04 0.000000000000D+00 0.000000000000D+00 0.181152207976D-04 0.000000000000D+00  6 -2 1 25 -24 21 21 2 0.35763089D-02 0.20871111D+00 0.26388775D+05 0.26388775D+05 0.26388775D+05 0.12207884D+01  1  2  2  1  6  1       -2 0.117104851482D-01 0.100000000000D+01
0.427472127258D-05 0.163180538956D-05 -.118749103583D-06 0.181152207976D-04 0.000000000000D+00  6 -2 1 25 -24 21 21 4 0.35763089D-02 0.20871111D+00 0.26388775D+05 0.26388775D+05 0.26388775D+05 0.12207884D+01  1  2  3  1  6  1       -2 0.241264881122D-02 0.100000000000D+01
0.109120344699D-05 0.000000000000D+00 0.000000000000D+00 0.181152207976D-04 0.000000000000D+00  6 -2 1 25 -24 21 21 4 0.35763089D-02 0.20871111D+00 0.26388775D+05 0.26388775D+05 0.26388775D+05 0.12207884D+01  1  2 15  1  6  1       -2 0.615874236306D-03 0.100000000000D+01
0.283078723620D-02 0.000000000000D+00 0.000000000000D+00 0.180645720519D-04 0.000000000000D+00  6 -2 1 25 -24 21 21 4 0.46686287D-02 0.20871111D+00 0.27383225D+05 0.27383225D+05 0.27383225D+05 0.12190805D+01  1  2 12  1  6  1       -2 0.106690299666D+01 0.100000000000D+01
-.424388948866D-02 0.000000000000D+00 0.000000000000D+00 0.181152207976D-04 0.000000000000D+00  6 -2 1 25 -24 21 21 4 0.35763089D-02 0.20871111D+00 0.26388775D+05 0.26388775D+05 0.26388775D+05 0.12207884D+01  1  2  4  1  6  1       -2 -.239524738033D+01 0.100000000000D+01
-.386714296405D-02 0.000000000000D+00 -.334106060119D-04 0.181152207976D-04 0.000000000000D+00  6 -2 1 25 -24 21 21 4 0.46164508D-02 0.20871111D+00 0.26388775D+05 0.26388775D+05 0.26388775D+05 0.12207884D+01  1  2  5  1  6  1       -2 -.149055564683D+01 0.100000000000D+01
0.375374068448D-02 0.000000000000D+00 0.323506332259D-04 0.181152207976D-04 0.000000000000D+00  6 -2 1 25 -24 21 21 4 0.35763089D-02 0.20871111D+00 0.26388775D+05 0.26388775D+05 0.26388775D+05 0.12207884D+01  1  2  6  1  6  1       -2 0.211860783956D+01 0.100000000000D+01
0.860713755418D-03 0.000000000000D+00 0.000000000000D+00 0.181152207976D-04 0.226814368505D-05  6 -2 1 25 -24 21 21 4 0.46133428D-02 0.20894805D+00 0.27383225D+05 0.27383225D+05 0.27383225D+05 0.12190805D+01  1  2 11  1  6  1       -2 0.329479918480D+00 0.100000000000D+01
0.100415918506D-03 0.000000000000D+00 0.000000000000D+00 0.180645720519D-04 0.000000000000D+00  6 21 1 25 -24 2 21 4 0.46686287D-02 0.20871111D+00 0.27383225D+05 0.27383225D+05 0.27383225D+05 0.12190805D+01  3  4 12  4  5  1       -2 0.681403711070D+00 0.100000000000D+01
-.132333247753D-03 0.000000000000D+00 -.114831366632D-05 0.181152207976D-04 0.000000000000D+00  6 21 1 25 -24 2 21 4 0.46164508D-02 0.20871111D+00 0.26388775D+05 0.26388775D+05 0.26388775D+05 0.12207884D+01  3  4  5  4  5  1       -2 -.920849200061D+00 0.100000000000D+01
0.268755801183D-04 0.000000000000D+00 0.000000000000D+00 0.181152207976D-04 0.141604983444D-06  6 21 1 25 -24 2 21 4 0.46133428D-02 0.20894805D+00 0.27383225D+05 0.27383225D+05 0.27383225D+05 0.12190805D+01  3  4 11  4  5  1       -2 0.185627618127D+00 0.100000000000D+01
  </mgrwgt>
  </event>
  <event>
  5     66 0.39191994E-03 0.87895229E+02 0.75467711E-02 0.11302730E+00
       -2 -1    0    0    0  501 0.00000000E+00 0.00000000E+00 0.72434878E+03 0.72434885E+03 0.32000000E+00 0.0000E+00 0.9000E+01
        1 -1    0    0  502    0 0.00000000E+00 0.00000000E+00 -.25619647E+03 0.25619667E+03 0.32000000E+00 0.0000E+00 0.9000E+01
       25  1    1    2    0    0 -.14413231E+02 -.12788846E+03 0.55201503E+03 0.58043845E+03 0.12500000E+03 0.0000E+00 0.9000E+01
      -24  1    1    2    0    0 0.37639804E+02 0.43117704E+02 0.13327837E+03 0.16585002E+03 0.80419002E+02 0.0000E+00 0.9000E+01
       21  1    1    2  502  501 -.23226573E+02 0.84770757E+02 -.21714108E+03 0.23425706E+03 0.75000000E+00 0.0000E+00 0.9000E+01
#aMCatNLO 1  0  0  1  5 0.74388451D+02 0.00000000D+00  -5  6  0 0.00000000D+00 0.00000000D+00 0.00000000D+00 0.00000000D+00 0.00000000D+00
  <mgrwgt>
 0.6926153455D-01    9    4    0
 0.430785023202881D+03 0.000000000000000D+00 0.000000000000000D+00 0.430785023202881D+03
 0.430785023202881D+03 0.000000000000000D+00 0.000000000000000D+00 -.430785023202881D+03
 0.360643288882346D+03 -.144132120730431D+02 -.127888528683906D+03 0.312850388148518D+03
 0.116332923019822D+03 0.376398095902614D+02 0.431176824730840D+02 0.615649511989126D+02
 0.384593834503593D+03 -.232265975172183D+02 0.847708462108223D+02 -.374415339347431D+03
 0.000000000000000D+00 0.000000000000000D+00 0.000000000000000D+00 0.000000000000000D+00
 0.479230815061324D+03 0.000000000000000D+00 0.000000000000000D+00 0.479230815061324D+03
 0.461920588358853D+03 0.000000000000000D+00 0.000000000000000D+00 -.461920588358853D+03
 0.367972736486732D+03 -.425895729147815D+02 -.141738130761599D+03 0.312850388148518D+03
 0.112206953231750D+03 0.288019281880116D+02 0.387735749668485D+02 0.615649511989126D+02
 0.384595764666186D+03 -.529719818449119D+02 0.701500178185222D+02 -.374415339347431D+03
 0.763759490355088D+02 0.667596265716819D+02 0.328145379762279D+02 0.173102267024707D+02
 0.430785023202881D+03 0.000000000000000D+00 0.000000000000000D+00 0.430785023202881D+03
 0.430785023202881D+03 0.000000000000000D+00 0.000000000000000D+00 -.430785023202881D+03
 0.360643288882346D+03 -.144132120730431D+02 -.127888528683906D+03 0.312850388148518D+03
 0.116332923019822D+03 0.376398095902614D+02 0.431176824730840D+02 0.615649511989126D+02
 0.000000000000000D+00 0.000000000000000D+00 0.000000000000000D+00 0.000000000000000D+00
 0.384593834503593D+03 -.232265975172183D+02 0.847708462108223D+02 -.374415339347431D+03
 0.479230815061324D+03 0.000000000000000D+00 0.000000000000000D+00 0.479230815061324D+03
 0.461920588358853D+03 0.000000000000000D+00 0.000000000000000D+00 -.461920588358853D+03
 0.367972736486732D+03 -.425895729147815D+02 -.141738130761599D+03 0.312850388148518D+03
 0.112206953231750D+03 0.288019281880116D+02 0.387735749668485D+02 0.615649511989126D+02
 0.763759490355088D+02 0.667596265716819D+02 0.328145379762279D+02 0.173102267024707D+02
 0.384595764666186D+03 -.529719818449119D+02 0.701500178185222D+02 -.374415339347431D+03
0.339427230023D-02 0.000000000000D+00 0.000000000000D+00 0.936413238105D-05 0.000000000000D+00  6 -2 1 25 -24 21 21 2 0.11143830D+00 0.39414863D-01 0.33491406D+05 0.33491406D+05 0.33491406D+05 0.12099121D+01  1  2  2  1  6  1       -2 0.317076146410D-01 0.100000000000D+01
0.149989247546D-03 0.179120670346D-03 -.130348993653D-04 0.936413238105D-05 0.000000000000D+00  6 -2 1 25 -24 21 21 4 0.11143830D+00 0.39414863D-01 0.33491406D+05 0.33491406D+05 0.33491406D+05 0.12099121D+01  1  2  3  1  6  1       -2 0.205108985248D-02 0.100000000000D+01
0.125442451862D-03 0.000000000000D+00 0.000000000000D+00 0.936413238105D-05 0.000000000000D+00  6 -2 1 25 -24 21 21 4 0.11143830D+00 0.39414863D-01 0.33491406D+05 0.33491406D+05 0.33491406D+05 0.12099121D+01  1  2 15  1  6  1       -2 0.171541456668D-02 0.100000000000D+01
0.566153878525D-02 0.000000000000D+00 0.000000000000D+00 0.908558882265D-05 0.000000000000D+00  6 -2 1 25 -24 21 21 4 0.12815975D+00 0.39414863D-01 0.50585452D+05 0.50585452D+05 0.50585452D+05 0.11917814D+01  1  2 12  1  6  1       -2 0.516023520693D-01 0.100000000000D+01
-.483284105361D-02 0.000000000000D+00 0.000000000000D+00 0.936413238105D-05 0.000000000000D+00  6 -2 1 25 -24 21 21 4 0.11143830D+00 0.39414863D-01 0.33491406D+05 0.33491406D+05 0.33491406D+05 0.12099121D+01  1  2  4  1  6  1       -2 -.660886790614D-01 0.100000000000D+01
-.124911367315D-01 0.000000000000D+00 -.493477863091D-02 0.936413238105D-05 0.000000000000D+00  6 -2 1 25 -24 21 21 4 0.13055083D+00 0.39414863D-01 0.33491406D+05 0.33491406D+05 0.33491406D+05 0.12099121D+01  1  2  5  1  6  1       -2 -.116461377700D+00 0.100000000000D+01
0.131681387039D-01 0.000000000000D+00 0.487359405859D-02 0.936413238105D-05 0.000000000000D+00  6 -2 1 25 -24 21 21 4 0.11143830D+00 0.39414863D-01 0.33491406D+05 0.33491406D+05 0.33491406D+05 0.12099121D+01  1  2  6  1  6  1       -2 0.180073146000D+00 0.100000000000D+01
0.121949584577D-03 0.000000000000D+00 0.000000000000D+00 0.908558882265D-05 0.000000000000D+00  6 21 1 25 -24 2 21 4 0.12815975D+00 0.39414863D-01 0.50585452D+05 0.50585452D+05 0.50585452D+05 0.11917814D+01  3  4 12  4  5  1       -2 0.126186502114D-01 0.100000000000D+01
-.259843216598D-03 0.000000000000D+00 -.117553237375D-03 0.936413238105D-05 0.000000000000D+00  6 21 1 25 -24 2 21 4 0.13055083D+00 0.39414863D-01 0.33491406D+05 0.33491406D+05 0.33491406D+05 0.12099121D+01  3  4  5  4  5  1       -2 -.279566760325D-01 0.100000000000D+01
  </mgrwgt>
  </event>
  <event>
  6     66 0.39191994E-03 0.36154324E+02 0.75467711E-02 0.11935528E+00
       -2 -1    0    0    0  501 0.00000000E+00 0.00000000E+00 0.95228175E+03 0.95228180E+03 0.32000000E+00 0.0000E+00 0.9000E+01
       21 -1    0    0  502  503 0.00000000E+00 0.00000000E+00 -.25965468E+03 0.25965576E+03 0.75000000E+00 0.0000E+00 0.9000E+01
       25  1    1    2    0    0 0.70574074E+02 -.40420399E+02 0.42638521E+03 0.45171214E+03 0.12500000E+03 0.0000E+00 0.9000E+01
      -24  1    1    2    0    0 -.29777226E+02 0.56505649E+02 0.48566024E+03 0.49639970E+03 0.80419002E+02 0.0000E+00 0.9000E+01
       -1  1    1    2    0  503 -.44003679E+02 -.71296630E+00 -.23652943E+03 0.24058908E+03 0.32000000E+00 0.0000E+00 0.9000E+01
       21  1    1    2  502  501 0.32068306E+01 -.15372283E+02 0.17111053E+02 0.23236641E+02 0.75000000E+00 0.0000E+00 0.9000E+01
#aMCatNLO 2  0  0  2  1 0.64564120D+02 0.00000000D+00  -5  6  0 0.00000000D+00 0.00000000D+00 0.00000000D+00 0.00000000D+00 0.00000000D+00
  <mgrwgt>
 0.7493117313D+00    1    2    0
 0.139865308209142D+03 0.000000000000000D+00 0.000000000000000D+00 0.139865308209142D+03
 0.139865308209142D+03 0.000000000000000D+00 0.000000000000000D+00 -.139865308209142D+03
 0.141257743256160D+03 0.477736874841656D+02 -.407858124318137D+02 -.195689120358145D+02
 0.115087531832874D+03 -.473102268794660D+02 0.562248376782829D+02 0.371272688152033D+02
 0.000000000000000D+00 -.000000000000000D+00 -.000000000000000D+00 -.000000000000000D+00
 0.233853413292500D+02 -.463460604699553D+00 -.154390252464692D+02 -.175583567793888D+02
 0.141888131031533D+03 0.000000000000000D+00 0.000000000000000D+00 0.141888131031533D+03
 0.174267601217937D+04 0.000000000000000D+00 0.000000000000000D+00 -.174267601217937D+04
 0.150406468022273D+03 0.705739219076639D+02 -.404163933477572D+02 -.195689120358145D+02
 0.109204211993024D+03 -.297766929704882D+02 0.565089234432194D+02 0.371272688152033D+02
 0.160139272900004D+04 -.440036787494492D+02 -.712966296609102D+00 -.160078788114784D+04
 0.235607341955621D+02 0.320644981227357D+01 -.153795637988531D+02 -.175583567793888D+02
0.194090359911D-01 0.000000000000D+00 0.000000000000D+00 0.858531329250D-04 0.758906284244D-06  6 -2 21 25 -24 -1 21 4 0.14650496D+00 0.39946956D-01 0.24265372D+05 0.24265372D+05 0.24265372D+05 0.12246888D+01  1  2  1  5  5  2        1 0.749311731267D+00 0.100000000000D+01
  </mgrwgt>
  </event>
  <event>
  5     66 -.39191994E-03 0.27690100E+02 0.75467711E-02 0.12102808E+00
       -2 -1    0    0    0  501 0.00000000E+00 0.00000000E+00 0.24598402E+02 0.24600484E+02 0.32000000E+00 0.0000E+00 0.9000E+01
        1 -1    0    0  502    0 -.00000000E+00 -.00000000E+00 -.15129970E+04 0.15129970E+04 0.32000000E+00 0.0000E+00 0.9000E+01
       25  1    1    2    0    0 -.80963597E+02 0.77656431E+01 -.11959278E+04 0.12051904E+04 0.12500000E+03 0.0000E+00 0.9000E+01
      -24  1    1    2    0    0 0.69652228E+02 0.17507725E+02 -.28346908E+03 0.30328186E+03 0.80419002E+02 0.0000E+00 0.9000E+01
       21  1    1    2  502  501 0.11311368E+02 -.25273368E+02 -.90016829E+01 0.29125298E+02 0.75000000E+00 0.0000E+00 0.9000E+01
#aMCatNLO 1  0  0  5  2 0.24746843D+01 0.00000000D+00  -5  6  0 0.00000000D+00 0.00000000D+00 0.00000000D+00 0.00000000D+00 0.00000000D+00
  <mgrwgt>
 -.3758004794D+00   25    2    0
 0.192922096081644D+03 0.000000000000000D+00 0.000000000000000D+00 0.192922096081644D+03
 0.192922096081644D+03 -.000000000000000D+00 -.000000000000000D+00 -.192922096081644D+03
 0.189404989260215D+03 -.809638326969439D+02 0.776617047411078D+01 -.116763840069821D+03
 0.115099085037675D+03 0.696520849069915D+02 0.175080452503438D+02 0.402819915317074D+02
 0.813401178653969D+02 0.113117477899523D+02 -.252742157244546D+02 0.764818485381133D+02
 0.000000000000000D+00 0.000000000000000D+00 0.000000000000000D+00 0.000000000000000D+00
 0.192922096081644D+03 0.000000000000000D+00 0.000000000000000D+00 0.192922096081644D+03
 0.192922096081644D+03 -.000000000000000D+00 -.000000000000000D+00 -.192922096081644D+03
 0.189328930568904D+03 -.809476015644742D+02 0.772990471296509D+01 -.116654096903849D+03
 0.115125068468153D+03 0.696619514611543D+02 0.174860000789877D+02 0.403487020272985D+02
 0.161446325794395D+02 0.287780498786183D+01 -.719129462697430D+01 0.141651925918776D+02
 0.652455605467912D+02 0.840784511545807D+01 -.180246101649785D+02 0.621402022846725D+02
0.399604133761D-04 0.000000000000D+00 0.000000000000D+00 0.229913010222D-04 0.000000000000D+00  6 -2 1 25 -24 21 21 2 0.37845323D-02 0.23276893D+00 0.20255335D+05 0.20255335D+05 0.20255335D+05 0.12332200D+01  1  2  2  3  6  5       21 0.111964421333D-01 0.100000000000D+01
0.399334085844D-05 0.210876894901D-05 -.153458509183D-06 0.229913010222D-04 0.000000000000D+00  6 -2 1 25 -24 21 21 4 0.37845323D-02 0.23276893D+00 0.20255335D+05 0.20255335D+05 0.20255335D+05 0.12332200D+01  1  2  3  3  6  5       21 0.170163944235D-02 0.100000000000D+01
0.152813014338D-05 0.000000000000D+00 0.000000000000D+00 0.229913010222D-04 0.000000000000D+00  6 -2 1 25 -24 21 21 4 0.37845323D-02 0.23276893D+00 0.20255335D+05 0.20255335D+05 0.20255335D+05 0.12332200D+01  1  2 15  3  6  5       21 0.651165682370D-03 0.100000000000D+01
0.382064330936D-06 0.000000000000D+00 0.000000000000D+00 0.229920904090D-04 0.000000000000D+00  6 -2 1 25 -24 21 21 4 0.37845323D-02 0.23276893D+00 0.20246355D+05 0.20246355D+05 0.20246355D+05 0.12332411D+01  1  2 12  3  6  5       21 0.162815990887D-03 0.100000000000D+01
0.401792112547D-06 0.000000000000D+00 0.000000000000D+00 0.229920904090D-04 0.000000000000D+00  6 -2 1 25 -24 21 21 4 0.37845323D-02 0.23276893D+00 0.20246355D+05 0.20246355D+05 0.20246355D+05 0.12332411D+01  1  2 12  3  6  5       21 0.171222947651D-03 0.100000000000D+01
-.183005817474D-02 0.000000000000D+00 0.000000000000D+00 0.229913010222D-04 0.000000000000D+00  6 -2 1 25 -24 21 21 4 0.37845323D-02 0.23276893D+00 0.20255335D+05 0.20255335D+05 0.20255335D+05 0.12332200D+01  1  2  4  3  6  5       21 -.779823030971D+00 0.100000000000D+01
-.168518276299D-03 0.000000000000D+00 0.000000000000D+00 0.229913010222D-04 0.000000000000D+00  6 -2 1 25 -24 21 21 4 0.37845323D-02 0.23276893D+00 0.20255335D+05 0.20255335D+05 0.20255335D+05 0.12332200D+01  1  2  5  3  6  5       21 -.718088828058D-01 0.100000000000D+01
0.975735575813D-03 0.000000000000D+00 -.000000000000D+00 0.229913010222D-04 0.000000000000D+00  6 -2 1 25 -24 21 21 4 0.37845323D-02 0.23276893D+00 0.20255335D+05 0.20255335D+05 0.20255335D+05 0.12332200D+01  1  2  6  3  6  5       21 0.415779719278D+00 0.100000000000D+01
0.139477681417D-03 0.000000000000D+00 0.000000000000D+00 0.229913010222D-04 0.209187967524D-04  6 -2 1 25 -24 21 21 4 0.37845323D-02 0.23276893D+00 0.20246355D+05 0.20246355D+05 0.20246355D+05 0.12332411D+01  1  2 11  3  6  5       21 0.594381497246D-01 0.100000000000D+01
0.545314401428D-07 0.000000000000D+00 0.000000000000D+00 0.229920904090D-04 0.000000000000D+00  6 -2 1 25 -24 1 -1 4 0.37845323D-02 0.23276893D+00 0.20246355D+05 0.20246355D+05 0.20246355D+05 0.12332411D+01  1  2 12  6  6  5       21 0.232384699184D-04 0.100000000000D+01
0.574676439698D-07 0.000000000000D+00 0.000000000000D+00 0.229920904090D-04 0.000000000000D+00  6 -2 1 25 -24 1 -1 4 0.37845323D-02 0.23276893D+00 0.20246355D+05 0.20246355D+05 0.20246355D+05 0.12332411D+01  1  2 12  6  6  5       21 0.244897276173D-04 0.100000000000D+01
-.234527703466D-04 0.000000000000D+00 0.000000000000D+00 0.229913010222D-04 0.000000000000D+00  6 -2 1 25 -24 1 -1 4 0.37845323D-02 0.23276893D+00 0.20255335D+05 0.20255335D+05 0.20255335D+05 0.12332200D+01  1  2  5  6  6  5       21 -.999367709112D-02 0.100000000000D+01
0.153200883756D-04 0.000000000000D+00 0.000000000000D+00 0.229913010222D-04 0.242064557708D-06  6 -2 1 25 -24 1 -1 4 0.37845323D-02 0.23276893D+00 0.20246355D+05 0.20246355D+05 0.20246355D+05 0.12332411D+01  1  2 11  6  6  5       21 0.652862664057D-02 0.100000000000D+01
0.545314401428D-07 0.000000000000D+00 0.000000000000D+00 0.229920904090D-04 0.000000000000D+00  6 -2 1 25 -24 2 -2 4 0.37845323D-02 0.23276893D+00 0.20246355D+05 0.20246355D+05 0.20246355D+05 0.12332411D+01  1  2 12  7  6  5       21 0.232384699184D-04 0.100000000000D+01
0.574676439698D-07 0.000000000000D+00 0.000000000000D+00 0.229920904090D-04 0.000000000000D+00  6 -2 1 25 -24 2 -2 4 0.37845323D-02 0.23276893D+00 0.20246355D+05 0.20246355D+05 0.20246355D+05 0.12332411D+01  1  2 12  7  6  5       21 0.244897276173D-04 0.100000000000D+01
-.234527703466D-04 0.000000000000D+00 0.000000000000D+00 0.229913010222D-04 0.000000000000D+00  6 -2 1 25 -24 2 -2 4 0.37845323D-02 0.23276893D+00 0.20255335D+05 0.20255335D+05 0.20255335D+05 0.12332200D+01  1  2  5  7  6  5       21 -.999367709112D-02 0.100000000000D+01
0.160732353908D-04 0.000000000000D+00 0.000000000000D+00 0.229913010222D-04 0.255387033662D-06  6 -2 1 25 -24 2 -2 4 0.37845323D-02 0.23276893D+00 0.20246355D+05 0.20246355D+05 0.20246355D+05 0.12332411D+01  1  2 11  7  6  5       21 0.684957881441D-02 0.100000000000D+01
0.545314401428D-07 0.000000000000D+00 0.000000000000D+00 0.229920904090D-04 0.000000000000D+00  6 -2 1 25 -24 3 -3 4 0.37845323D-02 0.23276893D+00 0.20246355D+05 0.20246355D+05 0.20246355D+05 0.12332411D+01  1  2 12  8  6  5       21 0.232384699184D-04 0.100000000000D+01
0.545314401428D-07 0.000000000000D+00 0.000000000000D+00 0.229920904090D-04 0.000000000000D+00  6 -2 1 25 -24 4 -4 4 0.37845323D-02 0.23276893D+00 0.20246355D+05 0.20246355D+05 0.20246355D+05 0.12332411D+01  1  2 12  8  6  5       21 0.232384699184D-04 0.100000000000D+01
0.574676439698D-07 0.000000000000D+00 0.000000000000D+00 0.229920904090D-04 0.000000000000D+00  6 -2 1 25 -24 3 -3 4 0.37845323D-02 0.23276893D+00 0.20246355D+05 0.20246355D+05 0.20246355D+05 0.12332411D+01  1  2 12  8  6  5       21 0.244897276173D-04 0.100000000000D+01
0.574676439698D-07 0.000000000000D+00 0.000000000000D+00 0.229920904090D-04 0.000000000000D+00  6 -2 1 25 -24 4 -4 4 0.37845323D-02 0.23276893D+00 0.20246355D+05 0.20246355D+05 0.20246355D+05 0.12332411D+01  1  2 12  8  6  5       21 0.244897276173D-04 0.100000000000D+01
-.234527703466D-04 0.000000000000D+00 0.000000000000D+00 0.229913010222D-04 0.000000000000D+00  6 -2 1 25 -24 3 -3 4 0.37845323D-02 0.23276893D+00 0.20255335D+05 0.20255335D+05 0.20255335D+05 0.12332200D+01  1  2  5  8  6  5       21 -.999367709112D-02 0.100000000000D+01
-.234527703466D-04 0.000000000000D+00 0.000000000000D+00 0.229913010222D-04 0.000000000000D+00  6 -2 1 25 -24 4 -4 4 0.37845323D-02 0.23276893D+00 0.20255335D+05 0.20255335D+05 0.20255335D+05 0.12332200D+01  1  2  5  8  6  5       21 -.999367709112D-02 0.100000000000D+01
0.154123285980D-04 0.000000000000D+00 0.000000000000D+00 0.229913010222D-04 0.243475751806D-06  6 -2 1 25 -24 3 -3 4 0.37845323D-02 0.23276893D+00 0.20246355D+05 0.20246355D+05 0.20246355D+05 0.12332411D+01  1  2 11  8  6  5       21 0.656793463657D-02 0.100000000000D+01
0.154123285980D-04 0.000000000000D+00 0.000000000000D+00 0.229913010222D-04 0.243475751806D-06  6 -2 1 25 -24 4 -4 4 0.37845323D-02 0.23276893D+00 0.20246355D+05 0.20246355D+05 0.20246355D+05 0.12332411D+01  1  2 11  8  6  5       21 0.656793463657D-02 0.100000000000D+01
  </mgrwgt>
  </event>
  <event>
  6     66 0.39191994E-03 0.17040417E+02 0.75467711E-02 0.12416052E+00
       21 -1    0    0  503  501 0.00000000E+00 0.00000000E+00 0.68451891E+02 0.68455999E+02 0.75000000E+00 0.0000E+00 0.9000E+01
        1 -1    0    0  502    0 0.00000000E+00 0.00000000E+00 -.37698513E+03 0.37698526E+03 0.32000000E+00 0.0000E+00 0.9000E+01
       25  1    1    2    0    0 0.93358441E+01 -.31578368E+02 -.27981160E+03 0.30822700E+03 0.12500000E+03 0.0000E+00 0.9000E+01
      -24  1    1    2    0    0 -.20556094E+00 0.22117843E+02 -.93260965E+01 0.83925165E+02 0.80419002E+02 0.0000E+00 0.9000E+01
        2  1    1    2  503    0 -.15893504E+02 0.13842399E+02 0.96168285E+01 0.23168972E+02 0.32000000E+00 0.0000E+00 0.9000E+01
       21  1    1    2  502  501 0.67632210E+01 -.43818739E+01 -.29012370E+02 0.30120128E+02 0.75000000E+00 0.0000E+00 0.9000E+01
#aMCatNLO 2  0  0  1  5 0.24748745D+02 0.00000000D+00  -5  6  0 0.00000000D+00 0.00000000D+00 0.00000000D+00 0.00000000D+00 0.00000000D+00
  <mgrwgt>
 0.7070226115D-01    1    2    0
 0.138428869222043D+03 0.000000000000000D+00 0.000000000000000D+00 0.138428869222043D+03
 0.138428869222043D+03 0.000000000000000D+00 0.000000000000000D+00 -.138428869222043D+03
 0.146452791322319D+03 0.885674532988816D+00 -.242202834323970D+02 -.723603036006246D+02
 0.118412579696060D+03 -.695639180652539D+01 0.279961930359345D+02 0.819886874174365D+02
 0.000000000000000D+00 -.000000000000000D+00 0.000000000000000D+00 0.000000000000000D+00
 0.119923674257065D+02 0.607071727353658D+01 -.377590960353750D+01 -.962838381681186D+01
 0.182543040374897D+03 0.000000000000000D+00 0.000000000000000D+00 0.182543040374897D+03
 0.141369898487779D+03 0.000000000000000D+00 0.000000000000000D+00 -.141369898487779D+03
 0.148138366691020D+03 0.932921999851173D+01 -.315741635348864D+02 -.723603036006246D+02
 0.116956101540934D+03 -.210275682107461D+00 0.221206838272720D+02 0.819886874174365D+02
 0.462541143684323D+02 -.158935042114987D+02 0.138423988900181D+02 0.411731418871175D+02
 0.125643562622897D+02 0.677455989509445D+01 -.438891918240378D+01 -.962838381681186D+01
0.548380270192D-05 0.000000000000D+00 0.000000000000D+00 0.293253054306D-03 0.178538721566D-06  6 21 1 25 -24 2 21 4 0.10531346D-01 0.57997815D-01 0.14618952D+05 0.14618952D+05 0.14618952D+05 0.12490985D+01  1  2  1  4  5  1       -2 0.707022611477D-01 0.100000000000D+01
  </mgrwgt>
  </event>
  <event>
  5     66 0.39191994E-03 0.80634114E+02 0.75467711E-02 0.10324021E+00
       -2 -1    0    0    0  501 0.00000000E+00 0.00000000E+00 0.19182765E+03 0.19182792E+03 0.32000000E+00 0.0000E+00 0.9000E+01
        1 -1    0    0  502    0 0.00000000E+00 0.00000000E+00 -.56204962E+03 0.56204972E+03 0.32000000E+00 0.0000E+00 0.9000E+01
       25  1    1    2    0    0 -.22745683E+03 0.48602820E+02 -.43413563E+01 0.26408841E+03 0.12500000E+03 0.0000E+00 0.9000E+01
      -24  1    1    2    0    0 0.21948757E+03 0.31633444E+02 -.31824718E+03 0.39613628E+03 0.80419002E+02 0.0000E+00 0.9000E+01
       21  1    1    2  502  501 0.79692557E+01 -.80236264E+02 -.47633438E+02 0.93652945E+02 0.75000000E+00 0.0000E+00 0.9000E+01
#aMCatNLO 1  0  0  1  5 0.24748745D+02 0.00000000D+00  -5  6  0 0.00000000D+00 0.00000000D+00 0.00000000D+00 0.00000000D+00 0.00000000D+00
  <mgrwgt>
 0.3410479298D+00    3    2    0
 0.328354679001896D+03 0.000000000000000D+00 0.000000000000000D+00 0.328354679001896D+03
 0.328354679001896D+03 0.000000000000000D+00 0.000000000000000D+00 -.328354679001896D+03
 0.300716502644234D+03 -.227456985279863D+03 0.486044083831662D+02 0.143896998911368D+03
 0.275336727499878D+03 0.219487427326944D+03 0.316348988935330D+02 -.142012675396837D+03
 0.806561278596791D+02 0.796955795291958D+01 -.802393072766991D+02 -.188432351453139D+01
 0.000000000000000D+00 0.000000000000000D+00 0.000000000000000D+00 -.000000000000000D+00
 0.359449918838666D+03 0.000000000000000D+00 0.000000000000000D+00 0.359449918838666D+03
 0.196294751383244D+04 0.000000000000000D+00 0.000000000000000D+00 -.196294751383244D+04
 0.309518061083899D+03 -.236205977260585D+03 -.606367887326676D+02 0.143896998911368D+03
 0.275481829581770D+03 0.211590288382046D+03 -.669699362728061D+02 -.142012675396837D+03
 0.115481524195818D+03 0.515751345896725D+01 -.115350907280361D+03 -.188432351453139D+01
 0.162191601780962D+04 0.194581754195713D+02 0.242957632285835D+03 -.160349759499377D+04
0.625153314227D-02 0.000000000000D+00 0.000000000000D+00 0.175965892510D-05 0.000000000000D+00  6 -2 1 25 -24 21 21 2 0.29511974D-01 0.86469200D-01 0.84266643D+05 0.84266643D+05 0.84266643D+05 0.11704635D+01  1  2  2  1  6  1       -2 0.307039188722D+00 0.100000000000D+01
0.393245827272D-03 0.329902467476D-03 -.240075333328D-04 0.175965892510D-05 0.000000000000D+00  6 -2 1 25 -24 21 21 4 0.29511974D-01 0.86469200D-01 0.84266643D+05 0.84266643D+05 0.84266643D+05 0.11704635D+01  1  2  3  1  6  1       -2 0.264598362233D-01 0.100000000000D+01
0.112191750281D-03 0.000000000000D+00 0.000000000000D+00 0.175965892510D-05 0.000000000000D+00  6 -2 1 25 -24 21 21 4 0.29511974D-01 0.86469200D-01 0.84266643D+05 0.84266643D+05 0.84266643D+05 0.11704635D+01  1  2 15  1  6  1       -2 0.754890486348D-02 0.100000000000D+01
  </mgrwgt>
  </event>
  <event>
  5     66 0.39191994E-03 0.33572755E+02 0.75467711E-02 0.10878527E+00
       -2 -1    0    0    0  501 0.00000000E+00 0.00000000E+00 0.21253416E+03 0.21253440E+03 0.32000000E+00 0.0000E+00 0.9000E+01
        1 -1    0    0  502    0 0.00000000E+00 0.00000000E+00 -.33017657E+03 0.33017673E+03 0.32000000E+00 0.0000E+00 0.9000E+01
       25  1    1    2    0    0 -.99488749E+02 -.18205595E+03 -.15035877E+03 0.28508795E+03 0.12500000E+03 0.0000E+00 0.9000E+01
      -24  1    1    2    0    0 0.12377640E+03 0.15888860E+03 0.45685903E+02 0.22163168E+03 0.80419002E+02 0.0000E+00 0.9000E+01
       21  1    1    2  502  501 -.24287655E+02 0.23167349E+02 -.12969552E+02 0.35991499E+02 0.75000000E+00 0.0000E+00 0.9000E+01
#aMCatNLO 1  0  0  2  2 0.89275515D+02 0.00000000D+00  -5  6  0 0.00000000D+00 0.00000000D+00 0.00000000D+00 0.00000000D+00 0.00000000D+00
  <mgrwgt>
 0.2672028139D+00    4    2    0
 0.264903580646055D+03 0.000000000000000D+00 0.000000000000000D+00 0.264903580646055D+03
 0.264903580646055D+03 0.000000000000000D+00 0.000000000000000D+00 -.264903580646055D+03
 0.258645340301100D+03 -.994858615117407D+02 -.182058699971322D+03 -.907171713816655D+02
 0.237174102814886D+03 0.123779052228964D+03 0.158886070070705D+03 0.960119891391794D+02
 0.339877181761245D+02 -.242931907172235D+02 0.231726299006174D+02 -.529481775751390D+01
 0.000000000000000D+00 -.000000000000000D+00 0.000000000000000D+00 0.000000000000000D+00
 0.417372524540653D+03 0.000000000000000D+00 0.000000000000000D+00 0.417372524540653D+03
 0.282034673798097D+03 0.000000000000000D+00 0.000000000000000D+00 -.282034673798097D+03
 0.282342400984136D+03 -.793981718562960D+02 -.222617511700842D+03 -.907171713816655D+02
 0.225782840912998D+03 0.140969340843167D+03 0.124177365812593D+03 0.960119891391794D+02
 0.291509865903259D+02 -.219487555113868D+02 0.184390090733056D+02 -.529481775751390D+01
 0.162130969851290D+03 -.396224134754843D+02 0.800011368149428D+02 0.135337850742556D+03
0.235125685589D-02 0.000000000000D+00 0.000000000000D+00 0.118733028026D-04 0.000000000000D+00  6 -2 1 25 -24 21 21 2 0.32697593D-01 0.50796426D-01 0.60678136D+05 0.60678136D+05 0.60678136D+05 0.11840452D+01  1  2  2  2  6  2        1 0.196534934079D+00 0.100000000000D+01
0.651508073208D-03 0.124079233170D-03 -.902944542676D-05 0.118733028026D-04 0.000000000000D+00  6 -2 1 25 -24 21 21 4 0.32697593D-01 0.50796426D-01 0.60678136D+05 0.60678136D+05 0.60678136D+05 0.11840452D+01  1  2  3  2  6  2        1 0.763477195379D-01 0.100000000000D+01
0.688887719257D-04 0.000000000000D+00 0.000000000000D+00 0.118733028026D-04 0.000000000000D+00  6 -2 1 25 -24 21 21 4 0.32697593D-01 0.50796426D-01 0.60678136D+05 0.60678136D+05 0.60678136D+05 0.11840452D+01  1  2 15  2  6  2        1 0.807280961599D-02 0.100000000000D+01
-.117357297780D-03 0.000000000000D+00 0.000000000000D+00 0.118733028026D-04 0.000000000000D+00  6 -2 1 25 -24 21 21 4 0.32697593D-01 0.50796426D-01 0.60678136D+05 0.60678136D+05 0.60678136D+05 0.11840452D+01  1  2  4  2  6  2        1 -.137526493148D-01 0.100000000000D+01
  </mgrwgt>
  </event>
  <event>
  5     66 0.39191994E-03 0.31762888E+02 0.75467711E-02 0.11993824E+00
       -2 -1    0    0    0  501 0.00000000E+00 0.00000000E+00 0.48798885E+02 0.48799934E+02 0.32000000E+00 0.0000E+00 0.9000E+01
        1 -1    0    0  502    0 -.00000000E+00 -.00000000E+00 -.53243567E+03 0.53243577E+03 0.32000000E+00 0.0000E+00 0.9000E+01
       25  1    1    2    0    0 -.42018684E+02 -.48301773E+02 -.22204131E+03 0.26272794E+03 0.12500000E+03 0.0000E+00 0.9000E+01
      -24  1    1    2    0    0 0.59004480E+02 0.75137698E+02 -.11928454E+03 0.17269401E+03 0.80419002E+02 0.0000E+00 0.9000E+01
       21  1    1    2  502  501 -.16985796E+02 -.26835925E+02 -.14231094E+03 0.14581375E+03 0.75000000E+00 0.0000E+00 0.9000E+01
#aMCatNLO 1  0  0  5  1 0.81318933D+01 0.00000000D+00  -5  6  0 0.00000000D+00 0.00000000D+00 0.00000000D+00 0.00000000D+00 0.00000000D+00
  <mgrwgt>
 0.7850550678D-01   20    2    0
 0.161191190531462D+03 0.000000000000000D+00 0.000000000000000D+00 0.161191190531462D+03
 0.161191190531462D+03 -.000000000000000D+00 -.000000000000000D+00 -.161191190531462D+03
 0.140576102491145D+03 -.420178303232744D+02 -.483004241255284D+02 -.618154962929561D+01
 0.132408197005814D+03 0.590052846040336D+02 0.751389684181482D+02 0.440139352229897D+02
 0.493980815659652D+02 -.169874542807592D+02 -.268385442926198D+02 -.378323855936940D+02
 0.000000000000000D+00 0.000000000000000D+00 -.000000000000000D+00 0.000000000000000D+00
 0.161191190531462D+03 0.000000000000000D+00 0.000000000000000D+00 0.161191190531462D+03
 0.161191190531462D+03 -.000000000000000D+00 -.000000000000000D+00 -.161191190531462D+03
 0.141537686866050D+03 -.430129592681086D+02 -.498726321692640D+02 -.839777940299716D+01
 0.130490564920080D+03 0.580779347990148D+02 0.736738448978488D+02 0.419486548799869D+02
 0.862703592269565D+01 0.188816992272153D+01 0.396797061997212D+01 -.742399975171396D+01
 0.417270933540983D+02 -.169531454536277D+02 -.277691833485569D+02 -.261268757252757D+02
0.142457919447D-03 0.000000000000D+00 0.000000000000D+00 0.206479538416D-04 0.000000000000D+00  6 -2 1 25 -24 21 21 2 0.75076089D-02 0.81913268D-01 0.22064395D+05 0.22064395D+05 0.22064395D+05 0.12291568D+01  1  2  2  3  6  5       21 0.797898214276D-01 0.100000000000D+01
0.134652671697D-04 0.751771094668D-05 -.547075920709D-06 0.206479538416D-04 0.000000000000D+00  6 -2 1 25 -24 21 21 4 0.75076089D-02 0.81913268D-01 0.22064395D+05 0.22064395D+05 0.22064395D+05 0.12291568D+01  1  2  3  3  6  5       21 0.113943733103D-01 0.100000000000D+01
0.501030741706D-05 0.000000000000D+00 0.000000000000D+00 0.206479538416D-04 0.000000000000D+00  6 -2 1 25 -24 21 21 4 0.75076089D-02 0.81913268D-01 0.22064395D+05 0.22064395D+05 0.22064395D+05 0.12291568D+01  1  2 15  3  6  5       21 0.423974603622D-02 0.100000000000D+01
0.840526356398D-05 0.000000000000D+00 0.000000000000D+00 0.205982340777D-04 0.000000000000D+00  6 -2 1 25 -24 21 21 4 0.75076089D-02 0.81913268D-01 0.22768087D+05 0.22768087D+05 0.22768087D+05 0.12276760D+01  1  2 12  3  6  5       21 0.708320880120D-02 0.100000000000D+01
-.107109423404D-03 0.000000000000D+00 0.000000000000D+00 0.206479538416D-04 0.000000000000D+00  6 -2 1 25 -24 21 21 4 0.75076089D-02 0.81913268D-01 0.22064395D+05 0.22064395D+05 0.22064395D+05 0.12291568D+01  1  2  4  3  6  5       21 -.906365050123D-01 0.100000000000D+01
-.909108980365D-05 0.000000000000D+00 0.000000000000D+00 0.206479538416D-04 0.000000000000D+00  6 -2 1 25 -24 21 21 4 0.75076089D-02 0.81913268D-01 0.22064395D+05 0.22064395D+05 0.22064395D+05 0.12291568D+01  1  2  5  3  6  5       21 -.769292355769D-02 0.100000000000D+01
0.879916736004D-04 0.000000000000D+00 -.000000000000D+00 0.206479538416D-04 0.000000000000D+00  6 -2 1 25 -24 21 21 4 0.75076089D-02 0.81913268D-01 0.22064395D+05 0.22064395D+05 0.22064395D+05 0.12291568D+01  1  2  6  3  6  5       21 0.744589739339D-01 0.100000000000D+01
0.173139650247D-07 0.000000000000D+00 0.000000000000D+00 0.206479538416D-04 0.204619110085D-05  6 -2 1 25 -24 21 21 4 0.75076089D-02 0.81913268D-01 0.22768087D+05 0.22768087D+05 0.22768087D+05 0.12276760D+01  1  2 11  3  6  5       21 0.145906703000D-04 0.100000000000D+01
0.209247388317D-05 0.000000000000D+00 0.000000000000D+00 0.205982340777D-04 0.000000000000D+00  6 -2 1 25 -24 1 -1 4 0.75076089D-02 0.81913268D-01 0.22768087D+05 0.22768087D+05 0.22768087D+05 0.12276760D+01  1  2 12  6  6  5       21 0.176335094227D-02 0.100000000000D+01
-.213859287355D-05 0.000000000000D+00 0.000000000000D+00 0.206479538416D-04 0.000000000000D+00  6 -2 1 25 -24 1 -1 4 0.75076089D-02 0.81913268D-01 0.22064395D+05 0.22064395D+05 0.22064395D+05 0.12291568D+01  1  2  5  6  6  5       21 -.180968749101D-02 0.100000000000D+01
0.632709352746D-08 0.000000000000D+00 0.000000000000D+00 0.206479538416D-04 0.542983295123D-07  6 -2 1 25 -24 1 -1 4 0.75076089D-02 0.81913268D-01 0.22768087D+05 0.22768087D+05 0.22768087D+05 0.12276760D+01  1  2 11  6  6  5       21 0.533191186910D-05 0.100000000000D+01
0.209247388317D-05 0.000000000000D+00 0.000000000000D+00 0.205982340777D-04 0.000000000000D+00  6 -2 1 25 -24 2 -2 4 0.75076089D-02 0.81913268D-01 0.22768087D+05 0.22768087D+05 0.22768087D+05 0.12276760D+01  1  2 12  7  6  5       21 0.176335094227D-02 0.100000000000D+01
-.213859287355D-05 0.000000000000D+00 0.000000000000D+00 0.206479538416D-04 0.000000000000D+00  6 -2 1 25 -24 2 -2 4 0.75076089D-02 0.81913268D-01 0.22064395D+05 0.22064395D+05 0.22064395D+05 0.12291568D+01  1  2  5  7  6  5       21 -.180968749101D-02 0.100000000000D+01
0.135546694918D-07 0.000000000000D+00 0.000000000000D+00 0.206479538416D-04 0.389094479381D-07  6 -2 1 25 -24 2 -2 4 0.75076089D-02 0.81913268D-01 0.22768087D+05 0.22768087D+05 0.22768087D+05 0.12276760D+01  1  2 11  7  6  5       21 0.114226702721D-04 0.100000000000D+01
0.209247388317D-05 0.000000000000D+00 0.000000000000D+00 0.205982340777D-04 0.000000000000D+00  6 -2 1 25 -24 3 -3 4 0.75076089D-02 0.81913268D-01 0.22768087D+05 0.22768087D+05 0.22768087D+05 0.12276760D+01  1  2 12  8  6  5       21 0.176335094227D-02 0.100000000000D+01
0.209247388317D-05 0.000000000000D+00 0.000000000000D+00 0.205982340777D-04 0.000000000000D+00  6 -2 1 25 -24 4 -4 4 0.75076089D-02 0.81913268D-01 0.22768087D+05 0.22768087D+05 0.22768087D+05 0.12276760D+01  1  2 12  8  6  5       21 0.176335094227D-02 0.100000000000D+01
-.213859287355D-05 0.000000000000D+00 0.000000000000D+00 0.206479538416D-04 0.000000000000D+00  6 -2 1 25 -24 3 -3 4 0.75076089D-02 0.81913268D-01 0.22064395D+05 0.22064395D+05 0.22064395D+05 0.12291568D+01  1  2  5  8  6  5       21 -.180968749101D-02 0.100000000000D+01
-.213859287355D-05 0.000000000000D+00 0.000000000000D+00 0.206479538416D-04 0.000000000000D+00  6 -2 1 25 -24 4 -4 4 0.75076089D-02 0.81913268D-01 0.22064395D+05 0.22064395D+05 0.22064395D+05 0.12291568D+01  1  2  5  8  6  5       21 -.180968749101D-02 0.100000000000D+01
0.135353539947D-07 0.000000000000D+00 0.000000000000D+00 0.206479538416D-04 0.386710705624D-07  6 -2 1 25 -24 3 -3 4 0.75076089D-02 0.81913268D-01 0.22768087D+05 0.22768087D+05 0.22768087D+05 0.12276760D+01  1  2 11  8  6  5       21 0.114063928885D-04 0.100000000000D+01
0.135353539947D-07 0.000000000000D+00 0.000000000000D+00 0.206479538416D-04 0.386710705624D-07  6 -2 1 25 -24 4 -4 4 0.75076089D-02 0.81913268D-01 0.22768087D+05 0.22768087D+05 0.22768087D+05 0.12276760D+01  1  2 11  8  6  5       21 0.114063928885D-04 0.100000000000D+01
  </mgrwgt>
  </event>
  <event>
  5     66 0.39191994E-03 0.36992793E+02 0.75467711E-02 0.11938466E+00
       -2 -1    0    0    0  501 0.00000000E+00 0.00000000E+00 0.35710278E+02 0.35711712E+02 0.32000000E+00 0.0000E+00 0.9000E+01
        1 -1    0    0  502    0 -.00000000E+00 -.00000000E+00 -.80948814E+03 0.80948820E+03 0.32000000E+00 0.0000E+00 0.9000E+01
       25  1    1    2    0    0 -.10765736E+03 0.14118754E+02 -.25212341E+03 0.30163001E+03 0.12500000E+03 0.0000E+00 0.9000E+01
      -24  1    1    2    0    0 0.68776303E+02 -.92624124E+01 -.29475584E+03 0.31331165E+03 0.80419002E+02 0.0000E+00 0.9000E+01
       21  1    1    2  502  501 0.38881058E+02 -.48563414E+01 -.22689862E+03 0.23025826E+03 0.75000000E+00 0.0000E+00 0.9000E+01
#aMCatNLO 1  0  0  5  2 0.54762127D+00 0.00000000D+00  -5  6  0 0.00000000D+00 0.00000000D+00 0.00000000D+00 0.00000000D+00 0.00000000D+00
  <mgrwgt>
 0.6876261463D-01   25    2    0
 0.170022584438584D+03 0.000000000000000D+00 0.000000000000000D+00 0.170022584438584D+03
 0.170022584438584D+03 -.000000000000000D+00 -.000000000000000D+00 -.170022584438584D+03
 0.176008199962096D+03 -.107659165902566D+03 0.141189792316065D+02 0.596996220801982D+02
 0.108030136941831D+03 0.687751951601681D+02 -.926227408069703D+01 -.196844441840533D+02
 0.560068319732395D+02 0.388839707423983D+02 -.485670515090949D+01 -.400151778961449D+02
 0.000000000000000D+00 0.000000000000000D+00 0.000000000000000D+00 0.000000000000000D+00
 0.170022584438584D+03 0.000000000000000D+00 0.000000000000000D+00 0.170022584438584D+03
 0.170022584438584D+03 -.000000000000000D+00 -.000000000000000D+00 -.170022584438584D+03
 0.175978837806271D+03 -.107628915833130D+03 0.141152009223125D+02 0.596684919798832D+02
 0.108045642124079D+03 0.687937648988768D+02 -.926459348748382D+01 -.197035541510583D+02
 0.188265471244748D+01 0.110876831816328D+01 -.679912289420581D+00 -.136115423873749D+01
 0.541380342343705D+02 0.377263826160903D+02 -.417069514540806D+01 -.386037835900874D+02
0.529614189342D-04 0.000000000000D+00 0.000000000000D+00 0.128472075214D-04 0.000000000000D+00  6 -2 1 25 -24 21 21 2 0.54940041D-02 0.12453675D+00 0.24177452D+05 0.24177452D+05 0.24177452D+05 0.12248585D+01  1  2  2  3  6  5       21 0.263216202540D-01 0.100000000000D+01
0.324299673514D-05 0.279485086135D-05 -.203385793769D-06 0.128472075214D-04 0.000000000000D+00  6 -2 1 25 -24 21 21 4 0.54940041D-02 0.12453675D+00 0.24177452D+05 0.24177452D+05 0.24177452D+05 0.12248585D+01  1  2  3  3  6  5       21 0.241808369113D-02 0.100000000000D+01
0.116098182881D-05 0.000000000000D+00 0.000000000000D+00 0.128472075214D-04 0.000000000000D+00  6 -2 1 25 -24 21 21 4 0.54940041D-02 0.12453675D+00 0.24177452D+05 0.24177452D+05 0.24177452D+05 0.12248585D+01  1  2 15  3  6  5       21 0.865665757703D-03 0.100000000000D+01
0.209909205670D-14 0.000000000000D+00 0.000000000000D+00 0.128468103506D-04 0.000000000000D+00  6 -2 1 25 -24 21 21 4 0.54940041D-02 0.12453675D+00 0.24187247D+05 0.24187247D+05 0.24187247D+05 0.12248395D+01  1  2 12  3  6  5       21 0.156506485453D-11 0.100000000000D+01
0.205278071723D-14 0.000000000000D+00 0.000000000000D+00 0.128468103506D-04 0.000000000000D+00  6 -2 1 25 -24 21 21 4 0.54940041D-02 0.12453675D+00 0.24187247D+05 0.24187247D+05 0.24187247D+05 0.12248395D+01  1  2 12  3  6  5       21 0.153053552098D-11 0.100000000000D+01
-.474343995232D-03 0.000000000000D+00 0.000000000000D+00 0.128472075214D-04 0.000000000000D+00  6 -2 1 25 -24 21 21 4 0.54940041D-02 0.12453675D+00 0.24177452D+05 0.24177452D+05 0.24177452D+05 0.12248585D+01  1  2  4  3  6  5       21 -.353686288496D+00 0.100000000000D+01
-.626242862754D-05 0.000000000000D+00 0.000000000000D+00 0.128472075214D-04 0.000000000000D+00  6 -2 1 25 -24 21 21 4 0.54940041D-02 0.12453675D+00 0.24177452D+05 0.24177452D+05 0.24177452D+05 0.12248585D+01  1  2  5  3  6  5       21 -.466947017462D-02 0.100000000000D+01
0.525626984892D-03 0.000000000000D+00 -.000000000000D+00 0.128472075214D-04 0.000000000000D+00  6 -2 1 25 -24 21 21 4 0.54940041D-02 0.12453675D+00 0.24177452D+05 0.24177452D+05 0.24177452D+05 0.12248585D+01  1  2  6  3  6  5       21 0.391924551145D+00 0.100000000000D+01
0.633321676409D-05 0.000000000000D+00 0.000000000000D+00 0.128472075214D-04 0.354538057056D-03  6 -2 1 25 -24 21 21 4 0.54940041D-02 0.12453675D+00 0.24187247D+05 0.24187247D+05 0.24187247D+05 0.12248395D+01  1  2 11  3  6  5       21 0.472199155913D-02 0.100000000000D+01
0.950101197970D-14 0.000000000000D+00 0.000000000000D+00 0.128468103506D-04 0.000000000000D+00  6 -2 1 25 -24 1 -1 4 0.54940041D-02 0.12453675D+00 0.24187247D+05 0.24187247D+05 0.24187247D+05 0.12248395D+01  1  2 12  6  6  5       21 0.708387223152D-11 0.100000000000D+01
0.948138410614D-14 0.000000000000D+00 0.000000000000D+00 0.128468103506D-04 0.000000000000D+00  6 -2 1 25 -24 1 -1 4 0.54940041D-02 0.12453675D+00 0.24187247D+05 0.24187247D+05 0.24187247D+05 0.12248395D+01  1  2 12  6  6  5       21 0.706923785902D-11 0.100000000000D+01
-.299480779299D-04 0.000000000000D+00 0.000000000000D+00 0.128472075214D-04 0.000000000000D+00  6 -2 1 25 -24 1 -1 4 0.54940041D-02 0.12453675D+00 0.24177452D+05 0.24177452D+05 0.24177452D+05 0.12248585D+01  1  2  5  6  6  5       21 -.223302595523D-01 0.100000000000D+01
0.302374114215D-04 0.000000000000D+00 0.000000000000D+00 0.128472075214D-04 0.205950238825D-05  6 -2 1 25 -24 1 -1 4 0.54940041D-02 0.12453675D+00 0.24187247D+05 0.24187247D+05 0.24187247D+05 0.12248395D+01  1  2 11  6  6  5       21 0.225447520306D-01 0.100000000000D+01
0.950101197970D-14 0.000000000000D+00 0.000000000000D+00 0.128468103506D-04 0.000000000000D+00  6 -2 1 25 -24 2 -2 4 0.54940041D-02 0.12453675D+00 0.24187247D+05 0.24187247D+05 0.24187247D+05 0.12248395D+01  1  2 12  7  6  5       21 0.708387223152D-11 0.100000000000D+01
0.948138410614D-14 0.000000000000D+00 0.000000000000D+00 0.128468103506D-04 0.000000000000D+00  6 -2 1 25 -24 2 -2 4 0.54940041D-02 0.12453675D+00 0.24187247D+05 0.24187247D+05 0.24187247D+05 0.12248395D+01  1  2 12  7  6  5       21 0.706923785902D-11 0.100000000000D+01
-.299480779299D-04 0.000000000000D+00 0.000000000000D+00 0.128472075214D-04 0.000000000000D+00  6 -2 1 25 -24 2 -2 4 0.54940041D-02 0.12453675D+00 0.24177452D+05 0.24177452D+05 0.24177452D+05 0.12248585D+01  1  2  5  7  6  5       21 -.223302595523D-01 0.100000000000D+01
0.302423642548D-04 0.000000000000D+00 0.000000000000D+00 0.128472075214D-04 0.203492090148D-05  6 -2 1 25 -24 2 -2 4 0.54940041D-02 0.12453675D+00 0.24187247D+05 0.24187247D+05 0.24187247D+05 0.12248395D+01  1  2 11  7  6  5       21 0.225484448202D-01 0.100000000000D+01
0.950101197970D-14 0.000000000000D+00 0.000000000000D+00 0.128468103506D-04 0.000000000000D+00  6 -2 1 25 -24 3 -3 4 0.54940041D-02 0.12453675D+00 0.24187247D+05 0.24187247D+05 0.24187247D+05 0.12248395D+01  1  2 12  8  6  5       21 0.708387223152D-11 0.100000000000D+01
0.950101197970D-14 0.000000000000D+00 0.000000000000D+00 0.128468103506D-04 0.000000000000D+00  6 -2 1 25 -24 4 -4 4 0.54940041D-02 0.12453675D+00 0.24187247D+05 0.24187247D+05 0.24187247D+05 0.12248395D+01  1  2 12  8  6  5       21 0.708387223152D-11 0.100000000000D+01
0.948138410614D-14 0.000000000000D+00 0.000000000000D+00 0.128468103506D-04 0.000000000000D+00  6 -2 1 25 -24 3 -3 4 0.54940041D-02 0.12453675D+00 0.24187247D+05 0.24187247D+05 0.24187247D+05 0.12248395D+01  1  2 12  8  6  5       21 0.706923785902D-11 0.100000000000D+01
0.948138410614D-14 0.000000000000D+00 0.000000000000D+00 0.128468103506D-04 0.000000000000D+00  6 -2 1 25 -24 4 -4 4 0.54940041D-02 0.12453675D+00 0.24187247D+05 0.24187247D+05 0.24187247D+05 0.12248395D+01  1  2 12  8  6  5       21 0.706923785902D-11 0.100000000000D+01
-.299480779299D-04 0.000000000000D+00 0.000000000000D+00 0.128472075214D-04 0.000000000000D+00  6 -2 1 25 -24 3 -3 4 0.54940041D-02 0.12453675D+00 0.24177452D+05 0.24177452D+05 0.24177452D+05 0.12248585D+01  1  2  5  8  6  5       21 -.223302595523D-01 0.100000000000D+01
-.299480779299D-04 0.000000000000D+00 0.000000000000D+00 0.128472075214D-04 0.000000000000D+00  6 -2 1 25 -24 4 -4 4 0.54940041D-02 0.12453675D+00 0.24177452D+05 0.24177452D+05 0.24177452D+05 0.12248585D+01  1  2  5  8  6  5       21 -.223302595523D-01 0.100000000000D+01
0.302406290917D-04 0.000000000000D+00 0.000000000000D+00 0.128472075214D-04 0.203479363614D-05  6 -2 1 25 -24 3 -3 4 0.54940041D-02 0.12453675D+00 0.24187247D+05 0.24187247D+05 0.24187247D+05 0.12248395D+01  1  2 11  8  6  5       21 0.225471510976D-01 0.100000000000D+01
0.302406290917D-04 0.000000000000D+00 0.000000000000D+00 0.128472075214D-04 0.203479363614D-05  6 -2 1 25 -24 4 -4 4 0.54940041D-02 0.12453675D+00 0.24187247D+05 0.24187247D+05 0.24187247D+05 0.12248395D+01  1  2 11  8  6  5       21 0.225471510976D-01 0.100000000000D+01
  </mgrwgt>
  </event>
  <event>
  5     66 0.39191994E-03 0.48148552E+02 0.75467711E-02 0.11908052E+00
       -2 -1    0    0    0  501 0.00000000E+00 0.00000000E+00 0.67156924E+02 0.67157686E+02 0.32000000E+00 0.0000E+00 0.9000E+01
        1 -1    0    0  502    0 -.00000000E+00 -.00000000E+00 -.64020489E+03 0.64020497E+03 0.32000000E+00 0.0000E+00 0.9000E+01
       25  1    1    2    0    0 0.58856451E+02 -.35618513E+02 -.57266809E+02 0.15374410E+03 0.12500000E+03 0.0000E+00 0.9000E+01
      -24  1    1    2    0    0 -.19279935E+02 -.37239642E+02 -.40620178E+03 0.41620381E+03 0.80419002E+02 0.0000E+00 0.9000E+01
       21  1    1    2  502  501 -.39576517E+02 0.72858155E+02 -.10957937E+03 0.13741475E+03 0.75000000E+00 0.0000E+00 0.9000E+01
#aMCatNLO 1  0  0  5  2 0.54762127D+00 0.00000000D+00  -5  6  0 0.00000000D+00 0.00000000D+00 0.00000000D+00 0.00000000D+00 0.00000000D+00
  <mgrwgt>
 0.1297275525D-01    1    2    0
 0.207351125344730D+03 0.000000000000000D+00 0.000000000000000D+00 0.207351125344730D+03
 0.207351125344730D+03 -.000000000000000D+00 -.000000000000000D+00 -.207351125344730D+03
 0.183110635671017D+03 0.588571652917247D+02 -.356198275210410D+02 0.114767446939617D+03
 0.148622345275266D+03 -.192793552323356D+02 -.372407085830929D+02 -.117740484315313D+03
 0.829692697431776D+02 -.395778100593891D+02 0.728605361041339D+02 0.297303737569590D+01
 0.000000000000000D+00 0.000000000000000D+00 0.000000000000000D+00 0.000000000000000D+00
 0.207351125344730D+03 0.000000000000000D+00 0.000000000000000D+00 0.207351125344730D+03
 0.207351125344730D+03 -.000000000000000D+00 -.000000000000000D+00 -.207351125344730D+03
 0.181004458328260D+03 0.553070465645640D+02 -.290842573794361D+02 0.115034127578292D+03
 0.147612702100303D+03 -.221676441460916D+02 -.319235301347627D+02 -.117523519534302D+03
 0.320150611807490D+02 -.107406340515926D+02 0.191126750767573D+02 -.233304216418644D+02
 0.540700290801476D+02 -.223987683668798D+02 0.418951124374417D+02 0.258198135978747D+02
0.329694070989D-04 0.000000000000D+00 0.000000000000D+00 0.157352616120D-05 0.000000000000D+00  6 -2 1 25 -24 21 21 4 0.10331899D-01 0.98493125D-01 0.25010366D+05 0.25010366D+05 0.25010366D+05 0.12232783D+01  1  2 14  3  6  5       21 0.129727552450D-01 0.100000000000D+01
  </mgrwgt>
  </event>
  <event>
  6     66 -.39191994E-03 0.21611300E+02 0.75467711E-02 0.12022102E+00
       -2 -1    0    0    0  501 0.00000000E+00 0.00000000E+00 0.15884219E+02 0.15887442E+02 0.32000000E+00 0.0000E+00 0.9000E+01
        1 -1    0    0  502    0 -.00000000E+00 -.00000000E+00 -.15002267E+04 0.15002268E+04 0.32000000E+00 0.0000E+00 0.9000E+01
       25  1    1    2    0    0 0.23544435E+02 0.83744549E+02 -.95664000E+03 0.96868600E+03 0.12500000E+03 0.0000E+00 0.9000E+01
      -24  1    1    2    0    0 -.34664984E+02 -.67398484E+02 -.37782254E+03 0.39365125E+03 0.80419002E+02 0.0000E+00 0.9000E+01
       21  1    1    2  503  501 0.19215802E+02 -.17714243E+02 -.11548846E+03 0.11841110E+03 0.75000000E+00 0.0000E+00 0.9000E+01
       21  1    1    2  502  503 -.80952523E+01 0.13681782E+01 -.34391524E+02 0.35365866E+02 0.75000000E+00 0.0000E+00 0.9000E+01
#aMCatNLO 2  0  0  5  2 0.66268631D+01 0.00000000D+00  -5  6  0 0.00000000D+00 0.00000000D+00 0.00000000D+00 0.00000000D+00 0.00000000D+00
  <mgrwgt>
 -.5849778086D-01    3    2    0
 0.154377454649948D+03 0.000000000000000D+00 0.000000000000000D+00 0.154377454649948D+03
 0.154377454649948D+03 -.000000000000000D+00 -.000000000000000D+00 -.154377454649948D+03
 0.160756850444333D+03 0.192937715086021D+02 0.899925867453897D+02 -.417953307993731D+02
 0.114722584811345D+03 -.377537163601801D+02 -.628583650669705D+02 0.362979111455217D+02
 0.332754740442184D+02 0.184599448515780D+02 -.271342216784192D+02 0.549741965385141D+01
 0.000000000000000D+00 -.000000000000000D+00 0.000000000000000D+00 0.000000000000000D+00
 0.154377454649948D+03 0.000000000000000D+00 0.000000000000000D+00 0.154377454649948D+03
 0.154377454649948D+03 -.000000000000000D+00 -.000000000000000D+00 -.154377454649948D+03
 0.157483529713197D+03 0.236973708144140D+02 0.835197483535340D+02 -.404839274573751D+02
 0.116677891313668D+03 -.345517500492920D+02 -.675649264562393D+02 0.372514650521002D+02
 0.259598561548829D+02 0.193001885681275D+02 -.172467121304095D+02 0.199192708393565D+01
 0.863363211814780D+01 -.844580933324957D+01 0.129189023311477D+01 0.124053532133930D+01
-.114450377590D-03 0.000000000000D+00 0.000000000000D+00 0.178666661462D-04 0.000000000000D+00  6 -2 1 25 -24 21 21 4 0.24439765D-02 0.23080436D+00 0.22080462D+05 0.22080462D+05 0.22080462D+05 0.12291224D+01  1  2 13  3  6  5       21 -.934735634386D-01 0.100000000000D+01
-.183898697339D-04 0.000000000000D+00 0.000000000000D+00 0.178695726952D-04 0.000000000000D+00  6 -2 1 25 -24 21 21 4 0.24439765D-02 0.23080436D+00 0.22033799D+05 0.22033799D+05 0.22033799D+05 0.12292224D+01  1  2  8  3  6  5       21 -.150238801520D-01 0.100000000000D+01
0.612203073083D-04 0.000000000000D+00 0.000000000000D+00 0.178695726952D-04 0.770697101004D-06  6 -2 1 25 -24 21 21 4 0.24439765D-02 0.23080436D+00 0.22080462D+05 0.22080462D+05 0.22080462D+05 0.12291224D+01  1  2  1  3  6  5       21 0.499996627308D-01 0.100000000000D+01
  </mgrwgt>
  </event>
  <event>
  5     66 0.39191994E-03 0.32335800E+02 0.75467711E-02 0.11287161E+00
       -2 -1    0    0    0  501 0.00000000E+00 0.00000000E+00 0.31177384E+03 0.31177400E+03 0.32000000E+00 0.0000E+00 0.9000E+01
        1 -1    0    0  502    0 -.00000000E+00 -.00000000E+00 -.56054170E+03 0.56054179E+03 0.32000000E+00 0.0000E+00 0.9000E+01
       25  1    1    2    0    0 -.52670719E+02 -.83688975E+02 -.23074861E+03 0.28044245E+03 0.12500000E+03 0.0000E+00 0.9000E+01
      -24  1    1    2    0    0 0.74982935E+02 0.10709338E+03 -.28459287E+03 0.32334464E+03 0.80419002E+02 0.0000E+00 0.9000E+01
       21  1    1    2  502  501 -.22312216E+02 -.23404410E+02 0.26657363E+03 0.26852870E+03 0.75000000E+00 0.0000E+00 0.9000E+01
#aMCatNLO 1  0  0  5  2 0.49408554D+01 0.00000000D+00  -5  6  0 0.00000000D+00 0.00000000D+00 0.00000000D+00 0.00000000D+00 0.00000000D+00
  <mgrwgt>
 0.7658824727D+00    4    2    0
 0.418045868133897D+03 0.000000000000000D+00 0.000000000000000D+00 0.418045868133897D+03
 0.418045868133897D+03 -.000000000000000D+00 -.000000000000000D+00 -.418045868133897D+03
 0.223936742142742D+03 -.526707062699041D+02 -.836889616331327D+02 -.157304223984299D+03
 0.252677103448835D+03 0.749829494606852D+02 0.107093400310526D+03 -.200716375896508D+03
 0.359477890676216D+03 -.223122431907812D+02 -.234044386773935D+02 0.358020599880807D+03
 0.000000000000000D+00 0.000000000000000D+00 0.000000000000000D+00 -.000000000000000D+00
 0.418045868133897D+03 0.000000000000000D+00 0.000000000000000D+00 0.418045868133897D+03
 0.418045868133897D+03 -.000000000000000D+00 -.000000000000000D+00 -.418045868133897D+03
 0.202336826756596D+03 -.548640352274933D+02 -.859896551424459D+02 -.122110230156889D+03
 0.220860567103156D+03 0.725464299081998D+02 0.104537611904815D+03 -.161620163814947D+03
 0.332830179680788D+03 0.321303068837411D+02 -.660526168088844D+02 0.324623818748103D+03
 0.800641627272525D+02 -.498127015644477D+02 0.475046600465156D+02 -.408934247762671D+02
0.307905265269D-01 0.000000000000D+00 0.000000000000D+00 0.626412638717D-04 0.000000000000D+00  6 -2 1 25 -24 21 21 2 0.47965226D-01 0.86237204D-01 0.29792040D+05 0.29792040D+05 0.29792040D+05 0.12152156D+01  1  2  2  3  6  5       21 0.661040951555D+00 0.100000000000D+01
0.894912378019D-02 0.162486072535D-02 -.118243729195D-03 0.626412638717D-04 0.000000000000D+00  6 -2 1 25 -24 21 21 4 0.47965226D-01 0.86237204D-01 0.29792040D+05 0.29792040D+05 0.29792040D+05 0.12152156D+01  1  2  3  3  6  5       21 0.283725539660D+00 0.100000000000D+01
0.740595698685D-03 0.000000000000D+00 0.000000000000D+00 0.626412638717D-04 0.000000000000D+00  6 -2 1 25 -24 21 21 4 0.47965226D-01 0.86237204D-01 0.29792040D+05 0.29792040D+05 0.29792040D+05 0.12152156D+01  1  2 15  3  6  5       21 0.234800545216D-01 0.100000000000D+01
-.638286261023D-02 0.000000000000D+00 0.000000000000D+00 0.626412638717D-04 0.000000000000D+00  6 -2 1 25 -24 21 21 4 0.47965226D-01 0.86237204D-01 0.29792040D+05 0.29792040D+05 0.29792040D+05 0.12152156D+01  1  2  4  3  6  5       21 -.202364073081D+00 0.100000000000D+01
  </mgrwgt>
  </event>
  <event>
  6     66 0.39191994E-03 0.26069412E+02 0.75467711E-02 0.12033226E+00
       -2 -1    0    0    0  501 0.00000000E+00 0.00000000E+00 0.54001986E+03 0.54001996E+03 0.32000000E+00 0.0000E+00 0.9000E+01
       21 -1    0    0  502  503 0.00000000E+00 0.00000000E+00 -.69672986E+02 0.69677023E+02 0.75000000E+00 0.0000E+00 0.9000E+01
       25  1    1    2    0    0 0.44638948E+01 -.44066629E+01 0.13996211E+03 0.18775979E+03 0.12500000E+03 0.0000E+00 0.9000E+01
      -24  1    1    2    0    0 -.19060460E+02 0.60999455E+01 0.13535126E+03 0.15870630E+03 0.80419002E+02 0.0000E+00 0.9000E+01
       -1  1    1    2    0  503 -.13914853E+02 -.38431901E+02 -.18373608E+02 0.44814350E+02 0.32000000E+00 0.0000E+00 0.9000E+01
       21  1    1    2  502  501 0.28511418E+02 0.36738618E+02 0.21340712E+03 0.21841655E+03 0.75000000E+00 0.0000E+00 0.9000E+01
#aMCatNLO 2  0  0  2  5 0.98870789D+00 0.00000000D+00  -5  6  0 0.00000000D+00 0.00000000D+00 0.00000000D+00 0.00000000D+00 0.00000000D+00
  <mgrwgt>
 0.7758769986D-02    1    2    0
 0.140155306615324D+03 0.000000000000000D+00 0.000000000000000D+00 0.140155306615324D+03
 0.140155306615324D+03 0.000000000000000D+00 0.000000000000000D+00 -.140155306615324D+03
 0.134733915123217D+03 -.214593754964285D+01 -.226610861101078D+02 -.448341166164070D+02
 0.839510095276276D+02 -.231821149284459D+02 -.528286063985988D+01 -.390345708845789D+01
 0.000000000000000D+00 -.000000000000000D+00 -.000000000000000D+00 -.000000000000000D+00
 0.616256885798040D+02 0.253280524780888D+02 0.279439467499677D+02 0.487375737048649D+02
 0.145191716632354D+03 0.000000000000000D+00 0.000000000000000D+00 0.145191716632354D+03
 0.259146663084779D+03 0.000000000000000D+00 0.000000000000000D+00 -.259146663084779D+03
 0.132945264131923D+03 0.446302641073913D+01 -.440756594847984D+01 -.448341166164070D+02
 0.829637102017634D+02 -.190610123076951D+02 0.609935149307882D+01 -.390345708845789D+01
 0.121063470788994D+03 -.139148529030353D+02 -.384319009052309D+02 -.113954946452425D+03
 0.673659345944518D+02 0.285128387999912D+02 0.367401153606319D+02 0.487375737048649D+02
0.440629649022D-05 0.000000000000D+00 0.000000000000D+00 0.206895083415D-04 0.616212523023D-08  6 -2 21 25 -24 -1 21 4 0.83080179D-01 0.10719223D-01 0.21816562D+05 0.21816562D+05 0.21816562D+05 0.12296909D+01  1  2  1  5  5  2        1 0.775876998594D-02 0.100000000000D+01
  </mgrwgt>
  </event>
  <event>
  5     66 0.39191994E-03 0.25212203E+02 0.75467711E-02 0.12434082E+00
       -2 -1    0    0    0  501 0.00000000E+00 0.00000000E+00 0.10097952E+03 0.10098003E+03 0.32000000E+00 0.0000E+00 0.9000E+01
        1 -1    0    0  502    0 -.00000000E+00 -.00000000E+00 -.21008349E+03 0.21008374E+03 0.32000000E+00 0.0000E+00 0.9000E+01
       25  1    1    2    0    0 0.30430281E+02 0.18307185E+02 0.18520309E+02 0.13125988E+03 0.12500000E+03 0.0000E+00 0.9000E+01
      -24  1    1    2    0    0 -.25051988E+02 0.63229669E+01 -.49936936E+02 0.98124898E+02 0.80419002E+02 0.0000E+00 0.9000E+01
       21  1    1    2  502  501 -.53782932E+01 -.24630152E+02 -.77687343E+02 0.81678983E+02 0.75000000E+00 0.0000E+00 0.9000E+01
#aMCatNLO 1  0  0  5  5 0.14395491D+00 0.00000000D+00  -5  6  0 0.00000000D+00 0.00000000D+00 0.00000000D+00 0.00000000D+00 0.00000000D+00
  <mgrwgt>
 0.2187563087D+00   15    2    0
 0.145651114578275D+03 0.000000000000000D+00 0.000000000000000D+00 0.145651114578275D+03
 0.145651114578275D+03 -.000000000000000D+00 -.000000000000000D+00 -.145651114578275D+03
 0.147102150073100D+03 0.304305073731132D+02 0.183082210438744D+02 0.689408138866403D+02
 0.860779938318898D+02 -.250518557181364D+02 0.632357285411610D+01 -.165717234827486D+02
 0.581220852515603D+02 -.537865165497684D+01 -.246317938979905D+02 -.523690904038916D+02
 0.000000000000000D+00 -.000000000000000D+00 0.000000000000000D+00 0.000000000000000D+00
 0.145651114578275D+03 0.000000000000000D+00 0.000000000000000D+00 0.145651114578275D+03
 0.145651114578275D+03 -.000000000000000D+00 -.000000000000000D+00 -.145651114578275D+03
 0.147098747230606D+03 0.304298701047077D+02 0.183053026425671D+02 0.689346091407525D+02
 0.860786760000397D+02 -.250522286266064D+02 0.632186510184578D+01 -.165753542955673D+02
 0.573480512409579D+02 -.524371893768607D+01 -.241893093196121D+02 -.517318055694774D+02
 0.776754684946609D+00 -.133922540415319D+00 -.437858424800774D+00 -.627449275707764D+00
0.328580885694D-04 0.000000000000D+00 0.000000000000D+00 0.391766211633D-04 0.000000000000D+00  6 -2 1 25 -24 21 21 2 0.15535369D-01 0.32320595D-01 0.14355260D+05 0.14355260D+05 0.14355260D+05 0.12500036D+01  1  2  2  3  6  5       21 0.191235337745D-01 0.100000000000D+01
0.287224802687D-05 0.173396897191D-05 -.126183711840D-06 0.391766211633D-04 0.000000000000D+00  6 -2 1 25 -24 21 21 4 0.15535369D-01 0.32320595D-01 0.14355260D+05 0.14355260D+05 0.14355260D+05 0.12500036D+01  1  2  3  3  6  5       21 0.261198274180D-02 0.100000000000D+01
0.147449604964D-05 0.000000000000D+00 0.000000000000D+00 0.391766211633D-04 0.000000000000D+00  6 -2 1 25 -24 21 21 4 0.15535369D-01 0.32320595D-01 0.14355260D+05 0.14355260D+05 0.14355260D+05 0.12500036D+01  1  2 15  3  6  5       21 0.134088637140D-02 0.100000000000D+01
-.337517211158D-01 0.000000000000D+00 0.000000000000D+00 0.391766211633D-04 0.000000000000D+00  6 -2 1 25 -24 21 21 4 0.15535369D-01 0.32320595D-01 0.14355260D+05 0.14355260D+05 0.14355260D+05 0.12500036D+01  1  2  4  3  6  5       21 -.306933496815D+02 0.100000000000D+01
-.431106257934D-01 0.000000000000D+00 0.000000000000D+00 0.391766211633D-04 0.000000000000D+00  6 -2 1 25 -24 21 21 4 0.15535369D-01 0.32320595D-01 0.14355260D+05 0.14355260D+05 0.14355260D+05 0.12500036D+01  1  2  5  3  6  5       21 -.392042085179D+02 0.100000000000D+01
0.438049294652D-01 0.000000000000D+00 -.000000000000D+00 0.391766211633D-04 0.000000000000D+00  6 -2 1 25 -24 21 21 4 0.15535369D-01 0.32320595D-01 0.14355260D+05 0.14355260D+05 0.14355260D+05 0.12500036D+01  1  2  6  3  6  5       21 0.398355987014D+02 0.100000000000D+01
0.332756265025D-01 0.000000000000D+00 0.000000000000D+00 0.391766211633D-04 0.133055514773D-01  6 -2 1 25 -24 21 21 4 0.15535369D-01 0.32320595D-01 0.14354811D+05 0.14354811D+05 0.14354811D+05 0.12500051D+01  1  2 11  3  6  5       21 0.302605190026D+02 0.100000000000D+01
-.463735596529D-04 0.000000000000D+00 0.000000000000D+00 0.391766211633D-04 0.000000000000D+00  6 -2 1 25 -24 1 -1 4 0.15535369D-01 0.32320595D-01 0.14355260D+05 0.14355260D+05 0.14355260D+05 0.12500036D+01  1  2  5  6  6  5       21 -.421714755676D-01 0.100000000000D+01
0.456591314807D-04 0.000000000000D+00 0.000000000000D+00 0.391766211633D-04 0.362530000431D-04  6 -2 1 25 -24 1 -1 4 0.15535369D-01 0.32320595D-01 0.14354811D+05 0.14354811D+05 0.14354811D+05 0.12500051D+01  1  2 11  6  6  5       21 0.415219534847D-01 0.100000000000D+01
-.463735596529D-04 0.000000000000D+00 0.000000000000D+00 0.391766211633D-04 0.000000000000D+00  6 -2 1 25 -24 2 -2 4 0.15535369D-01 0.32320595D-01 0.14355260D+05 0.14355260D+05 0.14355260D+05 0.12500036D+01  1  2  5  7  6  5       21 -.421714755676D-01 0.100000000000D+01
0.454255241637D-04 0.000000000000D+00 0.000000000000D+00 0.391766211633D-04 0.360751299331D-04  6 -2 1 25 -24 2 -2 4 0.15535369D-01 0.32320595D-01 0.14354811D+05 0.14354811D+05 0.14354811D+05 0.12500051D+01  1  2 11  7  6  5       21 0.413095133477D-01 0.100000000000D+01
-.463735596529D-04 0.000000000000D+00 0.000000000000D+00 0.391766211633D-04 0.000000000000D+00  6 -2 1 25 -24 3 -3 4 0.15535369D-01 0.32320595D-01 0.14355260D+05 0.14355260D+05 0.14355260D+05 0.12500036D+01  1  2  5  8  6  5       21 -.421714755676D-01 0.100000000000D+01
-.463735596529D-04 0.000000000000D+00 0.000000000000D+00 0.391766211633D-04 0.000000000000D+00  6 -2 1 25 -24 4 -4 4 0.15535369D-01 0.32320595D-01 0.14355260D+05 0.14355260D+05 0.14355260D+05 0.12500036D+01  1  2  5  8  6  5       21 -.421714755676D-01 0.100000000000D+01
0.456211553553D-04 0.000000000000D+00 0.000000000000D+00 0.391766211633D-04 0.362217549450D-04  6 -2 1 25 -24 3 -3 4 0.15535369D-01 0.32320595D-01 0.14354811D+05 0.14354811D+05 0.14354811D+05 0.12500051D+01  1  2 11  8  6  5       21 0.414874183794D-01 0.100000000000D+01
0.456211553553D-04 0.000000000000D+00 0.000000000000D+00 0.391766211633D-04 0.362217549450D-04  6 -2 1 25 -24 4 -4 4 0.15535369D-01 0.32320595D-01 0.14354811D+05 0.14354811D+05 0.14354811D+05 0.12500051D+01  1  2 11  8  6  5       21 0.414874183794D-01 0.100000000000D+01
  </mgrwgt>
  </event>
  <event>
  5     66 0.39191994E-03 0.26233150E+02 0.75467711E-02 0.12102679E+00
       -4 -1    0    0    0  501 0.00000000E+00 0.00000000E+00 0.27019969E+03 0.27020414E+03 0.15500000E+01 0.0000E+00 0.9000E+01
        3 -1    0    0  502    0 0.00000000E+00 0.00000000E+00 -.63772031E+02 0.63773991E+02 0.50000000E+00 0.0000E+00 0.9000E+01
       25  1    1    2    0    0 -.28063934E+02 0.69769787E+01 0.10383975E+03 0.16505743E+03 0.12500000E+03 0.0000E+00 0.9000E+01
      -24  1    1    2    0    0 0.21874400E+01 -.26833113E+01 0.11461367E+03 0.14005532E+03 0.80419002E+02 0.0000E+00 0.9000E+01
       21  1    1    2  502  501 0.25876494E+02 -.42936674E+01 -.12025753E+02 0.28865373E+02 0.75000000E+00 0.0000E+00 0.9000E+01
#aMCatNLO 1  0  0  1  5 0.23439936D+02 0.00000000D+00  -5  6  0 0.00000000D+00 0.00000000D+00 0.00000000D+00 0.00000000D+00 0.00000000D+00
  <mgrwgt>
 0.2991106783D-01    4    2    0
 0.131271675313432D+03 0.000000000000000D+00 0.000000000000000D+00 0.131271675313432D+03
 0.131271675313432D+03 0.000000000000000D+00 0.000000000000000D+00 -.131271675313432D+03
 0.128322759797227D+03 -.280656028962768D+02 0.697725556343192D+01 0.231743842373485D+01
 0.880469967038040D+02 0.218629503681223D+01 -.268312131745013D+01 0.356802276926170D+02
 0.461735941258335D+02 0.258793078594646D+02 -.429413424598180D+01 -.379976661163518D+02
 0.000000000000000D+00 0.000000000000000D+00 0.000000000000000D+00 -.000000000000000D+00
 0.155459991033703D+03 0.000000000000000D+00 0.000000000000000D+00 0.155459991033703D+03
 0.155873918341501D+03 0.000000000000000D+00 0.000000000000000D+00 -.155873918341501D+03
 0.129592482714793D+03 -.307446324222306D+02 -.147854195935725D+02 0.231743842373485D+01
 0.897393702747470D+02 0.339583994034721D+00 -.176845881335026D+02 0.356802276926170D+02
 0.470343181131538D+02 0.249111341815203D+02 -.121589409024753D+02 -.379976661163518D+02
 0.449677382725106D+02 0.549391424667553D+01 0.446289486295505D+02 -.413927307797475D+00
0.288645707223D-03 0.000000000000D+00 0.000000000000D+00 0.399898106016D-04 0.000000000000D+00  6 -4 3 25 -24 21 21 2 0.41569676D-01 0.98115744D-02 0.13809591D+05 0.13809591D+05 0.13809591D+05 0.12519373D+01  1  2  2  1  6  1       -4 0.368447967398D-01 0.100000000000D+01
0.232233787145D-04 0.152322524527D-04 -.110847551790D-05 0.399898106016D-04 0.000000000000D+00  6 -4 3 25 -24 21 21 4 0.41569676D-01 0.98115744D-02 0.13809591D+05 0.13809591D+05 0.13809591D+05 0.12519373D+01  1  2  3  1  6  1       -4 0.464623956005D-02 0.100000000000D+01
0.101944490298D-04 0.000000000000D+00 0.000000000000D+00 0.399898106016D-04 0.000000000000D+00  6 -4 3 25 -24 21 21 4 0.41569676D-01 0.98115744D-02 0.13809591D+05 0.13809591D+05 0.13809591D+05 0.12519373D+01  1  2 15  1  6  1       -4 0.203957628033D-02 0.100000000000D+01
-.680748036347D-04 0.000000000000D+00 0.000000000000D+00 0.399898106016D-04 0.000000000000D+00  6 -4 3 25 -24 21 21 4 0.41569676D-01 0.98115744D-02 0.13809591D+05 0.13809591D+05 0.13809591D+05 0.12519373D+01  1  2  4  1  6  1       -4 -.136195447518D-01 0.100000000000D+01
  </mgrwgt>
  </event>
  <event>
  6     66 0.39191994E-03 0.27484349E+02 0.75467711E-02 0.12144568E+00
       21 -1    0    0  503  501 0.00000000E+00 0.00000000E+00 0.20991596E+02 0.21004990E+02 0.75000000E+00 0.0000E+00 0.9000E+01
        1 -1    0    0  502    0 0.00000000E+00 0.00000000E+00 -.23576275E+04 0.23576275E+04 0.32000000E+00 0.0000E+00 0.9000E+01
       25  1    1    2    0    0 -.45859265E+01 0.27226590E+02 -.10682774E+04 0.10759201E+04 0.12500000E+03 0.0000E+00 0.9000E+01
      -24  1    1    2    0    0 0.23057517E+02 -.66453211E+02 -.95208531E+03 0.95806123E+03 0.80419002E+02 0.0000E+00 0.9000E+01
        2  1    1    2  503    0 -.12775916E+02 0.30225388E+02 -.49999370E+01 0.33194878E+02 0.32000000E+00 0.0000E+00 0.9000E+01
       21  1    1    2  502  501 -.56956745E+01 0.90012327E+01 -.31127321E+03 0.31145632E+03 0.75000000E+00 0.0000E+00 0.9000E+01
#aMCatNLO 2  0  0  1  5 0.14406567D+03 0.00000000D+00  -5  6  0 0.00000000D+00 0.00000000D+00 0.00000000D+00 0.00000000D+00 0.00000000D+00
  <mgrwgt>
 0.4097257962D+00    1    2    0
 0.125970840726254D+03 0.000000000000000D+00 0.000000000000000D+00 0.125970840726254D+03
 0.125970840726254D+03 0.000000000000000D+00 0.000000000000000D+00 -.125970840726254D+03
 0.133168096630174D+03 -.111922939193769D+02 0.428576427580953D+02 0.121118526305842D+02
 0.986494662308530D+02 0.178699680655474D+02 -.541792384393566D+02 0.312659506961261D+01
 0.000000000000000D+00 -.000000000000000D+00 0.000000000000000D+00 0.000000000000000D+00
 0.201241185914818D+02 -.667767414617058D+01 0.113215956812613D+02 -.152384477001968D+02
 0.386549589729691D+03 0.000000000000000D+00 0.000000000000000D+00 0.386549589729691D+03
 0.128072165446213D+03 0.000000000000000D+00 0.000000000000000D+00 -.128072165446213D+03
 0.128583712532504D+03 -.458351128713748D+01 0.272225196992737D+02 0.121118526305842D+02
 0.106888757771655D+03 0.230594544320195D+02 -.664565764102036D+02 0.312659506961261D+01
 0.260552061989458D+03 -.127759162205108D+02 0.302253884584481D+02 0.258477424283477D+03
 0.185972228822871D+02 -.570002692437119D+01 0.900866825248174D+01 -.152384477001968D+02
0.135637207290D-03 0.000000000000D+00 0.000000000000D+00 0.136986528243D-03 0.340563868241D-06  6 21 1 25 -24 2 21 4 0.32305058D-02 0.36271267D+00 0.19366916D+05 0.19366916D+05 0.19366916D+05 0.12353669D+01  1  2  1  4  5  1       -2 0.409725796209D+00 0.100000000000D+01
  </mgrwgt>
  </event>
  <event>
  6     66 0.39191994E-03 0.47049561E+02 0.75467711E-02 0.10993637E+00
       -2 -1    0    0    0  501 0.00000000E+00 0.00000000E+00 0.35978231E+02 0.35979654E+02 0.32000000E+00 0.0000E+00 0.9000E+01
        1 -1    0    0  502    0 -.00000000E+00 -.00000000E+00 -.21828518E+04 0.21828519E+04 0.32000000E+00 0.0000E+00 0.9000E+01
       25  1    1    2    0    0 -.23050850E+03 0.30782903E+02 -.12156428E+04 0.12439832E+04 0.12500000E+03 0.0000E+00 0.9000E+01
      -24  1    1    2    0    0 0.19615071E+03 -.56384538E+02 -.63224684E+03 0.66922164E+03 0.80419002E+02 0.0000E+00 0.9000E+01
       21  1    1    2  502  503 0.39237890E+02 0.35091003E+02 -.24478851E+03 0.25038564E+03 0.75000000E+00 0.0000E+00 0.9000E+01
       21  1    1    2  503  501 -.48800996E+01 -.94893686E+01 -.54195444E+02 0.55241037E+02 0.75000000E+00 0.0000E+00 0.9000E+01
#aMCatNLO 2  0  0  5  2 0.74960978D+01 0.00000000D+00  -5  6  0 0.00000000D+00 0.00000000D+00 0.00000000D+00 0.00000000D+00 0.00000000D+00
  <mgrwgt>
 0.2643392520D-01    2    2    0
 0.280244092540879D+03 0.000000000000000D+00 0.000000000000000D+00 0.280244092540879D+03
 0.280244092540879D+03 -.000000000000000D+00 -.000000000000000D+00 -.280244092540879D+03
 0.273708346822395D+03 -.238036181739803D+03 0.251736695031454D+02 -.446802156074723D+02
 0.224043174901812D+03 0.189878402075796D+03 -.610583370945860D+02 0.628187882890116D+02
 0.627366633575514D+02 0.481577796640071D+02 0.358846675914407D+02 -.181385726815394D+02
 0.000000000000000D+00 0.000000000000000D+00 -.000000000000000D+00 0.000000000000000D+00
 0.280244092540879D+03 0.000000000000000D+00 0.000000000000000D+00 0.280244092540879D+03
 0.280244092540879D+03 -.000000000000000D+00 -.000000000000000D+00 -.280244092540879D+03
 0.268156556140707D+03 -.230359353234973D+03 0.308940420156311D+02 -.475716842916618D+02
 0.227617617566277D+03 0.196277270921467D+03 -.562902335173409D+02 0.604086616501460D+02
 0.534012610667763D+02 0.390398247592500D+02 0.350967984483916D+02 -.978782432218835D+01
 0.113127503079976D+02 -.495774244574439D+01 -.970060694668181D+01 -.304915303629583D+01
-.478715228866D-03 0.000000000000D+00 0.000000000000D+00 0.408415406841D-05 0.000000000000D+00  6 -2 1 25 -24 21 21 4 0.55352237D-02 0.33582347D+00 0.74297233D+05 0.74297233D+05 0.74297233D+05 0.11756139D+01  1  2  8  3  6  5       21 -.345314843086D-01 0.100000000000D+01
0.845987106322D-03 0.000000000000D+00 0.000000000000D+00 0.408415406841D-05 0.773532758534D-07  6 -2 1 25 -24 21 21 4 0.55352237D-02 0.33582347D+00 0.74733619D+05 0.74733619D+05 0.74733619D+05 0.11753728D+01  1  2  1  3  6  5       21 0.609654095125D-01 0.100000000000D+01
  </mgrwgt>
  </event>
  <event>
  5     66 -.39191994E-03 0.22123937E+02 0.75467711E-02 0.10549936E+00
       -2 -1    0    0    0  501 0.00000000E+00 0.00000000E+00 0.92299471E+02 0.92300025E+02 0.32000000E+00 0.0000E+00 0.9000E+01
        1 -1    0    0  502    0 -.00000000E+00 -.00000000E+00 -.21387075E+04 0.21387075E+04 0.32000000E+00 0.0000E+00 0.9000E+01
       25  1    1    2    0    0 -.11111223E+03 0.32527889E+03 -.86346444E+03 0.93773564E+03 0.12500000E+03 0.0000E+00 0.9000E+01
      -24  1    1    2    0    0 0.89355637E+02 -.32929232E+03 -.50374884E+03 0.61371653E+03 0.80419002E+02 0.0000E+00 0.9000E+01
       21  1    1    2  502  501 0.21756595E+02 0.40134388E+01 -.67919475E+03 0.67955539E+03 0.75000000E+00 0.0000E+00 0.9000E+01
#aMCatNLO 1  0  0  5  2 0.74960978D+01 0.00000000D+00  -5  6  0 0.00000000D+00 0.00000000D+00 0.00000000D+00 0.00000000D+00 0.00000000D+00
  <mgrwgt>
 -.1176814194D+00    1    2    0
 0.444299691876871D+03 0.000000000000000D+00 0.000000000000000D+00 0.444299691876871D+03
 0.444299691876871D+03 -.000000000000000D+00 -.000000000000000D+00 -.444299691876871D+03
 0.365850711336233D+03 -.111112357146747D+03 0.325278862040628D+03 -.833360570678479D+01
 0.380746172093940D+03 0.893555071622279D+02 -.329292347833134D+03 0.148602067980702D+03
 0.142002500323568D+03 0.217568499845187D+02 0.401348579250587D+01 -.140268462273918D+03
 0.000000000000000D+00 0.000000000000000D+00 0.000000000000000D+00 0.000000000000000D+00
 0.444299691876871D+03 0.000000000000000D+00 0.000000000000000D+00 0.444299691876871D+03
 0.444299691876871D+03 -.000000000000000D+00 -.000000000000000D+00 -.444299691876871D+03
 0.365869910512300D+03 -.110596296407903D+03 0.325374059757434D+03 -.116606979250516D+02
 0.379451266470492D+03 0.898916517508843D+02 -.329193445248852D+03 0.145145493289935D+03
 0.134222187942849D+03 0.151885261936502D+02 -.336086471875493D+01 -.133317699487249D+03
 0.905601882810157D+01 0.551611846336891D+01 0.718025021017293D+01 -.167095877634553D+00
-.756200681627D-02 0.000000000000D+00 0.000000000000D+00 0.292188334275D-04 0.000000000000D+00  6 -2 1 25 -24 21 21 4 0.14199963D-01 0.32903197D+00 0.13631949D+06 0.13631949D+06 0.13631949D+06 0.11514096D+01  1  2 14  3  6  5       21 -.117681419439D+00 0.100000000000D+01
  </mgrwgt>
  </event>
  <event>
  6     66 -.39191994E-03 0.17198065E+02 0.75467711E-02 0.12076316E+00
       -2 -1    0    0    0  503 0.00000000E+00 0.00000000E+00 0.44573177E+02 0.44574325E+02 0.32000000E+00 0.0000E+00 0.9000E+01
        1 -1    0    0  502    0 0.00000000E+00 0.00000000E+00 -.88145437E+03 0.88145443E+03 0.32000000E+00 0.0000E+00 0.9000E+01
       25  1    1    2    0    0 0.30737558E+02 0.82068650E+02 -.13437848E+03 0.20337806E+03 0.12500000E+03 0.0000E+00 0.9000E+01
      -24  1    1    2    0    0 -.83467806E+01 -.69233423E+02 -.36283750E+03 0.37812855E+03 0.80419002E+02 0.0000E+00 0.9000E+01
       21  1    1    2  502  501 -.20769089E+02 -.47709796E+01 -.33358485E+03 0.33426566E+03 0.75000000E+00 0.0000E+00 0.9000E+01
       21  1    1    2  501  503 -.16216889E+01 -.80642465E+01 -.60803613E+01 0.10256473E+02 0.75000000E+00 0.0000E+00 0.9000E+01
#aMCatNLO 2  0  0  1  5 0.82256882D+01 0.00000000D+00  -5  6  0 0.00000000D+00 0.00000000D+00 0.00000000D+00 0.00000000D+00 0.00000000D+00
  <mgrwgt>
 -.9752682167D+00    3    2    0
 0.192575429651271D+03 0.000000000000000D+00 0.000000000000000D+00 0.192575429651271D+03
 0.192575429651271D+03 0.000000000000000D+00 0.000000000000000D+00 -.192575429651271D+03
 0.191860021893421D+03 0.299265465089222D+02 0.780332663014661D+02 0.119165763394181D+03
 0.117890435411057D+03 -.883960672212577D+01 -.716856140705382D+02 -.470528734018034D+02
 0.754004019980632D+02 -.210869397867964D+02 -.634765223092784D+01 -.721128899923776D+02
 0.000000000000000D+00 -.000000000000000D+00 -.000000000000000D+00 0.000000000000000D+00
 0.202073147076153D+03 0.000000000000000D+00 0.000000000000000D+00 0.202073147076153D+03
 0.194408622232733D+03 0.000000000000000D+00 0.000000000000000D+00 -.194408622232733D+03
 0.193663631447223D+03 0.307380832439986D+02 0.820688321989107D+02 0.119165763394181D+03
 0.116379153703107D+03 -.834646349776069D+01 -.692333381687996D+02 -.470528734018034D+02
 0.751959023777283D+02 -.207699308766849D+02 -.477124750205083D+01 -.721128899923776D+02
 0.112430817808268D+02 -.162168886955297D+01 -.806424652806022D+01 0.766452484341965D+01
-.248034888217D-02 0.000000000000D+00 0.000000000000D+00 0.340162604323D-04 0.000000000000D+00  6 -2 1 25 -24 21 21 4 0.69376916D-02 0.13432115D+00 0.20828242D+05 0.20828242D+05 0.20828242D+05 0.12318907D+01  1  2 13  1  6  1       -2 -.117770187865D+01 0.100000000000D+01
-.140266052687D-02 0.000000000000D+00 0.000000000000D+00 0.341676464933D-04 0.000000000000D+00  6 -2 1 25 -24 21 21 4 0.65347751D-02 0.13432115D+00 0.19667332D+05 0.19667332D+05 0.19667332D+05 0.12346288D+01  1  2  8  1  6  1       -2 -.735843125065D+00 0.100000000000D+01
0.197022920580D-02 0.000000000000D+00 0.000000000000D+00 0.341676464933D-04 0.221906613923D-05  6 -2 1 25 -24 21 21 4 0.68570667D-02 0.13559980D+00 0.20828242D+05 0.20828242D+05 0.20828242D+05 0.12318907D+01  1  2  1  1  6  1       -2 0.938276787054D+00 0.100000000000D+01
  </mgrwgt>
  </event>
  <event>
  6     66 -.39191994E-03 0.68045028E+01 0.75467711E-02 0.12521841E+00
       -2 -1    0    0    0  501 0.00000000E+00 0.00000000E+00 0.48755843E+02 0.48756893E+02 0.32000000E+00 0.0000E+00 0.9000E+01
        1 -1    0    0  502    0 -.00000000E+00 -.00000000E+00 -.27413465E+03 0.27413484E+03 0.32000000E+00 0.0000E+00 0.9000E+01
       25  1    1    2    0    0 -.94366198E+01 -.10944395E+02 -.13977254E+03 0.18806965E+03 0.12500000E+03 0.0000E+00 0.9000E+01
      -24  1    1    2    0    0 0.29081469E+00 0.10722228E+02 -.61581852E+02 0.10185574E+03 0.80419002E+02 0.0000E+00 0.9000E+01
       21  1    1    2  502  503 0.84139589E+01 0.82857838E+01 -.21344127E+02 0.24404573E+02 0.75000000E+00 0.0000E+00 0.9000E+01
       21  1    1    2  503  501 0.73184625E+00 -.80636170E+01 -.26802912E+01 0.85617743E+01 0.75000000E+00 0.0000E+00 0.9000E+01
#aMCatNLO 2  0  0  5  1 0.98752343D+01 0.00000000D+00  -5  6  0 0.00000000D+00 0.00000000D+00 0.00000000D+00 0.00000000D+00 0.00000000D+00
  <mgrwgt>
 -.3657521108D+00    3    2    0
 0.115610837195618D+03 0.000000000000000D+00 0.000000000000000D+00 0.115610837195618D+03
 0.115610837195618D+03 -.000000000000000D+00 -.000000000000000D+00 -.115610837195618D+03
 0.127077863553928D+03 -.168871038691483D+02 -.111253797238178D+02 -.107161119042392D+02
 0.824459746997622D+02 -.454914442019909D+01 0.106046576742321D+02 0.140345755361468D+02
 0.216978361375453D+02 0.214362482893474D+02 0.520722049585696D+00 -.331846363190762D+01
 0.000000000000000D+00 0.000000000000000D+00 0.000000000000000D+00 0.000000000000000D+00
 0.115610837195618D+03 0.000000000000000D+00 0.000000000000000D+00 0.115610837195618D+03
 0.115610837195618D+03 -.000000000000000D+00 -.000000000000000D+00 -.115610837195618D+03
 0.126379121759986D+03 -.924138318754178D+01 -.109396524785393D+02 -.118997166880223D+02
 0.822094921694632D+02 0.417811636752394D+00 0.107253132807200D+02 0.132656600611162D+02
 0.127148773080488D+02 0.695382801254195D+01 0.873927442515274D+01 -.607761988385195D+01
 0.991818315373732D+01 0.186974353824746D+01 -.852493522733349D+01 0.471167651075805D+01
-.881044093344D-04 0.000000000000D+00 0.000000000000D+00 0.582647822888D-04 0.000000000000D+00  6 -2 1 25 -24 21 21 4 0.75009941D-02 0.42174657D-01 0.12864735D+05 0.12864735D+05 0.12864735D+05 0.12554978D+01  1  2 13  3  6  5       21 -.184665628659D+00 0.100000000000D+01
-.844808952752D-04 0.000000000000D+00 0.000000000000D+00 0.582647822888D-04 0.000000000000D+00  6 -2 1 25 -24 21 21 4 0.75009941D-02 0.42174657D-01 0.12864735D+05 0.12864735D+05 0.12864735D+05 0.12554978D+01  1  2 13  3  6  5       21 -.177070793091D+00 0.100000000000D+01
-.192095668191D-05 0.000000000000D+00 0.000000000000D+00 0.581637357631D-04 0.000000000000D+00  6 -2 1 25 -24 21 21 4 0.75009941D-02 0.42174657D-01 0.13145821D+05 0.13145821D+05 0.13145821D+05 0.12544086D+01  1  2  8  3  6  5       21 -.401568906140D-02 0.100000000000D+01
  </mgrwgt>
  </event>
  <event>
  5     66 0.39191994E-03 0.49608218E+02 0.75467711E-02 0.12166653E+00
       -2 -1    0    0    0  501 0.00000000E+00 0.00000000E+00 0.24062225E+02 0.24064352E+02 0.32000000E+00 0.0000E+00 0.9000E+01
        1 -1    0    0  502    0 -.00000000E+00 -.00000000E+00 -.78840803E+03 0.78840810E+03 0.32000000E+00 0.0000E+00 0.9000E+01
       25  1    1    2    0    0 -.12841249E+02 -.65994505E+02 -.38920668E+03 0.41427890E+03 0.12500000E+03 0.0000E+00 0.9000E+01
      -24  1    1    2    0    0 -.93003639E+01 0.21606833E+02 -.22717286E+03 0.24213235E+03 0.80419002E+02 0.0000E+00 0.9000E+01
       21  1    1    2  502  501 0.22141613E+02 0.44387672E+02 -.14796628E+03 0.15606120E+03 0.75000000E+00 0.0000E+00 0.9000E+01
#aMCatNLO 1  0  0  5  1 0.12752307D+01 0.00000000D+00  -5  6  0 0.00000000D+00 0.00000000D+00 0.00000000D+00 0.00000000D+00 0.00000000D+00
  <mgrwgt>
 0.1708524206D+00    9    2    0
 0.137737946953418D+03 0.000000000000000D+00 0.000000000000000D+00 0.137737946953418D+03
 0.137737946953418D+03 -.000000000000000D+00 -.000000000000000D+00 -.137737946953418D+03
 0.141943708105493D+03 -.128425467371425D+02 -.659971067865089D+02 0.157071953312851D+01
 0.838082687245001D+02 -.930113026001227D+01 0.216052964961686D+02 0.181936566594425D+01
 0.497239170768440D+02 0.221436769971548D+02 0.443918102903403D+02 -.339008519907276D+01
 0.000000000000000D+00 0.000000000000000D+00 0.000000000000000D+00 0.000000000000000D+00
 0.137737946953418D+03 0.000000000000000D+00 0.000000000000000D+00 0.137737946953418D+03
 0.137737946953418D+03 -.000000000000000D+00 -.000000000000000D+00 -.137737946953418D+03
 0.141424767921782D+03 -.123323140038024D+02 -.649742344466863D+02 0.149260547656957D+01
 0.839324895381971D+02 -.899909657305876D+01 0.222107886253328D+02 0.177312583270003D+01
 0.147024410787565D+01 -.113309203129928D+01 -.321588898530340D+00 -.879943615063623D+00
 0.486483923389815D+02 0.224645026081605D+02 0.430850347198839D+02 -.238578769420597D+01
0.183729215357D-03 0.000000000000D+00 0.000000000000D+00 0.104370362799D-04 0.000000000000D+00  6 -2 1 25 -24 21 21 2 0.37020494D-02 0.12129371D+00 0.18951894D+05 0.18951894D+05 0.18951894D+05 0.12364080D+01  1  2  2  3  6  5       21 0.173971054226D+00 0.100000000000D+01
0.164599976583D-05 0.969565706752D-05 -.705568563984D-06 0.104370362799D-04 0.000000000000D+00  6 -2 1 25 -24 21 21 4 0.37020494D-02 0.12129371D+00 0.18951894D+05 0.18951894D+05 0.18951894D+05 0.12364080D+01  1  2  3  3  6  5       21 0.238260567792D-02 0.100000000000D+01
0.522889865958D-05 0.000000000000D+00 0.000000000000D+00 0.104370362799D-04 0.000000000000D+00  6 -2 1 25 -24 21 21 4 0.37020494D-02 0.12129371D+00 0.18951894D+05 0.18951894D+05 0.18951894D+05 0.12364080D+01  1  2 15  3  6  5       21 0.756889757472D-02 0.100000000000D+01
-.246705839883D-04 0.000000000000D+00 0.000000000000D+00 0.104370362799D-04 0.000000000000D+00  6 -2 1 25 -24 21 21 4 0.37020494D-02 0.12129371D+00 0.18951894D+05 0.18951894D+05 0.18951894D+05 0.12364080D+01  1  2  4  3  6  5       21 -.357109853284D-01 0.100000000000D+01
0.332018788202D-06 0.000000000000D+00 0.000000000000D+00 0.104370362799D-04 0.189850243088D-04  6 -2 1 25 -24 21 21 4 0.37020494D-02 0.12129371D+00 0.18919775D+05 0.18919775D+05 0.18919775D+05 0.12364897D+01  1  2 11  3  6  5       21 0.480707807348D-03 0.100000000000D+01
0.221643912947D-05 0.000000000000D+00 0.000000000000D+00 0.104384144871D-04 0.952061056303D-07  6 -2 1 25 -24 1 -1 4 0.37020494D-02 0.12129371D+00 0.18919775D+05 0.18919775D+05 0.18919775D+05 0.12364897D+01  1  2 11  6  6  5       21 0.320903404238D-02 0.100000000000D+01
0.437060977061D-05 0.000000000000D+00 0.000000000000D+00 0.104384144871D-04 0.738637155376D-07  6 -2 1 25 -24 2 -2 4 0.37020494D-02 0.12129371D+00 0.18919775D+05 0.18919775D+05 0.18919775D+05 0.12364897D+01  1  2 11  7  6  5       21 0.632791370326D-02 0.100000000000D+01
0.435933965391D-05 0.000000000000D+00 0.000000000000D+00 0.104384144871D-04 0.735317805921D-07  6 -2 1 25 -24 3 -3 4 0.37020494D-02 0.12129371D+00 0.18919775D+05 0.18919775D+05 0.18919775D+05 0.12364897D+01  1  2 11  8  6  5       21 0.631159645472D-02 0.100000000000D+01
0.435933965391D-05 0.000000000000D+00 0.000000000000D+00 0.104384144871D-04 0.735317805921D-07  6 -2 1 25 -24 4 -4 4 0.37020494D-02 0.12129371D+00 0.18919775D+05 0.18919775D+05 0.18919775D+05 0.12364897D+01  1  2 11  8  6  5       21 0.631159645472D-02 0.100000000000D+01
  </mgrwgt>
  </event>
  <event>
  6     66 -.39191994E-03 0.17902399E+02 0.75467711E-02 0.11781337E+00
       -2 -1    0    0    0  503 0.00000000E+00 0.00000000E+00 0.20112493E+03 0.20112518E+03 0.32000000E+00 0.0000E+00 0.9000E+01
        1 -1    0    0  502    0 0.00000000E+00 0.00000000E+00 -.37765708E+03 0.37765721E+03 0.32000000E+00 0.0000E+00 0.9000E+01
       25  1    1    2    0    0 0.11585298E+03 -.46335947E+02 -.22674324E+03 0.28741335E+03 0.12500000E+03 0.0000E+00 0.9000E+01
      -24  1    1    2    0    0 -.10656626E+03 0.24251790E+02 0.12213625E+03 0.18256231E+03 0.80419002E+02 0.0000E+00 0.9000E+01
       21  1    1    2  502  501 -.12518271E+02 0.16838310E+02 -.88579370E+02 0.91033527E+02 0.75000000E+00 0.0000E+00 0.9000E+01
       21  1    1    2  501  503 0.32315519E+01 0.52458462E+01 0.16654216E+02 0.17773217E+02 0.75000000E+00 0.0000E+00 0.9000E+01
#aMCatNLO 2  0  0  1  5 0.61613172D+01 0.00000000D+00  -5  6  0 0.00000000D+00 0.00000000D+00 0.00000000D+00 0.00000000D+00 0.00000000D+00
  <mgrwgt>
 -.1424218097D+00    5    2    0
 0.263330765122172D+03 0.000000000000000D+00 0.000000000000000D+00 0.263330765122172D+03
 0.263330765122172D+03 0.000000000000000D+00 0.000000000000000D+00 -.263330765122172D+03
 0.223233932257384D+03 0.117222216451085D+03 -.441142965931489D+02 -.136092870193412D+03
 0.238858776014020D+03 -.105099113731660D+03 0.266323011357177D+02 0.197056326347522D+03
 0.645688219729413D+02 -.121231027194245D+02 0.174819954574312D+02 -.609634561541095D+02
 0.000000000000000D+00 0.000000000000000D+00 0.000000000000000D+00 0.000000000000000D+00
 0.287991545121051D+03 0.000000000000000D+00 0.000000000000000D+00 0.287991545121051D+03
 0.263733906059210D+03 0.000000000000000D+00 0.000000000000000D+00 -.263733906059210D+03
 0.222969345299835D+03 0.115853329953033D+03 -.463364388440634D+02 -.136092870193412D+03
 0.239254727615169D+03 -.106565896143562D+03 0.242512423883154D+02 0.197056326347522D+03
 0.644734961596519D+02 -.125189857078598D+02 0.168393502737198D+02 -.609634561541095D+02
 0.250278821056043D+02 0.323155189838890D+01 0.524584618202823D+01 0.242576390618408D+02
-.206976157317D-01 0.000000000000D+00 0.000000000000D+00 0.187547622729D-04 0.000000000000D+00  6 -2 1 25 -24 21 21 4 0.31034188D-01 0.58011072D-01 0.28806955D+05 0.28806955D+05 0.28806955D+05 0.12167525D+01  1  2 13  1  6  1       -2 -.251358476987D+01 0.100000000000D+01
-.474974993400D-03 0.000000000000D+00 0.000000000000D+00 0.188072629718D-04 0.000000000000D+00  6 -2 1 25 -24 21 21 4 0.28292127D-01 0.58011072D-01 0.27758315D+05 0.27758315D+05 0.27758315D+05 0.12184543D+01  1  2  8  1  6  1       -2 -.685264414921D-01 0.100000000000D+01
-.374181042735D-03 0.000000000000D+00 0.000000000000D+00 0.188072629718D-04 0.000000000000D+00  6 -2 1 25 -24 21 21 4 0.30967120D-01 0.58011072D-01 0.27758315D+05 0.27758315D+05 0.27758315D+05 0.12184543D+01  1  2  9  1  6  1       -2 -.458740008242D-01 0.100000000000D+01
0.372659231881D-03 0.000000000000D+00 0.000000000000D+00 0.188072629718D-04 0.000000000000D+00  6 -2 1 25 -24 21 21 4 0.28292127D-01 0.58011072D-01 0.27758315D+05 0.27758315D+05 0.27758315D+05 0.12184543D+01  1  2 10  1  6  1       -2 0.537649590080D-01 0.100000000000D+01
0.199543721246D-01 0.000000000000D+00 0.000000000000D+00 0.188072629718D-04 0.202662241981D-05  6 -2 1 25 -24 21 21 4 0.30941669D-01 0.58099883D-01 0.28806955D+05 0.28806955D+05 0.28806955D+05 0.12167525D+01  1  2  1  1  6  1       -2 0.243179844343D+01 0.100000000000D+01
  </mgrwgt>
  </event>
  <event>
  5     66 0.39191994E-03 0.29168910E+02 0.75467711E-02 0.12311704E+00
       -2 -1    0    0    0  501 0.00000000E+00 0.00000000E+00 0.15009798E+02 0.15013208E+02 0.32000000E+00 0.0000E+00 0.9000E+01
        1 -1    0    0  502    0 0.00000000E+00 0.00000000E+00 -.19985057E+04 0.19985057E+04 0.32000000E+00 0.0000E+00 0.9000E+01
       25  1    1    2    0    0 0.40788396E+02 0.19798439E+02 -.16828192E+04 0.16880643E+04 0.12500000E+03 0.0000E+00 0.9000E+01
      -24  1    1    2    0    0 -.20080210E+02 -.40330571E+02 -.19278878E+03 0.21369253E+03 0.80419002E+02 0.0000E+00 0.9000E+01
       21  1    1    2  502  501 -.20708186E+02 0.20532132E+02 -.10788796E+03 0.11176212E+03 0.75000000E+00 0.0000E+00 0.9000E+01
#aMCatNLO 1  0  0  2  5 0.75584498D+00 0.00000000D+00  -5  6  0 0.00000000D+00 0.00000000D+00 0.00000000D+00 0.00000000D+00 0.00000000D+00
  <mgrwgt>
 0.4239486633D+00   10    4    0
 0.173206886555028D+03 0.000000000000000D+00 0.000000000000000D+00 0.173206886555028D+03
 0.173206886555028D+03 0.000000000000000D+00 0.000000000000000D+00 -.173206886555028D+03
 0.176335379760610D+03 0.407913161448720D+02 0.197955433575969D+02 -.115816109180308D+03
 0.138210319068599D+03 -.200779209526929D+02 -.403328399767486D+02 0.102980655718930D+03
 0.318680742808473D+02 -.207133951921791D+02 0.205372966191516D+02 0.128354534613779D+02
 0.000000000000000D+00 -.000000000000000D+00 -.000000000000000D+00 -.000000000000000D+00
 0.173390376247277D+03 0.000000000000000D+00 0.000000000000000D+00 0.173390376247277D+03
 0.173987435632667D+03 0.000000000000000D+00 0.000000000000000D+00 -.173987435632667D+03
 0.176424518986601D+03 0.410274703734834D+02 0.200994136417291D+02 -.115816109180308D+03
 0.138114279636654D+03 -.198929361438035D+02 -.400948116900315D+02 0.102980655718930D+03
 0.318757990801123D+02 -.206707220161868D+02 0.205922061170245D+02 0.128354534613779D+02
 0.963214176577396D+00 -.463812213493104D+00 -.596808068722096D+00 -.597059385390181D+00
 0.173206886555028D+03 0.000000000000000D+00 0.000000000000000D+00 0.173206886555028D+03
 0.173206886555028D+03 0.000000000000000D+00 0.000000000000000D+00 -.173206886555028D+03
 0.176335379760610D+03 0.407913161448720D+02 0.197955433575969D+02 -.115816109180308D+03
 0.138210319068599D+03 -.200779209526929D+02 -.403328399767486D+02 0.102980655718930D+03
 0.000000000000000D+00 -.000000000000000D+00 -.000000000000000D+00 -.000000000000000D+00
 0.318680742808473D+02 -.207133951921791D+02 0.205372966191516D+02 0.128354534613779D+02
 0.173390376247277D+03 0.000000000000000D+00 0.000000000000000D+00 0.173390376247277D+03
 0.173987435632667D+03 0.000000000000000D+00 0.000000000000000D+00 -.173987435632667D+03
 0.176424518986601D+03 0.410274703734834D+02 0.200994136417291D+02 -.115816109180308D+03
 0.138114279636654D+03 -.198929361438035D+02 -.400948116900315D+02 0.102980655718930D+03
 0.963214176577396D+00 -.463812213493104D+00 -.596808068722096D+00 -.597059385390181D+00
 0.318757990801123D+02 -.206707220161868D+02 0.205922061170245D+02 0.128354534613779D+02
0.147735306126D-03 0.000000000000D+00 0.000000000000D+00 0.129680586758D-04 0.000000000000D+00  6 -2 1 25 -24 21 21 2 0.23094640D-02 0.30746268D+00 0.16169367D+05 0.16169367D+05 0.16169367D+05 0.12441229D+01  1  2  2  2  6  2        1 0.426350928962D-01 0.100000000000D+01
0.139671000874D-04 0.779620629295D-05 -.567342475124D-06 0.129680586758D-04 0.000000000000D+00  6 -2 1 25 -24 21 21 4 0.23094640D-02 0.30746268D+00 0.16169367D+05 0.16169367D+05 0.16169367D+05 0.12441229D+01  1  2  3  2  6  2        1 0.623901112810D-02 0.100000000000D+01
0.447300684845D-05 0.000000000000D+00 0.000000000000D+00 0.129680586758D-04 0.000000000000D+00  6 -2 1 25 -24 21 21 4 0.23094640D-02 0.30746268D+00 0.16169367D+05 0.16169367D+05 0.16169367D+05 0.12441229D+01  1  2 15  2  6  2        1 0.199806254189D-02 0.100000000000D+01
-.594364750064D-02 0.000000000000D+00 0.000000000000D+00 0.129680586758D-04 0.000000000000D+00  6 -2 1 25 -24 21 21 4 0.23094640D-02 0.30746268D+00 0.16169367D+05 0.16169367D+05 0.16169367D+05 0.12441229D+01  1  2  4  2  6  2        1 -.265498798362D+01 0.100000000000D+01
-.719365404460D-01 0.000000000000D+00 -.602501097588D-02 0.129680586758D-04 0.000000000000D+00  6 -2 1 25 -24 21 21 4 0.23094640D-02 0.30898010D+00 0.16169367D+05 0.16169367D+05 0.16169367D+05 0.12441229D+01  1  2  5  2  6  2        1 -.316739982774D+02 0.100000000000D+01
0.719654034772D-01 0.000000000000D+00 0.602493796071D-02 0.129680586758D-04 0.000000000000D+00  6 -2 1 25 -24 21 21 4 0.23094640D-02 0.30746268D+00 0.16169367D+05 0.16169367D+05 0.16169367D+05 0.12441229D+01  1  2  6  2  6  2        1 0.321464692257D+02 0.100000000000D+01
0.586173144705D-02 0.000000000000D+00 0.000000000000D+00 0.129680586758D-04 0.856936825508D-04  6 -2 1 25 -24 21 21 4 0.23119105D-02 0.30884825D+00 0.16263399D+05 0.16263399D+05 0.16263399D+05 0.12438386D+01  1  2 11  2  6  2        1 0.257782709477D+01 0.100000000000D+01
0.947360233153D-11 0.000000000000D+00 0.000000000000D+00 0.129621312838D-04 0.000000000000D+00  6 -2 21 25 -24 -1 21 4 0.23094640D-02 0.31010722D+00 0.16263399D+05 0.16263399D+05 0.16263399D+05 0.12438386D+01  3  4 12  5  5  2        1 0.345845040809D-08 0.100000000000D+01
-.658620883935D-04 0.000000000000D+00 -.552080649759D-05 0.129680586758D-04 0.000000000000D+00  6 -2 21 25 -24 -1 21 4 0.23094640D-02 0.30898010D+00 0.16169367D+05 0.16169367D+05 0.16169367D+05 0.12441229D+01  3  4  5  5  5  2        1 -.244300824906D-01 0.100000000000D+01
0.592867710073D-05 0.000000000000D+00 0.000000000000D+00 0.129680586758D-04 0.166849540997D-06  6 -2 21 25 -24 -1 21 4 0.23119105D-02 0.30884825D+00 0.16263399D+05 0.16263399D+05 0.16263399D+05 0.12438386D+01  3  4 11  5  5  2        1 0.219651630353D-02 0.100000000000D+01
  </mgrwgt>
  </event>
  <event>
  5     66 -.39191994E-03 0.24699087E+02 0.75467711E-02 0.12275961E+00
       -2 -1    0    0    0  501 0.00000000E+00 0.00000000E+00 0.28620981E+04 0.28620981E+04 0.32000000E+00 0.0000E+00 0.9000E+01
        1 -1    0    0  502    0 0.00000000E+00 0.00000000E+00 -.14248626E+02 0.14252219E+02 0.32000000E+00 0.0000E+00 0.9000E+01
       25  1    1    2    0    0 0.13908642E+02 0.23281286E+02 0.12209269E+04 0.12276086E+04 0.12500000E+03 0.0000E+00 0.9000E+01
      -24  1    1    2    0    0 -.34718177E+02 -.36585265E+02 0.16204094E+04 0.16231875E+04 0.80419002E+02 0.0000E+00 0.9000E+01
       21  1    1    2  502  501 0.20809535E+02 0.13303980E+02 0.65131636E+01 0.25554186E+02 0.75000000E+00 0.0000E+00 0.9000E+01
#aMCatNLO 1  0  0  2  1 0.10168254D+02 0.00000000D+00  -5  6  0 0.00000000D+00 0.00000000D+00 0.00000000D+00 0.00000000D+00 0.00000000D+00
  <mgrwgt>
 -.1672859751D+00    7    4    0
 0.201955830562532D+03 0.000000000000000D+00 0.000000000000000D+00 0.201955830562532D+03
 0.201955830562532D+03 0.000000000000000D+00 0.000000000000000D+00 -.201955830562532D+03
 0.133733583779106D+03 0.139085376795297D+02 0.232812188402210D+02 0.390411175471960D+02
 0.134123575776096D+03 -.347182822658272D+02 -.365853325704774D+02 0.947526883091638D+02
 0.136054501569863D+03 0.208097445862975D+02 0.133041137302564D+02 -.133793805856360D+03
 0.000000000000000D+00 -.000000000000000D+00 0.000000000000000D+00 -.000000000000000D+00
 0.202684533459403D+03 0.000000000000000D+00 0.000000000000000D+00 0.202684533459403D+03
 0.240906000531203D+03 0.000000000000000D+00 0.000000000000000D+00 -.240906000531203D+03
 0.134081644624687D+03 0.172697646518461D+02 0.230311483603533D+02 0.390411175471960D+02
 0.133362798284022D+03 -.313611825946225D+02 -.368350959850448D+02 0.947526883091638D+02
 0.136595188042197D+03 0.242316466796915D+02 0.130495291081516D+02 -.133793805856360D+03
 0.395509030396996D+02 -.101402287369151D+02 0.754418516539910D+00 -.382214670717996D+02
 0.201955830562532D+03 0.000000000000000D+00 0.000000000000000D+00 0.201955830562532D+03
 0.201955830562532D+03 0.000000000000000D+00 0.000000000000000D+00 -.201955830562532D+03
 0.133733583779106D+03 0.139085376795297D+02 0.232812188402210D+02 0.390411175471960D+02
 0.134123575776096D+03 -.347182822658272D+02 -.365853325704774D+02 0.947526883091638D+02
 0.000000000000000D+00 -.000000000000000D+00 0.000000000000000D+00 -.000000000000000D+00
 0.136054501569863D+03 0.208097445862975D+02 0.133041137302564D+02 -.133793805856360D+03
 0.202684533459403D+03 0.000000000000000D+00 0.000000000000000D+00 0.202684533459403D+03
 0.240906000531203D+03 0.000000000000000D+00 0.000000000000000D+00 -.240906000531203D+03
 0.134081644624687D+03 0.172697646518461D+02 0.230311483603533D+02 0.390411175471960D+02
 0.133362798284022D+03 -.313611825946225D+02 -.368350959850448D+02 0.947526883091638D+02
 0.395509030396996D+02 -.101402287369151D+02 0.754418516539910D+00 -.382214670717996D+02
 0.136595188042197D+03 0.242316466796915D+02 0.130495291081516D+02 -.133793805856360D+03
0.126687323615D-02 0.000000000000D+00 0.000000000000D+00 0.606406669233D-04 0.000000000000D+00  6 -2 1 25 -24 21 21 2 0.44032306D+00 0.21923740D-02 0.15318236D+05 0.15318236D+05 0.15318236D+05 0.12467845D+01  1  2  2  2  6  2        1 0.470536577485D-02 0.100000000000D+01
0.214804446336D-03 0.668547374019D-04 -.486512680221D-05 0.606406669233D-04 0.000000000000D+00  6 -2 1 25 -24 21 21 4 0.44032306D+00 0.21923740D-02 0.15318236D+05 0.15318236D+05 0.15318236D+05 0.12467845D+01  1  2  3  2  6  2        1 0.124018439151D-02 0.100000000000D+01
0.668919628623D-04 0.000000000000D+00 0.000000000000D+00 0.606406669233D-04 0.000000000000D+00  6 -2 1 25 -24 21 21 4 0.44032306D+00 0.21923740D-02 0.15318236D+05 0.15318236D+05 0.15318236D+05 0.12467845D+01  1  2 15  2  6  2        1 0.386204148350D-03 0.100000000000D+01
-.201174629787D-01 0.000000000000D+00 0.000000000000D+00 0.606406669233D-04 0.000000000000D+00  6 -2 1 25 -24 21 21 4 0.44032306D+00 0.21923740D-02 0.15318236D+05 0.15318236D+05 0.15318236D+05 0.12467845D+01  1  2  4  2  6  2        1 -.116149195273D+00 0.100000000000D+01
-.603920565866D-01 0.000000000000D+00 -.224988511644D-02 0.606406669233D-04 0.000000000000D+00  6 -2 1 25 -24 21 21 4 0.44032306D+00 0.26260437D-02 0.15318236D+05 0.15318236D+05 0.15318236D+05 0.12467845D+01  1  2  5  2  6  2        1 -.271447381555D+00 0.100000000000D+01
0.598566523379D-01 0.000000000000D+00 0.221372784663D-02 0.606406669233D-04 0.000000000000D+00  6 -2 1 25 -24 21 21 4 0.44032306D+00 0.21923740D-02 0.15318236D+05 0.15318236D+05 0.15318236D+05 0.12467845D+01  1  2  6  2  6  2        1 0.345585425365D+00 0.100000000000D+01
-.157450321518D-02 0.000000000000D+00 -.594654006706D-04 0.606406669233D-04 0.000000000000D+00  6 -2 21 25 -24 -1 21 4 0.44032306D+00 0.26260437D-02 0.15318236D+05 0.15318236D+05 0.15318236D+05 0.12467845D+01  3  4  5  5  5  2        1 -.131606577938D+00 0.100000000000D+01
  </mgrwgt>
  </event>
  <event>
  5     66 0.39191994E-03 0.22700260E+02 0.75467711E-02 0.12304185E+00
       -2 -1    0    0    0  501 0.00000000E+00 0.00000000E+00 0.12855035E+03 0.12855075E+03 0.32000000E+00 0.0000E+00 0.9000E+01
        1 -1    0    0  502    0 -.00000000E+00 -.00000000E+00 -.17713969E+03 0.17713998E+03 0.32000000E+00 0.0000E+00 0.9000E+01
       25  1    1    2    0    0 -.33301768E+02 -.32757362E+02 -.60841364E+02 0.14665853E+03 0.12500000E+03 0.0000E+00 0.9000E+01
      -24  1    1    2    0    0 0.54219912E+02 0.23949500E+02 0.52471494E+02 0.11284437E+03 0.80419002E+02 0.0000E+00 0.9000E+01
       21  1    1    2  502  501 -.20918144E+02 0.88078621E+01 -.40219471E+02 0.46187829E+02 0.75000000E+00 0.0000E+00 0.9000E+01
#aMCatNLO 1  0  0  5  2 0.40325916D-01 0.00000000D+00  -5  6  0 0.00000000D+00 0.00000000D+00 0.00000000D+00 0.00000000D+00 0.00000000D+00
  <mgrwgt>
 0.3393576169D+00   15    2    0
 0.150902199338562D+03 0.000000000000000D+00 0.000000000000000D+00 0.150902199338562D+03
 0.150902199338562D+03 -.000000000000000D+00 -.000000000000000D+00 -.150902199338562D+03
 0.138750861570813D+03 -.333001026160260D+02 -.327580634000068D+02 -.380107094735960D+02
 0.122747060034080D+03 0.542213853854053D+02 0.239488798815158D+02 0.713170197915444D+02
 0.403064770722307D+02 -.209212827693793D+02 0.880918351849099D+01 -.333063103179484D+02
 0.000000000000000D+00 -.000000000000000D+00 0.000000000000000D+00 0.000000000000000D+00
 0.150902199338562D+03 0.000000000000000D+00 0.000000000000000D+00 0.150902199338562D+03
 0.150902199338562D+03 -.000000000000000D+00 -.000000000000000D+00 -.150902199338562D+03
 0.138750872680399D+03 -.333001218796895D+02 -.327580552887858D+02 -.380107401410058D+02
 0.122747038143366D+03 0.542213683436535D+02 0.239488870571713D+02 0.713169926613784D+02
 0.197303626225387D+02 -.102107072527708D+02 0.433522227361725D+01 -.163166943482257D+02
 0.205761252308192D+02 -.107105392111933D+02 0.447394595799726D+01 -.169895581721469D+02
0.131431379110D-05 0.000000000000D+00 0.000000000000D+00 0.363982976412D-04 0.000000000000D+00  6 -2 1 25 -24 21 21 2 0.19777029D-01 0.27252313D-01 0.16389972D+05 0.16389972D+05 0.16389972D+05 0.12434587D+01  1  2  2  3  6  5       21 0.628862529747D-03 0.100000000000D+01
0.161105973314D-06 0.693582442663D-07 -.504731102458D-08 0.363982976412D-04 0.000000000000D+00  6 -2 1 25 -24 21 21 4 0.19777029D-01 0.27252313D-01 0.16389972D+05 0.16389972D+05 0.16389972D+05 0.12434587D+01  1  2  3  3  6  5       21 0.119187588532D-03 0.100000000000D+01
0.373610990829D-07 0.000000000000D+00 0.000000000000D+00 0.363982976412D-04 0.000000000000D+00  6 -2 1 25 -24 21 21 4 0.19777029D-01 0.27252313D-01 0.16389972D+05 0.16389972D+05 0.16389972D+05 0.12434587D+01  1  2 15  3  6  5       21 0.276400633259D-04 0.100000000000D+01
-.133563716711D+00 0.000000000000D+00 0.000000000000D+00 0.363982976412D-04 0.000000000000D+00  6 -2 1 25 -24 21 21 4 0.19777029D-01 0.27252313D-01 0.16389972D+05 0.16389972D+05 0.16389972D+05 0.12434587D+01  1  2  4  3  6  5       21 -.988115895559D+02 0.100000000000D+01
-.536419111123D-01 0.000000000000D+00 0.000000000000D+00 0.363982976412D-04 0.000000000000D+00  6 -2 1 25 -24 21 21 4 0.19777029D-01 0.27252313D-01 0.16389972D+05 0.16389972D+05 0.16389972D+05 0.12434587D+01  1  2  5  3  6  5       21 -.396847484806D+02 0.100000000000D+01
0.134013512552D+00 0.000000000000D+00 -.000000000000D+00 0.363982976412D-04 0.000000000000D+00  6 -2 1 25 -24 21 21 4 0.19777029D-01 0.27252313D-01 0.16389972D+05 0.16389972D+05 0.16389972D+05 0.12434587D+01  1  2  6  3  6  5       21 0.991443523984D+02 0.100000000000D+01
0.536487730851D-01 0.000000000000D+00 0.000000000000D+00 0.363982976412D-04 0.112233235125D+00  6 -2 1 25 -24 21 21 4 0.19777029D-01 0.27252313D-01 0.16389979D+05 0.16389979D+05 0.16389979D+05 0.12434587D+01  1  2 11  3  6  5       21 0.396898229257D+02 0.100000000000D+01
-.292889044106D-02 0.000000000000D+00 0.000000000000D+00 0.363982976412D-04 0.000000000000D+00  6 -2 1 25 -24 1 -1 4 0.19777029D-01 0.27252313D-01 0.16389972D+05 0.16389972D+05 0.16389972D+05 0.12434587D+01  1  2  5  6  6  5       21 -.216681840879D+01 0.100000000000D+01
0.292917559174D-02 0.000000000000D+00 0.000000000000D+00 0.363982976412D-04 0.586554308356D-02  6 -2 1 25 -24 1 -1 4 0.19777029D-01 0.27252313D-01 0.16389979D+05 0.16389979D+05 0.16389979D+05 0.12434587D+01  1  2 11  6  6  5       21 0.216702925098D+01 0.100000000000D+01
-.292889044106D-02 0.000000000000D+00 0.000000000000D+00 0.363982976412D-04 0.000000000000D+00  6 -2 1 25 -24 2 -2 4 0.19777029D-01 0.27252313D-01 0.16389972D+05 0.16389972D+05 0.16389972D+05 0.12434587D+01  1  2  5  7  6  5       21 -.216681840879D+01 0.100000000000D+01
0.292912559422D-02 0.000000000000D+00 0.000000000000D+00 0.363982976412D-04 0.586544287519D-02  6 -2 1 25 -24 2 -2 4 0.19777029D-01 0.27252313D-01 0.16389979D+05 0.16389979D+05 0.16389979D+05 0.12434587D+01  1  2 11  7  6  5       21 0.216699226238D+01 0.100000000000D+01
-.292889044106D-02 0.000000000000D+00 0.000000000000D+00 0.363982976412D-04 0.000000000000D+00  6 -2 1 25 -24 3 -3 4 0.19777029D-01 0.27252313D-01 0.16389972D+05 0.16389972D+05 0.16389972D+05 0.12434587D+01  1  2  5  8  6  5       21 -.216681840879D+01 0.100000000000D+01
-.292889044106D-02 0.000000000000D+00 0.000000000000D+00 0.363982976412D-04 0.000000000000D+00  6 -2 1 25 -24 4 -4 4 0.19777029D-01 0.27252313D-01 0.16389972D+05 0.16389972D+05 0.16389972D+05 0.12434587D+01  1  2  5  8  6  5       21 -.216681840879D+01 0.100000000000D+01
0.292913386400D-02 0.000000000000D+00 0.000000000000D+00 0.363982976412D-04 0.586545943251D-02  6 -2 1 25 -24 3 -3 4 0.19777029D-01 0.27252313D-01 0.16389979D+05 0.16389979D+05 0.16389979D+05 0.12434587D+01  1  2 11  8  6  5       21 0.216699838044D+01 0.100000000000D+01
0.292913386400D-02 0.000000000000D+00 0.000000000000D+00 0.363982976412D-04 0.586545943251D-02  6 -2 1 25 -24 4 -4 4 0.19777029D-01 0.27252313D-01 0.16389979D+05 0.16389979D+05 0.16389979D+05 0.12434587D+01  1  2 11  8  6  5       21 0.216699838044D+01 0.100000000000D+01
  </mgrwgt>
  </event>
  <event>
  6     66 -.39191994E-03 0.18862410E+02 0.75467711E-02 0.12132132E+00
       -2 -1    0    0    0  501 0.00000000E+00 0.00000000E+00 0.16883886E+03 0.16883917E+03 0.32000000E+00 0.0000E+00 0.9000E+01
        1 -1    0    0  502    0 -.00000000E+00 -.00000000E+00 -.39456565E+03 0.39456578E+03 0.32000000E+00 0.0000E+00 0.9000E+01
       25  1    1    2    0    0 -.48367562E+02 0.10763840E+02 -.23989975E+02 0.13658624E+03 0.12500000E+03 0.0000E+00 0.9000E+01
      -24  1    1    2    0    0 0.75993737E+02 0.63626750E+01 -.30114775E+03 0.32089362E+03 0.80419002E+02 0.0000E+00 0.9000E+01
       21  1    1    2  503  501 -.23028373E+02 -.75448035E+01 0.82037761E+02 0.85545232E+02 0.75000000E+00 0.0000E+00 0.9000E+01
       21  1    1    2  502  503 -.45978021E+01 -.95817113E+01 0.17373177E+02 0.20379861E+02 0.75000000E+00 0.0000E+00 0.9000E+01
#aMCatNLO 2  0  0  5  2 0.65149248D+01 0.00000000D+00  -5  6  0 0.00000000D+00 0.00000000D+00 0.00000000D+00 0.00000000D+00 0.00000000D+00
  <mgrwgt>
 -.3643869171D+00    3    2    0
 0.258104899228233D+03 0.000000000000000D+00 0.000000000000000D+00 0.258104899228233D+03
 0.258104899228233D+03 -.000000000000000D+00 -.000000000000000D+00 -.258104899228233D+03
 0.138514855912482D+03 -.483260036384102D+02 0.107896034297022D+02 0.333098654849554D+02
 0.218887612438145D+03 0.760593423566828D+02 0.640334622118744D+01 -.188728759127859D+03
 0.158807330105839D+03 -.277333387182727D+02 -.171929496508897D+02 0.155418893642904D+03
 0.000000000000000D+00 0.000000000000000D+00 -.000000000000000D+00 0.000000000000000D+00
 0.258104899228233D+03 0.000000000000000D+00 0.000000000000000D+00 0.258104899228233D+03
 0.258104899228233D+03 -.000000000000000D+00 -.000000000000000D+00 -.258104899228233D+03
 0.138583212354906D+03 -.483673631624396D+02 0.107639630904179D+02 0.335416461418590D+02
 0.218548314764621D+03 0.759940508811572D+02 0.636286955652228D+01 -.188362862724487D+03
 0.129129274188875D+03 -.230119340920710D+02 -.749605978135771D+01 0.126840961166502D+03
 0.299489971480640D+02 -.461475362664665D+01 -.963077286558249D+01 0.279802554161262D+02
-.284802509209D-02 0.000000000000D+00 0.000000000000D+00 0.154557291799D-04 0.000000000000D+00  6 -2 1 25 -24 21 21 4 0.25975243D-01 0.60702441D-01 0.19624093D+05 0.19624093D+05 0.19624093D+05 0.12347343D+01  1  2 13  3  6  5       21 -.475435527236D+00 0.100000000000D+01
-.449769443477D-02 0.000000000000D+00 0.000000000000D+00 0.154557291799D-04 0.000000000000D+00  6 -2 1 25 -24 21 21 4 0.25975243D-01 0.60702441D-01 0.19624093D+05 0.19624093D+05 0.19624093D+05 0.12347343D+01  1  2 13  3  6  5       21 -.750823344529D+00 0.100000000000D+01
0.516291444903D-02 0.000000000000D+00 0.000000000000D+00 0.154748134320D-04 0.171673731158D-05  6 -2 1 25 -24 21 21 4 0.25975243D-01 0.60702441D-01 0.19624093D+05 0.19624093D+05 0.19624093D+05 0.12347343D+01  1  2  1  3  6  5       21 0.861871954701D+00 0.100000000000D+01
  </mgrwgt>
  </event>
  <event>
  5     66 -.39191994E-03 0.22759594E+02 0.75467711E-02 0.12211720E+00
       -2 -1    0    0    0  501 0.00000000E+00 0.00000000E+00 0.47192576E+02 0.47193661E+02 0.32000000E+00 0.0000E+00 0.9000E+01
        1 -1    0    0  502    0 -.00000000E+00 -.00000000E+00 -.55889540E+03 0.55889549E+03 0.32000000E+00 0.0000E+00 0.9000E+01
       25  1    1    2    0    0 0.62598327E+02 -.10696819E+02 -.14000970E+03 0.19814310E+03 0.12500000E+03 0.0000E+00 0.9000E+01
      -24  1    1    2    0    0 -.67605614E+02 -.11501610E+02 -.37035301E+03 0.38513812E+03 0.80419002E+02 0.0000E+00 0.9000E+01
       21  1    1    2  502  501 0.50072873E+01 0.22198429E+02 -.13401131E+01 0.22807928E+02 0.75000000E+00 0.0000E+00 0.9000E+01
#aMCatNLO 1  0  0  5  1 0.41617747D+01 0.00000000D+00  -5  6  0 0.00000000D+00 0.00000000D+00 0.00000000D+00 0.00000000D+00 0.00000000D+00
  <mgrwgt>
 -.5262733379D+00   20    2    0
 0.162407112961765D+03 0.000000000000000D+00 0.000000000000000D+00 0.162407112961765D+03
 0.162407112961765D+03 -.000000000000000D+00 -.000000000000000D+00 -.162407112961765D+03
 0.149158244782149D+03 0.625979311811424D+02 -.106985716856270D+02 0.508942193399215D+02
 0.135209425381666D+03 -.676059723056103D+02 -.115031989760773D+02 -.843296014433816D+02
 0.404465557597140D+02 0.500804112446786D+01 0.222017706617044D+02 0.334353821034601D+02
 0.000000000000000D+00 0.000000000000000D+00 0.000000000000000D+00 0.000000000000000D+00
 0.162407112961765D+03 0.000000000000000D+00 0.000000000000000D+00 0.162407112961765D+03
 0.162407112961765D+03 -.000000000000000D+00 -.000000000000000D+00 -.162407112961765D+03
 0.149285158922540D+03 0.626510262470545D+02 -.104631893380484D+02 0.512487000185854D+02
 0.134967455378998D+03 -.675579060420781D+02 -.112901104384669D+02 -.840086947560082D+02
 0.256373110665799D+02 0.576846689449395D+01 0.163728748674239D+02 0.188659873048666D+02
 0.149243005554121D+02 -.861587099470287D+00 0.538042490909142D+01 0.138940074325563D+02
0.499437530515D-04 0.000000000000D+00 0.000000000000D+00 0.319267140214D-04 0.000000000000D+00  6 -2 1 25 -24 21 21 2 0.72604869D-02 0.85983998D-01 0.18043900D+05 0.18043900D+05 0.18043900D+05 0.12387776D+01  1  2  2  3  6  5       21 0.279214120850D-01 0.100000000000D+01
0.649942594912D-05 0.263560425767D-05 -.191797162210D-06 0.319267140214D-04 0.000000000000D+00  6 -2 1 25 -24 21 21 4 0.72604869D-02 0.85983998D-01 0.18043900D+05 0.18043900D+05 0.18043900D+05 0.12387776D+01  1  2  3  3  6  5       21 0.557593778967D-02 0.100000000000D+01
0.188050055154D-05 0.000000000000D+00 0.000000000000D+00 0.319267140214D-04 0.000000000000D+00  6 -2 1 25 -24 21 21 4 0.72604869D-02 0.85983998D-01 0.18043900D+05 0.18043900D+05 0.18043900D+05 0.12387776D+01  1  2 15  3  6  5       21 0.161330464735D-02 0.100000000000D+01
0.202075328866D-04 0.000000000000D+00 0.000000000000D+00 0.319266967243D-04 0.000000000000D+00  6 -2 1 25 -24 21 21 4 0.72604869D-02 0.85983998D-01 0.18044025D+05 0.18044025D+05 0.18044025D+05 0.12387773D+01  1  2 12  3  6  5       21 0.173362758357D-01 0.100000000000D+01
0.209969493702D-04 0.000000000000D+00 0.000000000000D+00 0.319266967243D-04 0.000000000000D+00  6 -2 1 25 -24 21 21 4 0.72604869D-02 0.85983998D-01 0.18044025D+05 0.18044025D+05 0.18044025D+05 0.12387773D+01  1  2 12  3  6  5       21 0.180135253538D-01 0.100000000000D+01
-.913605400181D-03 0.000000000000D+00 0.000000000000D+00 0.319267140214D-04 0.000000000000D+00  6 -2 1 25 -24 21 21 4 0.72604869D-02 0.85983998D-01 0.18043900D+05 0.18043900D+05 0.18043900D+05 0.12387776D+01  1  2  4  3  6  5       21 -.783793355843D+00 0.100000000000D+01
-.319572870675D-03 0.000000000000D+00 0.000000000000D+00 0.319267140214D-04 0.000000000000D+00  6 -2 1 25 -24 21 21 4 0.72604869D-02 0.85983998D-01 0.18043900D+05 0.18043900D+05 0.18043900D+05 0.12387776D+01  1  2  5  3  6  5       21 -.274165512478D+00 0.100000000000D+01
0.550581598412D-03 0.000000000000D+00 -.000000000000D+00 0.319267140214D-04 0.000000000000D+00  6 -2 1 25 -24 21 21 4 0.72604869D-02 0.85983998D-01 0.18043900D+05 0.18043900D+05 0.18043900D+05 0.12387776D+01  1  2  6  3  6  5       21 0.472350752961D+00 0.100000000000D+01
0.477532981447D-06 0.000000000000D+00 0.000000000000D+00 0.319266967243D-04 0.000000000000D+00  6 -2 1 25 -24 1 -1 4 0.72604869D-02 0.85983998D-01 0.18044025D+05 0.18044025D+05 0.18044025D+05 0.12387773D+01  1  2 12  6  6  5       21 0.409681059705D-03 0.100000000000D+01
0.494483840028D-06 0.000000000000D+00 0.000000000000D+00 0.319266967243D-04 0.000000000000D+00  6 -2 1 25 -24 1 -1 4 0.72604869D-02 0.85983998D-01 0.18044025D+05 0.18044025D+05 0.18044025D+05 0.12387773D+01  1  2 12  6  6  5       21 0.424223397044D-03 0.100000000000D+01
-.421409485743D-05 0.000000000000D+00 0.000000000000D+00 0.319267140214D-04 0.000000000000D+00  6 -2 1 25 -24 1 -1 4 0.72604869D-02 0.85983998D-01 0.18043900D+05 0.18043900D+05 0.18043900D+05 0.12387776D+01  1  2  5  6  6  5       21 -.361532402227D-02 0.100000000000D+01
0.477532981447D-06 0.000000000000D+00 0.000000000000D+00 0.319266967243D-04 0.000000000000D+00  6 -2 1 25 -24 2 -2 4 0.72604869D-02 0.85983998D-01 0.18044025D+05 0.18044025D+05 0.18044025D+05 0.12387773D+01  1  2 12  7  6  5       21 0.409681059705D-03 0.100000000000D+01
0.494483840028D-06 0.000000000000D+00 0.000000000000D+00 0.319266967243D-04 0.000000000000D+00  6 -2 1 25 -24 2 -2 4 0.72604869D-02 0.85983998D-01 0.18044025D+05 0.18044025D+05 0.18044025D+05 0.12387773D+01  1  2 12  7  6  5       21 0.424223397044D-03 0.100000000000D+01
-.421409485743D-05 0.000000000000D+00 0.000000000000D+00 0.319267140214D-04 0.000000000000D+00  6 -2 1 25 -24 2 -2 4 0.72604869D-02 0.85983998D-01 0.18043900D+05 0.18043900D+05 0.18043900D+05 0.12387776D+01  1  2  5  7  6  5       21 -.361532402227D-02 0.100000000000D+01
0.477532981447D-06 0.000000000000D+00 0.000000000000D+00 0.319266967243D-04 0.000000000000D+00  6 -2 1 25 -24 3 -3 4 0.72604869D-02 0.85983998D-01 0.18044025D+05 0.18044025D+05 0.18044025D+05 0.12387773D+01  1  2 12  8  6  5       21 0.409681059705D-03 0.100000000000D+01
0.477532981447D-06 0.000000000000D+00 0.000000000000D+00 0.319266967243D-04 0.000000000000D+00  6 -2 1 25 -24 4 -4 4 0.72604869D-02 0.85983998D-01 0.18044025D+05 0.18044025D+05 0.18044025D+05 0.12387773D+01  1  2 12  8  6  5       21 0.409681059705D-03 0.100000000000D+01
0.494483840028D-06 0.000000000000D+00 0.000000000000D+00 0.319266967243D-04 0.000000000000D+00  6 -2 1 25 -24 3 -3 4 0.72604869D-02 0.85983998D-01 0.18044025D+05 0.18044025D+05 0.18044025D+05 0.12387773D+01  1  2 12  8  6  5       21 0.424223397044D-03 0.100000000000D+01
0.494483840028D-06 0.000000000000D+00 0.000000000000D+00 0.319266967243D-04 0.000000000000D+00  6 -2 1 25 -24 4 -4 4 0.72604869D-02 0.85983998D-01 0.18044025D+05 0.18044025D+05 0.18044025D+05 0.12387773D+01  1  2 12  8  6  5       21 0.424223397044D-03 0.100000000000D+01
-.421409485743D-05 0.000000000000D+00 0.000000000000D+00 0.319267140214D-04 0.000000000000D+00  6 -2 1 25 -24 3 -3 4 0.72604869D-02 0.85983998D-01 0.18043900D+05 0.18043900D+05 0.18043900D+05 0.12387776D+01  1  2  5  8  6  5       21 -.361532402227D-02 0.100000000000D+01
-.421409485743D-05 0.000000000000D+00 0.000000000000D+00 0.319267140214D-04 0.000000000000D+00  6 -2 1 25 -24 4 -4 4 0.72604869D-02 0.85983998D-01 0.18043900D+05 0.18043900D+05 0.18043900D+05 0.12387776D+01  1  2  5  8  6  5       21 -.361532402227D-02 0.100000000000D+01
  </mgrwgt>
  </event>
  <event>
  5     66 0.39191994E-03 0.34393001E+02 0.75467711E-02 0.11807197E+00
       -2 -1    0    0    0  501 0.00000000E+00 0.00000000E+00 0.71531206E+02 0.71531922E+02 0.32000000E+00 0.0000E+00 0.9000E+01
        1 -1    0    0  502    0 0.00000000E+00 0.00000000E+00 -.36594822E+03 0.36594836E+03 0.32000000E+00 0.0000E+00 0.9000E+01
       25  1    1    2    0    0 0.72440003E+02 0.86664016E+02 -.13308559E+03 0.21469741E+03 0.12500000E+03 0.0000E+00 0.9000E+01
      -24  1    1    2    0    0 -.56005078E+02 -.56457598E+02 -.93555046E+02 0.14677804E+03 0.80419002E+02 0.0000E+00 0.9000E+01
       21  1    1    2  502  501 -.16434925E+02 -.30206418E+02 -.67776383E+02 0.76004836E+02 0.75000000E+00 0.0000E+00 0.9000E+01
#aMCatNLO 1  0  0  2  1 0.17890896D+02 0.00000000D+00  -5  6  0 0.00000000D+00 0.00000000D+00 0.00000000D+00 0.00000000D+00 0.00000000D+00
  <mgrwgt>
 0.1285512969D+00    4    2    0
 0.161792783759882D+03 0.000000000000000D+00 0.000000000000000D+00 0.161792783759882D+03
 0.161792783759882D+03 0.000000000000000D+00 0.000000000000000D+00 -.161792783759882D+03
 0.169179103001866D+03 0.724414343535120D+02 0.866666472946314D+02 0.154175136786027D+02
 0.113317439904826D+03 -.560041186862705D+02 -.564558355826633D+02 0.706424454919212D+01
 0.410890246130710D+02 -.164373156672415D+02 -.302108117119681D+02 -.224817582277949D+02
 0.000000000000000D+00 -.000000000000000D+00 0.000000000000000D+00 0.000000000000000D+00
 0.222652544942789D+03 0.000000000000000D+00 0.000000000000000D+00 0.222652544942789D+03
 0.163360093400426D+03 0.000000000000000D+00 0.000000000000000D+00 -.163360093400426D+03
 0.167152044707280D+03 0.768949292999147D+02 0.785129044791738D+02 0.154175136786027D+02
 0.114745661706764D+03 -.529842441447472D+02 -.619848146525549D+02 0.706424454919212D+01
 0.421820733720982D+02 -.153346898278439D+02 -.322295694795924D+02 -.224817582277949D+02
 0.619328585570728D+02 -.857599532732352D+01 0.157014796529735D+02 0.592924515423622D+02
0.238456381576D-03 0.000000000000D+00 0.000000000000D+00 0.172613372502D-04 0.000000000000D+00  6 -2 1 25 -24 21 21 2 0.11004867D-01 0.56299792D-01 0.24958496D+05 0.24958496D+05 0.24958496D+05 0.12233750D+01  1  2  2  2  6  2        1 0.118098213650D+00 0.100000000000D+01
0.266669717844D-04 0.125836889731D-04 -.915735292259D-06 0.172613372502D-04 0.000000000000D+00  6 -2 1 25 -24 21 21 4 0.11004867D-01 0.56299792D-01 0.24958496D+05 0.24958496D+05 0.24958496D+05 0.12233750D+01  1  2  3  2  6  2        1 0.197663869830D-01 0.100000000000D+01
0.647796543168D-05 0.000000000000D+00 0.000000000000D+00 0.172613372502D-04 0.000000000000D+00  6 -2 1 25 -24 21 21 4 0.11004867D-01 0.56299792D-01 0.24958496D+05 0.24958496D+05 0.24958496D+05 0.12233750D+01  1  2 15  2  6  2        1 0.480166899414D-02 0.100000000000D+01
-.190426090997D-04 0.000000000000D+00 0.000000000000D+00 0.172613372502D-04 0.000000000000D+00  6 -2 1 25 -24 21 21 4 0.11004867D-01 0.56299792D-01 0.24958496D+05 0.24958496D+05 0.24958496D+05 0.12233750D+01  1  2  4  2  6  2        1 -.141149727713D-01 0.100000000000D+01
  </mgrwgt>
  </event>
  <event>
  5     66 0.39191994E-03 0.35003860E+02 0.75467711E-02 0.11684790E+00
       -2 -1    0    0    0  501 0.00000000E+00 0.00000000E+00 0.15077513E+03 0.15077547E+03 0.32000000E+00 0.0000E+00 0.9000E+01
        1 -1    0    0  502    0 -.00000000E+00 -.00000000E+00 -.22008801E+03 0.22008825E+03 0.32000000E+00 0.0000E+00 0.9000E+01
       25  1    1    2    0    0 -.99231018E+02 -.38576243E+02 -.62995266E+01 0.16431557E+03 0.12500000E+03 0.0000E+00 0.9000E+01
      -24  1    1    2    0    0 0.12241429E+03 0.64792805E+02 -.61342208E+02 0.17150350E+03 0.80419002E+02 0.0000E+00 0.9000E+01
       21  1    1    2  502  501 -.23183274E+02 -.26216562E+02 -.16711534E+01 0.35044651E+02 0.75000000E+00 0.0000E+00 0.9000E+01
#aMCatNLO 1  0  0  5  1 0.29880321D+01 0.00000000D+00  -5  6  0 0.00000000D+00 0.00000000D+00 0.00000000D+00 0.00000000D+00 0.00000000D+00
  <mgrwgt>
 0.1339487535D+00   19    2    0
 0.182164498075081D+03 0.000000000000000D+00 0.000000000000000D+00 0.182164498075081D+03
 0.182164498075081D+03 -.000000000000000D+00 -.000000000000000D+00 -.182164498075081D+03
 0.166062186342828D+03 -.992286395140750D+02 -.385735529171462D+02 0.248476930215668D+02
 0.162912292466589D+03 0.122416625485821D+03 0.647954431876226D+02 -.298147518710564D+02
 0.353545173407456D+02 -.231879859717460D+02 -.262218902704763D+02 0.496705884948969D+01
 0.000000000000000D+00 0.000000000000000D+00 0.000000000000000D+00 0.000000000000000D+00
 0.182164498075081D+03 0.000000000000000D+00 0.000000000000000D+00 0.182164498075081D+03
 0.182164498075081D+03 -.000000000000000D+00 -.000000000000000D+00 -.182164498075081D+03
 0.166979853318973D+03 -.100251737479521D+03 -.397305125003783D+02 0.250668490883918D+02
 0.161677864450600D+03 0.121419491521944D+03 0.636678447227276D+02 -.296011575086380D+02
 0.326718963586445D+02 -.229728673643605D+02 -.231189938334483D+02 0.228304639867124D+01
 0.299938202194554D+01 0.180511332193713D+01 -.818338388901010D+00 0.225126202157504D+01
0.269335266369D-03 0.000000000000D+00 0.000000000000D+00 0.145051926524D-04 0.000000000000D+00  6 -2 1 25 -24 21 21 2 0.23196217D-01 0.33859739D-01 0.32284435D+05 0.32284435D+05 0.32284435D+05 0.12115675D+01  1  2  2  3  6  5       21 0.720787182194D-01 0.100000000000D+01
0.440569547801D-04 0.142132124923D-04 -.103431834046D-05 0.145051926524D-04 0.000000000000D+00  6 -2 1 25 -24 21 21 4 0.23196217D-01 0.33859739D-01 0.32284435D+05 0.32284435D+05 0.32284435D+05 0.12115675D+01  1  2  3  3  6  5       21 0.173070691061D-01 0.100000000000D+01
0.156716189057D-05 0.000000000000D+00 0.000000000000D+00 0.145051926524D-04 0.000000000000D+00  6 -2 1 25 -24 21 21 4 0.23196217D-01 0.33859739D-01 0.32284435D+05 0.32284435D+05 0.32284435D+05 0.12115675D+01  1  2 15  3  6  5       21 0.615634450359D-03 0.100000000000D+01
0.433347732183D-06 0.000000000000D+00 0.000000000000D+00 0.145097209911D-04 0.000000000000D+00  6 -2 1 25 -24 21 21 4 0.23196217D-01 0.33859739D-01 0.32149669D+05 0.32149669D+05 0.32149669D+05 0.12117566D+01  1  2 12  3  6  5       21 0.170327874683D-03 0.100000000000D+01
0.458614490283D-06 0.000000000000D+00 0.000000000000D+00 0.145097209911D-04 0.000000000000D+00  6 -2 1 25 -24 21 21 4 0.23196217D-01 0.33859739D-01 0.32149669D+05 0.32149669D+05 0.32149669D+05 0.12117566D+01  1  2 12  3  6  5       21 0.180259005938D-03 0.100000000000D+01
-.814599951846D-03 0.000000000000D+00 0.000000000000D+00 0.145051926524D-04 0.000000000000D+00  6 -2 1 25 -24 21 21 4 0.23196217D-01 0.33859739D-01 0.32284435D+05 0.32284435D+05 0.32284435D+05 0.12115675D+01  1  2  4  3  6  5       21 -.320002545132D+00 0.100000000000D+01
0.903980549184D-03 0.000000000000D+00 0.000000000000D+00 0.145051926524D-04 0.128138635402D-04  6 -2 1 25 -24 21 21 4 0.23196217D-01 0.33859739D-01 0.32149669D+05 0.32149669D+05 0.32149669D+05 0.12117566D+01  1  2 11  3  6  5       21 0.355310699151D+00 0.100000000000D+01
0.460528502969D-07 0.000000000000D+00 0.000000000000D+00 0.145097209911D-04 0.000000000000D+00  6 -2 1 25 -24 1 -1 4 0.23196217D-01 0.33859739D-01 0.32149669D+05 0.32149669D+05 0.32149669D+05 0.12117566D+01  1  2 12  6  6  5       21 0.181011311047D-04 0.100000000000D+01
0.465211424842D-07 0.000000000000D+00 0.000000000000D+00 0.145097209911D-04 0.000000000000D+00  6 -2 1 25 -24 1 -1 4 0.23196217D-01 0.33859739D-01 0.32149669D+05 0.32149669D+05 0.32149669D+05 0.12117566D+01  1  2 12  6  6  5       21 0.182851939417D-04 0.100000000000D+01
0.571920149529D-05 0.000000000000D+00 0.000000000000D+00 0.145097209911D-04 0.883894150391D-07  6 -2 1 25 -24 1 -1 4 0.23196217D-01 0.33859739D-01 0.32149669D+05 0.32149669D+05 0.32149669D+05 0.12117566D+01  1  2 11  6  6  5       21 0.224793938731D-02 0.100000000000D+01
0.460528502969D-07 0.000000000000D+00 0.000000000000D+00 0.145097209911D-04 0.000000000000D+00  6 -2 1 25 -24 2 -2 4 0.23196217D-01 0.33859739D-01 0.32149669D+05 0.32149669D+05 0.32149669D+05 0.12117566D+01  1  2 12  7  6  5       21 0.181011311047D-04 0.100000000000D+01
0.465211424842D-07 0.000000000000D+00 0.000000000000D+00 0.145097209911D-04 0.000000000000D+00  6 -2 1 25 -24 2 -2 4 0.23196217D-01 0.33859739D-01 0.32149669D+05 0.32149669D+05 0.32149669D+05 0.12117566D+01  1  2 12  7  6  5       21 0.182851939417D-04 0.100000000000D+01
0.359208529643D-05 0.000000000000D+00 0.000000000000D+00 0.145097209911D-04 0.985357945030D-07  6 -2 1 25 -24 2 -2 4 0.23196217D-01 0.33859739D-01 0.32149669D+05 0.32149669D+05 0.32149669D+05 0.12117566D+01  1  2 11  7  6  5       21 0.141187367277D-02 0.100000000000D+01
0.460528502969D-07 0.000000000000D+00 0.000000000000D+00 0.145097209911D-04 0.000000000000D+00  6 -2 1 25 -24 3 -3 4 0.23196217D-01 0.33859739D-01 0.32149669D+05 0.32149669D+05 0.32149669D+05 0.12117566D+01  1  2 12  8  6  5       21 0.181011311047D-04 0.100000000000D+01
0.460528502969D-07 0.000000000000D+00 0.000000000000D+00 0.145097209911D-04 0.000000000000D+00  6 -2 1 25 -24 4 -4 4 0.23196217D-01 0.33859739D-01 0.32149669D+05 0.32149669D+05 0.32149669D+05 0.12117566D+01  1  2 12  8  6  5       21 0.181011311047D-04 0.100000000000D+01
0.465211424842D-07 0.000000000000D+00 0.000000000000D+00 0.145097209911D-04 0.000000000000D+00  6 -2 1 25 -24 3 -3 4 0.23196217D-01 0.33859739D-01 0.32149669D+05 0.32149669D+05 0.32149669D+05 0.12117566D+01  1  2 12  8  6  5       21 0.182851939417D-04 0.100000000000D+01
0.465211424842D-07 0.000000000000D+00 0.000000000000D+00 0.145097209911D-04 0.000000000000D+00  6 -2 1 25 -24 4 -4 4 0.23196217D-01 0.33859739D-01 0.32149669D+05 0.32149669D+05 0.32149669D+05 0.12117566D+01  1  2 12  8  6  5       21 0.182851939417D-04 0.100000000000D+01
0.570311419182D-05 0.000000000000D+00 0.000000000000D+00 0.145097209911D-04 0.879262530630D-07  6 -2 1 25 -24 3 -3 4 0.23196217D-01 0.33859739D-01 0.32149669D+05 0.32149669D+05 0.32149669D+05 0.12117566D+01  1  2 11  8  6  5       21 0.224161625232D-02 0.100000000000D+01
0.570311419182D-05 0.000000000000D+00 0.000000000000D+00 0.145097209911D-04 0.879262530630D-07  6 -2 1 25 -24 4 -4 4 0.23196217D-01 0.33859739D-01 0.32149669D+05 0.32149669D+05 0.32149669D+05 0.12117566D+01  1  2 11  8  6  5       21 0.224161625232D-02 0.100000000000D+01
  </mgrwgt>
  </event>
  <event>
  5     66 -.39191994E-03 0.32059394E+02 0.75467711E-02 0.10791996E+00
       -2 -1    0    0    0  501 0.00000000E+00 0.00000000E+00 0.40002070E+03 0.40002082E+03 0.32000000E+00 0.0000E+00 0.9000E+01
        1 -1    0    0  502    0 0.00000000E+00 0.00000000E+00 -.25827352E+03 0.25827372E+03 0.32000000E+00 0.0000E+00 0.9000E+01
       25  1    1    2    0    0 -.22543434E+03 0.13629234E+03 0.95629728E+02 0.30686526E+03 0.12500000E+03 0.0000E+00 0.9000E+01
      -24  1    1    2    0    0 0.23831250E+03 -.16564759E+03 0.72659971E+02 0.30980423E+03 0.80419002E+02 0.0000E+00 0.9000E+01
       21  1    1    2  502  501 -.12878162E+02 0.29355242E+02 -.26542527E+02 0.41625059E+02 0.75000000E+00 0.0000E+00 0.9000E+01
#aMCatNLO 1  0  0  2  1 0.18755783D+03 0.00000000D+00  -5  6  0 0.00000000D+00 0.00000000D+00 0.00000000D+00 0.00000000D+00 0.00000000D+00
  <mgrwgt>
 -.9341464246D-01    1    2    0
 0.321426293256980D+03 0.000000000000000D+00 0.000000000000000D+00 0.321426293256980D+03
 0.321426293256980D+03 0.000000000000000D+00 0.000000000000000D+00 -.321426293256980D+03
 0.293149306278281D+03 -.225433635639193D+03 0.136290741227632D+03 0.302659139884398D+02
 0.301226231766791D+03 0.238313223142174D+03 -.165649232009575D+03 0.609642192407319D+01
 0.484770484688866D+02 -.128795875029810D+02 0.293584907819425D+02 -.363623359125130D+02
 0.000000000000000D+00 -.000000000000000D+00 -.000000000000000D+00 0.000000000000000D+00
 0.132275295844670D+04 0.000000000000000D+00 0.000000000000000D+00 0.132275295844670D+04
 0.601206446449461D+03 0.000000000000000D+00 0.000000000000000D+00 -.601206446449461D+03
 0.510685219116294D+03 -.145437000089860D+03 0.472341451154950D+03 0.302659139884398D+02
 0.325989915482618D+03 0.300733012236875D+03 0.965644760388297D+02 0.609642192407319D+01
 0.974011929872931D+02 0.163803788841322D+01 0.903442845685857D+02 -.363623359125130D+02
 0.989883077309958D+03 -.156934050035428D+03 -.659250211762365D+03 0.721546511997242D+03
-.216537089822D-02 0.000000000000D+00 0.000000000000D+00 0.142659626886D-04 0.000000000000D+00  6 -2 1 25 -24 21 21 4 0.61541671D-01 0.39734413D-01 0.97595841D+05 0.97595841D+05 0.97595841D+05 0.11645438D+01  1  2 14  2  6  2        1 -.934146424615D-01 0.100000000000D+01
  </mgrwgt>
  </event>
  <event>
  5     66 0.39191994E-03 0.53840489E+02 0.75467711E-02 0.11912954E+00
       -2 -1    0    0    0  501 0.00000000E+00 0.00000000E+00 0.25097297E+02 0.25099337E+02 0.32000000E+00 0.0000E+00 0.9000E+01
        1 -1    0    0  502    0 0.00000000E+00 0.00000000E+00 -.91409294E+03 0.91409300E+03 0.32000000E+00 0.0000E+00 0.9000E+01
       25  1    1    2    0    0 -.29007262E+02 -.15269717E+02 -.48850999E+03 0.50531336E+03 0.12500000E+03 0.0000E+00 0.9000E+01
      -24  1    1    2    0    0 0.76409564E+02 -.10253386E+02 -.29737044E+03 0.31755306E+03 0.80419002E+02 0.0000E+00 0.9000E+01
       21  1    1    2  502  501 -.47402302E+02 0.25523102E+02 -.10311522E+03 0.11632591E+03 0.75000000E+00 0.0000E+00 0.9000E+01
#aMCatNLO 1  0  0  2  1 0.20351040D+02 0.00000000D+00  -5  6  0 0.00000000D+00 0.00000000D+00 0.00000000D+00 0.00000000D+00 0.00000000D+00
  <mgrwgt>
 0.3325058564D-01    4    2    0
 0.151466982301063D+03 0.000000000000000D+00 0.000000000000000D+00 0.151466982301063D+03
 0.151466982301063D+03 0.000000000000000D+00 0.000000000000000D+00 -.151466982301063D+03
 0.133042724426835D+03 -.290055235168266D+02 -.152706525105135D+02 -.316362655876578D+02
 0.111848413375169D+03 0.764110252810938D+02 -.102541723018917D+02 0.995282804369753D+01
 0.580428268001202D+02 -.474055017642673D+02 0.255248248124052D+02 0.216834375439603D+02
 0.000000000000000D+00 -.000000000000000D+00 -.000000000000000D+00 0.000000000000000D+00
 0.200983132936800D+03 0.000000000000000D+00 0.000000000000000D+00 0.200983132936800D+03
 0.153913969379487D+03 0.000000000000000D+00 0.000000000000000D+00 -.153913969379487D+03
 0.131371469692660D+03 -.238215417708640D+02 -.807117689904411D+01 -.316362655876578D+02
 0.114541025921841D+03 0.808495113642730D+02 -.409003556808061D+01 0.995282804369753D+01
 0.577042887682769D+02 -.451362176350528D+02 0.286763898726985D+02 0.216834375439603D+02
 0.512803179335093D+02 -.118917519583561D+02 -.165151774055737D+02 0.470691635573137D+02
0.538499698433D-04 0.000000000000D+00 0.000000000000D+00 0.811985173681D-05 0.000000000000D+00  6 -2 1 25 -24 21 21 2 0.38612839D-02 0.14062984D+00 0.21678409D+05 0.21678409D+05 0.21678409D+05 0.12299916D+01  1  2  2  2  6  2        1 0.377962415854D-01 0.100000000000D+01
0.537065266432D-07 0.284174098105D-05 -.206798063221D-06 0.811985173681D-05 0.000000000000D+00  6 -2 1 25 -24 21 21 4 0.38612839D-02 0.14062984D+00 0.21678409D+05 0.21678409D+05 0.21678409D+05 0.12299916D+01  1  2  3  2  6  2        1 0.570288401305D-04 0.100000000000D+01
0.229127758653D-05 0.000000000000D+00 0.000000000000D+00 0.811985173681D-05 0.000000000000D+00  6 -2 1 25 -24 21 21 4 0.38612839D-02 0.14062984D+00 0.21678409D+05 0.21678409D+05 0.21678409D+05 0.12299916D+01  1  2 15  2  6  2        1 0.243301720189D-02 0.100000000000D+01
-.662582502709D-05 0.000000000000D+00 0.000000000000D+00 0.811985173681D-05 0.000000000000D+00  6 -2 1 25 -24 21 21 4 0.38612839D-02 0.14062984D+00 0.21678409D+05 0.21678409D+05 0.21678409D+05 0.12299916D+01  1  2  4  2  6  2        1 -.703570198671D-02 0.100000000000D+01
  </mgrwgt>
  </event>
  <event>
  5     66 0.39191994E-03 0.45308178E+02 0.75467711E-02 0.12014227E+00
       -2 -1    0    0    0  501 0.00000000E+00 0.00000000E+00 0.31389259E+02 0.31390890E+02 0.32000000E+00 0.0000E+00 0.9000E+01
        1 -1    0    0  502    0 0.00000000E+00 0.00000000E+00 -.93970858E+03 0.93970863E+03 0.32000000E+00 0.0000E+00 0.9000E+01
       25  1    1    2    0    0 0.17345392E+02 -.30526719E+02 -.33335572E+03 0.35774820E+03 0.12500000E+03 0.0000E+00 0.9000E+01
      -24  1    1    2    0    0 -.62652186E+02 0.30429624E+02 -.13901087E+03 0.17504999E+03 0.80419002E+02 0.0000E+00 0.9000E+01
       21  1    1    2  502  501 0.45306794E+02 0.97095128E-01 -.43595273E+03 0.43830133E+03 0.75000000E+00 0.0000E+00 0.9000E+01
#aMCatNLO 1  0  0  2  2 0.15360323D+02 0.00000000D+00  -5  6  0 0.00000000D+00 0.00000000D+00 0.00000000D+00 0.00000000D+00 0.00000000D+00
  <mgrwgt>
 0.4039585924D-01    7    4    0
 0.171748578503115D+03 0.000000000000000D+00 0.000000000000000D+00 0.171748578503115D+03
 0.171748578503115D+03 0.000000000000000D+00 0.000000000000000D+00 -.171748578503115D+03
 0.129886525491547D+03 0.173447452750236D+02 -.305267206170334D+02 0.357612135986825D+01
 0.127293617701527D+03 -.626528195493137D+02 0.304296227452055D+02 0.698935720597946D+02
 0.863170138131560D+02 0.453080742742902D+02 0.970978718279137D-01 -.734696934196629D+02
 0.000000000000000D+00 -.000000000000000D+00 0.000000000000000D+00 -.000000000000000D+00
 0.175935706762367D+03 0.000000000000000D+00 0.000000000000000D+00 0.175935706762367D+03
 0.186609527712418D+03 0.000000000000000D+00 0.000000000000000D+00 -.186609527712418D+03
 0.130915482089362D+03 0.231477961108307D+02 -.310685426423739D+02 0.357612135986825D+01
 0.124504783317996D+03 -.570501060769570D+02 0.299065059146129D+02 0.698935720597946D+02
 0.884201574563526D+02 0.491961144668777D+02 -.265922524056674D+00 -.734696934196629D+02
 0.187048116110745D+02 -.152938045007514D+02 0.142795925181765D+01 -.106738209500502D+02
 0.171748578503115D+03 0.000000000000000D+00 0.000000000000000D+00 0.171748578503115D+03
 0.171748578503115D+03 0.000000000000000D+00 0.000000000000000D+00 -.171748578503115D+03
 0.129886525491547D+03 0.173447452750236D+02 -.305267206170334D+02 0.357612135986825D+01
 0.127293617701527D+03 -.626528195493137D+02 0.304296227452055D+02 0.698935720597946D+02
 0.000000000000000D+00 -.000000000000000D+00 0.000000000000000D+00 -.000000000000000D+00
 0.863170138131560D+02 0.453080742742902D+02 0.970978718279137D-01 -.734696934196629D+02
 0.175935706762367D+03 0.000000000000000D+00 0.000000000000000D+00 0.175935706762367D+03
 0.186609527712418D+03 0.000000000000000D+00 0.000000000000000D+00 -.186609527712418D+03
 0.130915482089362D+03 0.231477961108307D+02 -.310685426423739D+02 0.357612135986825D+01
 0.124504783317996D+03 -.570501060769570D+02 0.299065059146129D+02 0.698935720597946D+02
 0.187048116110745D+02 -.152938045007514D+02 0.142795925181765D+01 -.106738209500502D+02
 0.884201574563526D+02 0.491961144668777D+02 -.265922524056674D+00 -.734696934196629D+02
0.504036699018D-04 0.000000000000D+00 0.000000000000D+00 0.121206858081D-04 0.000000000000D+00  6 -2 1 25 -24 21 21 2 0.48292464D-02 0.14457068D+00 0.19815370D+05 0.19815370D+05 0.19815370D+05 0.12342697D+01  1  2  2  2  6  2        1 0.243523987566D-01 0.100000000000D+01
0.677522020530D-06 0.265987473665D-05 -.193563364014D-06 0.121206858081D-04 0.000000000000D+00  6 -2 1 25 -24 21 21 4 0.48292464D-02 0.14457068D+00 0.19815370D+05 0.19815370D+05 0.19815370D+05 0.12342697D+01  1  2  3  2  6  2        1 0.498681377873D-03 0.100000000000D+01
0.232272045406D-05 0.000000000000D+00 0.000000000000D+00 0.121206858081D-04 0.000000000000D+00  6 -2 1 25 -24 21 21 4 0.48292464D-02 0.14457068D+00 0.19815370D+05 0.19815370D+05 0.19815370D+05 0.12342697D+01  1  2 15  2  6  2        1 0.170960854606D-02 0.100000000000D+01
-.932643080198D-04 0.000000000000D+00 0.000000000000D+00 0.121206858081D-04 0.000000000000D+00  6 -2 1 25 -24 21 21 4 0.48292464D-02 0.14457068D+00 0.19815370D+05 0.19815370D+05 0.19815370D+05 0.12342697D+01  1  2  4  2  6  2        1 -.686459955845D-01 0.100000000000D+01
-.784923341972D-03 0.000000000000D+00 -.135483836034D-03 0.121206858081D-04 0.000000000000D+00  6 -2 1 25 -24 21 21 4 0.48292464D-02 0.15930128D+00 0.19815370D+05 0.19815370D+05 0.19815370D+05 0.12342697D+01  1  2  5  2  6  2        1 -.491063112536D+00 0.100000000000D+01
0.794959397995D-03 0.000000000000D+00 0.134848566682D-03 0.121206858081D-04 0.000000000000D+00  6 -2 1 25 -24 21 21 4 0.48292464D-02 0.14457068D+00 0.19815370D+05 0.19815370D+05 0.19815370D+05 0.12342697D+01  1  2  6  2  6  2        1 0.585119650628D+00 0.100000000000D+01
-.119980460428D-04 0.000000000000D+00 -.214385500718D-05 0.121206858081D-04 0.000000000000D+00  6 -2 21 25 -24 -1 21 4 0.48292464D-02 0.15930128D+00 0.19815370D+05 0.19815370D+05 0.19815370D+05 0.12342697D+01  3  4  5  5  5  2        1 -.115753719448D-01 0.100000000000D+01
  </mgrwgt>
  </event>
  <event>
  6     66 -.39191994E-03 0.93857128E+01 0.75467711E-02 0.11539229E+00
       -2 -1    0    0    0  501 0.00000000E+00 0.00000000E+00 0.13572406E+03 0.13572444E+03 0.32000000E+00 0.0000E+00 0.9000E+01
        1 -1    0    0  502    0 -.00000000E+00 -.00000000E+00 -.30173922E+03 0.30173939E+03 0.32000000E+00 0.0000E+00 0.9000E+01
       25  1    1    2    0    0 0.13704246E+03 0.18199933E+02 -.28399775E+02 0.18852963E+03 0.12500000E+03 0.0000E+00 0.9000E+01
      -24  1    1    2    0    0 -.15430945E+03 -.41555431E+01 -.13135692E+03 0.21806084E+03 0.80419002E+02 0.0000E+00 0.9000E+01
       21  1    1    2  502  503 0.76582074E+01 -.13339454E+02 -.12096939E+02 0.19582839E+02 0.75000000E+00 0.0000E+00 0.9000E+01
       21  1    1    2  503  501 0.96087809E+01 -.70493576E+00 0.58384694E+01 0.11290519E+02 0.75000000E+00 0.0000E+00 0.9000E+01
#aMCatNLO 2  0  0  5  1 0.10212407D+02 0.00000000D+00  -5  6  0 0.00000000D+00 0.00000000D+00 0.00000000D+00 0.00000000D+00 0.00000000D+00
  <mgrwgt>
 -.7123713335D-01    3    2    0
 0.202369446676206D+03 0.000000000000000D+00 0.000000000000000D+00 0.202369446676206D+03
 0.202369446676206D+03 -.000000000000000D+00 -.000000000000000D+00 -.202369446676206D+03
 0.190149949802364D+03 0.134261781725557D+03 0.204616470528666D+02 0.456847718348725D+02
 0.184303551654833D+03 -.156972599944867D+03 -.198942865676625D+01 -.534436922225949D+02
 0.302853918952154D+02 0.227108182193099D+02 -.184722183961003D+02 0.775892038772241D+01
 0.000000000000000D+00 0.000000000000000D+00 0.000000000000000D+00 0.000000000000000D+00
 0.202369446676206D+03 0.000000000000000D+00 0.000000000000000D+00 0.202369446676206D+03
 0.202369446676206D+03 -.000000000000000D+00 -.000000000000000D+00 -.202369446676206D+03
 0.192116409725026D+03 0.137031749007950D+03 0.182086484996524D+02 0.466311030244026D+02
 0.181821679324024D+03 -.154319594034737D+03 -.414729474969263D+01 -.525373196980087D+02
 0.155158186443436D+02 0.697256805438553D+01 -.128062563902246D+02 -.530318019672669D+01
 0.152849856590184D+02 0.103152769724016D+02 -.125509735973515D+01 0.112093968703327D+02
-.956335511562D-04 0.000000000000D+00 0.000000000000D+00 0.187102794619D-04 0.000000000000D+00  6 -2 1 25 -24 21 21 4 0.20880667D-01 0.46421461D-01 0.37135211D+05 0.37135211D+05 0.37135211D+05 0.12052915D+01  1  2 13  3  6  5       21 -.298148886277D-01 0.100000000000D+01
-.975792267126D-04 0.000000000000D+00 0.000000000000D+00 0.187102794619D-04 0.000000000000D+00  6 -2 1 25 -24 21 21 4 0.20880667D-01 0.46421461D-01 0.37135211D+05 0.37135211D+05 0.37135211D+05 0.12052915D+01  1  2 13  3  6  5       21 -.304214759532D-01 0.100000000000D+01
-.354051394144D-04 0.000000000000D+00 0.000000000000D+00 0.186759508543D-04 0.000000000000D+00  6 -2 1 25 -24 21 21 4 0.20880667D-01 0.46421461D-01 0.38071757D+05 0.38071757D+05 0.38071757D+05 0.12041853D+01  1  2  8  3  6  5       21 -.110007687646D-01 0.100000000000D+01
  </mgrwgt>
  </event>
  <event>
  5     66 0.39191994E-03 0.27156122E+02 0.75467711E-02 0.11064122E+00
       -2 -1    0    0    0  501 0.00000000E+00 0.00000000E+00 0.72198617E+02 0.72199326E+02 0.32000000E+00 0.0000E+00 0.9000E+01
        1 -1    0    0  502    0 -.00000000E+00 -.00000000E+00 -.11081217E+04 0.11081217E+04 0.32000000E+00 0.0000E+00 0.9000E+01
       25  1    1    2    0    0 -.82962732E+02 0.20557868E+03 -.39198597E+03 0.46735790E+03 0.12500000E+03 0.0000E+00 0.9000E+01
      -24  1    1    2    0    0 0.10927108E+03 -.19885600E+03 -.64209310E+03 0.68573657E+03 0.80419002E+02 0.0000E+00 0.9000E+01
       21  1    1    2  502  501 -.26308345E+02 -.67226755E+01 -.18439859E+01 0.27226571E+02 0.75000000E+00 0.0000E+00 0.9000E+01
#aMCatNLO 1  0  0  5  2 0.13015893D+01 0.00000000D+00  -5  6  0 0.00000000D+00 0.00000000D+00 0.00000000D+00 0.00000000D+00 0.00000000D+00
  <mgrwgt>
 0.5818984501D+00   25    2    0
 0.282852077326964D+03 0.000000000000000D+00 0.000000000000000D+00 0.282852077326964D+03
 0.282852077326964D+03 -.000000000000000D+00 -.000000000000000D+00 -.282852077326964D+03
 0.257316146551654D+03 -.829615525630689D+02 0.205578981315647D+03 0.379639633565588D+02
 0.254957984600257D+03 0.109272245233845D+03 -.198855706021499D+03 -.839782267096668D+02
 0.534300235020170D+02 -.263106926707758D+02 -.672327529414813D+01 0.460142633531079D+02
 0.000000000000000D+00 -.000000000000000D+00 0.000000000000000D+00 0.000000000000000D+00
 0.282852077326964D+03 0.000000000000000D+00 0.000000000000000D+00 0.282852077326964D+03
 0.282852077326964D+03 -.000000000000000D+00 -.000000000000000D+00 -.282852077326964D+03
 0.257325380842623D+03 -.829860810310371D+02 0.205572713459275D+03 0.380068607214764D+02
 0.254938417204267D+03 0.109247942924581D+03 -.198861916086642D+03 -.839357248693486D+02
 0.943158240559643D+01 -.356747832920724D+01 -.178983070550937D+01 0.854542866624075D+01
 0.440087742014415D+02 -.226943835643366D+02 -.492096666712351D+01 0.373834354816313D+02
0.435007261802D-03 0.000000000000D+00 0.000000000000D+00 0.198647033705D-04 0.000000000000D+00  6 -2 1 25 -24 21 21 2 0.11107538D-01 0.17048032D+00 0.68222022D+05 0.68222022D+05 0.68222022D+05 0.11791432D+01  1  2  2  3  6  5       21 0.397778764181D-01 0.100000000000D+01
0.116284327659D-03 0.229559638848D-04 -.167054242536D-05 0.198647033705D-04 0.000000000000D+00  6 -2 1 25 -24 21 21 4 0.11107538D-01 0.17048032D+00 0.68222022D+05 0.68222022D+05 0.68222022D+05 0.11791432D+01  1  2  3  3  6  5       21 0.147842535978D-01 0.100000000000D+01
0.883199994106D-05 0.000000000000D+00 0.000000000000D+00 0.198647033705D-04 0.000000000000D+00  6 -2 1 25 -24 21 21 4 0.11107538D-01 0.17048032D+00 0.68222022D+05 0.68222022D+05 0.68222022D+05 0.11791432D+01  1  2 15  3  6  5       21 0.112289015668D-02 0.100000000000D+01
0.713008628557D-07 0.000000000000D+00 0.000000000000D+00 0.198644139657D-04 0.000000000000D+00  6 -2 1 25 -24 21 21 4 0.11107538D-01 0.17048032D+00 0.68236121D+05 0.68236121D+05 0.68236121D+05 0.11791346D+01  1  2 12  3  6  5       21 0.906482689283D-05 0.100000000000D+01
0.718414679161D-07 0.000000000000D+00 0.000000000000D+00 0.198644139657D-04 0.000000000000D+00  6 -2 1 25 -24 21 21 4 0.11107538D-01 0.17048032D+00 0.68236121D+05 0.68236121D+05 0.68236121D+05 0.11791346D+01  1  2 12  3  6  5       21 0.913355665420D-05 0.100000000000D+01
-.179064754589D-01 0.000000000000D+00 0.000000000000D+00 0.198647033705D-04 0.000000000000D+00  6 -2 1 25 -24 21 21 4 0.11107538D-01 0.17048032D+00 0.68222022D+05 0.68222022D+05 0.68222022D+05 0.11791432D+01  1  2  4  3  6  5       21 -.227660837499D+01 0.100000000000D+01
-.197660050109D-02 0.000000000000D+00 0.000000000000D+00 0.198647033705D-04 0.000000000000D+00  6 -2 1 25 -24 21 21 4 0.11107538D-01 0.17048032D+00 0.68222022D+05 0.68222022D+05 0.68222022D+05 0.11791432D+01  1  2  5  3  6  5       21 -.251302679028D+00 0.100000000000D+01
0.213539689475D-01 0.000000000000D+00 -.000000000000D+00 0.198647033705D-04 0.000000000000D+00  6 -2 1 25 -24 21 21 4 0.11107538D-01 0.17048032D+00 0.68222022D+05 0.68222022D+05 0.68222022D+05 0.11791432D+01  1  2  6  3  6  5       21 0.271491867043D+01 0.100000000000D+01
0.245822545392D-02 0.000000000000D+00 0.000000000000D+00 0.198647033705D-04 0.890358860766D-04  6 -2 1 25 -24 21 21 4 0.11107538D-01 0.17048032D+00 0.68236121D+05 0.68236121D+05 0.68236121D+05 0.11791346D+01  1  2 11  3  6  5       21 0.312526206708D+00 0.100000000000D+01
0.196406363478D-07 0.000000000000D+00 0.000000000000D+00 0.198644139657D-04 0.000000000000D+00  6 -2 1 25 -24 1 -1 4 0.11107538D-01 0.17048032D+00 0.68236121D+05 0.68236121D+05 0.68236121D+05 0.11791346D+01  1  2 12  6  6  5       21 0.249701001401D-05 0.100000000000D+01
0.197277233168D-07 0.000000000000D+00 0.000000000000D+00 0.198644139657D-04 0.000000000000D+00  6 -2 1 25 -24 1 -1 4 0.11107538D-01 0.17048032D+00 0.68236121D+05 0.68236121D+05 0.68236121D+05 0.11791346D+01  1  2 12  6  6  5       21 0.250808180567D-05 0.100000000000D+01
-.548647490926D-03 0.000000000000D+00 0.000000000000D+00 0.198647033705D-04 0.000000000000D+00  6 -2 1 25 -24 1 -1 4 0.11107538D-01 0.17048032D+00 0.68222022D+05 0.68222022D+05 0.68222022D+05 0.11791432D+01  1  2  5  6  6  5       21 -.697544011730D-01 0.100000000000D+01
0.601717322725D-03 0.000000000000D+00 0.000000000000D+00 0.198647033705D-04 0.174567708173D-05  6 -2 1 25 -24 1 -1 4 0.11107538D-01 0.17048032D+00 0.68236121D+05 0.68236121D+05 0.68236121D+05 0.11791346D+01  1  2 11  6  6  5       21 0.764992617265D-01 0.100000000000D+01
0.196406363478D-07 0.000000000000D+00 0.000000000000D+00 0.198644139657D-04 0.000000000000D+00  6 -2 1 25 -24 2 -2 4 0.11107538D-01 0.17048032D+00 0.68236121D+05 0.68236121D+05 0.68236121D+05 0.11791346D+01  1  2 12  7  6  5       21 0.249701001401D-05 0.100000000000D+01
0.197277233168D-07 0.000000000000D+00 0.000000000000D+00 0.198644139657D-04 0.000000000000D+00  6 -2 1 25 -24 2 -2 4 0.11107538D-01 0.17048032D+00 0.68236121D+05 0.68236121D+05 0.68236121D+05 0.11791346D+01  1  2 12  7  6  5       21 0.250808180567D-05 0.100000000000D+01
-.548647490926D-03 0.000000000000D+00 0.000000000000D+00 0.198647033705D-04 0.000000000000D+00  6 -2 1 25 -24 2 -2 4 0.11107538D-01 0.17048032D+00 0.68222022D+05 0.68222022D+05 0.68222022D+05 0.11791432D+01  1  2  5  7  6  5       21 -.697544011730D-01 0.100000000000D+01
0.600336155159D-03 0.000000000000D+00 0.000000000000D+00 0.198647033705D-04 0.174190562154D-05  6 -2 1 25 -24 2 -2 4 0.11107538D-01 0.17048032D+00 0.68236121D+05 0.68236121D+05 0.68236121D+05 0.11791346D+01  1  2 11  7  6  5       21 0.763236671488D-01 0.100000000000D+01
0.196406363478D-07 0.000000000000D+00 0.000000000000D+00 0.198644139657D-04 0.000000000000D+00  6 -2 1 25 -24 3 -3 4 0.11107538D-01 0.17048032D+00 0.68236121D+05 0.68236121D+05 0.68236121D+05 0.11791346D+01  1  2 12  8  6  5       21 0.249701001401D-05 0.100000000000D+01
0.196406363478D-07 0.000000000000D+00 0.000000000000D+00 0.198644139657D-04 0.000000000000D+00  6 -2 1 25 -24 4 -4 4 0.11107538D-01 0.17048032D+00 0.68236121D+05 0.68236121D+05 0.68236121D+05 0.11791346D+01  1  2 12  8  6  5       21 0.249701001401D-05 0.100000000000D+01
0.197277233168D-07 0.000000000000D+00 0.000000000000D+00 0.198644139657D-04 0.000000000000D+00  6 -2 1 25 -24 3 -3 4 0.11107538D-01 0.17048032D+00 0.68236121D+05 0.68236121D+05 0.68236121D+05 0.11791346D+01  1  2 12  8  6  5       21 0.250808180567D-05 0.100000000000D+01
0.197277233168D-07 0.000000000000D+00 0.000000000000D+00 0.198644139657D-04 0.000000000000D+00  6 -2 1 25 -24 4 -4 4 0.11107538D-01 0.17048032D+00 0.68236121D+05 0.68236121D+05 0.68236121D+05 0.11791346D+01  1  2 12  8  6  5       21 0.250808180567D-05 0.100000000000D+01
-.548647490926D-03 0.000000000000D+00 0.000000000000D+00 0.198647033705D-04 0.000000000000D+00  6 -2 1 25 -24 3 -3 4 0.11107538D-01 0.17048032D+00 0.68222022D+05 0.68222022D+05 0.68222022D+05 0.11791432D+01  1  2  5  8  6  5       21 -.697544011730D-01 0.100000000000D+01
-.548647490926D-03 0.000000000000D+00 0.000000000000D+00 0.198647033705D-04 0.000000000000D+00  6 -2 1 25 -24 4 -4 4 0.11107538D-01 0.17048032D+00 0.68222022D+05 0.68222022D+05 0.68222022D+05 0.11791432D+01  1  2  5  8  6  5       21 -.697544011730D-01 0.100000000000D+01
0.601078396700D-03 0.000000000000D+00 0.000000000000D+00 0.198647033705D-04 0.174375548892D-05  6 -2 1 25 -24 3 -3 4 0.11107538D-01 0.17048032D+00 0.68236121D+05 0.68236121D+05 0.68236121D+05 0.11791346D+01  1  2 11  8  6  5       21 0.764180319407D-01 0.100000000000D+01
0.601078396700D-03 0.000000000000D+00 0.000000000000D+00 0.198647033705D-04 0.174375548892D-05  6 -2 1 25 -24 4 -4 4 0.11107538D-01 0.17048032D+00 0.68236121D+05 0.68236121D+05 0.68236121D+05 0.11791346D+01  1  2 11  8  6  5       21 0.764180319407D-01 0.100000000000D+01
  </mgrwgt>
  </event>
  <event>
  5     66 0.39191994E-03 0.49539372E+02 0.75467711E-02 0.11614338E+00
       -2 -1    0    0    0  501 0.00000000E+00 0.00000000E+00 0.20004630E+03 0.20004655E+03 0.32000000E+00 0.0000E+00 0.9000E+01
        1 -1    0    0  502    0 -.00000000E+00 -.00000000E+00 -.13204178E+04 0.13204179E+04 0.32000000E+00 0.0000E+00 0.9000E+01
       25  1    1    2    0    0 0.17304550E+02 0.11900018E+03 -.63457388E+03 0.65785219E+03 0.12500000E+03 0.0000E+00 0.9000E+01
      -24  1    1    2    0    0 -.42843000E+02 -.75086664E+02 -.66548632E+03 0.67587927E+03 0.80419002E+02 0.0000E+00 0.9000E+01
       21  1    1    2  502  501 0.25538450E+02 -.43913514E+02 0.17968868E+03 0.18673295E+03 0.75000000E+00 0.0000E+00 0.9000E+01
#aMCatNLO 1  0  0  5  2 0.28349973D+02 0.00000000D+00  -5  6  0 0.00000000D+00 0.00000000D+00 0.00000000D+00 0.00000000D+00 0.00000000D+00
  <mgrwgt>
 0.5796788487D+00   15    2    0
 0.513950309181501D+03 0.000000000000000D+00 0.000000000000000D+00 0.513950309181501D+03
 0.513950309181501D+03 -.000000000000000D+00 -.000000000000000D+00 -.513950309181501D+03
 0.281430390130169D+03 0.173045414041949D+02 0.119000192951578D+03 -.221624843853519D+03
 0.274402598960069D+03 -.428430088669870D+02 -.750866493462667D+02 -.247701518047113D+03
 0.472067629272763D+03 0.255384674627921D+02 -.439135436053115D+02 0.469326361900632D+03
 0.000000000000000D+00 0.000000000000000D+00 0.000000000000000D+00 0.000000000000000D+00
 0.513950309181501D+03 0.000000000000000D+00 0.000000000000000D+00 0.513950309181501D+03
 0.513950309181501D+03 -.000000000000000D+00 -.000000000000000D+00 -.513950309181501D+03
 0.280419584797279D+03 0.173713752836026D+02 0.118885271706521D+03 -.220396622092765D+03
 0.273342804435742D+03 -.427778527721747D+02 -.751986856309365D+02 -.246504129324454D+03
 0.353237891802627D+03 0.241984094476497D+02 -.604831691130441D+02 0.347178961688941D+03
 0.120900337327353D+03 0.120806804092238D+01 0.167965830374598D+02 0.119721789728278D+03
0.272073521610D-02 0.000000000000D+00 0.000000000000D+00 0.451020069076D-04 0.000000000000D+00  6 -2 1 25 -24 21 21 2 0.30776376D-01 0.20314122D+00 0.29296150D+05 0.29296150D+05 0.29296150D+05 0.12159820D+01  1  2  2  3  6  5       21 0.339831774952D-01 0.100000000000D+01
0.542741482528D-03 0.143577141913D-03 -.104483396158D-04 0.451020069076D-04 0.000000000000D+00  6 -2 1 25 -24 21 21 4 0.30776376D-01 0.20314122D+00 0.29296150D+05 0.29296150D+05 0.29296150D+05 0.12159820D+01  1  2  3  3  6  5       21 0.100236302998D-01 0.100000000000D+01
0.762404628234D-04 0.000000000000D+00 0.000000000000D+00 0.451020069076D-04 0.000000000000D+00  6 -2 1 25 -24 21 21 4 0.30776376D-01 0.20314122D+00 0.29296150D+05 0.29296150D+05 0.29296150D+05 0.12159820D+01  1  2 15  3  6  5       21 0.140804828418D-02 0.100000000000D+01
0.270529543856D-01 0.000000000000D+00 0.000000000000D+00 0.445190484543D-04 0.000000000000D+00  6 -2 1 25 -24 21 21 4 0.30776376D-01 0.20314122D+00 0.34872277D+05 0.34872277D+05 0.34872277D+05 0.12080980D+01  1  2 12  3  6  5       21 0.484041826388D+00 0.100000000000D+01
-.931226136180D-02 0.000000000000D+00 0.000000000000D+00 0.451020069076D-04 0.000000000000D+00  6 -2 1 25 -24 21 21 4 0.30776376D-01 0.20314122D+00 0.29296150D+05 0.29296150D+05 0.29296150D+05 0.12159820D+01  1  2  4  3  6  5       21 -.171983657322D+00 0.100000000000D+01
-.537184931593D-01 0.000000000000D+00 0.000000000000D+00 0.451020069076D-04 0.000000000000D+00  6 -2 1 25 -24 21 21 4 0.30776376D-01 0.20314122D+00 0.29296150D+05 0.29296150D+05 0.29296150D+05 0.12159820D+01  1  2  5  3  6  5       21 -.992100904436D+00 0.100000000000D+01
0.673666152702D-01 0.000000000000D+00 -.000000000000D+00 0.451020069076D-04 0.000000000000D+00  6 -2 1 25 -24 21 21 4 0.30776376D-01 0.20314122D+00 0.29296150D+05 0.29296150D+05 0.29296150D+05 0.12159820D+01  1  2  6  3  6  5       21 0.124416147974D+01 0.100000000000D+01
0.429338264388D-03 0.000000000000D+00 0.000000000000D+00 0.445190484543D-04 0.000000000000D+00  6 -2 1 25 -24 1 -1 4 0.30776376D-01 0.20314122D+00 0.34872277D+05 0.34872277D+05 0.34872277D+05 0.12080980D+01  1  2 12  6  6  5       21 0.768188474614D-02 0.100000000000D+01
-.820075194894D-03 0.000000000000D+00 0.000000000000D+00 0.451020069076D-04 0.000000000000D+00  6 -2 1 25 -24 1 -1 4 0.30776376D-01 0.20314122D+00 0.29296150D+05 0.29296150D+05 0.29296150D+05 0.12159820D+01  1  2  5  6  6  5       21 -.151455726829D-01 0.100000000000D+01
0.429338264388D-03 0.000000000000D+00 0.000000000000D+00 0.445190484543D-04 0.000000000000D+00  6 -2 1 25 -24 2 -2 4 0.30776376D-01 0.20314122D+00 0.34872277D+05 0.34872277D+05 0.34872277D+05 0.12080980D+01  1  2 12  7  6  5       21 0.768188474614D-02 0.100000000000D+01
-.820075194894D-03 0.000000000000D+00 0.000000000000D+00 0.451020069076D-04 0.000000000000D+00  6 -2 1 25 -24 2 -2 4 0.30776376D-01 0.20314122D+00 0.29296150D+05 0.29296150D+05 0.29296150D+05 0.12159820D+01  1  2  5  7  6  5       21 -.151455726829D-01 0.100000000000D+01
0.429338264388D-03 0.000000000000D+00 0.000000000000D+00 0.445190484543D-04 0.000000000000D+00  6 -2 1 25 -24 3 -3 4 0.30776376D-01 0.20314122D+00 0.34872277D+05 0.34872277D+05 0.34872277D+05 0.12080980D+01  1  2 12  8  6  5       21 0.768188474614D-02 0.100000000000D+01
0.429338264388D-03 0.000000000000D+00 0.000000000000D+00 0.445190484543D-04 0.000000000000D+00  6 -2 1 25 -24 4 -4 4 0.30776376D-01 0.20314122D+00 0.34872277D+05 0.34872277D+05 0.34872277D+05 0.12080980D+01  1  2 12  8  6  5       21 0.768188474614D-02 0.100000000000D+01
-.820075194894D-03 0.000000000000D+00 0.000000000000D+00 0.451020069076D-04 0.000000000000D+00  6 -2 1 25 -24 3 -3 4 0.30776376D-01 0.20314122D+00 0.29296150D+05 0.29296150D+05 0.29296150D+05 0.12159820D+01  1  2  5  8  6  5       21 -.151455726829D-01 0.100000000000D+01
-.820075194894D-03 0.000000000000D+00 0.000000000000D+00 0.451020069076D-04 0.000000000000D+00  6 -2 1 25 -24 4 -4 4 0.30776376D-01 0.20314122D+00 0.29296150D+05 0.29296150D+05 0.29296150D+05 0.12159820D+01  1  2  5  8  6  5       21 -.151455726829D-01 0.100000000000D+01
  </mgrwgt>
  </event>
  <event>
  5     66 -.39191994E-03 0.36196114E+03 0.75467711E-02 0.98058586E-01
       -2 -1    0    0    0  501 0.00000000E+00 0.00000000E+00 0.88172603E+03 0.88172609E+03 0.32000000E+00 0.0000E+00 0.9000E+01
        1 -1    0    0  502    0 0.00000000E+00 0.00000000E+00 -.48472922E+03 0.48472932E+03 0.32000000E+00 0.0000E+00 0.9000E+01
       25  1    1    2    0    0 -.16307264E+03 -.20187284E+03 0.11837744E+03 0.31142182E+03 0.12500000E+03 0.0000E+00 0.9000E+01
      -24  1    1    2    0    0 -.40317453E+03 -.57368285E+01 0.71333333E+02 0.41729878E+03 0.80419002E+02 0.0000E+00 0.9000E+01
       21  1    1    2  502  501 0.56624717E+03 0.20760967E+03 0.20728605E+03 0.63773482E+03 0.75000000E+00 0.0000E+00 0.9000E+01
#aMCatNLO 1  0  0  5  1 0.14125559D+02 0.00000000D+00  -5  6  0 0.00000000D+00 0.00000000D+00 0.00000000D+00 0.00000000D+00 0.00000000D+00
  <mgrwgt>
 -.1381389390D-02   20    2    0
 0.653757204662340D+03 0.000000000000000D+00 0.000000000000000D+00 0.653757204662340D+03
 0.653757204662340D+03 -.000000000000000D+00 -.000000000000000D+00 -.653757204662340D+03
 0.289517778312505D+03 -.163072739979476D+03 -.201872876652319D+03 0.291576251898668D+02
 0.414451453785094D+03 -.403174665294262D+03 -.573687932497878D+01 -.521542814223183D+02
 0.603545177227080D+03 0.566247405273738D+03 0.207609755977298D+03 0.229966562324515D+02
 0.000000000000000D+00 0.000000000000000D+00 0.000000000000000D+00 0.000000000000000D+00
 0.653757204662340D+03 0.000000000000000D+00 0.000000000000000D+00 0.653757204662340D+03
 0.653757204662340D+03 -.000000000000000D+00 -.000000000000000D+00 -.653757204662340D+03
 0.289193612807155D+03 -.162674742076189D+03 -.201726954133626D+03 0.291737888329633D+02
 0.413891540759004D+03 -.402604987938519D+03 -.552801200707134D+01 -.521311454676253D+02
 0.545985927466628D+03 0.509816375650255D+03 0.195209096591400D+03 0.901691290864303D+01
 0.584433282918916D+02 0.554633543644526D+02 0.120458695492969D+02 0.139404437260191D+02
0.200982089306D-03 0.000000000000D+00 0.000000000000D+00 0.141428166946D-06 0.000000000000D+00  6 -2 1 25 -24 21 21 2 0.13565017D+00 0.74573738D-01 0.42400252D+06 0.42400252D+06 0.42400252D+06 0.11099929D+01  1  2  2  3  6  5       21 0.401579104945D-03 0.100000000000D+01
-.240492490065D-04 0.106061162393D-04 -.771824142736D-06 0.141428166946D-06 0.000000000000D+00  6 -2 1 25 -24 21 21 4 0.13565017D+00 0.74573738D-01 0.42400252D+06 0.42400252D+06 0.42400252D+06 0.11099929D+01  1  2  3  3  6  5       21 -.592046285906D-04 0.100000000000D+01
0.419468299463D-05 0.000000000000D+00 0.000000000000D+00 0.141428166946D-06 0.000000000000D+00  6 -2 1 25 -24 21 21 4 0.13565017D+00 0.74573738D-01 0.42400252D+06 0.42400252D+06 0.42400252D+06 0.11099929D+01  1  2 15  3  6  5       21 0.103265032802D-04 0.100000000000D+01
0.820521206659D-02 0.000000000000D+00 0.000000000000D+00 0.141446110656D-06 0.000000000000D+00  6 -2 1 25 -24 21 21 4 0.13565017D+00 0.74573738D-01 0.42313824D+06 0.42313824D+06 0.42313824D+06 0.11100633D+01  1  2 12  3  6  5       21 0.202061775239D-01 0.100000000000D+01
0.821520462227D-02 0.000000000000D+00 0.000000000000D+00 0.141446110656D-06 0.000000000000D+00  6 -2 1 25 -24 21 21 4 0.13565017D+00 0.74573738D-01 0.42313824D+06 0.42313824D+06 0.42313824D+06 0.11100633D+01  1  2 12  3  6  5       21 0.202307852187D-01 0.100000000000D+01
-.186160085460D-01 0.000000000000D+00 0.000000000000D+00 0.141428166946D-06 0.000000000000D+00  6 -2 1 25 -24 21 21 4 0.13565017D+00 0.74573738D-01 0.42400252D+06 0.42400252D+06 0.42400252D+06 0.11099929D+01  1  2  4  3  6  5       21 -.458290348903D-01 0.100000000000D+01
-.164405922868D-01 0.000000000000D+00 0.000000000000D+00 0.141428166946D-06 0.000000000000D+00  6 -2 1 25 -24 21 21 4 0.13565017D+00 0.74573738D-01 0.42400252D+06 0.42400252D+06 0.42400252D+06 0.11099929D+01  1  2  5  3  6  5       21 -.404735781930D-01 0.100000000000D+01
0.179170158063D-01 0.000000000000D+00 -.000000000000D+00 0.141428166946D-06 0.000000000000D+00  6 -2 1 25 -24 21 21 4 0.13565017D+00 0.74573738D-01 0.42400252D+06 0.42400252D+06 0.42400252D+06 0.11099929D+01  1  2  6  3  6  5       21 0.441082491172D-01 0.100000000000D+01
0.550141768411D-04 0.000000000000D+00 0.000000000000D+00 0.141446110656D-06 0.000000000000D+00  6 -2 1 25 -24 1 -1 4 0.13565017D+00 0.74573738D-01 0.42313824D+06 0.42313824D+06 0.42313824D+06 0.11100633D+01  1  2 12  6  6  5       21 0.135478061330D-03 0.100000000000D+01
0.550416979521D-04 0.000000000000D+00 0.000000000000D+00 0.141446110656D-06 0.000000000000D+00  6 -2 1 25 -24 1 -1 4 0.13565017D+00 0.74573738D-01 0.42313824D+06 0.42313824D+06 0.42313824D+06 0.11100633D+01  1  2 12  6  6  5       21 0.135545834893D-03 0.100000000000D+01
-.107724162570D-03 0.000000000000D+00 0.000000000000D+00 0.141428166946D-06 0.000000000000D+00  6 -2 1 25 -24 1 -1 4 0.13565017D+00 0.74573738D-01 0.42400252D+06 0.42400252D+06 0.42400252D+06 0.11099929D+01  1  2  5  6  6  5       21 -.265196182778D-03 0.100000000000D+01
0.550141768411D-04 0.000000000000D+00 0.000000000000D+00 0.141446110656D-06 0.000000000000D+00  6 -2 1 25 -24 2 -2 4 0.13565017D+00 0.74573738D-01 0.42313824D+06 0.42313824D+06 0.42313824D+06 0.11100633D+01  1  2 12  7  6  5       21 0.135478061330D-03 0.100000000000D+01
0.550416979521D-04 0.000000000000D+00 0.000000000000D+00 0.141446110656D-06 0.000000000000D+00  6 -2 1 25 -24 2 -2 4 0.13565017D+00 0.74573738D-01 0.42313824D+06 0.42313824D+06 0.42313824D+06 0.11100633D+01  1  2 12  7  6  5       21 0.135545834893D-03 0.100000000000D+01
-.107724162570D-03 0.000000000000D+00 0.000000000000D+00 0.141428166946D-06 0.000000000000D+00  6 -2 1 25 -24 2 -2 4 0.13565017D+00 0.74573738D-01 0.42400252D+06 0.42400252D+06 0.42400252D+06 0.11099929D+01  1  2  5  7  6  5       21 -.265196182778D-03 0.100000000000D+01
0.550141768411D-04 0.000000000000D+00 0.000000000000D+00 0.141446110656D-06 0.000000000000D+00  6 -2 1 25 -24 3 -3 4 0.13565017D+00 0.74573738D-01 0.42313824D+06 0.42313824D+06 0.42313824D+06 0.11100633D+01  1  2 12  8  6  5       21 0.135478061330D-03 0.100000000000D+01
0.550141768411D-04 0.000000000000D+00 0.000000000000D+00 0.141446110656D-06 0.000000000000D+00  6 -2 1 25 -24 4 -4 4 0.13565017D+00 0.74573738D-01 0.42313824D+06 0.42313824D+06 0.42313824D+06 0.11100633D+01  1  2 12  8  6  5       21 0.135478061330D-03 0.100000000000D+01
0.550416979521D-04 0.000000000000D+00 0.000000000000D+00 0.141446110656D-06 0.000000000000D+00  6 -2 1 25 -24 3 -3 4 0.13565017D+00 0.74573738D-01 0.42313824D+06 0.42313824D+06 0.42313824D+06 0.11100633D+01  1  2 12  8  6  5       21 0.135545834893D-03 0.100000000000D+01
0.550416979521D-04 0.000000000000D+00 0.000000000000D+00 0.141446110656D-06 0.000000000000D+00  6 -2 1 25 -24 4 -4 4 0.13565017D+00 0.74573738D-01 0.42313824D+06 0.42313824D+06 0.42313824D+06 0.11100633D+01  1  2 12  8  6  5       21 0.135545834893D-03 0.100000000000D+01
-.107724162570D-03 0.000000000000D+00 0.000000000000D+00 0.141428166946D-06 0.000000000000D+00  6 -2 1 25 -24 3 -3 4 0.13565017D+00 0.74573738D-01 0.42400252D+06 0.42400252D+06 0.42400252D+06 0.11099929D+01  1  2  5  8  6  5       21 -.265196182778D-03 0.100000000000D+01
-.107724162570D-03 0.000000000000D+00 0.000000000000D+00 0.141428166946D-06 0.000000000000D+00  6 -2 1 25 -24 4 -4 4 0.13565017D+00 0.74573738D-01 0.42400252D+06 0.42400252D+06 0.42400252D+06 0.11099929D+01  1  2  5  8  6  5       21 -.265196182778D-03 0.100000000000D+01
  </mgrwgt>
  </event>
  <event>
  5     66 0.39191994E-03 0.30326761E+02 0.75467711E-02 0.12398362E+00
       -4 -1    0    0    0  501 0.00000000E+00 0.00000000E+00 0.52881397E+03 0.52881624E+03 0.15500000E+01 0.0000E+00 0.9000E+01
        3 -1    0    0  502    0 0.00000000E+00 0.00000000E+00 -.20397129E+03 0.20397191E+03 0.50000000E+00 0.0000E+00 0.9000E+01
       25  1    1    2    0    0 -.19712865E+02 0.26523571E+02 0.37674144E+03 0.39831044E+03 0.12500000E+03 0.0000E+00 0.9000E+01
      -24  1    1    2    0    0 -.97892512E+01 -.19499741E+02 0.12761969E+03 0.15241414E+03 0.80419002E+02 0.0000E+00 0.9000E+01
       21  1    1    2  502  501 0.29502116E+02 -.70238298E+01 -.17951844E+03 0.18206357E+03 0.75000000E+00 0.0000E+00 0.9000E+01
#aMCatNLO 1  0  0  5  1 0.10260933D+02 0.00000000D+00  -5  6  0 0.00000000D+00 0.00000000D+00 0.00000000D+00 0.00000000D+00 0.00000000D+00
  <mgrwgt>
 0.1108582454D+00   15    2    0
 0.328426439627967D+03 0.000000000000000D+00 0.000000000000000D+00 0.328426439627967D+03
 0.328426439627967D+03 -.000000000000000D+00 -.000000000000000D+00 -.328426439627967D+03
 0.258042089069311D+03 -.197129035228678D+02 0.265235801844824D+02 0.223312831830483D+03
 0.106920469969422D+03 -.978926702654432D+01 -.194997375271677D+02 0.669977718403085D+02
 0.291890320217202D+03 0.295021705494121D+02 -.702384265731467D+01 -.290310603670791D+03
 0.000000000000000D+00 0.000000000000000D+00 0.000000000000000D+00 -.000000000000000D+00
 0.328426439627967D+03 0.000000000000000D+00 0.000000000000000D+00 0.328426439627967D+03
 0.328426439627967D+03 -.000000000000000D+00 -.000000000000000D+00 -.328426439627967D+03
 0.257795115085585D+03 -.196842372203151D+02 0.265167553443114D+02 0.223030746429846D+03
 0.106846687136179D+03 -.977738747626748D+01 -.195025657967638D+02 0.668808733427411D+02
 0.149533655602738D+03 0.252558576682610D+02 -.276997840569886D+01 -.147359366960471D+03
 0.142677421431432D+03 0.420576702832158D+01 -.424421114184871D+01 -.142552252812116D+03
0.458093601103D-03 0.000000000000D+00 0.000000000000D+00 0.115860204264D-03 0.000000000000D+00  6 -4 3 25 -24 21 21 2 0.81356218D-01 0.31380421D-01 0.14755904D+05 0.14755904D+05 0.14755904D+05 0.12486357D+01  1  2  2  3  6  5       21 0.191038244973D-02 0.100000000000D+01
0.102451041520D-03 0.241742634806D-04 -.175920004705D-05 0.115860204264D-03 0.000000000000D+00  6 -4 3 25 -24 21 21 4 0.81356218D-01 0.31380421D-01 0.14755904D+05 0.14755904D+05 0.14755904D+05 0.12486357D+01  1  2  3  3  6  5       21 0.666122250098D-03 0.100000000000D+01
0.983234538639D-05 0.000000000000D+00 0.000000000000D+00 0.115860204264D-03 0.000000000000D+00  6 -4 3 25 -24 21 21 4 0.81356218D-01 0.31380421D-01 0.14755904D+05 0.14755904D+05 0.14755904D+05 0.12486357D+01  1  2 15  3  6  5       21 0.639285256189D-04 0.100000000000D+01
0.869018846363D-02 0.000000000000D+00 0.000000000000D+00 0.115780916184D-03 0.000000000000D+00  6 -4 3 25 -24 21 21 4 0.81356218D-01 0.31380421D-01 0.14883622D+05 0.14883622D+05 0.14883622D+05 0.12482083D+01  1  2 12  3  6  5       21 0.564524110401D-01 0.100000000000D+01
-.361915587129D-02 0.000000000000D+00 0.000000000000D+00 0.115860204264D-03 0.000000000000D+00  6 -4 3 25 -24 21 21 4 0.81356218D-01 0.31380421D-01 0.14755904D+05 0.14755904D+05 0.14755904D+05 0.12486357D+01  1  2  4  3  6  5       21 -.235312420124D-01 0.100000000000D+01
-.176072101751D-01 0.000000000000D+00 0.000000000000D+00 0.115860204264D-03 0.000000000000D+00  6 -4 3 25 -24 21 21 4 0.81356218D-01 0.31380421D-01 0.14755904D+05 0.14755904D+05 0.14755904D+05 0.12486357D+01  1  2  5  3  6  5       21 -.114479602020D+00 0.100000000000D+01
0.299918404635D-01 0.000000000000D+00 -.000000000000D+00 0.115860204264D-03 0.000000000000D+00  6 -4 3 25 -24 21 21 4 0.81356218D-01 0.31380421D-01 0.14755904D+05 0.14755904D+05 0.14755904D+05 0.12486357D+01  1  2  6  3  6  5       21 0.195002724791D+00 0.100000000000D+01
0.299871654498D-03 0.000000000000D+00 0.000000000000D+00 0.115780916184D-03 0.000000000000D+00  6 -4 3 25 -24 3 -3 4 0.81356218D-01 0.31380421D-01 0.14883622D+05 0.14883622D+05 0.14883622D+05 0.12482083D+01  1  2 12  6  6  5       21 0.194799893809D-02 0.100000000000D+01
-.500567410162D-03 0.000000000000D+00 0.000000000000D+00 0.115860204264D-03 0.000000000000D+00  6 -4 3 25 -24 3 -3 4 0.81356218D-01 0.31380421D-01 0.14755904D+05 0.14755904D+05 0.14755904D+05 0.12486357D+01  1  2  5  6  6  5       21 -.325461883681D-02 0.100000000000D+01
0.299871654498D-03 0.000000000000D+00 0.000000000000D+00 0.115780916184D-03 0.000000000000D+00  6 -4 3 25 -24 4 -4 4 0.81356218D-01 0.31380421D-01 0.14883622D+05 0.14883622D+05 0.14883622D+05 0.12482083D+01  1  2 12  7  6  5       21 0.194799893809D-02 0.100000000000D+01
-.500567410162D-03 0.000000000000D+00 0.000000000000D+00 0.115860204264D-03 0.000000000000D+00  6 -4 3 25 -24 4 -4 4 0.81356218D-01 0.31380421D-01 0.14755904D+05 0.14755904D+05 0.14755904D+05 0.12486357D+01  1  2  5  7  6  5       21 -.325461883681D-02 0.100000000000D+01
0.299871654498D-03 0.000000000000D+00 0.000000000000D+00 0.115780916184D-03 0.000000000000D+00  6 -4 3 25 -24 1 -1 4 0.81356218D-01 0.31380421D-01 0.14883622D+05 0.14883622D+05 0.14883622D+05 0.12482083D+01  1  2 12  8  6  5       21 0.194799893809D-02 0.100000000000D+01
0.299871654498D-03 0.000000000000D+00 0.000000000000D+00 0.115780916184D-03 0.000000000000D+00  6 -4 3 25 -24 2 -2 4 0.81356218D-01 0.31380421D-01 0.14883622D+05 0.14883622D+05 0.14883622D+05 0.12482083D+01  1  2 12  8  6  5       21 0.194799893809D-02 0.100000000000D+01
-.500567410162D-03 0.000000000000D+00 0.000000000000D+00 0.115860204264D-03 0.000000000000D+00  6 -4 3 25 -24 1 -1 4 0.81356218D-01 0.31380421D-01 0.14755904D+05 0.14755904D+05 0.14755904D+05 0.12486357D+01  1  2  5  8  6  5       21 -.325461883681D-02 0.100000000000D+01
-.500567410162D-03 0.000000000000D+00 0.000000000000D+00 0.115860204264D-03 0.000000000000D+00  6 -4 3 25 -24 2 -2 4 0.81356218D-01 0.31380421D-01 0.14755904D+05 0.14755904D+05 0.14755904D+05 0.12486357D+01  1  2  5  8  6  5       21 -.325461883681D-02 0.100000000000D+01
  </mgrwgt>
  </event>
  <event>
  6     66 -.39191994E-03 0.19794872E+02 0.75467711E-02 0.12380532E+00
       -2 -1    0    0    0  501 0.00000000E+00 0.00000000E+00 0.49289115E+02 0.49290154E+02 0.32000000E+00 0.0000E+00 0.9000E+01
        1 -1    0    0  502    0 -.00000000E+00 -.00000000E+00 -.34122911E+03 0.34122926E+03 0.32000000E+00 0.0000E+00 0.9000E+01
       25  1    1    2    0    0 -.89261000E+01 -.31937818E+01 -.16255089E+03 0.20527462E+03 0.12500000E+03 0.0000E+00 0.9000E+01
      -24  1    1    2    0    0 -.15026776E+01 0.12076746E+02 -.48846101E+02 0.94874988E+02 0.80419002E+02 0.0000E+00 0.9000E+01
       21  1    1    2  503  501 0.21937981E+02 -.14483199E+02 -.65630530E+02 0.70703373E+02 0.75000000E+00 0.0000E+00 0.9000E+01
       21  1    1    2  502  503 -.11509203E+02 0.56002345E+01 -.14912471E+02 0.19666435E+02 0.75000000E+00 0.0000E+00 0.9000E+01
#aMCatNLO 2  0  0  5  1 0.11255681D+02 0.00000000D+00  -5  6  0 0.00000000D+00 0.00000000D+00 0.00000000D+00 0.00000000D+00 0.00000000D+00
  <mgrwgt>
 -.4151202682D+00    2    2    0
 0.129688522625058D+03 0.000000000000000D+00 0.000000000000000D+00 0.129688522625058D+03
 0.129688522625058D+03 -.000000000000000D+00 -.000000000000000D+00 -.129688522625058D+03
 0.125840620986409D+03 -.136927734293387D+02 0.866347799088999D+00 -.475597388017804D+01
 0.910056331825144D+02 -.488683551662132D+01 0.149592843800772D+02 0.395872197312377D+02
 0.425307910811922D+02 0.185796089459600D+02 -.158256321791662D+02 -.348312458510596D+02
 0.000000000000000D+00 -.000000000000000D+00 0.000000000000000D+00 0.000000000000000D+00
 0.129688522625058D+03 0.000000000000000D+00 0.000000000000000D+00 0.129688522625058D+03
 0.129688522625058D+03 -.000000000000000D+00 -.000000000000000D+00 -.129688522625058D+03
 0.126123540136013D+03 -.880479248733451D+01 -.329710842390933D+01 -.139194856850518D+02
 0.877948146379814D+02 -.141819466914872D+01 0.120047854789758D+02 0.330845488473267D+02
 0.322807494673141D+02 0.220793634908856D+02 -.144325297146477D+02 -.186078096519892D+02
 0.131779410088077D+02 -.118563763344024D+02 0.572485265958121D+01 -.557253510285803D+00
-.318244145966D-03 0.000000000000D+00 0.000000000000D+00 0.442004833464D-04 0.000000000000D+00  6 -2 1 25 -24 21 21 4 0.75830322D-02 0.52496877D-01 0.15156028D+05 0.15156028D+05 0.15156028D+05 0.12473105D+01  1  2 13  3  6  5       21 -.490708372257D+00 0.100000000000D+01
0.490219303076D-04 0.000000000000D+00 0.000000000000D+00 0.446183764685D-04 0.490305695359D-06  6 -2 1 25 -24 21 21 4 0.75830322D-02 0.52496877D-01 0.15156028D+05 0.15156028D+05 0.15156028D+05 0.12473105D+01  1  2  1  3  6  5       21 0.755881040737D-01 0.100000000000D+01
  </mgrwgt>
  </event>
  <event>
  6     66 0.39191994E-03 0.35125510E+02 0.75467711E-02 0.11399836E+00
       21 -1    0    0  503  501 0.00000000E+00 0.00000000E+00 0.25050404E+03 0.25050516E+03 0.75000000E+00 0.0000E+00 0.9000E+01
        1 -1    0    0  502    0 0.00000000E+00 0.00000000E+00 -.89392276E+03 0.89392282E+03 0.32000000E+00 0.0000E+00 0.9000E+01
       25  1    1    2    0    0 -.88725218E+01 0.17224325E+03 -.48244247E+03 0.52737292E+03 0.12500000E+03 0.0000E+00 0.9000E+01
      -24  1    1    2    0    0 0.35831537E+02 -.15048592E+03 -.34716328E+03 0.38848355E+03 0.80419002E+02 0.0000E+00 0.9000E+01
        2  1    1    2  503    0 -.27870567E+02 -.22213317E+02 0.20582738E+03 0.20889043E+03 0.32000000E+00 0.0000E+00 0.9000E+01
       21  1    1    2  502  501 0.91155207E+00 0.45599024E+00 -.19640355E+02 0.19681079E+02 0.75000000E+00 0.0000E+00 0.9000E+01
#aMCatNLO 2  0  0  1  1 0.22164272D+02 0.00000000D+00  -5  6  0 0.00000000D+00 0.00000000D+00 0.00000000D+00 0.00000000D+00 0.00000000D+00
  <mgrwgt>
 0.1942759782D+00    1    2    0
 0.195410695996758D+03 0.000000000000000D+00 0.000000000000000D+00 0.195410695996758D+03
 0.195410695996758D+03 0.000000000000000D+00 0.000000000000000D+00 -.195410695996758D+03
 0.204914849904919D+03 -.237546313639836D+02 0.160384116042926D+03 -.881751220278151D+01
 0.181564204809691D+03 0.231456877320575D+02 -.160594841332967D+03 0.131117729714177D+02
 0.000000000000000D+00 -.000000000000000D+00 -.000000000000000D+00 0.000000000000000D+00
 0.434233727890575D+01 0.608943631926023D+00 0.210725290041805D+00 -.429426076863621D+01
 0.113926463093786D+04 0.000000000000000D+00 0.000000000000000D+00 0.113926463093786D+04
 0.196558262233203D+03 0.000000000000000D+00 0.000000000000000D+00 -.196558262233203D+03
 0.213186948956412D+03 -.887749240245013D+01 0.172241449171046D+03 -.881751220278151D+01
 0.174840359506599D+03 0.358274801670544D+02 -.150487236775919D+03 0.131117729714177D+02
 0.943379826757363D+03 -.278705669841404D+02 -.222133165560276D+02 0.942706368704655D+03
 0.441575795068590D+01 0.920579219536092D+00 0.459104160900275D+00 -.429426076863621D+01
0.680481352691D-03 0.000000000000D+00 0.000000000000D+00 0.400876074271D-01 0.617680796623D-04  6 21 1 25 -24 2 21 4 0.38539168D-01 0.13752665D+00 0.44948477D+05 0.44948477D+05 0.44948477D+05 0.11968900D+01  1  2  1  4  5  1       -2 0.194275978153D+00 0.100000000000D+01
  </mgrwgt>
  </event>
  <event>
  6     66 -.39191994E-03 0.70488238E+01 0.75467711E-02 0.12291977E+00
       -2 -1    0    0    0  501 0.00000000E+00 0.00000000E+00 0.25190948E+02 0.25192980E+02 0.32000000E+00 0.0000E+00 0.9000E+01
        1 -1    0    0  502    0 -.00000000E+00 -.00000000E+00 -.83007379E+03 0.83007385E+03 0.32000000E+00 0.0000E+00 0.9000E+01
       25  1    1    2    0    0 -.41002411E+02 0.39671137E+02 -.60539040E+03 0.62078783E+03 0.12500000E+03 0.0000E+00 0.9000E+01
      -24  1    1    2    0    0 0.35267101E+02 -.44267000E+02 -.13995187E+03 0.17104701E+03 0.80419002E+02 0.0000E+00 0.9000E+01
       21  1    1    2  502  503 0.80115831E+01 -.60578516E+01 -.19746909E+02 0.22167227E+02 0.75000000E+00 0.0000E+00 0.9000E+01
       21  1    1    2  503  501 -.22762732E+01 0.10653714E+02 -.39793659E+02 0.41264765E+02 0.75000000E+00 0.0000E+00 0.9000E+01
#aMCatNLO 2  0  0  5  1 0.98299234D+01 0.00000000D+00  -5  6  0 0.00000000D+00 0.00000000D+00 0.00000000D+00 0.00000000D+00 0.00000000D+00
  <mgrwgt>
 -.1883554834D+00    3    2    0
 0.144607196198601D+03 0.000000000000000D+00 0.000000000000000D+00 0.144607196198601D+03
 0.144607196198601D+03 -.000000000000000D+00 -.000000000000000D+00 -.144607196198601D+03
 0.151768605501874D+03 -.470728215404181D+02 0.348067490660119D+02 -.630979342582859D+02
 0.116299412170715D+03 0.306028169629829D+02 -.480046196987522D+02 0.617847990883821D+02
 0.211463747246123D+02 0.164700045774352D+02 0.131978706327403D+02 0.131313516990380D+01
 0.000000000000000D+00 0.000000000000000D+00 0.000000000000000D+00 -.000000000000000D+00
 0.144607196198601D+03 0.000000000000000D+00 0.000000000000000D+00 0.144607196198601D+03
 0.144607196198601D+03 -.000000000000000D+00 -.000000000000000D+00 -.144607196198601D+03
 0.151010031406536D+03 -.411256545058224D+02 0.395723786555402D+02 -.626237732367936D+02
 0.116331925736404D+03 0.351721532878360D+02 -.443430840015785D+02 0.621491071978955D+02
 0.985735294435158D+01 0.627721216452840D+01 -.695989785022562D+01 0.305349577131493D+01
 0.120150823099098D+02 -.323710946542037D+00 0.117306031962640D+02 -.257882973241693D+01
-.721994824926D-04 0.000000000000D+00 0.000000000000D+00 0.386754492914D-04 0.000000000000D+00  6 -2 1 25 -24 21 21 4 0.38756915D-02 0.12770382D+00 0.16494220D+05 0.16494220D+05 0.16494220D+05 0.12431483D+01  1  2 13  3  6  5       21 -.919970636183D-01 0.100000000000D+01
-.730919408968D-04 0.000000000000D+00 0.000000000000D+00 0.386754492914D-04 0.000000000000D+00  6 -2 1 25 -24 21 21 4 0.38756915D-02 0.12770382D+00 0.16494220D+05 0.16494220D+05 0.16494220D+05 0.12431483D+01  1  2 13  3  6  5       21 -.931342400877D-01 0.100000000000D+01
-.253245861861D-05 0.000000000000D+00 0.000000000000D+00 0.386563703542D-04 0.000000000000D+00  6 -2 1 25 -24 21 21 4 0.38756915D-02 0.12770382D+00 0.16597943D+05 0.16597943D+05 0.16597943D+05 0.12428416D+01  1  2  8  3  6  5       21 -.322417966401D-02 0.100000000000D+01
  </mgrwgt>
  </event>
  <event>
  5     66 -.39191994E-03 0.21980804E+02 0.75467711E-02 0.11855449E+00
       -2 -1    0    0    0  501 0.00000000E+00 0.00000000E+00 0.12094226E+03 0.12094268E+03 0.32000000E+00 0.0000E+00 0.9000E+01
        1 -1    0    0  502    0 -.00000000E+00 -.00000000E+00 -.23567403E+03 0.23567425E+03 0.32000000E+00 0.0000E+00 0.9000E+01
       25  1    1    2    0    0 -.41347568E+02 0.10271402E+03 -.89342113E+02 0.18938533E+03 0.12500000E+03 0.0000E+00 0.9000E+01
      -24  1    1    2    0    0 0.60717768E+02 -.92343428E+02 -.42692657E+01 0.13674574E+03 0.80419002E+02 0.0000E+00 0.9000E+01
       21  1    1    2  502  501 -.19370200E+02 -.10370591E+02 -.21120393E+02 0.30485854E+02 0.75000000E+00 0.0000E+00 0.9000E+01
#aMCatNLO 1  0  0  5  2 0.29548785D+01 0.00000000D+00  -5  6  0 0.00000000D+00 0.00000000D+00 0.00000000D+00 0.00000000D+00 0.00000000D+00
  <mgrwgt>
 -.1239405276D+01   20    2    0
 0.168828504745618D+03 0.000000000000000D+00 0.000000000000000D+00 0.168828504745618D+03
 0.168828504745618D+03 -.000000000000000D+00 -.000000000000000D+00 -.168828504745618D+03
 0.169662092828515D+03 -.413431924449594D+02 0.102716361564383D+03 -.300052536797436D+02
 0.142974525921962D+03 0.607214547852466D+02 -.923414540476638D+02 0.419578348031167D+02
 0.250203907407595D+02 -.193782623402873D+02 -.103749075167189D+02 -.119525811233731D+02
 0.000000000000000D+00 0.000000000000000D+00 0.000000000000000D+00 -.000000000000000D+00
 0.168828504745618D+03 0.000000000000000D+00 0.000000000000000D+00 0.168828504745618D+03
 0.168828504745618D+03 -.000000000000000D+00 -.000000000000000D+00 -.168828504745618D+03
 0.169672408909499D+03 -.416836440269559D+02 0.102534087549556D+03 -.302152454262138D+02
 0.142900435762129D+03 0.604346387307044D+02 -.924950121937933D+02 0.417809256407159D+02
 0.178055527147757D+02 -.149860363014931D+02 -.766382721512597D+01 -.580707980534804D+01
 0.727861210483293D+01 -.376495840225540D+01 -.237524814063645D+01 -.575860040915412D+01
0.146842571063D-03 0.000000000000D+00 0.000000000000D+00 0.372397397393D-04 0.000000000000D+00  6 -2 1 25 -24 21 21 2 0.18606551D-01 0.36257593D-01 0.26511647D+05 0.26511647D+05 0.26511647D+05 0.12205735D+01  1  2  2  3  6  5       21 0.531975513314D-01 0.100000000000D+01
0.381217698911D-04 0.774909536939D-05 -.563914137421D-06 0.372397397393D-04 0.000000000000D+00  6 -2 1 25 -24 21 21 4 0.18606551D-01 0.36257593D-01 0.26511647D+05 0.26511647D+05 0.26511647D+05 0.12205735D+01  1  2  3  3  6  5       21 0.205750349526D-01 0.100000000000D+01
0.430857788491D-05 0.000000000000D+00 0.000000000000D+00 0.372397397393D-04 0.000000000000D+00  6 -2 1 25 -24 21 21 4 0.18606551D-01 0.36257593D-01 0.26511647D+05 0.26511647D+05 0.26511647D+05 0.12205735D+01  1  2 15  3  6  5       21 0.232542037873D-02 0.100000000000D+01
0.206220562595D-05 0.000000000000D+00 0.000000000000D+00 0.372527202241D-04 0.000000000000D+00  6 -2 1 25 -24 21 21 4 0.18606551D-01 0.36257593D-01 0.26390010D+05 0.26390010D+05 0.26390010D+05 0.12207862D+01  1  2 12  3  6  5       21 0.111368500673D-02 0.100000000000D+01
0.203999974986D-05 0.000000000000D+00 0.000000000000D+00 0.372527202241D-04 0.000000000000D+00  6 -2 1 25 -24 21 21 4 0.18606551D-01 0.36257593D-01 0.26390010D+05 0.26390010D+05 0.26390010D+05 0.12207862D+01  1  2 12  3  6  5       21 0.110169282179D-02 0.100000000000D+01
-.294212934882D-02 0.000000000000D+00 0.000000000000D+00 0.372397397393D-04 0.000000000000D+00  6 -2 1 25 -24 21 21 4 0.18606551D-01 0.36257593D-01 0.26511647D+05 0.26511647D+05 0.26511647D+05 0.12205735D+01  1  2  4  3  6  5       21 -.158792244851D+01 0.100000000000D+01
-.782354208056D-03 0.000000000000D+00 0.000000000000D+00 0.372397397393D-04 0.000000000000D+00  6 -2 1 25 -24 21 21 4 0.18606551D-01 0.36257593D-01 0.26511647D+05 0.26511647D+05 0.26511647D+05 0.12205735D+01  1  2  5  3  6  5       21 -.422251254915D+00 0.100000000000D+01
0.129973946143D-02 0.000000000000D+00 -.000000000000D+00 0.372397397393D-04 0.000000000000D+00  6 -2 1 25 -24 21 21 4 0.18606551D-01 0.36257593D-01 0.26511647D+05 0.26511647D+05 0.26511647D+05 0.12205735D+01  1  2  6  3  6  5       21 0.701493790154D+00 0.100000000000D+01
0.103779475203D-06 0.000000000000D+00 0.000000000000D+00 0.372527202241D-04 0.000000000000D+00  6 -2 1 25 -24 1 -1 4 0.18606551D-01 0.36257593D-01 0.26390010D+05 0.26390010D+05 0.26390010D+05 0.12207862D+01  1  2 12  6  6  5       21 0.560456455387D-04 0.100000000000D+01
0.102910729946D-06 0.000000000000D+00 0.000000000000D+00 0.372527202241D-04 0.000000000000D+00  6 -2 1 25 -24 1 -1 4 0.18606551D-01 0.36257593D-01 0.26390010D+05 0.26390010D+05 0.26390010D+05 0.12207862D+01  1  2 12  6  6  5       21 0.555764835139D-04 0.100000000000D+01
-.439360081073D-05 0.000000000000D+00 0.000000000000D+00 0.372397397393D-04 0.000000000000D+00  6 -2 1 25 -24 1 -1 4 0.18606551D-01 0.36257593D-01 0.26511647D+05 0.26511647D+05 0.26511647D+05 0.12205735D+01  1  2  5  6  6  5       21 -.237130884812D-02 0.100000000000D+01
0.103779475203D-06 0.000000000000D+00 0.000000000000D+00 0.372527202241D-04 0.000000000000D+00  6 -2 1 25 -24 2 -2 4 0.18606551D-01 0.36257593D-01 0.26390010D+05 0.26390010D+05 0.26390010D+05 0.12207862D+01  1  2 12  7  6  5       21 0.560456455387D-04 0.100000000000D+01
0.102910729946D-06 0.000000000000D+00 0.000000000000D+00 0.372527202241D-04 0.000000000000D+00  6 -2 1 25 -24 2 -2 4 0.18606551D-01 0.36257593D-01 0.26390010D+05 0.26390010D+05 0.26390010D+05 0.12207862D+01  1  2 12  7  6  5       21 0.555764835139D-04 0.100000000000D+01
-.439360081073D-05 0.000000000000D+00 0.000000000000D+00 0.372397397393D-04 0.000000000000D+00  6 -2 1 25 -24 2 -2 4 0.18606551D-01 0.36257593D-01 0.26511647D+05 0.26511647D+05 0.26511647D+05 0.12205735D+01  1  2  5  7  6  5       21 -.237130884812D-02 0.100000000000D+01
0.103779475203D-06 0.000000000000D+00 0.000000000000D+00 0.372527202241D-04 0.000000000000D+00  6 -2 1 25 -24 3 -3 4 0.18606551D-01 0.36257593D-01 0.26390010D+05 0.26390010D+05 0.26390010D+05 0.12207862D+01  1  2 12  8  6  5       21 0.560456455387D-04 0.100000000000D+01
0.103779475203D-06 0.000000000000D+00 0.000000000000D+00 0.372527202241D-04 0.000000000000D+00  6 -2 1 25 -24 4 -4 4 0.18606551D-01 0.36257593D-01 0.26390010D+05 0.26390010D+05 0.26390010D+05 0.12207862D+01  1  2 12  8  6  5       21 0.560456455387D-04 0.100000000000D+01
0.102910729946D-06 0.000000000000D+00 0.000000000000D+00 0.372527202241D-04 0.000000000000D+00  6 -2 1 25 -24 3 -3 4 0.18606551D-01 0.36257593D-01 0.26390010D+05 0.26390010D+05 0.26390010D+05 0.12207862D+01  1  2 12  8  6  5       21 0.555764835139D-04 0.100000000000D+01
0.102910729946D-06 0.000000000000D+00 0.000000000000D+00 0.372527202241D-04 0.000000000000D+00  6 -2 1 25 -24 4 -4 4 0.18606551D-01 0.36257593D-01 0.26390010D+05 0.26390010D+05 0.26390010D+05 0.12207862D+01  1  2 12  8  6  5       21 0.555764835139D-04 0.100000000000D+01
-.439360081073D-05 0.000000000000D+00 0.000000000000D+00 0.372397397393D-04 0.000000000000D+00  6 -2 1 25 -24 3 -3 4 0.18606551D-01 0.36257593D-01 0.26511647D+05 0.26511647D+05 0.26511647D+05 0.12205735D+01  1  2  5  8  6  5       21 -.237130884812D-02 0.100000000000D+01
-.439360081073D-05 0.000000000000D+00 0.000000000000D+00 0.372397397393D-04 0.000000000000D+00  6 -2 1 25 -24 4 -4 4 0.18606551D-01 0.36257593D-01 0.26511647D+05 0.26511647D+05 0.26511647D+05 0.12205735D+01  1  2  5  8  6  5       21 -.237130884812D-02 0.100000000000D+01
  </mgrwgt>
  </event>
  <event>
  5     66 0.39191994E-03 0.22142416E+02 0.75467711E-02 0.12094786E+00
       -2 -1    0    0    0  501 0.00000000E+00 0.00000000E+00 0.14178093E+03 0.14178129E+03 0.32000000E+00 0.0000E+00 0.9000E+01
        1 -1    0    0  502    0 -.00000000E+00 -.00000000E+00 -.32146032E+03 0.32146048E+03 0.32000000E+00 0.0000E+00 0.9000E+01
       25  1    1    2    0    0 0.10535502E+02 0.62720287E+02 0.57077599E+02 0.15141890E+03 0.12500000E+03 0.0000E+00 0.9000E+01
      -24  1    1    2    0    0 -.24245504E+02 -.80107331E+02 -.54507076E+02 0.12823130E+03 0.80419002E+02 0.0000E+00 0.9000E+01
       21  1    1    2  502  501 0.13710002E+02 0.17387045E+02 -.18224991E+03 0.18359157E+03 0.75000000E+00 0.0000E+00 0.9000E+01
#aMCatNLO 1  0  0  5  1 0.63383655D+01 0.00000000D+00  -5  6  0 0.00000000D+00 0.00000000D+00 0.00000000D+00 0.00000000D+00 0.00000000D+00
  <mgrwgt>
 0.1649271121D+00   18    2    0
 0.213487855639938D+03 0.000000000000000D+00 0.000000000000000D+00 0.213487855639938D+03
 0.213487855639938D+03 -.000000000000000D+00 -.000000000000000D+00 -.213487855639938D+03
 0.188299911117695D+03 0.105353882244595D+02 0.627201428834195D+02 0.125646511286924D+03
 0.116185337980766D+03 -.242455736065075D+02 -.801074199100114D+02 -.517399682903141D+01
 0.122490462181416D+03 0.137101853820480D+02 0.173872770265919D+02 -.120472514457893D+03
 0.000000000000000D+00 0.000000000000000D+00 0.000000000000000D+00 0.000000000000000D+00
 0.213487855639938D+03 0.000000000000000D+00 0.000000000000000D+00 0.213487855639938D+03
 0.213487855639938D+03 -.000000000000000D+00 -.000000000000000D+00 -.213487855639938D+03
 0.187497792973982D+03 0.106849059291433D+02 0.629097614537943D+02 0.124332687050615D+03
 0.116124317263324D+03 -.241531451375472D+02 -.799902019913493D+02 -.598617330606994D+01
 0.847369482106713D+01 -.526570312936756D+01 0.310203957301533D+01 -.586968695599680D+01
 0.114879906221504D+03 0.187339423377715D+02 0.139784009645397D+02 -.112476826788548D+03
0.754445410330D-03 0.000000000000D+00 0.000000000000D+00 0.502439234699D-04 0.000000000000D+00  6 -2 1 25 -24 21 21 2 0.21812491D-01 0.49455474D-01 0.19385215D+05 0.19385215D+05 0.19385215D+05 0.12353216D+01  1  2  2  3  6  5       21 0.144631705698D+00 0.100000000000D+01
0.149943885440D-03 0.398131781084D-04 -.289726902571D-05 0.502439234699D-04 0.000000000000D+00  6 -2 1 25 -24 21 21 4 0.21812491D-01 0.49455474D-01 0.19385215D+05 0.19385215D+05 0.19385215D+05 0.12353216D+01  1  2  3  3  6  5       21 0.438656457268D-01 0.100000000000D+01
0.254812264545D-04 0.000000000000D+00 0.000000000000D+00 0.502439234699D-04 0.000000000000D+00  6 -2 1 25 -24 21 21 4 0.21812491D-01 0.49455474D-01 0.19385215D+05 0.19385215D+05 0.19385215D+05 0.12353216D+01  1  2 15  3  6  5       21 0.745445837326D-02 0.100000000000D+01
0.192454976790D-04 0.000000000000D+00 0.000000000000D+00 0.500416364727D-04 0.000000000000D+00  6 -2 1 25 -24 21 21 4 0.21812491D-01 0.49455474D-01 0.20420550D+05 0.20420550D+05 0.20420550D+05 0.12328323D+01  1  2 12  3  6  5       21 0.558860940876D-02 0.100000000000D+01
-.300933985086D-04 0.000000000000D+00 0.000000000000D+00 0.502439234699D-04 0.000000000000D+00  6 -2 1 25 -24 21 21 4 0.21812491D-01 0.49455474D-01 0.19385215D+05 0.19385215D+05 0.19385215D+05 0.12353216D+01  1  2  5  3  6  5       21 -.880373583638D-02 0.100000000000D+01
0.113748433063D-05 0.000000000000D+00 0.000000000000D+00 0.502439234699D-04 0.406287863367D-05  6 -2 1 25 -24 21 21 4 0.21812491D-01 0.49455474D-01 0.20420550D+05 0.20420550D+05 0.20420550D+05 0.12328323D+01  1  2 11  3  6  5       21 0.330308716278D-03 0.100000000000D+01
0.226436004886D-04 0.000000000000D+00 0.000000000000D+00 0.500416364727D-04 0.000000000000D+00  6 -2 1 25 -24 1 -1 4 0.21812491D-01 0.49455474D-01 0.20420550D+05 0.20420550D+05 0.20420550D+05 0.12328323D+01  1  2 12  6  6  5       21 0.657536847576D-02 0.100000000000D+01
-.499812429742D-04 0.000000000000D+00 0.000000000000D+00 0.502439234699D-04 0.000000000000D+00  6 -2 1 25 -24 1 -1 4 0.21812491D-01 0.49455474D-01 0.19385215D+05 0.19385215D+05 0.19385215D+05 0.12353216D+01  1  2  5  6  6  5       21 -.146218666460D-01 0.100000000000D+01
0.297233587200D-05 0.000000000000D+00 0.000000000000D+00 0.502439234699D-04 0.603180420794D-07  6 -2 1 25 -24 1 -1 4 0.21812491D-01 0.49455474D-01 0.20420550D+05 0.20420550D+05 0.20420550D+05 0.12328323D+01  1  2 11  6  6  5       21 0.863122611706D-03 0.100000000000D+01
0.226436004886D-04 0.000000000000D+00 0.000000000000D+00 0.500416364727D-04 0.000000000000D+00  6 -2 1 25 -24 2 -2 4 0.21812491D-01 0.49455474D-01 0.20420550D+05 0.20420550D+05 0.20420550D+05 0.12328323D+01  1  2 12  7  6  5       21 0.657536847576D-02 0.100000000000D+01
-.499812429742D-04 0.000000000000D+00 0.000000000000D+00 0.502439234699D-04 0.000000000000D+00  6 -2 1 25 -24 2 -2 4 0.21812491D-01 0.49455474D-01 0.19385215D+05 0.19385215D+05 0.19385215D+05 0.12353216D+01  1  2  5  7  6  5       21 -.146218666460D-01 0.100000000000D+01
0.365313485643D-05 0.000000000000D+00 0.000000000000D+00 0.502439234699D-04 0.481779826427D-07  6 -2 1 25 -24 2 -2 4 0.21812491D-01 0.49455474D-01 0.20420550D+05 0.20420550D+05 0.20420550D+05 0.12328323D+01  1  2 11  7  6  5       21 0.106081662167D-02 0.100000000000D+01
0.226436004886D-04 0.000000000000D+00 0.000000000000D+00 0.500416364727D-04 0.000000000000D+00  6 -2 1 25 -24 3 -3 4 0.21812491D-01 0.49455474D-01 0.20420550D+05 0.20420550D+05 0.20420550D+05 0.12328323D+01  1  2 12  8  6  5       21 0.657536847576D-02 0.100000000000D+01
0.226436004886D-04 0.000000000000D+00 0.000000000000D+00 0.500416364727D-04 0.000000000000D+00  6 -2 1 25 -24 4 -4 4 0.21812491D-01 0.49455474D-01 0.20420550D+05 0.20420550D+05 0.20420550D+05 0.12328323D+01  1  2 12  8  6  5       21 0.657536847576D-02 0.100000000000D+01
-.499812429742D-04 0.000000000000D+00 0.000000000000D+00 0.502439234699D-04 0.000000000000D+00  6 -2 1 25 -24 3 -3 4 0.21812491D-01 0.49455474D-01 0.19385215D+05 0.19385215D+05 0.19385215D+05 0.12353216D+01  1  2  5  8  6  5       21 -.146218666460D-01 0.100000000000D+01
-.499812429742D-04 0.000000000000D+00 0.000000000000D+00 0.502439234699D-04 0.000000000000D+00  6 -2 1 25 -24 4 -4 4 0.21812491D-01 0.49455474D-01 0.19385215D+05 0.19385215D+05 0.19385215D+05 0.12353216D+01  1  2  5  8  6  5       21 -.146218666460D-01 0.100000000000D+01
0.365406508533D-05 0.000000000000D+00 0.000000000000D+00 0.502439234699D-04 0.481583883802D-07  6 -2 1 25 -24 3 -3 4 0.21812491D-01 0.49455474D-01 0.20420550D+05 0.20420550D+05 0.20420550D+05 0.12328323D+01  1  2 11  8  6  5       21 0.106108674646D-02 0.100000000000D+01
0.365406508533D-05 0.000000000000D+00 0.000000000000D+00 0.502439234699D-04 0.481583883802D-07  6 -2 1 25 -24 4 -4 4 0.21812491D-01 0.49455474D-01 0.20420550D+05 0.20420550D+05 0.20420550D+05 0.12328323D+01  1  2 11  8  6  5       21 0.106108674646D-02 0.100000000000D+01
  </mgrwgt>
  </event>
  <event>
  5     66 0.39191994E-03 0.31012213E+02 0.75467711E-02 0.11642316E+00
       -2 -1    0    0    0  501 0.00000000E+00 0.00000000E+00 0.65520119E+02 0.65520901E+02 0.32000000E+00 0.0000E+00 0.9000E+01
        1 -1    0    0  502    0 -.00000000E+00 -.00000000E+00 -.53153252E+03 0.53153262E+03 0.32000000E+00 0.0000E+00 0.9000E+01
       25  1    1    2    0    0 -.22657534E+02 0.13511298E+03 -.21242560E+03 0.28199028E+03 0.12500000E+03 0.0000E+00 0.9000E+01
      -24  1    1    2    0    0 -.76475886E+01 -.12856178E+03 -.23202835E+03 0.27729225E+03 0.80419002E+02 0.0000E+00 0.9000E+01
       21  1    1    2  502  501 0.30305122E+02 -.65512001E+01 -.21558447E+02 0.37770991E+02 0.75000000E+00 0.0000E+00 0.9000E+01
#aMCatNLO 1  0  0  5  1 0.11688390D+01 0.00000000D+00  -5  6  0 0.00000000D+00 0.00000000D+00 0.00000000D+00 0.00000000D+00 0.00000000D+00
  <mgrwgt>
 0.1827469988D+00   19    2    0
 0.186618156715256D+03 0.000000000000000D+00 0.000000000000000D+00 0.186618156715256D+03
 0.186618156715256D+03 -.000000000000000D+00 -.000000000000000D+00 -.186618156715256D+03
 0.185862620507744D+03 -.226613164007708D+02 0.135113800506482D+03 0.122735224644109D+02
 0.153870740311233D+03 -.765072015330450D+01 -.128561105718629D+03 -.249498967351710D+02
 0.335029526115348D+02 0.303120365540754D+02 -.655269478785310D+01 0.126763742707600D+02
 0.000000000000000D+00 0.000000000000000D+00 0.000000000000000D+00 0.000000000000000D+00
 0.186618156715256D+03 0.000000000000000D+00 0.000000000000000D+00 0.186618156715256D+03
 0.186618156715256D+03 -.000000000000000D+00 -.000000000000000D+00 -.186618156715256D+03
 0.185716196976128D+03 -.220747525328064D+02 0.134987000250304D+03 0.125188211631888D+02
 0.153902323569272D+03 -.716487825298452D+01 -.128666132435731D+03 -.247467195664615D+02
 0.117358940518189D+01 0.155037785148450D+00 -.632372598257161D+00 -.976411938735466D+00
 0.324442034799304D+02 0.290845930006425D+02 -.568849521631538D+01 0.132043103420082D+02
0.675805796388D-03 0.000000000000D+00 0.000000000000D+00 0.185201323729D-04 0.000000000000D+00  6 -2 1 25 -24 21 21 2 0.10080086D-01 0.81774302D-01 0.33911889D+05 0.33911889D+05 0.33911889D+05 0.12093510D+01  1  2  2  3  6  5       21 0.233607974703D+00 0.100000000000D+01
0.133787860868D-03 0.356632516679D-04 -.259527220188D-05 0.185201323729D-04 0.000000000000D+00  6 -2 1 25 -24 21 21 4 0.10080086D-01 0.81774302D-01 0.33911889D+05 0.33911889D+05 0.33911889D+05 0.12093510D+01  1  2  3  3  6  5       21 0.676374479252D-01 0.100000000000D+01
0.228493742104D-05 0.000000000000D+00 0.000000000000D+00 0.185201323729D-04 0.000000000000D+00  6 -2 1 25 -24 21 21 4 0.10080086D-01 0.81774302D-01 0.33911889D+05 0.33911889D+05 0.33911889D+05 0.12093510D+01  1  2 15  3  6  5       21 0.115516710429D-02 0.100000000000D+01
0.109493301396D-09 0.000000000000D+00 0.000000000000D+00 0.185262955968D-04 0.000000000000D+00  6 -2 1 25 -24 21 21 4 0.10080086D-01 0.81774302D-01 0.33760436D+05 0.33760436D+05 0.33760436D+05 0.12095522D+01  1  2 12  3  6  5       21 0.553883604860D-07 0.100000000000D+01
0.128002734259D-09 0.000000000000D+00 0.000000000000D+00 0.185262955968D-04 0.000000000000D+00  6 -2 1 25 -24 21 21 4 0.10080086D-01 0.81774302D-01 0.33760436D+05 0.33760436D+05 0.33760436D+05 0.12095522D+01  1  2 12  3  6  5       21 0.647515555555D-07 0.100000000000D+01
-.298305407682D-03 0.000000000000D+00 0.000000000000D+00 0.185201323729D-04 0.000000000000D+00  6 -2 1 25 -24 21 21 4 0.10080086D-01 0.81774302D-01 0.33911889D+05 0.33911889D+05 0.33911889D+05 0.12093510D+01  1  2  4  3  6  5       21 -.150810517090D+00 0.100000000000D+01
0.731202944675D-05 0.000000000000D+00 0.000000000000D+00 0.185201323729D-04 0.222573039383D-03  6 -2 1 25 -24 21 21 4 0.10080086D-01 0.81774302D-01 0.33760436D+05 0.33760436D+05 0.33760436D+05 0.12095522D+01  1  2 11  3  6  5       21 0.369886849438D-02 0.100000000000D+01
0.283086831990D-09 0.000000000000D+00 0.000000000000D+00 0.185262955968D-04 0.000000000000D+00  6 -2 1 25 -24 1 -1 4 0.10080086D-01 0.81774302D-01 0.33760436D+05 0.33760436D+05 0.33760436D+05 0.12095522D+01  1  2 12  6  6  5       21 0.143202509186D-06 0.100000000000D+01
0.286519818520D-09 0.000000000000D+00 0.000000000000D+00 0.185262955968D-04 0.000000000000D+00  6 -2 1 25 -24 1 -1 4 0.10080086D-01 0.81774302D-01 0.33760436D+05 0.33760436D+05 0.33760436D+05 0.12095522D+01  1  2 12  6  6  5       21 0.144939122231D-06 0.100000000000D+01
0.709689197828D-05 0.000000000000D+00 0.000000000000D+00 0.185262955968D-04 0.289005981357D-06  6 -2 1 25 -24 1 -1 4 0.10080086D-01 0.81774302D-01 0.33760436D+05 0.33760436D+05 0.33760436D+05 0.12095522D+01  1  2 11  6  6  5       21 0.359003889927D-02 0.100000000000D+01
0.283086831990D-09 0.000000000000D+00 0.000000000000D+00 0.185262955968D-04 0.000000000000D+00  6 -2 1 25 -24 2 -2 4 0.10080086D-01 0.81774302D-01 0.33760436D+05 0.33760436D+05 0.33760436D+05 0.12095522D+01  1  2 12  7  6  5       21 0.143202509186D-06 0.100000000000D+01
0.286519818520D-09 0.000000000000D+00 0.000000000000D+00 0.185262955968D-04 0.000000000000D+00  6 -2 1 25 -24 2 -2 4 0.10080086D-01 0.81774302D-01 0.33760436D+05 0.33760436D+05 0.33760436D+05 0.12095522D+01  1  2 12  7  6  5       21 0.144939122231D-06 0.100000000000D+01
0.157633124659D-04 0.000000000000D+00 0.000000000000D+00 0.185262955968D-04 0.284763537980D-06  6 -2 1 25 -24 2 -2 4 0.10080086D-01 0.81774302D-01 0.33760436D+05 0.33760436D+05 0.33760436D+05 0.12095522D+01  1  2 11  7  6  5       21 0.797404062330D-02 0.100000000000D+01
0.283086831990D-09 0.000000000000D+00 0.000000000000D+00 0.185262955968D-04 0.000000000000D+00  6 -2 1 25 -24 3 -3 4 0.10080086D-01 0.81774302D-01 0.33760436D+05 0.33760436D+05 0.33760436D+05 0.12095522D+01  1  2 12  8  6  5       21 0.143202509186D-06 0.100000000000D+01
0.283086831990D-09 0.000000000000D+00 0.000000000000D+00 0.185262955968D-04 0.000000000000D+00  6 -2 1 25 -24 4 -4 4 0.10080086D-01 0.81774302D-01 0.33760436D+05 0.33760436D+05 0.33760436D+05 0.12095522D+01  1  2 12  8  6  5       21 0.143202509186D-06 0.100000000000D+01
0.286519818520D-09 0.000000000000D+00 0.000000000000D+00 0.185262955968D-04 0.000000000000D+00  6 -2 1 25 -24 3 -3 4 0.10080086D-01 0.81774302D-01 0.33760436D+05 0.33760436D+05 0.33760436D+05 0.12095522D+01  1  2 12  8  6  5       21 0.144939122231D-06 0.100000000000D+01
0.286519818520D-09 0.000000000000D+00 0.000000000000D+00 0.185262955968D-04 0.000000000000D+00  6 -2 1 25 -24 4 -4 4 0.10080086D-01 0.81774302D-01 0.33760436D+05 0.33760436D+05 0.33760436D+05 0.12095522D+01  1  2 12  8  6  5       21 0.144939122231D-06 0.100000000000D+01
0.157085782357D-04 0.000000000000D+00 0.000000000000D+00 0.185262955968D-04 0.283405117131D-06  6 -2 1 25 -24 3 -3 4 0.10080086D-01 0.81774302D-01 0.33760436D+05 0.33760436D+05 0.33760436D+05 0.12095522D+01  1  2 11  8  6  5       21 0.794635272610D-02 0.100000000000D+01
0.157085782357D-04 0.000000000000D+00 0.000000000000D+00 0.185262955968D-04 0.283405117131D-06  6 -2 1 25 -24 4 -4 4 0.10080086D-01 0.81774302D-01 0.33760436D+05 0.33760436D+05 0.33760436D+05 0.12095522D+01  1  2 11  8  6  5       21 0.794635272610D-02 0.100000000000D+01
  </mgrwgt>
  </event>
  <event>
  6     66 0.39191994E-03 0.43834501E+02 0.75467711E-02 0.11661021E+00
       -2 -1    0    0    0  501 0.00000000E+00 0.00000000E+00 0.27468322E+03 0.27468340E+03 0.32000000E+00 0.0000E+00 0.9000E+01
       21 -1    0    0  502  503 0.00000000E+00 0.00000000E+00 -.29835649E+03 0.29835743E+03 0.75000000E+00 0.0000E+00 0.9000E+01
       25  1    1    2    0    0 -.81380314E+02 0.29727832E+01 0.81875893E+02 0.17017713E+03 0.12500000E+03 0.0000E+00 0.9000E+01
      -24  1    1    2    0    0 -.20891793E+02 -.51858953E+02 0.38622900E+02 0.10528420E+03 0.80419002E+02 0.0000E+00 0.9000E+01
       -1  1    1    2    0  503 0.54618606E+02 0.40548575E+02 -.20722366E+03 0.21810348E+03 0.32000000E+00 0.0000E+00 0.9000E+01
       21  1    1    2  502  501 0.47653502E+02 0.83375953E+01 0.63051603E+02 0.79476027E+02 0.75000000E+00 0.0000E+00 0.9000E+01
#aMCatNLO 2  0  0  2  2 0.68024841D+02 0.00000000D+00  -5  6  0 0.00000000D+00 0.00000000D+00 0.00000000D+00 0.00000000D+00 0.00000000D+00
  <mgrwgt>
 0.1300277305D-01    1    2    0
 0.148039181999202D+03 0.000000000000000D+00 0.000000000000000D+00 0.148039181999202D+03
 0.148039181999202D+03 0.000000000000000D+00 0.000000000000000D+00 -.148039181999202D+03
 0.138644800358137D+03 -.551592887486323D+02 0.224399535849699D+02 -.716114615108006D+01
 0.913144869257394D+02 -.350340576112411D+01 -.389493664538692D+02 -.184876328678289D+02
 0.000000000000000D+00 0.000000000000000D+00 0.000000000000000D+00 -.000000000000000D+00
 0.661190767145278D+02 0.586626945097564D+02 0.165094128688993D+02 0.256487790189090D+02
 0.154965065695105D+03 0.000000000000000D+00 0.000000000000000D+00 0.154965065695105D+03
 0.528853216757368D+03 0.000000000000000D+00 0.000000000000000D+00 -.528853216757368D+03
 0.149359247067318D+03 -.813822393688927D+02 0.297216850519756D+01 -.716114615108006D+01
 0.996740602968446D+02 -.208930337459509D+02 -.518593377659550D+02 -.184876328678289D+02
 0.380025957648448D+03 0.546186055078939D+02 0.405485747497468D+02 -.373888151062263D+03
 0.547590174398626D+02 0.476566676069497D+02 0.833859451101061D+01 0.256487790189090D+02
0.306497068612D-04 0.000000000000D+00 0.000000000000D+00 0.720347485062D-05 0.625545852219D-08  6 -2 21 25 -24 -1 21 4 0.42259026D-01 0.45901065D-01 0.33039878D+05 0.33039878D+05 0.33039878D+05 0.12105235D+01  1  2  1  5  5  2        1 0.130027730464D-01 0.100000000000D+01
  </mgrwgt>
  </event>
  <event>
  5     66 -.39191994E-03 0.25389029E+02 0.75467711E-02 0.11889142E+00
       -2 -1    0    0    0  501 0.00000000E+00 0.00000000E+00 0.22206516E+03 0.22206539E+03 0.32000000E+00 0.0000E+00 0.9000E+01
        1 -1    0    0  502    0 0.00000000E+00 0.00000000E+00 -.19631986E+03 0.19632012E+03 0.32000000E+00 0.0000E+00 0.9000E+01
       25  1    1    2    0    0 0.91076459E+02 -.15247769E+02 -.12188881E+03 0.19750772E+03 0.12500000E+03 0.0000E+00 0.9000E+01
      -24  1    1    2    0    0 -.11312069E+03 0.26631402E+01 0.12231390E+03 0.18501699E+03 0.80419002E+02 0.0000E+00 0.9000E+01
       21  1    1    2  502  501 0.22044232E+02 0.12584629E+02 0.25320218E+02 0.35860800E+02 0.75000000E+00 0.0000E+00 0.9000E+01
#aMCatNLO 1  0  0  5  1 0.41082713D+00 0.00000000D+00  -5  6  0 0.00000000D+00 0.00000000D+00 0.00000000D+00 0.00000000D+00 0.00000000D+00
  <mgrwgt>
 -.3759135106D+00   15    2    0
 0.208796320324272D+03 0.000000000000000D+00 0.000000000000000D+00 0.208796320324272D+03
 0.208796320324272D+03 -.000000000000000D+00 -.000000000000000D+00 -.208796320324272D+03
 0.205398109094318D+03 0.910738757472921D+02 -.152492437867940D+02 -.134299638643665D+03
 0.177827352132153D+03 -.113122926578433D+03 0.266186369110203D+01 0.111137163793138D+03
 0.343671794220729D+02 0.220490508311409D+02 0.125873800956920D+02 0.231624748505270D+02
 0.000000000000000D+00 0.000000000000000D+00 0.000000000000000D+00 0.000000000000000D+00
 0.208796320324272D+03 0.000000000000000D+00 0.000000000000000D+00 0.208796320324272D+03
 0.208796320324272D+03 -.000000000000000D+00 -.000000000000000D+00 -.208796320324272D+03
 0.205396445500300D+03 0.910796962370274D+02 -.152459209808736D+02 -.134293524233201D+03
 0.177827498131603D+03 -.113117887355342D+03 0.266474048688440D+01 0.111142457484871D+03
 0.544288121584512D+01 0.353340998250280D+01 0.232345879338758D+01 0.342658854559153D+01
 0.289258158007960D+02 0.185047811358115D+02 0.102577217006016D+02 0.197244782027384D+02
0.123034067176D-03 0.000000000000D+00 0.000000000000D+00 0.169339728974D-04 0.000000000000D+00  6 -2 1 25 -24 21 21 2 0.34163909D-01 0.30203093D-01 0.25538999D+05 0.25538999D+05 0.25538999D+05 0.12223057D+01  1  2  2  3  6  5       21 0.192725644647D-01 0.100000000000D+01
0.204260792393D-04 0.649268610136D-05 -.472483213570D-06 0.169339728974D-04 0.000000000000D+00  6 -2 1 25 -24 21 21 4 0.34163909D-01 0.30203093D-01 0.25538999D+05 0.25538999D+05 0.25538999D+05 0.12223057D+01  1  2  3  3  6  5       21 0.478034018301D-02 0.100000000000D+01
0.287023797197D-05 0.000000000000D+00 0.000000000000D+00 0.169339728974D-04 0.000000000000D+00  6 -2 1 25 -24 21 21 4 0.34163909D-01 0.30203093D-01 0.25538999D+05 0.25538999D+05 0.25538999D+05 0.12223057D+01  1  2 15  3  6  5       21 0.671725285675D-03 0.100000000000D+01
-.237837563025D-01 0.000000000000D+00 0.000000000000D+00 0.169339728974D-04 0.000000000000D+00  6 -2 1 25 -24 21 21 4 0.34163909D-01 0.30203093D-01 0.25538999D+05 0.25538999D+05 0.25538999D+05 0.12223057D+01  1  2  4  3  6  5       21 -.556614143241D+01 0.100000000000D+01
-.168349793890D-02 0.000000000000D+00 0.000000000000D+00 0.169339728974D-04 0.000000000000D+00  6 -2 1 25 -24 21 21 4 0.34163909D-01 0.30203093D-01 0.25538999D+05 0.25538999D+05 0.25538999D+05 0.12223057D+01  1  2  5  3  6  5       21 -.393991071465D+00 0.100000000000D+01
0.222099140570D-01 0.000000000000D+00 -.000000000000D+00 0.169339728974D-04 0.000000000000D+00  6 -2 1 25 -24 21 21 4 0.34163909D-01 0.30203093D-01 0.25538999D+05 0.25538999D+05 0.25538999D+05 0.12223057D+01  1  2  6  3  6  5       21 0.519781321633D+01 0.100000000000D+01
0.160743430906D-02 0.000000000000D+00 0.000000000000D+00 0.169339728974D-04 0.645957028559D-03  6 -2 1 25 -24 21 21 4 0.34163909D-01 0.30203093D-01 0.25538452D+05 0.25538452D+05 0.25538452D+05 0.12223067D+01  1  2 11  3  6  5       21 0.376190924544D+00 0.100000000000D+01
-.564927586823D-03 0.000000000000D+00 0.000000000000D+00 0.169339728974D-04 0.000000000000D+00  6 -2 1 25 -24 1 -1 4 0.34163909D-01 0.30203093D-01 0.25538999D+05 0.25538999D+05 0.25538999D+05 0.12223057D+01  1  2  5  6  6  5       21 -.132210690664D+00 0.100000000000D+01
0.548983044110D-03 0.000000000000D+00 0.000000000000D+00 0.169339728974D-04 0.136093585914D-04  6 -2 1 25 -24 1 -1 4 0.34163909D-01 0.30203093D-01 0.25538452D+05 0.25538452D+05 0.25538452D+05 0.12223067D+01  1  2 11  6  6  5       21 0.128479551393D+00 0.100000000000D+01
-.564927586823D-03 0.000000000000D+00 0.000000000000D+00 0.169339728974D-04 0.000000000000D+00  6 -2 1 25 -24 2 -2 4 0.34163909D-01 0.30203093D-01 0.25538999D+05 0.25538999D+05 0.25538999D+05 0.12223057D+01  1  2  5  7  6  5       21 -.132210690664D+00 0.100000000000D+01
0.549841202834D-03 0.000000000000D+00 0.000000000000D+00 0.169339728974D-04 0.136306278280D-04  6 -2 1 25 -24 2 -2 4 0.34163909D-01 0.30203093D-01 0.25538452D+05 0.25538452D+05 0.25538452D+05 0.12223067D+01  1  2 11  7  6  5       21 0.128680387920D+00 0.100000000000D+01
-.564927586823D-03 0.000000000000D+00 0.000000000000D+00 0.169339728974D-04 0.000000000000D+00  6 -2 1 25 -24 3 -3 4 0.34163909D-01 0.30203093D-01 0.25538999D+05 0.25538999D+05 0.25538999D+05 0.12223057D+01  1  2  5  8  6  5       21 -.132210690664D+00 0.100000000000D+01
-.564927586823D-03 0.000000000000D+00 0.000000000000D+00 0.169339728974D-04 0.000000000000D+00  6 -2 1 25 -24 4 -4 4 0.34163909D-01 0.30203093D-01 0.25538999D+05 0.25538999D+05 0.25538999D+05 0.12223057D+01  1  2  5  8  6  5       21 -.132210690664D+00 0.100000000000D+01
0.549440124937D-03 0.000000000000D+00 0.000000000000D+00 0.169339728974D-04 0.136206034584D-04  6 -2 1 25 -24 3 -3 4 0.34163909D-01 0.30203093D-01 0.25538452D+05 0.25538452D+05 0.25538452D+05 0.12223067D+01  1  2 11  8  6  5       21 0.128586522893D+00 0.100000000000D+01
0.549440124937D-03 0.000000000000D+00 0.000000000000D+00 0.169339728974D-04 0.136206034584D-04  6 -2 1 25 -24 4 -4 4 0.34163909D-01 0.30203093D-01 0.25538452D+05 0.25538452D+05 0.25538452D+05 0.12223067D+01  1  2 11  8  6  5       21 0.128586522893D+00 0.100000000000D+01
  </mgrwgt>
  </event>
  <event>
  5     66 0.39191994E-03 0.10910418E+03 0.75467711E-02 0.11608390E+00
       -2 -1    0    0    0  501 0.00000000E+00 0.00000000E+00 0.31646123E+02 0.31647741E+02 0.32000000E+00 0.0000E+00 0.9000E+01
        1 -1    0    0  502    0 -.00000000E+00 -.00000000E+00 -.12660211E+04 0.12660211E+04 0.32000000E+00 0.0000E+00 0.9000E+01
       25  1    1    2    0    0 0.19767132E+02 -.15831580E+02 -.57066498E+03 0.58474345E+03 0.12500000E+03 0.0000E+00 0.9000E+01
      -24  1    1    2    0    0 -.12526899E+03 -.11966227E+02 -.42465288E+03 0.45014753E+03 0.80419002E+02 0.0000E+00 0.9000E+01
       21  1    1    2  502  501 0.10550186E+03 0.27797806E+02 -.23905707E+03 0.26277786E+03 0.75000000E+00 0.0000E+00 0.9000E+01
#aMCatNLO 1  0  0  5  2 0.41032509D+02 0.00000000D+00  -5  6  0 0.00000000D+00 0.00000000D+00 0.00000000D+00 0.00000000D+00 0.00000000D+00
  <mgrwgt>
 0.2333205149D-01    4    2    0
 0.200164267866339D+03 0.000000000000000D+00 0.000000000000000D+00 0.200164267866339D+03
 0.200164267866339D+03 -.000000000000000D+00 -.000000000000000D+00 -.200164267866339D+03
 0.135860417159543D+03 0.197663664142290D+02 -.158317812547651D+02 -.468155787302116D+02
 0.149781545667012D+03 -.125269833421732D+03 -.119664492104378D+02 0.114703267527281D+02
 0.114686572906123D+03 0.105503467007502D+03 0.277982304652029D+02 0.353452519774834D+02
 0.000000000000000D+00 0.000000000000000D+00 -.000000000000000D+00 0.000000000000000D+00
 0.200164267866339D+03 0.000000000000000D+00 0.000000000000000D+00 0.200164267866339D+03
 0.200164267866339D+03 -.000000000000000D+00 -.000000000000000D+00 -.200164267866339D+03
 0.137932177432289D+03 0.417513804467487D+02 -.100391328784493D+02 -.394502675916434D+02
 0.131920783463003D+03 -.102649683055175D+03 -.600645404741279D+01 0.190484181382714D+02
 0.878634111191184D+02 0.807408329994306D+02 0.317519762189431D+02 -.138819633422994D+02
 0.426121637182669D+02 -.198425303910043D+02 -.157063892930811D+02 0.342838127956714D+02
0.107969490808D-03 0.000000000000D+00 0.000000000000D+00 0.193290785265D-05 0.000000000000D+00  6 -2 1 25 -24 21 21 2 0.48687619D-02 0.19477260D+00 0.37246202D+05 0.37246202D+05 0.37246202D+05 0.12051588D+01  1  2  2  3  6  5       21 0.289268758434D-01 0.100000000000D+01
-.759133814723D-05 0.569770656560D-05 -.414631273723D-06 0.193290785265D-05 0.000000000000D+00  6 -2 1 25 -24 21 21 4 0.48687619D-02 0.19477260D+00 0.37246202D+05 0.37246202D+05 0.37246202D+05 0.12051588D+01  1  2  3  3  6  5       21 -.295397891507D-02 0.100000000000D+01
0.500045893100D-05 0.000000000000D+00 0.000000000000D+00 0.193290785265D-05 0.000000000000D+00  6 -2 1 25 -24 21 21 4 0.48687619D-02 0.19477260D+00 0.37246202D+05 0.37246202D+05 0.37246202D+05 0.12051588D+01  1  2 15  3  6  5       21 0.194580322485D-02 0.100000000000D+01
-.117870851293D-04 0.000000000000D+00 0.000000000000D+00 0.193290785265D-05 0.000000000000D+00  6 -2 1 25 -24 21 21 4 0.48687619D-02 0.19477260D+00 0.37246202D+05 0.37246202D+05 0.37246202D+05 0.12051588D+01  1  2  4  3  6  5       21 -.458664866019D-02 0.100000000000D+01
  </mgrwgt>
  </event>
  <event>
  5     66 0.39191994E-03 0.50896771E+02 0.75467711E-02 0.11995241E+00
       -2 -1    0    0    0  501 0.00000000E+00 0.00000000E+00 0.49842065E+02 0.49843092E+02 0.32000000E+00 0.0000E+00 0.9000E+01
        1 -1    0    0  502    0 -.00000000E+00 -.00000000E+00 -.10886555E+04 0.10886556E+04 0.32000000E+00 0.0000E+00 0.9000E+01
       25  1    1    2    0    0 0.31822521E+02 -.40539778E+02 -.19099057E+03 0.23400544E+03 0.12500000E+03 0.0000E+00 0.9000E+01
      -24  1    1    2    0    0 -.82593746E+02 0.36978051E+02 -.84487694E+03 0.85350651E+03 0.80419002E+02 0.0000E+00 0.9000E+01
       21  1    1    2  502  501 0.50771225E+02 0.35617264E+01 -.29459382E+01 0.50986706E+02 0.75000000E+00 0.0000E+00 0.9000E+01
#aMCatNLO 1  0  0  5  1 0.35359242D+01 0.00000000D+00  -5  6  0 0.00000000D+00 0.00000000D+00 0.00000000D+00 0.00000000D+00 0.00000000D+00
  <mgrwgt>
 0.1961236682D+00    9    2    0
 0.232940873360190D+03 0.000000000000000D+00 0.000000000000000D+00 0.232940873360190D+03
 0.232940873360190D+03 -.000000000000000D+00 -.000000000000000D+00 -.232940873360190D+03
 0.145983726348467D+03 0.318221996626946D+02 -.405398002813535D+02 0.550465308658025D+02
 0.201868638231277D+03 -.825941898343788D+02 0.369780201878136D+02 -.161538097597972D+03
 0.118029382140636D+03 0.507719901716842D+02 0.356178009353987D+01 0.106491566732169D+03
 0.000000000000000D+00 -.000000000000000D+00 0.000000000000000D+00 0.000000000000000D+00
 0.232940873360190D+03 0.000000000000000D+00 0.000000000000000D+00 0.232940873360190D+03
 0.232940873360190D+03 -.000000000000000D+00 -.000000000000000D+00 -.232940873360190D+03
 0.149490673623210D+03 0.351963290588981D+02 -.403030967982758D+02 0.621235889945808D+02
 0.192581351472607D+03 -.780898222623671D+02 0.372940126611779D+02 -.152090424614126D+03
 0.122797351731045D+02 -.197326047849815D+01 -.131027423513677D+01 -.120491211477981D+02
 0.111529986451459D+03 0.448667536819673D+02 0.431935837223464D+01 0.102015956767343D+03
0.106048159011D-02 0.000000000000D+00 0.000000000000D+00 0.523924569891D-05 0.000000000000D+00  6 -2 1 25 -24 21 21 2 0.76680927D-02 0.16748555D+00 0.23588056D+05 0.23588056D+05 0.23588056D+05 0.12260138D+01  1  2  2  3  6  5       21 0.195018477490D+00 0.100000000000D+01
-.955963861875D-06 0.559631510108D-04 -.407252853723D-05 0.523924569891D-05 0.000000000000D+00  6 -2 1 25 -24 21 21 4 0.76680927D-02 0.16748555D+00 0.23588056D+05 0.23588056D+05 0.23588056D+05 0.12260138D+01  1  2  3  3  6  5       21 -.264243817132D-03 0.100000000000D+01
0.426646107966D-04 0.000000000000D+00 0.000000000000D+00 0.523924569891D-05 0.000000000000D+00  6 -2 1 25 -24 21 21 4 0.76680927D-02 0.16748555D+00 0.23588056D+05 0.23588056D+05 0.23588056D+05 0.12260138D+01  1  2 15  3  6  5       21 0.117931859801D-01 0.100000000000D+01
-.628850524298D-04 0.000000000000D+00 0.000000000000D+00 0.523924569891D-05 0.000000000000D+00  6 -2 1 25 -24 21 21 4 0.76680927D-02 0.16748555D+00 0.23588056D+05 0.23588056D+05 0.23588056D+05 0.12260138D+01  1  2  4  3  6  5       21 -.173824419074D-01 0.100000000000D+01
0.445233514220D-05 0.000000000000D+00 0.000000000000D+00 0.523924569891D-05 0.460986241581D-05  6 -2 1 25 -24 21 21 4 0.76680927D-02 0.16748555D+00 0.22733061D+05 0.22733061D+05 0.22733061D+05 0.12277485D+01  1  2 11  3  6  5       21 0.123763738862D-02 0.100000000000D+01
0.130375764289D-06 0.000000000000D+00 0.000000000000D+00 0.525408216438D-05 0.266643606433D-08  6 -2 1 25 -24 1 -1 4 0.76680927D-02 0.16748555D+00 0.22733061D+05 0.22733061D+05 0.22733061D+05 0.12277485D+01  1  2 11  6  6  5       21 0.362411892413D-04 0.100000000000D+01
0.824502710545D-05 0.000000000000D+00 0.000000000000D+00 0.525408216438D-05 0.110833960756D-08  6 -2 1 25 -24 2 -2 4 0.76680927D-02 0.16748555D+00 0.22733061D+05 0.22733061D+05 0.22733061D+05 0.12277485D+01  1  2 11  7  6  5       21 0.229191053458D-02 0.100000000000D+01
0.610289165859D-05 0.000000000000D+00 0.000000000000D+00 0.525408216438D-05 0.350672456025D-09  6 -2 1 25 -24 3 -3 4 0.76680927D-02 0.16748555D+00 0.22733061D+05 0.22733061D+05 0.22733061D+05 0.12277485D+01  1  2 11  8  6  5       21 0.169645066109D-02 0.100000000000D+01
0.610289165859D-05 0.000000000000D+00 0.000000000000D+00 0.525408216438D-05 0.350672456025D-09  6 -2 1 25 -24 4 -4 4 0.76680927D-02 0.16748555D+00 0.22733061D+05 0.22733061D+05 0.22733061D+05 0.12277485D+01  1  2 11  8  6  5       21 0.169645066109D-02 0.100000000000D+01
  </mgrwgt>
  </event>
  <event>
  5     66 0.39191994E-03 0.22065930E+02 0.75467711E-02 0.12285690E+00
       -4 -1    0    0    0  501 0.00000000E+00 0.00000000E+00 0.82884521E+02 0.82899013E+02 0.15500000E+01 0.0000E+00 0.9000E+01
        3 -1    0    0  502    0 -.00000000E+00 -.00000000E+00 -.20332913E+03 0.20332975E+03 0.50000000E+00 0.0000E+00 0.9000E+01
       25  1    1    2    0    0 0.52414203E+02 -.44367677E+02 -.61637112E+02 0.15537012E+03 0.12500000E+03 0.0000E+00 0.9000E+01
      -24  1    1    2    0    0 -.41066862E+02 0.25455349E+02 -.40502202E+02 0.10218662E+03 0.80419002E+02 0.0000E+00 0.9000E+01
       21  1    1    2  502  501 -.11347341E+02 0.18912328E+02 -.18305296E+02 0.28672019E+02 0.75000000E+00 0.0000E+00 0.9000E+01
#aMCatNLO 1  0  0  5  2 0.82786045D+01 0.00000000D+00  -5  6  0 0.00000000D+00 0.00000000D+00 0.00000000D+00 0.00000000D+00 0.00000000D+00
  <mgrwgt>
 0.1372271322D+00   14    2    0
 0.129826806315934D+03 0.000000000000000D+00 0.000000000000000D+00 0.129826806315934D+03
 0.129826806315934D+03 -.000000000000000D+00 -.000000000000000D+00 -.129826806315934D+03
 0.142683583697388D+03 0.524174874386256D+02 -.443731516066112D+02 0.412740643113522D+01
 0.938557700158899D+02 -.410647008616939D+02 0.254517477887997D+02 0.275472113652366D+01
 0.231142589185893D+02 -.113527865769317D+02 0.189214038178116D+02 -.688212756765890D+01
 0.000000000000000D+00 0.000000000000000D+00 0.000000000000000D+00 0.000000000000000D+00
 0.129826806315934D+03 0.000000000000000D+00 0.000000000000000D+00 0.129826806315934D+03
 0.129826806315934D+03 -.000000000000000D+00 -.000000000000000D+00 -.129826806315934D+03
 0.140192785908493D+03 0.495518094798962D+02 -.395969982365569D+02 0.239021520093295D+01
 0.955940096321156D+02 -.429839211153327D+02 0.286504639091407D+02 0.159127826490168D+01
 0.155865493354396D+02 -.136373291936815D+02 0.665627792149311D+01 -.355777133625795D+01
 0.828026775581904D+01 0.706944082911791D+01 0.429025640592310D+01 -.423722129576702D+00
0.487067846459D-03 0.000000000000D+00 0.000000000000D+00 0.482673660100D-04 0.000000000000D+00  6 -4 3 25 -24 21 21 2 0.12752627D-01 0.31282567D-01 0.16706227D+05 0.16706227D+05 0.16706227D+05 0.12425238D+01  1  2  2  3  6  5       21 0.723215962751D-01 0.100000000000D+01
0.969513974105D-04 0.257032764153D-04 -.187046877831D-05 0.482673660100D-04 0.000000000000D+00  6 -4 3 25 -24 21 21 4 0.12752627D-01 0.31282567D-01 0.16706227D+05 0.16706227D+05 0.16706227D+05 0.12425238D+01  1  2  3  3  6  5       21 0.222250133288D-01 0.100000000000D+01
0.798750286985D-05 0.000000000000D+00 0.000000000000D+00 0.482673660100D-04 0.000000000000D+00  6 -4 3 25 -24 21 21 4 0.12752627D-01 0.31282567D-01 0.16706227D+05 0.16706227D+05 0.16706227D+05 0.12425238D+01  1  2 15  3  6  5       21 0.183104485843D-02 0.100000000000D+01
0.189256265056D-03 0.000000000000D+00 0.000000000000D+00 0.482470620845D-04 0.000000000000D+00  6 -4 3 25 -24 21 21 4 0.12752627D-01 0.31282567D-01 0.16795857D+05 0.16795857D+05 0.16795857D+05 0.12422624D+01  1  2 12  3  6  5       21 0.433702917572D-01 0.100000000000D+01
0.171343901021D-03 0.000000000000D+00 0.000000000000D+00 0.482470620845D-04 0.000000000000D+00  6 -4 3 25 -24 21 21 4 0.12752627D-01 0.31282567D-01 0.16795857D+05 0.16795857D+05 0.16795857D+05 0.12422624D+01  1  2 12  3  6  5       21 0.392654635548D-01 0.100000000000D+01
-.217964858767D-03 0.000000000000D+00 0.000000000000D+00 0.482673660100D-04 0.000000000000D+00  6 -4 3 25 -24 21 21 4 0.12752627D-01 0.31282567D-01 0.16706227D+05 0.16706227D+05 0.16706227D+05 0.12425238D+01  1  2  4  3  6  5       21 -.499659831699D-01 0.100000000000D+01
0.461765359477D-05 0.000000000000D+00 0.000000000000D+00 0.482470620845D-04 0.000000000000D+00  6 -4 3 25 -24 3 -3 4 0.12752627D-01 0.31282567D-01 0.16795857D+05 0.16795857D+05 0.16795857D+05 0.12422624D+01  1  2 12  6  6  5       21 0.105818945322D-02 0.100000000000D+01
0.430585407271D-05 0.000000000000D+00 0.000000000000D+00 0.482470620845D-04 0.000000000000D+00  6 -4 3 25 -24 3 -3 4 0.12752627D-01 0.31282567D-01 0.16795857D+05 0.16795857D+05 0.16795857D+05 0.12422624D+01  1  2 12  6  6  5       21 0.986736937568D-03 0.100000000000D+01
0.461765359477D-05 0.000000000000D+00 0.000000000000D+00 0.482470620845D-04 0.000000000000D+00  6 -4 3 25 -24 4 -4 4 0.12752627D-01 0.31282567D-01 0.16795857D+05 0.16795857D+05 0.16795857D+05 0.12422624D+01  1  2 12  7  6  5       21 0.105818945322D-02 0.100000000000D+01
0.430585407271D-05 0.000000000000D+00 0.000000000000D+00 0.482470620845D-04 0.000000000000D+00  6 -4 3 25 -24 4 -4 4 0.12752627D-01 0.31282567D-01 0.16795857D+05 0.16795857D+05 0.16795857D+05 0.12422624D+01  1  2 12  7  6  5       21 0.986736937568D-03 0.100000000000D+01
0.461765359477D-05 0.000000000000D+00 0.000000000000D+00 0.482470620845D-04 0.000000000000D+00  6 -4 3 25 -24 1 -1 4 0.12752627D-01 0.31282567D-01 0.16795857D+05 0.16795857D+05 0.16795857D+05 0.12422624D+01  1  2 12  8  6  5       21 0.105818945322D-02 0.100000000000D+01
0.461765359477D-05 0.000000000000D+00 0.000000000000D+00 0.482470620845D-04 0.000000000000D+00  6 -4 3 25 -24 2 -2 4 0.12752627D-01 0.31282567D-01 0.16795857D+05 0.16795857D+05 0.16795857D+05 0.12422624D+01  1  2 12  8  6  5       21 0.105818945322D-02 0.100000000000D+01
0.430585407271D-05 0.000000000000D+00 0.000000000000D+00 0.482470620845D-04 0.000000000000D+00  6 -4 3 25 -24 1 -1 4 0.12752627D-01 0.31282567D-01 0.16795857D+05 0.16795857D+05 0.16795857D+05 0.12422624D+01  1  2 12  8  6  5       21 0.986736937568D-03 0.100000000000D+01
0.430585407271D-05 0.000000000000D+00 0.000000000000D+00 0.482470620845D-04 0.000000000000D+00  6 -4 3 25 -24 2 -2 4 0.12752627D-01 0.31282567D-01 0.16795857D+05 0.16795857D+05 0.16795857D+05 0.12422624D+01  1  2 12  8  6  5       21 0.986736937568D-03 0.100000000000D+01
  </mgrwgt>
  </event>
  <event>
  6     66 0.39191994E-03 0.17902265E+02 0.75467711E-02 0.12147057E+00
       -2 -1    0    0    0  503 0.00000000E+00 0.00000000E+00 0.43679916E+02 0.43681088E+02 0.32000000E+00 0.0000E+00 0.9000E+01
        1 -1    0    0  502    0 0.00000000E+00 0.00000000E+00 -.51967506E+03 0.51967516E+03 0.32000000E+00 0.0000E+00 0.9000E+01
       25  1    1    2    0    0 0.57407851E+02 0.28935909E+01 -.16712143E+03 0.21646849E+03 0.12500000E+03 0.0000E+00 0.9000E+01
      -24  1    1    2    0    0 -.71541932E+02 -.62799146E+01 -.28842141E+03 0.30791526E+03 0.80419002E+02 0.0000E+00 0.9000E+01
       21  1    1    2  502  501 0.22746901E+02 -.12314320E+01 -.17500830E+02 0.28736379E+02 0.75000000E+00 0.0000E+00 0.9000E+01
       21  1    1    2  501  503 -.86128200E+01 0.46177557E+01 -.29514772E+01 0.10236115E+02 0.75000000E+00 0.0000E+00 0.9000E+01
#aMCatNLO 2  0  0  1  1 0.97726320D+01 0.00000000D+00  -5  6  0 0.00000000D+00 0.00000000D+00 0.00000000D+00 0.00000000D+00 0.00000000D+00
  <mgrwgt>
 0.9341623278D-01    2    2    0
 0.143244602065509D+03 0.000000000000000D+00 0.000000000000000D+00 0.143244602065509D+03
 0.143244602065509D+03 0.000000000000000D+00 0.000000000000000D+00 -.143244602065509D+03
 0.140303977700023D+03 0.531624873555911D+02 0.516748253358021D+01 0.347455496557503D+02
 0.120305959843725D+03 -.751296191257247D+02 -.435831409933441D+01 -.484030313904470D+02
 0.258792665872696D+02 0.219671317701336D+02 -.809168434245793D+00 0.136574817346967D+02
 0.000000000000000D+00 -.000000000000000D+00 0.000000000000000D+00 0.000000000000000D+00
 0.156356516034483D+03 0.000000000000000D+00 0.000000000000000D+00 0.156356516034483D+03
 0.145160508520927D+03 0.000000000000000D+00 0.000000000000000D+00 -.145160508520927D+03
 0.141900533153151D+03 0.574032579752561D+02 0.289379717574934D+01 0.347455496557503D+02
 0.118187536473833D+03 -.715457068448508D+02 -.627982544894304D+01 -.484030313904470D+02
 0.265677665584133D+02 0.227552688434227D+02 -.123172741802849D+01 0.136574817346967D+02
 0.148611883700126D+02 -.861281997382801D+01 0.461775569122218D+01 0.111960075135564D+02
-.169172427378D-06 0.000000000000D+00 0.000000000000D+00 0.406860553731D-04 0.000000000000D+00  6 -2 1 25 -24 21 21 4 0.61561474D-02 0.78889792D-01 0.17963369D+05 0.17963369D+05 0.17963369D+05 0.12389942D+01  1  2  8  1  6  1       -2 -.209326027871D-03 0.100000000000D+01
0.888184768208D-04 0.000000000000D+00 0.000000000000D+00 0.406860553731D-04 0.836585586542D-06  6 -2 1 25 -24 21 21 4 0.67196511D-02 0.79944948D-01 0.19315922D+05 0.19315922D+05 0.19315922D+05 0.12354935D+01  1  2  1  1  6  1       -2 0.936255588105D-01 0.100000000000D+01
  </mgrwgt>
  </event>
  <event>
  5     66 0.39191994E-03 0.82565402E+02 0.75467711E-02 0.11705049E+00
       -2 -1    0    0    0  501 0.00000000E+00 0.00000000E+00 0.20731980E+02 0.20734450E+02 0.32000000E+00 0.0000E+00 0.9000E+01
        1 -1    0    0  502    0 0.00000000E+00 0.00000000E+00 -.22719263E+04 0.22719263E+04 0.32000000E+00 0.0000E+00 0.9000E+01
       25  1    1    2    0    0 -.40587129E+01 0.76003605E+02 -.41082208E+03 0.43611100E+03 0.12500000E+03 0.0000E+00 0.9000E+01
      -24  1    1    2    0    0 -.70817881E+02 -.41212557E+02 -.47478689E+03 0.48847053E+03 0.80419002E+02 0.0000E+00 0.9000E+01
       21  1    1    2  502  501 0.74876594E+02 -.34791047E+02 -.13655853E+04 0.13680792E+04 0.75000000E+00 0.0000E+00 0.9000E+01
#aMCatNLO 1  0  0  1  5 0.99459114D+01 0.00000000D+00  -5  6  0 0.00000000D+00 0.00000000D+00 0.00000000D+00 0.00000000D+00 0.00000000D+00
  <mgrwgt>
 0.2517706835D-01    6    4    0
 0.217035450700697D+03 0.000000000000000D+00 0.000000000000000D+00 0.217035450700697D+03
 0.217035450700697D+03 0.000000000000000D+00 0.000000000000000D+00 -.217035450700697D+03
 0.172816078442841D+03 -.405911934083785D+01 0.760037934329854D+02 0.919094331520723D+02
 0.117629987571882D+03 -.708181573311171D+02 -.412124286200972D+02 0.256109808724543D+02
 0.143624835386670D+03 0.748772766719549D+02 -.347913648128882D+02 -.117520414024527D+03
 0.000000000000000D+00 -.000000000000000D+00 -.000000000000000D+00 -.000000000000000D+00
 0.217406594405663D+03 0.000000000000000D+00 0.000000000000000D+00 0.217406594405663D+03
 0.295806611057748D+03 0.000000000000000D+00 0.000000000000000D+00 -.295806611057748D+03
 0.174007908778531D+03 -.120890894734484D+01 0.787714856677164D+02 0.919094331520723D+02
 0.115838892140374D+03 -.688995027627169D+02 -.393493221763709D+02 0.256109808724543D+02
 0.144338031378998D+03 0.772437645333371D+02 -.324933905677287D+02 -.117520414024527D+03
 0.790283731655083D+02 -.713535282327536D+01 -.692877292361674D+01 -.784000166520847D+02
 0.217035450700697D+03 0.000000000000000D+00 0.000000000000000D+00 0.217035450700697D+03
 0.217035450700697D+03 0.000000000000000D+00 0.000000000000000D+00 -.217035450700697D+03
 0.172816078442841D+03 -.405911934083785D+01 0.760037934329854D+02 0.919094331520723D+02
 0.117629987571882D+03 -.708181573311171D+02 -.412124286200972D+02 0.256109808724543D+02
 0.000000000000000D+00 -.000000000000000D+00 -.000000000000000D+00 -.000000000000000D+00
 0.143624835386670D+03 0.748772766719549D+02 -.347913648128882D+02 -.117520414024527D+03
 0.217406594405663D+03 0.000000000000000D+00 0.000000000000000D+00 0.217406594405663D+03
 0.295806611057748D+03 0.000000000000000D+00 0.000000000000000D+00 -.295806611057748D+03
 0.174007908778531D+03 -.120890894734484D+01 0.787714856677164D+02 0.919094331520723D+02
 0.115838892140374D+03 -.688995027627169D+02 -.393493221763709D+02 0.256109808724543D+02
 0.790283731655083D+02 -.713535282327536D+01 -.692877292361674D+01 -.784000166520847D+02
 0.144338031378998D+03 0.772437645333371D+02 -.324933905677287D+02 -.117520414024527D+03
0.227250613330D-03 0.000000000000D+00 0.000000000000D+00 0.465415319857D-05 0.000000000000D+00  6 -2 1 25 -24 21 21 2 0.31897271D-02 0.34952731D+00 0.29536297D+05 0.29536297D+05 0.29536297D+05 0.12156091D+01  1  2  2  1  6  1       -2 0.259269829259D-01 0.100000000000D+01
-.899145936040D-05 0.119923443365D-04 -.872702191648D-06 0.465415319857D-05 0.000000000000D+00  6 -2 1 25 -24 21 21 4 0.31897271D-02 0.34952731D+00 0.29536297D+05 0.29536297D+05 0.29536297D+05 0.12156091D+01  1  2  3  1  6  1       -2 -.151588050979D-02 0.100000000000D+01
0.859691365795D-05 0.000000000000D+00 0.000000000000D+00 0.465415319857D-05 0.000000000000D+00  6 -2 1 25 -24 21 21 4 0.31897271D-02 0.34952731D+00 0.29536297D+05 0.29536297D+05 0.29536297D+05 0.12156091D+01  1  2 15  1  6  1       -2 0.144936359450D-02 0.100000000000D+01
-.405357961503D-05 0.000000000000D+00 0.000000000000D+00 0.465415319857D-05 0.000000000000D+00  6 -2 1 25 -24 21 21 4 0.31897271D-02 0.34952731D+00 0.29536297D+05 0.29536297D+05 0.29536297D+05 0.12156091D+01  1  2  4  1  6  1       -2 -.683397665162D-03 0.100000000000D+01
0.458224807363D-14 0.000000000000D+00 0.000000000000D+00 0.465415319857D-05 0.164113506151D-06  6 -2 1 25 -24 21 21 4 0.31951817D-02 0.47638526D+00 0.31412703D+05 0.31412703D+05 0.31412703D+05 0.12128066D+01  1  2 11  1  6  1       -2 0.213659183360D-12 0.100000000000D+01
0.248266424713D-15 0.000000000000D+00 0.000000000000D+00 0.463271834237D-05 0.420433640078D-09  6 21 1 25 -24 2 21 4 0.31951817D-02 0.47638526D+00 0.31412703D+05 0.31412703D+05 0.31412703D+05 0.12128066D+01  3  4 11  4  5  1       -2 0.222326581927D-12 0.100000000000D+01
  </mgrwgt>
  </event>
  <event>
  5     66 0.39191994E-03 0.52102192E+02 0.75467711E-02 0.12176469E+00
       -4 -1    0    0    0  501 0.00000000E+00 0.00000000E+00 0.55739911E+02 0.55761458E+02 0.15500000E+01 0.0000E+00 0.9000E+01
        3 -1    0    0  502    0 -.00000000E+00 -.00000000E+00 -.41665919E+03 0.41665949E+03 0.50000000E+00 0.0000E+00 0.9000E+01
       25  1    1    2    0    0 0.21366511E+02 0.15618579E+02 -.63512940E+02 0.14268623E+03 0.12500000E+03 0.0000E+00 0.9000E+01
      -24  1    1    2    0    0 0.18934679E+02 0.17400003E+02 -.13551408E+03 0.15966391E+03 0.80419002E+02 0.0000E+00 0.9000E+01
       21  1    1    2  502  501 -.40301190E+02 -.33018582E+02 -.16189226E+03 0.17007081E+03 0.75000000E+00 0.0000E+00 0.9000E+01
#aMCatNLO 1  0  0  5  1 0.10456888D+02 0.00000000D+00  -5  6  0 0.00000000D+00 0.00000000D+00 0.00000000D+00 0.00000000D+00 0.00000000D+00
  <mgrwgt>
 0.1640736202D-01    9    2    0
 0.152412948068805D+03 0.000000000000000D+00 0.000000000000000D+00 0.152412948068805D+03
 0.152412948068805D+03 -.000000000000000D+00 -.000000000000000D+00 -.152412948068805D+03
 0.145936376052867D+03 0.213675607428991D+02 0.156194394878200D+02 0.705116041047750D+02
 0.869970307719809D+02 0.189353053549094D+02 0.174005156936036D+02 -.209748342897734D+02
 0.718924893127617D+02 -.403028660978085D+02 -.330199551814236D+02 -.495367698150016D+02
 0.000000000000000D+00 0.000000000000000D+00 0.000000000000000D+00 0.000000000000000D+00
 0.152412948068805D+03 0.000000000000000D+00 0.000000000000000D+00 0.152412948068805D+03
 0.152412948068805D+03 -.000000000000000D+00 -.000000000000000D+00 -.152412948068805D+03
 0.142266111975228D+03 0.167041145859422D+02 0.117986992278097D+02 0.647797026002716D+02
 0.869020737025665D+02 0.161214187850578D+02 0.150951112045873D+02 -.244334183755301D+02
 0.114882146152385D+02 0.100794553245060D+02 0.389967210247998D+01 -.389566591229374D+01
 0.641694958445757D+02 -.429049886955060D+02 -.307934825348770D+02 -.364506183124478D+02
0.209486198005D-03 0.000000000000D+00 0.000000000000D+00 0.935805453146D-05 0.000000000000D+00  6 -4 3 25 -24 21 21 2 0.85770515D-02 0.64103095D-01 0.17464192D+05 0.17464192D+05 0.17464192D+05 0.12403615D+01  1  2  2  3  6  5       21 0.148951602472D-01 0.100000000000D+01
-.468765651600D-05 0.110548903847D-04 -.804482159322D-06 0.935805453146D-05 0.000000000000D+00  6 -4 3 25 -24 21 21 4 0.85770515D-02 0.64103095D-01 0.17464192D+05 0.17464192D+05 0.17464192D+05 0.12403615D+01  1  2  3  3  6  5       21 -.512793045121D-03 0.100000000000D+01
0.910428108211D-05 0.000000000000D+00 0.000000000000D+00 0.935805453146D-05 0.000000000000D+00  6 -4 3 25 -24 21 21 4 0.85770515D-02 0.64103095D-01 0.17464192D+05 0.17464192D+05 0.17464192D+05 0.12403615D+01  1  2 15  3  6  5       21 0.995937309783D-03 0.100000000000D+01
0.119622154880D-04 0.000000000000D+00 0.000000000000D+00 0.930722552498D-05 0.000000000000D+00  6 -4 3 25 -24 21 21 4 0.85770515D-02 0.64103095D-01 0.18724865D+05 0.18724865D+05 0.18724865D+05 0.12369884D+01  1  2 12  3  6  5       21 0.130178257802D-02 0.100000000000D+01
-.127917532719D-04 0.000000000000D+00 0.000000000000D+00 0.935805453146D-05 0.000000000000D+00  6 -4 3 25 -24 21 21 4 0.85770515D-02 0.64103095D-01 0.17464192D+05 0.17464192D+05 0.17464192D+05 0.12403615D+01  1  2  4  3  6  5       21 -.139931799405D-02 0.100000000000D+01
0.258809488551D-05 0.000000000000D+00 0.000000000000D+00 0.930722552498D-05 0.000000000000D+00  6 -4 3 25 -24 3 -3 4 0.85770515D-02 0.64103095D-01 0.18724865D+05 0.18724865D+05 0.18724865D+05 0.12369884D+01  1  2 12  6  6  5       21 0.281648231099D-03 0.100000000000D+01
0.258809488551D-05 0.000000000000D+00 0.000000000000D+00 0.930722552498D-05 0.000000000000D+00  6 -4 3 25 -24 4 -4 4 0.85770515D-02 0.64103095D-01 0.18724865D+05 0.18724865D+05 0.18724865D+05 0.12369884D+01  1  2 12  7  6  5       21 0.281648231099D-03 0.100000000000D+01
0.258809488551D-05 0.000000000000D+00 0.000000000000D+00 0.930722552498D-05 0.000000000000D+00  6 -4 3 25 -24 1 -1 4 0.85770515D-02 0.64103095D-01 0.18724865D+05 0.18724865D+05 0.18724865D+05 0.12369884D+01  1  2 12  8  6  5       21 0.281648231099D-03 0.100000000000D+01
0.258809488551D-05 0.000000000000D+00 0.000000000000D+00 0.930722552498D-05 0.000000000000D+00  6 -4 3 25 -24 2 -2 4 0.85770515D-02 0.64103095D-01 0.18724865D+05 0.18724865D+05 0.18724865D+05 0.12369884D+01  1  2 12  8  6  5       21 0.281648231099D-03 0.100000000000D+01
  </mgrwgt>
  </event>
  <event>
  5     66 0.39191994E-03 0.81689477E+02 0.75467711E-02 0.11657843E+00
       -2 -1    0    0    0  501 0.00000000E+00 0.00000000E+00 0.99930270E+02 0.99930783E+02 0.32000000E+00 0.0000E+00 0.9000E+01
        1 -1    0    0  502    0 -.00000000E+00 -.00000000E+00 -.44104335E+03 0.44104346E+03 0.32000000E+00 0.0000E+00 0.9000E+01
       25  1    1    2    0    0 0.10650839E+03 -.74172204E+02 -.11783459E+03 0.21530338E+03 0.12500000E+03 0.0000E+00 0.9000E+01
      -24  1    1    2    0    0 -.25090518E+02 0.56725281E+02 -.16677806E+02 0.10292063E+03 0.80419002E+02 0.0000E+00 0.9000E+01
       21  1    1    2  502  501 -.81417870E+02 0.17446922E+02 -.20660068E+03 0.22275024E+03 0.75000000E+00 0.0000E+00 0.9000E+01
#aMCatNLO 1  0  0  5  1 0.10261037D+02 0.00000000D+00  -5  6  0 0.00000000D+00 0.00000000D+00 0.00000000D+00 0.00000000D+00 0.00000000D+00
  <mgrwgt>
 0.1152007905D+00   20    2    0
 0.209937492716838D+03 0.000000000000000D+00 0.000000000000000D+00 0.209937492716838D+03
 0.209937492716838D+03 -.000000000000000D+00 -.000000000000000D+00 -.209937492716838D+03
 0.181670498052214D+03 0.106509086844540D+03 -.741723531690548D+02 0.230964565993742D+02
 0.119055530479685D+03 -.250900610897093D+02 0.567251831364510D+02 0.621268526168785D+02
 0.119148956901777D+03 -.814190257548312D+02 0.174471700326038D+02 -.852233092162527D+02
 0.000000000000000D+00 0.000000000000000D+00 0.000000000000000D+00 -.000000000000000D+00
 0.209937492716838D+03 0.000000000000000D+00 0.000000000000000D+00 0.209937492716838D+03
 0.209937492716838D+03 -.000000000000000D+00 -.000000000000000D+00 -.209937492716838D+03
 0.180501143531967D+03 0.105048873291170D+03 -.738594460332426D+02 0.215680149356851D+02
 0.118839770829172D+03 -.260492138873576D+02 0.569307186583106D+02 0.611228836464593D+02
 0.106435133891943D+03 -.791050591159046D+02 0.187161899354325D+02 -.687061247864106D+02
 0.140989371805943D+02 0.105399712092204D+00 -.178746256050046D+01 -.139847737957339D+02
0.646319798651D-04 0.000000000000D+00 0.000000000000D+00 0.353548935741D-05 0.000000000000D+00  6 -2 1 25 -24 21 21 2 0.15373936D-01 0.67852871D-01 0.33310622D+05 0.33310622D+05 0.33310622D+05 0.12101558D+01  1  2  2  3  6  5       21 0.144476683917D-01 0.100000000000D+01
-.258895665811D-05 0.341072328181D-05 -.248203820673D-06 0.353548935741D-05 0.000000000000D+00  6 -2 1 25 -24 21 21 4 0.15373936D-01 0.67852871D-01 0.33310622D+05 0.33310622D+05 0.33310622D+05 0.12101558D+01  1  2  3  3  6  5       21 -.847535043960D-03 0.100000000000D+01
0.239482873203D-05 0.000000000000D+00 0.000000000000D+00 0.353548935741D-05 0.000000000000D+00  6 -2 1 25 -24 21 21 4 0.15373936D-01 0.67852871D-01 0.33310622D+05 0.33310622D+05 0.33310622D+05 0.12101558D+01  1  2 15  3  6  5       21 0.783984261890D-03 0.100000000000D+01
0.186414859054D-03 0.000000000000D+00 0.000000000000D+00 0.353667381964D-05 0.000000000000D+00  6 -2 1 25 -24 21 21 4 0.15373936D-01 0.67852871D-01 0.33161065D+05 0.33161065D+05 0.33161065D+05 0.12103585D+01  1  2 12  3  6  5       21 0.610636405312D-01 0.100000000000D+01
0.133989971446D-03 0.000000000000D+00 0.000000000000D+00 0.353667381964D-05 0.000000000000D+00  6 -2 1 25 -24 21 21 4 0.15373936D-01 0.67852871D-01 0.33161065D+05 0.33161065D+05 0.33161065D+05 0.12103585D+01  1  2 12  3  6  5       21 0.438908973923D-01 0.100000000000D+01
-.575067762343D-04 0.000000000000D+00 0.000000000000D+00 0.353548935741D-05 0.000000000000D+00  6 -2 1 25 -24 21 21 4 0.15373936D-01 0.67852871D-01 0.33310622D+05 0.33310622D+05 0.33310622D+05 0.12101558D+01  1  2  4  3  6  5       21 -.188257335135D-01 0.100000000000D+01
-.403132245096D-03 0.000000000000D+00 0.000000000000D+00 0.353548935741D-05 0.000000000000D+00  6 -2 1 25 -24 21 21 4 0.15373936D-01 0.67852871D-01 0.33310622D+05 0.33310622D+05 0.33310622D+05 0.12101558D+01  1  2  5  3  6  5       21 -.131971581679D+00 0.100000000000D+01
0.445401209988D-03 0.000000000000D+00 -.000000000000D+00 0.353548935741D-05 0.000000000000D+00  6 -2 1 25 -24 21 21 4 0.15373936D-01 0.67852871D-01 0.33310622D+05 0.33310622D+05 0.33310622D+05 0.12101558D+01  1  2  6  3  6  5       21 0.145808981740D+00 0.100000000000D+01
0.183277911607D-05 0.000000000000D+00 0.000000000000D+00 0.353667381964D-05 0.000000000000D+00  6 -2 1 25 -24 1 -1 4 0.15373936D-01 0.67852871D-01 0.33161065D+05 0.33161065D+05 0.33161065D+05 0.12103585D+01  1  2 12  6  6  5       21 0.600360752812D-03 0.100000000000D+01
0.160852935494D-05 0.000000000000D+00 0.000000000000D+00 0.353667381964D-05 0.000000000000D+00  6 -2 1 25 -24 1 -1 4 0.15373936D-01 0.67852871D-01 0.33161065D+05 0.33161065D+05 0.33161065D+05 0.12103585D+01  1  2 12  6  6  5       21 0.526903589190D-03 0.100000000000D+01
-.279396361754D-05 0.000000000000D+00 0.000000000000D+00 0.353548935741D-05 0.000000000000D+00  6 -2 1 25 -24 1 -1 4 0.15373936D-01 0.67852871D-01 0.33310622D+05 0.33310622D+05 0.33310622D+05 0.12101558D+01  1  2  5  6  6  5       21 -.914647246021D-03 0.100000000000D+01
0.183277911607D-05 0.000000000000D+00 0.000000000000D+00 0.353667381964D-05 0.000000000000D+00  6 -2 1 25 -24 2 -2 4 0.15373936D-01 0.67852871D-01 0.33161065D+05 0.33161065D+05 0.33161065D+05 0.12103585D+01  1  2 12  7  6  5       21 0.600360752812D-03 0.100000000000D+01
0.160852935494D-05 0.000000000000D+00 0.000000000000D+00 0.353667381964D-05 0.000000000000D+00  6 -2 1 25 -24 2 -2 4 0.15373936D-01 0.67852871D-01 0.33161065D+05 0.33161065D+05 0.33161065D+05 0.12103585D+01  1  2 12  7  6  5       21 0.526903589190D-03 0.100000000000D+01
-.279396361754D-05 0.000000000000D+00 0.000000000000D+00 0.353548935741D-05 0.000000000000D+00  6 -2 1 25 -24 2 -2 4 0.15373936D-01 0.67852871D-01 0.33310622D+05 0.33310622D+05 0.33310622D+05 0.12101558D+01  1  2  5  7  6  5       21 -.914647246021D-03 0.100000000000D+01
0.183277911607D-05 0.000000000000D+00 0.000000000000D+00 0.353667381964D-05 0.000000000000D+00  6 -2 1 25 -24 3 -3 4 0.15373936D-01 0.67852871D-01 0.33161065D+05 0.33161065D+05 0.33161065D+05 0.12103585D+01  1  2 12  8  6  5       21 0.600360752812D-03 0.100000000000D+01
0.183277911607D-05 0.000000000000D+00 0.000000000000D+00 0.353667381964D-05 0.000000000000D+00  6 -2 1 25 -24 4 -4 4 0.15373936D-01 0.67852871D-01 0.33161065D+05 0.33161065D+05 0.33161065D+05 0.12103585D+01  1  2 12  8  6  5       21 0.600360752812D-03 0.100000000000D+01
0.160852935494D-05 0.000000000000D+00 0.000000000000D+00 0.353667381964D-05 0.000000000000D+00  6 -2 1 25 -24 3 -3 4 0.15373936D-01 0.67852871D-01 0.33161065D+05 0.33161065D+05 0.33161065D+05 0.12103585D+01  1  2 12  8  6  5       21 0.526903589190D-03 0.100000000000D+01
0.160852935494D-05 0.000000000000D+00 0.000000000000D+00 0.353667381964D-05 0.000000000000D+00  6 -2 1 25 -24 4 -4 4 0.15373936D-01 0.67852871D-01 0.33161065D+05 0.33161065D+05 0.33161065D+05 0.12103585D+01  1  2 12  8  6  5       21 0.526903589190D-03 0.100000000000D+01
-.279396361754D-05 0.000000000000D+00 0.000000000000D+00 0.353548935741D-05 0.000000000000D+00  6 -2 1 25 -24 3 -3 4 0.15373936D-01 0.67852871D-01 0.33310622D+05 0.33310622D+05 0.33310622D+05 0.12101558D+01  1  2  5  8  6  5       21 -.914647246021D-03 0.100000000000D+01
-.279396361754D-05 0.000000000000D+00 0.000000000000D+00 0.353548935741D-05 0.000000000000D+00  6 -2 1 25 -24 4 -4 4 0.15373936D-01 0.67852871D-01 0.33310622D+05 0.33310622D+05 0.33310622D+05 0.12101558D+01  1  2  5  8  6  5       21 -.914647246021D-03 0.100000000000D+01
  </mgrwgt>
  </event>
  <event>
  5     66 0.39191994E-03 0.27426101E+02 0.75467711E-02 0.12127615E+00
       -2 -1    0    0    0  501 0.00000000E+00 0.00000000E+00 0.58002543E+02 0.58003425E+02 0.32000000E+00 0.0000E+00 0.9000E+01
        1 -1    0    0  502    0 -.00000000E+00 -.00000000E+00 -.49517917E+03 0.49517927E+03 0.32000000E+00 0.0000E+00 0.9000E+01
       25  1    1    2    0    0 0.70508541E+02 0.22600409E+02 -.68168009E+02 0.16048087E+03 0.12500000E+03 0.0000E+00 0.9000E+01
      -24  1    1    2    0    0 -.48787258E+02 -.39340391E+02 -.23914116E+03 0.25996841E+03 0.80419002E+02 0.0000E+00 0.9000E+01
       21  1    1    2  502  501 -.21721282E+02 0.16739982E+02 -.12986746E+03 0.13273342E+03 0.75000000E+00 0.0000E+00 0.9000E+01
#aMCatNLO 1  0  0  5  1 0.53318377D+01 0.00000000D+00  -5  6  0 0.00000000D+00 0.00000000D+00 0.00000000D+00 0.00000000D+00 0.00000000D+00
  <mgrwgt>
 0.1816220966D+00   14    2    0
 0.169475436344544D+03 0.000000000000000D+00 0.000000000000000D+00 0.169475436344544D+03
 0.169475436344544D+03 -.000000000000000D+00 -.000000000000000D+00 -.169475436344544D+03
 0.173990909236102D+03 0.705098403660997D+02 0.225994069630108D+02 0.957364387956476D+02
 0.115836231558190D+03 -.487863929127289D+02 -.393410577074299D+02 -.549816845163685D+02
 0.491237318947969D+02 -.217234474533707D+02 0.167416507444191D+02 -.407547542792791D+02
 0.000000000000000D+00 0.000000000000000D+00 0.000000000000000D+00 0.000000000000000D+00
 0.169475436344544D+03 0.000000000000000D+00 0.000000000000000D+00 0.169475436344544D+03
 0.169475436344544D+03 -.000000000000000D+00 -.000000000000000D+00 -.169475436344544D+03
 0.171391106839487D+03 0.685377604306435D+02 0.241192335738814D+02 0.920366745956453D+02
 0.117263922256145D+03 -.501173601168476D+02 -.383153186698549D+02 -.574786749905586D+02
 0.586852092791541D+01 0.160518063698820D+01 -.564053520936093D+01 -.217475414653781D+00
 0.444273226655413D+02 -.200255809507841D+02 0.198366203053344D+02 -.343405241904329D+02
0.473928792986D-03 0.000000000000D+00 0.000000000000D+00 0.216044354445D-04 0.000000000000D+00  6 -2 1 25 -24 21 21 2 0.89235439D-02 0.76181486D-01 0.18860348D+05 0.18860348D+05 0.18860348D+05 0.12366411D+01  1  2  2  3  6  5       21 0.225410010865D+00 0.100000000000D+01
0.431284451761D-04 0.250099095143D-04 -.182001135338D-05 0.216044354445D-04 0.000000000000D+00  6 -2 1 25 -24 21 21 4 0.89235439D-02 0.76181486D-01 0.18860348D+05 0.18860348D+05 0.18860348D+05 0.12366411D+01  1  2  3  3  6  5       21 0.313697647709D-01 0.100000000000D+01
0.139347661087D-04 0.000000000000D+00 0.000000000000D+00 0.216044354445D-04 0.000000000000D+00  6 -2 1 25 -24 21 21 4 0.89235439D-02 0.76181486D-01 0.18860348D+05 0.18860348D+05 0.18860348D+05 0.12366411D+01  1  2 15  3  6  5       21 0.101355458835D-01 0.100000000000D+01
0.107170378354D-04 0.000000000000D+00 0.000000000000D+00 0.215298419356D-04 0.000000000000D+00  6 -2 1 25 -24 21 21 4 0.89235439D-02 0.76181486D-01 0.19718488D+05 0.19718488D+05 0.19718488D+05 0.12345044D+01  1  2 12  3  6  5       21 0.774841028371D-02 0.100000000000D+01
-.153438420838D-03 0.000000000000D+00 0.000000000000D+00 0.216044354445D-04 0.000000000000D+00  6 -2 1 25 -24 21 21 4 0.89235439D-02 0.76181486D-01 0.18860348D+05 0.18860348D+05 0.18860348D+05 0.12366411D+01  1  2  4  3  6  5       21 -.111604467744D+00 0.100000000000D+01
0.315403238767D-05 0.000000000000D+00 0.000000000000D+00 0.216044354445D-04 0.150889678701D-05  6 -2 1 25 -24 21 21 4 0.89235439D-02 0.76181486D-01 0.19718488D+05 0.19718488D+05 0.19718488D+05 0.12345044D+01  1  2 11  3  6  5       21 0.228036304089D-02 0.100000000000D+01
0.284520481247D-05 0.000000000000D+00 0.000000000000D+00 0.215298419356D-04 0.000000000000D+00  6 -2 1 25 -24 1 -1 4 0.89235439D-02 0.76181486D-01 0.19718488D+05 0.19718488D+05 0.19718488D+05 0.12345044D+01  1  2 12  6  6  5       21 0.205708093661D-02 0.100000000000D+01
0.254105053607D-05 0.000000000000D+00 0.000000000000D+00 0.215298419356D-04 0.279019073836D-07  6 -2 1 25 -24 1 -1 4 0.89235439D-02 0.76181486D-01 0.19718488D+05 0.19718488D+05 0.19718488D+05 0.12345044D+01  1  2 11  6  6  5       21 0.183717762384D-02 0.100000000000D+01
0.284520481247D-05 0.000000000000D+00 0.000000000000D+00 0.215298419356D-04 0.000000000000D+00  6 -2 1 25 -24 2 -2 4 0.89235439D-02 0.76181486D-01 0.19718488D+05 0.19718488D+05 0.19718488D+05 0.12345044D+01  1  2 12  7  6  5       21 0.205708093661D-02 0.100000000000D+01
0.286338175692D-05 0.000000000000D+00 0.000000000000D+00 0.215298419356D-04 0.249393605161D-07  6 -2 1 25 -24 2 -2 4 0.89235439D-02 0.76181486D-01 0.19718488D+05 0.19718488D+05 0.19718488D+05 0.12345044D+01  1  2 11  7  6  5       21 0.207022285376D-02 0.100000000000D+01
0.284520481247D-05 0.000000000000D+00 0.000000000000D+00 0.215298419356D-04 0.000000000000D+00  6 -2 1 25 -24 3 -3 4 0.89235439D-02 0.76181486D-01 0.19718488D+05 0.19718488D+05 0.19718488D+05 0.12345044D+01  1  2 12  8  6  5       21 0.205708093661D-02 0.100000000000D+01
0.284520481247D-05 0.000000000000D+00 0.000000000000D+00 0.215298419356D-04 0.000000000000D+00  6 -2 1 25 -24 4 -4 4 0.89235439D-02 0.76181486D-01 0.19718488D+05 0.19718488D+05 0.19718488D+05 0.12345044D+01  1  2 12  8  6  5       21 0.205708093661D-02 0.100000000000D+01
0.286773828019D-05 0.000000000000D+00 0.000000000000D+00 0.215298419356D-04 0.248497206799D-07  6 -2 1 25 -24 3 -3 4 0.89235439D-02 0.76181486D-01 0.19718488D+05 0.19718488D+05 0.19718488D+05 0.12345044D+01  1  2 11  8  6  5       21 0.207337261680D-02 0.100000000000D+01
0.286773828019D-05 0.000000000000D+00 0.000000000000D+00 0.215298419356D-04 0.248497206799D-07  6 -2 1 25 -24 4 -4 4 0.89235439D-02 0.76181486D-01 0.19718488D+05 0.19718488D+05 0.19718488D+05 0.12345044D+01  1  2 11  8  6  5       21 0.207337261680D-02 0.100000000000D+01
  </mgrwgt>
  </event>
  <event>
  5     66 0.39191994E-03 0.34691501E+02 0.75467711E-02 0.12082479E+00
       -2 -1    0    0    0  501 0.00000000E+00 0.00000000E+00 0.86236765E+02 0.86237358E+02 0.32000000E+00 0.0000E+00 0.9000E+01
        1 -1    0    0  502    0 -.00000000E+00 -.00000000E+00 -.32701412E+03 0.32701428E+03 0.32000000E+00 0.0000E+00 0.9000E+01
       25  1    1    2    0    0 0.68391215E+02 -.57246098E+02 -.48805187E+02 0.16112548E+03 0.12500000E+03 0.0000E+00 0.9000E+01
      -24  1    1    2    0    0 -.40871437E+02 0.36042184E+02 -.56737433E+02 0.11249829E+03 0.80419002E+02 0.0000E+00 0.9000E+01
       21  1    1    2  502  501 -.27519777E+02 0.21203914E+02 -.13523474E+03 0.13962787E+03 0.75000000E+00 0.0000E+00 0.9000E+01
#aMCatNLO 1  0  0  5  1 0.11830974D+02 0.00000000D+00  -5  6  0 0.00000000D+00 0.00000000D+00 0.00000000D+00 0.00000000D+00 0.00000000D+00
  <mgrwgt>
 0.1095878264D+00   15    2    0
 0.167930923177245D+03 0.000000000000000D+00 0.000000000000000D+00 0.167930923177245D+03
 0.167930923177245D+03 -.000000000000000D+00 -.000000000000000D+00 -.167930923177245D+03
 0.163265119384874D+03 0.683918863774364D+02 -.572466156703687D+02 0.554605632840315D+02
 0.977454144850408D+02 -.408710352951714D+02 0.360418743603757D+02 0.108393664470591D+02
 0.748513124845749D+02 -.275208510822650D+02 0.212047413099930D+02 -.662999297310906D+02
 0.000000000000000D+00 0.000000000000000D+00 0.000000000000000D+00 -.000000000000000D+00
 0.167930923177245D+03 0.000000000000000D+00 0.000000000000000D+00 0.167930923177245D+03
 0.167930923177245D+03 -.000000000000000D+00 -.000000000000000D+00 -.167930923177245D+03
 0.161805550055615D+03 0.674135743793434D+02 -.564928289223493D+02 0.531037314936640D+02
 0.980145113268092D+02 -.414601819090359D+02 0.364958102326099D+02 0.942006516950158D+01
 0.186943641595703D+02 -.162401452969010D+02 0.139589960779254D+01 -.915360018523504D+01
 0.573474208124947D+02 -.971324717340643D+01 0.186011190819469D+02 -.533701964779304D+02
0.129983152910D-03 0.000000000000D+00 0.000000000000D+00 0.205011386246D-04 0.000000000000D+00  6 -2 1 25 -24 21 21 2 0.13267252D-01 0.50309923D-01 0.20369225D+05 0.20369225D+05 0.20369225D+05 0.12329524D+01  1  2  2  3  6  5       21 0.555356264529D-01 0.100000000000D+01
0.849391278525D-05 0.685939943039D-05 -.499169532523D-06 0.205011386246D-04 0.000000000000D+00  6 -2 1 25 -24 21 21 4 0.13267252D-01 0.50309923D-01 0.20369225D+05 0.20369225D+05 0.20369225D+05 0.12329524D+01  1  2  3  3  6  5       21 0.551677171889D-02 0.100000000000D+01
0.314594124632D-05 0.000000000000D+00 0.000000000000D+00 0.205011386246D-04 0.000000000000D+00  6 -2 1 25 -24 21 21 4 0.13267252D-01 0.50309923D-01 0.20369225D+05 0.20369225D+05 0.20369225D+05 0.12329524D+01  1  2 15  3  6  5       21 0.204327971522D-02 0.100000000000D+01
0.213166708682D-04 0.000000000000D+00 0.000000000000D+00 0.204762904416D-04 0.000000000000D+00  6 -2 1 25 -24 21 21 4 0.13267252D-01 0.50309923D-01 0.20691162D+05 0.20691162D+05 0.20691162D+05 0.12322050D+01  1  2 12  3  6  5       21 0.138162745889D-01 0.100000000000D+01
-.612444104135D-04 0.000000000000D+00 0.000000000000D+00 0.205011386246D-04 0.000000000000D+00  6 -2 1 25 -24 21 21 4 0.13267252D-01 0.50309923D-01 0.20369225D+05 0.20369225D+05 0.20369225D+05 0.12329524D+01  1  2  4  3  6  5       21 -.397780669347D-01 0.100000000000D+01
-.332274296021D-04 0.000000000000D+00 0.000000000000D+00 0.205011386246D-04 0.000000000000D+00  6 -2 1 25 -24 21 21 4 0.13267252D-01 0.50309923D-01 0.20369225D+05 0.20369225D+05 0.20369225D+05 0.12329524D+01  1  2  5  3  6  5       21 -.215811191562D-01 0.100000000000D+01
0.156420316497D-03 0.000000000000D+00 -.000000000000D+00 0.205011386246D-04 0.000000000000D+00  6 -2 1 25 -24 21 21 4 0.13267252D-01 0.50309923D-01 0.20369225D+05 0.20369225D+05 0.20369225D+05 0.12329524D+01  1  2  6  3  6  5       21 0.101594541895D+00 0.100000000000D+01
0.329470555284D-05 0.000000000000D+00 0.000000000000D+00 0.204762904416D-04 0.000000000000D+00  6 -2 1 25 -24 1 -1 4 0.13267252D-01 0.50309923D-01 0.20691162D+05 0.20691162D+05 0.20691162D+05 0.12322050D+01  1  2 12  6  6  5       21 0.213544398603D-02 0.100000000000D+01
-.619758648164D-05 0.000000000000D+00 0.000000000000D+00 0.205011386246D-04 0.000000000000D+00  6 -2 1 25 -24 1 -1 4 0.13267252D-01 0.50309923D-01 0.20369225D+05 0.20369225D+05 0.20369225D+05 0.12329524D+01  1  2  5  6  6  5       21 -.402531444480D-02 0.100000000000D+01
0.329470555284D-05 0.000000000000D+00 0.000000000000D+00 0.204762904416D-04 0.000000000000D+00  6 -2 1 25 -24 2 -2 4 0.13267252D-01 0.50309923D-01 0.20691162D+05 0.20691162D+05 0.20691162D+05 0.12322050D+01  1  2 12  7  6  5       21 0.213544398603D-02 0.100000000000D+01
-.619758648164D-05 0.000000000000D+00 0.000000000000D+00 0.205011386246D-04 0.000000000000D+00  6 -2 1 25 -24 2 -2 4 0.13267252D-01 0.50309923D-01 0.20369225D+05 0.20369225D+05 0.20369225D+05 0.12329524D+01  1  2  5  7  6  5       21 -.402531444480D-02 0.100000000000D+01
0.329470555284D-05 0.000000000000D+00 0.000000000000D+00 0.204762904416D-04 0.000000000000D+00  6 -2 1 25 -24 3 -3 4 0.13267252D-01 0.50309923D-01 0.20691162D+05 0.20691162D+05 0.20691162D+05 0.12322050D+01  1  2 12  8  6  5       21 0.213544398603D-02 0.100000000000D+01
0.329470555284D-05 0.000000000000D+00 0.000000000000D+00 0.204762904416D-04 0.000000000000D+00  6 -2 1 25 -24 4 -4 4 0.13267252D-01 0.50309923D-01 0.20691162D+05 0.20691162D+05 0.20691162D+05 0.12322050D+01  1  2 12  8  6  5       21 0.213544398603D-02 0.100000000000D+01
-.619758648164D-05 0.000000000000D+00 0.000000000000D+00 0.205011386246D-04 0.000000000000D+00  6 -2 1 25 -24 3 -3 4 0.13267252D-01 0.50309923D-01 0.20369225D+05 0.20369225D+05 0.20369225D+05 0.12329524D+01  1  2  5  8  6  5       21 -.402531444480D-02 0.100000000000D+01
-.619758648164D-05 0.000000000000D+00 0.000000000000D+00 0.205011386246D-04 0.000000000000D+00  6 -2 1 25 -24 4 -4 4 0.13267252D-01 0.50309923D-01 0.20369225D+05 0.20369225D+05 0.20369225D+05 0.12329524D+01  1  2  5  8  6  5       21 -.402531444480D-02 0.100000000000D+01
  </mgrwgt>
  </event>
  <event>
  5     66 -.39191994E-03 0.26443769E+02 0.75467711E-02 0.11505780E+00
       -2 -1    0    0    0  501 0.00000000E+00 0.00000000E+00 0.10290268E+03 0.10290318E+03 0.32000000E+00 0.0000E+00 0.9000E+01
        1 -1    0    0  502    0 -.00000000E+00 -.00000000E+00 -.50638035E+03 0.50638045E+03 0.32000000E+00 0.0000E+00 0.9000E+01
       25  1    1    2    0    0 -.44597253E+02 -.13655155E+03 -.28462638E+03 0.34245060E+03 0.12500000E+03 0.0000E+00 0.9000E+01
      -24  1    1    2    0    0 0.31134119E+02 0.15931002E+03 -.14317173E+03 0.23089906E+03 0.80419002E+02 0.0000E+00 0.9000E+01
       21  1    1    2  502  501 0.13463134E+02 -.22758466E+02 0.24320440E+02 0.35933968E+02 0.75000000E+00 0.0000E+00 0.9000E+01
#aMCatNLO 1  0  0  5  1 0.11830974D+02 0.00000000D+00  -5  6  0 0.00000000D+00 0.00000000D+00 0.00000000D+00 0.00000000D+00 0.00000000D+00
  <mgrwgt>
 -.2411444952D-01    1    2    0
 0.228271939271901D+03 0.000000000000000D+00 0.000000000000000D+00 0.228271939271901D+03
 0.228271939271901D+03 -.000000000000000D+00 -.000000000000000D+00 -.228271939271901D+03
 0.205477078491321D+03 -.445976059699535D+02 -.136550953927895D+03 -.772057012691365D+02
 0.181617940784652D+03 0.311338064930500D+02 0.159310545518583D+03 0.129883270790184D+02
 0.694488592678299D+02 0.134637994769036D+02 -.227595915906883D+02 0.642173741901181D+02
 0.000000000000000D+00 0.000000000000000D+00 0.000000000000000D+00 -.000000000000000D+00
 0.228271939271901D+03 0.000000000000000D+00 0.000000000000000D+00 0.228271939271901D+03
 0.228271939271901D+03 -.000000000000000D+00 -.000000000000000D+00 -.228271939271901D+03
 0.205454146429480D+03 -.445716695983359D+02 -.136594797512046D+03 -.770819943107730D+02
 0.181595734679979D+03 0.311567311195864D+02 0.159271793074428D+03 0.130976691204669D+02
 0.693449875552778D+02 0.134284483234717D+02 -.227233155049403D+02 0.641253070723908D+02
 0.149009879065497D+00 -.135098447221934D-01 0.463199425578721D-01 -.140981882084655D+00
-.948660201597D-04 0.000000000000D+00 0.000000000000D+00 0.245195203442D-04 0.000000000000D+00  6 -2 1 25 -24 21 21 4 0.15831228D-01 0.77904715D-01 0.39604495D+05 0.39604495D+05 0.39604495D+05 0.12024387D+01  1  2 14  3  6  5       21 -.241144495172D-01 0.100000000000D+01
  </mgrwgt>
  </event>
  <event>
  5     66 0.39191994E-03 0.33413664E+02 0.75467711E-02 0.10808342E+00
       -2 -1    0    0    0  501 0.00000000E+00 0.00000000E+00 0.81744698E+02 0.81745324E+02 0.32000000E+00 0.0000E+00 0.9000E+01
        1 -1    0    0  502    0 -.00000000E+00 -.00000000E+00 -.12554923E+04 0.12554923E+04 0.32000000E+00 0.0000E+00 0.9000E+01
       25  1    1    2    0    0 -.20727713E+03 0.15581773E+03 -.57715200E+03 0.64495923E+03 0.12500000E+03 0.0000E+00 0.9000E+01
      -24  1    1    2    0    0 0.24063338E+03 -.15770960E+03 -.43784952E+03 0.53005298E+03 0.80419002E+02 0.0000E+00 0.9000E+01
       21  1    1    2  502  501 -.33356245E+02 0.18918659E+01 -.15874605E+03 0.16222542E+03 0.75000000E+00 0.0000E+00 0.9000E+01
#aMCatNLO 1  0  0  5  1 0.93034625D+01 0.00000000D+00  -5  6  0 0.00000000D+00 0.00000000D+00 0.00000000D+00 0.00000000D+00 0.00000000D+00
  <mgrwgt>
 0.2175918972D+00   25    2    0
 0.320359612540797D+03 0.000000000000000D+00 0.000000000000000D+00 0.320359612540797D+03
 0.320359612540797D+03 -.000000000000000D+00 -.000000000000000D+00 -.320359612540797D+03
 0.288787976046569D+03 -.207275277621158D+03 0.155817629588205D+03 -.230503949132867D+02
 0.304163252931250D+03 0.240635328511224D+03 -.157709711336549D+03 0.571870099042340D+02
 0.477679961037761D+02 -.333600508900659D+02 0.189208174834403D+01 -.341366149909473D+02
 0.000000000000000D+00 0.000000000000000D+00 0.000000000000000D+00 0.000000000000000D+00
 0.320359612540797D+03 0.000000000000000D+00 0.000000000000000D+00 0.320359612540797D+03
 0.320359612540797D+03 -.000000000000000D+00 -.000000000000000D+00 -.320359612540797D+03
 0.289783758208372D+03 -.208470940640824D+03 0.155885443998445D+03 -.242738908934269D+02
 0.302895150552208D+03 0.239380795597068D+03 -.157638558002959D+03 0.559032736406075D+02
 0.259825038394528D+02 -.107676963964399D+02 -.218250392575422D+01 -.235453582834355D+02
 0.220578124815622D+02 -.201421585598039D+02 0.393561793026809D+01 -.808402446374509D+01
0.183447203050D-02 0.000000000000D+00 0.000000000000D+00 0.129070594645D-04 0.000000000000D+00  6 -2 1 25 -24 21 21 2 0.12576159D-01 0.19315271D+00 0.96105938D+05 0.96105938D+05 0.96105938D+05 0.11651596D+01  1  2  2  3  6  5       21 0.104920711898D+00 0.100000000000D+01
0.547254633155D-03 0.968077486921D-04 -.704485562469D-05 0.129070594645D-04 0.000000000000D+00  6 -2 1 25 -24 21 21 4 0.12576159D-01 0.19315271D+00 0.96105938D+05 0.96105938D+05 0.96105938D+05 0.11651596D+01  1  2  3  3  6  5       21 0.424923167048D-01 0.100000000000D+01
0.410203747270D-04 0.000000000000D+00 0.000000000000D+00 0.129070594645D-04 0.000000000000D+00  6 -2 1 25 -24 21 21 4 0.12576159D-01 0.19315271D+00 0.96105938D+05 0.96105938D+05 0.96105938D+05 0.11651596D+01  1  2 15  3  6  5       21 0.318508176752D-02 0.100000000000D+01
0.113751394476D-02 0.000000000000D+00 0.000000000000D+00 0.129129486364D-04 0.000000000000D+00  6 -2 1 25 -24 21 21 4 0.12576159D-01 0.19315271D+00 0.95470689D+05 0.95470689D+05 0.95470689D+05 0.11654254D+01  1  2 12  3  6  5       21 0.884138538270D-01 0.100000000000D+01
0.109748546620D-02 0.000000000000D+00 0.000000000000D+00 0.129129486364D-04 0.000000000000D+00  6 -2 1 25 -24 21 21 4 0.12576159D-01 0.19315271D+00 0.95470689D+05 0.95470689D+05 0.95470689D+05 0.11654254D+01  1  2 12  3  6  5       21 0.853026198344D-01 0.100000000000D+01
-.535970844515D-02 0.000000000000D+00 0.000000000000D+00 0.129070594645D-04 0.000000000000D+00  6 -2 1 25 -24 21 21 4 0.12576159D-01 0.19315271D+00 0.96105938D+05 0.96105938D+05 0.96105938D+05 0.11651596D+01  1  2  4  3  6  5       21 -.416161718693D+00 0.100000000000D+01
-.272068260605D-02 0.000000000000D+00 0.000000000000D+00 0.129070594645D-04 0.000000000000D+00  6 -2 1 25 -24 21 21 4 0.12576159D-01 0.19315271D+00 0.96105938D+05 0.96105938D+05 0.96105938D+05 0.11651596D+01  1  2  5  3  6  5       21 -.211251033697D+00 0.100000000000D+01
0.642809368535D-02 0.000000000000D+00 -.000000000000D+00 0.129070594645D-04 0.000000000000D+00  6 -2 1 25 -24 21 21 4 0.12576159D-01 0.19315271D+00 0.96105938D+05 0.96105938D+05 0.96105938D+05 0.11651596D+01  1  2  6  3  6  5       21 0.499117917214D+00 0.100000000000D+01
0.238498450299D-06 0.000000000000D+00 0.000000000000D+00 0.129070594645D-04 0.182768573127D-05  6 -2 1 25 -24 21 21 4 0.12576159D-01 0.19315271D+00 0.95470689D+05 0.95470689D+05 0.95470689D+05 0.11654254D+01  1  2 11  3  6  5       21 0.185374141740D-04 0.100000000000D+01
0.433149332866D-04 0.000000000000D+00 0.000000000000D+00 0.129129486364D-04 0.000000000000D+00  6 -2 1 25 -24 1 -1 4 0.12576159D-01 0.19315271D+00 0.95470689D+05 0.95470689D+05 0.95470689D+05 0.11654254D+01  1  2 12  6  6  5       21 0.336667536936D-02 0.100000000000D+01
0.418055919352D-04 0.000000000000D+00 0.000000000000D+00 0.129129486364D-04 0.000000000000D+00  6 -2 1 25 -24 1 -1 4 0.12576159D-01 0.19315271D+00 0.95470689D+05 0.95470689D+05 0.95470689D+05 0.11654254D+01  1  2 12  6  6  5       21 0.324936103996D-02 0.100000000000D+01
-.158114352524D-04 0.000000000000D+00 0.000000000000D+00 0.129070594645D-04 0.000000000000D+00  6 -2 1 25 -24 1 -1 4 0.12576159D-01 0.19315271D+00 0.96105938D+05 0.96105938D+05 0.96105938D+05 0.11651596D+01  1  2  5  6  6  5       21 -.122770000215D-02 0.100000000000D+01
0.812360992351D-09 0.000000000000D+00 0.000000000000D+00 0.129070594645D-04 0.718287556475D-08  6 -2 1 25 -24 1 -1 4 0.12576159D-01 0.19315271D+00 0.95470689D+05 0.95470689D+05 0.95470689D+05 0.11654254D+01  1  2 11  6  6  5       21 0.631411741045D-07 0.100000000000D+01
0.433149332866D-04 0.000000000000D+00 0.000000000000D+00 0.129129486364D-04 0.000000000000D+00  6 -2 1 25 -24 2 -2 4 0.12576159D-01 0.19315271D+00 0.95470689D+05 0.95470689D+05 0.95470689D+05 0.11654254D+01  1  2 12  7  6  5       21 0.336667536936D-02 0.100000000000D+01
0.418055919352D-04 0.000000000000D+00 0.000000000000D+00 0.129129486364D-04 0.000000000000D+00  6 -2 1 25 -24 2 -2 4 0.12576159D-01 0.19315271D+00 0.95470689D+05 0.95470689D+05 0.95470689D+05 0.11654254D+01  1  2 12  7  6  5       21 0.324936103996D-02 0.100000000000D+01
-.158114352524D-04 0.000000000000D+00 0.000000000000D+00 0.129070594645D-04 0.000000000000D+00  6 -2 1 25 -24 2 -2 4 0.12576159D-01 0.19315271D+00 0.96105938D+05 0.96105938D+05 0.96105938D+05 0.11651596D+01  1  2  5  7  6  5       21 -.122770000215D-02 0.100000000000D+01
0.871390443227D-09 0.000000000000D+00 0.000000000000D+00 0.129070594645D-04 0.698554915100D-08  6 -2 1 25 -24 2 -2 4 0.12576159D-01 0.19315271D+00 0.95470689D+05 0.95470689D+05 0.95470689D+05 0.11654254D+01  1  2 11  7  6  5       21 0.677292684003D-07 0.100000000000D+01
0.433149332866D-04 0.000000000000D+00 0.000000000000D+00 0.129129486364D-04 0.000000000000D+00  6 -2 1 25 -24 3 -3 4 0.12576159D-01 0.19315271D+00 0.95470689D+05 0.95470689D+05 0.95470689D+05 0.11654254D+01  1  2 12  8  6  5       21 0.336667536936D-02 0.100000000000D+01
0.433149332866D-04 0.000000000000D+00 0.000000000000D+00 0.129129486364D-04 0.000000000000D+00  6 -2 1 25 -24 4 -4 4 0.12576159D-01 0.19315271D+00 0.95470689D+05 0.95470689D+05 0.95470689D+05 0.11654254D+01  1  2 12  8  6  5       21 0.336667536936D-02 0.100000000000D+01
0.418055919352D-04 0.000000000000D+00 0.000000000000D+00 0.129129486364D-04 0.000000000000D+00  6 -2 1 25 -24 3 -3 4 0.12576159D-01 0.19315271D+00 0.95470689D+05 0.95470689D+05 0.95470689D+05 0.11654254D+01  1  2 12  8  6  5       21 0.324936103996D-02 0.100000000000D+01
0.418055919352D-04 0.000000000000D+00 0.000000000000D+00 0.129129486364D-04 0.000000000000D+00  6 -2 1 25 -24 4 -4 4 0.12576159D-01 0.19315271D+00 0.95470689D+05 0.95470689D+05 0.95470689D+05 0.11654254D+01  1  2 12  8  6  5       21 0.324936103996D-02 0.100000000000D+01
-.158114352524D-04 0.000000000000D+00 0.000000000000D+00 0.129070594645D-04 0.000000000000D+00  6 -2 1 25 -24 3 -3 4 0.12576159D-01 0.19315271D+00 0.96105938D+05 0.96105938D+05 0.96105938D+05 0.11651596D+01  1  2  5  8  6  5       21 -.122770000215D-02 0.100000000000D+01
-.158114352524D-04 0.000000000000D+00 0.000000000000D+00 0.129070594645D-04 0.000000000000D+00  6 -2 1 25 -24 4 -4 4 0.12576159D-01 0.19315271D+00 0.96105938D+05 0.96105938D+05 0.96105938D+05 0.11651596D+01  1  2  5  8  6  5       21 -.122770000215D-02 0.100000000000D+01
0.864479860651D-09 0.000000000000D+00 0.000000000000D+00 0.129070594645D-04 0.691335820838D-08  6 -2 1 25 -24 3 -3 4 0.12576159D-01 0.19315271D+00 0.95470689D+05 0.95470689D+05 0.95470689D+05 0.11654254D+01  1  2 11  8  6  5       21 0.671921398309D-07 0.100000000000D+01
0.864479860651D-09 0.000000000000D+00 0.000000000000D+00 0.129070594645D-04 0.691335820838D-08  6 -2 1 25 -24 4 -4 4 0.12576159D-01 0.19315271D+00 0.95470689D+05 0.95470689D+05 0.95470689D+05 0.11654254D+01  1  2 11  8  6  5       21 0.671921398309D-07 0.100000000000D+01
  </mgrwgt>
  </event>
  <event>
  6     66 0.39191994E-03 0.30607317E+02 0.75467711E-02 0.10989063E+00
       -2 -1    0    0    0  503 0.00000000E+00 0.00000000E+00 0.32171409E+03 0.32171425E+03 0.32000000E+00 0.0000E+00 0.9000E+01
        1 -1    0    0  502    0 0.00000000E+00 0.00000000E+00 -.79120872E+03 0.79120879E+03 0.32000000E+00 0.0000E+00 0.9000E+01
       25  1    1    2    0    0 -.22814115E+03 -.23198501E+01 -.56069936E+03 0.61811208E+03 0.12500000E+03 0.0000E+00 0.9000E+01
      -24  1    1    2    0    0 0.21952227E+03 -.39796418E+02 0.32419816E+02 0.23935756E+03 0.80419002E+02 0.0000E+00 0.9000E+01
       21  1    1    2  502  501 -.97731788E+01 0.95175920E+01 -.95611722E+02 0.96582936E+02 0.75000000E+00 0.0000E+00 0.9000E+01
       21  1    1    2  501  503 0.18392058E+02 0.32598676E+02 0.15439663E+03 0.15887046E+03 0.75000000E+00 0.0000E+00 0.9000E+01
#aMCatNLO 2  0  0  1  5 0.13633427D+03 0.00000000D+00  -5  6  0 0.00000000D+00 0.00000000D+00 0.00000000D+00 0.00000000D+00 0.00000000D+00
  <mgrwgt>
 0.5594148441D+00    1    2    0
 0.360407773449322D+03 0.000000000000000D+00 0.000000000000000D+00 0.360407773449322D+03
 0.360407773449322D+03 0.000000000000000D+00 0.000000000000000D+00 -.360407773449322D+03
 0.326883726170304D+03 -.219735684819595D+03 0.125765887145191D+02 -.206847839408953D+03
 0.348671822403095D+03 0.228358985422126D+03 -.241357163125180D+02 0.249748803317621D+03
 0.452599983252455D+02 -.862330060253152D+01 0.115591275979989D+02 -.429009639086675D+02
 0.000000000000000D+00 0.000000000000000D+00 0.000000000000000D+00 0.000000000000000D+00
 0.703319121968862D+03 0.000000000000000D+00 0.000000000000000D+00 0.703319121968862D+03
 0.361916140600875D+03 0.000000000000000D+00 0.000000000000000D+00 -.361916140600875D+03
 0.332362041552325D+03 -.228140556207187D+03 -.232047627713374D+01 -.206847839408953D+03
 0.344406380764216D+03 0.219522776766153D+03 -.397972973834873D+02 0.249748803317621D+03
 0.450182456708927D+02 -.977427807866524D+01 0.951909801572541D+01 -.429009639086675D+02
 0.343448594582303D+03 0.183920575197000D+02 0.325986756448956D+02 0.341402981367987D+03
0.358745955514D-01 0.000000000000D+00 0.000000000000D+00 0.412051209372D-04 0.137819194371D-06  6 -2 1 25 -24 21 21 4 0.49494436D-01 0.12172430D+00 0.75179114D+05 0.75179114D+05 0.75179114D+05 0.11751282D+01  1  2  1  1  6  1       -2 0.559414844119D+00 0.100000000000D+01
  </mgrwgt>
  </event>
  <event>
  5     66 -.39191994E-03 0.12366936E+03 0.75467711E-02 0.10780161E+00
       -2 -1    0    0    0  501 0.00000000E+00 0.00000000E+00 0.76053336E+03 0.76053343E+03 0.32000000E+00 0.0000E+00 0.9000E+01
        1 -1    0    0  502    0 0.00000000E+00 0.00000000E+00 -.12818432E+03 0.12818472E+03 0.32000000E+00 0.0000E+00 0.9000E+01
       25  1    1    2    0    0 -.74590260E+01 0.18606545E+03 0.51191441E+02 0.23004685E+03 0.12500000E+03 0.0000E+00 0.9000E+01
      -24  1    1    2    0    0 0.11416891E+03 -.12236586E+03 0.34218123E+03 0.38931112E+03 0.80419002E+02 0.0000E+00 0.9000E+01
       21  1    1    2  502  501 -.10670989E+03 -.63699589E+02 0.23897637E+03 0.26936018E+03 0.75000000E+00 0.0000E+00 0.9000E+01
#aMCatNLO 1  0  0  1  5 0.87323960D+02 0.00000000D+00  -5  6  0 0.00000000D+00 0.00000000D+00 0.00000000D+00 0.00000000D+00 0.00000000D+00
  <mgrwgt>
 -.3468964341D-01    9    4    0
 0.312231742304065D+03 0.000000000000000D+00 0.000000000000000D+00 0.312231742304065D+03
 0.312231742304065D+03 0.000000000000000D+00 0.000000000000000D+00 -.312231742304065D+03
 0.275558557016328D+03 -.745836315897754D+01 0.186065843976464D+03 -.160098072659342D+03
 0.207553956236996D+03 0.114169412001390D+03 -.122365560882415D+03 0.927547501125810D+02
 0.141350971354805D+03 -.106711048842412D+03 -.637002830940495D+02 0.673433225467608D+02
 0.000000000000000D+00 -.000000000000000D+00 -.000000000000000D+00 0.000000000000000D+00
 0.576621778337823D+03 0.000000000000000D+00 0.000000000000000D+00 0.576621778337823D+03
 0.322564028553922D+03 0.000000000000000D+00 0.000000000000000D+00 -.322564028553922D+03
 0.299015819634230D+03 0.153464359016767D+02 0.218903070849658D+03 -.160098072659342D+03
 0.204625745085485D+03 0.130528782776562D+03 -.988092748472596D+02 0.927547501125810D+02
 0.126897980059679D+03 -.960642750149765D+02 -.483697148785948D+02 0.673433225467608D+02
 0.268646262112351D+03 -.498109436632620D+02 -.717240811238037D+02 0.254057749783901D+03
 0.312231742304065D+03 0.000000000000000D+00 0.000000000000000D+00 0.312231742304065D+03
 0.312231742304065D+03 0.000000000000000D+00 0.000000000000000D+00 -.312231742304065D+03
 0.275558557016328D+03 -.745836315897754D+01 0.186065843976464D+03 -.160098072659342D+03
 0.207553956236996D+03 0.114169412001390D+03 -.122365560882415D+03 0.927547501125810D+02
 0.000000000000000D+00 -.000000000000000D+00 -.000000000000000D+00 0.000000000000000D+00
 0.141350971354805D+03 -.106711048842412D+03 -.637002830940495D+02 0.673433225467608D+02
 0.576621778337823D+03 0.000000000000000D+00 0.000000000000000D+00 0.576621778337823D+03
 0.322564028553922D+03 0.000000000000000D+00 0.000000000000000D+00 -.322564028553922D+03
 0.299015819634230D+03 0.153464359016767D+02 0.218903070849658D+03 -.160098072659342D+03
 0.204625745085485D+03 0.130528782776562D+03 -.988092748472596D+02 0.927547501125810D+02
 0.268646262112351D+03 -.498109436632620D+02 -.717240811238037D+02 0.254057749783901D+03
 0.126897980059679D+03 -.960642750149765D+02 -.483697148785948D+02 0.673433225467608D+02
0.662381465771D-03 0.000000000000D+00 0.000000000000D+00 0.823614310802D-06 0.000000000000D+00  6 -2 1 25 -24 21 21 2 0.11700517D+00 0.19720701D-01 0.71350937D+05 0.71350937D+05 0.71350937D+05 0.11772839D+01  1  2  2  1  6  1       -2 0.124431942741D-01 0.100000000000D+01
-.323200878053D-04 0.349548302784D-04 -.254371923760D-05 0.823614310802D-06 0.000000000000D+00  6 -2 1 25 -24 21 21 4 0.11700517D+00 0.19720701D-01 0.71350937D+05 0.71350937D+05 0.71350937D+05 0.11772839D+01  1  2  3  1  6  1       -2 -.841508746734D-03 0.100000000000D+01
0.112707084662D-04 0.000000000000D+00 0.000000000000D+00 0.823614310802D-06 0.000000000000D+00  6 -2 1 25 -24 21 21 4 0.11700517D+00 0.19720701D-01 0.71350937D+05 0.71350937D+05 0.71350937D+05 0.11772839D+01  1  2 15  1  6  1       -2 0.293452165519D-03 0.100000000000D+01
0.283535409799D-02 0.000000000000D+00 0.000000000000D+00 0.805001334971D-06 0.000000000000D+00  6 -2 1 25 -24 21 21 4 0.23351722D+00 0.19720701D-01 0.99168158D+05 0.99168158D+05 0.99168158D+05 0.11639051D+01  1  2 12  1  6  1       -2 0.106248178384D-01 0.100000000000D+01
-.465895781790D-02 0.000000000000D+00 0.000000000000D+00 0.823614310802D-06 0.000000000000D+00  6 -2 1 25 -24 21 21 4 0.11700517D+00 0.19720701D-01 0.71350937D+05 0.71350937D+05 0.71350937D+05 0.11772839D+01  1  2  4  1  6  1       -2 -.121303932652D+00 0.100000000000D+01
-.367261588384D-02 0.000000000000D+00 -.357976747409D-03 0.823614310802D-06 0.000000000000D+00  6 -2 1 25 -24 21 21 4 0.21840281D+00 0.19720701D-01 0.71350937D+05 0.71350937D+05 0.71350937D+05 0.11772839D+01  1  2  5  1  6  1       -2 -.179425054210D-01 0.100000000000D+01
0.329344874205D-02 0.000000000000D+00 0.298023468785D-03 0.823614310802D-06 0.000000000000D+00  6 -2 1 25 -24 21 21 4 0.11700517D+00 0.19720701D-01 0.71350937D+05 0.71350937D+05 0.71350937D+05 0.11772839D+01  1  2  6  1  6  1       -2 0.857505691212D-01 0.100000000000D+01
0.212024173414D-03 0.000000000000D+00 0.000000000000D+00 0.805001334971D-06 0.000000000000D+00  6 21 1 25 -24 2 21 4 0.23351722D+00 0.19720701D-01 0.99168158D+05 0.99168158D+05 0.99168158D+05 0.11639051D+01  3  4 12  4  5  1       -2 0.833502309136D-02 0.100000000000D+01
-.229663088545D-03 0.000000000000D+00 -.243364256461D-04 0.823614310802D-06 0.000000000000D+00  6 21 1 25 -24 2 21 4 0.21840281D+00 0.19720701D-01 0.71350937D+05 0.71350937D+05 0.71350937D+05 0.11772839D+01  3  4  5  4  5  1       -2 -.120487530778D-01 0.100000000000D+01
  </mgrwgt>
  </event>
  <event>
  6     66 0.39191994E-03 0.44188064E+02 0.75467711E-02 0.11186525E+00
       21 -1    0    0  503  501 0.00000000E+00 0.00000000E+00 0.16863203E+03 0.16863370E+03 0.75000000E+00 0.0000E+00 0.9000E+01
        1 -1    0    0  502    0 0.00000000E+00 0.00000000E+00 -.64597382E+03 0.64597390E+03 0.32000000E+00 0.0000E+00 0.9000E+01
       25  1    1    2    0    0 -.13867580E+03 0.75598597E+02 -.17219355E+03 0.26499385E+03 0.12500000E+03 0.0000E+00 0.9000E+01
      -24  1    1    2    0    0 0.12004950E+03 -.59247824E+02 -.36154985E+03 0.39383714E+03 0.80419002E+02 0.0000E+00 0.9000E+01
        2  1    1    2  503    0 0.12033798E+02 -.70385995E+02 0.69645612E+02 0.99747753E+02 0.32000000E+00 0.0000E+00 0.9000E+01
       21  1    1    2  502  501 0.65925019E+01 0.54035222E+02 -.13244007E+02 0.56028854E+02 0.75000000E+00 0.0000E+00 0.9000E+01
#aMCatNLO 2  0  0  1  2 0.12622085D+03 0.00000000D+00  -5  6  0 0.00000000D+00 0.00000000D+00 0.00000000D+00 0.00000000D+00 0.00000000D+00
  <mgrwgt>
 0.1521032331D+00    1    2    0
 0.227338067621661D+03 0.000000000000000D+00 0.000000000000000D+00 0.227338067621661D+03
 0.227338067621661D+03 0.000000000000000D+00 0.000000000000000D+00 -.227338067621661D+03
 0.194106688585362D+03 -.133401114191911D+03 0.447441182648107D+02 0.474817140237795D+02
 0.196602591540360D+03 0.125029185141609D+03 -.883768951851835D+02 -.935018198019027D+02
 0.000000000000000D+00 0.000000000000000D+00 -.000000000000000D+00 0.000000000000000D+00
 0.639668551175994D+02 0.837192905030226D+01 0.436327769203728D+02 0.460201057781232D+02
 0.462333978411394D+03 0.000000000000000D+00 0.000000000000000D+00 0.462333978411394D+03
 0.235614293044113D+03 0.000000000000000D+00 0.000000000000000D+00 -.235614293044113D+03
 0.206943218236757D+03 -.138676029124603D+03 0.755972311251031D+02 0.474817140237795D+02
 0.182022148749524D+03 0.120049223140702D+03 -.592489695950050D+02 -.935018198019027D+02
 0.237699003615999D+03 0.120337982603273D+02 -.703859949594339D+02 0.226719685367281D+03
 0.712839008532270D+02 0.659300772357380D+01 0.540377334293357D+02 0.460201057781232D+02
0.157304491353D-03 0.000000000000D+00 0.000000000000D+00 0.771156501347D-05 0.124584998869D-08  6 21 1 25 -24 2 21 4 0.25943513D-01 0.99380678D-01 0.58428419D+05 0.58428419D+05 0.58428419D+05 0.11856391D+01  1  2  1  4  5  1       -2 0.152103233146D+00 0.100000000000D+01
  </mgrwgt>
  </event>
  <event>
  6     66 -.39191994E-03 0.34598948E+02 0.75467711E-02 0.12357147E+00
       -4 -1    0    0    0  501 0.00000000E+00 0.00000000E+00 0.27520531E+02 0.27564145E+02 0.15500000E+01 0.0000E+00 0.9000E+01
        3 -1    0    0  502    0 -.00000000E+00 -.00000000E+00 -.74121187E+03 0.74121204E+03 0.50000000E+00 0.0000E+00 0.9000E+01
       25  1    1    2    0    0 -.16516294E+02 0.26970759E+02 -.18490774E+03 0.22542423E+03 0.12500000E+03 0.0000E+00 0.9000E+01
      -24  1    1    2    0    0 -.12788339E+02 -.10760804E+02 -.29933929E+03 0.31040387E+03 0.80419002E+02 0.0000E+00 0.9000E+01
       21  1    1    2  502  503 0.31159877E+02 -.17575130E+02 -.18445897E+03 0.18789758E+03 0.75000000E+00 0.0000E+00 0.9000E+01
       21  1    1    2  503  501 -.18552443E+01 0.13651745E+01 -.44985335E+02 0.45050511E+02 0.75000000E+00 0.0000E+00 0.9000E+01
#aMCatNLO 2  0  0  5  2 0.76695145D+01 0.00000000D+00  -5  6  0 0.00000000D+00 0.00000000D+00 0.00000000D+00 0.00000000D+00 0.00000000D+00
  <mgrwgt>
 -.1160826036D-01    4    2    0
 0.142882375532510D+03 0.000000000000000D+00 0.000000000000000D+00 0.142882375532510D+03
 0.142882375532510D+03 -.000000000000000D+00 -.000000000000000D+00 -.142882375532510D+03
 0.145807061136852D+03 -.180147650403761D+02 0.277996434014770D+02 0.673598333182064D+02
 0.871757205377780D+02 -.136893503609483D+02 -.102624060486500D+02 -.289771462656016D+02
 0.527819693903901D+02 0.317041154013244D+02 -.175372373528270D+02 -.383826870526048D+02
 0.000000000000000D+00 0.000000000000000D+00 0.000000000000000D+00 -.000000000000000D+00
 0.142882375532510D+03 0.000000000000000D+00 0.000000000000000D+00 0.142882375532510D+03
 0.142882375532510D+03 -.000000000000000D+00 -.000000000000000D+00 -.142882375532510D+03
 0.144625418027982D+03 -.164940035289946D+02 0.269584290908255D+02 0.655187186100962D+02
 0.874724656096058D+02 -.127748581516428D+02 -.107682604694055D+02 -.300842791358141D+02
 0.446502861758575D+02 0.311509804451158D+02 -.175775185205985D+02 -.267263038138834D+02
 0.901658125157518D+01 -.188211876447842D+01 0.138734989917855D+01 -.870813566039853D+01
-.105178318874D-03 0.000000000000D+00 0.000000000000D+00 0.174411751630D-04 0.000000000000D+00  6 -4 3 25 -24 21 21 4 0.42372957D-02 0.11403596D+00 0.15522152D+05 0.15522152D+05 0.15522152D+05 0.12461320D+01  1  2 13  3  6  5       21 -.102993651026D-01 0.100000000000D+01
-.711779679361D-04 0.000000000000D+00 0.000000000000D+00 0.174411751630D-04 0.000000000000D+00  6 -4 3 25 -24 21 21 4 0.42372957D-02 0.11403596D+00 0.15522152D+05 0.15522152D+05 0.15522152D+05 0.12461320D+01  1  2 13  3  6  5       21 -.696995242825D-02 0.100000000000D+01
-.194081473514D-04 0.000000000000D+00 0.000000000000D+00 0.174568624265D-04 0.000000000000D+00  6 -4 3 25 -24 21 21 4 0.42372957D-02 0.11403596D+00 0.15346876D+05 0.15346876D+05 0.15346876D+05 0.12466922D+01  1  2  8  3  6  5       21 -.190210455217D-02 0.100000000000D+01
0.772358905373D-04 0.000000000000D+00 0.000000000000D+00 0.174568624265D-04 0.878398594981D-05  6 -4 3 25 -24 21 21 4 0.42372957D-02 0.11403596D+00 0.15522152D+05 0.15522152D+05 0.15522152D+05 0.12461320D+01  1  2  1  3  6  5       21 0.756316172557D-02 0.100000000000D+01
  </mgrwgt>
  </event>
  <event>
  6     66 -.39191994E-03 0.16354324E+02 0.75467711E-02 0.11983028E+00
       -2 -1    0    0    0  501 0.00000000E+00 0.00000000E+00 0.24779931E+03 0.24779951E+03 0.32000000E+00 0.0000E+00 0.9000E+01
        1 -1    0    0  502    0 0.00000000E+00 0.00000000E+00 -.10333129E+03 0.10333178E+03 0.32000000E+00 0.0000E+00 0.9000E+01
       25  1    1    2    0    0 -.26259133E+02 -.82026549E+02 0.12680193E+03 0.19779188E+03 0.12500000E+03 0.0000E+00 0.9000E+01
      -24  1    1    2    0    0 0.27801582E+02 0.98057333E+02 0.11948641E+02 0.13037697E+03 0.80419002E+02 0.0000E+00 0.9000E+01
       21  1    1    2  503  501 -.98794944E+00 -.17300264E+02 0.88381810E+01 0.19466667E+02 0.75000000E+00 0.0000E+00 0.9000E+01
       21  1    1    2  502  503 -.55450011E+00 0.12694800E+01 -.31207289E+01 0.34957830E+01 0.75000000E+00 0.0000E+00 0.9000E+01
#aMCatNLO 2  0  0  5  2 0.55358806D+01 0.00000000D+00  -5  6  0 0.00000000D+00 0.00000000D+00 0.00000000D+00 0.00000000D+00 0.00000000D+00
  <mgrwgt>
 -.1037715063D+00    3    2    0
 0.160017325305927D+03 0.000000000000000D+00 0.000000000000000D+00 0.160017325305927D+03
 0.160017325305927D+03 -.000000000000000D+00 -.000000000000000D+00 -.160017325305927D+03
 0.158488354116202D+03 -.259797691722921D+02 -.791231047608086D+02 0.505781007673014D+02
 0.139301093047576D+03 0.280446876466938D+02 0.100583943929286D+03 -.450992714831247D+02
 0.222452034480764D+02 -.206491847440176D+01 -.214608391684769D+02 -.547882928417667D+01
 0.000000000000000D+00 0.000000000000000D+00 0.000000000000000D+00 0.000000000000000D+00
 0.160017325305927D+03 0.000000000000000D+00 0.000000000000000D+00 0.160017325305927D+03
 0.160017325305927D+03 -.000000000000000D+00 -.000000000000000D+00 -.160017325305927D+03
 0.159828340397453D+03 -.262715034639142D+02 -.821551192398526D+02 0.498040448421149D+02
 0.137579861313427D+03 0.277909288257574D+02 0.979466111187124D+02 -.457725674395993D+02
 0.170868312059772D+02 -.914894461587667D+00 -.170097295933386D+02 0.133860671864897D+01
 0.553961769499716D+01 -.604530900255593D+00 0.121823771447878D+01 -.537008412116452D+01
-.393030906518D-04 0.000000000000D+00 0.000000000000D+00 0.381865103775D-04 0.000000000000D+00  6 -2 1 25 -24 21 21 4 0.38123024D-01 0.15897175D-01 0.22501084D+05 0.22501084D+05 0.22501084D+05 0.12282318D+01  1  2 13  3  6  5       21 -.172348578346D-01 0.100000000000D+01
-.369054302272D-04 0.000000000000D+00 0.000000000000D+00 0.381865103775D-04 0.000000000000D+00  6 -2 1 25 -24 21 21 4 0.38123024D-01 0.15897175D-01 0.22501084D+05 0.22501084D+05 0.22501084D+05 0.12282318D+01  1  2 13  3  6  5       21 -.161834561288D-01 0.100000000000D+01
-.160928902069D-03 0.000000000000D+00 0.000000000000D+00 0.381176190954D-04 0.000000000000D+00  6 -2 1 25 -24 21 21 4 0.38123024D-01 0.15897175D-01 0.23037126D+05 0.23037126D+05 0.23037126D+05 0.12271234D+01  1  2  8  3  6  5       21 -.703531922992D-01 0.100000000000D+01
  </mgrwgt>
  </event>
  <event>
  5     66 0.39191994E-03 0.41950646E+02 0.75467711E-02 0.11414260E+00
       -2 -1    0    0    0  501 0.00000000E+00 0.00000000E+00 0.27121072E+03 0.27121091E+03 0.32000000E+00 0.0000E+00 0.9000E+01
        1 -1    0    0  502    0 0.00000000E+00 0.00000000E+00 -.19145765E+03 0.19145791E+03 0.32000000E+00 0.0000E+00 0.9000E+01
       25  1    1    2    0    0 0.13953448E+03 0.25503125E+02 0.12456364E+03 0.22640976E+03 0.12500000E+03 0.0000E+00 0.9000E+01
      -24  1    1    2    0    0 -.16422123E+03 0.84073705E+01 -.58438151E+02 0.19214976E+03 0.80419002E+02 0.0000E+00 0.9000E+01
       21  1    1    2  502  501 0.24686746E+02 -.33910495E+02 0.13627589E+02 0.44109305E+02 0.75000000E+00 0.0000E+00 0.9000E+01
#aMCatNLO 1  0  0  1  5 0.62762793D+01 0.00000000D+00  -5  6  0 0.00000000D+00 0.00000000D+00 0.00000000D+00 0.00000000D+00 0.00000000D+00
  <mgrwgt>
 0.1634518330D+00   11    4    0
 0.227871612601634D+03 0.000000000000000D+00 0.000000000000000D+00 0.227871612601634D+03
 0.227871612601634D+03 0.000000000000000D+00 0.000000000000000D+00 -.227871612601634D+03
 0.208051185422378D+03 0.139532717004826D+03 0.255055478290770D+02 0.868353825974552D+02
 0.205297823016551D+03 -.164222968040187D+03 0.840976147783912D+01 -.929519922375106D+02
 0.423942167643389D+02 0.246902510353610D+02 -.339153093069162D+02 0.611660964005540D+01
 0.000000000000000D+00 0.000000000000000D+00 0.000000000000000D+00 0.000000000000000D+00
 0.281465969162673D+03 0.000000000000000D+00 0.000000000000000D+00 0.281465969162673D+03
 0.228077043381714D+03 0.000000000000000D+00 0.000000000000000D+00 -.228077043381714D+03
 0.207459028137527D+03 0.139139709163835D+03 0.226717008343901D+02 0.868353825974552D+02
 0.205513245998058D+03 -.164611531223521D+03 0.560796341050148D+01 -.929519922375106D+02
 0.428141659885241D+02 0.246096571980805D+02 -.344964442862890D+02 0.611660964005540D+01
 0.537565724202770D+02 0.862164861605243D+00 0.621678004139744D+01 0.533889257809594D+02
 0.227871612601634D+03 0.000000000000000D+00 0.000000000000000D+00 0.227871612601634D+03
 0.227871612601634D+03 0.000000000000000D+00 0.000000000000000D+00 -.227871612601634D+03
 0.208051185422378D+03 0.139532717004826D+03 0.255055478290770D+02 0.868353825974552D+02
 0.205297823016551D+03 -.164222968040187D+03 0.840976147783912D+01 -.929519922375106D+02
 0.000000000000000D+00 0.000000000000000D+00 0.000000000000000D+00 0.000000000000000D+00
 0.423942167643389D+02 0.246902510353610D+02 -.339153093069162D+02 0.611660964005540D+01
 0.281465969162673D+03 0.000000000000000D+00 0.000000000000000D+00 0.281465969162673D+03
 0.228077043381714D+03 0.000000000000000D+00 0.000000000000000D+00 -.228077043381714D+03
 0.207459028137527D+03 0.139139709163835D+03 0.226717008343901D+02 0.868353825974552D+02
 0.205513245998058D+03 -.164611531223521D+03 0.560796341050148D+01 -.929519922375106D+02
 0.537565724202770D+02 0.862164861605243D+00 0.621678004139744D+01 0.533889257809594D+02
 0.428141659885241D+02 0.246096571980805D+02 -.344964442862890D+02 0.611660964005540D+01
0.843255139596D-04 0.000000000000D+00 0.000000000000D+00 0.772554675365D-05 0.000000000000D+00  6 -2 1 25 -24 21 21 2 0.41724761D-01 0.29455058D-01 0.42862126D+05 0.42862126D+05 0.42862126D+05 0.11989643D+01  1  2  2  1  6  1       -2 0.904737974585D-02 0.100000000000D+01
0.124773326657D-04 0.444997962793D-05 -.323832177023D-06 0.772554675365D-05 0.000000000000D+00  6 -2 1 25 -24 21 21 4 0.41724761D-01 0.29455058D-01 0.42862126D+05 0.42862126D+05 0.42862126D+05 0.11989643D+01  1  2  3  1  6  1       -2 0.192441198758D-02 0.100000000000D+01
0.234394853025D-05 0.000000000000D+00 0.000000000000D+00 0.772554675365D-05 0.000000000000D+00  6 -2 1 25 -24 21 21 4 0.41724761D-01 0.29455058D-01 0.42862126D+05 0.42862126D+05 0.42862126D+05 0.11989643D+01  1  2 15  1  6  1       -2 0.361513375552D-03 0.100000000000D+01
0.100965127218D-01 0.000000000000D+00 0.000000000000D+00 0.770857959441D-05 0.000000000000D+00  6 -2 1 25 -24 21 21 4 0.51793188D-01 0.29455058D-01 0.44174325D+05 0.44174325D+05 0.44174325D+05 0.11976469D+01  1  2 12  1  6  1       -2 0.101403118594D+01 0.100000000000D+01
-.105164353047D-01 0.000000000000D+00 0.000000000000D+00 0.772554675365D-05 0.000000000000D+00  6 -2 1 25 -24 21 21 4 0.41724761D-01 0.29455058D-01 0.42862126D+05 0.42862126D+05 0.42862126D+05 0.11989643D+01  1  2  4  1  6  1       -2 -.162197760605D+01 0.100000000000D+01
-.123767390722D-01 0.000000000000D+00 -.102479168469D-03 0.772554675365D-05 0.000000000000D+00  6 -2 1 25 -24 21 21 4 0.51558560D-01 0.29455058D-01 0.42862126D+05 0.42862126D+05 0.42862126D+05 0.11989643D+01  1  2  5  1  6  1       -2 -.125981336658D+01 0.100000000000D+01
0.121280884748D-01 0.000000000000D+00 0.100226483263D-03 0.772554675365D-05 0.000000000000D+00  6 -2 1 25 -24 21 21 4 0.41724761D-01 0.29455058D-01 0.42862126D+05 0.42862126D+05 0.42862126D+05 0.11989643D+01  1  2  6  1  6  1       -2 0.187054713316D+01 0.100000000000D+01
0.163910914369D-02 0.000000000000D+00 0.000000000000D+00 0.772554675365D-05 0.706795586816D-06  6 -2 1 25 -24 21 21 4 0.51538234D-01 0.29481612D-01 0.44174325D+05 0.44174325D+05 0.44174325D+05 0.11976469D+01  1  2 11  1  6  1       -2 0.166071772541D+00 0.100000000000D+01
0.306544650090D-03 0.000000000000D+00 0.000000000000D+00 0.770857959441D-05 0.000000000000D+00  6 21 1 25 -24 2 21 4 0.51793188D-01 0.29455058D-01 0.44174325D+05 0.44174325D+05 0.44174325D+05 0.11976469D+01  3  4 12  4  5  1       -2 0.373405556970D+00 0.100000000000D+01
-.368481640842D-03 0.000000000000D+00 -.306178481794D-05 0.772554675365D-05 0.000000000000D+00  6 21 1 25 -24 2 21 4 0.51558560D-01 0.29455058D-01 0.42862126D+05 0.42862126D+05 0.42862126D+05 0.11989643D+01  3  4  5  4  5  1       -2 -.455517171517D+00 0.100000000000D+01
0.531729958128D-04 0.000000000000D+00 0.000000000000D+00 0.772554675365D-05 0.458446734810D-07  6 21 1 25 -24 2 21 4 0.51538234D-01 0.29481612D-01 0.44174325D+05 0.44174325D+05 0.44174325D+05 0.11976469D+01  3  4 11  4  5  1       -2 0.653710234601D-01 0.100000000000D+01
  </mgrwgt>
  </event>
  <event>
  5     66 0.39191994E-03 0.23659293E+02 0.75467711E-02 0.12435390E+00
       -2 -1    0    0    0  501 0.00000000E+00 0.00000000E+00 0.34691928E+02 0.34693403E+02 0.32000000E+00 0.0000E+00 0.9000E+01
        1 -1    0    0  502    0 -.00000000E+00 -.00000000E+00 -.90915042E+03 0.90915047E+03 0.32000000E+00 0.0000E+00 0.9000E+01
       25  1    1    2    0    0 -.33103638E+02 -.17803603E+02 -.18044722E+03 0.22270837E+03 0.12500000E+03 0.0000E+00 0.9000E+01
      -24  1    1    2    0    0 0.10970933E+02 0.26163547E+02 -.12320427E+03 0.14983792E+03 0.80419002E+02 0.0000E+00 0.9000E+01
       21  1    1    2  502  501 0.22132704E+02 -.83599440E+01 -.57080700E+03 0.57129759E+03 0.75000000E+00 0.0000E+00 0.9000E+01
#aMCatNLO 1  0  0  5  5 0.22800791D+02 0.00000000D+00  -5  6  0 0.00000000D+00 0.00000000D+00 0.00000000D+00 0.00000000D+00 0.00000000D+00
  <mgrwgt>
 0.1409660299D+00    3    2    0
 0.177597588332619D+03 0.000000000000000D+00 0.000000000000000D+00 0.177597588332619D+03
 0.177597588332619D+03 -.000000000000000D+00 -.000000000000000D+00 -.177597588332619D+03
 0.147548482005109D+03 -.331038410106149D+02 -.178035257514153D+02 0.687948015708653D+02
 0.948399100312426D+02 0.109708028248685D+02 0.261635958750290D+02 0.415030157534327D+02
 0.112806784628885D+03 0.221330381857463D+02 -.836007012361364D+01 -.110297817324298D+03
 0.000000000000000D+00 -.000000000000000D+00 0.000000000000000D+00 0.000000000000000D+00
 0.177597588332619D+03 0.000000000000000D+00 0.000000000000000D+00 0.177597588332619D+03
 0.177597588332619D+03 -.000000000000000D+00 -.000000000000000D+00 -.177597588332619D+03
 0.139845535880035D+03 -.296977195308372D+02 -.190900827157830D+02 0.518207304285298D+02
 0.906399869485016D+02 0.131690638249362D+02 0.253332708217606D+02 0.305481984264226D+02
 0.257778654925871D+02 0.190209027752212D+02 -.543358987646252D+01 0.165281489593934D+02
 0.989317883441139D+02 -.249224706932016D+01 -.809598229515053D+00 -.988970778143458D+02
0.248000804684D-03 0.000000000000D+00 0.000000000000D+00 0.708580577594D-04 0.000000000000D+00  6 -2 1 25 -24 21 21 2 0.53373375D-02 0.13986941D+00 0.14335870D+05 0.14335870D+05 0.14335870D+05 0.12500709D+01  1  2  2  3  6  5       21 0.111012196277D+00 0.100000000000D+01
0.392251843360D-04 0.130873620182D-04 -.952388390100D-06 0.708580577594D-04 0.000000000000D+00  6 -2 1 25 -24 21 21 4 0.53373375D-02 0.13986941D+00 0.14335870D+05 0.14335870D+05 0.14335870D+05 0.12500709D+01  1  2  3  3  6  5       21 0.274379629800D-01 0.100000000000D+01
0.359667696387D-05 0.000000000000D+00 0.000000000000D+00 0.708580577594D-04 0.000000000000D+00  6 -2 1 25 -24 21 21 4 0.53373375D-02 0.13986941D+00 0.14335870D+05 0.14335870D+05 0.14335870D+05 0.12500709D+01  1  2 15  3  6  5       21 0.251587063404D-02 0.100000000000D+01
  </mgrwgt>
  </event>
  <event>
  5     66 0.39191994E-03 0.32880754E+02 0.75467711E-02 0.11754662E+00
       -2 -1    0    0    0  501 0.00000000E+00 0.00000000E+00 0.10998579E+03 0.10998626E+03 0.32000000E+00 0.0000E+00 0.9000E+01
        1 -1    0    0  502    0 -.00000000E+00 -.00000000E+00 -.28513007E+03 0.28513025E+03 0.32000000E+00 0.0000E+00 0.9000E+01
       25  1    1    2    0    0 0.19204905E+02 0.98319694E+02 -.11274610E+03 0.19588842E+03 0.12500000E+03 0.0000E+00 0.9000E+01
      -24  1    1    2    0    0 -.42019406E+02 -.12198780E+03 -.34017171E+02 0.15579165E+03 0.80419002E+02 0.0000E+00 0.9000E+01
       21  1    1    2  502  501 0.22814501E+02 0.23668104E+02 -.28381007E+02 0.43436444E+02 0.75000000E+00 0.0000E+00 0.9000E+01
#aMCatNLO 1  0  0  5  1 0.28538802D+01 0.00000000D+00  -5  6  0 0.00000000D+00 0.00000000D+00 0.00000000D+00 0.00000000D+00 0.00000000D+00
  <mgrwgt>
 0.1318432056D+00   19    2    0
 0.177088636076511D+03 0.000000000000000D+00 0.000000000000000D+00 0.177088636076511D+03
 0.177088636076511D+03 -.000000000000000D+00 -.000000000000000D+00 -.177088636076511D+03
 0.162774953883691D+03 0.192024153128583D+02 0.983171113738145D+02 -.289084497872024D+02
 0.156980561208285D+03 -.420218073440644D+02 -.121990288753272D+03 0.390924263806839D+02
 0.344217570610463D+02 0.228193920312060D+02 0.236731773794571D+02 -.101839765934816D+02
 0.000000000000000D+00 -.000000000000000D+00 0.000000000000000D+00 0.000000000000000D+00
 0.177088636076511D+03 0.000000000000000D+00 0.000000000000000D+00 0.177088636076511D+03
 0.177088636076511D+03 -.000000000000000D+00 -.000000000000000D+00 -.177088636076511D+03
 0.163610968304368D+03 0.202111734572531D+02 0.993636121067250D+02 -.293586444863841D+02
 0.155837482614939D+03 -.410549833238835D+02 -.120987291105781D+03 0.386609462966364D+02
 0.318602018259560D+02 0.224275019366955D+02 0.215478188524496D+02 -.691166549915329D+01
 0.286861940775963D+01 -.158369207006512D+01 0.758601466065857D-01 -.239063631109897D+01
0.206700521898D-03 0.000000000000D+00 0.000000000000D+00 0.164727808327D-04 0.000000000000D+00  6 -2 1 25 -24 21 21 2 0.16920941D-01 0.43866214D-01 0.29774059D+05 0.29774059D+05 0.29774059D+05 0.12152431D+01  1  2  2  3  6  5       21 0.688075532878D-01 0.100000000000D+01
0.339501715638D-04 0.109078862178D-04 -.793784429587D-06 0.164727808327D-04 0.000000000000D+00  6 -2 1 25 -24 21 21 4 0.16920941D-01 0.43866214D-01 0.29774059D+05 0.29774059D+05 0.29774059D+05 0.12152431D+01  1  2  3  3  6  5       21 0.166902509667D-01 0.100000000000D+01
0.259916145287D-05 0.000000000000D+00 0.000000000000D+00 0.164727808327D-04 0.000000000000D+00  6 -2 1 25 -24 21 21 4 0.16920941D-01 0.43866214D-01 0.29774059D+05 0.29774059D+05 0.29774059D+05 0.12152431D+01  1  2 15  3  6  5       21 0.127777430726D-02 0.100000000000D+01
0.263396778646D-06 0.000000000000D+00 0.000000000000D+00 0.164763334950D-04 0.000000000000D+00  6 -2 1 25 -24 21 21 4 0.16920941D-01 0.43866214D-01 0.29688675D+05 0.29688675D+05 0.29688675D+05 0.12153742D+01  1  2 12  3  6  5       21 0.129537665593D-03 0.100000000000D+01
0.231300606396D-06 0.000000000000D+00 0.000000000000D+00 0.164763334950D-04 0.000000000000D+00  6 -2 1 25 -24 21 21 4 0.16920941D-01 0.43866214D-01 0.29688675D+05 0.29688675D+05 0.29688675D+05 0.12153742D+01  1  2 12  3  6  5       21 0.113752874112D-03 0.100000000000D+01
-.538521417057D-03 0.000000000000D+00 0.000000000000D+00 0.164727808327D-04 0.000000000000D+00  6 -2 1 25 -24 21 21 4 0.16920941D-01 0.43866214D-01 0.29774059D+05 0.29774059D+05 0.29774059D+05 0.12152431D+01  1  2  4  3  6  5       21 -.264742626845D+00 0.100000000000D+01
0.611977071711D-03 0.000000000000D+00 0.000000000000D+00 0.164727808327D-04 0.188840983467D-04  6 -2 1 25 -24 21 21 4 0.16920941D-01 0.43866214D-01 0.29688675D+05 0.29688675D+05 0.29688675D+05 0.12153742D+01  1  2 11  3  6  5       21 0.300968302170D+00 0.100000000000D+01
0.264998023814D-07 0.000000000000D+00 0.000000000000D+00 0.164763334950D-04 0.000000000000D+00  6 -2 1 25 -24 1 -1 4 0.16920941D-01 0.43866214D-01 0.29688675D+05 0.29688675D+05 0.29688675D+05 0.12153742D+01  1  2 12  6  6  5       21 0.130325152677D-04 0.100000000000D+01
0.259006562573D-07 0.000000000000D+00 0.000000000000D+00 0.164763334950D-04 0.000000000000D+00  6 -2 1 25 -24 1 -1 4 0.16920941D-01 0.43866214D-01 0.29688675D+05 0.29688675D+05 0.29688675D+05 0.12153742D+01  1  2 12  6  6  5       21 0.127378571832D-04 0.100000000000D+01
0.432366893761D-05 0.000000000000D+00 0.000000000000D+00 0.164763334950D-04 0.106374562549D-06  6 -2 1 25 -24 1 -1 4 0.16920941D-01 0.43866214D-01 0.29688675D+05 0.29688675D+05 0.29688675D+05 0.12153742D+01  1  2 11  6  6  5       21 0.212636610006D-02 0.100000000000D+01
0.264998023814D-07 0.000000000000D+00 0.000000000000D+00 0.164763334950D-04 0.000000000000D+00  6 -2 1 25 -24 2 -2 4 0.16920941D-01 0.43866214D-01 0.29688675D+05 0.29688675D+05 0.29688675D+05 0.12153742D+01  1  2 12  7  6  5       21 0.130325152677D-04 0.100000000000D+01
0.259006562573D-07 0.000000000000D+00 0.000000000000D+00 0.164763334950D-04 0.000000000000D+00  6 -2 1 25 -24 2 -2 4 0.16920941D-01 0.43866214D-01 0.29688675D+05 0.29688675D+05 0.29688675D+05 0.12153742D+01  1  2 12  7  6  5       21 0.127378571832D-04 0.100000000000D+01
0.429958489611D-05 0.000000000000D+00 0.000000000000D+00 0.164763334950D-04 0.109579809208D-06  6 -2 1 25 -24 2 -2 4 0.16920941D-01 0.43866214D-01 0.29688675D+05 0.29688675D+05 0.29688675D+05 0.12153742D+01  1  2 11  7  6  5       21 0.211452164801D-02 0.100000000000D+01
0.264998023814D-07 0.000000000000D+00 0.000000000000D+00 0.164763334950D-04 0.000000000000D+00  6 -2 1 25 -24 3 -3 4 0.16920941D-01 0.43866214D-01 0.29688675D+05 0.29688675D+05 0.29688675D+05 0.12153742D+01  1  2 12  8  6  5       21 0.130325152677D-04 0.100000000000D+01
0.264998023814D-07 0.000000000000D+00 0.000000000000D+00 0.164763334950D-04 0.000000000000D+00  6 -2 1 25 -24 4 -4 4 0.16920941D-01 0.43866214D-01 0.29688675D+05 0.29688675D+05 0.29688675D+05 0.12153742D+01  1  2 12  8  6  5       21 0.130325152677D-04 0.100000000000D+01
0.259006562573D-07 0.000000000000D+00 0.000000000000D+00 0.164763334950D-04 0.000000000000D+00  6 -2 1 25 -24 3 -3 4 0.16920941D-01 0.43866214D-01 0.29688675D+05 0.29688675D+05 0.29688675D+05 0.12153742D+01  1  2 12  8  6  5       21 0.127378571832D-04 0.100000000000D+01
0.259006562573D-07 0.000000000000D+00 0.000000000000D+00 0.164763334950D-04 0.000000000000D+00  6 -2 1 25 -24 4 -4 4 0.16920941D-01 0.43866214D-01 0.29688675D+05 0.29688675D+05 0.29688675D+05 0.12153742D+01  1  2 12  8  6  5       21 0.127378571832D-04 0.100000000000D+01
0.432566134891D-05 0.000000000000D+00 0.000000000000D+00 0.164763334950D-04 0.106014146572D-06  6 -2 1 25 -24 3 -3 4 0.16920941D-01 0.43866214D-01 0.29688675D+05 0.29688675D+05 0.29688675D+05 0.12153742D+01  1  2 11  8  6  5       21 0.212734596135D-02 0.100000000000D+01
0.432566134891D-05 0.000000000000D+00 0.000000000000D+00 0.164763334950D-04 0.106014146572D-06  6 -2 1 25 -24 4 -4 4 0.16920941D-01 0.43866214D-01 0.29688675D+05 0.29688675D+05 0.29688675D+05 0.12153742D+01  1  2 11  8  6  5       21 0.212734596135D-02 0.100000000000D+01
  </mgrwgt>
  </event>
  <event>
  5     66 0.39191994E-03 0.27409748E+02 0.75467711E-02 0.10654002E+00
       -2 -1    0    0    0  501 0.00000000E+00 0.00000000E+00 0.36130696E+02 0.36132113E+02 0.32000000E+00 0.0000E+00 0.9000E+01
        1 -1    0    0  502    0 0.00000000E+00 0.00000000E+00 -.44014627E+03 0.44014639E+03 0.32000000E+00 0.0000E+00 0.9000E+01
       25  1    1    2    0    0 -.20060396E+01 -.32216315E+00 -.28602277E+03 0.31215085E+03 0.12500000E+03 0.0000E+00 0.9000E+01
      -24  1    1    2    0    0 -.15138297E+01 0.27495761E+02 -.76258941E+02 0.11419698E+03 0.80419002E+02 0.0000E+00 0.9000E+01
       21  1    1    2  502  501 0.35198693E+01 -.27173598E+02 -.41733865E+02 0.49930670E+02 0.75000000E+00 0.0000E+00 0.9000E+01
#aMCatNLO 1  0  0  2  5 0.44542817D+02 0.00000000D+00  -5  6  0 0.00000000D+00 0.00000000D+00 0.00000000D+00 0.00000000D+00 0.00000000D+00
  <mgrwgt>
 0.3726525815D+00    5    4    0
 0.126107717652541D+03 0.000000000000000D+00 0.000000000000000D+00 0.126107717652541D+03
 0.126107717652541D+03 0.000000000000000D+00 0.000000000000000D+00 -.126107717652541D+03
 0.131288958836415D+03 -.200672461510393D+01 -.316874949834666D+00 -.400956775592488D+02
 0.934916278211174D+02 -.151431748588012D+01 0.274995265443753D+02 0.389223766059955D+02
 0.274348486475503D+02 0.352104210098405D+01 -.271826515945407D+02 0.117330095325326D+01
 0.000000000000000D+00 -.000000000000000D+00 0.000000000000000D+00 -.000000000000000D+00
 0.346430184437248D+03 0.000000000000000D+00 0.000000000000000D+00 0.346430184437248D+03
 0.351052164290524D+03 0.000000000000000D+00 0.000000000000000D+00 -.351052164290524D+03
 0.205152222795711D+03 0.297259304165140D+02 -.154826161290521D+03 -.400956775592488D+02
 0.113429813325642D+03 0.180022193384821D+02 -.675283295732218D+02 0.389223766059955D+02
 0.757454267158981D+02 0.132528593187578D+02 -.745677862962540D+02 0.117330095325326D+01
 0.303154885890522D+03 -.609810090737539D+02 0.296922277159997D+03 -.462197985327579D+01
 0.126107717652541D+03 0.000000000000000D+00 0.000000000000000D+00 0.126107717652541D+03
 0.126107717652541D+03 0.000000000000000D+00 0.000000000000000D+00 -.126107717652541D+03
 0.131288958836415D+03 -.200672461510393D+01 -.316874949834666D+00 -.400956775592488D+02
 0.934916278211174D+02 -.151431748588012D+01 0.274995265443753D+02 0.389223766059955D+02
 0.000000000000000D+00 -.000000000000000D+00 0.000000000000000D+00 -.000000000000000D+00
 0.274348486475503D+02 0.352104210098405D+01 -.271826515945407D+02 0.117330095325326D+01
 0.346430184437248D+03 0.000000000000000D+00 0.000000000000000D+00 0.346430184437248D+03
 0.351052164290524D+03 0.000000000000000D+00 0.000000000000000D+00 -.351052164290524D+03
 0.205152222795711D+03 0.297259304165140D+02 -.154826161290521D+03 -.400956775592488D+02
 0.113429813325642D+03 0.180022193384821D+02 -.675283295732218D+02 0.389223766059955D+02
 0.303154885890522D+03 -.609810090737539D+02 0.296922277159997D+03 -.462197985327579D+01
 0.757454267158981D+02 0.132528593187578D+02 -.745677862962540D+02 0.117330095325326D+01
0.240627533569D-03 0.000000000000D+00 0.000000000000D+00 0.300177578532D-04 0.000000000000D+00  6 -2 1 25 -24 21 21 2 0.55586866D-02 0.67714929D-01 0.14093319D+05 0.14093319D+05 0.14093319D+05 0.12509213D+01  1  2  2  2  6  2        1 0.278771587048D+00 0.100000000000D+01
0.273612422281D-04 0.126982638116D-04 -.924073087591D-06 0.300177578532D-04 0.000000000000D+00  6 -2 1 25 -24 21 21 4 0.55586866D-02 0.67714929D-01 0.14093319D+05 0.14093319D+05 0.14093319D+05 0.12509213D+01  1  2  3  2  6  2        1 0.496019769580D-01 0.100000000000D+01
0.723865864867D-05 0.000000000000D+00 0.000000000000D+00 0.300177578532D-04 0.000000000000D+00  6 -2 1 25 -24 21 21 4 0.55586866D-02 0.67714929D-01 0.14093319D+05 0.14093319D+05 0.14093319D+05 0.12509213D+01  1  2 15  2  6  2        1 0.131226417465D-01 0.100000000000D+01
0.381019398888D-03 0.000000000000D+00 -.221809695968D-03 0.300177578532D-04 0.000000000000D+00  6 -2 1 25 -24 21 21 4 0.55586866D-02 0.36439399D+00 0.14093319D+05 0.14093319D+05 0.14093319D+05 0.12509213D+01  1  2  5  2  6  2        1 0.276593939648D-01 0.100000000000D+01
0.689776803210D-04 0.000000000000D+00 -.456530382365D-04 0.300177578532D-04 0.000000000000D+00  6 -2 21 25 -24 -1 21 4 0.55586866D-02 0.36439399D+00 0.14093319D+05 0.14093319D+05 0.14093319D+05 0.12509213D+01  3  4  5  5  5  2        1 0.349698176876D-02 0.100000000000D+01
  </mgrwgt>
  </event>
  <event>
  6     66 0.39191994E-03 0.30219338E+02 0.75467711E-02 0.11692141E+00
       -2 -1    0    0    0  501 0.00000000E+00 0.00000000E+00 0.59778532E+03 0.59778540E+03 0.32000000E+00 0.0000E+00 0.9000E+01
        1 -1    0    0  503    0 0.00000000E+00 0.00000000E+00 -.64481718E+02 0.64482512E+02 0.32000000E+00 0.0000E+00 0.9000E+01
       25  1    1    2    0    0 0.74496900E+02 0.65601745E+02 0.17239905E+03 0.23494639E+03 0.12500000E+03 0.0000E+00 0.9000E+01
      -24  1    1    2    0    0 -.84014108E+02 -.38126743E+02 0.29526414E+03 0.31962501E+03 0.80419002E+02 0.0000E+00 0.9000E+01
       21  1    1    2  502  501 -.16635805E+02 -.41995418E+02 0.63183373E+02 0.77672816E+02 0.75000000E+00 0.0000E+00 0.9000E+01
       21  1    1    2  503  502 0.26153012E+02 0.14520416E+02 0.24570372E+01 0.30023692E+02 0.75000000E+00 0.0000E+00 0.9000E+01
#aMCatNLO 2  0  0  2  1 0.29913584D+02 0.00000000D+00  -5  6  0 0.00000000D+00 0.00000000D+00 0.00000000D+00 0.00000000D+00 0.00000000D+00
  <mgrwgt>
 0.7531934704D-01    1    2    0
 0.171055445493827D+03 0.000000000000000D+00 0.000000000000000D+00 0.171055445493827D+03
 0.171055445493827D+03 0.000000000000000D+00 0.000000000000000D+00 -.171055445493827D+03
 0.175169966775496D+03 0.875157121040375D+02 0.728325393766597D+02 -.457814220290147D+02
 0.124491635833274D+03 -.742269723042950D+02 -.326909657473435D+02 0.495238203203017D+02
 0.424492883788845D+02 -.132887397997425D+02 -.401415736293161D+02 -.374239829128703D+01
 0.000000000000000D+00 0.000000000000000D+00 0.000000000000000D+00 -.000000000000000D+00
 0.176500583646687D+03 0.000000000000000D+00 0.000000000000000D+00 0.176500583646687D+03
 0.218386517449368D+03 0.000000000000000D+00 0.000000000000000D+00 -.218386517449368D+03
 0.166056816754375D+03 0.744978336625902D+02 0.656048821901104D+02 -.457814220290147D+02
 0.132028504940511D+03 -.840132732969419D+02 -.381244185958536D+02 0.495238203203017D+02
 0.453308751637658D+02 -.166375727569554D+02 -.420008794062613D+02 -.374239829128703D+01
 0.514709042374034D+02 0.261530123913072D+02 0.145204158120045D+02 -.418859338026810D+02
0.594313789004D-03 0.000000000000D+00 0.000000000000D+00 0.992672579197D-05 0.283184361472D-07  6 -2 1 25 -24 21 21 4 0.91965647D-01 0.99201817D-02 0.31879978D+05 0.31879978D+05 0.31879978D+05 0.12121377D+01  1  2  1  2  6  2        1 0.753193470445D-01 0.100000000000D+01
  </mgrwgt>
  </event>
  <event>
  5     66 -.39191994E-03 0.24950835E+02 0.75467711E-02 0.11215137E+00
       -2 -1    0    0    0  501 0.00000000E+00 0.00000000E+00 0.68332536E+02 0.68333285E+02 0.32000000E+00 0.0000E+00 0.9000E+01
        1 -1    0    0  502    0 -.00000000E+00 -.00000000E+00 -.84706142E+03 0.84706148E+03 0.32000000E+00 0.0000E+00 0.9000E+01
       25  1    1    2    0    0 -.50315263E+02 -.17981260E+03 -.29604593E+03 0.37166166E+03 0.12500000E+03 0.0000E+00 0.9000E+01
      -24  1    1    2    0    0 0.64728279E+02 0.20016722E+03 -.42858702E+03 0.48415980E+03 0.80419002E+02 0.0000E+00 0.9000E+01
       21  1    1    2  502  501 -.14413016E+02 -.20354622E+02 -.54095934E+02 0.59573301E+02 0.75000000E+00 0.0000E+00 0.9000E+01
#aMCatNLO 1  0  0  5  2 0.51977130D+01 0.00000000D+00  -5  6  0 0.00000000D+00 0.00000000D+00 0.00000000D+00 0.00000000D+00 0.00000000D+00
  <mgrwgt>
 -.6680318805D+00   20    2    0
 0.240587251044593D+03 0.000000000000000D+00 0.000000000000000D+00 0.240587251044593D+03
 0.240587251044593D+03 -.000000000000000D+00 -.000000000000000D+00 -.240587251044593D+03
 0.227933669813749D+03 -.503123730862212D+02 -.179808517719832D+03 0.382925567779593D+02
 0.227456547048059D+03 0.647311626890598D+02 0.200171293999896D+03 -.317898486310511D+02
 0.257842852273774D+02 -.144187896028385D+02 -.203627762800646D+02 -.650270814690827D+01
 0.000000000000000D+00 0.000000000000000D+00 0.000000000000000D+00 -.000000000000000D+00
 0.240587251044593D+03 0.000000000000000D+00 0.000000000000000D+00 0.240587251044593D+03
 0.240587251044593D+03 -.000000000000000D+00 -.000000000000000D+00 -.240587251044593D+03
 0.228763557804432D+03 -.509703096072091D+02 -.180737681300991D+03 0.379958349800122D+02
 0.226499851288747D+03 0.640771747177301D+02 0.199247706714357D+03 -.320847896785512D+02
 0.899066696216720D+01 -.460526968396302D+01 -.704064248520224D+01 0.317063668024915D+01
 0.169204260338400D+02 -.850159542655797D+01 -.114693829281641D+02 -.908168198171009D+01
0.619055897413D-03 0.000000000000D+00 0.000000000000D+00 0.248089178087D-04 0.000000000000D+00  6 -2 1 25 -24 21 21 2 0.10512760D-01 0.13031720D+00 0.56375145D+05 0.56375145D+05 0.56375145D+05 0.11871545D+01  1  2  2  3  6  5       21 0.989837687611D-01 0.100000000000D+01
0.230426374920D-03 0.326684772222D-04 -.237733764723D-05 0.248089178087D-04 0.000000000000D+00  6 -2 1 25 -24 21 21 4 0.10512760D-01 0.13031720D+00 0.56375145D+05 0.56375145D+05 0.56375145D+05 0.11871545D+01  1  2  3  3  6  5       21 0.519255103128D-01 0.100000000000D+01
0.891015643461D-05 0.000000000000D+00 0.000000000000D+00 0.248089178087D-04 0.000000000000D+00  6 -2 1 25 -24 21 21 4 0.10512760D-01 0.13031720D+00 0.56375145D+05 0.56375145D+05 0.56375145D+05 0.11871545D+01  1  2 15  3  6  5       21 0.200786225099D-02 0.100000000000D+01
0.644366403857D-04 0.000000000000D+00 0.000000000000D+00 0.248267369807D-04 0.000000000000D+00  6 -2 1 25 -24 21 21 4 0.10512760D-01 0.13031720D+00 0.55812093D+05 0.55812093D+05 0.55812093D+05 0.11875807D+01  1  2 12  3  6  5       21 0.145413833244D-01 0.100000000000D+01
0.639514995591D-04 0.000000000000D+00 0.000000000000D+00 0.248267369807D-04 0.000000000000D+00  6 -2 1 25 -24 21 21 4 0.10512760D-01 0.13031720D+00 0.55812093D+05 0.55812093D+05 0.55812093D+05 0.11875807D+01  1  2 12  3  6  5       21 0.144319018448D-01 0.100000000000D+01
-.500145357047D-02 0.000000000000D+00 0.000000000000D+00 0.248089178087D-04 0.000000000000D+00  6 -2 1 25 -24 21 21 4 0.10512760D-01 0.13031720D+00 0.56375145D+05 0.56375145D+05 0.56375145D+05 0.11871545D+01  1  2  4  3  6  5       21 -.112705426643D+01 0.100000000000D+01
-.296042280971D-03 0.000000000000D+00 0.000000000000D+00 0.248089178087D-04 0.000000000000D+00  6 -2 1 25 -24 21 21 4 0.10512760D-01 0.13031720D+00 0.56375145D+05 0.56375145D+05 0.56375145D+05 0.11871545D+01  1  2  5  3  6  5       21 -.667117491170D-01 0.100000000000D+01
0.149455292460D-02 0.000000000000D+00 -.000000000000D+00 0.248089178087D-04 0.000000000000D+00  6 -2 1 25 -24 21 21 4 0.10512760D-01 0.13031720D+00 0.56375145D+05 0.56375145D+05 0.56375145D+05 0.11871545D+01  1  2  6  3  6  5       21 0.336790540259D+00 0.100000000000D+01
0.598313527144D-05 0.000000000000D+00 0.000000000000D+00 0.248267369807D-04 0.000000000000D+00  6 -2 1 25 -24 1 -1 4 0.10512760D-01 0.13031720D+00 0.55812093D+05 0.55812093D+05 0.55812093D+05 0.11875807D+01  1  2 12  6  6  5       21 0.135021104364D-02 0.100000000000D+01
0.594435520943D-05 0.000000000000D+00 0.000000000000D+00 0.248267369807D-04 0.000000000000D+00  6 -2 1 25 -24 1 -1 4 0.10512760D-01 0.13031720D+00 0.55812093D+05 0.55812093D+05 0.55812093D+05 0.11875807D+01  1  2 12  6  6  5       21 0.134145956709D-02 0.100000000000D+01
-.411980353801D-05 0.000000000000D+00 0.000000000000D+00 0.248089178087D-04 0.000000000000D+00  6 -2 1 25 -24 1 -1 4 0.10512760D-01 0.13031720D+00 0.56375145D+05 0.56375145D+05 0.56375145D+05 0.11871545D+01  1  2  5  6  6  5       21 -.928378538150D-03 0.100000000000D+01
0.598313527144D-05 0.000000000000D+00 0.000000000000D+00 0.248267369807D-04 0.000000000000D+00  6 -2 1 25 -24 2 -2 4 0.10512760D-01 0.13031720D+00 0.55812093D+05 0.55812093D+05 0.55812093D+05 0.11875807D+01  1  2 12  7  6  5       21 0.135021104364D-02 0.100000000000D+01
0.594435520943D-05 0.000000000000D+00 0.000000000000D+00 0.248267369807D-04 0.000000000000D+00  6 -2 1 25 -24 2 -2 4 0.10512760D-01 0.13031720D+00 0.55812093D+05 0.55812093D+05 0.55812093D+05 0.11875807D+01  1  2 12  7  6  5       21 0.134145956709D-02 0.100000000000D+01
-.411980353801D-05 0.000000000000D+00 0.000000000000D+00 0.248089178087D-04 0.000000000000D+00  6 -2 1 25 -24 2 -2 4 0.10512760D-01 0.13031720D+00 0.56375145D+05 0.56375145D+05 0.56375145D+05 0.11871545D+01  1  2  5  7  6  5       21 -.928378538150D-03 0.100000000000D+01
0.598313527144D-05 0.000000000000D+00 0.000000000000D+00 0.248267369807D-04 0.000000000000D+00  6 -2 1 25 -24 3 -3 4 0.10512760D-01 0.13031720D+00 0.55812093D+05 0.55812093D+05 0.55812093D+05 0.11875807D+01  1  2 12  8  6  5       21 0.135021104364D-02 0.100000000000D+01
0.598313527144D-05 0.000000000000D+00 0.000000000000D+00 0.248267369807D-04 0.000000000000D+00  6 -2 1 25 -24 4 -4 4 0.10512760D-01 0.13031720D+00 0.55812093D+05 0.55812093D+05 0.55812093D+05 0.11875807D+01  1  2 12  8  6  5       21 0.135021104364D-02 0.100000000000D+01
0.594435520943D-05 0.000000000000D+00 0.000000000000D+00 0.248267369807D-04 0.000000000000D+00  6 -2 1 25 -24 3 -3 4 0.10512760D-01 0.13031720D+00 0.55812093D+05 0.55812093D+05 0.55812093D+05 0.11875807D+01  1  2 12  8  6  5       21 0.134145956709D-02 0.100000000000D+01
0.594435520943D-05 0.000000000000D+00 0.000000000000D+00 0.248267369807D-04 0.000000000000D+00  6 -2 1 25 -24 4 -4 4 0.10512760D-01 0.13031720D+00 0.55812093D+05 0.55812093D+05 0.55812093D+05 0.11875807D+01  1  2 12  8  6  5       21 0.134145956709D-02 0.100000000000D+01
-.411980353801D-05 0.000000000000D+00 0.000000000000D+00 0.248089178087D-04 0.000000000000D+00  6 -2 1 25 -24 3 -3 4 0.10512760D-01 0.13031720D+00 0.56375145D+05 0.56375145D+05 0.56375145D+05 0.11871545D+01  1  2  5  8  6  5       21 -.928378538150D-03 0.100000000000D+01
-.411980353801D-05 0.000000000000D+00 0.000000000000D+00 0.248089178087D-04 0.000000000000D+00  6 -2 1 25 -24 4 -4 4 0.10512760D-01 0.13031720D+00 0.56375145D+05 0.56375145D+05 0.56375145D+05 0.11871545D+01  1  2  5  8  6  5       21 -.928378538150D-03 0.100000000000D+01
  </mgrwgt>
  </event>
  <event>
  5     66 -.39191994E-03 0.43738778E+02 0.75467711E-02 0.12132502E+00
       -2 -1    0    0    0  501 0.00000000E+00 0.00000000E+00 0.27177915E+02 0.27179798E+02 0.32000000E+00 0.0000E+00 0.9000E+01
        1 -1    0    0  502    0 -.00000000E+00 -.00000000E+00 -.13485965E+04 0.13485966E+04 0.32000000E+00 0.0000E+00 0.9000E+01
       25  1    1    2    0    0 -.16639972E+02 -.75044239E+02 -.96266460E+03 0.97378471E+03 0.12500000E+03 0.0000E+00 0.9000E+01
      -24  1    1    2    0    0 -.78471038E+01 0.38807296E+02 -.80995480E+02 0.12081004E+03 0.80419002E+02 0.0000E+00 0.9000E+01
       21  1    1    2  502  501 0.24487075E+02 0.36236943E+02 -.27775854E+03 0.28118162E+03 0.75000000E+00 0.0000E+00 0.9000E+01
#aMCatNLO 1  0  0  5  1 0.62750315D+00 0.00000000D+00  -5  6  0 0.00000000D+00 0.00000000D+00 0.00000000D+00 0.00000000D+00 0.00000000D+00
  <mgrwgt>
 -.6292288538D-01   25    2    0
 0.191450681656811D+03 0.000000000000000D+00 0.000000000000000D+00 0.191450681656811D+03
 0.191450681656811D+03 -.000000000000000D+00 -.000000000000000D+00 -.191450681656811D+03
 0.176617570770244D+03 -.166411588375928D+02 -.750459955264401D+02 -.982849769434247D+02
 0.154553923992497D+03 -.784814278790613D+01 0.388057584780904D+02 0.125905596503208D+03
 0.517298685508822D+02 0.244893016254989D+02 0.362402370483498D+02 -.276206195597837D+02
 0.000000000000000D+00 0.000000000000000D+00 0.000000000000000D+00 -.000000000000000D+00
 0.191450681656811D+03 0.000000000000000D+00 0.000000000000000D+00 0.191450681656811D+03
 0.191450681656811D+03 -.000000000000000D+00 -.000000000000000D+00 -.191450681656811D+03
 0.176617227985665D+03 -.166375630850644D+02 -.750406743896439D+02 -.982890324658783D+02
 0.154552042428377D+03 -.784499624468844D+01 0.388104148571834D+02 0.125902047628092D+03
 0.187675530044440D+02 0.860852398136642D+01 0.135879409156773D+02 -.966862049668492D+01
 0.329645398951361D+02 0.158740353483864D+02 0.226423186167832D+02 -.179443946655292D+02
0.110129010136D-04 0.000000000000D+00 0.000000000000D+00 0.577610508962D-05 0.000000000000D+00  6 -2 1 25 -24 21 21 2 0.41813655D-02 0.20747654D+00 0.19616711D+05 0.19616711D+05 0.19616711D+05 0.12347523D+01  1  2  2  3  6  5       21 0.341721980513D-02 0.100000000000D+01
0.144957141753D-06 0.581166753140D-06 -.422924396555D-07 0.577610508962D-05 0.000000000000D+00  6 -2 1 25 -24 21 21 4 0.41813655D-02 0.20747654D+00 0.19616711D+05 0.19616711D+05 0.19616711D+05 0.12347523D+01  1  2  3  3  6  5       21 0.685757374243D-04 0.100000000000D+01
0.419517098482D-06 0.000000000000D+00 0.000000000000D+00 0.577610508962D-05 0.000000000000D+00  6 -2 1 25 -24 21 21 4 0.41813655D-02 0.20747654D+00 0.19616711D+05 0.19616711D+05 0.19616711D+05 0.12347523D+01  1  2 15  3  6  5       21 0.198463449559D-03 0.100000000000D+01
0.264497868330D-10 0.000000000000D+00 0.000000000000D+00 0.577611253784D-05 0.000000000000D+00  6 -2 1 25 -24 21 21 4 0.41813655D-02 0.20747654D+00 0.19616385D+05 0.19616385D+05 0.19616385D+05 0.12347531D+01  1  2 12  3  6  5       21 0.125127892380D-07 0.100000000000D+01
0.264454927330D-10 0.000000000000D+00 0.000000000000D+00 0.577611253784D-05 0.000000000000D+00  6 -2 1 25 -24 21 21 4 0.41813655D-02 0.20747654D+00 0.19616385D+05 0.19616385D+05 0.19616385D+05 0.12347531D+01  1  2 12  3  6  5       21 0.125107577975D-07 0.100000000000D+01
-.565000313547D-02 0.000000000000D+00 0.000000000000D+00 0.577610508962D-05 0.000000000000D+00  6 -2 1 25 -24 21 21 4 0.41813655D-02 0.20747654D+00 0.19616711D+05 0.19616711D+05 0.19616711D+05 0.12347523D+01  1  2  4  3  6  5       21 -.267288059615D+01 0.100000000000D+01
-.154124758354D-02 0.000000000000D+00 0.000000000000D+00 0.577610508962D-05 0.000000000000D+00  6 -2 1 25 -24 21 21 4 0.41813655D-02 0.20747654D+00 0.19616711D+05 0.19616711D+05 0.19616711D+05 0.12347523D+01  1  2  5  3  6  5       21 -.729127163497D+00 0.100000000000D+01
0.552323882362D-02 0.000000000000D+00 -.000000000000D+00 0.577610508962D-05 0.000000000000D+00  6 -2 1 25 -24 21 21 4 0.41813655D-02 0.20747654D+00 0.19616711D+05 0.19616711D+05 0.19616711D+05 0.12347523D+01  1  2  6  3  6  5       21 0.261291144900D+01 0.100000000000D+01
0.153063344293D-02 0.000000000000D+00 0.000000000000D+00 0.577610508962D-05 0.781352956467D-04  6 -2 1 25 -24 21 21 4 0.41813655D-02 0.20747654D+00 0.19616385D+05 0.19616385D+05 0.19616385D+05 0.12347531D+01  1  2 11  3  6  5       21 0.724107675910D+00 0.100000000000D+01
0.205572055827D-11 0.000000000000D+00 0.000000000000D+00 0.577611253784D-05 0.000000000000D+00  6 -2 1 25 -24 1 -1 4 0.41813655D-02 0.20747654D+00 0.19616385D+05 0.19616385D+05 0.19616385D+05 0.12347531D+01  1  2 12  6  6  5       21 0.972514381317D-09 0.100000000000D+01
0.205542391408D-11 0.000000000000D+00 0.000000000000D+00 0.577611253784D-05 0.000000000000D+00  6 -2 1 25 -24 1 -1 4 0.41813655D-02 0.20747654D+00 0.19616385D+05 0.19616385D+05 0.19616385D+05 0.12347531D+01  1  2 12  6  6  5       21 0.972374045733D-09 0.100000000000D+01
-.121683578315D-03 0.000000000000D+00 0.000000000000D+00 0.577610508962D-05 0.000000000000D+00  6 -2 1 25 -24 1 -1 4 0.41813655D-02 0.20747654D+00 0.19616711D+05 0.19616711D+05 0.19616711D+05 0.12347523D+01  1  2  5  6  6  5       21 -.575655743105D-01 0.100000000000D+01
0.120871071632D-03 0.000000000000D+00 0.000000000000D+00 0.577610508962D-05 0.296573332127D-05  6 -2 1 25 -24 1 -1 4 0.41813655D-02 0.20747654D+00 0.19616385D+05 0.19616385D+05 0.19616385D+05 0.12347531D+01  1  2 11  6  6  5       21 0.571813396397D-01 0.100000000000D+01
0.205572055827D-11 0.000000000000D+00 0.000000000000D+00 0.577611253784D-05 0.000000000000D+00  6 -2 1 25 -24 2 -2 4 0.41813655D-02 0.20747654D+00 0.19616385D+05 0.19616385D+05 0.19616385D+05 0.12347531D+01  1  2 12  7  6  5       21 0.972514381317D-09 0.100000000000D+01
0.205542391408D-11 0.000000000000D+00 0.000000000000D+00 0.577611253784D-05 0.000000000000D+00  6 -2 1 25 -24 2 -2 4 0.41813655D-02 0.20747654D+00 0.19616385D+05 0.19616385D+05 0.19616385D+05 0.12347531D+01  1  2 12  7  6  5       21 0.972374045733D-09 0.100000000000D+01
-.121683578315D-03 0.000000000000D+00 0.000000000000D+00 0.577610508962D-05 0.000000000000D+00  6 -2 1 25 -24 2 -2 4 0.41813655D-02 0.20747654D+00 0.19616711D+05 0.19616711D+05 0.19616711D+05 0.12347523D+01  1  2  5  7  6  5       21 -.575655743105D-01 0.100000000000D+01
0.120807413668D-03 0.000000000000D+00 0.000000000000D+00 0.577610508962D-05 0.296414176424D-05  6 -2 1 25 -24 2 -2 4 0.41813655D-02 0.20747654D+00 0.19616385D+05 0.19616385D+05 0.19616385D+05 0.12347531D+01  1  2 11  7  6  5       21 0.571512245131D-01 0.100000000000D+01
0.205572055827D-11 0.000000000000D+00 0.000000000000D+00 0.577611253784D-05 0.000000000000D+00  6 -2 1 25 -24 3 -3 4 0.41813655D-02 0.20747654D+00 0.19616385D+05 0.19616385D+05 0.19616385D+05 0.12347531D+01  1  2 12  8  6  5       21 0.972514381317D-09 0.100000000000D+01
0.205572055827D-11 0.000000000000D+00 0.000000000000D+00 0.577611253784D-05 0.000000000000D+00  6 -2 1 25 -24 4 -4 4 0.41813655D-02 0.20747654D+00 0.19616385D+05 0.19616385D+05 0.19616385D+05 0.12347531D+01  1  2 12  8  6  5       21 0.972514381317D-09 0.100000000000D+01
0.205542391408D-11 0.000000000000D+00 0.000000000000D+00 0.577611253784D-05 0.000000000000D+00  6 -2 1 25 -24 3 -3 4 0.41813655D-02 0.20747654D+00 0.19616385D+05 0.19616385D+05 0.19616385D+05 0.12347531D+01  1  2 12  8  6  5       21 0.972374045733D-09 0.100000000000D+01
0.205542391408D-11 0.000000000000D+00 0.000000000000D+00 0.577611253784D-05 0.000000000000D+00  6 -2 1 25 -24 4 -4 4 0.41813655D-02 0.20747654D+00 0.19616385D+05 0.19616385D+05 0.19616385D+05 0.12347531D+01  1  2 12  8  6  5       21 0.972374045733D-09 0.100000000000D+01
-.121683578315D-03 0.000000000000D+00 0.000000000000D+00 0.577610508962D-05 0.000000000000D+00  6 -2 1 25 -24 3 -3 4 0.41813655D-02 0.20747654D+00 0.19616711D+05 0.19616711D+05 0.19616711D+05 0.12347523D+01  1  2  5  8  6  5       21 -.575655743105D-01 0.100000000000D+01
-.121683578315D-03 0.000000000000D+00 0.000000000000D+00 0.577610508962D-05 0.000000000000D+00  6 -2 1 25 -24 4 -4 4 0.41813655D-02 0.20747654D+00 0.19616711D+05 0.19616711D+05 0.19616711D+05 0.12347523D+01  1  2  5  8  6  5       21 -.575655743105D-01 0.100000000000D+01
0.120816652780D-03 0.000000000000D+00 0.000000000000D+00 0.577610508962D-05 0.296436603441D-05  6 -2 1 25 -24 3 -3 4 0.41813655D-02 0.20747654D+00 0.19616385D+05 0.19616385D+05 0.19616385D+05 0.12347531D+01  1  2 11  8  6  5       21 0.571555953257D-01 0.100000000000D+01
0.120816652780D-03 0.000000000000D+00 0.000000000000D+00 0.577610508962D-05 0.296436603441D-05  6 -2 1 25 -24 4 -4 4 0.41813655D-02 0.20747654D+00 0.19616385D+05 0.19616385D+05 0.19616385D+05 0.12347531D+01  1  2 11  8  6  5       21 0.571555953257D-01 0.100000000000D+01
  </mgrwgt>
  </event>
  <event>
  5     66 0.39191994E-03 0.29207069E+02 0.75467711E-02 0.10994886E+00
       -2 -1    0    0    0  501 0.00000000E+00 0.00000000E+00 0.12537838E+03 0.12537879E+03 0.32000000E+00 0.0000E+00 0.9000E+01
        1 -1    0    0  502    0 -.00000000E+00 -.00000000E+00 -.67941350E+03 0.67941358E+03 0.32000000E+00 0.0000E+00 0.9000E+01
       25  1    1    2    0    0 0.11847291E+03 0.19731026E+03 -.14728112E+03 0.30047279E+03 0.12500000E+03 0.0000E+00 0.9000E+01
      -24  1    1    2    0    0 -.95818826E+02 -.17887670E+03 -.20171908E+03 0.29721360E+03 0.80419002E+02 0.0000E+00 0.9000E+01
       21  1    1    2  502  501 -.22654087E+02 -.18433563E+02 -.20503492E+03 0.20710598E+03 0.75000000E+00 0.0000E+00 0.9000E+01
#aMCatNLO 1  0  0  5  1 0.26101422D+02 0.00000000D+00  -5  6  0 0.00000000D+00 0.00000000D+00 0.00000000D+00 0.00000000D+00 0.00000000D+00
  <mgrwgt>
 0.3345508504D+00    9    2    0
 0.291862913015884D+03 0.000000000000000D+00 0.000000000000000D+00 0.291862913015884D+03
 0.291862913015884D+03 -.000000000000000D+00 -.000000000000000D+00 -.291862913015884D+03
 0.274477751542511D+03 0.118473275570441D+03 0.197310555312669D+03 0.821319902939744D+02
 0.218314148988769D+03 -.958185378152967D+02 -.178876462961747D+03 0.398378005833402D+01
 0.909339255004872D+02 -.226547377551439D+02 -.184340923509216D+02 -.861157703523083D+02
 0.000000000000000D+00 0.000000000000000D+00 0.000000000000000D+00 0.000000000000000D+00
 0.291862913015884D+03 0.000000000000000D+00 0.000000000000000D+00 0.291862913015884D+03
 0.291862913015884D+03 -.000000000000000D+00 -.000000000000000D+00 -.291862913015884D+03
 0.267081267893756D+03 0.114913004581637D+03 0.194413573457868D+03 0.685985968741285D+02
 0.221594944364804D+03 -.987105505536460D+02 -.181229685076917D+03 -.700941295600974D+01
 0.261313725164692D+02 -.971236187055004D+00 0.252964777165214D+02 -.648024266528443D+01
 0.689182412567380D+02 -.152312178409360D+02 -.384803660974730D+02 -.551089412528343D+02
0.415485795441D-02 0.000000000000D+00 0.000000000000D+00 0.187785552456D-04 0.000000000000D+00  6 -2 1 25 -24 21 21 2 0.19289019D-01 0.10452519D+00 0.64868606D+05 0.64868606D+05 0.64868606D+05 0.11812440D+01  1  2  2  3  6  5       21 0.337133886182D+00 0.100000000000D+01
0.948867059916D-03 0.219257878024D-03 -.159557485442D-04 0.187785552456D-04 0.000000000000D+00  6 -2 1 25 -24 21 21 4 0.19289019D-01 0.10452519D+00 0.64868606D+05 0.64868606D+05 0.64868606D+05 0.11812440D+01  1  2  3  3  6  5       21 0.107431302045D+00 0.100000000000D+01
0.648172366760D-04 0.000000000000D+00 0.000000000000D+00 0.187785552456D-04 0.000000000000D+00  6 -2 1 25 -24 21 21 4 0.19289019D-01 0.10452519D+00 0.64868606D+05 0.64868606D+05 0.64868606D+05 0.11812440D+01  1  2 15  3  6  5       21 0.733864671381D-02 0.100000000000D+01
0.444751252005D-03 0.000000000000D+00 0.000000000000D+00 0.185944578896D-04 0.000000000000D+00  6 -2 1 25 -24 21 21 4 0.19289019D-01 0.10452519D+00 0.74612468D+05 0.74612468D+05 0.74612468D+05 0.11754395D+01  1  2 12  3  6  5       21 0.493366377406D-01 0.100000000000D+01
-.164915088328D-02 0.000000000000D+00 0.000000000000D+00 0.187785552456D-04 0.000000000000D+00  6 -2 1 25 -24 21 21 4 0.19289019D-01 0.10452519D+00 0.64868606D+05 0.64868606D+05 0.64868606D+05 0.11812440D+01  1  2  4  3  6  5       21 -.186717859798D+00 0.100000000000D+01
0.451367588961D-04 0.000000000000D+00 0.000000000000D+00 0.185944578896D-04 0.000000000000D+00  6 -2 1 25 -24 1 -1 4 0.19289019D-01 0.10452519D+00 0.74612468D+05 0.74612468D+05 0.74612468D+05 0.11754395D+01  1  2 12  6  6  5       21 0.500705936724D-02 0.100000000000D+01
0.451367588961D-04 0.000000000000D+00 0.000000000000D+00 0.185944578896D-04 0.000000000000D+00  6 -2 1 25 -24 2 -2 4 0.19289019D-01 0.10452519D+00 0.74612468D+05 0.74612468D+05 0.74612468D+05 0.11754395D+01  1  2 12  7  6  5       21 0.500705936724D-02 0.100000000000D+01
0.451367588961D-04 0.000000000000D+00 0.000000000000D+00 0.185944578896D-04 0.000000000000D+00  6 -2 1 25 -24 3 -3 4 0.19289019D-01 0.10452519D+00 0.74612468D+05 0.74612468D+05 0.74612468D+05 0.11754395D+01  1  2 12  8  6  5       21 0.500705936724D-02 0.100000000000D+01
0.451367588961D-04 0.000000000000D+00 0.000000000000D+00 0.185944578896D-04 0.000000000000D+00  6 -2 1 25 -24 4 -4 4 0.19289019D-01 0.10452519D+00 0.74612468D+05 0.74612468D+05 0.74612468D+05 0.11754395D+01  1  2 12  8  6  5       21 0.500705936724D-02 0.100000000000D+01
  </mgrwgt>
  </event>
  <event>
  5     66 0.39191994E-03 0.44669297E+02 0.75467711E-02 0.10686058E+00
       -4 -1    0    0    0  501 0.00000000E+00 0.00000000E+00 0.54208772E+02 0.54230928E+02 0.15500000E+01 0.0000E+00 0.9000E+01
        3 -1    0    0  502    0 0.00000000E+00 0.00000000E+00 -.20491833E+04 0.20491834E+04 0.50000000E+00 0.0000E+00 0.9000E+01
       25  1    1    2    0    0 0.22764291E+02 0.17277390E+03 -.13007266E+04 0.13182881E+04 0.12500000E+03 0.0000E+00 0.9000E+01
      -24  1    1    2    0    0 -.67370247E+02 -.17514741E+03 -.70921011E+03 0.73801190E+03 0.80419002E+02 0.0000E+00 0.9000E+01
       21  1    1    2  502  501 0.44605956E+02 0.23735014E+01 0.14962140E+02 0.47114255E+02 0.75000000E+00 0.0000E+00 0.9000E+01
#aMCatNLO 1  0  0  1  5 0.11701398D+03 0.00000000D+00  -5  6  0 0.00000000D+00 0.00000000D+00 0.00000000D+00 0.00000000D+00 0.00000000D+00
  <mgrwgt>
 0.6889915066D-02    4    2    0
 0.333327280513156D+03 0.000000000000000D+00 0.000000000000000D+00 0.333327280513156D+03
 0.333327280513156D+03 0.000000000000000D+00 0.000000000000000D+00 -.333327280513156D+03
 0.266989800328796D+03 0.227641569250869D+02 0.172773896660059D+03 -.159026813059935D+03
 0.206236842800720D+03 -.673703511156615D+02 -.175147410686774D+03 -.291725846354016D+02
 0.193427917896796D+03 0.446061941905747D+02 0.237351402671451D+01 0.188199397695336D+03
 0.000000000000000D+00 -.000000000000000D+00 -.000000000000000D+00 -.000000000000000D+00
 0.416981590707757D+03 0.000000000000000D+00 0.000000000000000D+00 0.416981590707757D+03
 0.428083572596424D+03 0.000000000000000D+00 0.000000000000000D+00 -.428083572596424D+03
 0.315496278245640D+03 0.434643329664174D+02 0.238189475155044D+03 -.159026813059935D+03
 0.167291689452429D+03 -.540960315078464D+02 -.133198622689088D+03 -.291725846354016D+02
 0.202626737740847D+03 0.586810388868674D+02 0.468520781798280D+02 0.188199397695336D+03
 0.159650457865265D+03 -.480493403454384D+02 -.151842930645785D+03 -.111019818886665D+02
0.662698205312D-02 0.000000000000D+00 0.000000000000D+00 0.104997987379D-04 0.000000000000D+00  6 -4 3 25 -24 21 21 2 0.83415201D-02 0.31526068D+00 0.53660480D+05 0.53660480D+05 0.53660480D+05 0.11892548D+01  1  2  2  1  6  1       -4 0.761122993566D-02 0.100000000000D+01
0.970168381443D-03 0.349715450833D-03 -.254493560084D-04 0.104997987379D-04 0.000000000000D+00  6 -4 3 25 -24 21 21 4 0.83415201D-02 0.31526068D+00 0.53660480D+05 0.53660480D+05 0.53660480D+05 0.11892548D+01  1  2  3  1  6  1       -4 0.157592659076D-02 0.100000000000D+01
0.206275635617D-03 0.000000000000D+00 0.000000000000D+00 0.104997987379D-04 0.000000000000D+00  6 -4 3 25 -24 21 21 4 0.83415201D-02 0.31526068D+00 0.53660480D+05 0.53660480D+05 0.53660480D+05 0.11892548D+01  1  2 15  1  6  1       -4 0.335070968517D-03 0.100000000000D+01
-.162049825371D-02 0.000000000000D+00 0.000000000000D+00 0.104997987379D-04 0.000000000000D+00  6 -4 3 25 -24 21 21 4 0.83415201D-02 0.31526068D+00 0.53660480D+05 0.53660480D+05 0.53660480D+05 0.11892548D+01  1  2  4  1  6  1       -4 -.263231242859D-02 0.100000000000D+01
  </mgrwgt>
  </event>
  <event>
  6     66 0.39191994E-03 0.15885492E+02 0.75467711E-02 0.11459992E+00
       -2 -1    0    0    0  501 0.00000000E+00 0.00000000E+00 0.64002647E+02 0.64003447E+02 0.32000000E+00 0.0000E+00 0.9000E+01
        1 -1    0    0  502    0 -.00000000E+00 -.00000000E+00 -.11386061E+04 0.11386062E+04 0.32000000E+00 0.0000E+00 0.9000E+01
       25  1    1    2    0    0 0.14746772E+03 -.39233360E+02 -.52098372E+03 0.55707722E+03 0.12500000E+03 0.0000E+00 0.9000E+01
      -24  1    1    2    0    0 -.15814310E+03 0.44873535E+02 -.13938497E+03 0.23003970E+03 0.80419002E+02 0.0000E+00 0.9000E+01
       21  1    1    2  503  501 0.19132576E+02 -.60908397E+01 -.36313171E+03 0.36368717E+03 0.75000000E+00 0.0000E+00 0.9000E+01
       21  1    1    2  502  503 -.84571965E+01 0.45066493E+00 -.51103050E+02 0.51805516E+02 0.75000000E+00 0.0000E+00 0.9000E+01
#aMCatNLO 2  0  0  5  2 0.28983106D+02 0.00000000D+00  -5  6  0 0.00000000D+00 0.00000000D+00 0.00000000D+00 0.00000000D+00 0.00000000D+00
  <mgrwgt>
 0.1557066000D+00    1    2    0
 0.269952427681592D+03 0.000000000000000D+00 0.000000000000000D+00 0.269952427681592D+03
 0.269952427681592D+03 -.000000000000000D+00 -.000000000000000D+00 -.269952427681592D+03
 0.203332671670699D+03 0.147277138317642D+03 -.391326666040098D+02 -.499725354786999D+02
 0.236390821465562D+03 -.158363694909701D+03 0.449900807554473D+02 0.149366118269701D+03
 0.100181362226923D+03 0.110865565920583D+02 -.585741415143740D+01 -.993935827910013D+02
 0.000000000000000D+00 0.000000000000000D+00 0.000000000000000D+00 -.000000000000000D+00
 0.269952427681592D+03 0.000000000000000D+00 0.000000000000000D+00 0.269952427681592D+03
 0.269952427681592D+03 -.000000000000000D+00 -.000000000000000D+00 -.269952427681592D+03
 0.203921120570709D+03 0.147469222458989D+03 -.392341513489304D+02 -.516946149041076D+02
 0.234964380229350D+03 -.158141376883664D+03 0.448726223957652D+02 0.147372984969627D+03
 0.872087904750438D+02 0.192252246723281D+02 -.609450908878250D+01 -.848446865241739D+02
 0.138105640880821D+02 -.855307024765311D+01 0.456038041947674D+00 -.108336835413459D+02
0.986177982662D-03 0.000000000000D+00 0.000000000000D+00 0.934930634094D-04 0.122290968605D-05  6 -2 1 25 -24 21 21 4 0.98466261D-02 0.17517024D+00 0.41819134D+05 0.41819134D+05 0.41819134D+05 0.12000438D+01  1  2  1  3  6  5       21 0.155706600010D+00 0.100000000000D+01
  </mgrwgt>
  </event>
  <event>
  6     66 0.39191994E-03 0.10564865E+03 0.75467711E-02 0.11577044E+00
       -2 -1    0    0    0  503 0.00000000E+00 0.00000000E+00 0.14271302E+02 0.14274889E+02 0.32000000E+00 0.0000E+00 0.9000E+01
        1 -1    0    0  502    0 0.00000000E+00 0.00000000E+00 -.35978310E+04 0.35978310E+04 0.32000000E+00 0.0000E+00 0.9000E+01
       25  1    1    2    0    0 0.21086806E+02 -.38670615E+02 -.67061111E+03 0.68358198E+03 0.12500000E+03 0.0000E+00 0.9000E+01
      -24  1    1    2    0    0 0.93293238E+02 -.29429604E+01 -.22439371E+04 0.22473169E+04 0.80419002E+02 0.0000E+00 0.9000E+01
       21  1    1    2  502  501 -.76942431E+02 0.11294251E+02 -.34679849E+03 0.35541167E+03 0.75000000E+00 0.0000E+00 0.9000E+01
       21  1    1    2  501  503 -.37437613E+02 0.30319325E+02 -.32221293E+03 0.32579529E+03 0.75000000E+00 0.0000E+00 0.9000E+01
#aMCatNLO 2  0  0  1  1 0.48175059D+02 0.00000000D+00  -5  6  0 0.00000000D+00 0.00000000D+00 0.00000000D+00 0.00000000D+00 0.00000000D+00
  <mgrwgt>
 0.3842631159D-02    1    2    0
 0.200707412211892D+03 0.000000000000000D+00 0.000000000000000D+00 0.200707412211892D+03
 0.200707412211892D+03 0.000000000000000D+00 0.000000000000000D+00 -.200707412211892D+03
 0.143007665853869D+03 0.761970879737066D+01 -.277636058963126D+02 0.632243206246557D+02
 0.158297025807598D+03 0.782243468232667D+02 0.926133652901727D+01 -.111292010651845D+03
 0.100110132762318D+03 -.858440556206373D+02 0.185022693672953D+02 0.480676900271888D+02
 0.000000000000000D+00 -.000000000000000D+00 0.000000000000000D+00 0.000000000000000D+00
 0.231153299218458D+03 0.000000000000000D+00 0.000000000000000D+00 0.231153299218458D+03
 0.222150971525988D+03 0.000000000000000D+00 0.000000000000000D+00 -.222150971525988D+03
 0.146841527740128D+03 0.210876566111706D+02 -.386707937499999D+02 0.632243206246557D+02
 0.166028946697859D+03 0.932942706626334D+02 -.294323186768468D+01 -.111292010651845D+03
 0.914248354611417D+02 -.769443139150775D+02 0.112947010002444D+02 0.480676900271888D+02
 0.490089608453170D+02 -.374376133587264D+02 0.303193246174402D+02 0.900232769246971D+01
0.113149217534D-03 0.000000000000D+00 0.000000000000D+00 0.194637947692D-05 0.150971522693D-07  6 -2 1 25 -24 21 21 4 0.21958340D-02 0.55350570D+00 0.36420540D+05 0.36420540D+05 0.36420540D+05 0.12061568D+01  1  2  1  1  6  1       -2 0.384263115858D-02 0.100000000000D+01
  </mgrwgt>
  </event>
  <event>
  5     66 -.39191994E-03 0.21795324E+02 0.75467711E-02 0.11158600E+00
       -2 -1    0    0    0  501 0.00000000E+00 0.00000000E+00 0.12615648E+03 0.12615689E+03 0.32000000E+00 0.0000E+00 0.9000E+01
        1 -1    0    0  502    0 0.00000000E+00 0.00000000E+00 -.94560943E+03 0.94560948E+03 0.32000000E+00 0.0000E+00 0.9000E+01
       25  1    1    2    0    0 -.12080913E+03 -.14299319E+03 -.87177279E+02 0.24138512E+03 0.12500000E+03 0.0000E+00 0.9000E+01
      -24  1    1    2    0    0 0.13288500E+03 0.12484917E+03 -.15440419E+03 0.25209841E+03 0.80419002E+02 0.0000E+00 0.9000E+01
       21  1    1    2  502  501 -.12075873E+02 0.18144015E+02 -.57787148E+03 0.57828284E+03 0.75000000E+00 0.0000E+00 0.9000E+01
#aMCatNLO 1  0  0  1  1 0.71739663D+02 0.00000000D+00  -5  6  0 0.00000000D+00 0.00000000D+00 0.00000000D+00 0.00000000D+00 0.00000000D+00
  <mgrwgt>
 -.1716905607D+01    7    4    0
 0.345391089852840D+03 0.000000000000000D+00 0.000000000000000D+00 0.345391089852840D+03
 0.345391089852840D+03 0.000000000000000D+00 0.000000000000000D+00 -.345391089852840D+03
 0.271099903003995D+03 -.120809101015530D+03 -.142993232330929D+03 0.151090218174930D+03
 0.207972515136456D+03 0.132885026630139D+03 0.124849138280132D+03 0.594946507345714D+02
 0.211709761565228D+03 -.120759256146094D+02 0.181440940507967D+02 -.210584868909502D+03
 0.000000000000000D+00 0.000000000000000D+00 0.000000000000000D+00 0.000000000000000D+00
 0.499682075229228D+03 0.000000000000000D+00 0.000000000000000D+00 0.499682075229228D+03
 0.348711007168879D+03 0.000000000000000D+00 0.000000000000000D+00 -.348711007168879D+03
 0.282454544238309D+03 -.133502874634911D+03 -.153311115046947D+03 0.151090218174930D+03
 0.197577986466771D+03 0.123585189397824D+03 0.117289949600843D+03 0.594946507345714D+02
 0.211957186696716D+03 -.217911981736919D+02 0.102472269863245D+02 -.210584868909502D+03
 0.156403364996312D+03 0.317088834107795D+02 0.257739384597792D+02 0.150971068060349D+03
 0.345391089852840D+03 0.000000000000000D+00 0.000000000000000D+00 0.345391089852840D+03
 0.345391089852840D+03 0.000000000000000D+00 0.000000000000000D+00 -.345391089852840D+03
 0.271099903003995D+03 -.120809101015530D+03 -.142993232330929D+03 0.151090218174930D+03
 0.207972515136456D+03 0.132885026630139D+03 0.124849138280132D+03 0.594946507345714D+02
 0.000000000000000D+00 0.000000000000000D+00 0.000000000000000D+00 0.000000000000000D+00
 0.211709761565228D+03 -.120759256146094D+02 0.181440940507967D+02 -.210584868909502D+03
 0.499682075229228D+03 0.000000000000000D+00 0.000000000000000D+00 0.499682075229228D+03
 0.348711007168879D+03 0.000000000000000D+00 0.000000000000000D+00 -.348711007168879D+03
 0.282454544238309D+03 -.133502874634911D+03 -.153311115046947D+03 0.151090218174930D+03
 0.197577986466771D+03 0.123585189397824D+03 0.117289949600843D+03 0.594946507345714D+02
 0.156403364996312D+03 0.317088834107795D+02 0.257739384597792D+02 0.150971068060349D+03
 0.211957186696716D+03 -.217911981736919D+02 0.102472269863245D+02 -.210584868909502D+03
0.206552545194D-02 0.000000000000D+00 0.000000000000D+00 0.488770468235D-04 0.000000000000D+00  6 -2 1 25 -24 21 21 2 0.19408725D-01 0.14547841D+00 0.49766809D+05 0.49766809D+05 0.49766809D+05 0.11924829D+01  1  2  2  1  6  1       -2 0.101667511831D+00 0.100000000000D+01
0.796073594705D-03 0.109000772726D-03 -.793216160079D-05 0.488770468235D-04 0.000000000000D+00  6 -2 1 25 -24 21 21 4 0.19408725D-01 0.14547841D+00 0.49766809D+05 0.49766809D+05 0.49766809D+05 0.11924829D+01  1  2  3  1  6  1       -2 0.557197506457D-01 0.100000000000D+01
0.332752593931D-04 0.000000000000D+00 0.000000000000D+00 0.488770468235D-04 0.000000000000D+00  6 -2 1 25 -24 21 21 4 0.19408725D-01 0.14547841D+00 0.49766809D+05 0.49766809D+05 0.49766809D+05 0.11924829D+01  1  2 15  1  6  1       -2 0.232904240058D-02 0.100000000000D+01
-.314858170133D-01 0.000000000000D+00 0.000000000000D+00 0.488770468235D-04 0.000000000000D+00  6 -2 1 25 -24 21 21 4 0.19408725D-01 0.14547841D+00 0.49766809D+05 0.49766809D+05 0.49766809D+05 0.11924829D+01  1  2  4  1  6  1       -2 -.220379357452D+01 0.100000000000D+01
-.337631609738D-01 0.000000000000D+00 -.164207445019D-02 0.488770468235D-04 0.000000000000D+00  6 -2 1 25 -24 21 21 4 0.28231867D-01 0.14547841D+00 0.49766809D+05 0.49766809D+05 0.49766809D+05 0.11924829D+01  1  2  5  1  6  1       -2 -.122704767346D+01 0.100000000000D+01
0.322000343465D-01 0.000000000000D+00 0.153316423492D-02 0.488770468235D-04 0.000000000000D+00  6 -2 1 25 -24 21 21 4 0.19408725D-01 0.14547841D+00 0.49766809D+05 0.49766809D+05 0.49766809D+05 0.11924829D+01  1  2  6  1  6  1       -2 0.225378394222D+01 0.100000000000D+01
-.148116482762D-02 0.000000000000D+00 -.745272810031D-04 0.488770468235D-04 0.000000000000D+00  6 21 1 25 -24 2 21 4 0.28231867D-01 0.14547841D+00 0.49766809D+05 0.49766809D+05 0.49766809D+05 0.11924829D+01  3  4  5  4  5  1       -2 -.699564606118D+00 0.100000000000D+01
  </mgrwgt>
  </event>
  <event>
  6     66 0.39191994E-03 0.14565413E+02 0.75467711E-02 0.12144151E+00
       -2 -1    0    0    0  503 0.00000000E+00 0.00000000E+00 0.90006154E+02 0.90006723E+02 0.32000000E+00 0.0000E+00 0.9000E+01
        1 -1    0    0  502    0 0.00000000E+00 0.00000000E+00 -.35018674E+03 0.35018689E+03 0.32000000E+00 0.0000E+00 0.9000E+01
       25  1    1    2    0    0 0.45028743E+02 -.13603253E+02 -.25706722E+03 0.28969154E+03 0.12500000E+03 0.0000E+00 0.9000E+01
      -24  1    1    2    0    0 -.56304949E+02 0.34270075E+02 0.12854068E+02 0.10477179E+03 0.80419002E+02 0.0000E+00 0.9000E+01
       21  1    1    2  502  501 -.61537434E+01 -.22489903E+02 -.15823109E+02 0.28188607E+02 0.75000000E+00 0.0000E+00 0.9000E+01
       21  1    1    2  501  503 0.17429950E+02 0.18230807E+01 -.14432919E+00 0.17541668E+02 0.75000000E+00 0.0000E+00 0.9000E+01
#aMCatNLO 2  0  0  1  2 0.17525033D+02 0.00000000D+00  -5  6  0 0.00000000D+00 0.00000000D+00 0.00000000D+00 0.00000000D+00 0.00000000D+00
  <mgrwgt>
 0.5009556902D-01    1    2    0
 0.166364570992235D+03 0.000000000000000D+00 0.000000000000000D+00 0.166364570992235D+03
 0.166364570992235D+03 0.000000000000000D+00 0.000000000000000D+00 -.166364570992235D+03
 0.169363098186017D+03 0.538301309980338D+02 -.126767547728622D+02 -.100002379533337D+03
 0.140371827699793D+03 -.488885112020487D+02 0.350507013608285D+02 0.980734207824471D+02
 0.229942160986600D+02 -.494161979598514D+01 -.223739465879662D+02 0.192895875089025D+01
 0.000000000000000D+00 0.000000000000000D+00 0.000000000000000D+00 0.000000000000000D+00
 0.184411504458636D+03 0.000000000000000D+00 0.000000000000000D+00 0.184411504458636D+03
 0.170904799142673D+03 0.000000000000000D+00 0.000000000000000D+00 -.170904799142673D+03
 0.166847435519329D+03 0.450300690808875D+02 -.135971947701503D+02 -.100002379533337D+03
 0.142935367872699D+03 -.563038673931072D+02 0.342750942688955D+02 0.980734207824471D+02
 0.234075456607516D+02 -.615615157179607D+01 -.225009801969293D+02 0.192895875089025D+01
 0.221259545485309D+02 0.174299498840157D+02 0.182308069818415D+01 0.135067053159630D+02
0.894069882975D-04 0.000000000000D+00 0.000000000000D+00 0.233913542595D-04 0.200584888439D-06  6 -2 1 25 -24 21 21 4 0.13846649D-01 0.53872966D-01 0.19375494D+05 0.19375494D+05 0.19375494D+05 0.12353457D+01  1  2  1  1  6  1       -2 0.500955690214D-01 0.100000000000D+01
  </mgrwgt>
  </event>
  <event>
  5     66 0.39191994E-03 0.23982396E+02 0.75467711E-02 0.11933945E+00
       -2 -1    0    0    0  501 0.00000000E+00 0.00000000E+00 0.26868778E+02 0.26870684E+02 0.32000000E+00 0.0000E+00 0.9000E+01
        1 -1    0    0  502    0 0.00000000E+00 0.00000000E+00 -.10814291E+04 0.10814291E+04 0.32000000E+00 0.0000E+00 0.9000E+01
       25  1    1    2    0    0 -.74380753E+02 0.55597063E+02 -.33566179E+03 0.37002347E+03 0.12500000E+03 0.0000E+00 0.9000E+01
      -24  1    1    2    0    0 0.94505280E+02 -.42566745E+02 -.68028701E+03 0.69282090E+03 0.80419002E+02 0.0000E+00 0.9000E+01
       21  1    1    2  502  501 -.20124528E+02 -.13030318E+02 -.38611473E+02 0.45455409E+02 0.75000000E+00 0.0000E+00 0.9000E+01
#aMCatNLO 1  0  0  2  2 0.92425215D+00 0.00000000D+00  -5  6  0 0.00000000D+00 0.00000000D+00 0.00000000D+00 0.00000000D+00 0.00000000D+00
  <mgrwgt>
 0.3502782599D+00    9    4    0
 0.170463366935943D+03 0.000000000000000D+00 0.000000000000000D+00 0.170463366935943D+03
 0.170463366935943D+03 0.000000000000000D+00 0.000000000000000D+00 -.170463366935943D+03
 0.164612456753669D+03 -.743773467455136D+02 0.555992680390171D+02 0.533759552898279D+02
 0.147980293809711D+03 0.945083420057067D+02 -.425647627544818D+02 -.684643386342485D+02
 0.283339833085057D+02 -.201309952601931D+02 -.130345052845353D+02 0.150883833444205D+02
 0.000000000000000D+00 -.000000000000000D+00 -.000000000000000D+00 -.000000000000000D+00
 0.170787584754244D+03 0.000000000000000D+00 0.000000000000000D+00 0.170787584754244D+03
 0.171123963001427D+03 0.000000000000000D+00 0.000000000000000D+00 -.171123963001427D+03
 0.164543979123169D+03 -.740224007236091D+02 0.558696040230961D+02 0.533759552898279D+02
 0.148114747262355D+03 0.948276362545165D+02 -.423215800741981D+02 -.684643386342485D+02
 0.282692603075470D+02 -.200699571216105D+02 -.129880170743800D+02 0.150883833444205D+02
 0.983561062600423D+00 -.735278409296866D+00 -.560006874517930D+00 -.336378247183438D+00
 0.170463366935943D+03 0.000000000000000D+00 0.000000000000000D+00 0.170463366935943D+03
 0.170463366935943D+03 0.000000000000000D+00 0.000000000000000D+00 -.170463366935943D+03
 0.164612456753669D+03 -.743773467455136D+02 0.555992680390171D+02 0.533759552898279D+02
 0.147980293809711D+03 0.945083420057067D+02 -.425647627544818D+02 -.684643386342485D+02
 0.000000000000000D+00 -.000000000000000D+00 -.000000000000000D+00 -.000000000000000D+00
 0.283339833085057D+02 -.201309952601931D+02 -.130345052845353D+02 0.150883833444205D+02
 0.170787584754244D+03 0.000000000000000D+00 0.000000000000000D+00 0.170787584754244D+03
 0.171123963001427D+03 0.000000000000000D+00 0.000000000000000D+00 -.171123963001427D+03
 0.164543979123169D+03 -.740224007236091D+02 0.558696040230961D+02 0.533759552898279D+02
 0.148114747262355D+03 0.948276362545165D+02 -.423215800741981D+02 -.684643386342485D+02
 0.983561062600423D+00 -.735278409296866D+00 -.560006874517930D+00 -.336378247183438D+00
 0.282692603075470D+02 -.200699571216105D+02 -.129880170743800D+02 0.150883833444205D+02
0.108966728810D-03 0.000000000000D+00 0.000000000000D+00 0.284763105970D-04 0.000000000000D+00  6 -2 1 25 -24 21 21 2 0.41338084D-02 0.16637385D+00 0.24163287D+05 0.24163287D+05 0.24163287D+05 0.12248859D+01  1  2  2  2  6  2        1 0.516758567682D-01 0.100000000000D+01
0.224838536695D-04 0.575033226075D-05 -.418460930228D-06 0.284763105970D-04 0.000000000000D+00  6 -2 1 25 -24 21 21 4 0.41338084D-02 0.16637385D+00 0.24163287D+05 0.24163287D+05 0.24163287D+05 0.12248859D+01  1  2  3  2  6  2        1 0.159976340767D-01 0.100000000000D+01
0.353335333200D-05 0.000000000000D+00 0.000000000000D+00 0.284763105970D-04 0.000000000000D+00  6 -2 1 25 -24 21 21 4 0.41338084D-02 0.16637385D+00 0.24163287D+05 0.24163287D+05 0.24163287D+05 0.12248859D+01  1  2 15  2  6  2        1 0.251403938576D-02 0.100000000000D+01
-.114167895988D-02 0.000000000000D+00 0.000000000000D+00 0.284763105970D-04 0.000000000000D+00  6 -2 1 25 -24 21 21 4 0.41338084D-02 0.16637385D+00 0.24163287D+05 0.24163287D+05 0.24163287D+05 0.12248859D+01  1  2  4  2  6  2        1 -.812323478955D+00 0.100000000000D+01
-.582064338601D-01 0.000000000000D+00 -.519313373702D-02 0.284763105970D-04 0.000000000000D+00  6 -2 1 25 -24 21 21 4 0.41338084D-02 0.16721977D+00 0.24163287D+05 0.24163287D+05 0.24163287D+05 0.12248859D+01  1  2  5  2  6  2        1 -.410431336700D+02 0.100000000000D+01
0.582320891545D-01 0.000000000000D+00 0.519306695159D-02 0.284763105970D-04 0.000000000000D+00  6 -2 1 25 -24 21 21 4 0.41338084D-02 0.16637385D+00 0.24163287D+05 0.24163287D+05 0.24163287D+05 0.12248859D+01  1  2  6  2  6  2        1 0.414330953895D+02 0.100000000000D+01
0.107770808150D-02 0.000000000000D+00 0.000000000000D+00 0.284763105970D-04 0.415032173063D-03  6 -2 1 25 -24 21 21 4 0.41416708D-02 0.16701860D+00 0.24307600D+05 0.24307600D+05 0.24307600D+05 0.12246076D+01  1  2 11  2  6  2        1 0.758762978520D+00 0.100000000000D+01
-.548812859509D-04 0.000000000000D+00 -.490090724949D-05 0.284763105970D-04 0.000000000000D+00  6 -2 21 25 -24 -1 21 4 0.41338084D-02 0.16721977D+00 0.24163287D+05 0.24163287D+05 0.24163287D+05 0.12248859D+01  3  4  5  5  5  2        1 -.566067338966D-01 0.100000000000D+01
0.287399548504D-06 0.000000000000D+00 0.000000000000D+00 0.284763105970D-04 0.219114904502D-06  6 -2 21 25 -24 -1 21 4 0.41416708D-02 0.16701860D+00 0.24307600D+05 0.24307600D+05 0.24307600D+05 0.12246076D+01  3  4 11  5  5  2        1 0.296244483798D-03 0.100000000000D+01
  </mgrwgt>
  </event>
  <event>
  5     66 0.39191994E-03 0.47134769E+02 0.75467711E-02 0.11989083E+00
       -2 -1    0    0    0  501 0.00000000E+00 0.00000000E+00 0.18067415E+02 0.18070249E+02 0.32000000E+00 0.0000E+00 0.9000E+01
        1 -1    0    0  502    0 -.00000000E+00 -.00000000E+00 -.13493819E+04 0.13493819E+04 0.32000000E+00 0.0000E+00 0.9000E+01
       25  1    1    2    0    0 -.64991740E+02 -.66524046E+02 -.56230782E+03 0.58349332E+03 0.12500000E+03 0.0000E+00 0.9000E+01
      -24  1    1    2    0    0 0.21525076E+02 0.48302318E+02 -.37549577E+03 0.38763479E+03 0.80419002E+02 0.0000E+00 0.9000E+01
       21  1    1    2  502  501 0.43466664E+02 0.18221728E+02 -.39351088E+03 0.39632405E+03 0.75000000E+00 0.0000E+00 0.9000E+01
#aMCatNLO 1  0  0  5  1 0.15179936D+02 0.00000000D+00  -5  6  0 0.00000000D+00 0.00000000D+00 0.00000000D+00 0.00000000D+00 0.00000000D+00
  <mgrwgt>
 0.7301534862D-01    9    2    0
 0.156146746339699D+03 0.000000000000000D+00 0.000000000000000D+00 0.156146746339699D+03
 0.156146746339699D+03 -.000000000000000D+00 -.000000000000000D+00 -.156146746339699D+03
 0.157835779295011D+03 -.649935860945560D+02 -.665248199120725D+02 0.252470855327743D+02
 0.966045018340396D+02 0.215239463731076D+02 0.483018438381733D+02 0.829852002424023D+01
 0.578532115503473D+02 0.434696397214484D+02 0.182229760738992D+02 -.335456055570145D+02
 0.000000000000000D+00 0.000000000000000D+00 -.000000000000000D+00 0.000000000000000D+00
 0.156146746339699D+03 0.000000000000000D+00 0.000000000000000D+00 0.156146746339699D+03
 0.156146746339699D+03 -.000000000000000D+00 -.000000000000000D+00 -.156146746339699D+03
 0.153687569524958D+03 -.589559660363810D+02 -.639937797063464D+02 0.205878423857757D+02
 0.981050033555916D+02 0.252976025645400D+02 0.498838041886214D+02 0.538638219846669D+01
 0.451519298122364D+02 0.363248862360237D+02 0.230175003376691D+02 -.137620523147699D+02
 0.153489899866115D+02 -.266652276418270D+01 -.890752481994413D+01 -.122121722694725D+02
0.783310471051D-04 0.000000000000D+00 0.000000000000D+00 0.104528301283D-04 0.000000000000D+00  6 -2 1 25 -24 21 21 2 0.27798233D-02 0.20759743D+00 0.22378012D+05 0.22378012D+05 0.22378012D+05 0.12284904D+01  1  2  2  3  6  5       21 0.440071714677D-01 0.100000000000D+01
0.193110662408D-05 0.413364292116D-05 -.300811845922D-06 0.104528301283D-04 0.000000000000D+00  6 -2 1 25 -24 21 21 4 0.27798233D-02 0.20759743D+00 0.22378012D+05 0.22378012D+05 0.22378012D+05 0.12284904D+01  1  2  3  3  6  5       21 0.163734170696D-02 0.100000000000D+01
0.234885066500D-05 0.000000000000D+00 0.000000000000D+00 0.104528301283D-04 0.000000000000D+00  6 -2 1 25 -24 21 21 4 0.27798233D-02 0.20759743D+00 0.22378012D+05 0.22378012D+05 0.22378012D+05 0.12284904D+01  1  2 15  3  6  5       21 0.199153744763D-02 0.100000000000D+01
0.569632354851D-04 0.000000000000D+00 0.000000000000D+00 0.104348491452D-04 0.000000000000D+00  6 -2 1 25 -24 21 21 4 0.27798233D-02 0.20759743D+00 0.22885788D+05 0.22885788D+05 0.22885788D+05 0.12274333D+01  1  2 12  3  6  5       21 0.481447703735D-01 0.100000000000D+01
-.299435282510D-04 0.000000000000D+00 0.000000000000D+00 0.104528301283D-04 0.000000000000D+00  6 -2 1 25 -24 21 21 4 0.27798233D-02 0.20759743D+00 0.22378012D+05 0.22378012D+05 0.22378012D+05 0.12284904D+01  1  2  4  3  6  5       21 -.253884415535D-01 0.100000000000D+01
0.775851717590D-06 0.000000000000D+00 0.000000000000D+00 0.104348491452D-04 0.000000000000D+00  6 -2 1 25 -24 1 -1 4 0.27798233D-02 0.20759743D+00 0.22885788D+05 0.22885788D+05 0.22885788D+05 0.12274333D+01  1  2 12  6  6  5       21 0.655742295344D-03 0.100000000000D+01
0.775851717590D-06 0.000000000000D+00 0.000000000000D+00 0.104348491452D-04 0.000000000000D+00  6 -2 1 25 -24 2 -2 4 0.27798233D-02 0.20759743D+00 0.22885788D+05 0.22885788D+05 0.22885788D+05 0.12274333D+01  1  2 12  7  6  5       21 0.655742295344D-03 0.100000000000D+01
0.775851717590D-06 0.000000000000D+00 0.000000000000D+00 0.104348491452D-04 0.000000000000D+00  6 -2 1 25 -24 3 -3 4 0.27798233D-02 0.20759743D+00 0.22885788D+05 0.22885788D+05 0.22885788D+05 0.12274333D+01  1  2 12  8  6  5       21 0.655742295344D-03 0.100000000000D+01
0.775851717590D-06 0.000000000000D+00 0.000000000000D+00 0.104348491452D-04 0.000000000000D+00  6 -2 1 25 -24 4 -4 4 0.27798233D-02 0.20759743D+00 0.22885788D+05 0.22885788D+05 0.22885788D+05 0.12274333D+01  1  2 12  8  6  5       21 0.655742295344D-03 0.100000000000D+01
  </mgrwgt>
  </event>
  <event>
  5     66 0.39191994E-03 0.21957592E+02 0.75467711E-02 0.99144248E-01
       -4 -1    0    0    0  501 0.00000000E+00 0.00000000E+00 0.36828899E+03 0.36829225E+03 0.15500000E+01 0.0000E+00 0.9000E+01
        3 -1    0    0  502    0 0.00000000E+00 0.00000000E+00 -.27151617E+03 0.27151663E+03 0.50000000E+00 0.0000E+00 0.9000E+01
       25  1    1    2    0    0 0.17420127E+03 -.13154358E+03 0.71254123E+02 0.26144205E+03 0.12500000E+03 0.0000E+00 0.9000E+01
      -24  1    1    2    0    0 -.18844883E+03 0.14825064E+03 0.12102461E+03 0.28036652E+03 0.80419002E+02 0.0000E+00 0.9000E+01
       21  1    1    2  502  501 0.14247563E+02 -.16707053E+02 -.95505917E+02 0.98000313E+02 0.75000000E+00 0.0000E+00 0.9000E+01
#aMCatNLO 1  0  0  2  5 0.33244124D+02 0.00000000D+00  -5  6  0 0.00000000D+00 0.00000000D+00 0.00000000D+00 0.00000000D+00 0.00000000D+00
  <mgrwgt>
 0.3134935012D-01    5    4    0
 0.316223982773052D+03 0.000000000000000D+00 0.000000000000000D+00 0.316223982773052D+03
 0.316223982773052D+03 0.000000000000000D+00 0.000000000000000D+00 -.316223982773052D+03
 0.253582063403657D+03 0.174201142606117D+03 -.131543437621683D+03 0.320803493349196D+02
 0.265111774544347D+03 -.188448960027358D+03 0.148250788089859D+03 0.795344600976520D+02
 0.113754127598100D+03 0.142478174212413D+02 -.167073504681765D+02 -.111614809432572D+03
 0.000000000000000D+00 0.000000000000000D+00 -.000000000000000D+00 -.000000000000000D+00
 0.594474288819022D+03 0.000000000000000D+00 0.000000000000000D+00 0.594474288819022D+03
 0.677178038160962D+03 0.000000000000000D+00 0.000000000000000D+00 -.677178038160962D+03
 0.172973129155022D+03 0.336979948887344D+02 -.110136278022766D+03 0.320803493349196D+02
 0.487714838787813D+03 -.436422752642798D+03 0.186032251645003D+03 0.795344600976520D+02
 0.129720745599135D+03 -.659504468856596D+02 -.448828583179394D+01 -.111614809432572D+03
 0.481243613438016D+03 0.468675204639723D+03 -.714076877904429D+02 -.827037493419400D+02
 0.316223982773052D+03 0.000000000000000D+00 0.000000000000000D+00 0.316223982773052D+03
 0.316223982773052D+03 0.000000000000000D+00 0.000000000000000D+00 -.316223982773052D+03
 0.253582063403657D+03 0.174201142606117D+03 -.131543437621683D+03 0.320803493349196D+02
 0.265111774544347D+03 -.188448960027358D+03 0.148250788089859D+03 0.795344600976520D+02
 0.000000000000000D+00 0.000000000000000D+00 -.000000000000000D+00 -.000000000000000D+00
 0.113754127598100D+03 0.142478174212413D+02 -.167073504681765D+02 -.111614809432572D+03
 0.594474288819022D+03 0.000000000000000D+00 0.000000000000000D+00 0.594474288819022D+03
 0.677178038160962D+03 0.000000000000000D+00 0.000000000000000D+00 -.677178038160962D+03
 0.172973129155022D+03 0.336979948887344D+02 -.110136278022766D+03 0.320803493349196D+02
 0.487714838787813D+03 -.436422752642798D+03 0.186032251645003D+03 0.795344600976520D+02
 0.481243613438016D+03 0.468675204639723D+03 -.714076877904429D+02 -.827037493419400D+02
 0.129720745599135D+03 -.659504468856596D+02 -.448828583179394D+01 -.111614809432572D+03
0.358676891007D-02 0.000000000000D+00 0.000000000000D+00 0.343233582837D-04 0.000000000000D+00  6 -4 3 25 -24 21 21 2 0.56660131D-01 0.41772005D-01 0.69274890D+05 0.69274890D+05 0.69274890D+05 0.11785072D+01  1  2  2  2  6  2        3 0.181415776728D-01 0.100000000000D+01
0.119296534795D-02 0.189278995531D-03 -.137741370326D-04 0.343233582837D-04 0.000000000000D+00  6 -4 3 25 -24 21 21 4 0.56660131D-01 0.41772005D-01 0.69274890D+05 0.69274890D+05 0.69274890D+05 0.11785072D+01  1  2  3  2  6  2        3 0.838038487216D-02 0.100000000000D+01
0.252660021503D-04 0.000000000000D+00 0.000000000000D+00 0.343233582837D-04 0.000000000000D+00  6 -4 3 25 -24 21 21 4 0.56660131D-01 0.41772005D-01 0.69274890D+05 0.69274890D+05 0.69274890D+05 0.11785072D+01  1  2 15  2  6  2        3 0.177489499225D-03 0.100000000000D+01
0.280708411854D-02 0.000000000000D+00 -.266774470248D-02 0.343233582837D-04 0.000000000000D+00  6 -4 3 25 -24 21 21 4 0.56660131D-01 0.15029753D+00 0.69274890D+05 0.69274890D+05 0.69274890D+05 0.11785072D+01  1  2  5  2  6  2        3 0.116298312210D-02 0.100000000000D+01
0.497244149177D-03 0.000000000000D+00 -.401421605343D-03 0.343233582837D-04 0.000000000000D+00  6 -4 21 25 -24 -3 21 4 0.56660131D-01 0.15029753D+00 0.69274890D+05 0.69274890D+05 0.69274890D+05 0.11785072D+01  3  4  5  5  5  2        3 0.348691494921D-02 0.100000000000D+01
  </mgrwgt>
  </event>
  <event>
  5     66 0.39191994E-03 0.27370987E+02 0.75467711E-02 0.11504508E+00
       -2 -1    0    0    0  501 0.00000000E+00 0.00000000E+00 0.16468924E+03 0.16468955E+03 0.32000000E+00 0.0000E+00 0.9000E+01
        1 -1    0    0  502    0 -.00000000E+00 -.00000000E+00 -.26838855E+03 0.26838874E+03 0.32000000E+00 0.0000E+00 0.9000E+01
       25  1    1    2    0    0 -.14062833E+02 -.13464835E+03 -.29167161E+02 0.18655741E+03 0.12500000E+03 0.0000E+00 0.9000E+01
      -24  1    1    2    0    0 0.21529882E+02 0.16097782E+03 -.10181280E+03 0.20787125E+03 0.80419002E+02 0.0000E+00 0.9000E+01
       21  1    1    2  502  501 -.74670489E+01 -.26329471E+02 0.27280653E+02 0.38649637E+02 0.75000000E+00 0.0000E+00 0.9000E+01
#aMCatNLO 1  0  0  5  2 0.47154040D+01 0.00000000D+00  -5  6  0 0.00000000D+00 0.00000000D+00 0.00000000D+00 0.00000000D+00 0.00000000D+00
  <mgrwgt>
 0.2680005474D+00   14    2    0
 0.210239901232690D+03 0.000000000000000D+00 0.000000000000000D+00 0.210239901232690D+03
 0.210239901232690D+03 -.000000000000000D+00 -.000000000000000D+00 -.210239901232690D+03
 0.184952514803583D+03 -.140624065654823D+02 -.134646849176121D+03 0.159658216418523D+02
 0.188992299977013D+03 0.215303180613480D+02 0.160979361891960D+03 -.536000368028352D+02
 0.465349876847847D+02 -.746791149586574D+01 -.263325127158391D+02 0.376342151609829D+02
 0.000000000000000D+00 0.000000000000000D+00 0.000000000000000D+00 -.000000000000000D+00
 0.210239901232690D+03 0.000000000000000D+00 0.000000000000000D+00 0.210239901232690D+03
 0.210239901232690D+03 -.000000000000000D+00 -.000000000000000D+00 -.210239901232690D+03
 0.186455582562136D+03 -.145447697839210D+02 -.136347704306799D+03 0.183966701004230D+02
 0.186784964526227D+03 0.210422804229457D+02 0.159258498257442D+03 -.511405923516710D+02
 0.495740701052338D+01 0.269333321910881D+01 0.392368413114553D+01 0.138799973985140D+01
 0.422818483664950D+02 -.919084385813346D+01 -.268344780817883D+02 0.313559225113966D+02
0.276420415861D-02 0.000000000000D+00 0.000000000000D+00 0.224633156973D-04 0.000000000000D+00  6 -2 1 25 -24 21 21 2 0.25336845D-01 0.41290585D-01 0.38585794D+05 0.38585794D+05 0.38585794D+05 0.12035910D+01  1  2  2  3  6  5       21 0.489424758859D+00 0.100000000000D+01
0.544201798864D-03 0.145871061031D-03 -.106152718007D-04 0.224633156973D-04 0.000000000000D+00  6 -2 1 25 -24 21 21 4 0.25336845D-01 0.41290585D-01 0.38585794D+05 0.38585794D+05 0.38585794D+05 0.12035910D+01  1  2  3  3  6  5       21 0.139583358600D+00 0.100000000000D+01
0.136306855563D-06 0.000000000000D+00 0.000000000000D+00 0.224633156973D-04 0.000000000000D+00  6 -2 1 25 -24 21 21 4 0.25336845D-01 0.41290585D-01 0.38585794D+05 0.38585794D+05 0.38585794D+05 0.12035910D+01  1  2 15  3  6  5       21 0.349616056755D-04 0.100000000000D+01
0.272870802743D-04 0.000000000000D+00 0.000000000000D+00 0.224178476093D-04 0.000000000000D+00  6 -2 1 25 -24 21 21 4 0.25336845D-01 0.41290585D-01 0.39664174D+05 0.39664174D+05 0.39664174D+05 0.12023723D+01  1  2 12  3  6  5       21 0.697260344158D-02 0.100000000000D+01
-.161002721477D-02 0.000000000000D+00 0.000000000000D+00 0.224633156973D-04 0.000000000000D+00  6 -2 1 25 -24 21 21 4 0.25336845D-01 0.41290585D-01 0.38585794D+05 0.38585794D+05 0.38585794D+05 0.12035910D+01  1  2  4  3  6  5       21 -.412958954829D+00 0.100000000000D+01
0.237805262600D-04 0.000000000000D+00 0.000000000000D+00 0.224633156973D-04 0.187475842006D-05  6 -2 1 25 -24 21 21 4 0.25336845D-01 0.41290585D-01 0.39664174D+05 0.39664174D+05 0.39664174D+05 0.12023723D+01  1  2 11  3  6  5       21 0.607658194194D-02 0.100000000000D+01
0.890576188975D-05 0.000000000000D+00 0.000000000000D+00 0.224178476093D-04 0.000000000000D+00  6 -2 1 25 -24 1 -1 4 0.25336845D-01 0.41290585D-01 0.39664174D+05 0.39664174D+05 0.39664174D+05 0.12023723D+01  1  2 12  6  6  5       21 0.227566838878D-02 0.100000000000D+01
0.277585748810D-04 0.000000000000D+00 0.000000000000D+00 0.224178476093D-04 0.392459883656D-07  6 -2 1 25 -24 1 -1 4 0.25336845D-01 0.41290585D-01 0.39664174D+05 0.39664174D+05 0.39664174D+05 0.12023723D+01  1  2 11  6  6  5       21 0.709308334945D-02 0.100000000000D+01
0.890576188975D-05 0.000000000000D+00 0.000000000000D+00 0.224178476093D-04 0.000000000000D+00  6 -2 1 25 -24 2 -2 4 0.25336845D-01 0.41290585D-01 0.39664174D+05 0.39664174D+05 0.39664174D+05 0.12023723D+01  1  2 12  7  6  5       21 0.227566838878D-02 0.100000000000D+01
0.294814222571D-04 0.000000000000D+00 0.000000000000D+00 0.224178476093D-04 0.394819973013D-07  6 -2 1 25 -24 2 -2 4 0.25336845D-01 0.41290585D-01 0.39664174D+05 0.39664174D+05 0.39664174D+05 0.12023723D+01  1  2 11  7  6  5       21 0.753331848723D-02 0.100000000000D+01
0.890576188975D-05 0.000000000000D+00 0.000000000000D+00 0.224178476093D-04 0.000000000000D+00  6 -2 1 25 -24 3 -3 4 0.25336845D-01 0.41290585D-01 0.39664174D+05 0.39664174D+05 0.39664174D+05 0.12023723D+01  1  2 12  8  6  5       21 0.227566838878D-02 0.100000000000D+01
0.890576188975D-05 0.000000000000D+00 0.000000000000D+00 0.224178476093D-04 0.000000000000D+00  6 -2 1 25 -24 4 -4 4 0.25336845D-01 0.41290585D-01 0.39664174D+05 0.39664174D+05 0.39664174D+05 0.12023723D+01  1  2 12  8  6  5       21 0.227566838878D-02 0.100000000000D+01
0.296213785491D-04 0.000000000000D+00 0.000000000000D+00 0.224178476093D-04 0.379144612095D-07  6 -2 1 25 -24 3 -3 4 0.25336845D-01 0.41290585D-01 0.39664174D+05 0.39664174D+05 0.39664174D+05 0.12023723D+01  1  2 11  8  6  5       21 0.756908118934D-02 0.100000000000D+01
0.296213785491D-04 0.000000000000D+00 0.000000000000D+00 0.224178476093D-04 0.379144612095D-07  6 -2 1 25 -24 4 -4 4 0.25336845D-01 0.41290585D-01 0.39664174D+05 0.39664174D+05 0.39664174D+05 0.12023723D+01  1  2 11  8  6  5       21 0.756908118934D-02 0.100000000000D+01
  </mgrwgt>
  </event>
  <event>
  6     66 0.39191994E-03 0.48002802E+02 0.75467711E-02 0.12106499E+00
       -4 -1    0    0    0  501 0.00000000E+00 0.00000000E+00 0.27656991E+02 0.27700391E+02 0.15500000E+01 0.0000E+00 0.9000E+01
        3 -1    0    0  503    0 0.00000000E+00 0.00000000E+00 -.82637809E+03 0.82637824E+03 0.50000000E+00 0.0000E+00 0.9000E+01
       25  1    1    2    0    0 -.21101763E+02 0.42789083E+02 -.27976961E+03 0.31011647E+03 0.12500000E+03 0.0000E+00 0.9000E+01
      -24  1    1    2    0    0 -.32709140E+02 -.32338900E+02 -.33464794E+03 0.34723501E+03 0.80419002E+02 0.0000E+00 0.9000E+01
       21  1    1    2  502  501 0.49037676E+02 -.14689904E+02 -.10155982E+03 0.11373410E+03 0.75000000E+00 0.0000E+00 0.9000E+01
       21  1    1    2  503  502 0.47732273E+01 0.42397211E+01 -.82743725E+02 0.82993045E+02 0.75000000E+00 0.0000E+00 0.9000E+01
#aMCatNLO 2  0  0  2  5 0.63842724D+01 0.00000000D+00  -5  6  0 0.00000000D+00 0.00000000D+00 0.00000000D+00 0.00000000D+00 0.00000000D+00
  <mgrwgt>
 0.2975221202D-02    2    2    0
 0.143098413441500D+03 0.000000000000000D+00 0.000000000000000D+00 0.143098413441500D+03
 0.143098413441500D+03 0.000000000000000D+00 0.000000000000000D+00 -.143098413441500D+03
 0.135915036970329D+03 -.188402542888139D+02 0.448005964094545D+02 0.220419748284025D+02
 0.973262730847366D+02 -.310794937312151D+02 -.308894135938706D+02 -.329408056281622D+02
 0.529555168279338D+02 0.499197480200290D+02 -.139111828155840D+02 0.108988307997597D+02
 0.000000000000000D+00 0.000000000000000D+00 0.000000000000000D+00 -.000000000000000D+00
 0.143773136460805D+03 0.000000000000000D+00 0.000000000000000D+00 0.143773136460805D+03
 0.159077306120012D+03 0.000000000000000D+00 0.000000000000000D+00 -.159077306120012D+03
 0.135599393347883D+03 -.211041488844750D+02 0.427897385110005D+02 0.220419748284025D+02
 0.983264292544518D+02 -.327108512061495D+02 -.323384333803752D+02 -.329408056281622D+02
 0.523422032963991D+02 0.490417728080097D+02 -.146910262734549D+02 0.108988307997597D+02
 0.165824166820834D+02 0.477322728261477D+01 0.423972114282956D+01 -.153041696592067D+02
-.249631993786D-03 0.000000000000D+00 0.000000000000D+00 0.885155087146D-05 0.000000000000D+00  6 -4 3 25 -24 21 21 4 0.42380390D-02 0.12835933D+00 0.20166777D+05 0.20166777D+05 0.20166777D+05 0.12334292D+01  1  2 13  2  6  2        3 -.181205925843D-01 0.100000000000D+01
0.286155388877D-03 0.000000000000D+00 0.000000000000D+00 0.888340953107D-05 0.103793639793D-05  6 -4 3 25 -24 21 21 4 0.42580218D-02 0.12713098D+00 0.20166777D+05 0.20166777D+05 0.20166777D+05 0.12334292D+01  1  2  1  2  6  2        3 0.210958137860D-01 0.100000000000D+01
  </mgrwgt>
  </event>
  <event>
  5     66 -.39191994E-03 0.22569712E+02 0.75467711E-02 0.12490709E+00
       -2 -1    0    0    0  501 0.00000000E+00 0.00000000E+00 0.22558704E+03 0.22558727E+03 0.32000000E+00 0.0000E+00 0.9000E+01
        1 -1    0    0  502    0 0.00000000E+00 0.00000000E+00 -.11532905E+03 0.11532950E+03 0.32000000E+00 0.0000E+00 0.9000E+01
       25  1    1    2    0    0 -.63787062E+01 -.22259924E+02 0.10179130E+03 0.16285779E+03 0.12500000E+03 0.0000E+00 0.9000E+01
      -24  1    1    2    0    0 0.31088399E+01 -.71165349E-01 0.73639060E+02 0.10908527E+03 0.80419002E+02 0.0000E+00 0.9000E+01
       21  1    1    2  502  501 0.32698663E+01 0.22331090E+02 -.65172374E+02 0.68973694E+02 0.75000000E+00 0.0000E+00 0.9000E+01
#aMCatNLO 1  0  0  2  2 0.28450388D+01 0.00000000D+00  -5  6  0 0.00000000D+00 0.00000000D+00 0.00000000D+00 0.00000000D+00 0.00000000D+00
  <mgrwgt>
 -.6168316822D-01    9    4    0
 0.161297407555725D+03 0.000000000000000D+00 0.000000000000000D+00 0.161297407555725D+03
 0.161297407555725D+03 0.000000000000000D+00 0.000000000000000D+00 -.161297407555725D+03
 0.137317188373010D+03 -.637874944385469D+01 -.222602196573300D+02 0.519115054588940D+02
 0.901124836322555D+02 0.310881152591284D+01 -.713590745624817D-01 0.405385489476599D+02
 0.951651431061850D+02 0.326993791794184D+01 0.223315787318924D+02 -.924500544065539D+02
 0.000000000000000D+00 -.000000000000000D+00 0.000000000000000D+00 -.000000000000000D+00
 0.162111344937111D+03 0.000000000000000D+00 0.000000000000000D+00 0.162111344937111D+03
 0.163809127568621D+03 0.000000000000000D+00 0.000000000000000D+00 -.163809127568621D+03
 0.137343422922638D+03 -.525472719676403D+01 -.227112144806328D+02 0.519115054588940D+02
 0.901416678581934D+02 0.384648437769145D+01 -.367337769205129D+00 0.405385489476599D+02
 0.951222696168633D+02 0.404867093041518D+01 0.220191253456098D+02 -.924500544065539D+02
 0.331311210803812D+01 -.264042811134260D+01 0.105942690422812D+01 -.169778263151034D+01
 0.161297407555725D+03 0.000000000000000D+00 0.000000000000000D+00 0.161297407555725D+03
 0.161297407555725D+03 0.000000000000000D+00 0.000000000000000D+00 -.161297407555725D+03
 0.137317188373010D+03 -.637874944385469D+01 -.222602196573300D+02 0.519115054588940D+02
 0.901124836322555D+02 0.310881152591284D+01 -.713590745624817D-01 0.405385489476599D+02
 0.000000000000000D+00 -.000000000000000D+00 0.000000000000000D+00 -.000000000000000D+00
 0.951651431061850D+02 0.326993791794184D+01 0.223315787318924D+02 -.924500544065539D+02
 0.162111344937111D+03 0.000000000000000D+00 0.000000000000000D+00 0.162111344937111D+03
 0.163809127568621D+03 0.000000000000000D+00 0.000000000000000D+00 -.163809127568621D+03
 0.137343422922638D+03 -.525472719676403D+01 -.227112144806328D+02 0.519115054588940D+02
 0.901416678581934D+02 0.384648437769145D+01 -.367337769205129D+00 0.405385489476599D+02
 0.331311210803812D+01 -.264042811134260D+01 0.105942690422812D+01 -.169778263151034D+01
 0.951222696168633D+02 0.404867093041518D+01 0.220191253456098D+02 -.924500544065539D+02
0.978259360077D-04 0.000000000000D+00 0.000000000000D+00 0.748779588053D-04 0.000000000000D+00  6 -2 1 25 -24 21 21 2 0.34705750D-01 0.17742983D-01 0.13245195D+05 0.13245195D+05 0.13245195D+05 0.12540298D+01  1  2  2  2  6  2        1 0.302617325458D-01 0.100000000000D+01
0.142528156116D-04 0.516241647251D-05 -.375677352430D-06 0.748779588053D-04 0.000000000000D+00  6 -2 1 25 -24 21 21 4 0.34705750D-01 0.17742983D-01 0.13245195D+05 0.13245195D+05 0.13245195D+05 0.12540298D+01  1  2  3  2  6  2        1 0.693355803490D-02 0.100000000000D+01
0.467099578881D-05 0.000000000000D+00 0.000000000000D+00 0.748779588053D-04 0.000000000000D+00  6 -2 1 25 -24 21 21 4 0.34705750D-01 0.17742983D-01 0.13245195D+05 0.13245195D+05 0.13245195D+05 0.12540298D+01  1  2 15  2  6  2        1 0.227229631428D-02 0.100000000000D+01
-.114283476792D-02 0.000000000000D+00 0.000000000000D+00 0.748779588053D-04 0.000000000000D+00  6 -2 1 25 -24 21 21 4 0.34705750D-01 0.17742983D-01 0.13245195D+05 0.13245195D+05 0.13245195D+05 0.12540298D+01  1  2  4  2  6  2        1 -.555954093815D+00 0.100000000000D+01
-.118181581195D-01 0.000000000000D+00 -.139418093158D-02 0.748779588053D-04 0.000000000000D+00  6 -2 1 25 -24 21 21 4 0.34705750D-01 0.18103912D-01 0.13245195D+05 0.13245195D+05 0.13245195D+05 0.12540298D+01  1  2  5  2  6  2        1 -.560356646579D+01 0.100000000000D+01
0.118441150008D-01 0.000000000000D+00 0.139389828377D-02 0.748779588053D-04 0.000000000000D+00  6 -2 1 25 -24 21 21 4 0.34705750D-01 0.17742983D-01 0.13245195D+05 0.13245195D+05 0.13245195D+05 0.12540298D+01  1  2  6  2  6  2        1 0.576179899941D+01 0.100000000000D+01
0.969809460810D-03 0.000000000000D+00 0.000000000000D+00 0.748779588053D-04 0.414152076511D-04  6 -2 1 25 -24 21 21 4 0.34880882D-01 0.18019276D-01 0.13560618D+05 0.13560618D+05 0.13560618D+05 0.12528483D+01  1  2 11  2  6  2        1 0.456865059895D+00 0.100000000000D+01
-.430990958028D-04 0.000000000000D+00 -.510876123101D-05 0.748779588053D-04 0.000000000000D+00  6 -2 21 25 -24 -1 21 4 0.34705750D-01 0.18103912D-01 0.13245195D+05 0.13245195D+05 0.13245195D+05 0.12540298D+01  3  4  5  5  5  2        1 -.185150424497D+00 0.100000000000D+01
0.581083290408D-05 0.000000000000D+00 0.000000000000D+00 0.748779588053D-04 0.473835909271D-06  6 -2 21 25 -24 -1 21 4 0.34880882D-01 0.18019276D-01 0.13560618D+05 0.13560618D+05 0.13560618D+05 0.12528483D+01  3  4 11  5  5  2        1 0.248561696846D-01 0.100000000000D+01
  </mgrwgt>
  </event>
  <event>
  5     66 0.39191994E-03 0.20161531E+02 0.75467711E-02 0.12142454E+00
       -2 -1    0    0    0  501 0.00000000E+00 0.00000000E+00 0.99467462E+03 0.99467467E+03 0.32000000E+00 0.0000E+00 0.9000E+01
        1 -1    0    0  502    0 0.00000000E+00 0.00000000E+00 -.31504487E+02 0.31506112E+02 0.32000000E+00 0.0000E+00 0.9000E+01
       25  1    1    2    0    0 -.70597946E+02 0.26160250E+02 0.20652805E+03 0.25287796E+03 0.12500000E+03 0.0000E+00 0.9000E+01
      -24  1    1    2    0    0 0.57424446E+02 -.41414724E+02 0.73832022E+03 0.74605409E+03 0.80419002E+02 0.0000E+00 0.9000E+01
       21  1    1    2  502  501 0.13173500E+02 0.15254475E+02 0.18321868E+02 0.27248733E+02 0.75000000E+00 0.0000E+00 0.9000E+01
#aMCatNLO 1  0  0  2  5 0.53126956D+01 0.00000000D+00  -5  6  0 0.00000000D+00 0.00000000D+00 0.00000000D+00 0.00000000D+00 0.00000000D+00
  <mgrwgt>
 0.2878035390D+00   11    4    0
 0.177024219093885D+03 0.000000000000000D+00 0.000000000000000D+00 0.177024219093885D+03
 0.177024219093885D+03 0.000000000000000D+00 0.000000000000000D+00 -.177024219093885D+03
 0.171096392118218D+03 -.706000566483989D+02 0.261578057353016D+02 -.893329535850461D+02
 0.153818267347202D+03 0.574225489794727D+02 -.414169211807750D+02 0.110363639501107D+03
 0.291337787223510D+02 0.131775076689262D+02 0.152591154454734D+02 -.210306859160613D+02
 0.000000000000000D+00 -.000000000000000D+00 -.000000000000000D+00 -.000000000000000D+00
 0.177483851285152D+03 0.000000000000000D+00 0.000000000000000D+00 0.177483851285152D+03
 0.193091749287978D+03 0.000000000000000D+00 0.000000000000000D+00 -.193091749287978D+03
 0.170933933837634D+03 -.693331278787824D+02 0.283892676820851D+02 -.893329535850461D+02
 0.153720558221743D+03 0.585617163465724D+02 -.394104874398552D+02 0.110363639501107D+03
 0.294338038745591D+02 0.133944502898810D+02 0.156412199606648D+02 -.210306859160613D+02
 0.164873046391947D+02 -.262303875767106D+01 -.462000020289475D+01 -.156078980028260D+02
 0.177024219093885D+03 0.000000000000000D+00 0.000000000000000D+00 0.177024219093885D+03
 0.177024219093885D+03 0.000000000000000D+00 0.000000000000000D+00 -.177024219093885D+03
 0.171096392118218D+03 -.706000566483989D+02 0.261578057353016D+02 -.893329535850461D+02
 0.153818267347202D+03 0.574225489794727D+02 -.414169211807750D+02 0.110363639501107D+03
 0.000000000000000D+00 -.000000000000000D+00 -.000000000000000D+00 -.000000000000000D+00
 0.291337787223510D+02 0.131775076689262D+02 0.152591154454734D+02 -.210306859160613D+02
 0.177483851285152D+03 0.000000000000000D+00 0.000000000000000D+00 0.177483851285152D+03
 0.193091749287978D+03 0.000000000000000D+00 0.000000000000000D+00 -.193091749287978D+03
 0.170933933837634D+03 -.693331278787824D+02 0.283892676820851D+02 -.893329535850461D+02
 0.153720558221743D+03 0.585617163465724D+02 -.394104874398552D+02 0.110363639501107D+03
 0.164873046391947D+02 -.262303875767106D+01 -.462000020289475D+01 -.156078980028260D+02
 0.294338038745591D+02 0.133944502898810D+02 0.156412199606648D+02 -.210306859160613D+02
0.367464043592D-03 0.000000000000D+00 0.000000000000D+00 0.304624244589D-04 0.000000000000D+00  6 -2 1 25 -24 21 21 2 0.15302699D+00 0.48469732D-02 0.18663551D+05 0.18663551D+05 0.18663551D+05 0.12371465D+01  1  2  2  2  6  2        1 0.253366077839D-01 0.100000000000D+01
0.656548303196D-04 0.193916103348D-04 -.141115868290D-05 0.304624244589D-04 0.000000000000D+00  6 -2 1 25 -24 21 21 4 0.15302699D+00 0.48469732D-02 0.18663551D+05 0.18663551D+05 0.18663551D+05 0.12371465D+01  1  2  3  2  6  2        1 0.692855313409D-02 0.100000000000D+01
0.699890597539D-05 0.000000000000D+00 0.000000000000D+00 0.304624244589D-04 0.000000000000D+00  6 -2 1 25 -24 21 21 4 0.15302699D+00 0.48469732D-02 0.18663551D+05 0.18663551D+05 0.18663551D+05 0.12371465D+01  1  2 15  2  6  2        1 0.738594429305D-03 0.100000000000D+01
0.670577337409D-02 0.000000000000D+00 0.000000000000D+00 0.303695621877D-04 0.000000000000D+00  6 -2 1 25 -24 21 21 4 0.15302699D+00 0.55591197D-02 0.19410374D+05 0.19410374D+05 0.19410374D+05 0.12352594D+01  1  2 12  2  6  2        1 0.583630258579D+00 0.100000000000D+01
-.761677585207D-02 0.000000000000D+00 0.000000000000D+00 0.304624244589D-04 0.000000000000D+00  6 -2 1 25 -24 21 21 4 0.15302699D+00 0.48469732D-02 0.18663551D+05 0.18663551D+05 0.18663551D+05 0.12371465D+01  1  2  4  2  6  2        1 -.803798226949D+00 0.100000000000D+01
-.259180326936D-01 0.000000000000D+00 -.124566216975D-02 0.304624244589D-04 0.000000000000D+00  6 -2 1 25 -24 21 21 4 0.15302699D+00 0.52986095D-02 0.18663551D+05 0.18663551D+05 0.18663551D+05 0.12371465D+01  1  2  5  2  6  2        1 -.242163660431D+01 0.100000000000D+01
0.259309603954D-01 0.000000000000D+00 0.124073503662D-02 0.304624244589D-04 0.000000000000D+00  6 -2 1 25 -24 21 21 4 0.15302699D+00 0.48469732D-02 0.18663551D+05 0.18663551D+05 0.18663551D+05 0.12371465D+01  1  2  6  2  6  2        1 0.273649381230D+01 0.100000000000D+01
0.387477191682D-02 0.000000000000D+00 0.000000000000D+00 0.304624244589D-04 0.252556881613D-05  6 -2 1 25 -24 21 21 4 0.15342432D+00 0.52869067D-02 0.19410374D+05 0.19410374D+05 0.19410374D+05 0.12352594D+01  1  2 11  2  6  2        1 0.358742401551D+00 0.100000000000D+01
0.146161193482D-03 0.000000000000D+00 0.000000000000D+00 0.303695621877D-04 0.000000000000D+00  6 -2 21 25 -24 -1 21 4 0.15302699D+00 0.55591197D-02 0.19410374D+05 0.19410374D+05 0.19410374D+05 0.12352594D+01  3  4 12  5  5  2        1 0.190660719997D+00 0.100000000000D+01
-.378970028981D-03 0.000000000000D+00 -.182966005618D-04 0.304624244589D-04 0.000000000000D+00  6 -2 21 25 -24 -1 21 4 0.15302699D+00 0.52986095D-02 0.18663551D+05 0.18663551D+05 0.18663551D+05 0.12371465D+01  3  4  5  5  5  2        1 -.539351425292D+00 0.100000000000D+01
0.106386063440D-03 0.000000000000D+00 0.000000000000D+00 0.304624244589D-04 0.138225792522D-06  6 -2 21 25 -24 -1 21 4 0.15342432D+00 0.52869067D-02 0.19410374D+05 0.19410374D+05 0.19410374D+05 0.12352594D+01  3  4 11  5  5  2        1 0.150058847826D+00 0.100000000000D+01
  </mgrwgt>
  </event>
  <event>
  5     66 0.39191994E-03 0.20722989E+02 0.75467711E-02 0.11378890E+00
       -2 -1    0    0    0  501 0.00000000E+00 0.00000000E+00 0.87065199E+02 0.87065787E+02 0.32000000E+00 0.0000E+00 0.9000E+01
        1 -1    0    0  502    0 -.00000000E+00 -.00000000E+00 -.11921296E+04 0.11921297E+04 0.32000000E+00 0.0000E+00 0.9000E+01
       25  1    1    2    0    0 -.14055260E+03 0.32423774E+02 -.10365908E+04 0.10540170E+04 0.12500000E+03 0.0000E+00 0.9000E+01
      -24  1    1    2    0    0 0.15630921E+03 -.18964773E+02 -.87290311E+02 0.19717770E+03 0.80419002E+02 0.0000E+00 0.9000E+01
       21  1    1    2  502  501 -.15756603E+02 -.13459002E+02 0.18816657E+02 0.28000792E+02 0.75000000E+00 0.0000E+00 0.9000E+01
#aMCatNLO 1  0  0  5  1 0.13666808D+02 0.00000000D+00  -5  6  0 0.00000000D+00 0.00000000D+00 0.00000000D+00 0.00000000D+00 0.00000000D+00
  <mgrwgt>
 0.5472871375D+00    4    2    0
 0.322169843837202D+03 0.000000000000000D+00 0.000000000000000D+00 0.322169843837202D+03
 0.322169843837202D+03 -.000000000000000D+00 -.000000000000000D+00 -.322169843837202D+03
 0.314732812864800D+03 -.140552321662952D+03 0.324240138567629D+02 -.250250817569813D+03
 0.241746660055310D+03 0.156309420571547D+03 -.189645887519253D+02 0.164869466874812D+03
 0.878602147542942D+02 -.157570989085951D+02 -.134594251048375D+02 0.853813506950008D+02
 0.000000000000000D+00 0.000000000000000D+00 0.000000000000000D+00 0.000000000000000D+00
 0.322169843837202D+03 0.000000000000000D+00 0.000000000000000D+00 0.322169843837202D+03
 0.322169843837202D+03 -.000000000000000D+00 -.000000000000000D+00 -.322169843837202D+03
 0.303272788880782D+03 -.143510282870221D+03 0.298973776045442D+02 -.234222821258748D+03
 0.249306983701861D+03 0.153959089725323D+03 -.209721982858786D+02 0.177604959835464D+03
 0.299256484933909D+02 0.182118684252755D+02 -.234423714487964D+02 0.378516935778313D+01
 0.618342665983711D+02 -.286606752803778D+02 0.145171921301307D+02 0.528326920655010D+02
0.123467174696D-01 0.000000000000D+00 0.000000000000D+00 0.179502133285D-04 0.000000000000D+00  6 -2 1 25 -24 21 21 2 0.13394695D-01 0.18340461D+00 0.37712931D+05 0.37712931D+05 0.37712931D+05 0.12046055D+01  1  2  2  3  6  5       21 0.764312248444D+00 0.100000000000D+01
0.231973251785D-02 0.651554181310D-03 -.474146460486D-04 0.179502133285D-04 0.000000000000D+00  6 -2 1 25 -24 21 21 4 0.13394695D-01 0.18340461D+00 0.37712931D+05 0.37712931D+05 0.37712931D+05 0.12046055D+01  1  2  3  3  6  5       21 0.208375634983D+00 0.100000000000D+01
0.250723356332D-03 0.000000000000D+00 0.000000000000D+00 0.179502133285D-04 0.000000000000D+00  6 -2 1 25 -24 21 21 4 0.13394695D-01 0.18340461D+00 0.37712931D+05 0.37712931D+05 0.37712931D+05 0.12046055D+01  1  2 15  3  6  5       21 0.225218374010D-01 0.100000000000D+01
-.498647829987D-02 0.000000000000D+00 0.000000000000D+00 0.179502133285D-04 0.000000000000D+00  6 -2 1 25 -24 21 21 4 0.13394695D-01 0.18340461D+00 0.37712931D+05 0.37712931D+05 0.37712931D+05 0.12046055D+01  1  2  4  3  6  5       21 -.447922583345D+00 0.100000000000D+01
  </mgrwgt>
  </event>
  <event>
  5     66 -.39191994E-03 0.12341812E+03 0.75467711E-02 0.11387378E+00
       -2 -1    0    0    0  501 0.00000000E+00 0.00000000E+00 0.30002121E+03 0.30002138E+03 0.32000000E+00 0.0000E+00 0.9000E+01
        1 -1    0    0  502    0 0.00000000E+00 0.00000000E+00 -.69421954E+03 0.69421962E+03 0.32000000E+00 0.0000E+00 0.9000E+01
       25  1    1    2    0    0 0.12871903E+03 0.14557799E+02 0.23095479E+03 0.29282355E+03 0.12500000E+03 0.0000E+00 0.9000E+01
      -24  1    1    2    0    0 0.19146077E+02 -.33340831E+02 -.40218715E+02 0.97790308E+02 0.80419002E+02 0.0000E+00 0.9000E+01
       21  1    1    2  502  501 -.14786511E+03 0.18783033E+02 -.58493441E+03 0.60362713E+03 0.75000000E+00 0.0000E+00 0.9000E+01
#aMCatNLO 1  0  0  2  5 0.93769118D+01 0.00000000D+00  -5  6  0 0.00000000D+00 0.00000000D+00 0.00000000D+00 0.00000000D+00 0.00000000D+00
  <mgrwgt>
 -.3363938909D+00   11    4    0
 0.456377809900426D+03 0.000000000000000D+00 0.000000000000000D+00 0.456377809900426D+03
 0.456377809900426D+03 0.000000000000000D+00 0.000000000000000D+00 -.456377809900426D+03
 0.418709496706483D+03 0.128719149220659D+03 0.145577838713379D+02 0.378037159793666D+03
 0.891509021304758D+02 0.191461016836739D+02 -.333408345217934D+02 -.157573475431262D+01
 0.404895220963893D+03 -.147865250904333D+03 0.187830506504555D+02 -.376461425039353D+03
 0.000000000000000D+00 -.000000000000000D+00 -.000000000000000D+00 -.000000000000000D+00
 0.457021349919169D+03 0.000000000000000D+00 0.000000000000000D+00 0.457021349919169D+03
 0.491887139445669D+03 0.000000000000000D+00 0.000000000000000D+00 -.491887139445669D+03
 0.419922124897854D+03 0.132332037415155D+03 0.169035105058326D+02 0.378037159793666D+03
 0.891340570460354D+02 0.199141667168441D+02 -.328421557616602D+02 -.157573475431262D+01
 0.403747601984183D+03 -.144381556713307D+03 0.210448959693257D+02 -.376461425039353D+03
 0.361047054367666D+02 -.786464741869251D+01 -.510625071349813D+01 -.348657895265006D+02
 0.456377809900426D+03 0.000000000000000D+00 0.000000000000000D+00 0.456377809900426D+03
 0.456377809900426D+03 0.000000000000000D+00 0.000000000000000D+00 -.456377809900426D+03
 0.418709496706483D+03 0.128719149220659D+03 0.145577838713379D+02 0.378037159793666D+03
 0.891509021304758D+02 0.191461016836739D+02 -.333408345217934D+02 -.157573475431262D+01
 0.000000000000000D+00 -.000000000000000D+00 -.000000000000000D+00 -.000000000000000D+00
 0.404895220963893D+03 -.147865250904333D+03 0.187830506504555D+02 -.376461425039353D+03
 0.457021349919169D+03 0.000000000000000D+00 0.000000000000000D+00 0.457021349919169D+03
 0.491887139445669D+03 0.000000000000000D+00 0.000000000000000D+00 -.491887139445669D+03
 0.419922124897854D+03 0.132332037415155D+03 0.169035105058326D+02 0.378037159793666D+03
 0.891340570460354D+02 0.199141667168441D+02 -.328421557616602D+02 -.157573475431262D+01
 0.361047054367666D+02 -.786464741869251D+01 -.510625071349813D+01 -.348657895265006D+02
 0.403747601984183D+03 -.144381556713307D+03 0.210448959693257D+02 -.376461425039353D+03
0.243404833308D-03 0.000000000000D+00 0.000000000000D+00 0.192095042760D-05 0.000000000000D+00  6 -2 1 25 -24 21 21 2 0.46157127D-01 0.10680303D+00 0.43724034D+05 0.43724034D+05 0.43724034D+05 0.11980940D+01  1  2  2  2  6  2        1 0.403697189312D-02 0.100000000000D+01
-.868822063382D-05 0.128448259453D-04 -.934738649865D-06 0.192095042760D-05 0.000000000000D+00  6 -2 1 25 -24 21 21 4 0.46157127D-01 0.10680303D+00 0.43724034D+05 0.43724034D+05 0.43724034D+05 0.11980940D+01  1  2  3  2  6  2        1 -.206842210398D-03 0.100000000000D+01
0.729167157000D-05 0.000000000000D+00 0.000000000000D+00 0.192095042760D-05 0.000000000000D+00  6 -2 1 25 -24 21 21 4 0.46157127D-01 0.10680303D+00 0.43724034D+05 0.43724034D+05 0.43724034D+05 0.11980940D+01  1  2 15  2  6  2        1 0.173594286863D-03 0.100000000000D+01
0.160385964732D-01 0.000000000000D+00 0.000000000000D+00 0.191499629734D-05 0.000000000000D+00  6 -2 1 25 -24 21 21 4 0.46157127D-01 0.11756243D+00 0.45629762D+05 0.45629762D+05 0.45629762D+05 0.11962358D+01  1  2 12  2  6  2        1 0.329100079831D+00 0.100000000000D+01
-.305300962840D-01 0.000000000000D+00 0.000000000000D+00 0.192095042760D-05 0.000000000000D+00  6 -2 1 25 -24 21 21 4 0.46157127D-01 0.10680303D+00 0.43724034D+05 0.43724034D+05 0.43724034D+05 0.11980940D+01  1  2  4  2  6  2        1 -.726836122746D+00 0.100000000000D+01
-.239962755281D-01 0.000000000000D+00 -.866459189979D-03 0.192095042760D-05 0.000000000000D+00  6 -2 1 25 -24 21 21 4 0.46157127D-01 0.11518537D+00 0.43724034D+05 0.43724034D+05 0.43724034D+05 0.11980940D+01  1  2  5  2  6  2        1 -.511313522036D+00 0.100000000000D+01
0.239956838337D-01 0.000000000000D+00 0.863991846539D-03 0.192095042760D-05 0.000000000000D+00  6 -2 1 25 -24 21 21 4 0.46157127D-01 0.10680303D+00 0.43724034D+05 0.43724034D+05 0.43724034D+05 0.11980940D+01  1  2  6  2  6  2        1 0.571270055557D+00 0.100000000000D+01
0.784681952171D-06 0.000000000000D+00 0.000000000000D+00 0.192095042760D-05 0.308280255453D-06  6 -2 1 25 -24 21 21 4 0.46222214D-01 0.11511303D+00 0.45629762D+05 0.45629762D+05 0.45629762D+05 0.11962358D+01  1  2 11  2  6  2        1 0.165703278936D-04 0.100000000000D+01
0.284108179914D-03 0.000000000000D+00 0.000000000000D+00 0.191499629734D-05 0.000000000000D+00  6 -2 21 25 -24 -1 21 4 0.46157127D-01 0.11756243D+00 0.45629762D+05 0.45629762D+05 0.45629762D+05 0.11962358D+01  3  4 12  5  5  2        1 0.116463089626D-01 0.100000000000D+01
-.328492358039D-03 0.000000000000D+00 -.109984680871D-04 0.192095042760D-05 0.000000000000D+00  6 -2 21 25 -24 -1 21 4 0.46157127D-01 0.11518537D+00 0.43724034D+05 0.43724034D+05 0.43724034D+05 0.11980940D+01  3  4  5  5  5  2        1 -.142811759826D-01 0.100000000000D+01
0.444147167143D-08 0.000000000000D+00 0.000000000000D+00 0.192095042760D-05 0.348658539655D-08  6 -2 21 25 -24 -1 21 4 0.46222214D-01 0.11511303D+00 0.45629762D+05 0.45629762D+05 0.45629762D+05 0.11962358D+01  3  4 11  5  5  2        1 0.191180799043D-06 0.100000000000D+01
  </mgrwgt>
  </event>
  <event>
  5     66 -.39191994E-03 0.28676872E+02 0.75467711E-02 0.11864875E+00
       -2 -1    0    0    0  501 0.00000000E+00 0.00000000E+00 0.18609643E+03 0.18609670E+03 0.32000000E+00 0.0000E+00 0.9000E+01
        1 -1    0    0  502    0 0.00000000E+00 0.00000000E+00 -.98412828E+02 0.98413348E+02 0.32000000E+00 0.0000E+00 0.9000E+01
       25  1    1    2    0    0 -.23701389E+02 -.32438235E+02 0.52491374E+02 0.14140134E+03 0.12500000E+03 0.0000E+00 0.9000E+01
      -24  1    1    2    0    0 0.45365048E+02 0.13654245E+02 0.54921082E+02 0.10829574E+03 0.80419002E+02 0.0000E+00 0.9000E+01
       21  1    1    2  502  501 -.21663659E+02 0.18783990E+02 -.19728859E+02 0.34812968E+02 0.75000000E+00 0.0000E+00 0.9000E+01
#aMCatNLO 1  0  0  2  2 0.64550159D+02 0.00000000D+00  -5  6  0 0.00000000D+00 0.00000000D+00 0.00000000D+00 0.00000000D+00 0.00000000D+00
  <mgrwgt>
 -.1478171731D+00    5    4    0
 0.135330664416069D+03 0.000000000000000D+00 0.000000000000000D+00 0.135330664416069D+03
 0.135330664416069D+03 0.000000000000000D+00 0.000000000000000D+00 -.135330664416069D+03
 0.131631402543525D+03 -.236997851497923D+02 -.324396259852695D+02 0.937107172979892D+01
 0.960453763615488D+02 0.453662187954234D+02 0.136532306079834D+02 0.226493675901121D+02
 0.429845499270651D+02 -.216664336456311D+02 0.187863953772861D+02 -.320204393199110D+02
 0.000000000000000D+00 -.000000000000000D+00 -.000000000000000D+00 -.000000000000000D+00
 0.142053797888042D+03 0.000000000000000D+00 0.000000000000000D+00 0.142053797888042D+03
 0.494927129110697D+03 0.000000000000000D+00 0.000000000000000D+00 -.494927129110697D+03
 0.128502793761198D+03 0.649466841545161D+01 -.275312604368418D+02 0.937107172979892D+01
 0.109940716631805D+03 0.692755610054269D+02 0.175398977846411D+02 0.226493675901121D+02
 0.398086737558956D+02 -.120564085757875D+02 0.203485867867257D+02 -.320204393199110D+02
 0.358728742849841D+03 -.637138208450910D+02 -.103572241345251D+02 -.352873331222655D+03
 0.135330664416069D+03 0.000000000000000D+00 0.000000000000000D+00 0.135330664416069D+03
 0.135330664416069D+03 0.000000000000000D+00 0.000000000000000D+00 -.135330664416069D+03
 0.131631402543525D+03 -.236997851497923D+02 -.324396259852695D+02 0.937107172979892D+01
 0.960453763615488D+02 0.453662187954234D+02 0.136532306079834D+02 0.226493675901121D+02
 0.000000000000000D+00 -.000000000000000D+00 -.000000000000000D+00 -.000000000000000D+00
 0.429845499270651D+02 -.216664336456311D+02 0.187863953772861D+02 -.320204393199110D+02
 0.142053797888042D+03 0.000000000000000D+00 0.000000000000000D+00 0.142053797888042D+03
 0.494927129110697D+03 0.000000000000000D+00 0.000000000000000D+00 -.494927129110697D+03
 0.128502793761198D+03 0.649466841545161D+01 -.275312604368418D+02 0.937107172979892D+01
 0.109940716631805D+03 0.692755610054269D+02 0.175398977846411D+02 0.226493675901121D+02
 0.358728742849841D+03 -.637138208450910D+02 -.103572241345251D+02 -.352873331222655D+03
 0.398086737558956D+02 -.120564085757875D+02 0.203485867867257D+02 -.320204393199110D+02
0.580394282997D-04 0.000000000000D+00 0.000000000000D+00 0.312835157430D-04 0.000000000000D+00  6 -2 1 25 -24 21 21 2 0.28630281D-01 0.15140496D-01 0.16041600D+05 0.16041600D+05 0.16041600D+05 0.12445123D+01  1  2  2  2  6  2        1 0.308637346365D-01 0.100000000000D+01
0.492397778904D-05 0.306282477774D-05 -.222886686803D-06 0.312835157430D-04 0.000000000000D+00  6 -2 1 25 -24 21 21 4 0.28630281D-01 0.15140496D-01 0.16041600D+05 0.16041600D+05 0.16041600D+05 0.12445123D+01  1  2  3  2  6  2        1 0.405545725983D-02 0.100000000000D+01
0.228821371221D-05 0.000000000000D+00 0.000000000000D+00 0.312835157430D-04 0.000000000000D+00  6 -2 1 25 -24 21 21 4 0.28630281D-01 0.15140496D-01 0.16041600D+05 0.16041600D+05 0.16041600D+05 0.12445123D+01  1  2 15  2  6  2        1 0.188460494925D-02 0.100000000000D+01
-.720102616282D-03 0.000000000000D+00 -.452512540844D-04 0.312835157430D-04 0.000000000000D+00  6 -2 1 25 -24 21 21 4 0.28630281D-01 0.56724290D-01 0.16041600D+05 0.16041600D+05 0.16041600D+05 0.12445123D+01  1  2  5  2  6  2        1 -.113580932248D+00 0.100000000000D+01
-.111479059787D-03 0.000000000000D+00 -.706809727198D-05 0.312835157430D-04 0.000000000000D+00  6 -2 21 25 -24 -1 21 4 0.28630281D-01 0.56724290D-01 0.16041600D+05 0.16041600D+05 0.16041600D+05 0.12445123D+01  3  4  5  5  5  2        1 -.710400376705D-01 0.100000000000D+01
  </mgrwgt>
  </event>
  <event>
  5     66 0.39191994E-03 0.35079413E+02 0.75467711E-02 0.11496238E+00
       -4 -1    0    0    0  501 0.00000000E+00 0.00000000E+00 0.27068559E+02 0.27112901E+02 0.15500000E+01 0.0000E+00 0.9000E+01
        3 -1    0    0  502    0 0.00000000E+00 0.00000000E+00 -.18712109E+04 0.18712110E+04 0.50000000E+00 0.0000E+00 0.9000E+01
       25  1    1    2    0    0 0.14330478E+03 0.18399578E+02 -.12776147E+04 0.12918201E+04 0.12500000E+03 0.0000E+00 0.9000E+01
      -24  1    1    2    0    0 -.13153930E+03 0.14642509E+02 -.29940142E+03 0.33708370E+03 0.80419002E+02 0.0000E+00 0.9000E+01
       21  1    1    2  502  501 -.11765480E+02 -.33042086E+02 -.26712622E+03 0.26942009E+03 0.75000000E+00 0.0000E+00 0.9000E+01
#aMCatNLO 1  0  0  2  5 0.19439896D+02 0.00000000D+00  -5  6  0 0.00000000D+00 0.00000000D+00 0.00000000D+00 0.00000000D+00 0.00000000D+00
  <mgrwgt>
 0.6103727461D-02    9    4    0
 0.225151356400018D+03 0.000000000000000D+00 0.000000000000000D+00 0.225151356400018D+03
 0.225151356400018D+03 0.000000000000000D+00 0.000000000000000D+00 -.225151356400018D+03
 0.213610862466129D+03 0.143305675842241D+03 0.184020998212777D+02 -.955481373815818D+02
 0.194881005157178D+03 -.131538478078124D+03 0.146448099766729D+02 0.118298556805819D+03
 0.418108451767293D+02 -.117671977641170D+02 -.330469097979506D+02 -.227504194242371D+02
 0.000000000000000D+00 -.000000000000000D+00 0.000000000000000D+00 -.000000000000000D+00
 0.227005559941853D+03 0.000000000000000D+00 0.000000000000000D+00 0.227005559941853D+03
 0.282811852431110D+03 0.000000000000000D+00 0.000000000000000D+00 -.282811852431110D+03
 0.217875112295745D+03 0.150223046209574D+03 0.121718687271106D+02 -.955481373815818D+02
 0.190419927337296D+03 -.125361523533046D+03 0.908144525418461D+01 0.118298556805819D+03
 0.424270950751923D+02 -.104167366465214D+02 -.342632224138027D+02 -.227504194242371D+02
 0.590952776647291D+02 -.144447860300063D+02 0.130099084325076D+02 -.558062924892573D+02
 0.225151356400018D+03 0.000000000000000D+00 0.000000000000000D+00 0.225151356400018D+03
 0.225151356400018D+03 0.000000000000000D+00 0.000000000000000D+00 -.225151356400018D+03
 0.213610862466129D+03 0.143305675842241D+03 0.184020998212777D+02 -.955481373815818D+02
 0.194881005157178D+03 -.131538478078124D+03 0.146448099766729D+02 0.118298556805819D+03
 0.000000000000000D+00 -.000000000000000D+00 0.000000000000000D+00 -.000000000000000D+00
 0.418108451767293D+02 -.117671977641170D+02 -.330469097979506D+02 -.227504194242371D+02
 0.227005559941853D+03 0.000000000000000D+00 0.000000000000000D+00 0.227005559941853D+03
 0.282811852431110D+03 0.000000000000000D+00 0.000000000000000D+00 -.282811852431110D+03
 0.217875112295745D+03 0.150223046209574D+03 0.121718687271106D+02 -.955481373815818D+02
 0.190419927337296D+03 -.125361523533046D+03 0.908144525418461D+01 0.118298556805819D+03
 0.590952776647291D+02 -.144447860300063D+02 0.130099084325076D+02 -.558062924892573D+02
 0.424270950751923D+02 -.104167366465214D+02 -.342632224138027D+02 -.227504194242371D+02
0.191466737898D-03 0.000000000000D+00 0.000000000000D+00 0.101442522260D-04 0.000000000000D+00  6 -4 3 25 -24 21 21 2 0.41678098D-02 0.28788202D+00 0.36289758D+05 0.36289758D+05 0.36289758D+05 0.12063172D+01  1  2  2  2  6  2        3 0.973773389503D-03 0.100000000000D+01
0.283036290332D-04 0.101039773500D-04 -.735282687877D-06 0.101442522260D-04 0.000000000000D+00  6 -4 3 25 -24 21 21 4 0.41678098D-02 0.28788202D+00 0.36289758D+05 0.36289758D+05 0.36289758D+05 0.12063172D+01  1  2  3  2  6  2        3 0.209473802696D-03 0.100000000000D+01
0.738384815041D-05 0.000000000000D+00 0.000000000000D+00 0.101442522260D-04 0.000000000000D+00  6 -4 3 25 -24 21 21 4 0.41678098D-02 0.28788202D+00 0.36289758D+05 0.36289758D+05 0.36289758D+05 0.12063172D+01  1  2 15  2  6  2        3 0.546475064657D-04 0.100000000000D+01
0.201472429429D-02 0.000000000000D+00 0.000000000000D+00 0.100707686351D-04 0.000000000000D+00  6 -4 3 25 -24 21 21 4 0.41678098D-02 0.39015980D+00 0.40054657D+05 0.40054657D+05 0.40054657D+05 0.12019400D+01  1  2 12  2  6  2        3 0.435053073186D-02 0.100000000000D+01
-.152734914323D-02 0.000000000000D+00 0.000000000000D+00 0.101442522260D-04 0.000000000000D+00  6 -4 3 25 -24 21 21 4 0.41678098D-02 0.28788202D+00 0.36289758D+05 0.36289758D+05 0.36289758D+05 0.12063172D+01  1  2  4  2  6  2        3 -.113038378471D-01 0.100000000000D+01
-.322591738470D-02 0.000000000000D+00 -.196716916197D-03 0.101442522260D-04 0.000000000000D+00  6 -4 3 25 -24 21 21 4 0.41678098D-02 0.36247774D+00 0.36289758D+05 0.36289758D+05 0.36289758D+05 0.12063172D+01  1  2  5  2  6  2        3 -.979019462851D-02 0.100000000000D+01
0.319126482823D-02 0.000000000000D+00 0.191608150019D-03 0.101442522260D-04 0.000000000000D+00  6 -4 3 25 -24 21 21 4 0.41678098D-02 0.28788202D+00 0.36289758D+05 0.36289758D+05 0.36289758D+05 0.12063172D+01  1  2  6  2  6  2        3 0.236183981282D-01 0.100000000000D+01
0.786293383465D-04 0.000000000000D+00 0.000000000000D+00 0.100707686351D-04 0.000000000000D+00  6 -4 21 25 -24 -3 21 4 0.41678098D-02 0.39015980D+00 0.40054657D+05 0.40054657D+05 0.40054657D+05 0.12019400D+01  3  4 12  5  5  2        3 0.220381680486D-02 0.100000000000D+01
-.998775428202D-04 0.000000000000D+00 -.626618993528D-05 0.101442522260D-04 0.000000000000D+00  6 -4 21 25 -24 -3 21 4 0.41678098D-02 0.36247774D+00 0.36289758D+05 0.36289758D+05 0.36289758D+05 0.12063172D+01  3  4  5  5  5  2        3 -.421288042741D-02 0.100000000000D+01
  </mgrwgt>
  </event>
  <event>
  5     66 0.39191994E-03 0.19547717E+03 0.75467711E-02 0.10843384E+00
       -2 -1    0    0    0  501 0.00000000E+00 0.00000000E+00 0.63343697E+02 0.63344505E+02 0.32000000E+00 0.0000E+00 0.9000E+01
        1 -1    0    0  502    0 -.00000000E+00 -.00000000E+00 -.17869249E+04 0.17869250E+04 0.32000000E+00 0.0000E+00 0.9000E+01
       25  1    1    2    0    0 0.80558775E+02 0.74875095E+02 -.56477392E+03 0.58880436E+03 0.12500000E+03 0.0000E+00 0.9000E+01
      -24  1    1    2    0    0 0.17073924E+03 0.76248894E+02 -.42480722E+03 0.47105644E+03 0.80419002E+02 0.0000E+00 0.9000E+01
       21  1    1    2  502  501 -.25129801E+03 -.15112399E+03 -.73400010E+03 0.79040867E+03 0.75000000E+00 0.0000E+00 0.9000E+01
#aMCatNLO 1  0  0  5  2 0.98120787D+02 0.00000000D+00  -5  6  0 0.00000000D+00 0.00000000D+00 0.00000000D+00 0.00000000D+00 0.00000000D+00
  <mgrwgt>
 0.5305745810D-02   20    2    0
 0.336439008109341D+03 0.000000000000000D+00 0.000000000000000D+00 0.336439008109341D+03
 0.336439008109341D+03 -.000000000000000D+00 -.000000000000000D+00 -.336439008109341D+03
 0.172413280659848D+03 0.805589852260502D+02 0.748752216250029D+02 -.447804693348256D+02
 0.207157571948614D+03 0.170739491223334D+03 0.762490465337551D+02 0.384857467221922D+02
 0.293307163610219D+03 -.251298476449384D+03 -.151124268158758D+03 0.629472261263339D+01
 0.000000000000000D+00 -.000000000000000D+00 0.000000000000000D+00 0.000000000000000D+00
 0.336439008109341D+03 0.000000000000000D+00 0.000000000000000D+00 0.336439008109341D+03
 0.336439008109341D+03 -.000000000000000D+00 -.000000000000000D+00 -.336439008109341D+03
 0.160654011405246D+03 0.635482086707449D+02 0.646453897770153D+02 -.443543699753943D+02
 0.186530778628597D+03 0.150632609750305D+03 0.641572989414117D+02 0.389893997616618D+02
 0.205490116332325D+03 -.131035608175091D+03 -.128685588275986D+03 0.921730799665495D+02
 0.120203109852513D+03 -.831452102459587D+02 -.117100442441277D+00 -.868081097528170D+02
0.729384795631D-04 0.000000000000D+00 0.000000000000D+00 0.520417890932D-06 0.000000000000D+00  6 -2 1 25 -24 21 21 2 0.97452486D-02 0.27491159D+00 0.10998749D+06 0.10998749D+06 0.10998749D+06 0.11597928D+01  1  2  2  3  6  5       21 0.274501516475D-02 0.100000000000D+01
-.853952128572D-05 0.384906931375D-05 -.280102966665D-06 0.520417890932D-06 0.000000000000D+00  6 -2 1 25 -24 21 21 4 0.97452486D-02 0.27491159D+00 0.10998749D+06 0.10998749D+06 0.10998749D+06 0.11597928D+01  1  2  3  3  6  5       21 -.432297139771D-03 0.100000000000D+01
0.263069591231D-05 0.000000000000D+00 0.000000000000D+00 0.520417890932D-06 0.000000000000D+00  6 -2 1 25 -24 21 21 4 0.97452486D-02 0.27491159D+00 0.10998749D+06 0.10998749D+06 0.10998749D+06 0.11597928D+01  1  2 15  3  6  5       21 0.133174012974D-03 0.100000000000D+01
0.235015957111D-04 0.000000000000D+00 0.000000000000D+00 0.527188721415D-06 0.000000000000D+00  6 -2 1 25 -24 21 21 4 0.97452486D-02 0.27491159D+00 0.91090389D+05 0.91090389D+05 0.91090389D+05 0.11673131D+01  1  2 12  3  6  5       21 0.122665604254D-02 0.100000000000D+01
0.239954037460D-04 0.000000000000D+00 0.000000000000D+00 0.527188721415D-06 0.000000000000D+00  6 -2 1 25 -24 21 21 4 0.97452486D-02 0.27491159D+00 0.91090389D+05 0.91090389D+05 0.91090389D+05 0.11673131D+01  1  2 12  3  6  5       21 0.125243014815D-02 0.100000000000D+01
-.142362715943D-04 0.000000000000D+00 0.000000000000D+00 0.520417890932D-06 0.000000000000D+00  6 -2 1 25 -24 21 21 4 0.97452486D-02 0.27491159D+00 0.10998749D+06 0.10998749D+06 0.10998749D+06 0.11597928D+01  1  2  4  3  6  5       21 -.720684366876D-03 0.100000000000D+01
-.433500825856D-04 0.000000000000D+00 0.000000000000D+00 0.520417890932D-06 0.000000000000D+00  6 -2 1 25 -24 21 21 4 0.97452486D-02 0.27491159D+00 0.10998749D+06 0.10998749D+06 0.10998749D+06 0.11597928D+01  1  2  5  3  6  5       21 -.219451607222D-02 0.100000000000D+01
0.637543871489D-04 0.000000000000D+00 -.000000000000D+00 0.520417890932D-06 0.000000000000D+00  6 -2 1 25 -24 21 21 4 0.97452486D-02 0.27491159D+00 0.10998749D+06 0.10998749D+06 0.10998749D+06 0.11597928D+01  1  2  6  3  6  5       21 0.322744546095D-02 0.100000000000D+01
0.554523191583D-06 0.000000000000D+00 0.000000000000D+00 0.527188721415D-06 0.000000000000D+00  6 -2 1 25 -24 1 -1 4 0.97452486D-02 0.27491159D+00 0.91090389D+05 0.91090389D+05 0.91090389D+05 0.11673131D+01  1  2 12  6  6  5       21 0.289431080359D-04 0.100000000000D+01
0.565196825085D-06 0.000000000000D+00 0.000000000000D+00 0.527188721415D-06 0.000000000000D+00  6 -2 1 25 -24 1 -1 4 0.97452486D-02 0.27491159D+00 0.91090389D+05 0.91090389D+05 0.91090389D+05 0.11673131D+01  1  2 12  6  6  5       21 0.295002139104D-04 0.100000000000D+01
-.816083418168D-06 0.000000000000D+00 0.000000000000D+00 0.520417890932D-06 0.000000000000D+00  6 -2 1 25 -24 1 -1 4 0.97452486D-02 0.27491159D+00 0.10998749D+06 0.10998749D+06 0.10998749D+06 0.11597928D+01  1  2  5  6  6  5       21 -.413126820210D-04 0.100000000000D+01
0.554523191583D-06 0.000000000000D+00 0.000000000000D+00 0.527188721415D-06 0.000000000000D+00  6 -2 1 25 -24 2 -2 4 0.97452486D-02 0.27491159D+00 0.91090389D+05 0.91090389D+05 0.91090389D+05 0.11673131D+01  1  2 12  7  6  5       21 0.289431080359D-04 0.100000000000D+01
0.565196825085D-06 0.000000000000D+00 0.000000000000D+00 0.527188721415D-06 0.000000000000D+00  6 -2 1 25 -24 2 -2 4 0.97452486D-02 0.27491159D+00 0.91090389D+05 0.91090389D+05 0.91090389D+05 0.11673131D+01  1  2 12  7  6  5       21 0.295002139104D-04 0.100000000000D+01
-.816083418168D-06 0.000000000000D+00 0.000000000000D+00 0.520417890932D-06 0.000000000000D+00  6 -2 1 25 -24 2 -2 4 0.97452486D-02 0.27491159D+00 0.10998749D+06 0.10998749D+06 0.10998749D+06 0.11597928D+01  1  2  5  7  6  5       21 -.413126820210D-04 0.100000000000D+01
0.554523191583D-06 0.000000000000D+00 0.000000000000D+00 0.527188721415D-06 0.000000000000D+00  6 -2 1 25 -24 3 -3 4 0.97452486D-02 0.27491159D+00 0.91090389D+05 0.91090389D+05 0.91090389D+05 0.11673131D+01  1  2 12  8  6  5       21 0.289431080359D-04 0.100000000000D+01
0.554523191583D-06 0.000000000000D+00 0.000000000000D+00 0.527188721415D-06 0.000000000000D+00  6 -2 1 25 -24 4 -4 4 0.97452486D-02 0.27491159D+00 0.91090389D+05 0.91090389D+05 0.91090389D+05 0.11673131D+01  1  2 12  8  6  5       21 0.289431080359D-04 0.100000000000D+01
0.565196825085D-06 0.000000000000D+00 0.000000000000D+00 0.527188721415D-06 0.000000000000D+00  6 -2 1 25 -24 3 -3 4 0.97452486D-02 0.27491159D+00 0.91090389D+05 0.91090389D+05 0.91090389D+05 0.11673131D+01  1  2 12  8  6  5       21 0.295002139104D-04 0.100000000000D+01
0.565196825085D-06 0.000000000000D+00 0.000000000000D+00 0.527188721415D-06 0.000000000000D+00  6 -2 1 25 -24 4 -4 4 0.97452486D-02 0.27491159D+00 0.91090389D+05 0.91090389D+05 0.91090389D+05 0.11673131D+01  1  2 12  8  6  5       21 0.295002139104D-04 0.100000000000D+01
-.816083418168D-06 0.000000000000D+00 0.000000000000D+00 0.520417890932D-06 0.000000000000D+00  6 -2 1 25 -24 3 -3 4 0.97452486D-02 0.27491159D+00 0.10998749D+06 0.10998749D+06 0.10998749D+06 0.11597928D+01  1  2  5  8  6  5       21 -.413126820210D-04 0.100000000000D+01
-.816083418168D-06 0.000000000000D+00 0.000000000000D+00 0.520417890932D-06 0.000000000000D+00  6 -2 1 25 -24 4 -4 4 0.97452486D-02 0.27491159D+00 0.10998749D+06 0.10998749D+06 0.10998749D+06 0.11597928D+01  1  2  5  8  6  5       21 -.413126820210D-04 0.100000000000D+01
  </mgrwgt>
  </event>
  <event>
  5     66 0.39191994E-03 0.61500056E+02 0.75467711E-02 0.11994606E+00
       -2 -1    0    0    0  501 0.00000000E+00 0.00000000E+00 0.87887014E+01 0.87945251E+01 0.32000000E+00 0.0000E+00 0.9000E+01
        1 -1    0    0  502    0 -.00000000E+00 -.00000000E+00 -.31749569E+04 0.31749569E+04 0.32000000E+00 0.0000E+00 0.9000E+01
       25  1    1    2    0    0 -.10030613E+02 0.55756695E+02 -.99430079E+03 0.10037273E+04 0.12500000E+03 0.0000E+00 0.9000E+01
      -24  1    1    2    0    0 -.28092262E+02 -.74996070E+01 -.51780499E+03 0.52481868E+03 0.80419002E+02 0.0000E+00 0.9000E+01
       21  1    1    2  502  501 0.38122875E+02 -.48257088E+02 -.16540624E+04 0.16552055E+04 0.75000000E+00 0.0000E+00 0.9000E+01
#aMCatNLO 1  0  0  5  1 0.30199441D+02 0.00000000D+00  -5  6  0 0.00000000D+00 0.00000000D+00 0.00000000D+00 0.00000000D+00 0.00000000D+00
  <mgrwgt>
 0.6593786619D-01   15    2    0
 0.167071974071894D+03 0.000000000000000D+00 0.000000000000000D+00 0.167071974071894D+03
 0.167071974071894D+03 -.000000000000000D+00 -.000000000000000D+00 -.167071974071894D+03
 0.142138904020852D+03 -.100310881558690D+02 0.557572967493102D+02 0.369995833201860D+02
 0.940751226209080D+02 -.280925770079500D+02 -.749920852754608D+01 0.392107348857570D+02
 0.979299215020294D+02 0.381236651638190D+02 -.482580882217641D+02 -.762103182059430D+02
 0.000000000000000D+00 0.000000000000000D+00 0.000000000000000D+00 0.000000000000000D+00
 0.167071974071894D+03 0.000000000000000D+00 0.000000000000000D+00 0.167071974071894D+03
 0.167071974071894D+03 -.000000000000000D+00 -.000000000000000D+00 -.167071974071894D+03
 0.137836219907398D+03 -.574171620449461D+01 0.503276800229039D+02 0.284250037273476D+02
 0.913906956290101D+02 -.252511392845622D+02 -.110959863227207D+02 0.335306180310097D+02
 0.338412995729436D+02 -.193407103132036D+02 -.260903841367459D+01 -.276471228145431D+02
 0.710757330344375D+02 0.503335658022605D+02 -.366226552865087D+02 -.343084989438143D+02
0.531961571171D-03 0.000000000000D+00 0.000000000000D+00 0.878404413615D-05 0.000000000000D+00  6 -2 1 25 -24 21 21 2 0.13525571D-02 0.48845536D+00 0.20199929D+05 0.20199929D+05 0.20199929D+05 0.12333508D+01  1  2  2  3  6  5       21 0.544923700033D-01 0.100000000000D+01
-.157674851413D-04 0.280723833559D-04 -.204287250199D-05 0.878404413615D-05 0.000000000000D+00  6 -2 1 25 -24 21 21 4 0.13525571D-02 0.48845536D+00 0.20199929D+05 0.20199929D+05 0.20199929D+05 0.12333508D+01  1  2  3  3  6  5       21 -.245692031972D-02 0.100000000000D+01
0.242822518141D-04 0.000000000000D+00 0.000000000000D+00 0.878404413615D-05 0.000000000000D+00  6 -2 1 25 -24 21 21 4 0.13525571D-02 0.48845536D+00 0.20199929D+05 0.20199929D+05 0.20199929D+05 0.12333508D+01  1  2 15  3  6  5       21 0.378370788722D-02 0.100000000000D+01
0.672880785054D-04 0.000000000000D+00 0.000000000000D+00 0.870396557466D-05 0.000000000000D+00  6 -2 1 25 -24 21 21 4 0.13525571D-02 0.48845536D+00 0.22748739D+05 0.22748739D+05 0.22748739D+05 0.12277160D+01  1  2 12  3  6  5       21 0.102717767205D-01 0.100000000000D+01
-.166472732475D-03 0.000000000000D+00 0.000000000000D+00 0.878404413615D-05 0.000000000000D+00  6 -2 1 25 -24 21 21 4 0.13525571D-02 0.48845536D+00 0.20199929D+05 0.20199929D+05 0.20199929D+05 0.12333508D+01  1  2  4  3  6  5       21 -.259401062016D-01 0.100000000000D+01
-.681079539210D-04 0.000000000000D+00 0.000000000000D+00 0.878404413615D-05 0.000000000000D+00  6 -2 1 25 -24 21 21 4 0.13525571D-02 0.48845536D+00 0.20199929D+05 0.20199929D+05 0.20199929D+05 0.12333508D+01  1  2  5  3  6  5       21 -.106127143564D-01 0.100000000000D+01
0.238641352287D-03 0.000000000000D+00 -.000000000000D+00 0.878404413615D-05 0.000000000000D+00  6 -2 1 25 -24 21 21 4 0.13525571D-02 0.48845536D+00 0.20199929D+05 0.20199929D+05 0.20199929D+05 0.12333508D+01  1  2  6  3  6  5       21 0.371855614453D-01 0.100000000000D+01
0.594478604589D-05 0.000000000000D+00 0.000000000000D+00 0.870396557466D-05 0.000000000000D+00  6 -2 1 25 -24 1 -1 4 0.13525571D-02 0.48845536D+00 0.22748739D+05 0.22748739D+05 0.22748739D+05 0.12277160D+01  1  2 12  6  6  5       21 0.907493812734D-03 0.100000000000D+01
-.708466324240D-05 0.000000000000D+00 0.000000000000D+00 0.878404413615D-05 0.000000000000D+00  6 -2 1 25 -24 1 -1 4 0.13525571D-02 0.48845536D+00 0.20199929D+05 0.20199929D+05 0.20199929D+05 0.12333508D+01  1  2  5  6  6  5       21 -.110394605878D-02 0.100000000000D+01
0.594478604589D-05 0.000000000000D+00 0.000000000000D+00 0.870396557466D-05 0.000000000000D+00  6 -2 1 25 -24 2 -2 4 0.13525571D-02 0.48845536D+00 0.22748739D+05 0.22748739D+05 0.22748739D+05 0.12277160D+01  1  2 12  7  6  5       21 0.907493812734D-03 0.100000000000D+01
-.708466324240D-05 0.000000000000D+00 0.000000000000D+00 0.878404413615D-05 0.000000000000D+00  6 -2 1 25 -24 2 -2 4 0.13525571D-02 0.48845536D+00 0.20199929D+05 0.20199929D+05 0.20199929D+05 0.12333508D+01  1  2  5  7  6  5       21 -.110394605878D-02 0.100000000000D+01
0.594478604589D-05 0.000000000000D+00 0.000000000000D+00 0.870396557466D-05 0.000000000000D+00  6 -2 1 25 -24 3 -3 4 0.13525571D-02 0.48845536D+00 0.22748739D+05 0.22748739D+05 0.22748739D+05 0.12277160D+01  1  2 12  8  6  5       21 0.907493812734D-03 0.100000000000D+01
0.594478604589D-05 0.000000000000D+00 0.000000000000D+00 0.870396557466D-05 0.000000000000D+00  6 -2 1 25 -24 4 -4 4 0.13525571D-02 0.48845536D+00 0.22748739D+05 0.22748739D+05 0.22748739D+05 0.12277160D+01  1  2 12  8  6  5       21 0.907493812734D-03 0.100000000000D+01
-.708466324240D-05 0.000000000000D+00 0.000000000000D+00 0.878404413615D-05 0.000000000000D+00  6 -2 1 25 -24 3 -3 4 0.13525571D-02 0.48845536D+00 0.20199929D+05 0.20199929D+05 0.20199929D+05 0.12333508D+01  1  2  5  8  6  5       21 -.110394605878D-02 0.100000000000D+01
-.708466324240D-05 0.000000000000D+00 0.000000000000D+00 0.878404413615D-05 0.000000000000D+00  6 -2 1 25 -24 4 -4 4 0.13525571D-02 0.48845536D+00 0.20199929D+05 0.20199929D+05 0.20199929D+05 0.12333508D+01  1  2  5  8  6  5       21 -.110394605878D-02 0.100000000000D+01
  </mgrwgt>
  </event>
  <event>
  5     66 -.39191994E-03 0.21328779E+02 0.75467711E-02 0.11352209E+00
       -2 -1    0    0    0  501 0.00000000E+00 0.00000000E+00 0.18748632E+03 0.18748659E+03 0.32000000E+00 0.0000E+00 0.9000E+01
        1 -1    0    0  502    0 -.00000000E+00 -.00000000E+00 -.41185736E+03 0.41185749E+03 0.32000000E+00 0.0000E+00 0.9000E+01
       25  1    1    2    0    0 0.62801005E+02 0.16110898E+03 -.29427229E+03 0.36348487E+03 0.12500000E+03 0.0000E+00 0.9000E+01
      -24  1    1    2    0    0 -.83775007E+02 -.16495956E+03 0.52843885E+02 0.20854161E+03 0.80419002E+02 0.0000E+00 0.9000E+01
       21  1    1    2  502  501 0.20974002E+02 0.38505858E+01 0.17057357E+02 0.27317608E+02 0.75000000E+00 0.0000E+00 0.9000E+01
#aMCatNLO 1  0  0  5  1 0.24939275D+00 0.00000000D+00  -5  6  0 0.00000000D+00 0.00000000D+00 0.00000000D+00 0.00000000D+00 0.00000000D+00
  <mgrwgt>
 -.1718096511D+01   15    2    0
 0.277880801794661D+03 0.000000000000000D+00 0.000000000000000D+00 0.277880801794661D+03
 0.277880801794661D+03 -.000000000000000D+00 -.000000000000000D+00 -.277880801794661D+03
 0.273187239470582D+03 0.627988092504483D+02 0.161108573942929D+03 -.170606578912886D+03
 0.246228667955914D+03 -.837769859742431D+02 -.164959926195416D+03 0.141177123995524D+03
 0.363456961628270D+02 0.209781767237947D+02 0.385135225248688D+01 0.294294549173620D+02
 0.000000000000000D+00 0.000000000000000D+00 0.000000000000000D+00 0.000000000000000D+00
 0.277880801794661D+03 0.000000000000000D+00 0.000000000000000D+00 0.277880801794661D+03
 0.277880801794661D+03 -.000000000000000D+00 -.000000000000000D+00 -.277880801794661D+03
 0.273186424791328D+03 0.628003236895896D+02 0.161108851976557D+03 -.170604454366076D+03
 0.246229133574832D+03 -.837756209791512D+02 -.164959675597998D+03 0.141179038893184D+03
 0.728933412989285D+01 0.439557028635929D+01 0.667803622362127D+00 0.577645152640064D+01
 0.290567110932690D+02 0.165797270032023D+02 0.318301999907803D+01 0.236489639464916D+02
0.287703800488D-03 0.000000000000D+00 0.000000000000D+00 0.225692520743D-04 0.000000000000D+00  6 -2 1 25 -24 21 21 2 0.28844080D-01 0.63362702D-01 0.47617846D+05 0.47617846D+05 0.47617846D+05 0.11943871D+01  1  2  2  3  6  5       21 0.232100672334D-01 0.100000000000D+01
0.813921448122D-04 0.151825466687D-04 -.110485834803D-05 0.225692520743D-04 0.000000000000D+00  6 -2 1 25 -24 21 21 4 0.28844080D-01 0.63362702D-01 0.47617846D+05 0.47617846D+05 0.47617846D+05 0.11943871D+01  1  2  3  3  6  5       21 0.936706376951D-02 0.100000000000D+01
0.896644677311D-05 0.000000000000D+00 0.000000000000D+00 0.225692520743D-04 0.000000000000D+00  6 -2 1 25 -24 21 21 4 0.28844080D-01 0.63362702D-01 0.47617846D+05 0.47617846D+05 0.47617846D+05 0.11943871D+01  1  2 15  3  6  5       21 0.103190890108D-02 0.100000000000D+01
-.271100806952D+00 0.000000000000D+00 0.000000000000D+00 0.225692520743D-04 0.000000000000D+00  6 -2 1 25 -24 21 21 4 0.28844080D-01 0.63362702D-01 0.47617846D+05 0.47617846D+05 0.47617846D+05 0.11943871D+01  1  2  4  3  6  5       21 -.311997988571D+02 0.100000000000D+01
-.243429693311D-01 0.000000000000D+00 0.000000000000D+00 0.225692520743D-04 0.000000000000D+00  6 -2 1 25 -24 21 21 4 0.28844080D-01 0.63362702D-01 0.47617846D+05 0.47617846D+05 0.47617846D+05 0.11943871D+01  1  2  5  3  6  5       21 -.280152521585D+01 0.100000000000D+01
0.257294479337D+00 0.000000000000D+00 -.000000000000D+00 0.225692520743D-04 0.000000000000D+00  6 -2 1 25 -24 21 21 4 0.28844080D-01 0.63362702D-01 0.47617846D+05 0.47617846D+05 0.47617846D+05 0.11943871D+01  1  2  6  3  6  5       21 0.296108893685D+02 0.100000000000D+01
0.234915974625D-01 0.000000000000D+00 0.000000000000D+00 0.225692520743D-04 0.214000725152D-02  6 -2 1 25 -24 21 21 4 0.28844080D-01 0.63362702D-01 0.47617763D+05 0.47617763D+05 0.47617763D+05 0.11943871D+01  1  2 11  3  6  5       21 0.270354525850D+01 0.100000000000D+01
-.467897562355D-02 0.000000000000D+00 0.000000000000D+00 0.225692520743D-04 0.000000000000D+00  6 -2 1 25 -24 1 -1 4 0.28844080D-01 0.63362702D-01 0.47617846D+05 0.47617846D+05 0.47617846D+05 0.11943871D+01  1  2  5  6  6  5       21 -.538482714062D+00 0.100000000000D+01
0.453667215579D-02 0.000000000000D+00 0.000000000000D+00 0.225692520743D-04 0.455052302614D-04  6 -2 1 25 -24 1 -1 4 0.28844080D-01 0.63362702D-01 0.47617763D+05 0.47617763D+05 0.47617763D+05 0.11943871D+01  1  2 11  6  6  5       21 0.522105766357D+00 0.100000000000D+01
-.467897562355D-02 0.000000000000D+00 0.000000000000D+00 0.225692520743D-04 0.000000000000D+00  6 -2 1 25 -24 2 -2 4 0.28844080D-01 0.63362702D-01 0.47617846D+05 0.47617846D+05 0.47617846D+05 0.11943871D+01  1  2  5  7  6  5       21 -.538482714062D+00 0.100000000000D+01
0.454034508676D-02 0.000000000000D+00 0.000000000000D+00 0.225692520743D-04 0.455421207230D-04  6 -2 1 25 -24 2 -2 4 0.28844080D-01 0.63362702D-01 0.47617763D+05 0.47617763D+05 0.47617763D+05 0.11943871D+01  1  2 11  7  6  5       21 0.522528467926D+00 0.100000000000D+01
-.467897562355D-02 0.000000000000D+00 0.000000000000D+00 0.225692520743D-04 0.000000000000D+00  6 -2 1 25 -24 3 -3 4 0.28844080D-01 0.63362702D-01 0.47617846D+05 0.47617846D+05 0.47617846D+05 0.11943871D+01  1  2  5  8  6  5       21 -.538482714062D+00 0.100000000000D+01
-.467897562355D-02 0.000000000000D+00 0.000000000000D+00 0.225692520743D-04 0.000000000000D+00  6 -2 1 25 -24 4 -4 4 0.28844080D-01 0.63362702D-01 0.47617846D+05 0.47617846D+05 0.47617846D+05 0.11943871D+01  1  2  5  8  6  5       21 -.538482714062D+00 0.100000000000D+01
0.453784078183D-02 0.000000000000D+00 0.000000000000D+00 0.225692520743D-04 0.455169344237D-04  6 -2 1 25 -24 3 -3 4 0.28844080D-01 0.63362702D-01 0.47617763D+05 0.47617763D+05 0.47617763D+05 0.11943871D+01  1  2 11  8  6  5       21 0.522240258419D+00 0.100000000000D+01
0.453784078183D-02 0.000000000000D+00 0.000000000000D+00 0.225692520743D-04 0.455169344237D-04  6 -2 1 25 -24 4 -4 4 0.28844080D-01 0.63362702D-01 0.47617763D+05 0.47617763D+05 0.47617763D+05 0.11943871D+01  1  2 11  8  6  5       21 0.522240258419D+00 0.100000000000D+01
  </mgrwgt>
  </event>
  <event>
  5     66 0.39191994E-03 0.85634751E+02 0.75467711E-02 0.11608814E+00
       -2 -1    0    0    0  501 0.00000000E+00 0.00000000E+00 0.21342451E+02 0.21344850E+02 0.32000000E+00 0.0000E+00 0.9000E+01
        1 -1    0    0  502    0 0.00000000E+00 0.00000000E+00 -.26860898E+04 0.26860899E+04 0.32000000E+00 0.0000E+00 0.9000E+01
       25  1    1    2    0    0 0.55029279E+02 0.10605884E+03 -.60869159E+03 0.63277733E+03 0.12500000E+03 0.0000E+00 0.9000E+01
      -24  1    1    2    0    0 -.76532400E+02 -.23168426E+02 -.38365543E+03 0.40006586E+03 0.80419002E+02 0.0000E+00 0.9000E+01
       21  1    1    2  502  501 0.21503121E+02 -.82890419E+02 -.16724004E+04 0.16745915E+04 0.75000000E+00 0.0000E+00 0.9000E+01
#aMCatNLO 1  0  0  2  1 0.24090650D+01 0.00000000D+00  -5  6  0 0.00000000D+00 0.00000000D+00 0.00000000D+00 0.00000000D+00 0.00000000D+00
  <mgrwgt>
 0.8114137081D-01    9    4    0
 0.239438956327994D+03 0.000000000000000D+00 0.000000000000000D+00 0.239438956327994D+03
 0.239438956327994D+03 0.000000000000000D+00 0.000000000000000D+00 -.239438956327994D+03
 0.190433059694697D+03 0.550291870318809D+02 0.106059200281524D+03 0.797683197449832D+02
 0.126979044953607D+03 -.765324613624263D+02 -.231681887921299D+02 0.571181169933024D+02
 0.161465808007684D+03 0.215032743305454D+02 -.828910114893939D+02 -.136886436738286D+03
 0.000000000000000D+00 -.000000000000000D+00 0.000000000000000D+00 -.000000000000000D+00
 0.239966041355175D+03 0.000000000000000D+00 0.000000000000000D+00 0.239966041355175D+03
 0.242210584544654D+03 0.000000000000000D+00 0.000000000000000D+00 -.242210584544654D+03
 0.190197070374540D+03 0.556344321541759D+02 0.105317380821032D+03 0.797683197449832D+02
 0.126827566234262D+03 -.761288800342752D+02 -.236628387646538D+02 0.571181169933024D+02
 0.161859335584937D+03 0.220173980181241D+02 -.835211478465434D+02 -.136886436738286D+03
 0.329265370608899D+01 -.152295013802481D+01 0.186660579016490D+01 -.224454318947857D+01
 0.239438956327994D+03 0.000000000000000D+00 0.000000000000000D+00 0.239438956327994D+03
 0.239438956327994D+03 0.000000000000000D+00 0.000000000000000D+00 -.239438956327994D+03
 0.190433059694697D+03 0.550291870318809D+02 0.106059200281524D+03 0.797683197449832D+02
 0.126979044953607D+03 -.765324613624263D+02 -.231681887921299D+02 0.571181169933024D+02
 0.000000000000000D+00 -.000000000000000D+00 0.000000000000000D+00 -.000000000000000D+00
 0.161465808007684D+03 0.215032743305454D+02 -.828910114893939D+02 -.136886436738286D+03
 0.239966041355175D+03 0.000000000000000D+00 0.000000000000000D+00 0.239966041355175D+03
 0.242210584544654D+03 0.000000000000000D+00 0.000000000000000D+00 -.242210584544654D+03
 0.190197070374540D+03 0.556344321541759D+02 0.105317380821032D+03 0.797683197449832D+02
 0.126827566234262D+03 -.761288800342752D+02 -.236628387646538D+02 0.571181169933024D+02
 0.329265370608899D+01 -.152295013802481D+01 0.186660579016490D+01 -.224454318947857D+01
 0.161859335584937D+03 0.220173980181241D+02 -.835211478465434D+02 -.136886436738286D+03
0.134324182243D-03 0.000000000000D+00 0.000000000000D+00 0.429166582592D-05 0.000000000000D+00  6 -2 1 25 -24 21 21 2 0.32836400D-02 0.41324478D+00 0.34589164D+05 0.34589164D+05 0.34589164D+05 0.12084633D+01  1  2  2  2  6  2        1 0.772865524919D-02 0.100000000000D+01
-.402671762517D-05 0.708848184199D-05 -.515840228181D-06 0.429166582592D-05 0.000000000000D+00  6 -2 1 25 -24 21 21 4 0.32836400D-02 0.41324478D+00 0.34589164D+05 0.34589164D+05 0.34589164D+05 0.12084633D+01  1  2  3  2  6  2        1 -.338351309382D-03 0.100000000000D+01
0.600264740736D-05 0.000000000000D+00 0.000000000000D+00 0.429166582592D-05 0.000000000000D+00  6 -2 1 25 -24 21 21 4 0.32836400D-02 0.41324478D+00 0.34589164D+05 0.34589164D+05 0.34589164D+05 0.12084633D+01  1  2 15  2  6  2        1 0.504381930668D-03 0.100000000000D+01
-.217305672035D-02 0.000000000000D+00 0.000000000000D+00 0.429166582592D-05 0.000000000000D+00  6 -2 1 25 -24 21 21 4 0.32836400D-02 0.41324478D+00 0.34589164D+05 0.34589164D+05 0.34589164D+05 0.12084633D+01  1  2  4  2  6  2        1 -.182594523662D+00 0.100000000000D+01
-.201610465498D-01 0.000000000000D+00 -.187892306349D-02 0.429166582592D-05 0.000000000000D+00  6 -2 1 25 -24 21 21 4 0.32836400D-02 0.41831987D+00 0.34589164D+05 0.34589164D+05 0.34589164D+05 0.12084633D+01  1  2  5  2  6  2        1 -.160996294863D+01 0.100000000000D+01
0.201826176367D-01 0.000000000000D+00 0.187878309850D-02 0.429166582592D-05 0.000000000000D+00  6 -2 1 25 -24 21 21 4 0.32836400D-02 0.41324478D+00 0.34589164D+05 0.34589164D+05 0.34589164D+05 0.12084633D+01  1  2  6  2  6  2        1 0.169587632901D+01 0.100000000000D+01
0.215069188263D-02 0.000000000000D+00 0.000000000000D+00 0.429166582592D-05 0.139712281220D-05  6 -2 1 25 -24 21 21 4 0.32908684D-02 0.41802830D+00 0.35096738D+05 0.35096738D+05 0.35096738D+05 0.12078107D+01  1  2 11  2  6  2        1 0.171250040868D+00 0.100000000000D+01
-.452053758710D-04 0.000000000000D+00 -.422258223443D-05 0.429166582592D-05 0.000000000000D+00  6 -2 21 25 -24 -1 21 4 0.32836400D-02 0.41831987D+00 0.34589164D+05 0.34589164D+05 0.34589164D+05 0.12084633D+01  3  4  5  5  5  2        1 -.185696079691D-02 0.100000000000D+01
0.130559919156D-04 0.000000000000D+00 0.000000000000D+00 0.429166582592D-05 0.160607841272D-07  6 -2 21 25 -24 -1 21 4 0.32908684D-02 0.41802830D+00 0.35096738D+05 0.35096738D+05 0.35096738D+05 0.12078107D+01  3  4 11  5  5  2        1 0.534748152393D-03 0.100000000000D+01
  </mgrwgt>
  </event>
  <event>
  5     66 0.39191994E-03 0.50770873E+02 0.75467711E-02 0.12045466E+00
       -2 -1    0    0    0  501 0.00000000E+00 0.00000000E+00 0.74195370E+02 0.74196060E+02 0.32000000E+00 0.0000E+00 0.9000E+01
        1 -1    0    0  502    0 -.00000000E+00 -.00000000E+00 -.43696939E+03 0.43696950E+03 0.32000000E+00 0.0000E+00 0.9000E+01
       25  1    1    2    0    0 -.43261395E+02 0.49876652E+02 -.10927193E+03 0.17867452E+03 0.12500000E+03 0.0000E+00 0.9000E+01
      -24  1    1    2    0    0 -.92250447E+01 -.40287177E+02 -.19519081E+02 0.92500641E+02 0.80419002E+02 0.0000E+00 0.9000E+01
       21  1    1    2  502  501 0.52486440E+02 -.95894754E+01 -.23398301E+03 0.23999041E+03 0.75000000E+00 0.0000E+00 0.9000E+01
#aMCatNLO 1  0  0  5  1 0.15701821D+02 0.00000000D+00  -5  6  0 0.00000000D+00 0.00000000D+00 0.00000000D+00 0.00000000D+00 0.00000000D+00
  <mgrwgt>
 0.5291634003D-01   15    2    0
 0.180059189335621D+03 0.000000000000000D+00 0.000000000000000D+00 0.180059189335621D+03
 0.180059189335621D+03 -.000000000000000D+00 -.000000000000000D+00 -.180059189335621D+03
 0.143539943486638D+03 -.432619294405936D+02 0.498767499070712D+02 0.248883638661114D+02
 0.111636291862477D+03 -.922546021050837D+01 -.402871009262481D+02 0.654773708184457D+02
 0.104942143322127D+03 0.524873896511019D+02 -.958964898082314D+01 -.903657346845571D+02
 0.000000000000000D+00 0.000000000000000D+00 0.000000000000000D+00 0.000000000000000D+00
 0.180059189335621D+03 0.000000000000000D+00 0.000000000000000D+00 0.180059189335621D+03
 0.180059189335621D+03 -.000000000000000D+00 -.000000000000000D+00 -.180059189335621D+03
 0.142480066353319D+03 -.416131144207972D+02 0.495755050294109D+02 0.220496557190069D+02
 0.110344572774660D+03 -.794581063659959D+01 -.405208978499247D+02 0.632742421307035D+02
 0.216257619864672D+02 -.588867034696505D+01 0.928641645575264D+00 -.207878514458375D+02
 0.856679775567961D+02 0.554475954043618D+02 -.998324882506143D+01 -.645360464038728D+02
0.106351944547D-03 0.000000000000D+00 0.000000000000D+00 0.106089620492D-04 0.000000000000D+00  6 -2 1 25 -24 21 21 2 0.11414734D-01 0.67226121D-01 0.20326176D+05 0.20326176D+05 0.20326176D+05 0.12330533D+01  1  2  2  3  6  5       21 0.401628576749D-01 0.100000000000D+01
-.568241733942D-06 0.561234630428D-05 -.408419470172D-06 0.106089620492D-04 0.000000000000D+00  6 -2 1 25 -24 21 21 4 0.11414734D-01 0.67226121D-01 0.20326176D+05 0.20326176D+05 0.20326176D+05 0.12330533D+01  1  2  3  3  6  5       21 -.326269154420D-03 0.100000000000D+01
0.407024385001D-05 0.000000000000D+00 0.000000000000D+00 0.106089620492D-04 0.000000000000D+00  6 -2 1 25 -24 21 21 4 0.11414734D-01 0.67226121D-01 0.20326176D+05 0.20326176D+05 0.20326176D+05 0.12330533D+01  1  2 15  3  6  5       21 0.233702479052D-02 0.100000000000D+01
0.113800833663D-04 0.000000000000D+00 0.000000000000D+00 0.105619141561D-04 0.000000000000D+00  6 -2 1 25 -24 21 21 4 0.11414734D-01 0.67226121D-01 0.21530415D+05 0.21530415D+05 0.21530415D+05 0.12303162D+01  1  2 12  3  6  5       21 0.648319407212D-02 0.100000000000D+01
-.646546546328D-04 0.000000000000D+00 0.000000000000D+00 0.106089620492D-04 0.000000000000D+00  6 -2 1 25 -24 21 21 4 0.11414734D-01 0.67226121D-01 0.20326176D+05 0.20326176D+05 0.20326176D+05 0.12330533D+01  1  2  4  3  6  5       21 -.371229676322D-01 0.100000000000D+01
-.160675848317D-04 0.000000000000D+00 0.000000000000D+00 0.106089620492D-04 0.000000000000D+00  6 -2 1 25 -24 21 21 4 0.11414734D-01 0.67226121D-01 0.20326176D+05 0.20326176D+05 0.20326176D+05 0.12330533D+01  1  2  5  3  6  5       21 -.922557602421D-02 0.100000000000D+01
0.900726614468D-04 0.000000000000D+00 -.000000000000D+00 0.106089620492D-04 0.000000000000D+00  6 -2 1 25 -24 21 21 4 0.11414734D-01 0.67226121D-01 0.20326176D+05 0.20326176D+05 0.20326176D+05 0.12330533D+01  1  2  6  3  6  5       21 0.517173050328D-01 0.100000000000D+01
0.248177200844D-05 0.000000000000D+00 0.000000000000D+00 0.105619141561D-04 0.000000000000D+00  6 -2 1 25 -24 1 -1 4 0.11414734D-01 0.67226121D-01 0.21530415D+05 0.21530415D+05 0.21530415D+05 0.12303162D+01  1  2 12  6  6  5       21 0.141385691611D-02 0.100000000000D+01
-.294539035392D-05 0.000000000000D+00 0.000000000000D+00 0.106089620492D-04 0.000000000000D+00  6 -2 1 25 -24 1 -1 4 0.11414734D-01 0.67226121D-01 0.20326176D+05 0.20326176D+05 0.20326176D+05 0.12330533D+01  1  2  5  6  6  5       21 -.169116409938D-02 0.100000000000D+01
0.248177200844D-05 0.000000000000D+00 0.000000000000D+00 0.105619141561D-04 0.000000000000D+00  6 -2 1 25 -24 2 -2 4 0.11414734D-01 0.67226121D-01 0.21530415D+05 0.21530415D+05 0.21530415D+05 0.12303162D+01  1  2 12  7  6  5       21 0.141385691611D-02 0.100000000000D+01
-.294539035392D-05 0.000000000000D+00 0.000000000000D+00 0.106089620492D-04 0.000000000000D+00  6 -2 1 25 -24 2 -2 4 0.11414734D-01 0.67226121D-01 0.20326176D+05 0.20326176D+05 0.20326176D+05 0.12330533D+01  1  2  5  7  6  5       21 -.169116409938D-02 0.100000000000D+01
0.248177200844D-05 0.000000000000D+00 0.000000000000D+00 0.105619141561D-04 0.000000000000D+00  6 -2 1 25 -24 3 -3 4 0.11414734D-01 0.67226121D-01 0.21530415D+05 0.21530415D+05 0.21530415D+05 0.12303162D+01  1  2 12  8  6  5       21 0.141385691611D-02 0.100000000000D+01
0.248177200844D-05 0.000000000000D+00 0.000000000000D+00 0.105619141561D-04 0.000000000000D+00  6 -2 1 25 -24 4 -4 4 0.11414734D-01 0.67226121D-01 0.21530415D+05 0.21530415D+05 0.21530415D+05 0.12303162D+01  1  2 12  8  6  5       21 0.141385691611D-02 0.100000000000D+01
-.294539035392D-05 0.000000000000D+00 0.000000000000D+00 0.106089620492D-04 0.000000000000D+00  6 -2 1 25 -24 3 -3 4 0.11414734D-01 0.67226121D-01 0.20326176D+05 0.20326176D+05 0.20326176D+05 0.12330533D+01  1  2  5  8  6  5       21 -.169116409938D-02 0.100000000000D+01
-.294539035392D-05 0.000000000000D+00 0.000000000000D+00 0.106089620492D-04 0.000000000000D+00  6 -2 1 25 -24 4 -4 4 0.11414734D-01 0.67226121D-01 0.20326176D+05 0.20326176D+05 0.20326176D+05 0.12330533D+01  1  2  5  8  6  5       21 -.169116409938D-02 0.100000000000D+01
  </mgrwgt>
  </event>
  <event>
  6     66 0.39191994E-03 0.18249684E+02 0.75467711E-02 0.12348001E+00
       21 -1    0    0  503  501 0.00000000E+00 0.00000000E+00 0.21815871E+03 0.21816000E+03 0.75000000E+00 0.0000E+00 0.9000E+01
        1 -1    0    0  502    0 0.00000000E+00 0.00000000E+00 -.60268157E+03 0.60268165E+03 0.32000000E+00 0.0000E+00 0.9000E+01
       25  1    1    2    0    0 0.20333625E+02 0.67559564E+01 -.38297742E+00 0.12682368E+03 0.12500000E+03 0.0000E+00 0.9000E+01
      -24  1    1    2    0    0 -.27487041E+02 0.39229214E+01 0.23694774E+02 0.88315259E+02 0.80419002E+02 0.0000E+00 0.9000E+01
        2  1    1    2  503    0 -.12689999E+02 0.44967691E+01 0.98165892E+02 0.99085326E+02 0.32000000E+00 0.0000E+00 0.9000E+01
       21  1    1    2  502  501 0.19843415E+02 -.15175647E+02 -.50600055E+03 0.50661739E+03 0.75000000E+00 0.0000E+00 0.9000E+01
#aMCatNLO 2  0  0  1  5 0.29205242D+02 0.00000000D+00  -5  6  0 0.00000000D+00 0.00000000D+00 0.00000000D+00 0.00000000D+00 0.00000000D+00
  <mgrwgt>
 0.1483316728D+01    1    2    0
 0.268217499456746D+03 0.000000000000000D+00 0.000000000000000D+00 0.268217499456746D+03
 0.268217499456746D+03 0.000000000000000D+00 0.000000000000000D+00 -.268217499456746D+03
 0.169868523671186D+03 0.163114146806110D+02 0.818126248688925D+01 0.113566368390761D+03
 0.140829531451195D+03 -.308094182571765D+02 0.510023543306247D+01 0.111312660194492D+03
 0.000000000000000D+00 -.000000000000000D+00 0.000000000000000D+00 0.000000000000000D+00
 0.225736943791110D+03 0.144980035765656D+02 -.132814979199517D+02 -.224879028585253D+03
 0.489673834932323D+03 0.000000000000000D+00 0.000000000000000D+00 0.489673834932323D+03
 0.268506656543903D+03 0.000000000000000D+00 0.000000000000000D+00 -.268506656543903D+03
 0.170239298634797D+03 0.203336061528820D+02 0.675597742899834D+01 0.113566368390761D+03
 0.140102290976213D+03 -.274870554464779D+02 0.392293840391147D+01 0.111312660194492D+03
 0.221576573236483D+03 -.126899991676927D+02 0.449676906806929D+01 0.221167178388419D+03
 0.226262328628733D+03 0.198434484612886D+02 -.151756849009791D+02 -.224879028585253D+03
0.180451642575D-02 0.000000000000D+00 0.000000000000D+00 0.211076840473D-03 0.470676168267D-06  6 21 1 25 -24 2 21 4 0.33562970D-01 0.92720307D-01 0.15668133D+05 0.15668133D+05 0.15668133D+05 0.12456707D+01  1  2  1  4  5  1       -2 0.148331672752D+01 0.100000000000D+01
  </mgrwgt>
  </event>
  <event>
  6     66 -.39191994E-03 0.14702642E+02 0.75467711E-02 0.12390208E+00
       -2 -1    0    0    0  501 0.00000000E+00 0.00000000E+00 0.29849982E+02 0.29851698E+02 0.32000000E+00 0.0000E+00 0.9000E+01
        1 -1    0    0  502    0 -.00000000E+00 -.00000000E+00 -.61769890E+03 0.61769898E+03 0.32000000E+00 0.0000E+00 0.9000E+01
       25  1    1    2    0    0 0.23737432E+02 0.14628428E+02 -.24842452E+03 0.27949454E+03 0.12500000E+03 0.0000E+00 0.9000E+01
      -24  1    1    2    0    0 -.41891760E+02 0.43052027E+00 -.14554451E+03 0.17148039E+03 0.80419002E+02 0.0000E+00 0.9000E+01
       21  1    1    2  502  503 0.15602358E+02 -.92477013E+01 -.18343288E+03 0.18432888E+03 0.75000000E+00 0.0000E+00 0.9000E+01
       21  1    1    2  503  501 0.25519704E+01 -.58112469E+01 -.10447011E+02 0.12246864E+02 0.75000000E+00 0.0000E+00 0.9000E+01
#aMCatNLO 2  0  0  5  1 0.64792757D+01 0.00000000D+00  -5  6  0 0.00000000D+00 0.00000000D+00 0.00000000D+00 0.00000000D+00 0.00000000D+00
  <mgrwgt>
 -.3161844611D+00    2    2    0
 0.135789850147513D+03 0.000000000000000D+00 0.000000000000000D+00 0.135789850147513D+03
 0.135789850147513D+03 -.000000000000000D+00 -.000000000000000D+00 -.135789850147513D+03
 0.128835749971791D+03 0.226729766391870D+02 0.155113898703029D+02 0.147980872211335D+02
 0.946087438662175D+02 -.426706651040115D+02 0.107661888536645D+01 0.257226299769284D+02
 0.481352064570170D+02 0.199976884648245D+02 -.165880087556693D+02 -.405207171980619D+02
 0.000000000000000D+00 0.000000000000000D+00 -.000000000000000D+00 0.000000000000000D+00
 0.135789850147513D+03 0.000000000000000D+00 0.000000000000000D+00 0.135789850147513D+03
 0.135789850147513D+03 -.000000000000000D+00 -.000000000000000D+00 -.135789850147513D+03
 0.128692262344431D+03 0.237574440617336D+02 0.146118281468525D+02 0.126006633630301D+02
 0.938222344940975D+02 -.418771698426904D+02 0.418417495464386D+00 0.241147942943919D+02
 0.423503210013962D+02 0.155009215434100D+02 -.906817689827374D+01 -.383541299988405D+02
 0.671488245510067D+01 0.261880423754678D+01 -.596206874404311D+01 0.163867234141852D+01
-.833045794446D-04 0.000000000000D+00 0.000000000000D+00 0.402273938049D-04 0.000000000000D+00  6 -2 1 25 -24 21 21 4 0.45924433D-02 0.95030738D-01 0.14788329D+05 0.14788329D+05 0.14788329D+05 0.12485268D+01  1  2 13  3  6  5       21 -.128060598031D+00 0.100000000000D+01
-.122609245194D-03 0.000000000000D+00 0.000000000000D+00 0.401804365969D-04 0.000000000000D+00  6 -2 1 25 -24 21 21 4 0.45924433D-02 0.95030738D-01 0.15007475D+05 0.15007475D+05 0.15007475D+05 0.12477979D+01  1  2  8  3  6  5       21 -.188123863028D+00 0.100000000000D+01
  </mgrwgt>
  </event>
  <event>
  5     66 0.39191994E-03 0.24685928E+02 0.75467711E-02 0.12066901E+00
       -2 -1    0    0    0  501 0.00000000E+00 0.00000000E+00 0.67729218E+02 0.67729974E+02 0.32000000E+00 0.0000E+00 0.9000E+01
        1 -1    0    0  502    0 0.00000000E+00 0.00000000E+00 -.32524930E+03 0.32524946E+03 0.32000000E+00 0.0000E+00 0.9000E+01
       25  1    1    2    0    0 -.27046224E+02 -.42695081E+02 -.15251822E+03 0.20357106E+03 0.12500000E+03 0.0000E+00 0.9000E+01
      -24  1    1    2    0    0 0.44975901E+02 0.25731039E+02 -.15939129E+02 0.96985513E+02 0.80419002E+02 0.0000E+00 0.9000E+01
       21  1    1    2  502  501 -.17929677E+02 0.16964042E+02 -.89062732E+02 0.92422858E+02 0.75000000E+00 0.0000E+00 0.9000E+01
#aMCatNLO 1  0  0  2  1 0.67776685D+03 0.00000000D+00  -5  6  0 0.00000000D+00 0.00000000D+00 0.00000000D+00 0.00000000D+00 0.00000000D+00
  <mgrwgt>
 0.1458051112D+00    7    4    0
 0.148421898883136D+03 0.000000000000000D+00 0.000000000000000D+00 0.148421898883136D+03
 0.148421898883136D+03 0.000000000000000D+00 0.000000000000000D+00 -.148421898883136D+03
 0.137185399427687D+03 -.270450772303260D+02 -.426961660256353D+02 -.253068176674043D+02
 0.114568828876317D+03 0.449768582791131D+02 0.257301328823215D+02 0.630384254000599D+02
 0.450895694622676D+02 -.179317810487871D+02 0.169660331433137D+02 -.377316077326556D+02
 0.000000000000000D+00 0.000000000000000D+00 0.000000000000000D+00 -.000000000000000D+00
 0.162777964064057D+03 0.000000000000000D+00 0.000000000000000D+00 0.162777964064057D+03
 0.170319396897864D+03 0.000000000000000D+00 0.000000000000000D+00 -.170319396897864D+03
 0.143527214052076D+03 -.389703110595793D+02 -.530654408162117D+02 -.253068176674043D+02
 0.109556821523470D+03 0.354555519330283D+02 0.174511302831754D+02 0.630384254000599D+02
 0.456472698424868D+02 -.217864636447104D+02 0.136142948344571D+02 -.377316077326556D+02
 0.343660555438875D+02 0.253012227712614D+02 0.220000156985792D+02 -.754143283380761D+01
 0.148421898883136D+03 0.000000000000000D+00 0.000000000000000D+00 0.148421898883136D+03
 0.148421898883136D+03 0.000000000000000D+00 0.000000000000000D+00 -.148421898883136D+03
 0.137185399427687D+03 -.270450772303260D+02 -.426961660256353D+02 -.253068176674043D+02
 0.114568828876317D+03 0.449768582791131D+02 0.257301328823215D+02 0.630384254000599D+02
 0.000000000000000D+00 0.000000000000000D+00 0.000000000000000D+00 -.000000000000000D+00
 0.450895694622676D+02 -.179317810487871D+02 0.169660331433137D+02 -.377316077326556D+02
 0.162777964064057D+03 0.000000000000000D+00 0.000000000000000D+00 0.162777964064057D+03
 0.170319396897864D+03 0.000000000000000D+00 0.000000000000000D+00 -.170319396897864D+03
 0.143527214052076D+03 -.389703110595793D+02 -.530654408162117D+02 -.253068176674043D+02
 0.109556821523470D+03 0.354555519330283D+02 0.174511302831754D+02 0.630384254000599D+02
 0.343660555438875D+02 0.253012227712614D+02 0.220000156985792D+02 -.754143283380761D+01
 0.456472698424868D+02 -.217864636447104D+02 0.136142948344571D+02 -.377316077326556D+02
0.107009315937D-03 0.000000000000D+00 0.000000000000D+00 0.340889129903D-04 0.000000000000D+00  6 -2 1 25 -24 21 21 2 0.10419950D-01 0.50038424D-01 0.16279708D+05 0.16279708D+05 0.16279708D+05 0.12437894D+01  1  2  2  2  6  2        1 0.684584196237D-01 0.100000000000D+01
0.111588404207D-04 0.564703674558D-05 -.410943949399D-06 0.340889129903D-04 0.000000000000D+00  6 -2 1 25 -24 21 21 4 0.10419950D-01 0.50038424D-01 0.16279708D+05 0.16279708D+05 0.16279708D+05 0.12437894D+01  1  2  3  2  6  2        1 0.110437885582D-01 0.100000000000D+01
0.416865045780D-05 0.000000000000D+00 0.000000000000D+00 0.340889129903D-04 0.000000000000D+00  6 -2 1 25 -24 21 21 4 0.10419950D-01 0.50038424D-01 0.16279708D+05 0.16279708D+05 0.16279708D+05 0.12437894D+01  1  2 15  2  6  2        1 0.412567009593D-02 0.100000000000D+01
-.436205070072D-04 0.000000000000D+00 0.000000000000D+00 0.340889129903D-04 0.000000000000D+00  6 -2 1 25 -24 21 21 4 0.10419950D-01 0.50038424D-01 0.16279708D+05 0.16279708D+05 0.16279708D+05 0.12437894D+01  1  2  4  2  6  2        1 -.431707630923D-01 0.100000000000D+01
-.502540210507D-03 0.000000000000D+00 -.153671029534D-03 0.340889129903D-04 0.000000000000D+00  6 -2 1 25 -24 21 21 4 0.10419950D-01 0.62227059D-01 0.16279708D+05 0.16279708D+05 0.16279708D+05 0.12437894D+01  1  2  5  2  6  2        1 -.378873989196D+00 0.100000000000D+01
0.527047620607D-03 0.000000000000D+00 0.150090474237D-03 0.340889129903D-04 0.000000000000D+00  6 -2 1 25 -24 21 21 4 0.10419950D-01 0.50038424D-01 0.16279708D+05 0.16279708D+05 0.16279708D+05 0.12437894D+01  1  2  6  2  6  2        1 0.521613560426D+00 0.100000000000D+01
-.133055731054D-04 0.000000000000D+00 -.469556025696D-05 0.340889129903D-04 0.000000000000D+00  6 -2 21 25 -24 -1 21 4 0.10419950D-01 0.62227059D-01 0.16279708D+05 0.16279708D+05 0.16279708D+05 0.12437894D+01  3  4  5  5  5  2        1 -.373915752338D-01 0.100000000000D+01
  </mgrwgt>
  </event>
  <event>
  6     66 -.39191994E-03 0.73593653E+02 0.75467711E-02 0.11936245E+00
       -2 -1    0    0    0  501 0.00000000E+00 0.00000000E+00 0.45817880E+02 0.45818997E+02 0.32000000E+00 0.0000E+00 0.9000E+01
        1 -1    0    0  502    0 -.00000000E+00 -.00000000E+00 -.61123734E+03 0.61123742E+03 0.32000000E+00 0.0000E+00 0.9000E+01
       25  1    1    2    0    0 0.13461611E+02 0.69776774E-01 -.14941027E+03 0.19526815E+03 0.12500000E+03 0.0000E+00 0.9000E+01
      -24  1    1    2    0    0 0.63762212E+02 -.15437295E+02 -.14257690E+03 0.17634999E+03 0.80419002E+02 0.0000E+00 0.9000E+01
       21  1    1    2  502  503 -.65215481E+02 0.21150968E+02 -.22900104E+03 0.23904490E+03 0.75000000E+00 0.0000E+00 0.9000E+01
       21  1    1    2  503  501 -.12008342E+02 -.57834504E+01 -.44431246E+02 0.46393391E+02 0.75000000E+00 0.0000E+00 0.9000E+01
#aMCatNLO 2  0  0  5  1 0.81840837D+01 0.00000000D+00  -5  6  0 0.00000000D+00 0.00000000D+00 0.00000000D+00 0.00000000D+00 0.00000000D+00
  <mgrwgt>
 -.1893849924D-01    4    2    0
 0.167349913978116D+03 0.000000000000000D+00 0.000000000000000D+00 0.167349913978116D+03
 0.167349913978116D+03 -.000000000000000D+00 -.000000000000000D+00 -.167349913978116D+03
 0.131184933579489D+03 0.142937879236889D+02 -.958261406942458D-01 0.371505752633565D+02
 0.105845102642372D+03 0.644326799920113D+02 -.155707176689132D+02 0.184919522854094D+02
 0.976697917343704D+02 -.787264679157002D+02 0.156665438096074D+02 -.556425275487658D+02
 0.000000000000000D+00 0.000000000000000D+00 0.000000000000000D+00 -.000000000000000D+00
 0.167349913978116D+03 0.000000000000000D+00 0.000000000000000D+00 0.167349913978116D+03
 0.167349913978116D+03 -.000000000000000D+00 -.000000000000000D+00 -.167349913978116D+03
 0.130930448956898D+03 0.134584679132672D+02 0.704022940975602D-01 0.365601852976629D+02
 0.105334678283368D+03 0.637596836378989D+02 -.154367915936738D+02 0.180162899171444D+02
 0.822905830282646D+02 -.651025623611610D+02 0.212069459250122D+02 -.456471452960254D+02
 0.161441176877011D+02 -.121155891900050D+02 -.584055662543595D+01 -.892932991878189D+01
-.793911584567D-04 0.000000000000D+00 0.000000000000D+00 0.480784008447D-05 0.000000000000D+00  6 -2 1 25 -24 21 21 4 0.70489970D-02 0.94036606D-01 0.24246288D+05 0.24246288D+05 0.24246288D+05 0.12247256D+01  1  2 13  3  6  5       21 -.606814948867D-01 0.100000000000D+01
-.726666079035D-04 0.000000000000D+00 0.000000000000D+00 0.480784008447D-05 0.000000000000D+00  6 -2 1 25 -24 21 21 4 0.70489970D-02 0.94036606D-01 0.24246288D+05 0.24246288D+05 0.24246288D+05 0.12247256D+01  1  2 13  3  6  5       21 -.555416809837D-01 0.100000000000D+01
-.191870603768D-06 0.000000000000D+00 0.000000000000D+00 0.481049088181D-05 0.000000000000D+00  6 -2 1 25 -24 21 21 4 0.70489970D-02 0.94036606D-01 0.24071837D+05 0.24071837D+05 0.24071837D+05 0.12250632D+01  1  2  8  3  6  5       21 -.146794681249D-03 0.100000000000D+01
0.127472096593D-03 0.000000000000D+00 0.000000000000D+00 0.481049088181D-05 0.433033055159D-06  6 -2 1 25 -24 21 21 4 0.70489970D-02 0.94036606D-01 0.24246288D+05 0.24246288D+05 0.24246288D+05 0.12247256D+01  1  2  1  3  6  5       21 0.974314713122D-01 0.100000000000D+01
  </mgrwgt>
  </event>
  <event>
  6     66 -.39191994E-03 0.14093920E+02 0.75467711E-02 0.12246869E+00
       -2 -1    0    0    0  501 0.00000000E+00 0.00000000E+00 0.39858066E+02 0.39859351E+02 0.32000000E+00 0.0000E+00 0.9000E+01
        1 -1    0    0  502    0 -.00000000E+00 -.00000000E+00 -.58744650E+03 0.58744659E+03 0.32000000E+00 0.0000E+00 0.9000E+01
       25  1    1    2    0    0 -.57185724E+02 0.10030267E+02 -.13679119E+03 0.19418456E+03 0.12500000E+03 0.0000E+00 0.9000E+01
      -24  1    1    2    0    0 0.55131885E+02 -.19179073E+02 -.36728296E+03 0.38048830E+03 0.80419002E+02 0.0000E+00 0.9000E+01
        2  1    1    2  502    0 0.27697482E+01 0.19118317E+02 -.32020515E+02 0.37397825E+02 0.32000000E+00 0.0000E+00 0.9000E+01
       -2  1    1    2    0  501 -.71590948E+00 -.99695109E+01 -.11493770E+02 0.15235249E+02 0.32000000E+00 0.0000E+00 0.9000E+01
#aMCatNLO 2  0  0  5  2 0.83735297D+01 0.00000000D+00  -5  6  0 0.00000000D+00 0.00000000D+00 0.00000000D+00 0.00000000D+00 0.00000000D+00
  <mgrwgt>
 -.2656009286D-02    1    2    0
 0.153019317503249D+03 0.000000000000000D+00 0.000000000000000D+00 0.153019317503249D+03
 0.153019317503249D+03 -.000000000000000D+00 -.000000000000000D+00 -.153019317503249D+03
 0.151699136511610D+03 -.591176089256569D+02 0.142470366232571D+01 0.623755284767661D+02
 0.125602255633946D+03 0.535587469587919D+02 -.261866036433954D+02 -.758579796711752D+02
 0.287372428609423D+02 0.555886196686501D+01 0.247618999810697D+02 0.134824511944091D+02
 0.000000000000000D+00 0.000000000000000D+00 -.000000000000000D+00 0.000000000000000D+00
 0.153019317503249D+03 0.000000000000000D+00 0.000000000000000D+00 0.153019317503249D+03
 0.153019317503249D+03 -.000000000000000D+00 -.000000000000000D+00 -.153019317503249D+03
 0.153307642161347D+03 -.571517714929217D+02 0.101815085944483D+02 0.671434661231730D+02
 0.122693000565700D+03 0.551590658472164D+02 -.190579977364327D+02 -.719765698723198D+02
 0.191644199981795D+02 0.267168861390291D+01 0.189595554038027D+02 0.819958966718890D+00
 0.108735722812721D+02 -.678982968197629D+00 -.100830662618183D+02 0.401314478242791D+01
-.255270713267D-05 0.000000000000D+00 0.000000000000D+00 0.251000035754D-04 0.000000000000D+00  6 -2 1 25 -24 2 -2 4 0.61321157D-02 0.90376490D-01 0.17747272D+05 0.17747272D+05 0.17747272D+05 0.12395808D+01  1  2 13  7  6  5       21 -.265600928636D-02 0.100000000000D+01
  </mgrwgt>
  </event>
  <event>
  5     66 -.39191994E-03 0.26933689E+02 0.75467711E-02 0.12433275E+00
       -2 -1    0    0    0  501 0.00000000E+00 0.00000000E+00 0.66909355E+03 0.66909363E+03 0.32000000E+00 0.0000E+00 0.9000E+01
        1 -1    0    0  502    0 0.00000000E+00 0.00000000E+00 -.28220781E+02 0.28222596E+02 0.32000000E+00 0.0000E+00 0.9000E+01
       25  1    1    2    0    0 0.11280032E+02 -.26712371E+02 0.43336369E+03 0.45196225E+03 0.12500000E+03 0.0000E+00 0.9000E+01
      -24  1    1    2    0    0 0.15087796E+02 0.21230645E+02 0.20038636E+03 0.21748630E+03 0.80419002E+02 0.0000E+00 0.9000E+01
       21  1    1    2  502  501 -.26367827E+02 0.54817260E+01 0.71227265E+01 0.27867676E+02 0.75000000E+00 0.0000E+00 0.9000E+01
#aMCatNLO 1  0  0  5  1 0.18141980D+01 0.00000000D+00  -5  6  0 0.00000000D+00 0.00000000D+00 0.00000000D+00 0.00000000D+00 0.00000000D+00
  <mgrwgt>
 -.6678704599D+00   25    2    0
 0.137415436080382D+03 0.000000000000000D+00 0.000000000000000D+00 0.137415436080382D+03
 0.137415436080382D+03 -.000000000000000D+00 -.000000000000000D+00 -.137415436080382D+03
 0.136192381861866D+03 0.112812875189478D+02 -.267126325170862D+02 0.456347750419600D+02
 0.845414385076764D+02 0.150885752165792D+02 0.212304833509252D+02 0.128075961695223D+01
 0.540970517912222D+02 -.263698627355270D+02 0.548214916616107D+01 -.469155346589123D+02
 0.000000000000000D+00 0.000000000000000D+00 0.000000000000000D+00 -.000000000000000D+00
 0.137415436080382D+03 0.000000000000000D+00 0.000000000000000D+00 0.137415436080382D+03
 0.137415436080382D+03 -.000000000000000D+00 -.000000000000000D+00 -.137415436080382D+03
 0.136167641414149D+03 0.112468917994263D+02 -.267054818365163D+02 0.455735804279603D+02
 0.845381781163750D+02 0.150672225415418D+02 0.212349224544133D+02 0.124277033442068D+01
 0.167982666120330D+02 -.969194072022495D+01 0.195565969401149D+01 -.135802592539984D+02
 0.373267860182076D+02 -.166221736207432D+02 0.351489968809151D+01 -.332360915083826D+02
0.994989061996D-04 0.000000000000D+00 0.000000000000D+00 0.387528675631D-04 0.000000000000D+00  6 -2 1 25 -24 21 21 2 0.10293762D+00 0.43418041D-02 0.14374174D+05 0.14374174D+05 0.14374174D+05 0.12499380D+01  1  2  2  3  6  5       21 0.212135204591D-01 0.100000000000D+01
0.781897466381D-05 0.525070153503D-05 -.382101998470D-06 0.387528675631D-04 0.000000000000D+00  6 -2 1 25 -24 21 21 4 0.10293762D+00 0.43418041D-02 0.14374174D+05 0.14374174D+05 0.14374174D+05 0.12499380D+01  1  2  3  3  6  5       21 0.260448115220D-02 0.100000000000D+01
0.362261140579D-05 0.000000000000D+00 0.000000000000D+00 0.387528675631D-04 0.000000000000D+00  6 -2 1 25 -24 21 21 4 0.10293762D+00 0.43418041D-02 0.14374174D+05 0.14374174D+05 0.14374174D+05 0.12499380D+01  1  2 15  3  6  5       21 0.120668291353D-02 0.100000000000D+01
0.429093735660D-06 0.000000000000D+00 0.000000000000D+00 0.387545119941D-04 0.000000000000D+00  6 -2 1 25 -24 21 21 4 0.10293762D+00 0.43418041D-02 0.14366517D+05 0.14366517D+05 0.14366517D+05 0.12499646D+01  1  2 12  3  6  5       21 0.142939814269D-03 0.100000000000D+01
0.424526340877D-06 0.000000000000D+00 0.000000000000D+00 0.387545119941D-04 0.000000000000D+00  6 -2 1 25 -24 21 21 4 0.10293762D+00 0.43418041D-02 0.14366517D+05 0.14366517D+05 0.14366517D+05 0.12499646D+01  1  2 12  3  6  5       21 0.141418322558D-03 0.100000000000D+01
-.628737893303D-02 0.000000000000D+00 0.000000000000D+00 0.387528675631D-04 0.000000000000D+00  6 -2 1 25 -24 21 21 4 0.10293762D+00 0.43418041D-02 0.14374174D+05 0.14374174D+05 0.14374174D+05 0.12499380D+01  1  2  4  3  6  5       21 -.209431039642D+01 0.100000000000D+01
-.128616540524D-02 0.000000000000D+00 0.000000000000D+00 0.387528675631D-04 0.000000000000D+00  6 -2 1 25 -24 21 21 4 0.10293762D+00 0.43418041D-02 0.14374174D+05 0.14374174D+05 0.14374174D+05 0.12499380D+01  1  2  5  3  6  5       21 -.428418520406D+00 0.100000000000D+01
0.432580756624D-02 0.000000000000D+00 -.000000000000D+00 0.387528675631D-04 0.000000000000D+00  6 -2 1 25 -24 21 21 4 0.10293762D+00 0.43418041D-02 0.14374174D+05 0.14374174D+05 0.14374174D+05 0.12499380D+01  1  2  6  3  6  5       21 0.144091581809D+01 0.100000000000D+01
0.121579237100D-02 0.000000000000D+00 0.000000000000D+00 0.387528675631D-04 0.687561350698D-04  6 -2 1 25 -24 21 21 4 0.10293762D+00 0.43418041D-02 0.14366517D+05 0.14366517D+05 0.14366517D+05 0.12499646D+01  1  2 11  3  6  5       21 0.405005063597D+00 0.100000000000D+01
0.138936885884D-07 0.000000000000D+00 0.000000000000D+00 0.387545119941D-04 0.000000000000D+00  6 -2 1 25 -24 1 -1 4 0.10293762D+00 0.43418041D-02 0.14366517D+05 0.14366517D+05 0.14366517D+05 0.12499646D+01  1  2 12  6  6  5       21 0.462826907340D-05 0.100000000000D+01
0.136534895694D-07 0.000000000000D+00 0.000000000000D+00 0.387545119941D-04 0.000000000000D+00  6 -2 1 25 -24 1 -1 4 0.10293762D+00 0.43418041D-02 0.14366517D+05 0.14366517D+05 0.14366517D+05 0.12499646D+01  1  2 12  6  6  5       21 0.454825391515D-05 0.100000000000D+01
-.401522199956D-04 0.000000000000D+00 0.000000000000D+00 0.387528675631D-04 0.000000000000D+00  6 -2 1 25 -24 1 -1 4 0.10293762D+00 0.43418041D-02 0.14374174D+05 0.14374174D+05 0.14374174D+05 0.12499380D+01  1  2  5  6  6  5       21 -.133746053279D-01 0.100000000000D+01
0.282238243308D-04 0.000000000000D+00 0.000000000000D+00 0.387528675631D-04 0.520723219702D-06  6 -2 1 25 -24 1 -1 4 0.10293762D+00 0.43418041D-02 0.14366517D+05 0.14366517D+05 0.14366517D+05 0.12499646D+01  1  2 11  6  6  5       21 0.940192753364D-02 0.100000000000D+01
0.138936885884D-07 0.000000000000D+00 0.000000000000D+00 0.387545119941D-04 0.000000000000D+00  6 -2 1 25 -24 2 -2 4 0.10293762D+00 0.43418041D-02 0.14366517D+05 0.14366517D+05 0.14366517D+05 0.12499646D+01  1  2 12  7  6  5       21 0.462826907340D-05 0.100000000000D+01
0.136534895694D-07 0.000000000000D+00 0.000000000000D+00 0.387545119941D-04 0.000000000000D+00  6 -2 1 25 -24 2 -2 4 0.10293762D+00 0.43418041D-02 0.14366517D+05 0.14366517D+05 0.14366517D+05 0.12499646D+01  1  2 12  7  6  5       21 0.454825391515D-05 0.100000000000D+01
-.401522199956D-04 0.000000000000D+00 0.000000000000D+00 0.387528675631D-04 0.000000000000D+00  6 -2 1 25 -24 2 -2 4 0.10293762D+00 0.43418041D-02 0.14374174D+05 0.14374174D+05 0.14374174D+05 0.12499380D+01  1  2  5  7  6  5       21 -.133746053279D-01 0.100000000000D+01
0.276965336894D-04 0.000000000000D+00 0.000000000000D+00 0.387528675631D-04 0.509835804835D-06  6 -2 1 25 -24 2 -2 4 0.10293762D+00 0.43418041D-02 0.14366517D+05 0.14366517D+05 0.14366517D+05 0.12499646D+01  1  2 11  7  6  5       21 0.922627634116D-02 0.100000000000D+01
0.138936885884D-07 0.000000000000D+00 0.000000000000D+00 0.387545119941D-04 0.000000000000D+00  6 -2 1 25 -24 3 -3 4 0.10293762D+00 0.43418041D-02 0.14366517D+05 0.14366517D+05 0.14366517D+05 0.12499646D+01  1  2 12  8  6  5       21 0.462826907340D-05 0.100000000000D+01
0.138936885884D-07 0.000000000000D+00 0.000000000000D+00 0.387545119941D-04 0.000000000000D+00  6 -2 1 25 -24 4 -4 4 0.10293762D+00 0.43418041D-02 0.14366517D+05 0.14366517D+05 0.14366517D+05 0.12499646D+01  1  2 12  8  6  5       21 0.462826907340D-05 0.100000000000D+01
0.136534895694D-07 0.000000000000D+00 0.000000000000D+00 0.387545119941D-04 0.000000000000D+00  6 -2 1 25 -24 3 -3 4 0.10293762D+00 0.43418041D-02 0.14366517D+05 0.14366517D+05 0.14366517D+05 0.12499646D+01  1  2 12  8  6  5       21 0.454825391515D-05 0.100000000000D+01
0.136534895694D-07 0.000000000000D+00 0.000000000000D+00 0.387545119941D-04 0.000000000000D+00  6 -2 1 25 -24 4 -4 4 0.10293762D+00 0.43418041D-02 0.14366517D+05 0.14366517D+05 0.14366517D+05 0.12499646D+01  1  2 12  8  6  5       21 0.454825391515D-05 0.100000000000D+01
-.401522199956D-04 0.000000000000D+00 0.000000000000D+00 0.387528675631D-04 0.000000000000D+00  6 -2 1 25 -24 3 -3 4 0.10293762D+00 0.43418041D-02 0.14374174D+05 0.14374174D+05 0.14374174D+05 0.12499380D+01  1  2  5  8  6  5       21 -.133746053279D-01 0.100000000000D+01
-.401522199956D-04 0.000000000000D+00 0.000000000000D+00 0.387528675631D-04 0.000000000000D+00  6 -2 1 25 -24 4 -4 4 0.10293762D+00 0.43418041D-02 0.14374174D+05 0.14374174D+05 0.14374174D+05 0.12499380D+01  1  2  5  8  6  5       21 -.133746053279D-01 0.100000000000D+01
0.277107796200D-04 0.000000000000D+00 0.000000000000D+00 0.387528675631D-04 0.510086638276D-06  6 -2 1 25 -24 3 -3 4 0.10293762D+00 0.43418041D-02 0.14366517D+05 0.14366517D+05 0.14366517D+05 0.12499646D+01  1  2 11  8  6  5       21 0.923102194917D-02 0.100000000000D+01
0.277107796200D-04 0.000000000000D+00 0.000000000000D+00 0.387528675631D-04 0.510086638276D-06  6 -2 1 25 -24 4 -4 4 0.10293762D+00 0.43418041D-02 0.14366517D+05 0.14366517D+05 0.14366517D+05 0.12499646D+01  1  2 11  8  6  5       21 0.923102194917D-02 0.100000000000D+01
  </mgrwgt>
  </event>
  <event>
  5     66 0.39191994E-03 0.11520417E+03 0.75467711E-02 0.11464083E+00
       -2 -1    0    0    0  501 0.00000000E+00 0.00000000E+00 0.58738951E+02 0.58739823E+02 0.32000000E+00 0.0000E+00 0.9000E+01
        1 -1    0    0  502    0 0.00000000E+00 0.00000000E+00 -.92260453E+03 0.92260459E+03 0.32000000E+00 0.0000E+00 0.9000E+01
       25  1    1    2    0    0 -.14794082E+03 -.87083549E+01 -.26466501E+03 0.32807756E+03 0.12500000E+03 0.0000E+00 0.9000E+01
      -24  1    1    2    0    0 0.35290825E+02 -.15411869E+02 -.74869977E+02 0.11642894E+03 0.80419002E+02 0.0000E+00 0.9000E+01
       21  1    1    2  502  501 0.11264999E+03 0.24120224E+02 -.52433059E+03 0.53683791E+03 0.75000000E+00 0.0000E+00 0.9000E+01
#aMCatNLO 1  0  0  2  1 0.10332159D+02 0.00000000D+00  -5  6  0 0.00000000D+00 0.00000000D+00 0.00000000D+00 0.00000000D+00 0.00000000D+00
  <mgrwgt>
 0.2027719657D-01    7    4    0
 0.232794495987066D+03 0.000000000000000D+00 0.000000000000000D+00 0.232794495987066D+03
 0.232794495987066D+03 0.000000000000000D+00 0.000000000000000D+00 -.232794495987066D+03
 0.200439322014398D+03 -.147941358869563D+03 -.870847089187831D+01 0.508767007592269D+02
 0.106487314023978D+03 0.352905369493275D+02 -.154119306846562D+02 0.582184033452505D+02
 0.158662355935756D+03 0.112650821920235D+03 0.241204015765345D+02 -.109095104104477D+03
 0.000000000000000D+00 0.000000000000000D+00 -.000000000000000D+00 -.000000000000000D+00
 0.236796326374360D+03 0.000000000000000D+00 0.000000000000000D+00 0.236796326374360D+03
 0.239617755579923D+03 0.000000000000000D+00 0.000000000000000D+00 -.239617755579923D+03
 0.202969493543201D+03 -.151484291531603D+03 -.597378006021289D+01 0.508767007592269D+02
 0.105684598507853D+03 0.334271398943138D+02 -.139736265089387D+02 0.582184033452505D+02
 0.157049529312147D+03 0.109878086405041D+03 0.262605987282548D+02 -.109095104104477D+03
 0.107104605910830D+02 0.817906523224839D+01 -.631319215910318D+01 -.282142920556313D+01
 0.232794495987066D+03 0.000000000000000D+00 0.000000000000000D+00 0.232794495987066D+03
 0.232794495987066D+03 0.000000000000000D+00 0.000000000000000D+00 -.232794495987066D+03
 0.200439322014398D+03 -.147941358869563D+03 -.870847089187831D+01 0.508767007592269D+02
 0.106487314023978D+03 0.352905369493275D+02 -.154119306846562D+02 0.582184033452505D+02
 0.000000000000000D+00 0.000000000000000D+00 -.000000000000000D+00 -.000000000000000D+00
 0.158662355935756D+03 0.112650821920235D+03 0.241204015765345D+02 -.109095104104477D+03
 0.236796326374360D+03 0.000000000000000D+00 0.000000000000000D+00 0.236796326374360D+03
 0.239617755579923D+03 0.000000000000000D+00 0.000000000000000D+00 -.239617755579923D+03
 0.202969493543201D+03 -.151484291531603D+03 -.597378006021289D+01 0.508767007592269D+02
 0.105684598507853D+03 0.334271398943138D+02 -.139736265089387D+02 0.582184033452505D+02
 0.107104605910830D+02 0.817906523224839D+01 -.631319215910318D+01 -.282142920556313D+01
 0.157049529312147D+03 0.109878086405041D+03 0.262605987282548D+02 -.109095104104477D+03
0.622564907143D-04 0.000000000000D+00 0.000000000000D+00 0.225961748108D-05 0.000000000000D+00  6 -2 1 25 -24 21 21 2 0.90368330D-02 0.14193923D+00 0.39649330D+05 0.39649330D+05 0.39649330D+05 0.12023888D+01  1  2  2  2  6  2        1 0.113120346447D-01 0.100000000000D+01
-.424670030419D-05 0.328536527531D-05 -.239081316853D-06 0.225961748108D-05 0.000000000000D+00  6 -2 1 25 -24 21 21 4 0.90368330D-02 0.14193923D+00 0.39649330D+05 0.39649330D+05 0.39649330D+05 0.12023888D+01  1  2  3  2  6  2        1 -.111557184055D-02 0.100000000000D+01
0.328605956717D-05 0.000000000000D+00 0.000000000000D+00 0.225961748108D-05 0.000000000000D+00  6 -2 1 25 -24 21 21 4 0.90368330D-02 0.14193923D+00 0.39649330D+05 0.39649330D+05 0.39649330D+05 0.12023888D+01  1  2 15  2  6  2        1 0.863219736953D-03 0.100000000000D+01
-.121141441829D-03 0.000000000000D+00 0.000000000000D+00 0.225961748108D-05 0.000000000000D+00  6 -2 1 25 -24 21 21 4 0.90368330D-02 0.14193923D+00 0.39649330D+05 0.39649330D+05 0.39649330D+05 0.12023888D+01  1  2  4  2  6  2        1 -.318228204365D-01 0.100000000000D+01
-.261858786397D-02 0.000000000000D+00 -.388144158687D-03 0.225961748108D-05 0.000000000000D+00  6 -2 1 25 -24 21 21 4 0.90368330D-02 0.14782802D+00 0.39649330D+05 0.39649330D+05 0.39649330D+05 0.12023888D+01  1  2  5  2  6  2        1 -.643150415254D+00 0.100000000000D+01
0.263251125960D-02 0.000000000000D+00 0.387823680866D-03 0.225961748108D-05 0.000000000000D+00  6 -2 1 25 -24 21 21 4 0.90368330D-02 0.14193923D+00 0.39649330D+05 0.39649330D+05 0.39649330D+05 0.12023888D+01  1  2  6  2  6  2        1 0.691538187482D+00 0.100000000000D+01
-.185677972896D-04 0.000000000000D+00 -.278610718873D-05 0.225961748108D-05 0.000000000000D+00  6 -2 21 25 -24 -1 21 4 0.90368330D-02 0.14782802D+00 0.39649330D+05 0.39649330D+05 0.39649330D+05 0.12023888D+01  3  4  5  5  5  2        1 -.734743776410D-02 0.100000000000D+01
  </mgrwgt>
  </event>
  <event>
  5     66 0.39191994E-03 0.22023187E+02 0.75467711E-02 0.10800189E+00
       -2 -1    0    0    0  501 0.00000000E+00 0.00000000E+00 0.25550740E+02 0.25552744E+02 0.32000000E+00 0.0000E+00 0.9000E+01
        1 -1    0    0  502    0 0.00000000E+00 0.00000000E+00 -.10726778E+04 0.10726778E+04 0.32000000E+00 0.0000E+00 0.9000E+01
       25  1    1    2    0    0 0.45545819E+02 -.29846919E+02 -.57093021E+03 0.58698515E+03 0.12500000E+03 0.0000E+00 0.9000E+01
      -24  1    1    2    0    0 -.53976392E+02 0.95029499E+01 -.12061019E+03 0.15497674E+03 0.80419002E+02 0.0000E+00 0.9000E+01
       21  1    1    2  502  501 0.84305725E+01 0.20343969E+02 -.35558662E+03 0.35626866E+03 0.75000000E+00 0.0000E+00 0.9000E+01
#aMCatNLO 1  0  0  1  2 0.59933979D+02 0.00000000D+00  -5  6  0 0.00000000D+00 0.00000000D+00 0.00000000D+00 0.00000000D+00 0.00000000D+00
  <mgrwgt>
 0.3404894258D+00    3    2    0
 0.165556145409665D+03 0.000000000000000D+00 0.000000000000000D+00 0.165556145409665D+03
 0.165556145409665D+03 0.000000000000000D+00 0.000000000000000D+00 -.165556145409665D+03
 0.141367220269922D+03 0.455455090481863D+02 -.298476668547643D+02 -.373418579574362D+02
 0.132602859207535D+03 -.539766824541079D+02 0.950224801558612D+01 0.900695694979241D+02
 0.571422113418724D+02 0.843117340592156D+01 0.203454188391782D+02 -.527277115404879D+02
 0.000000000000000D+00 -.000000000000000D+00 -.000000000000000D+00 -.000000000000000D+00
 0.290250137416117D+03 0.000000000000000D+00 0.000000000000000D+00 0.290250137416117D+03
 0.406650141977177D+03 0.000000000000000D+00 0.000000000000000D+00 -.406650141977177D+03
 0.172984709251936D+03 0.924413354494492D+02 0.660219265061691D+02 -.373418579574362D+02
 0.155502595456476D+03 -.109963724310995D+02 0.973673132172456D+02 0.900695694979241D+02
 0.889012404610088D+02 0.302183097954021D+02 0.648850733552665D+02 -.527277115404879D+02
 0.279511734223873D+03 -.111663272813752D+03 -.228274313078681D+03 -.116400004561060D+03
0.521881277644D-03 0.000000000000D+00 0.000000000000D+00 0.372333480679D-04 0.000000000000D+00  6 -2 1 25 -24 21 21 2 0.39310409D-02 0.16502750D+00 0.16344135D+05 0.16344135D+05 0.16344135D+05 0.12435959D+01  1  2  2  1  6  1       -2 0.277399524995D+00 0.100000000000D+01
0.613581135361D-04 0.275404316519D-04 -.200416152065D-05 0.372333480679D-04 0.000000000000D+00  6 -2 1 25 -24 21 21 4 0.39310409D-02 0.16502750D+00 0.16344135D+05 0.16344135D+05 0.16344135D+05 0.12435959D+01  1  2  3  1  6  1       -2 0.504387776570D-01 0.100000000000D+01
0.153899258598D-04 0.000000000000D+00 0.000000000000D+00 0.372333480679D-04 0.000000000000D+00  6 -2 1 25 -24 21 21 4 0.39310409D-02 0.16502750D+00 0.16344135D+05 0.16344135D+05 0.16344135D+05 0.12435959D+01  1  2 15  1  6  1       -2 0.126511231175D-01 0.100000000000D+01
  </mgrwgt>
  </event>
  <event>
  6     66 0.39191994E-03 0.86790147E+02 0.75467711E-02 0.11472502E+00
       -2 -1    0    0    0  503 0.00000000E+00 0.00000000E+00 0.19989015E+03 0.19989040E+03 0.32000000E+00 0.0000E+00 0.9000E+01
        1 -1    0    0  502    0 0.00000000E+00 0.00000000E+00 -.21764261E+03 0.21764284E+03 0.32000000E+00 0.0000E+00 0.9000E+01
       25  1    1    2    0    0 0.47054790E+02 0.55785705E+01 -.49610949E+02 0.14258864E+03 0.12500000E+03 0.0000E+00 0.9000E+01
      -24  1    1    2    0    0 -.15173040E+02 -.11459271E+03 0.68822249E+01 0.14098330E+03 0.80419002E+02 0.0000E+00 0.9000E+01
       21  1    1    2  502  501 0.20322764E+02 0.21758751E+02 0.83222123E+01 0.30923772E+02 0.75000000E+00 0.0000E+00 0.9000E+01
       21  1    1    2  501  503 -.52204514E+02 0.87255386E+02 0.16654049E+02 0.10303753E+03 0.75000000E+00 0.0000E+00 0.9000E+01
#aMCatNLO 2  0  0  1  1 0.10167996D+03 0.00000000D+00  -5  6  0 0.00000000D+00 0.00000000D+00 0.00000000D+00 0.00000000D+00 0.00000000D+00
  <mgrwgt>
 0.1264095391D-02    1    2    0
 0.147804710603624D+03 0.000000000000000D+00 0.000000000000000D+00 0.147804710603624D+03
 0.147804710603624D+03 0.000000000000000D+00 0.000000000000000D+00 -.147804710603624D+03
 0.139260033857739D+03 0.232564176604311D+02 0.453500331662181D+02 -.342179859063218D+02
 0.119648666375420D+03 -.376827460015043D+02 -.769743666974815D+02 0.224398069589232D+02
 0.367007209740897D+02 0.144263283410732D+02 0.316243335312634D+02 0.117781789473986D+02
 0.000000000000000D+00 -.000000000000000D+00 0.000000000000000D+00 0.000000000000000D+00
 0.223096514144240D+03 0.000000000000000D+00 0.000000000000000D+00 0.223096514144240D+03
 0.195001478616236D+03 0.000000000000000D+00 0.000000000000000D+00 -.195001478616236D+03
 0.137989012020985D+03 0.470532572939048D+02 0.557564857894474D+01 -.342179859063218D+02
 0.142594729494158D+03 -.151738712940485D+02 -.114596027936135D+03 0.224398069589232D+02
 0.320242295368235D+02 0.203251281762293D+02 0.217649935155070D+02 0.117781789473986D+02
 0.105490021708510D+03 -.522045141760856D+02 0.872553858416829D+02 0.280950355280033D+02
0.541225991814D-05 0.000000000000D+00 0.000000000000D+00 0.173624468701D-04 0.110306563903D-07  6 -2 1 25 -24 21 21 4 0.30752168D-01 0.33483299D-01 0.41200204D+05 0.41200204D+05 0.41200204D+05 0.12006986D+01  1  2  1  1  6  1       -2 0.126409539090D-02 0.100000000000D+01
  </mgrwgt>
  </event>
  <event>
  5     66 0.39191994E-03 0.54911956E+02 0.75467711E-02 0.11527680E+00
       -2 -1    0    0    0  501 0.00000000E+00 0.00000000E+00 0.17606872E+02 0.17609779E+02 0.32000000E+00 0.0000E+00 0.9000E+01
        1 -1    0    0  502    0 0.00000000E+00 0.00000000E+00 -.23506358E+04 0.23506359E+04 0.32000000E+00 0.0000E+00 0.9000E+01
       25  1    1    2    0    0 0.85838539E+02 -.25740828E+02 -.44920933E+03 0.47481035E+03 0.12500000E+03 0.0000E+00 0.9000E+01
      -24  1    1    2    0    0 -.57515104E+02 0.72782813E+02 -.93470106E+03 0.94272934E+03 0.80419002E+02 0.0000E+00 0.9000E+01
       21  1    1    2  502  501 -.28323435E+02 -.47041986E+02 -.94911859E+03 0.95070596E+03 0.75000000E+00 0.0000E+00 0.9000E+01
#aMCatNLO 1  0  0  2  5 0.61421908D+02 0.00000000D+00  -5  6  0 0.00000000D+00 0.00000000D+00 0.00000000D+00 0.00000000D+00 0.00000000D+00
  <mgrwgt>
 0.1162878399D+00    7    4    0
 0.203447320891896D+03 0.000000000000000D+00 0.000000000000000D+00 0.203447320891896D+03
 0.203447320891896D+03 0.000000000000000D+00 0.000000000000000D+00 -.203447320891896D+03
 0.187885161568647D+03 0.858389792707055D+02 -.257400960441736D+02 0.107911774293061D+03
 0.127625126722187D+03 -.575148044061817D+02 0.727833103222090D+02 -.348653700560245D+02
 0.913843534929579D+02 -.283241748645238D+02 -.470432142780354D+02 -.730464042370370D+02
 0.000000000000000D+00 0.000000000000000D+00 -.000000000000000D+00 -.000000000000000D+00
 0.222013146760902D+03 0.000000000000000D+00 0.000000000000000D+00 0.222013146760902D+03
 0.263753988795313D+03 0.000000000000000D+00 0.000000000000000D+00 -.263753988795313D+03
 0.185326221050630D+03 0.840889420251946D+02 0.221517649717336D+01 0.107911774293061D+03
 0.140578845771492D+03 -.587724480985145D+02 0.928730382804298D+02 -.348653700560245D+02
 0.855993684741645D+02 -.291540748078692D+02 -.337863083705859D+02 -.730464042370370D+02
 0.742627002599289D+02 0.383758088118909D+01 -.613019064070173D+02 -.417408420344112D+02
 0.203447320891896D+03 0.000000000000000D+00 0.000000000000000D+00 0.203447320891896D+03
 0.203447320891896D+03 0.000000000000000D+00 0.000000000000000D+00 -.203447320891896D+03
 0.187885161568647D+03 0.858389792707055D+02 -.257400960441736D+02 0.107911774293061D+03
 0.127625126722187D+03 -.575148044061817D+02 0.727833103222090D+02 -.348653700560245D+02
 0.000000000000000D+00 0.000000000000000D+00 -.000000000000000D+00 -.000000000000000D+00
 0.913843534929579D+02 -.283241748645238D+02 -.470432142780354D+02 -.730464042370370D+02
 0.222013146760902D+03 0.000000000000000D+00 0.000000000000000D+00 0.222013146760902D+03
 0.263753988795313D+03 0.000000000000000D+00 0.000000000000000D+00 -.263753988795313D+03
 0.185326221050630D+03 0.840889420251946D+02 0.221517649717336D+01 0.107911774293061D+03
 0.140578845771492D+03 -.587724480985145D+02 0.928730382804298D+02 -.348653700560245D+02
 0.742627002599289D+02 0.383758088118909D+01 -.613019064070173D+02 -.417408420344112D+02
 0.855993684741645D+02 -.291540748078692D+02 -.337863083705859D+02 -.730464042370370D+02
0.269042361417D-03 0.000000000000D+00 0.000000000000D+00 0.604488987436D-05 0.000000000000D+00  6 -2 1 25 -24 21 21 2 0.27089748D-02 0.36163651D+00 0.27470921D+05 0.27470921D+05 0.27470921D+05 0.12189333D+01  1  2  2  2  6  2        1 0.349654690249D-01 0.100000000000D+01
0.533767491322D-06 0.141977554733D-04 -.103319350832D-05 0.604488987436D-05 0.000000000000D+00  6 -2 1 25 -24 21 21 4 0.27089748D-02 0.36163651D+00 0.27470921D+05 0.27470921D+05 0.27470921D+05 0.12189333D+01  1  2  3  2  6  2        1 0.103069621244D-03 0.100000000000D+01
0.106560505399D-04 0.000000000000D+00 0.000000000000D+00 0.604488987436D-05 0.000000000000D+00  6 -2 1 25 -24 21 21 4 0.27089748D-02 0.36163651D+00 0.27470921D+05 0.27470921D+05 0.27470921D+05 0.12189333D+01  1  2 15  2  6  2        1 0.205766576451D-02 0.100000000000D+01
-.115189522605D-03 0.000000000000D+00 0.000000000000D+00 0.604488987436D-05 0.000000000000D+00  6 -2 1 25 -24 21 21 4 0.27089748D-02 0.36163651D+00 0.27470921D+05 0.27470921D+05 0.27470921D+05 0.12189333D+01  1  2  4  2  6  2        1 -.222429066198D-01 0.100000000000D+01
-.701941141807D-03 0.000000000000D+00 -.208629953319D-03 0.604488987436D-05 0.000000000000D+00  6 -2 1 25 -24 21 21 4 0.27089748D-02 0.48076627D+00 0.27470921D+05 0.27470921D+05 0.27470921D+05 0.12189333D+01  1  2  5  2  6  2        1 -.408724534111D-01 0.100000000000D+01
0.739352224068D-03 0.000000000000D+00 0.200448922699D-03 0.604488987436D-05 0.000000000000D+00  6 -2 1 25 -24 21 21 4 0.27089748D-02 0.36163651D+00 0.27470921D+05 0.27470921D+05 0.27470921D+05 0.12189333D+01  1  2  6  2  6  2        1 0.142767693686D+00 0.100000000000D+01
-.218165051110D-04 0.000000000000D+00 -.776554145337D-05 0.604488987436D-05 0.000000000000D+00  6 -2 21 25 -24 -1 21 4 0.27089748D-02 0.48076627D+00 0.27470921D+05 0.27470921D+05 0.27470921D+05 0.12189333D+01  3  4  5  5  5  2        1 -.490698133189D-03 0.100000000000D+01
  </mgrwgt>
  </event>
  <event>
  5     66 -.39191994E-03 0.40736454E+02 0.75467711E-02 0.11823843E+00
       -2 -1    0    0    0  501 0.00000000E+00 0.00000000E+00 0.35350843E+02 0.35352291E+02 0.32000000E+00 0.0000E+00 0.9000E+01
        1 -1    0    0  502    0 0.00000000E+00 0.00000000E+00 -.67774537E+03 0.67774544E+03 0.32000000E+00 0.0000E+00 0.9000E+01
       25  1    1    2    0    0 0.12035205E+02 -.31032903E+02 -.24603106E+03 0.27796433E+03 0.12500000E+03 0.0000E+00 0.9000E+01
      -24  1    1    2    0    0 -.49600880E+02 0.15280410E+02 -.10968286E+03 0.14557226E+03 0.80419002E+02 0.0000E+00 0.9000E+01
       21  1    1    2  502  501 0.37565676E+02 0.15752492E+02 -.28668061E+03 0.28956114E+03 0.75000000E+00 0.0000E+00 0.9000E+01
#aMCatNLO 1  0  0  2  1 0.60333549D+02 0.00000000D+00  -5  6  0 0.00000000D+00 0.00000000D+00 0.00000000D+00 0.00000000D+00 0.00000000D+00
  <mgrwgt>
 -.2399069985D-01    5    4    0
 0.154788285853586D+03 0.000000000000000D+00 0.000000000000000D+00 0.154788285853586D+03
 0.154788285853586D+03 0.000000000000000D+00 0.000000000000000D+00 -.154788285853586D+03
 0.129747427479479D+03 0.120343530932478D+02 -.310332596927959D+02 0.100750223825686D+02
 0.107720781317688D+03 -.496015875259749D+02 0.152801139216229D+02 0.494241985951011D+02
 0.721083629100042D+02 0.375672344327271D+02 0.157531457711730D+02 -.594992209776697D+02
 0.000000000000000D+00 0.000000000000000D+00 -.000000000000000D+00 -.000000000000000D+00
 0.161603806512974D+03 0.000000000000000D+00 0.000000000000000D+00 0.161603806512974D+03
 0.390844959198724D+03 0.000000000000000D+00 0.000000000000000D+00 -.390844959198724D+03
 0.126437432704938D+03 -.655992297298106D+01 -.147270405579324D+02 0.100750223825686D+02
 0.118978969442892D+03 -.660557907398302D+02 0.297095997665706D+02 0.494241985951011D+02
 0.699845979365058D+02 0.272539171697713D+02 0.247973920057744D+02 -.594992209776697D+02
 0.237047765627362D+03 0.453617965430399D+02 -.397799512144126D+02 -.229241152685751D+03
 0.154788285853586D+03 0.000000000000000D+00 0.000000000000000D+00 0.154788285853586D+03
 0.154788285853586D+03 0.000000000000000D+00 0.000000000000000D+00 -.154788285853586D+03
 0.129747427479479D+03 0.120343530932478D+02 -.310332596927959D+02 0.100750223825686D+02
 0.107720781317688D+03 -.496015875259749D+02 0.152801139216229D+02 0.494241985951011D+02
 0.000000000000000D+00 0.000000000000000D+00 -.000000000000000D+00 -.000000000000000D+00
 0.721083629100042D+02 0.375672344327271D+02 0.157531457711730D+02 -.594992209776697D+02
 0.161603806512974D+03 0.000000000000000D+00 0.000000000000000D+00 0.161603806512974D+03
 0.390844959198724D+03 0.000000000000000D+00 0.000000000000000D+00 -.390844959198724D+03
 0.126437432704938D+03 -.655992297298106D+01 -.147270405579324D+02 0.100750223825686D+02
 0.118978969442892D+03 -.660557907398302D+02 0.297095997665706D+02 0.494241985951011D+02
 0.237047765627362D+03 0.453617965430399D+02 -.397799512144126D+02 -.229241152685751D+03
 0.699845979365058D+02 0.272539171697713D+02 0.247973920057744D+02 -.594992209776697D+02
0.324241457633D-04 0.000000000000D+00 0.000000000000D+00 0.162523106909D-04 0.000000000000D+00  6 -2 1 25 -24 21 21 2 0.54387085D-02 0.10426864D+00 0.17663116D+05 0.17663116D+05 0.17663116D+05 0.12398115D+01  1  2  2  2  6  2        1 0.216126235507D-01 0.100000000000D+01
0.698435257995D-06 0.171106918090D-05 -.124517257205D-06 0.162523106909D-04 0.000000000000D+00  6 -2 1 25 -24 21 21 4 0.54387085D-02 0.10426864D+00 0.17663116D+05 0.17663116D+05 0.17663116D+05 0.12398115D+01  1  2  3  2  6  2        1 0.715609999054D-03 0.100000000000D+01
0.103272936977D-05 0.000000000000D+00 0.000000000000D+00 0.162523106909D-04 0.000000000000D+00  6 -2 1 25 -24 21 21 4 0.54387085D-02 0.10426864D+00 0.17663116D+05 0.17663116D+05 0.17663116D+05 0.12398115D+01  1  2 15  2  6  2        1 0.105812450741D-02 0.100000000000D+01
-.235546745363D-03 0.000000000000D+00 -.203302702020D-04 0.162523106909D-04 0.000000000000D+00  6 -2 1 25 -24 21 21 4 0.54387085D-02 0.26623650D+00 0.17663116D+05 0.17663116D+05 0.17663116D+05 0.12398115D+01  1  2  5  2  6  2        1 -.432501125728D-01 0.100000000000D+01
-.231486424054D-04 0.000000000000D+00 -.210506901940D-05 0.162523106909D-04 0.000000000000D+00  6 -2 21 25 -24 -1 21 4 0.54387085D-02 0.26623650D+00 0.17663116D+05 0.17663116D+05 0.17663116D+05 0.12398115D+01  3  4  5  5  5  2        1 -.412694533329D-02 0.100000000000D+01
  </mgrwgt>
  </event>
  <event>
  5     66 0.39191994E-03 0.70604034E+02 0.75467711E-02 0.11417023E+00
       -2 -1    0    0    0  501 0.00000000E+00 0.00000000E+00 0.38312203E+02 0.38313540E+02 0.32000000E+00 0.0000E+00 0.9000E+01
        1 -1    0    0  502    0 0.00000000E+00 0.00000000E+00 -.11861134E+04 0.11861135E+04 0.32000000E+00 0.0000E+00 0.9000E+01
       25  1    1    2    0    0 -.29723721E+02 0.13970841E+03 -.31764121E+03 0.37003092E+03 0.12500000E+03 0.0000E+00 0.9000E+01
      -24  1    1    2    0    0 0.25228934E+02 -.69248821E+02 -.29358007E+03 0.31319063E+03 0.80419002E+02 0.0000E+00 0.9000E+01
       21  1    1    2  502  501 0.44947878E+01 -.70459588E+02 -.53657995E+03 0.54120547E+03 0.75000000E+00 0.0000E+00 0.9000E+01
#aMCatNLO 1  0  0  1  1 0.45756337D+02 0.00000000D+00  -5  6  0 0.00000000D+00 0.00000000D+00 0.00000000D+00 0.00000000D+00 0.00000000D+00
  <mgrwgt>
 0.5506623271D-01    3    2    0
 0.213174725338158D+03 0.000000000000000D+00 0.000000000000000D+00 0.213174725338158D+03
 0.213174725338158D+03 0.000000000000000D+00 0.000000000000000D+00 -.213174725338158D+03
 0.207546353349135D+03 -.297237725358298D+02 0.139709209855502D+03 0.839542900411488D+02
 0.109082791916962D+03 0.252289067059167D+02 -.692483993398584D+02 0.315169857610087D-01
 0.109720305410219D+03 0.449486582991309D+01 -.704608105156436D+02 -.839858070269098D+02
 0.000000000000000D+00 0.000000000000000D+00 0.000000000000000D+00 -.000000000000000D+00
 0.216785228295069D+03 0.000000000000000D+00 0.000000000000000D+00 0.216785228295069D+03
 0.433733031492353D+03 0.000000000000000D+00 0.000000000000000D+00 -.433733031492353D+03
 0.202117401384664D+03 -.470908505537437D+02 0.126335161060969D+03 0.839542900411488D+02
 0.112098372268672D+03 0.158522643007300D+02 -.764691691738226D+02 0.315169857610087D-01
 0.114581960079020D+03 -.501409096534387D+01 -.777834730863822D+02 -.839858070269098D+02
 0.221720526055066D+03 0.362526772183575D+02 0.279174811992360D+02 -.216947803197284D+03
0.229683349018D-03 0.000000000000D+00 0.000000000000D+00 0.421710252895D-05 0.000000000000D+00  6 -2 1 25 -24 21 21 2 0.58942912D-02 0.18247910D+00 0.34131649D+05 0.34131649D+05 0.34131649D+05 0.12090608D+01  1  2  2  1  6  1       -2 0.525700459955D-01 0.100000000000D+01
-.325520526502D-05 0.121207233257D-04 -.882044537242D-06 0.421710252895D-05 0.000000000000D+00  6 -2 1 25 -24 21 21 4 0.58942912D-02 0.18247910D+00 0.34131649D+05 0.34131649D+05 0.34131649D+05 0.12090608D+01  1  2  3  1  6  1       -2 -.108913955891D-02 0.100000000000D+01
0.107157736171D-04 0.000000000000D+00 0.000000000000D+00 0.421710252895D-05 0.000000000000D+00  6 -2 1 25 -24 21 21 4 0.58942912D-02 0.18247910D+00 0.34131649D+05 0.34131649D+05 0.34131649D+05 0.12090608D+01  1  2 15  1  6  1       -2 0.358532626995D-02 0.100000000000D+01
  </mgrwgt>
  </event>
  <event>
  5     66 0.39191994E-03 0.27395609E+02 0.75467711E-02 0.10157090E+00
       -4 -1    0    0    0  501 0.00000000E+00 0.00000000E+00 0.43482620E+02 0.43510237E+02 0.15500000E+01 0.0000E+00 0.9000E+01
        3 -1    0    0  502    0 0.00000000E+00 0.00000000E+00 -.92338245E+03 0.92338258E+03 0.50000000E+00 0.0000E+00 0.9000E+01
       25  1    1    2    0    0 0.41440436E+02 0.11121958E+03 -.51202986E+03 0.54026538E+03 0.12500000E+03 0.0000E+00 0.9000E+01
      -24  1    1    2    0    0 -.52686553E+02 -.86240848E+02 -.11701088E+03 0.17427599E+03 0.80419002E+02 0.0000E+00 0.9000E+01
       21  1    1    2  502  501 0.11246117E+02 -.24978733E+02 -.25085909E+03 0.25235145E+03 0.75000000E+00 0.0000E+00 0.9000E+01
#aMCatNLO 1  0  0  1  1 0.44885053D+03 0.00000000D+00  -5  6  0 0.00000000D+00 0.00000000D+00 0.00000000D+00 0.00000000D+00 0.00000000D+00
  <mgrwgt>
 0.1993183552D-01    3    2    0
 0.200410839886899D+03 0.000000000000000D+00 0.000000000000000D+00 0.200410839886899D+03
 0.200410839886899D+03 0.000000000000000D+00 0.000000000000000D+00 -.200410839886899D+03
 0.179241092989673D+03 0.414400164637741D+02 0.111220513786496D+03 -.491435831485926D+02
 0.163535672252115D+03 -.526869361093502D+02 -.862399974736060D+02 0.100316747075163D+03
 0.580449145320092D+02 0.112469196455761D+02 -.249805163128899D+02 -.511731639265704D+02
 0.000000000000000D+00 0.000000000000000D+00 -.000000000000000D+00 -.000000000000000D+00
 0.435554854414031D+03 0.000000000000000D+00 0.000000000000000D+00 0.435554854414031D+03
 0.674882670962442D+03 0.000000000000000D+00 0.000000000000000D+00 -.674882670962442D+03
 0.359112583282927D+03 -.677454115446656D+02 0.326086361140877D+03 -.491435831485926D+02
 0.186154848106802D+03 -.123608916990463D+03 0.533272670966595D+02 0.100316747075163D+03
 0.565006475996698D+02 -.119844740999025D+02 0.207365101566101D+02 -.511731639265704D+02
 0.508669446387075D+03 0.203338802635031D+03 -.400150138394147D+03 -.239327816548411D+03
0.916033152897D-03 0.000000000000D+00 0.000000000000D+00 0.207518665652D-04 0.000000000000D+00  6 -4 3 25 -24 21 21 2 0.66917687D-02 0.14206097D+00 0.27047254D+05 0.27047254D+05 0.27047254D+05 0.12196497D+01  1  2  2  1  6  1       -4 0.162811419919D-01 0.100000000000D+01
0.117689481871D-03 0.483403975558D-04 -.351780850419D-05 0.207518665652D-04 0.000000000000D+00  6 -4 3 25 -24 21 21 4 0.66917687D-02 0.14206097D+00 0.27047254D+05 0.27047254D+05 0.27047254D+05 0.12196497D+01  1  2  3  1  6  1       -4 0.311158396951D-02 0.100000000000D+01
0.203907481746D-04 0.000000000000D+00 0.000000000000D+00 0.207518665652D-04 0.000000000000D+00  6 -4 3 25 -24 21 21 4 0.66917687D-02 0.14206097D+00 0.27047254D+05 0.27047254D+05 0.27047254D+05 0.12196497D+01  1  2 15  1  6  1       -4 0.539109563047D-03 0.100000000000D+01
  </mgrwgt>
  </event>
</LesHouchesEvents>
