<event>
 5    0  0.1283376E+001  0.2595882E+03  0.7546771E-02  0.1107391E+00
         21   -1    0    0  503  501  0.00000000000E+00  0.00000000000E+00  0.71187853451E+03  0.71187853451E+03  0.00000000000E+00 0.  1.
         21   -1    0    0  504  502 -0.00000000000E+00 -0.00000000000E+00 -0.14765596923E+03  0.14765596923E+03  0.00000000000E+00 0.  1.
         25    1    1    2    0    0 -0.40735643141E+02  0.25218445203E+03  0.26838999646E+03  0.39104293967E+03  0.12500000000E+03 0.  0.
         21    1    1    2  503  502 -0.87906377195E+02 -0.20447399466E+03  0.21386703547E+03  0.30866851881E+03  0.00000000000E+00 0.  1.
         21    1    1    2  504  501  0.12864202034E+03 -0.47710457373E+02  0.81965533359E+02  0.15982304526E+03  0.00000000000E+00 0.  1.
<mgrwt>
<rscale>  4 0.25958823E+03</rscale>
<asrwt>0</asrwt>
<pdfrwt beam="1">  1       21 0.10951977E+00 0.25958823E+03</pdfrwt>
<pdfrwt beam="2">  1       21 0.22716303E-01 0.25958823E+03</pdfrwt>
<totfact> 0.11508387E+04</totfact>
</mgrwt>
</event>
<event>
 5    0  0.1283376E+001  0.2735129E+03  0.7546771E-02  0.1099286E+00
         21   -1    0    0  504  501  0.00000000000E+00  0.00000000000E+00  0.13407224113E+04  0.13407224113E+04  0.00000000000E+00 0.  1.
         21   -1    0    0  503  502 -0.00000000000E+00 -0.00000000000E+00 -0.86567281820E+02  0.86567281820E+02  0.00000000000E+00 0.  1.
         25    1    1    2    0    0 -0.13279909629E+03  0.18552776507E+03  0.67372584545E+03  0.72221026469E+03  0.12500000000E+03 0.  0.
         21    1    1    2  503  501  0.15573976926E+03 -0.20804164167E+03  0.60896437122E+03  0.66209803338E+03  0.00000000000E+00 0.  1.
         21    1    1    2  504  502 -0.22940672973E+02  0.22513876605E+02 -0.28535087213E+02  0.42981395027E+02  0.00000000000E+00 0.  1.
<mgrwt>
<rscale>  4 0.27351290E+03</rscale>
<asrwt>0</asrwt>
<pdfrwt beam="1">  1       21 0.20626497E+00 0.27351290E+03</pdfrwt>
<pdfrwt beam="2">  1       21 0.13318044E-01 0.27351290E+03</pdfrwt>
<totfact> 0.55929724E+03</totfact>
</mgrwt>
</event>
<event>
 5    0  0.1283376E+001  0.2937451E+03  0.7546771E-02  0.1088410E+00
         21   -1    0    0  504  501  0.00000000000E+00  0.00000000000E+00  0.19197799816E+03  0.19197799816E+03  0.00000000000E+00 0.  1.
         21   -1    0    0  501  502 -0.00000000000E+00 -0.00000000000E+00 -0.54557134683E+03  0.54557134683E+03  0.00000000000E+00 0.  1.
         25    1    1    2    0    0  0.90099178963E+02  0.25054547900E+03 -0.54436392566E+02  0.29913077396E+03  0.12500000000E+03 0.  0.
         21    1    1    2  503  502 -0.13802886422E+03 -0.23008103678E+03 -0.25382542806E+03  0.36934617742E+03  0.00000000000E+00 0.  1.
         21    1    1    2  504  503  0.47929685258E+02 -0.20464442221E+02 -0.45331528042E+02  0.69072393610E+02  0.00000000000E+00 0. -1.
<mgrwt>
<rscale>  4 0.29374515E+03</rscale>
<asrwt>0</asrwt>
<pdfrwt beam="1">  1       21 0.29535077E-01 0.29374515E+03</pdfrwt>
<pdfrwt beam="2">  1       21 0.83934054E-01 0.29374515E+03</pdfrwt>
<totfact> 0.12814534E+04</totfact>
</mgrwt>
</event>
<event>
 5    0  0.1283376E+001  0.3469337E+03  0.7546771E-02  0.1063881E+00
         21   -1    0    0  504  501  0.00000000000E+00  0.00000000000E+00  0.17608644314E+04  0.17608644314E+04  0.00000000000E+00 0.  1.
         21   -1    0    0  501  502 -0.00000000000E+00 -0.00000000000E+00 -0.12331440045E+03  0.12331440045E+03  0.00000000000E+00 0.  1.
         25    1    1    2    0    0 -0.24323395301E+03  0.21063990416E+03  0.12808135966E+04  0.13265143777E+04  0.12500000000E+03 0.  0.
         21    1    1    2  503  502  0.10467862911E+02  0.22039855617E+02 -0.37105427936E+02  0.44408829886E+02  0.00000000000E+00 0.  1.
         21    1    1    2  504  503  0.23276609010E+03 -0.23267975978E+03  0.39384186229E+03  0.51325562423E+03  0.00000000000E+00 0.  1.
<mgrwt>
<rscale>  4 0.34693369E+03</rscale>
<asrwt>0</asrwt>
<pdfrwt beam="1">  1       21 0.27090220E+00 0.34693369E+03</pdfrwt>
<pdfrwt beam="2">  1       21 0.18971447E-01 0.34693369E+03</pdfrwt>
<totfact> 0.11093771E+03</totfact>
</mgrwt>
</event>
<event>
 5    0  0.1283376E+001  0.3840910E+03  0.7546771E-02  0.1049432E+00
         21   -1    0    0  503  501  0.00000000000E+00  0.00000000000E+00  0.96278434919E+03  0.96278434919E+03  0.00000000000E+00 0. -1.
         21   -1    0    0  504  502 -0.00000000000E+00 -0.00000000000E+00 -0.92784417710E+03  0.92784417710E+03  0.00000000000E+00 0. -1.
         25    1    1    2    0    0  0.20474267804E+03 -0.22253389521E+03 -0.22856675544E+03  0.39913489001E+03  0.12500000000E+03 0.  0.
         21    1    1    2  503  502 -0.24985897255E+03  0.27395782024E+03  0.83620476128E+03  0.91472443732E+03  0.00000000000E+00 0. -1.
         21    1    1    2  504  501  0.45116294505E+02 -0.51423925037E+02 -0.57269783375E+03  0.57676919897E+03  0.00000000000E+00 0. -1.
<mgrwt>
<rscale>  4 0.38409100E+03</rscale>
<asrwt>0</asrwt>
<pdfrwt beam="1">  1       21 0.14812067E+00 0.38409100E+03</pdfrwt>
<pdfrwt beam="2">  1       21 0.14274526E+00 0.38409100E+03</pdfrwt>
<totfact> 0.87393824E+01</totfact>
</mgrwt>
</event>
<event>
 5    0  0.1283376E+001  0.2748331E+03  0.7546771E-02  0.1098545E+00
         21   -1    0    0  503  501  0.00000000000E+00  0.00000000000E+00  0.28857691597E+03  0.28857691597E+03  0.00000000000E+00 0.  1.
         21   -1    0    0  504  502 -0.00000000000E+00 -0.00000000000E+00 -0.27746672707E+03  0.27746672707E+03  0.00000000000E+00 0.  1.
         25    1    1    2    0    0 -0.14660707309E+03 -0.19478347005E+03 -0.45662494546E+02  0.27774862284E+03  0.12500000000E+03 0.  0.
         21    1    1    2  503  502  0.20467596343E+02 -0.16190626822E+02 -0.17606469634E+02  0.31480893728E+02  0.00000000000E+00 0. -1.
         21    1    1    2  504  501  0.12613947675E+03  0.21097409687E+03  0.74379153075E+02  0.25681412647E+03  0.00000000000E+00 0.  1.
<mgrwt>
<rscale>  4 0.27483310E+03</rscale>
<asrwt>0</asrwt>
<pdfrwt beam="1">  1       21 0.44396449E-01 0.27483310E+03</pdfrwt>
<pdfrwt beam="2">  1       21 0.42687189E-01 0.27483310E+03</pdfrwt>
<totfact> 0.24691530E+04</totfact>
</mgrwt>
</event>
<event>
 5    0  0.1283376E+001  0.2915915E+03  0.7546771E-02  0.1089521E+00
         21   -1    0    0  503  501  0.00000000000E+00  0.00000000000E+00  0.11843961480E+03  0.11843961480E+03  0.00000000000E+00 0.  1.
         21   -1    0    0  504  502 -0.00000000000E+00 -0.00000000000E+00 -0.12467877534E+04  0.12467877534E+04  0.00000000000E+00 0.  1.
         25    1    1    2    0    0  0.11683587657E+03  0.20402561889E+03 -0.33127311227E+03  0.42502229369E+03  0.12500000000E+03 0.  0.
         21    1    1    2  503  502  0.28523861768E+01 -0.32138060446E+03 -0.43155760132E+03  0.53808511621E+03  0.00000000000E+00 0.  1.
         21    1    1    2  504  501 -0.11968826275E+03  0.11735498557E+03 -0.36551742497E+03  0.40211995827E+03  0.00000000000E+00 0.  1.
<mgrwt>
<rscale>  4 0.29159149E+03</rscale>
<asrwt>0</asrwt>
<pdfrwt beam="1">  1       21 0.18221480E-01 0.29159149E+03</pdfrwt>
<pdfrwt beam="2">  1       21 0.19181350E+00 0.29159149E+03</pdfrwt>
<totfact> 0.38587251E+03</totfact>
</mgrwt>
</event>
<event>
 5    0  0.1283376E+001  0.3165578E+03  0.7546771E-02  0.1077245E+00
         21   -1    0    0  503  501  0.00000000000E+00  0.00000000000E+00  0.11952041464E+03  0.11952041464E+03  0.00000000000E+00 0. -1.
         21   -1    0    0  504  502 -0.00000000000E+00 -0.00000000000E+00 -0.24382129699E+04  0.24382129699E+04  0.00000000000E+00 0. -1.
         25    1    1    2    0    0  0.28323443706E+03 -0.45528169697E+02 -0.12918886771E+03  0.33853998894E+03  0.12500000000E+03 0.  0.
         21    1    1    2  503  502  0.34707774235E+02 -0.13159079665E+02 -0.29079301812E+03  0.29315246947E+03  0.00000000000E+00 0. -1.
         21    1    1    2  504  501 -0.31794221129E+03  0.58687249363E+02 -0.18987106695E+04  0.19260409262E+04  0.00000000000E+00 0. -1.
<mgrwt>
<rscale>  4 0.31655777E+03</rscale>
<asrwt>0</asrwt>
<pdfrwt beam="1">  1       21 0.18387758E-01 0.31655777E+03</pdfrwt>
<pdfrwt beam="2">  1       21 0.37510965E+00 0.31655777E+03</pdfrwt>
<totfact> 0.28599052E+02</totfact>
</mgrwt>
</event>
<event>
 5    0  0.1283376E+001  0.3552810E+03  0.7546771E-02  0.1060468E+00
         21   -1    0    0  504  501  0.00000000000E+00  0.00000000000E+00  0.13283011255E+04  0.13283011255E+04  0.00000000000E+00 0.  1.
         21   -1    0    0  501  502 -0.00000000000E+00 -0.00000000000E+00 -0.21451200031E+03  0.21451200031E+03  0.00000000000E+00 0.  1.
         25    1    1    2    0    0  0.25998892578E+03  0.25349604857E+03  0.67753249887E+03  0.77880021520E+03  0.12500000000E+03 0.  0.
         21    1    1    2  503  502  0.72709798989E+02 -0.21003427037E+03  0.11280051666E+02  0.22254965551E+03  0.00000000000E+00 0.  1.
         21    1    1    2  504  503 -0.33269872477E+03 -0.43461778199E+02  0.42497657464E+03  0.54146325509E+03  0.00000000000E+00 0.  1.
<mgrwt>
<rscale>  4 0.35528105E+03</rscale>
<asrwt>0</asrwt>
<pdfrwt beam="1">  1       21 0.20435401E+00 0.35528105E+03</pdfrwt>
<pdfrwt beam="2">  1       21 0.33001847E-01 0.35528105E+03</pdfrwt>
<totfact> 0.97404800E+02</totfact>
</mgrwt>
</event>
<event>
 5    0  0.1283376E+001  0.2495357E+03  0.7546771E-02  0.1113599E+00
         21   -1    0    0  503  501  0.00000000000E+00  0.00000000000E+00  0.78161637675E+03  0.78161637675E+03  0.00000000000E+00 0. -1.
         21   -1    0    0  504  502 -0.00000000000E+00 -0.00000000000E+00 -0.11765805187E+03  0.11765805187E+03  0.00000000000E+00 0. -1.
         25    1    1    2    0    0 -0.12204611016E+03  0.17298797165E+03  0.56752215252E+03  0.61848725528E+03  0.12500000000E+03 0.  0.
         21    1    1    2  503  502 -0.25104208621E+02  0.20473531489E+01 -0.11775548913E+02  0.27804253229E+02  0.00000000000E+00 0. -1.
         21    1    1    2  504  501  0.14715031878E+03 -0.17503532480E+03  0.10821172128E+03  0.25298292011E+03  0.00000000000E+00 0. -1.
<mgrwt>
<rscale>  4 0.24953568E+03</rscale>
<asrwt>0</asrwt>
<pdfrwt beam="1">  1       21 0.12024867E+00 0.24953568E+03</pdfrwt>
<pdfrwt beam="2">  1       21 0.18101239E-01 0.24953568E+03</pdfrwt>
<totfact> 0.14095317E+04</totfact>
</mgrwt>
</event>
<event>
 5    0  0.1283376E+001  0.2229664E+03  0.7546771E-02  0.1131691E+00
         21   -1    0    0  503  501  0.00000000000E+00  0.00000000000E+00  0.15937807344E+04  0.15937807344E+04  0.00000000000E+00 0.  1.
         21   -1    0    0  504  502 -0.00000000000E+00 -0.00000000000E+00 -0.24142182451E+03  0.24142182451E+03  0.00000000000E+00 0. -1.
         25    1    1    2    0    0  0.20471787113E+03 -0.73114386136E+02  0.12141127115E+04  0.12397377934E+04  0.12500000000E+03 0.  0.
         21    1    1    2  503  502 -0.12449999430E+03  0.80195173704E+02  0.34399457998E+03  0.37451807102E+03  0.00000000000E+00 0. -1.
         21    1    1    2  504  501 -0.80217876834E+02 -0.70807875681E+01 -0.20574838154E+03  0.22094669452E+03  0.00000000000E+00 0. -1.
<mgrwt>
<rscale>  4 0.22296639E+03</rscale>
<asrwt>0</asrwt>
<pdfrwt beam="1">  1       21 0.24519703E+00 0.22296639E+03</pdfrwt>
<pdfrwt beam="2">  1       21 0.37141820E-01 0.22296639E+03</pdfrwt>
<totfact> 0.47789270E+02</totfact>
</mgrwt>
</event>
<event>
 5    0  0.1283376E+001  0.2936663E+03  0.7546771E-02  0.1088450E+00
         21   -1    0    0  503  501  0.00000000000E+00  0.00000000000E+00  0.28832539581E+03  0.28832539581E+03  0.00000000000E+00 0.  1.
         21   -1    0    0  504  502 -0.00000000000E+00 -0.00000000000E+00 -0.50302061657E+03  0.50302061657E+03  0.00000000000E+00 0.  1.
         25    1    1    2    0    0 -0.27794136364E+03  0.25158560909E+02 -0.79304655460E+02  0.31590913755E+03  0.12500000000E+03 0.  0.
         21    1    1    2  503  502  0.25670794173E+03 -0.35423488341E+02  0.70213848872E+02  0.26848421824E+03  0.00000000000E+00 0.  1.
         21    1    1    2  504  501  0.21233421916E+02  0.10264927432E+02 -0.20560441417E+03  0.20695265658E+03  0.00000000000E+00 0.  1.
<mgrwt>
<rscale>  4 0.29366631E+03</rscale>
<asrwt>0</asrwt>
<pdfrwt beam="1">  1       21 0.44357754E-01 0.29366631E+03</pdfrwt>
<pdfrwt beam="2">  1       21 0.77387786E-01 0.29366631E+03</pdfrwt>
<totfact> 0.68004907E+03</totfact>
</mgrwt>
</event>
<event>
 5    0  0.1283376E+001  0.2298924E+03  0.7546771E-02  0.1126715E+00
         21   -1    0    0  504  501  0.00000000000E+00  0.00000000000E+00  0.98933403535E+03  0.98933403535E+03  0.00000000000E+00 0. -1.
         21   -1    0    0  501  502 -0.00000000000E+00 -0.00000000000E+00 -0.63159953539E+02  0.63159953539E+02  0.00000000000E+00 0.  1.
         25    1    1    2    0    0  0.10644959250E+03 -0.17927375512E+03  0.38034495110E+03  0.45139547721E+03  0.12500000000E+03 0.  0.
         21    1    1    2  503  502 -0.27206168234E+01  0.24570924635E+02  0.37986025668E+00  0.24724004270E+02  0.00000000000E+00 0.  1.
         21    1    1    2  504  503 -0.10372897567E+03  0.15470283048E+03  0.54544927045E+03  0.57637450741E+03  0.00000000000E+00 0. -1.
<mgrwt>
<rscale>  4 0.22989245E+03</rscale>
<asrwt>0</asrwt>
<pdfrwt beam="1">  1       21 0.15220522E+00 0.22989245E+03</pdfrwt>
<pdfrwt beam="2">  1       21 0.97169167E-02 0.22989245E+03</pdfrwt>
<totfact> 0.23988294E+04</totfact>
</mgrwt>
</event>
<event>
 5    0  0.1283376E+001  0.2630803E+03  0.7546771E-02  0.1105307E+00
         21   -1    0    0  503  501  0.00000000000E+00  0.00000000000E+00  0.22400661861E+03  0.22400661861E+03  0.00000000000E+00 0.  1.
         21   -1    0    0  504  502 -0.00000000000E+00 -0.00000000000E+00 -0.50542302668E+03  0.50542302668E+03  0.00000000000E+00 0.  1.
         25    1    1    2    0    0  0.73297984541E+02  0.21157499379E+03  0.57715305516E+02  0.26285476793E+03  0.12500000000E+03 0.  0.
         21    1    1    2  503  502 -0.32850769484E+02 -0.25584641447E+03 -0.25051241855E+03  0.35957340377E+03  0.00000000000E+00 0.  1.
         21    1    1    2  504  501 -0.40447215057E+02  0.44271420685E+02 -0.88619295041E+02  0.10700147358E+03  0.00000000000E+00 0. -1.
<mgrwt>
<rscale>  4 0.26308025E+03</rscale>
<asrwt>0</asrwt>
<pdfrwt beam="1">  1       21 0.34462557E-01 0.26308025E+03</pdfrwt>
<pdfrwt beam="2">  1       21 0.77757389E-01 0.26308025E+03</pdfrwt>
<totfact> 0.11410397E+04</totfact>
</mgrwt>
</event>
<event>
 5    0  0.1283376E+001  0.3014080E+03  0.7546771E-02  0.1084539E+00
         21   -1    0    0  504  501  0.00000000000E+00  0.00000000000E+00  0.17672839825E+04  0.17672839825E+04  0.00000000000E+00 0.  1.
         21   -1    0    0  503  502 -0.00000000000E+00 -0.00000000000E+00 -0.83777602659E+02  0.83777602659E+02  0.00000000000E+00 0. -1.
         25    1    1    2    0    0  0.26330049843E+03 -0.23908696907E+02  0.12803390379E+04  0.13133133023E+04  0.12500000000E+03 0.  0.
         21    1    1    2  503  501 -0.30695386949E+03  0.39522980579E+02  0.35090590258E+03  0.46788641405E+03  0.00000000000E+00 0. -1.
         21    1    1    2  504  502  0.43653371061E+02 -0.15614283673E+02  0.52261439445E+02  0.69861868802E+02  0.00000000000E+00 0.  1.
<mgrwt>
<rscale>  4 0.30140805E+03</rscale>
<asrwt>0</asrwt>
<pdfrwt beam="1">  1       21 0.27188982E+00 0.30140805E+03</pdfrwt>
<pdfrwt beam="2">  1       21 0.12888863E-01 0.30140805E+03</pdfrwt>
<totfact> 0.23109009E+03</totfact>
</mgrwt>
</event>
<event>
 5    0  0.1283376E+001  0.2458296E+03  0.7546771E-02  0.1115969E+00
         21   -1    0    0  503  501  0.00000000000E+00  0.00000000000E+00  0.10555262992E+03  0.10555262992E+03  0.00000000000E+00 0.  1.
         21   -1    0    0  504  502 -0.00000000000E+00 -0.00000000000E+00 -0.22490101423E+04  0.22490101423E+04  0.00000000000E+00 0.  1.
         25    1    1    2    0    0 -0.21172780895E+03  0.50657737755E+02 -0.71787660935E+02  0.26110024845E+03  0.12500000000E+03 0.  0.
         21    1    1    2  503  502  0.82034396095E+02  0.29079417954E+02 -0.23681890792E+03  0.25230626199E+03  0.00000000000E+00 0.  1.
         21    1    1    2  504  501  0.12969341286E+03 -0.79737155709E+02 -0.18348509435E+04  0.18411562618E+04  0.00000000000E+00 0.  1.
<mgrwt>
<rscale>  4 0.24582962E+03</rscale>
<asrwt>0</asrwt>
<pdfrwt beam="1">  1       21 0.16238866E-01 0.24582962E+03</pdfrwt>
<pdfrwt beam="2">  1       21 0.34600156E+00 0.24582962E+03</pdfrwt>
<totfact> 0.58330573E+02</totfact>
</mgrwt>
</event>
