<LesHouchesEvents version="3.0">
  <!--
  <scalesfunctionalform>
    muR  H_T/2 := sum_i mT(i)/2, i=final state
    muF1 H_T/2 := sum_i mT(i)/2, i=final state
    muF2 H_T/2 := sum_i mT(i)/2, i=final state
    QES  H_T/2 := sum_i mT(i)/2, i=final state
  </scalesfunctionalform>
HERWIG6   
  -->
  <header>
       47
  </header>
  <init>
   2212   2212 0.65000000D+04 0.65000000D+04 -1 -1   244800   244800 -4   1
 0.40462207D-04 0.15387878D-05 0.18046435D-05     66
  </init>
  <event>
  5     66 0.18046435E-05 0.83054395E+02 0.75467711E-02 0.94926461E-01
        2 -1    0    0  501    0 0.00000000E+00 0.00000000E+00 0.38978219E+04 0.38978219E+04 0.32000000E+00 0.0000E+00 0.9000E+01
        4 -1    0    0  502    0 0.00000000E+00 0.00000000E+00 -.27396982E+03 0.27397420E+03 0.15500000E+01 0.0000E+00 0.9000E+01
       25  1    1    2    0    0 -.27382189E+03 -.39271086E+03 0.11157903E+04 0.12205791E+04 0.12500000E+03 0.0000E+00 0.9000E+01
        2  1    1    2  501    0 0.41969036E+02 0.71676916E+02 0.25514855E+04 0.25528371E+04 0.32000000E+00 0.0000E+00 0.9000E+01
        4  1    1    2  502    0 0.23185286E+03 0.32103394E+03 -.43423733E+02 0.39837992E+03 0.15500000E+01 0.0000E+00 0.9000E+01
#aMCatNLO 1  0  0  2  5 0.28598829D+02 0.00000000D+00  -5  6  0 0.00000000D+00 0.00000000D+00 0.00000000D+00 0.00000000D+00 0.00000000D+00
  <mgrwgt>
 0.2482943132D-02    5    2    0
 0.103338991488356D+04 0.000000000000000D+00 0.000000000000000D+00 0.103338991488356D+04
 0.103338991488356D+04 0.000000000000000D+00 0.000000000000000D+00 -.103338991488356D+04
 0.507366891378382D+03 -.273835833007957D+03 -.392729487499223D+03 0.112132282044012D+03
 0.679130555487701D+03 0.419661529100962D+02 0.716719927425799D+02 0.674032847021024D+03
 0.880282382901045D+03 0.231869680097861D+03 0.321057494756643D+03 -.786165129065036D+03
 0.000000000000000D+00 -.000000000000000D+00 -.000000000000000D+00 -.000000000000000D+00
 0.130803709745063D+04 0.000000000000000D+00 0.000000000000000D+00 0.130803709745063D+04
 0.189065697401802D+04 0.000000000000000D+00 0.000000000000000D+00 -.189065697401802D+04
 0.382409818418701D+03 -.256436863279145D+03 -.228645480379951D+03 0.112132282044012D+03
 0.756579301029491D+03 0.700404686995003D+02 0.336431705740350D+03 0.674032847021024D+03
 0.107500452773207D+04 0.270103966739290D+03 0.681632578181461D+03 -.786165129065036D+03
 0.984700424288385D+03 -.837075721596451D+02 -.789418803541859D+03 -.582619876567393D+03
0.205115234374D-01 0.000000000000D+00 0.000000000000D+00 0.188024764672D-04 0.000000000000D+00  6 2 4 25 2 4 21 0 0.59966524D+00 0.42149541D-01 0.23712382D+06 0.23712382D+06 0.23712382D+06 0.10921910D+01  1  2  2  2  6  2        4 0.314905425553D-02 0.100000000000D+01
0.526828793869D-02 0.000000000000D+00 -.787696508078D-04 0.188024764672D-04 0.000000000000D+00  6 2 4 25 2 4 21 2 0.59966524D+00 0.42149541D-01 0.23712382D+06 0.23712382D+06 0.23712382D+06 0.10921910D+01  1  2  3  2  6  2        4 0.964825744498D-03 0.100000000000D+01
-.122334072025D-01 0.000000000000D+00 0.000000000000D+00 0.188024764672D-04 0.000000000000D+00  6 2 4 25 2 4 21 2 0.59966524D+00 0.42149541D-01 0.23712382D+06 0.23712382D+06 0.23712382D+06 0.10921910D+01  1  2 15  2  6  2        4 -.224040643740D-02 0.100000000000D+01
0.109287010465D-01 0.000000000000D+00 -.102840636768D-01 0.188024764672D-04 0.000000000000D+00  6 2 4 25 2 4 21 2 0.59966524D+00 0.12775498D+00 0.23712382D+06 0.23712382D+06 0.23712382D+06 0.10921910D+01  1  2  5  2  6  2        4 0.119708336839D-03 0.100000000000D+01
0.188555060176D-02 0.000000000000D+00 -.130006450129D-02 0.188024764672D-04 0.000000000000D+00  6 2 21 25 2 4 -4 2 0.59966524D+00 0.12775498D+00 0.23712382D+06 0.23712382D+06 0.23712382D+06 0.10921910D+01  1  2  5  6  6  2        4 0.489761232947D-03 0.100000000000D+01
  </mgrwgt>
  </event>
  <event>
  6     66 -.18046435E-05 0.17998797E+02 0.75467711E-02 0.94254799E-01
        2 -1    0    0  501    0 0.00000000E+00 0.00000000E+00 0.11633491E+04 0.11633491E+04 0.32000000E+00 0.0000E+00 0.9000E+01
        4 -1    0    0  502    0 0.00000000E+00 0.00000000E+00 -.28402315E+03 0.28402738E+03 0.15500000E+01 0.0000E+00 0.9000E+01
       25  1    1    2    0    0 -.73643957E+02 0.47833312E+03 0.21114263E+03 0.54261609E+03 0.12500000E+03 0.0000E+00 0.9000E+01
        2  1    1    2  503    0 -.28379821E+02 0.92943251E+01 0.23122721E+03 0.23314786E+03 0.32000000E+00 0.0000E+00 0.9000E+01
        4  1    1    2  502    0 0.84571166E+02 -.47169369E+03 0.38565682E+03 0.61512665E+03 0.15500000E+01 0.0000E+00 0.9000E+01
       21  1    1    2  501  503 0.17452612E+02 -.15933762E+02 0.51299249E+02 0.56485874E+02 0.75000000E+00 0.0000E+00 0.9000E+01
#aMCatNLO 2  0  0  4  2 0.71233234D+03 0.00000000D+00  -5  6  0 0.00000000D+00 0.00000000D+00 0.00000000D+00 0.00000000D+00 0.00000000D+00
  <mgrwgt>
 -.2784812781D-03    2    2    0
 0.574822712722574D+03 0.000000000000000D+00 0.000000000000000D+00 0.574822712722574D+03
 0.574822712722574D+03 -.000000000000000D+00 -.000000000000000D+00 -.574822712722574D+03
 0.523978887395631D+03 -.732304819062536D+02 0.479059112611700D+03 -.155140380236198D+03
 0.146098564605874D+03 -.118456675531248D+02 -.719749718805202D+01 0.145439563992558D+03
 0.479567973443642D+03 0.850761494593785D+02 -.471861615423648D+03 0.970081624363991D+01
 0.000000000000000D+00 0.000000000000000D+00 0.000000000000000D+00 0.000000000000000D+00
 0.574822712722574D+03 0.000000000000000D+00 0.000000000000000D+00 0.574822712722574D+03
 0.574822712722574D+03 -.000000000000000D+00 -.000000000000000D+00 -.574822712722574D+03
 0.521943378282379D+03 -.737413265535297D+02 0.478748720403256D+03 -.148868296165414D+03
 0.115881509821692D+03 -.283159803222086D+02 0.933518429120684D+01 0.111980283582407D+03
 0.479916094280341D+03 0.846075225678516D+02 -.472146355875706D+03 0.154545562057986D+02
 0.319044430607356D+02 0.174497843078868D+02 -.159375488187570D+02 0.214334563772082D+02
-.100586300137D-03 0.000000000000D+00 0.000000000000D+00 0.192026747826D-06 0.000000000000D+00  6 2 4 25 2 4 21 2 0.17897711D+00 0.43696197D-01 0.24691747D+06 0.24691747D+06 0.24691747D+06 0.10908647D+01  1  2  8  3  6  4        2 -.800914894424D-03 0.100000000000D+01
0.659956711409D-04 0.000000000000D+00 0.000000000000D+00 0.192026747826D-06 0.371447970643D-09  6 2 4 25 2 4 21 2 0.17897711D+00 0.43696197D-01 0.26696750D+06 0.26696750D+06 0.26696750D+06 0.10883201D+01  1  2  1  3  6  4        2 0.522433616309D-03 0.100000000000D+01
  </mgrwgt>
  </event>
  <event>
  6     66 0.18046435E-05 0.56304512E+02 0.75467711E-02 0.92302982E-01
       21 -1    0    0  501  503 0.00000000E+00 0.00000000E+00 0.16762418E+04 0.16762420E+04 0.75000000E+00 0.0000E+00 0.9000E+01
        2 -1    0    0  502    0 0.00000000E+00 0.00000000E+00 -.10852903E+04 0.10852904E+04 0.32000000E+00 0.0000E+00 0.9000E+01
       25  1    1    2    0    0 -.55328182E+03 0.11907288E+03 -.14555932E+03 0.59758818E+03 0.12500000E+03 0.0000E+00 0.9000E+01
        4  1    1    2  501    0 0.53631454E+03 -.17901471E+03 0.69799533E+03 0.89826468E+03 0.15500000E+01 0.0000E+00 0.9000E+01
        2  1    1    2  502    0 -.21259514E+02 0.46789257E+01 -.61165586E+03 0.61204318E+03 0.32000000E+00 0.0000E+00 0.9000E+01
       -4  1    1    2    0  503 0.38226786E+02 0.55262904E+02 0.65017133E+03 0.65363632E+03 0.15500000E+01 0.0000E+00 0.9000E+01
#aMCatNLO 2  0  0  1  2 0.67195801D+02 0.00000000D+00  -5  6  0 0.00000000D+00 0.00000000D+00 0.00000000D+00 0.00000000D+00 0.00000000D+00
  <mgrwgt>
 0.7714812680D-03    1    2    0
 0.105299613506671D+04 0.000000000000000D+00 0.000000000000000D+00 0.105299613506671D+04
 0.105299613506671D+04 0.000000000000000D+00 0.000000000000000D+00 -.105299613506671D+04
 0.586893206081972D+03 -.542460109400874D+03 0.134520085693116D+03 -.128296576723953D+03
 0.923572027251673D+03 0.552926888629044D+03 -.154825185135791D+03 0.723385310467691D+03
 0.595527036799770D+03 -.104667792281705D+02 0.203050994426747D+02 -.595088733743738D+03
 0.000000000000000D+00 0.000000000000000D+00 0.000000000000000D+00 0.000000000000000D+00
 0.172401380210299D+04 0.000000000000000D+00 0.000000000000000D+00 0.172401380210299D+04
 0.105521559576824D+04 0.000000000000000D+00 0.000000000000000D+00 -.105521559576824D+04
 0.593508391492445D+03 -.553170376793801D+03 0.119036689346891D+03 -.128296576723953D+03
 0.918068348485737D+03 0.536216930843246D+03 -.178982088958480D+03 0.723385310467691D+03
 0.595487264171260D+03 -.212733400278268D+02 0.468249564931232D+01 -.595088733743738D+03
 0.672165393721781D+03 0.382267859783815D+02 0.552629039622771D+02 0.668798206334748D+03
0.623895739454D-03 0.000000000000D+00 0.000000000000D+00 0.161826846989D-04 0.141612074371D-08  6 21 2 25 4 2 -4 2 0.25788315D+00 0.16696762D+00 0.38053685D+06 0.38053685D+06 0.38053685D+06 0.10769928D+01  1  2  1  5  6  1        4 0.771481267975D-03 0.100000000000D+01
  </mgrwgt>
  </event>
  <event>
  5     66 -.18046435E-05 0.16380310E+03 0.75467711E-02 0.91752902E-01
        2 -1    0    0  501    0 0.00000000E+00 0.00000000E+00 0.19086739E+04 0.19086740E+04 0.32000000E+00 0.0000E+00 0.9000E+01
        4 -1    0    0  502    0 0.00000000E+00 0.00000000E+00 -.10817695E+04 0.10817706E+04 0.15500000E+01 0.0000E+00 0.9000E+01
       25  1    1    2    0    0 -.21245057E+03 -.58828959E+03 0.34238054E+03 0.72392632E+03 0.12500000E+03 0.0000E+00 0.9000E+01
        2  1    1    2  501    0 -.38618410E+02 0.15919456E+03 0.13006318E+04 0.13109071E+04 0.32000000E+00 0.0000E+00 0.9000E+01
        4  1    1    2  502    0 0.25106898E+03 0.42909503E+03 -.81610787E+03 0.95561113E+03 0.15500000E+01 0.0000E+00 0.9000E+01
#aMCatNLO 1  0  0  5  2 0.14711367D+02 0.00000000D+00  -5  6  0 0.00000000D+00 0.00000000D+00 0.00000000D+00 0.00000000D+00 0.00000000D+00
  <mgrwgt>
 -.8807018669D-03    7    2    0
 0.143692272225549D+04 0.000000000000000D+00 0.000000000000000D+00 0.143692272225549D+04
 0.143692272225549D+04 -.000000000000000D+00 -.000000000000000D+00 -.143692272225549D+04
 0.654818982813869D+03 -.212467186830463D+03 -.588309212507633D+03 0.148029947147150D+03
 0.989804908027564D+03 -.386163691291016D+02 0.159186152947280D+03 0.976156903730433D+03
 0.122922155366955D+04 0.251083555959565D+03 0.429123059560353D+03 -.112418685087758D+04
 0.000000000000000D+00 0.000000000000000D+00 0.000000000000000D+00 -.000000000000000D+00
 0.143692272225549D+04 0.000000000000000D+00 0.000000000000000D+00 0.143692272225549D+04
 0.143692272225549D+04 -.000000000000000D+00 -.000000000000000D+00 -.143692272225549D+04
 0.654751840038171D+03 -.212443807111472D+03 -.588269254588021D+03 0.147925268158651D+03
 0.989657202677531D+03 -.385810298659680D+02 0.159246550740598D+03 0.975998677777392D+03
 0.950693365082353D+03 0.200905164075920D+03 0.343494453694650D+03 -.863404047790053D+03
 0.278743036712933D+03 0.501196729015205D+02 0.855282501527725D+02 -.260519898145990D+03
0.419407472446D-04 0.000000000000D+00 0.000000000000D+00 0.503126952509D-05 0.000000000000D+00  6 2 4 25 2 4 21 0 0.29364223D+00 0.16642616D+00 0.42175431D+06 0.42175431D+06 0.42175431D+06 0.10737735D+01  1  2  2  4  6  5        4 0.289988620062D-05 0.100000000000D+01
0.735662157376D-05 0.000000000000D+00 -.161063512672D-06 0.503126952509D-05 0.000000000000D+00  6 2 4 25 2 4 21 2 0.29364223D+00 0.16642616D+00 0.42175431D+06 0.42175431D+06 0.42175431D+06 0.10737735D+01  1  2  3  4  6  5        4 0.586473766866D-06 0.100000000000D+01
-.259778495955D-04 0.000000000000D+00 0.000000000000D+00 0.503126952509D-05 0.000000000000D+00  6 2 4 25 2 4 21 2 0.29364223D+00 0.16642616D+00 0.42175431D+06 0.42175431D+06 0.42175431D+06 0.10737735D+01  1  2 15  4  6  5        4 -.207096792387D-05 0.100000000000D+01
0.207239170296D-01 0.000000000000D+00 0.000000000000D+00 0.503126952509D-05 0.000000000000D+00  6 2 4 25 2 4 21 2 0.29364223D+00 0.16642616D+00 0.42168254D+06 0.42168254D+06 0.42168254D+06 0.10737788D+01  1  2 12  4  6  5        4 0.165215470984D-02 0.100000000000D+01
-.370509399547D-01 0.000000000000D+00 0.000000000000D+00 0.503126952509D-05 0.000000000000D+00  6 2 4 25 2 4 21 2 0.29364223D+00 0.16642616D+00 0.42175431D+06 0.42175431D+06 0.42175431D+06 0.10737735D+01  1  2  4  4  6  5        4 -.295372055002D-02 0.100000000000D+01
-.209081746991D-01 0.000000000000D+00 0.000000000000D+00 0.503126952509D-05 0.000000000000D+00  6 2 4 25 2 4 21 2 0.29364223D+00 0.16642616D+00 0.42175431D+06 0.42175431D+06 0.42175431D+06 0.10737735D+01  1  2  5  4  6  5        4 -.166681075696D-02 0.100000000000D+01
0.261696623504D-01 0.000000000000D+00 -.000000000000D+00 0.503126952509D-05 0.000000000000D+00  6 2 4 25 2 4 21 2 0.29364223D+00 0.16642616D+00 0.42175431D+06 0.42175431D+06 0.42175431D+06 0.10737735D+01  1  2  6  4  6  5        4 0.208625933825D-02 0.100000000000D+01
  </mgrwgt>
  </event>
  <event>
  6     66 -.18046435E-05 0.81674704E+02 0.75467711E-02 0.94389680E-01
        2 -1    0    0  501    0 0.00000000E+00 0.00000000E+00 0.16417904E+04 0.16417904E+04 0.32000000E+00 0.0000E+00 0.9000E+01
        4 -1    0    0  502    0 0.00000000E+00 0.00000000E+00 -.27564815E+03 0.27565251E+03 0.15500000E+01 0.0000E+00 0.9000E+01
       25  1    1    2    0    0 -.30580564E+03 0.37729635E+03 0.32637693E+03 0.59834482E+03 0.12500000E+03 0.0000E+00 0.9000E+01
        2  1    1    2  501    0 0.96046738E+02 -.10477736E+02 0.80358679E+03 0.80937420E+03 0.32000000E+00 0.0000E+00 0.9000E+01
        4  1    1    2  503    0 0.16106560E+02 -.25783017E+02 -.24274969E+02 0.38934071E+02 0.15500000E+01 0.0000E+00 0.9000E+01
       21  1    1    2  502  503 0.19365234E+03 -.34103559E+03 0.26045350E+03 0.47078986E+03 0.75000000E+00 0.0000E+00 0.9000E+01
#aMCatNLO 2  0  0  5  2 0.55362306D+02 0.00000000D+00  -5  6  0 0.00000000D+00 0.00000000D+00 0.00000000D+00 0.00000000D+00 0.00000000D+00
  <mgrwgt>
 -.3463261320D-03    2    2    0
 0.672726320405330D+03 0.000000000000000D+00 0.000000000000000D+00 0.672726320405330D+03
 0.672726320405330D+03 -.000000000000000D+00 -.000000000000000D+00 -.672726320405330D+03
 0.529223932065474D+03 -.310663877482749D+03 0.385799210353674D+03 -.138202368969229D+03
 0.339058480469175D+03 0.929132023878524D+02 -.502000663141283D+01 0.326040778942635D+03
 0.477170228276010D+03 0.217750675094897D+03 -.380779203722261D+03 -.187838409973406D+03
 0.000000000000000D+00 0.000000000000000D+00 -.000000000000000D+00 0.000000000000000D+00
 0.672726320405330D+03 0.000000000000000D+00 0.000000000000000D+00 0.672726320405330D+03
 0.672726320405330D+03 -.000000000000000D+00 -.000000000000000D+00 -.672726320405330D+03
 0.521462247064290D+03 -.305892781008703D+03 0.377456024664454D+03 -.142318063100253D+03
 0.337494721673009D+03 0.959853857489385D+02 -.103923138971117D+02 0.323390619362456D+03
 0.787698713065843D+02 0.157656670143162D+02 -.252211250893677D+02 -.729385441208969D+02
 0.407725800766776D+03 0.194141728245448D+03 -.341842585677975D+03 -.108134012141306D+03
-.233879157580D-03 0.000000000000D+00 0.000000000000D+00 0.206319827211D-06 0.000000000000D+00  6 2 4 25 2 4 21 2 0.25258348D+00 0.42407746D-01 0.26065129D+06 0.26065129D+06 0.26065129D+06 0.10890986D+01  1  2 13  4  6  5        4 -.106983808923D-02 0.100000000000D+01
0.158168202055D-03 0.000000000000D+00 0.000000000000D+00 0.206319827211D-06 0.219635722596D-10  6 2 4 25 2 4 21 2 0.25258348D+00 0.42407746D-01 0.26065129D+06 0.26065129D+06 0.26065129D+06 0.10890986D+01  1  2  1  4  6  5        4 0.723511957267D-03 0.100000000000D+01
  </mgrwgt>
  </event>
  <event>
  5     66 0.18046435E-05 0.58192856E+02 0.75467711E-02 0.94382164E-01
        2 -1    0    0  501    0 0.00000000E+00 0.00000000E+00 0.17731355E+04 0.17731356E+04 0.32000000E+00 0.0000E+00 0.9000E+01
        4 -1    0    0  502    0 0.00000000E+00 0.00000000E+00 -.89629040E+03 0.89629174E+03 0.15500000E+01 0.0000E+00 0.9000E+01
       25  1    1    2    0    0 0.17060396E+03 0.44042927E+03 0.87773861E+03 0.10045565E+04 0.12500000E+03 0.0000E+00 0.9000E+01
        2  1    1    2  501    0 -.58097446E+02 0.35928938E+01 0.76782479E+03 0.77002808E+03 0.32000000E+00 0.0000E+00 0.9000E+01
        4  1    1    2  502    0 -.11250651E+03 -.44402216E+03 -.76871826E+03 0.89484276E+03 0.15500000E+01 0.0000E+00 0.9000E+01
#aMCatNLO 1  0  0  1  4 0.13263052D+02 0.00000000D+00  -5  6  0 0.00000000D+00 0.00000000D+00 0.00000000D+00 0.00000000D+00 0.00000000D+00
  <mgrwgt>
 0.5228352257D-02    9    2    0
 0.126065308133446D+04 0.000000000000000D+00 0.000000000000000D+00 0.126065308133446D+04
 0.126065308133446D+04 0.000000000000000D+00 0.000000000000000D+00 -.126065308133446D+04
 0.758451661974697D+03 0.170601567943524D+03 0.440476597589983D+03 0.580085679484456D+03
 0.548089052763188D+03 -.580818952239967D+02 0.359193203338315D+01 0.544991010228889D+03
 0.121476544793104D+04 -.112519672719527D+03 -.444068529623366D+03 -.112507668971334D+04
 0.000000000000000D+00 0.000000000000000D+00 0.000000000000000D+00 0.000000000000000D+00
 0.150697917786602D+04 0.000000000000000D+00 0.000000000000000D+00 0.150697917786602D+04
 0.126084906825470D+04 0.000000000000000D+00 0.000000000000000D+00 -.126084906825470D+04
 0.757058628823693D+03 0.166721135586507D+03 0.439565051934537D+03 0.580085679484456D+03
 0.548389752033714D+03 -.608894062377795D+02 0.293242447552039D+01 0.544991010228889D+03
 0.121589266597971D+04 -.118743321909727D+03 -.445530516293506D+03 -.112507668971334D+04
 0.246487199283602D+03 0.129115925609995D+02 0.303303988344836D+01 0.246130109611315D+03
0.110644522896D-03 0.000000000000D+00 0.000000000000D+00 0.330785611944D-04 0.000000000000D+00  6 2 4 25 2 4 21 0 0.27279019D+00 0.13789094D+00 0.25246353D+06 0.25246353D+06 0.25246353D+06 0.10901389D+01  1  2  2  1  6  1        2 0.173276074282D-04 0.100000000000D+01
0.279093968419D-04 0.000000000000D+00 -.424904101293D-06 0.330785611944D-04 0.000000000000D+00  6 2 4 25 2 4 21 2 0.27279019D+00 0.13789094D+00 0.25246353D+06 0.25246353D+06 0.25246353D+06 0.10901389D+01  1  2  3  1  6  1        2 0.519424924911D-05 0.100000000000D+01
-.620629374225D-04 0.000000000000D+00 0.000000000000D+00 0.330785611944D-04 0.000000000000D+00  6 2 4 25 2 4 21 2 0.27279019D+00 0.13789094D+00 0.25246353D+06 0.25246353D+06 0.25246353D+06 0.10901389D+01  1  2 15  1  6  1        2 -.115506031152D-04 0.100000000000D+01
0.532370268365D-01 0.000000000000D+00 0.000000000000D+00 0.330785611944D-04 0.000000000000D+00  6 2 4 25 2 4 21 2 0.34390711D+00 0.13789094D+00 0.26099879D+06 0.26099879D+06 0.26099879D+06 0.10890552D+01  1  2 12  1  6  1        2 0.550510750100D-02 0.100000000000D+01
-.264619053313D-01 0.000000000000D+00 0.000000000000D+00 0.330785611944D-04 0.000000000000D+00  6 2 4 25 2 4 21 2 0.27279019D+00 0.13789094D+00 0.25246353D+06 0.25246353D+06 0.25246353D+06 0.10901389D+01  1  2  4  1  6  1        2 -.492485497539D-02 0.100000000000D+01
-.739686932922D-01 0.000000000000D+00 -.127861962008D-03 0.330785611944D-04 0.000000000000D+00  6 2 4 25 2 4 21 2 0.32610777D+00 0.13789094D+00 0.25246353D+06 0.25246353D+06 0.25246353D+06 0.10901389D+01  1  2  5  1  6  1        2 -.890363821973D-02 0.100000000000D+01
0.728298589126D-01 0.000000000000D+00 0.125851119239D-03 0.330785611944D-04 0.000000000000D+00  6 2 4 25 2 4 21 2 0.27279019D+00 0.13789094D+00 0.25246353D+06 0.25246353D+06 0.25246353D+06 0.10901389D+01  1  2  6  1  6  1        2 0.135544469883D-01 0.100000000000D+01
0.170270756014D-02 0.000000000000D+00 0.000000000000D+00 0.330785611944D-04 0.000000000000D+00  6 21 4 25 2 4 -2 2 0.34390711D+00 0.13789094D+00 0.26099879D+06 0.26099879D+06 0.26099879D+06 0.10890552D+01  1  2 12  5  6  1        2 0.274003039546D-04 0.100000000000D+01
-.193710279100D-02 0.000000000000D+00 -.335055710981D-05 0.330785611944D-04 0.000000000000D+00  6 21 4 25 2 4 -2 2 0.32610777D+00 0.13789094D+00 0.25246353D+06 0.25246353D+06 0.25246353D+06 0.10901389D+01  1  2  5  5  6  1        2 -.410805948228D-04 0.100000000000D+01
  </mgrwgt>
  </event>
  <event>
  6     66 -.18046435E-05 0.47944069E+02 0.75467711E-02 0.92847314E-01
        4 -1    0    0  501    0 0.00000000E+00 0.00000000E+00 0.54457918E+03 0.54458139E+03 0.15500000E+01 0.0000E+00 0.9000E+01
        2 -1    0    0  502    0 -.00000000E+00 -.00000000E+00 -.10026026E+04 0.10026027E+04 0.32000000E+00 0.0000E+00 0.9000E+01
       25  1    1    2    0    0 0.45249730E+03 0.34531407E+03 -.24843429E+03 0.63351417E+03 0.12500000E+03 0.0000E+00 0.9000E+01
        4  1    1    2  501    0 -.17795491E+02 -.69887067E+02 0.22198299E+03 0.23340894E+03 0.15500000E+01 0.0000E+00 0.9000E+01
        2  1    1    2  503    0 -.37537514E+03 -.21341338E+03 -.40062642E+03 0.58902750E+03 0.32000000E+00 0.0000E+00 0.9000E+01
       21  1    1    2  502  503 -.59326669E+02 -.62013621E+02 -.30945720E+02 0.91233453E+02 0.75000000E+00 0.0000E+00 0.9000E+01
#aMCatNLO 2  0  0  5  2 0.37804204D+02 0.00000000D+00  -5  6  0 0.00000000D+00 0.00000000D+00 0.00000000D+00 0.00000000D+00 0.00000000D+00
  <mgrwgt>
 -.3212452540D-03    2    2    0
 0.738916953855324D+03 0.000000000000000D+00 0.000000000000000D+00 0.738916953855324D+03
 0.738916953855324D+03 -.000000000000000D+00 -.000000000000000D+00 -.738916953855324D+03
 0.590004690715905D+03 0.456036154307394D+03 0.347481682340763D+03 -.613843747946214D+02
 0.312883116941631D+03 -.160944150260881D+02 -.686510826525726D+02 0.304834124603378D+03
 0.574946100053112D+03 -.439941739281307D+03 -.278830599688190D+03 -.243449749808757D+03
 0.000000000000000D+00 0.000000000000000D+00 -.000000000000000D+00 0.000000000000000D+00
 0.738916953855324D+03 0.000000000000000D+00 0.000000000000000D+00 0.738916953855324D+03
 0.738916953855324D+03 -.000000000000000D+00 -.000000000000000D+00 -.738916953855324D+03
 0.586615442846756D+03 0.452918869494759D+03 0.345505978932566D+03 -.631093809487510D+02
 0.312312624548336D+03 -.177507806909947D+02 -.697008703640167D+02 0.303917544586733D+03
 0.492830993117879D+03 -.375740915983588D+03 -.213670200105375D+03 -.236740781067179D+03
 0.860748471976766D+02 -.594271728201761D+02 -.621349084631740D+02 -.406738257080352D+01
-.310634918399D-03 0.000000000000D+00 0.000000000000D+00 0.294341920912D-06 0.000000000000D+00  6 4 2 25 4 2 21 2 0.83781586D-01 0.15424673D+00 0.34419385D+06 0.34419385D+06 0.34419385D+06 0.10801638D+01  1  2 13  4  6  5        2 -.638290979778D-03 0.100000000000D+01
0.154295574066D-03 0.000000000000D+00 0.000000000000D+00 0.294341920912D-06 0.518388865961D-09  6 4 2 25 4 2 21 2 0.83781586D-01 0.15424673D+00 0.34419385D+06 0.34419385D+06 0.34419385D+06 0.10801638D+01  1  2  1  4  6  5        2 0.317045725746D-03 0.100000000000D+01
  </mgrwgt>
  </event>
  <event>
  5     66 0.18046435E-05 0.11427166E+03 0.75467711E-02 0.90988903E-01
        4 -1    0    0  501    0 0.00000000E+00 0.00000000E+00 0.65205385E+03 0.65205569E+03 0.15500000E+01 0.0000E+00 0.9000E+01
        2 -1    0    0  502    0 -.00000000E+00 -.00000000E+00 -.28959899E+04 0.28959900E+04 0.32000000E+00 0.0000E+00 0.9000E+01
       25  1    1    2    0    0 -.34067585E+03 -.57640746E+03 -.54886110E+03 0.87474516E+03 0.12500000E+03 0.0000E+00 0.9000E+01
        4  1    1    2  501    0 -.37723979E+02 0.10792536E+03 0.44015937E+03 0.45476769E+03 0.15500000E+01 0.0000E+00 0.9000E+01
        2  1    1    2  502    0 0.37839983E+03 0.46848210E+03 -.21352344E+04 0.22185328E+04 0.32000000E+00 0.0000E+00 0.9000E+01
#aMCatNLO 1  0  0  5  2 0.57845728D+02 0.00000000D+00  -5  6  0 0.00000000D+00 0.00000000D+00 0.00000000D+00 0.00000000D+00 0.00000000D+00
  <mgrwgt>
 0.3391833676D-03    7    2    0
 0.137417054704973D+04 0.000000000000000D+00 0.000000000000000D+00 0.137417054704973D+04
 0.137417054704973D+04 -.000000000000000D+00 -.000000000000000D+00 -.137417054704973D+04
 0.681457480501904D+03 -.340897437233934D+03 -.576637996132885D+03 0.607095010598974D+01
 0.946000326309950D+03 -.377052569060875D+02 0.107871799166930D+03 0.939073269731743D+03
 0.112088328728761D+04 0.378602694140021D+03 0.468766196965955D+03 -.945144219837733D+03
 0.000000000000000D+00 0.000000000000000D+00 0.000000000000000D+00 0.000000000000000D+00
 0.137417054704973D+04 0.000000000000000D+00 0.000000000000000D+00 0.137417054704973D+04
 0.137417054704973D+04 -.000000000000000D+00 -.000000000000000D+00 -.137417054704973D+04
 0.680479805251014D+03 -.340273641515299D+03 -.575865644664620D+03 0.451370572565989D+01
 0.943944129513045D+03 -.368396228770225D+02 0.108943582273732D+03 0.936912299903137D+03
 0.809975228481440D+03 0.233575588836114D+03 0.308291646856134D+03 -.711659030387556D+03
 0.313941930853966D+03 0.143537675556207D+03 0.158630415534753D+03 -.229766975241240D+03
0.189240318368D-03 0.000000000000D+00 0.000000000000D+00 0.468614925797D-05 0.000000000000D+00  6 4 2 25 4 2 21 0 0.10031612D+00 0.44553706D+00 0.48878607D+06 0.48878607D+06 0.48878607D+06 0.10692073D+01  1  2  2  4  6  5        2 0.166146896886D-04 0.100000000000D+01
0.515261475022D-04 0.000000000000D+00 -.726732650655D-06 0.468614925797D-05 0.000000000000D+00  6 4 2 25 4 2 21 2 0.10031612D+00 0.44553706D+00 0.48878607D+06 0.48878607D+06 0.48878607D+06 0.10692073D+01  1  2  3  4  6  5        2 0.517166141834D-05 0.100000000000D+01
-.113867234521D-03 0.000000000000D+00 0.000000000000D+00 0.468614925797D-05 0.000000000000D+00  6 4 2 25 4 2 21 2 0.10031612D+00 0.44553706D+00 0.48878607D+06 0.48878607D+06 0.48878607D+06 0.10692073D+01  1  2 15  4  6  5        2 -.114288145365D-04 0.100000000000D+01
0.489020772792D-02 0.000000000000D+00 0.000000000000D+00 0.468614925797D-05 0.000000000000D+00  6 4 2 25 4 2 21 2 0.10031612D+00 0.44553706D+00 0.48733196D+06 0.48733196D+06 0.48733196D+06 0.10692990D+01  1  2 12  4  6  5        2 0.491010948182D-03 0.100000000000D+01
-.325205506049D-02 0.000000000000D+00 0.000000000000D+00 0.468614925797D-05 0.000000000000D+00  6 4 2 25 4 2 21 2 0.10031612D+00 0.44553706D+00 0.48878607D+06 0.48878607D+06 0.48878607D+06 0.10692073D+01  1  2  4  4  6  5        2 -.326407629950D-03 0.100000000000D+01
-.515686363020D-02 0.000000000000D+00 0.000000000000D+00 0.468614925797D-05 0.000000000000D+00  6 4 2 25 4 2 21 2 0.10031612D+00 0.44553706D+00 0.48878607D+06 0.48878607D+06 0.48878607D+06 0.10692073D+01  1  2  5  4  6  5        2 -.517592600432D-03 0.100000000000D+01
0.679304062146D-02 0.000000000000D+00 -.000000000000D+00 0.468614925797D-05 0.000000000000D+00  6 4 2 25 4 2 21 2 0.10031612D+00 0.44553706D+00 0.48878607D+06 0.48878607D+06 0.48878607D+06 0.10692073D+01  1  2  6  4  6  5        2 0.681815113262D-03 0.100000000000D+01
  </mgrwgt>
  </event>
  <event>
  5     66 0.18046435E-05 0.19133711E+02 0.75467711E-02 0.94802207E-01
        4 -1    0    0  501    0 0.00000000E+00 0.00000000E+00 0.18728598E+03 0.18729240E+03 0.15500000E+01 0.0000E+00 0.9000E+01
        2 -1    0    0  502    0 0.00000000E+00 0.00000000E+00 -.13974636E+04 0.13974637E+04 0.32000000E+00 0.0000E+00 0.9000E+01
       25  1    1    2    0    0 -.18448831E+03 0.41733448E+03 -.77934720E+03 0.91170777E+03 0.12500000E+03 0.0000E+00 0.9000E+01
        4  1    1    2  501    0 -.16765608E+02 0.10211834E+02 0.13927499E+02 0.24119389E+02 0.15500000E+01 0.0000E+00 0.9000E+01
        2  1    1    2  502    0 0.20125392E+03 -.42754631E+03 -.44475795E+03 0.64892891E+03 0.32000000E+00 0.0000E+00 0.9000E+01
#aMCatNLO 1  0  0  1  1 0.17610730D+02 0.00000000D+00  -5  6  0 0.00000000D+00 0.00000000D+00 0.00000000D+00 0.00000000D+00 0.00000000D+00
  <mgrwgt>
 0.1927696573D-03    6    2    0
 0.511595992261988D+03 0.000000000000000D+00 0.000000000000000D+00 0.511595992261988D+03
 0.511595992261988D+03 0.000000000000000D+00 0.000000000000000D+00 -.511595992261988D+03
 0.491068249162857D+03 -.184954133664391D+03 0.418094371731111D+03 -.128499377831554D+03
 0.524449321626885D+02 -.163410953192794D+02 0.995326618904619D+01 0.488300317989372D+02
 0.479678803198431D+03 0.201295228983670D+03 -.428047637920157D+03 0.796693460326171D+02
 0.000000000000000D+00 0.000000000000000D+00 -.000000000000000D+00 -.000000000000000D+00
 0.513406171819236D+03 0.000000000000000D+00 0.000000000000000D+00 0.513406171819236D+03
 0.556375456977100D+03 0.000000000000000D+00 0.000000000000000D+00 -.556375456977100D+03
 0.498215530085642D+03 -.191458873413093D+03 0.423586029168586D+03 -.128499377831554D+03
 0.527781197860572D+02 -.170329580414305D+02 0.105373745793275D+02 0.488300317989372D+02
 0.472349877489487D+03 0.195035448998316D+03 -.422762788926715D+03 0.796693460326171D+02
 0.464381014351487D+02 0.134563824562068D+02 -.113606148211991D+02 -.429692851578636D+02
0.592523926184D-04 0.000000000000D+00 0.000000000000D+00 0.334069557530D-07 0.000000000000D+00  6 4 2 25 4 2 21 0 0.28813724D-01 0.21499490D+00 0.23334111D+06 0.23334111D+06 0.23334111D+06 0.10927193D+01  1  2  2  1  6  1        4 0.693720278385D-03 0.100000000000D+01
0.194820654266D-04 0.000000000000D+00 -.227544789168D-06 0.334069557530D-07 0.000000000000D+00  6 4 2 25 4 2 21 2 0.28813724D-01 0.21499490D+00 0.23334111D+06 0.23334111D+06 0.23334111D+06 0.10927193D+01  1  2  3  1  6  1        4 0.272352105794D-03 0.100000000000D+01
-.383586684394D-04 0.000000000000D+00 0.000000000000D+00 0.334069557530D-07 0.000000000000D+00  6 4 2 25 4 2 21 2 0.28813724D-01 0.21499490D+00 0.23334111D+06 0.23334111D+06 0.23334111D+06 0.10927193D+01  1  2 15  1  6  1        4 -.536240069838D-03 0.100000000000D+01
-.169296292243D-04 0.000000000000D+00 0.000000000000D+00 0.334069557530D-07 0.000000000000D+00  6 4 2 25 4 2 21 2 0.28813724D-01 0.21499490D+00 0.23334111D+06 0.23334111D+06 0.23334111D+06 0.10927193D+01  1  2  4  1  6  1        4 -.236669986914D-03 0.100000000000D+01
0.150233894682D-06 0.000000000000D+00 0.000000000000D+00 0.334069557530D-07 0.000000000000D+00  6 4 2 25 4 2 21 2 0.32055181D-01 0.21499490D+00 0.23334111D+06 0.23334111D+06 0.23334111D+06 0.10927193D+01  1  2  5  1  6  1        4 0.169566621531D-05 0.100000000000D+01
-.149384210415D-06 0.000000000000D+00 0.000000000000D+00 0.334069557530D-07 0.000000000000D+00  6 4 2 25 4 2 21 2 0.28813724D-01 0.21499490D+00 0.23334111D+06 0.23334111D+06 0.23334111D+06 0.10927193D+01  1  2  6  1  6  1        4 -.208833629228D-05 0.100000000000D+01
  </mgrwgt>
  </event>
  <event>
  5     66 0.18046435E-05 0.84796714E+02 0.75467711E-02 0.87375817E-01
        4 -1    0    0  501    0 0.00000000E+00 0.00000000E+00 0.93521757E+03 0.93521885E+03 0.15500000E+01 0.0000E+00 0.9000E+01
        2 -1    0    0  502    0 0.00000000E+00 0.00000000E+00 -.35629927E+04 0.35629927E+04 0.32000000E+00 0.0000E+00 0.9000E+01
       25  1    1    2    0    0 -.34726412E+03 -.35461790E+03 -.43178245E+03 0.66963222E+03 0.12500000E+03 0.0000E+00 0.9000E+01
        4  1    1    2  501    0 0.31428970E+03 0.27653348E+03 0.76197343E+03 0.86939904E+03 0.15500000E+01 0.0000E+00 0.9000E+01
        2  1    1    2  502    0 0.32974420E+02 0.78084415E+02 -.29579661E+04 0.29591803E+04 0.32000000E+00 0.0000E+00 0.9000E+01
#aMCatNLO 1  0  0  2  4 0.16909480D+01 0.00000000D+00  -5  6  0 0.00000000D+00 0.00000000D+00 0.00000000D+00 0.00000000D+00 0.00000000D+00
  <mgrwgt>
 0.3969370374D-02    4    2    0
 0.182542495777488D+04 0.000000000000000D+00 0.000000000000000D+00 0.182542495777488D+04
 0.182542495777488D+04 0.000000000000000D+00 0.000000000000000D+00 -.182542495777488D+04
 0.514225452074827D+03 -.347246663636526D+03 -.354622440378819D+03 -.496537504588831D+02
 0.161946880654586D+04 0.314258055097447D+03 0.276505640657063D+03 0.156443782901918D+04
 0.151715565692907D+04 0.329886085390781D+02 0.781167997217552D+02 -.151478407856030D+04
 0.000000000000000D+00 0.000000000000000D+00 -.000000000000000D+00 0.000000000000000D+00
 0.258599627750402D+04 0.000000000000000D+00 0.000000000000000D+00 0.258599627750402D+04
 0.205031407922695D+04 0.000000000000000D+00 0.000000000000000D+00 -.205031407922695D+04
 0.566712266772491D+03 -.449110289043741D+03 -.318390085666671D+03 -.496537504588831D+02
 0.161109501724516D+04 0.982151128651759D+01 0.384792114838618D+03 0.156443782901918D+04
 0.154682725884775D+04 -.255749958489206D+03 0.180819586293742D+03 -.151478407856030D+04
 0.911675813865569D+03 0.695038736246429D+03 -.247221615465689D+03 0.535682198277067D+03
0.536281827376D+00 0.000000000000D+00 0.000000000000D+00 0.296075231722D-03 0.000000000000D+00  6 4 2 25 4 2 21 0 0.14387973D+00 0.54815282D+00 0.25765998D+06 0.25765998D+06 0.25765998D+06 0.10894744D+01  1  2  2  2  6  2        2 0.603936595409D-02 0.100000000000D+01
0.175929528816D+00 0.000000000000D+00 -.205946342337D-02 0.296075231722D-03 0.000000000000D+00  6 4 2 25 4 2 21 2 0.14387973D+00 0.54815282D+00 0.25765998D+06 0.25765998D+06 0.25765998D+06 0.10894744D+01  1  2  3  2  6  2        2 0.235164141616D-02 0.100000000000D+01
-.328038743986D+00 0.000000000000D+00 0.000000000000D+00 0.296075231722D-03 0.000000000000D+00  6 4 2 25 4 2 21 2 0.14387973D+00 0.54815282D+00 0.25765998D+06 0.25765998D+06 0.25765998D+06 0.10894744D+01  1  2 15  2  6  2        2 -.438487786361D-02 0.100000000000D+01
-.275000123554D-02 0.000000000000D+00 0.000000000000D+00 0.296075231722D-03 0.000000000000D+00  6 4 2 25 4 2 21 2 0.14387973D+00 0.54815282D+00 0.25765998D+06 0.25765998D+06 0.25765998D+06 0.10894744D+01  1  2  4  2  6  2        2 -.367591321565D-04 0.100000000000D+01
  </mgrwgt>
  </event>
  <event>
  5     66 0.18046435E-05 0.73895515E+02 0.75467711E-02 0.87542745E-01
        2 -1    0    0  501    0 0.00000000E+00 0.00000000E+00 0.19694151E+04 0.19694152E+04 0.32000000E+00 0.0000E+00 0.9000E+01
        4 -1    0    0  502    0 0.00000000E+00 0.00000000E+00 -.13588323E+04 0.13588332E+04 0.15500000E+01 0.0000E+00 0.9000E+01
       25  1    1    2    0    0 -.81163097E+03 0.12928654E+03 0.12266353E+03 0.84031612E+03 0.12500000E+03 0.0000E+00 0.9000E+01
        2  1    1    2  501    0 0.79205167E+03 -.58033052E+02 0.13803171E+04 0.15924789E+04 0.32000000E+00 0.0000E+00 0.9000E+01
        4  1    1    2  502    0 0.19579299E+02 -.71253488E+02 -.89239781E+03 0.89545333E+03 0.15500000E+01 0.0000E+00 0.9000E+01
#aMCatNLO 1  0  0  5  2 0.11959105D+03 0.00000000D+00  -5  6  0 0.00000000D+00 0.00000000D+00 0.00000000D+00 0.00000000D+00 0.00000000D+00
  <mgrwgt>
 0.2804233184D-03    6    2    0
 0.163588094483975D+04 0.000000000000000D+00 0.000000000000000D+00 0.163588094483975D+04
 0.163588094483975D+04 -.000000000000000D+00 -.000000000000000D+00 -.163588094483975D+04
 0.831931392196613D+03 -.811630246443518D+03 0.129287026311715D+03 -.320320028674832D+02
 0.136237183313871D+04 0.792049701137380D+03 -.580329075666891D+02 0.110695368660901D+04
 0.107745866434417D+04 0.195805453061371D+02 -.712541187450255D+02 -.107492168374152D+04
 0.000000000000000D+00 0.000000000000000D+00 -.000000000000000D+00 0.000000000000000D+00
 0.163588094483975D+04 0.000000000000000D+00 0.000000000000000D+00 0.163588094483975D+04
 0.163588094483975D+04 -.000000000000000D+00 -.000000000000000D+00 -.163588094483975D+04
 0.833679886737941D+03 -.810794314221098D+03 0.126245046994600D+03 -.779225364542015D+02
 0.130441569769763D+04 0.793388100832176D+03 -.629033792154730D+02 0.103347897837410D+04
 0.927299976168652D+03 -.185651802174632D+02 0.136185124650061D+03 -.917057354645784D+03
 0.206366329075276D+03 0.359713936063847D+02 -.199526792429187D+03 -.384990872741148D+02
0.969630995579D-02 0.000000000000D+00 0.000000000000D+00 0.839163885372D-05 0.000000000000D+00  6 2 4 25 2 4 21 0 0.30298702D+00 0.20905120D+00 0.72197554D+06 0.72197554D+06 0.72197554D+06 0.10574135D+01  1  2  2  4  6  5        4 0.258728310114D-03 0.100000000000D+01
0.446164047974D-02 0.000000000000D+00 -.372363833273D-04 0.839163885372D-05 0.000000000000D+00  6 2 4 25 2 4 21 2 0.30298702D+00 0.20905120D+00 0.72197554D+06 0.72197554D+06 0.72197554D+06 0.10574135D+01  1  2  3  4  6  5        4 0.133113390919D-03 0.100000000000D+01
-.538402367665D-02 0.000000000000D+00 0.000000000000D+00 0.839163885372D-05 0.000000000000D+00  6 2 4 25 2 4 21 2 0.30298702D+00 0.20905120D+00 0.72197554D+06 0.72197554D+06 0.72197554D+06 0.10574135D+01  1  2 15  4  6  5        4 -.160632765379D-03 0.100000000000D+01
-.135830111067D-02 0.000000000000D+00 0.000000000000D+00 0.839163885372D-05 0.000000000000D+00  6 2 4 25 2 4 21 2 0.30298702D+00 0.20905120D+00 0.72197554D+06 0.72197554D+06 0.72197554D+06 0.10574135D+01  1  2  4  4  6  5        4 -.405250193403D-04 0.100000000000D+01
-.143596234269D-01 0.000000000000D+00 0.000000000000D+00 0.839163885372D-05 0.000000000000D+00  6 2 4 25 2 4 21 2 0.30298702D+00 0.20905120D+00 0.72197554D+06 0.72197554D+06 0.72197554D+06 0.10574135D+01  1  2  5  4  6  5        4 -.428420482413D-03 0.100000000000D+01
0.173674721972D-01 0.000000000000D+00 -.000000000000D+00 0.839163885372D-05 0.000000000000D+00  6 2 4 25 2 4 21 2 0.30298702D+00 0.20905120D+00 0.72197554D+06 0.72197554D+06 0.72197554D+06 0.10574135D+01  1  2  6  4  6  5        4 0.518159884547D-03 0.100000000000D+01
  </mgrwgt>
  </event>
  <event>
  5     66 0.18046435E-05 0.94169777E+02 0.75467711E-02 0.92061380E-01
        2 -1    0    0  501    0 0.00000000E+00 0.00000000E+00 0.35127537E+04 0.35127537E+04 0.32000000E+00 0.0000E+00 0.9000E+01
        4 -1    0    0  502    0 0.00000000E+00 0.00000000E+00 -.41627568E+03 0.41627856E+03 0.15500000E+01 0.0000E+00 0.9000E+01
       25  1    1    2    0    0 -.58520271E+03 0.13726451E+03 0.89382544E+03 0.10843674E+04 0.12500000E+03 0.0000E+00 0.9000E+01
        2  1    1    2  501    0 0.83387111E+02 0.43769662E+02 0.23003853E+04 0.23023123E+04 0.32000000E+00 0.0000E+00 0.9000E+01
        4  1    1    2  502    0 0.50181560E+03 -.18103417E+03 -.97732695E+02 0.54235261E+03 0.15500000E+01 0.0000E+00 0.9000E+01
#aMCatNLO 1  0  0  1  4 0.22241073D+02 0.00000000D+00  -5  6  0 0.00000000D+00 0.00000000D+00 0.00000000D+00 0.00000000D+00 0.00000000D+00
  <mgrwgt>
 0.5743725547D-03    7    2    0
 0.120924754522703D+04 0.000000000000000D+00 0.000000000000000D+00 0.120924754522703D+04
 0.120924754522703D+04 0.000000000000000D+00 0.000000000000000D+00 -.120924754522703D+04
 0.617283354721380D+03 -.585234084445017D+03 0.137279059201233D+03 0.637908012546366D+02
 0.794970154175972D+03 0.833812496122584D+02 0.437665858710080D+02 0.789372915170557D+03
 0.100624158155671D+04 0.501852834832758D+03 -.181045645072241D+03 -.853163716425193D+03
 0.000000000000000D+00 0.000000000000000D+00 0.000000000000000D+00 0.000000000000000D+00
 0.123191910344620D+04 0.000000000000000D+00 0.000000000000000D+00 0.123191910344620D+04
 0.121476569820213D+04 0.000000000000000D+00 0.000000000000000D+00 -.121476569820213D+04
 0.616549446452785D+03 -.585758028105204D+03 0.131630110942863D+03 0.637908012546366D+02
 0.794532184327728D+03 0.827062718743355D+02 0.364892493808271D+02 0.789372915170557D+03
 0.100751572468648D+04 0.500997698405231D+03 -.190265379559003D+03 -.853163716425193D+03
 0.280874461813360D+02 0.205405782563687D+01 0.221460192353138D+02 0.171534052440762D+02
0.712970693027D-03 0.000000000000D+00 0.000000000000D+00 0.722074925276D-05 0.000000000000D+00  6 2 4 25 2 4 21 0 0.54042387D+00 0.64042635D-01 0.38542926D+06 0.38542926D+06 0.38542926D+06 0.10765913D+01  1  2  2  1  6  1        2 0.792814823821D-04 0.100000000000D+01
0.202304274771D-03 0.000000000000D+00 -.273799519072D-05 0.722074925276D-05 0.000000000000D+00  6 2 4 25 2 4 21 2 0.54042387D+00 0.64042635D-01 0.38542926D+06 0.38542926D+06 0.38542926D+06 0.10765913D+01  1  2  3  1  6  1        2 0.260739522803D-04 0.100000000000D+01
-.398014730109D-03 0.000000000000D+00 0.000000000000D+00 0.722074925276D-05 0.000000000000D+00  6 2 4 25 2 4 21 2 0.54042387D+00 0.64042635D-01 0.38542926D+06 0.38542926D+06 0.38542926D+06 0.10765913D+01  1  2 15  1  6  1        2 -.512980612567D-04 0.100000000000D+01
-.107696749245D-04 0.000000000000D+00 0.000000000000D+00 0.722074925276D-05 0.000000000000D+00  6 2 4 25 2 4 21 2 0.54042387D+00 0.64042635D-01 0.38542926D+06 0.38542926D+06 0.38542926D+06 0.10765913D+01  1  2  4  1  6  1        2 -.138804773341D-05 0.100000000000D+01
-.360149483713D-01 0.000000000000D+00 -.430261675867D-02 0.722074925276D-05 0.000000000000D+00  6 2 4 25 2 4 21 2 0.55115968D+00 0.64042635D-01 0.38542926D+06 0.38542926D+06 0.38542926D+06 0.10765913D+01  1  2  5  1  6  1        2 -.413366435877D-02 0.100000000000D+01
0.361239296747D-01 0.000000000000D+00 0.431715517869D-02 0.722074925276D-05 0.000000000000D+00  6 2 4 25 2 4 21 2 0.54042387D+00 0.64042635D-01 0.38542926D+06 0.38542926D+06 0.38542926D+06 0.10765913D+01  1  2  6  1  6  1        2 0.465582657400D-02 0.100000000000D+01
-.128389738326D-03 0.000000000000D+00 -.154111695348D-04 0.722074925276D-05 0.000000000000D+00  6 21 4 25 2 4 -2 2 0.55115968D+00 0.64042635D-01 0.38542926D+06 0.38542926D+06 0.38542926D+06 0.10765913D+01  1  2  5  5  6  1        2 -.458986160742D-06 0.100000000000D+01
  </mgrwgt>
  </event>
  <event>
  5     66 0.18046435E-05 0.20799479E+03 0.75467711E-02 0.92566970E-01
        2 -1    0    0  501    0 0.00000000E+00 0.00000000E+00 0.41023129E+04 0.41023129E+04 0.32000000E+00 0.0000E+00 0.9000E+01
        4 -1    0    0  502    0 0.00000000E+00 0.00000000E+00 -.36039295E+03 0.36039629E+03 0.15500000E+01 0.0000E+00 0.9000E+01
       25  1    1    2    0    0 0.11991495E+03 0.43556191E+03 0.15194846E+04 0.15901422E+04 0.12500000E+03 0.0000E+00 0.9000E+01
        2  1    1    2  501    0 0.29928390E+02 -.29133311E+03 0.25048048E+04 0.25218679E+04 0.32000000E+00 0.0000E+00 0.9000E+01
        4  1    1    2  502    0 -.14984334E+03 -.14422881E+03 -.28236941E+03 0.35069910E+03 0.15500000E+01 0.0000E+00 0.9000E+01
#aMCatNLO 1  0  0  1  4 0.23686143D+03 0.00000000D+00  -5  6  0 0.00000000D+00 0.00000000D+00 0.00000000D+00 0.00000000D+00 0.00000000D+00
  <mgrwgt>
 0.1948842050D-02    7    2    0
 0.121591616605121D+04 0.000000000000000D+00 0.000000000000000D+00 0.121591616605121D+04
 0.121591616605121D+04 0.000000000000000D+00 0.000000000000000D+00 -.121591616605121D+04
 0.580078486310294D+03 0.119928611540593D+03 0.435549749517681D+03 0.341730294397604D+03
 0.773666325132608D+03 0.299258895827174D+02 -.291308762325692D+03 0.716102806005640D+03
 0.107808752065951D+04 -.149854501123311D+03 -.144240987191989D+03 -.105783310040324D+04
 0.000000000000000D+00 -.000000000000000D+00 0.000000000000000D+00 0.000000000000000D+00
 0.139589647025493D+04 0.000000000000000D+00 0.000000000000000D+00 0.139589647025493D+04
 0.130217368487370D+04 0.000000000000000D+00 0.000000000000000D+00 -.130217368487370D+04
 0.587347101956048D+03 0.175871334768000D+03 0.426193967195709D+03 0.341730294397604D+03
 0.784882514412503D+03 0.104611134829522D+03 -.303799017659737D+03 0.716102806005640D+03
 0.107111068519716D+04 -.468654955716800D+02 -.161464723576444D+03 -.105783310040324D+04
 0.254729853562908D+03 -.233616974025842D+03 0.390697740404714D+02 0.937227853812297D+02
0.149836750589D-01 0.000000000000D+00 0.000000000000D+00 0.739996646575D-05 0.000000000000D+00  6 2 4 25 2 4 21 0 0.63112532D+00 0.55445327D-01 0.23501676D+06 0.23501676D+06 0.23501676D+06 0.10924841D+01  1  2  2  1  6  1        2 0.847938505817D-03 0.100000000000D+01
0.158839196342D-02 0.000000000000D+00 -.575412575185D-04 0.739996646575D-05 0.000000000000D+00  6 2 4 25 2 4 21 2 0.63112532D+00 0.55445327D-01 0.23501676D+06 0.23501676D+06 0.23501676D+06 0.10924841D+01  1  2  3  1  6  1        2 0.107283753677D-03 0.100000000000D+01
-.915504686329D-02 0.000000000000D+00 0.000000000000D+00 0.739996646575D-05 0.000000000000D+00  6 2 4 25 2 4 21 2 0.63112532D+00 0.55445327D-01 0.23501676D+06 0.23501676D+06 0.23501676D+06 0.10924841D+01  1  2 15  1  6  1        2 -.618353539430D-03 0.100000000000D+01
-.474012646258D-03 0.000000000000D+00 0.000000000000D+00 0.739996646575D-05 0.000000000000D+00  6 2 4 25 2 4 21 2 0.63112532D+00 0.55445327D-01 0.23501676D+06 0.23501676D+06 0.23501676D+06 0.10924841D+01  1  2  4  1  6  1        2 -.320159363382D-04 0.100000000000D+01
-.289438123291D-01 0.000000000000D+00 -.103889445448D-01 0.739996646575D-05 0.000000000000D+00  6 2 4 25 2 4 21 2 0.73177632D+00 0.55445327D-01 0.23501676D+06 0.23501676D+06 0.23501676D+06 0.10924841D+01  1  2  5  1  6  1        2 -.452444679289D-03 0.100000000000D+01
0.310399747563D-01 0.000000000000D+00 0.114416642048D-01 0.739996646575D-05 0.000000000000D+00  6 2 4 25 2 4 21 2 0.63112532D+00 0.55445327D-01 0.23501676D+06 0.23501676D+06 0.23501676D+06 0.10924841D+01  1  2  6  1  6  1        2 0.209651338120D-02 0.100000000000D+01
-.582626328308D-03 0.000000000000D+00 -.234379667644D-03 0.739996646575D-05 0.000000000000D+00  6 21 4 25 2 4 -2 2 0.73177632D+00 0.55445327D-01 0.23501676D+06 0.23501676D+06 0.23501676D+06 0.10924841D+01  1  2  5  5  6  1        2 -.794354679390D-07 0.100000000000D+01
  </mgrwgt>
  </event>
  <event>
  5     66 -.18046435E-05 0.90485764E+02 0.75467711E-02 0.93541859E-01
        4 -1    0    0  501    0 0.00000000E+00 0.00000000E+00 0.54353171E+03 0.54353393E+03 0.15500000E+01 0.0000E+00 0.9000E+01
        2 -1    0    0  502    0 0.00000000E+00 0.00000000E+00 -.24949750E+04 0.24949751E+04 0.32000000E+00 0.0000E+00 0.9000E+01
       25  1    1    2    0    0 -.11494181E+03 -.45733438E+03 -.10089866E+04 0.11207342E+04 0.12500000E+03 0.0000E+00 0.9000E+01
        4  1    1    2  501    0 0.20536359E+03 0.45907898E+03 0.35600106E+03 0.61617114E+03 0.15500000E+01 0.0000E+00 0.9000E+01
        2  1    1    2  502    0 -.90421785E+02 -.17446029E+01 -.12984578E+04 0.13016036E+04 0.32000000E+00 0.0000E+00 0.9000E+01
#aMCatNLO 1  0  0  2  5 0.18452376D+02 0.00000000D+00  -5  6  0 0.00000000D+00 0.00000000D+00 0.00000000D+00 0.00000000D+00 0.00000000D+00
  <mgrwgt>
 -.6806627214D-03    9    2    0
 0.116451769219702D+04 0.000000000000000D+00 0.000000000000000D+00 0.116451769219702D+04
 0.116451769219702D+04 0.000000000000000D+00 0.000000000000000D+00 -.116451769219702D+04
 0.616481725903663D+03 -.114882991045917D+03 -.457314780183186D+03 -.376948018389150D+03
 0.110209173845900D+04 0.205352054891115D+03 0.459053181974949D+03 0.980666563950383D+03
 0.610461920031370D+03 -.904690638451976D+02 -.173840179176256D+01 -.603718545561233D+03
 0.000000000000000D+00 -.000000000000000D+00 -.000000000000000D+00 -.000000000000000D+00
 0.116467378966897D+04 0.000000000000000D+00 0.000000000000000D+00 0.116467378966897D+04
 0.187658104893150D+04 0.000000000000000D+00 0.000000000000000D+00 -.187658104893150D+04
 0.612880725437789D+03 -.112568164038453D+03 -.453030223595132D+03 -.376948018389150D+03
 0.110609949568244D+04 0.209509966742788D+03 0.466749138761005D+03 0.980666563950383D+03
 0.610128258950261D+03 -.881707545806935D+02 0.251558179701799D+01 -.603718545561233D+03
 0.712146358529974D+03 -.877104812364136D+01 -.162344969628902D+02 -.711907259262523D+03
0.201793772345D-04 0.000000000000D+00 0.000000000000D+00 0.827694529095D-05 0.000000000000D+00  6 4 2 25 4 2 21 0 0.83620435D-01 0.38384249D+00 0.29224190D+06 0.29224190D+06 0.29224190D+06 0.10853947D+01  1  2  2  2  6  2        2 0.521063924559D-05 0.100000000000D+01
0.409211401687D-05 0.000000000000D+00 -.774941219327D-07 0.827694529095D-05 0.000000000000D+00  6 4 2 25 4 2 21 2 0.83620435D-01 0.38384249D+00 0.29224190D+06 0.29224190D+06 0.29224190D+06 0.10853947D+01  1  2  3  2  6  2        2 0.124481950349D-05 0.100000000000D+01
-.139479504386D-04 0.000000000000D+00 0.000000000000D+00 0.827694529095D-05 0.000000000000D+00  6 4 2 25 4 2 21 2 0.83620435D-01 0.38384249D+00 0.29224190D+06 0.29224190D+06 0.29224190D+06 0.10853947D+01  1  2 15  2  6  2        2 -.424296113649D-05 0.100000000000D+01
0.133707997868D-01 0.000000000000D+00 0.000000000000D+00 0.827694529095D-05 0.000000000000D+00  6 4 2 25 4 2 21 2 0.83620435D-01 0.62930794D+00 0.30333977D+06 0.30333977D+06 0.30333977D+06 0.10841963D+01  1  2 12  2  6  2        2 0.324056255867D-03 0.100000000000D+01
-.146583076468D-01 0.000000000000D+00 0.000000000000D+00 0.827694529095D-05 0.000000000000D+00  6 4 2 25 4 2 21 2 0.83620435D-01 0.38384249D+00 0.29224190D+06 0.29224190D+06 0.29224190D+06 0.10853947D+01  1  2  4  2  6  2        2 -.445905152487D-02 0.100000000000D+01
-.141038787521D-01 0.000000000000D+00 -.763256805490D-05 0.827694529095D-05 0.000000000000D+00  6 4 2 25 4 2 21 2 0.83620435D-01 0.61856136D+00 0.29224190D+06 0.29224190D+06 0.29224190D+06 0.10853947D+01  1  2  5  2  6  2        2 -.393376034681D-03 0.100000000000D+01
0.126416401590D-01 0.000000000000D+00 0.683910050641D-05 0.827694529095D-05 0.000000000000D+00  6 4 2 25 4 2 21 2 0.83620435D-01 0.38384249D+00 0.29224190D+06 0.29224190D+06 0.29224190D+06 0.10853947D+01  1  2  6  2  6  2        2 0.384558205393D-02 0.100000000000D+01
0.747185256687D-03 0.000000000000D+00 0.000000000000D+00 0.827694529095D-05 0.000000000000D+00  6 4 21 25 4 2 -2 2 0.83620435D-01 0.62930794D+00 0.30333977D+06 0.30333977D+06 0.30333977D+06 0.10841963D+01  1  2 12  6  6  2        2 0.313643101582D-06 0.100000000000D+01
-.766272614456D-03 0.000000000000D+00 -.414858734318D-06 0.827694529095D-05 0.000000000000D+00  6 4 21 25 4 2 -2 2 0.83620435D-01 0.61856136D+00 0.29224190D+06 0.29224190D+06 0.29224190D+06 0.10853947D+01  1  2  5  6  6  2        2 -.399612387605D-06 0.100000000000D+01
  </mgrwgt>
  </event>
  <event>
  5     66 0.18046435E-05 0.33111418E+02 0.75467711E-02 0.84343167E-01
        2 -1    0    0  501    0 0.00000000E+00 0.00000000E+00 0.30649087E+04 0.30649087E+04 0.32000000E+00 0.0000E+00 0.9000E+01
        4 -1    0    0  502    0 0.00000000E+00 0.00000000E+00 -.16295444E+04 0.16295451E+04 0.15500000E+01 0.0000E+00 0.9000E+01
       25  1    1    2    0    0 0.94070907E+03 -.78450160E+02 0.16888673E+04 0.19388104E+04 0.12500000E+03 0.0000E+00 0.9000E+01
        2  1    1    2  501    0 -.92399021E+03 0.10702819E+03 0.10779409E+04 0.14237871E+04 0.32000000E+00 0.0000E+00 0.9000E+01
        4  1    1    2  502    0 -.16718863E+02 -.28578030E+02 -.13314439E+04 0.13318564E+04 0.15500000E+01 0.0000E+00 0.9000E+01
#aMCatNLO 1  0  0  2  5 0.16818515D+02 0.00000000D+00  -5  6  0 0.00000000D+00 0.00000000D+00 0.00000000D+00 0.00000000D+00 0.00000000D+00
  <mgrwgt>
 0.3071204199D-03    7    2    0
 0.223481688049023D+04 0.000000000000000D+00 0.000000000000000D+00 0.223481688049023D+04
 0.223481688049023D+04 0.000000000000000D+00 0.000000000000000D+00 -.223481688049023D+04
 0.149402795760715D+04 0.940603540894340D+03 -.784360542948746D+02 0.115135020838817D+04
 0.114910328433192D+04 -.923883399843897D+03 0.107015817833043D+03 0.674852158838381D+03
 0.182650251904138D+04 -.167201410504424D+02 -.285797635381684D+02 -.182620236722655D+04
 0.000000000000000D+00 0.000000000000000D+00 -.000000000000000D+00 -.000000000000000D+00
 0.238542764788988D+04 0.000000000000000D+00 0.000000000000000D+00 0.238542764788988D+04
 0.305659232703374D+04 0.000000000000000D+00 0.000000000000000D+00 -.305659232703374D+04
 0.140620467980656D+04 0.794743992681446D+03 0.675372878575450D+02 0.115135020838817D+04
 0.126502614509780D+04 -.104529566979824D+04 0.228522808912429D+03 0.674852158838381D+03
 0.184388907218159D+04 -.201312801774927D+03 0.156156909191898D+03 -.182620236722655D+04
 0.926900077837674D+03 0.451864478891721D+03 -.452217005961871D+03 -.671164679143860D+03
0.440406002811D-01 0.000000000000D+00 0.000000000000D+00 0.916298925538D-05 0.000000000000D+00  6 2 4 25 2 4 21 0 0.47152448D+00 0.25069919D+00 0.91707579D+06 0.91707579D+06 0.91707579D+06 0.10503757D+01  1  2  2  2  6  2        4 0.119111139949D-03 0.100000000000D+01
0.409944208743D-01 0.000000000000D+00 -.169127501236D-03 0.916298925538D-05 0.000000000000D+00  6 2 4 25 2 4 21 2 0.47152448D+00 0.25069919D+00 0.91707579D+06 0.91707579D+06 0.91707579D+06 0.10503757D+01  1  2  3  2  6  2        4 0.122324445225D-03 0.100000000000D+01
-.268911958551D-01 0.000000000000D+00 0.000000000000D+00 0.916298925538D-05 0.000000000000D+00  6 2 4 25 2 4 21 2 0.47152448D+00 0.25069919D+00 0.91707579D+06 0.91707579D+06 0.91707579D+06 0.10503757D+01  1  2 15  2  6  2        4 -.802414217414D-04 0.100000000000D+01
-.121589556356D-02 0.000000000000D+00 0.000000000000D+00 0.916298925538D-05 0.000000000000D+00  6 2 4 25 2 4 21 2 0.47152448D+00 0.25069919D+00 0.91707579D+06 0.91707579D+06 0.91707579D+06 0.10503757D+01  1  2  4  2  6  2        4 -.362814614993D-05 0.100000000000D+01
-.681425171115D-01 0.000000000000D+00 -.255235450372D-01 0.916298925538D-05 0.000000000000D+00  6 2 4 25 2 4 21 2 0.47152448D+00 0.35073227D+00 0.91707579D+06 0.91707579D+06 0.91707579D+06 0.10503757D+01  1  2  5  2  6  2        4 -.322183971612D-04 0.100000000000D+01
0.738826153843D-01 0.000000000000D+00 0.241493928228D-01 0.916298925538D-05 0.000000000000D+00  6 2 4 25 2 4 21 2 0.47152448D+00 0.25069919D+00 0.91707579D+06 0.91707579D+06 0.91707579D+06 0.10503757D+01  1  2  6  2  6  2        4 0.220460485742D-03 0.100000000000D+01
-.217783044235D-02 0.000000000000D+00 -.107007999896D-02 0.916298925538D-05 0.000000000000D+00  6 2 21 25 2 4 -4 2 0.47152448D+00 0.35073227D+00 0.91707579D+06 0.91707579D+06 0.91707579D+06 0.10503757D+01  1  2  5  6  6  2        4 -.386876859727D-04 0.100000000000D+01
  </mgrwgt>
  </event>
  <event>
  5     66 -.18046435E-05 0.14859122E+03 0.75467711E-02 0.94345778E-01
        2 -1    0    0  501    0 0.00000000E+00 0.00000000E+00 0.20803696E+04 0.20803696E+04 0.32000000E+00 0.0000E+00 0.9000E+01
        4 -1    0    0  502    0 0.00000000E+00 0.00000000E+00 -.64525707E+03 0.64525893E+03 0.15500000E+01 0.0000E+00 0.9000E+01
       25  1    1    2    0    0 0.20253215E+03 -.44887408E+03 0.60984983E+02 0.51171416E+03 0.12500000E+03 0.0000E+00 0.9000E+01
        2  1    1    2  501    0 -.82467498E+02 0.12360284E+03 0.17186875E+04 0.17250986E+04 0.32000000E+00 0.0000E+00 0.9000E+01
        4  1    1    2  502    0 -.12006465E+03 0.32527124E+03 -.34455993E+03 0.48881576E+03 0.15500000E+01 0.0000E+00 0.9000E+01
#aMCatNLO 1  0  0  2  5 0.27692361D+02 0.00000000D+00  -5  6  0 0.00000000D+00 0.00000000D+00 0.00000000D+00 0.00000000D+00 0.00000000D+00
  <mgrwgt>
 -.2152137386D-02    9    2    0
 0.115860940816873D+04 0.000000000000000D+00 0.000000000000000D+00 0.115860940816873D+04
 0.115860940816873D+04 0.000000000000000D+00 0.000000000000000D+00 -.115860940816873D+04
 0.564133218900543D+03 0.202527552172847D+03 -.448860809812943D+03 -.245209813612816D+03
 0.964737828095012D+03 -.824689958058903D+02 0.123605081425155D+03 0.953225957228468D+03
 0.788347769341912D+03 -.120058556366957D+03 0.325255728387788D+03 -.708016143615652D+03
 0.000000000000000D+00 0.000000000000000D+00 0.000000000000000D+00 -.000000000000000D+00
 0.115924086036560D+04 0.000000000000000D+00 0.000000000000000D+00 0.115924086036560D+04
 0.150808145888870D+04 0.000000000000000D+00 0.000000000000000D+00 -.150808145888870D+04
 0.567294431154744D+03 0.198777781996824D+03 -.454485986925423D+03 -.245209813612816D+03
 0.964124261623249D+03 -.888616180273236D+02 0.114015258443825D+03 0.953225957228468D+03
 0.785965589047148D+03 -.125276135483672D+03 0.317428633592069D+03 -.708016143615652D+03
 0.349938037429159D+03 0.153599715141716D+02 0.230420948895291D+02 -.348840598523104D+03
0.128178490093D-03 0.000000000000D+00 0.000000000000D+00 0.945835904462D-05 0.000000000000D+00  6 2 4 25 2 4 21 0 0.32005701D+00 0.99270463D-01 0.25167842D+06 0.25167842D+06 0.25167842D+06 0.10902406D+01  1  2  2  2  6  2        4 0.359611209963D-04 0.100000000000D+01
0.213294083993D-04 0.000000000000D+00 -.492239152130D-06 0.945835904462D-05 0.000000000000D+00  6 2 4 25 2 4 21 2 0.32005701D+00 0.99270463D-01 0.25167842D+06 0.25167842D+06 0.25167842D+06 0.10902406D+01  1  2  3  2  6  2        4 0.711281559677D-05 0.100000000000D+01
-.810803238075D-04 0.000000000000D+00 0.000000000000D+00 0.945835904462D-05 0.000000000000D+00  6 2 4 25 2 4 21 2 0.32005701D+00 0.99270463D-01 0.25167842D+06 0.25167842D+06 0.25167842D+06 0.10902406D+01  1  2 15  2  6  2        4 -.270382272670D-04 0.100000000000D+01
0.255483073924D-01 0.000000000000D+00 0.000000000000D+00 0.945835904462D-05 0.000000000000D+00  6 2 4 25 2 4 21 2 0.32005701D+00 0.13008091D+00 0.26268851D+06 0.26268851D+06 0.26268851D+06 0.10888453D+01  1  2 12  2  6  2        4 0.385443249977D-02 0.100000000000D+01
-.309699939494D-01 0.000000000000D+00 0.000000000000D+00 0.945835904462D-05 0.000000000000D+00  6 2 4 25 2 4 21 2 0.32005701D+00 0.99270463D-01 0.25167842D+06 0.25167842D+06 0.25167842D+06 0.10902406D+01  1  2  4  2  6  2        4 -.103277058544D-01 0.100000000000D+01
-.264028951459D-01 0.000000000000D+00 -.107554872361D-03 0.945835904462D-05 0.000000000000D+00  6 2 4 25 2 4 21 2 0.32005701D+00 0.12924029D+00 0.25167842D+06 0.25167842D+06 0.25167842D+06 0.10902406D+01  1  2  5  2  6  2        4 -.408347998902D-02 0.100000000000D+01
0.255408700668D-01 0.000000000000D+00 0.103917327037D-03 0.945835904462D-05 0.000000000000D+00  6 2 4 25 2 4 21 2 0.32005701D+00 0.99270463D-01 0.25167842D+06 0.25167842D+06 0.25167842D+06 0.10902406D+01  1  2  6  2  6  2        4 0.851723102515D-02 0.100000000000D+01
0.915626697542D-03 0.000000000000D+00 0.000000000000D+00 0.945835904462D-05 0.000000000000D+00  6 2 21 25 2 4 -4 2 0.32005701D+00 0.13008091D+00 0.26268851D+06 0.26268851D+06 0.26268851D+06 0.10888453D+01  1  2 12  6  6  2        4 0.327227767576D-02 0.100000000000D+01
-.927643451962D-03 0.000000000000D+00 -.378686431977D-05 0.945835904462D-05 0.000000000000D+00  6 2 21 25 2 4 -4 2 0.32005701D+00 0.12924029D+00 0.25167842D+06 0.25167842D+06 0.25167842D+06 0.10902406D+01  1  2  5  6  6  2        4 -.340092845288D-02 0.100000000000D+01
  </mgrwgt>
  </event>
  <event>
  5     66 0.18046435E-05 0.10573651E+03 0.75467711E-02 0.93552712E-01
        2 -1    0    0  501    0 0.00000000E+00 0.00000000E+00 0.13922082E+04 0.13922083E+04 0.32000000E+00 0.0000E+00 0.9000E+01
        4 -1    0    0  502    0 0.00000000E+00 0.00000000E+00 -.10594202E+04 0.10594213E+04 0.15500000E+01 0.0000E+00 0.9000E+01
       25  1    1    2    0    0 0.49842792E+03 0.19392982E+03 -.88504068E+00 0.54924034E+03 0.12500000E+03 0.0000E+00 0.9000E+01
        2  1    1    2  501    0 -.39289563E+03 -.20056380E+03 0.10705967E+04 0.11579164E+04 0.32000000E+00 0.0000E+00 0.9000E+01
        4  1    1    2  502    0 -.10553229E+03 0.66339774E+01 -.73692366E+03 0.74447294E+03 0.15500000E+01 0.0000E+00 0.9000E+01
#aMCatNLO 1  0  0  5  2 0.26909174D+02 0.00000000D+00  -5  6  0 0.00000000D+00 0.00000000D+00 0.00000000D+00 0.00000000D+00 0.00000000D+00
  <mgrwgt>
 0.2237268609D-03    7    2    0
 0.121446901897269D+04 0.000000000000000D+00 0.000000000000000D+00 0.121446901897269D+04
 0.121446901897269D+04 -.000000000000000D+00 -.000000000000000D+00 -.121446901897269D+04
 0.554502381290018D+03 0.498430699034205D+03 0.193933960266508D+03 -.761862728575346D+02
 0.102206943434720D+04 -.392902467309373D+03 -.200567287988679D+03 0.921968732006612D+03
 0.852366222308169D+03 -.105528231724833D+03 0.663332772217140D+01 -.845782459149077D+03
 0.000000000000000D+00 0.000000000000000D+00 0.000000000000000D+00 -.000000000000000D+00
 0.121446901897269D+04 0.000000000000000D+00 0.000000000000000D+00 0.121446901897269D+04
 0.121446901897269D+04 -.000000000000000D+00 -.000000000000000D+00 -.121446901897269D+04
 0.554513362580340D+03 0.498382353035970D+03 0.193936999214902D+03 -.765737539761848D+02
 0.102145858776911D+04 -.392991552070070D+03 -.200561688269977D+03 0.921254739866843D+03
 0.393352059717738D+03 -.718969268344067D+02 -.100914542518716D+02 -.386593892019827D+03
 0.459614027878196D+03 -.334938741314936D+02 0.167161433069469D+02 -.458087093870832D+03
0.894976348779D-04 0.000000000000D+00 0.000000000000D+00 0.149335459257D-04 0.000000000000D+00  6 2 4 25 2 4 21 0 0.21418597D+00 0.16298782D+00 0.30036677D+06 0.30036677D+06 0.30036677D+06 0.10845126D+01  1  2  2  4  6  5        4 0.130043296293D-04 0.100000000000D+01
0.214373048477D-04 0.000000000000D+00 -.343694483200D-06 0.149335459257D-04 0.000000000000D+00  6 2 4 25 2 4 21 2 0.21418597D+00 0.16298782D+00 0.30036677D+06 0.30036677D+06 0.30036677D+06 0.10845126D+01  1  2  3  4  6  5        4 0.366366542808D-05 0.100000000000D+01
-.542082222622D-04 0.000000000000D+00 0.000000000000D+00 0.149335459257D-04 0.000000000000D+00  6 2 4 25 2 4 21 2 0.21418597D+00 0.16298782D+00 0.30036677D+06 0.30036677D+06 0.30036677D+06 0.10845126D+01  1  2 15  4  6  5        4 -.926426112009D-05 0.100000000000D+01
0.336198051276D-02 0.000000000000D+00 0.000000000000D+00 0.149335459257D-04 0.000000000000D+00  6 2 4 25 2 4 21 2 0.21418597D+00 0.16298782D+00 0.30274604D+06 0.30274604D+06 0.30274604D+06 0.10842592D+01  1  2 12  4  6  5        4 0.574084247184D-03 0.100000000000D+01
-.476734917474D-02 0.000000000000D+00 0.000000000000D+00 0.149335459257D-04 0.000000000000D+00  6 2 4 25 2 4 21 2 0.21418597D+00 0.16298782D+00 0.30036677D+06 0.30036677D+06 0.30036677D+06 0.10845126D+01  1  2  4  4  6  5        4 -.814746652120D-03 0.100000000000D+01
-.411549003943D-02 0.000000000000D+00 0.000000000000D+00 0.149335459257D-04 0.000000000000D+00  6 2 4 25 2 4 21 2 0.21418597D+00 0.16298782D+00 0.30036677D+06 0.30036677D+06 0.30036677D+06 0.10845126D+01  1  2  5  4  6  5        4 -.703343012763D-03 0.100000000000D+01
0.678946187188D-02 0.000000000000D+00 -.000000000000D+00 0.149335459257D-04 0.000000000000D+00  6 2 4 25 2 4 21 2 0.21418597D+00 0.16298782D+00 0.30036677D+06 0.30036677D+06 0.30036677D+06 0.10845126D+01  1  2  6  4  6  5        4 0.116032854466D-02 0.100000000000D+01
  </mgrwgt>
  </event>
  <event>
  5     66 0.18046435E-05 0.12343603E+02 0.75467711E-02 0.91743141E-01
        4 -1    0    0  501    0 0.00000000E+00 0.00000000E+00 0.16073812E+04 0.16073820E+04 0.15500000E+01 0.0000E+00 0.9000E+01
        2 -1    0    0  502    0 0.00000000E+00 0.00000000E+00 -.68464147E+03 0.68464154E+03 0.32000000E+00 0.0000E+00 0.9000E+01
       25  1    1    2    0    0 -.60787390E+02 0.59454690E+03 -.30827577E+03 0.68398835E+03 0.12500000E+03 0.0000E+00 0.9000E+01
        4  1    1    2  501    0 0.50348179E+02 -.58797069E+03 0.13578814E+04 0.14805704E+04 0.15500000E+01 0.0000E+00 0.9000E+01
        2  1    1    2  502    0 0.10439212E+02 -.65762008E+01 -.12686585E+03 0.12746477E+03 0.32000000E+00 0.0000E+00 0.9000E+01
#aMCatNLO 1  0  0  2  1 0.16512277D+02 0.00000000D+00  -5  6  0 0.00000000D+00 0.00000000D+00 0.00000000D+00 0.00000000D+00 0.00000000D+00
  <mgrwgt>
 0.4418026421D-04    4    2    0
 0.104903802662931D+04 0.000000000000000D+00 0.000000000000000D+00 0.104903802662931D+04
 0.104903802662931D+04 0.000000000000000D+00 0.000000000000000D+00 -.104903802662931D+04
 0.882693577989767D+03 -.607909567585177D+02 0.594540188872529D+03 -.637455391393138D+03
 0.102021604845230D+04 0.503472918989123D+02 -.587960340517322D+03 0.832231081909847D+03
 0.195166426816546D+03 0.104436648596054D+02 -.657984835520722D+01 -.194775690516709D+03
 0.000000000000000D+00 -.000000000000000D+00 0.000000000000000D+00 0.000000000000000D+00
 0.137085239126070D+04 0.000000000000000D+00 0.000000000000000D+00 0.137085239126070D+04
 0.105409863681039D+04 0.000000000000000D+00 0.000000000000000D+00 -.105409863681039D+04
 0.861944617375326D+03 -.550386996700168D+02 0.563866020384942D+03 -.637455391393138D+03
 0.104188291024473D+04 0.571462507798242D+02 -.624216093180076D+03 0.832231081909847D+03
 0.195591709093584D+03 0.117320358600512D+02 -.134501444032050D+02 -.194775690516709D+03
 0.325531791357449D+03 -.138395869698586D+02 0.738002171983394D+02 0.316753754450316D+03
0.582090628258D-03 0.000000000000D+00 0.000000000000D+00 0.678739023743D-05 0.000000000000D+00  6 4 2 25 4 2 21 0 0.24728948D+00 0.10532952D+00 0.36785922D+06 0.36785922D+06 0.36785922D+06 0.10780600D+01  1  2  2  2  6  2        2 0.465867049611D-04 0.100000000000D+01
0.363151668766D-03 0.000000000000D+00 -.223538128049D-05 0.678739023743D-05 0.000000000000D+00  6 4 2 25 4 2 21 2 0.24728948D+00 0.10532952D+00 0.36785922D+06 0.36785922D+06 0.36785922D+06 0.10780600D+01  1  2  3  2  6  2        2 0.337788815893D-04 0.100000000000D+01
-.376476448722D-03 0.000000000000D+00 0.000000000000D+00 0.678739023743D-05 0.000000000000D+00  6 4 2 25 4 2 21 2 0.24728948D+00 0.10532952D+00 0.36785922D+06 0.36785922D+06 0.36785922D+06 0.10780600D+01  1  2 15  2  6  2        2 -.350182980729D-04 0.100000000000D+01
-.125465021385D-04 0.000000000000D+00 0.000000000000D+00 0.678739023743D-05 0.000000000000D+00  6 4 2 25 4 2 21 2 0.24728948D+00 0.10532952D+00 0.36785922D+06 0.36785922D+06 0.36785922D+06 0.10780600D+01  1  2  4  2  6  2        2 -.116702426713D-05 0.100000000000D+01
  </mgrwgt>
  </event>
  <event>
  5     66 0.18046435E-05 0.84929654E+02 0.75467711E-02 0.90339127E-01
        2 -1    0    0  501    0 0.00000000E+00 0.00000000E+00 0.15149493E+04 0.15149493E+04 0.32000000E+00 0.0000E+00 0.9000E+01
        4 -1    0    0  502    0 0.00000000E+00 0.00000000E+00 -.85153202E+03 0.85153343E+03 0.15500000E+01 0.0000E+00 0.9000E+01
       25  1    1    2    0    0 0.48861902E+03 0.17012710E+03 0.55516386E+03 0.76910577E+03 0.12500000E+03 0.0000E+00 0.9000E+01
        2  1    1    2  501    0 0.36868403E+02 0.76530236E+02 0.73685607E+03 0.74173656E+03 0.32000000E+00 0.0000E+00 0.9000E+01
        4  1    1    2  502    0 -.52548742E+03 -.24665733E+03 -.62860265E+03 0.85564044E+03 0.15500000E+01 0.0000E+00 0.9000E+01
#aMCatNLO 1  0  0  1  2 0.57054970D+02 0.00000000D+00  -5  6  0 0.00000000D+00 0.00000000D+00 0.00000000D+00 0.00000000D+00 0.00000000D+00
  <mgrwgt>
 0.1693620192D-02    6    2    0
 0.113579467836588D+04 0.000000000000000D+00 0.000000000000000D+00 0.113579467836588D+04
 0.113579467836588D+04 0.000000000000000D+00 0.000000000000000D+00 -.113579467836588D+04
 0.639209015099128D+03 0.488680973905733D+03 0.170166116899350D+03 0.353832677103088D+03
 0.557402940847263D+03 0.368604577568121D+02 0.765137426041320D+02 0.550894719807555D+03
 0.107497740078538D+04 -.525541431662546D+03 -.246679859503482D+03 -.904727396910643D+03
 0.000000000000000D+00 0.000000000000000D+00 -.000000000000000D+00 0.000000000000000D+00
 0.225288604191812D+04 0.000000000000000D+00 0.000000000000000D+00 0.225288604191812D+04
 0.115519112807283D+04 0.000000000000000D+00 0.000000000000000D+00 -.115519112807283D+04
 0.653367530272419D+03 0.479091964371062D+03 0.237776062511389D+03 0.353832677103088D+03
 0.568001337108707D+03 0.285116196239201D+02 0.135379519100399D+03 0.550894719807555D+03
 0.106293593291042D+04 -.541401592064278D+03 -.134853442157440D+03 -.904727396910643D+03
 0.112377236969939D+04 0.337980080692960D+02 -.238302139454349D+03 0.109769491384529D+04
0.760465943673D-03 0.000000000000D+00 0.000000000000D+00 0.406978800904D-05 0.000000000000D+00  6 2 4 25 2 4 21 0 0.23306923D+00 0.13100504D+00 0.35869896D+06 0.35869896D+06 0.35869896D+06 0.10788563D+01  1  2  2  1  6  1        2 0.189943179774D-03 0.100000000000D+01
0.174848707074D-03 0.000000000000D+00 -.292038945899D-05 0.406978800904D-05 0.000000000000D+00  6 2 4 25 2 4 21 2 0.23306923D+00 0.13100504D+00 0.35869896D+06 0.35869896D+06 0.35869896D+06 0.10788563D+01  1  2  3  1  6  1        2 0.508315746172D-04 0.100000000000D+01
-.444490423781D-03 0.000000000000D+00 0.000000000000D+00 0.406978800904D-05 0.000000000000D+00  6 2 4 25 2 4 21 2 0.23306923D+00 0.13100504D+00 0.35869896D+06 0.35869896D+06 0.35869896D+06 0.10788563D+01  1  2 15  1  6  1        2 -.129221133637D-03 0.100000000000D+01
-.780082433643D-02 0.000000000000D+00 -.373636477525D-03 0.406978800904D-05 0.000000000000D+00  6 2 4 25 2 4 21 2 0.46377845D+00 0.13100504D+00 0.35869896D+06 0.35869896D+06 0.35869896D+06 0.10788563D+01  1  2  5  1  6  1        2 -.313454555742D-03 0.100000000000D+01
0.652517302026D-02 0.000000000000D+00 0.299818411298D-03 0.406978800904D-05 0.000000000000D+00  6 2 4 25 2 4 21 2 0.23306923D+00 0.13100504D+00 0.35869896D+06 0.35869896D+06 0.35869896D+06 0.10788563D+01  1  2  6  1  6  1        2 0.189698182401D-02 0.100000000000D+01
-.558588727227D-03 0.000000000000D+00 -.278240796122D-04 0.406978800904D-05 0.000000000000D+00  6 21 4 25 2 4 -2 2 0.46377845D+00 0.13100504D+00 0.35869896D+06 0.35869896D+06 0.35869896D+06 0.10788563D+01  1  2  5  5  6  1        2 -.146069678168D-05 0.100000000000D+01
  </mgrwgt>
  </event>
  <event>
  5     66 -.18046435E-05 0.91116183E+02 0.75467711E-02 0.93345184E-01
        4 -1    0    0  501    0 0.00000000E+00 0.00000000E+00 0.44462057E+03 0.44462327E+03 0.15500000E+01 0.0000E+00 0.9000E+01
        2 -1    0    0  502    0 0.00000000E+00 0.00000000E+00 -.22603752E+04 0.22603752E+04 0.32000000E+00 0.0000E+00 0.9000E+01
       25  1    1    2    0    0 0.32406212E+03 -.41597337E+03 -.10926046E+04 0.12196147E+04 0.12500000E+03 0.0000E+00 0.9000E+01
        4  1    1    2  501    0 -.23316963E+03 0.42129976E+03 0.22596885E+03 0.53190778E+03 0.15500000E+01 0.0000E+00 0.9000E+01
        2  1    1    2  502    0 -.90892488E+02 -.53263828E+01 -.94911887E+03 0.95347604E+03 0.32000000E+00 0.0000E+00 0.9000E+01
#aMCatNLO 1  0  0  2  5 0.90755504D+01 0.00000000D+00  -5  6  0 0.00000000D+00 0.00000000D+00 0.00000000D+00 0.00000000D+00 0.00000000D+00
  <mgrwgt>
 -.1943148367D-02   11    2    0
 0.100250336074318D+04 0.000000000000000D+00 0.000000000000000D+00 0.100250336074318D+04
 0.100250336074318D+04 0.000000000000000D+00 0.000000000000000D+00 -.100250336074318D+04
 0.655696745811866D+03 0.324105239816141D+03 -.415934630942632D+03 -.369144143627675D+03
 0.922147368586113D+03 -.233144480222151D+03 0.421254310303738D+03 0.786475827208159D+03
 0.427162607088380D+03 -.909607595939896D+02 -.531967936110590D+01 -.417331683580484D+03
 0.000000000000000D+00 -.000000000000000D+00 0.000000000000000D+00 -.000000000000000D+00
 0.100260780302071D+04 0.000000000000000D+00 0.000000000000000D+00 0.100260780302071D+04
 0.122117023486935D+04 0.000000000000000D+00 0.000000000000000D+00 -.122117023486935D+04
 0.657359088766069D+03 0.327060714096792D+03 -.416244954447791D+03 -.369144143627675D+03
 0.920908152778076D+03 -.228996063187810D+03 0.420818728331874D+03 0.786475827208159D+03
 0.426760019821613D+03 -.890387191940016D+02 -.552149276137341D+01 -.417331683580484D+03
 0.218750776524299D+03 -.902593171498087D+01 0.947718877289987D+00 -.218562431848636D+03
0.725659932144D-05 0.000000000000D+00 0.000000000000D+00 0.268904695740D-05 0.000000000000D+00  6 4 2 25 4 2 21 0 0.68403373D-01 0.34775024D+00 0.31052663D+06 0.31052663D+06 0.31052663D+06 0.10834455D+01  1  2  2  2  6  2        2 0.423177246191D-05 0.100000000000D+01
0.128487826633D-05 0.000000000000D+00 -.278672521008D-07 0.268904695740D-05 0.000000000000D+00  6 4 2 25 4 2 21 2 0.68403373D-01 0.34775024D+00 0.31052663D+06 0.31052663D+06 0.31052663D+06 0.10834455D+01  1  2  3  2  6  2        2 0.879559620034D-06 0.100000000000D+01
-.488327025693D-05 0.000000000000D+00 0.000000000000D+00 0.268904695740D-05 0.000000000000D+00  6 4 2 25 4 2 21 2 0.68403373D-01 0.34775024D+00 0.31052663D+06 0.31052663D+06 0.31052663D+06 0.10834455D+01  1  2 15  2  6  2        2 -.334282822293D-05 0.100000000000D+01
0.505752494416D-02 0.000000000000D+00 0.000000000000D+00 0.268904695740D-05 0.000000000000D+00  6 4 2 25 4 2 21 2 0.68403373D-01 0.42761710D+00 0.31432838D+06 0.31432838D+06 0.31432838D+06 0.10830559D+01  1  2 12  2  6  2        2 0.172378966718D-02 0.100000000000D+01
-.785168234227D-02 0.000000000000D+00 0.000000000000D+00 0.268904695740D-05 0.000000000000D+00  6 4 2 25 4 2 21 2 0.68403373D-01 0.34775024D+00 0.31052663D+06 0.31052663D+06 0.31052663D+06 0.10834455D+01  1  2  4  2  6  2        2 -.537484594344D-02 0.100000000000D+01
-.537108009717D-02 0.000000000000D+00 -.562409726277D-05 0.268904695740D-05 0.000000000000D+00  6 4 2 25 4 2 21 2 0.68403373D-01 0.42361329D+00 0.31052663D+06 0.31052663D+06 0.31052663D+06 0.10834455D+01  1  2  5  2  6  2        2 -.190097570440D-02 0.100000000000D+01
0.526936535015D-02 0.000000000000D+00 0.551634048106D-05 0.268904695740D-05 0.000000000000D+00  6 4 2 25 4 2 21 2 0.68403373D-01 0.34775024D+00 0.31052663D+06 0.31052663D+06 0.31052663D+06 0.10834455D+01  1  2  6  2  6  2        2 0.360712847797D-02 0.100000000000D+01
0.113755846150D-05 0.000000000000D+00 0.000000000000D+00 0.268904695740D-05 0.350098655975D-06  6 4 2 25 4 2 21 2 0.68410500D-01 0.42360182D+00 0.31432838D+06 0.31432838D+06 0.31432838D+06 0.10830559D+01  1  2 11  2  6  2        2 0.401983257404D-06 0.100000000000D+01
0.148446895071D-03 0.000000000000D+00 0.000000000000D+00 0.268904695740D-05 0.000000000000D+00  6 4 21 25 4 2 -2 2 0.68403373D-01 0.42761710D+00 0.31432838D+06 0.31432838D+06 0.31432838D+06 0.10830559D+01  1  2 12  6  6  2        2 0.435019569128D-05 0.100000000000D+01
-.152065532294D-03 0.000000000000D+00 -.159295205102D-06 0.268904695740D-05 0.000000000000D+00  6 4 21 25 4 2 -2 2 0.68403373D-01 0.42361329D+00 0.31052663D+06 0.31052663D+06 0.31052663D+06 0.10834455D+01  1  2  5  6  6  2        2 -.476622463366D-05 0.100000000000D+01
0.216566462023D-07 0.000000000000D+00 0.000000000000D+00 0.268904695740D-05 0.624125683281D-08  6 4 21 25 4 2 -2 2 0.68410500D-01 0.42360182D+00 0.31432838D+06 0.31432838D+06 0.31432838D+06 0.10830559D+01  1  2 11  6  6  2        2 0.677341787194D-09 0.100000000000D+01
  </mgrwgt>
  </event>
  <event>
  6     66 -.18046435E-05 0.61129427E+02 0.75467711E-02 0.91427199E-01
        4 -1    0    0  501    0 0.00000000E+00 0.00000000E+00 0.10530220E+04 0.10530231E+04 0.15500000E+01 0.0000E+00 0.9000E+01
        2 -1    0    0  502    0 -.00000000E+00 -.00000000E+00 -.21901674E+04 0.21901674E+04 0.32000000E+00 0.0000E+00 0.9000E+01
       25  1    1    2    0    0 -.96860077E+02 -.59639836E+03 -.78373863E+03 0.99746886E+03 0.12500000E+03 0.0000E+00 0.9000E+01
        4  1    1    2  503    0 0.27954614E+02 0.51506319E+03 0.70473761E+03 0.87334360E+03 0.15500000E+01 0.0000E+00 0.9000E+01
        2  1    1    2  502    0 0.59868893E+02 -.48041902E+02 -.11870441E+04 0.11895235E+04 0.32000000E+00 0.0000E+00 0.9000E+01
       21  1    1    2  501  503 0.90365704E+01 0.12937707E+03 0.12889974E+03 0.18285456E+03 0.75000000E+00 0.0000E+00 0.9000E+01
#aMCatNLO 2  0  0  4  1 0.23482565D+02 0.00000000D+00  -5  6  0 0.00000000D+00 0.00000000D+00 0.00000000D+00 0.00000000D+00 0.00000000D+00
  <mgrwgt>
 -.1106869338D-02    2    2    0
 0.151864948577042D+04 0.000000000000000D+00 0.000000000000000D+00 0.151864948577042D+04
 0.151864948577042D+04 -.000000000000000D+00 -.000000000000000D+00 -.151864948577042D+04
 0.771541068173862D+03 -.969085439531734D+02 -.596479254443711D+03 -.463111059040933D+03
 0.143915255279180D+04 0.370069867443194D+02 0.644715565244038D+03 0.128613078381296D+04
 0.826605350575165D+03 0.599015572088540D+02 -.482363108003271D+02 -.823019724772026D+03
 0.000000000000000D+00 0.000000000000000D+00 0.000000000000000D+00 0.000000000000000D+00
 0.151864948577042D+04 0.000000000000000D+00 0.000000000000000D+00 0.151864948577042D+04
 0.151864948577042D+04 -.000000000000000D+00 -.000000000000000D+00 -.151864948577042D+04
 0.771233975678417D+03 -.968996305541164D+02 -.596323970060494D+03 -.462801285186745D+03
 0.119609622202757D+04 0.279452918362940D+02 0.514917400695654D+03 0.107922439903554D+04
 0.826265907635520D+03 0.599111066899485D+02 -.480699449423294D+02 -.822687844695165D+03
 0.243702866199330D+03 0.904323202787386D+01 0.129476514307170D+03 0.206264730846366D+03
-.620361766248D-01 0.000000000000D+00 0.000000000000D+00 0.147929432595D-04 0.000000000000D+00  6 4 2 25 4 2 21 2 0.16200347D+00 0.33694892D+00 0.44837785D+06 0.44837785D+06 0.44837785D+06 0.10718713D+01  1  2 13  3  6  4        4 -.375893269223D-02 0.100000000000D+01
0.437687727206D-01 0.000000000000D+00 0.000000000000D+00 0.147929432595D-04 0.798324973762D-07  6 4 2 25 4 2 21 2 0.16200347D+00 0.33694892D+00 0.44837785D+06 0.44837785D+06 0.44837785D+06 0.10718713D+01  1  2  1  3  6  4        4 0.265206335448D-02 0.100000000000D+01
  </mgrwgt>
  </event>
  <event>
  5     66 0.18046435E-05 0.75272579E+02 0.75467711E-02 0.93493202E-01
        4 -1    0    0  501    0 0.00000000E+00 0.00000000E+00 0.92412604E+03 0.92412734E+03 0.15500000E+01 0.0000E+00 0.9000E+01
        2 -1    0    0  502    0 -.00000000E+00 -.00000000E+00 -.11890831E+04 0.11890832E+04 0.32000000E+00 0.0000E+00 0.9000E+01
       25  1    1    2    0    0 0.42344677E+03 -.33753458E+03 -.83072926E+03 0.99948630E+03 0.12500000E+03 0.0000E+00 0.9000E+01
        4  1    1    2  501    0 -.34966970E+03 0.32289767E+03 0.76488460E+03 0.90087883E+03 0.15500000E+01 0.0000E+00 0.9000E+01
        2  1    1    2  502    0 -.73777066E+02 0.14636907E+02 -.19911241E+03 0.21284537E+03 0.32000000E+00 0.0000E+00 0.9000E+01
#aMCatNLO 1  0  0  5  2 0.11357565D+02 0.00000000D+00  -5  6  0 0.00000000D+00 0.00000000D+00 0.00000000D+00 0.00000000D+00 0.00000000D+00
  <mgrwgt>
 0.2203649937D-03    7    2    0
 0.104826718129553D+04 0.000000000000000D+00 0.000000000000000D+00 0.104826718129553D+04
 0.104826718129553D+04 -.000000000000000D+00 -.000000000000000D+00 -.104826718129553D+04
 0.902294810845694D+03 0.423487402901300D+03 -.337542358267499D+03 -.710798495804679D+03
 0.100466824382306D+04 -.349655727070740D+03 0.322884771152115D+03 0.884785045777326D+03
 0.189571307922318D+03 -.738316758305594D+02 0.146575871153832D+02 -.173986549972647D+03
 0.000000000000000D+00 -.000000000000000D+00 0.000000000000000D+00 0.000000000000000D+00
 0.104826718129553D+04 0.000000000000000D+00 0.000000000000000D+00 0.104826718129553D+04
 0.104826718129553D+04 -.000000000000000D+00 -.000000000000000D+00 -.104826718129553D+04
 0.902759671741056D+03 0.423133557304438D+03 -.337472110333898D+03 -.711632343525570D+03
 0.100401351501402D+04 -.350049489809049D+03 0.322962943719305D+03 0.883857132120005D+03
 0.392225653118665D+02 -.424368459187713D+01 0.184794097032045D+01 -.389485029866169D+02
 0.150538610524125D+03 -.688403829035127D+02 0.126612256442728D+02 -.133276285607818D+03
0.762687150540D-04 0.000000000000D+00 0.000000000000D+00 0.727599331566D-06 0.000000000000D+00  6 4 2 25 4 2 21 0 0.14217334D+00 0.18293597D+00 0.30636012D+06 0.30636012D+06 0.30636012D+06 0.10838784D+01  1  2  2  4  6  5        2 0.226523820554D-04 0.100000000000D+01
0.888315188158D-05 0.000000000000D+00 -.292891947821D-06 0.727599331566D-06 0.000000000000D+00  6 4 2 25 4 2 21 2 0.14217334D+00 0.18293597D+00 0.30636012D+06 0.30636012D+06 0.30636012D+06 0.10838784D+01  1  2  3  4  6  5        2 0.309952890421D-05 0.100000000000D+01
-.470173899362D-04 0.000000000000D+00 0.000000000000D+00 0.727599331566D-06 0.000000000000D+00  6 4 2 25 4 2 21 2 0.14217334D+00 0.18293597D+00 0.30636012D+06 0.30636012D+06 0.30636012D+06 0.10838784D+01  1  2 15  4  6  5        2 -.164054111705D-04 0.100000000000D+01
0.244312116208D-03 0.000000000000D+00 0.000000000000D+00 0.727599331566D-06 0.000000000000D+00  6 4 2 25 4 2 21 2 0.14217334D+00 0.18293597D+00 0.30601768D+06 0.30601768D+06 0.30601768D+06 0.10839143D+01  1  2 12  4  6  5        2 0.852552649163D-04 0.100000000000D+01
-.243737250002D-03 0.000000000000D+00 0.000000000000D+00 0.727599331566D-06 0.000000000000D+00  6 4 2 25 4 2 21 2 0.14217334D+00 0.18293597D+00 0.30636012D+06 0.30636012D+06 0.30636012D+06 0.10838784D+01  1  2  4  4  6  5        2 -.850453376778D-04 0.100000000000D+01
-.244787921059D-03 0.000000000000D+00 0.000000000000D+00 0.727599331566D-06 0.000000000000D+00  6 4 2 25 4 2 21 2 0.14217334D+00 0.18293597D+00 0.30636012D+06 0.30636012D+06 0.30636012D+06 0.10838784D+01  1  2  5  4  6  5        2 -.854119401352D-04 0.100000000000D+01
0.848958610600D-03 0.000000000000D+00 -.000000000000D+00 0.727599331566D-06 0.000000000000D+00  6 4 2 25 4 2 21 2 0.14217334D+00 0.18293597D+00 0.30636012D+06 0.30636012D+06 0.30636012D+06 0.10838784D+01  1  2  6  4  6  5        2 0.296220506765D-03 0.100000000000D+01
  </mgrwgt>
  </event>
  <event>
  5     66 0.18046435E-05 0.67638291E+02 0.75467711E-02 0.92125163E-01
        2 -1    0    0  501    0 0.00000000E+00 0.00000000E+00 0.14843678E+04 0.14843678E+04 0.32000000E+00 0.0000E+00 0.9000E+01
        4 -1    0    0  502    0 0.00000000E+00 0.00000000E+00 -.51607643E+03 0.51607876E+03 0.15500000E+01 0.0000E+00 0.9000E+01
       25  1    1    2    0    0 0.20735929E+03 -.51920683E+03 0.31240403E+03 0.65252961E+03 0.12500000E+03 0.0000E+00 0.9000E+01
        2  1    1    2  501    0 -.19199799E+02 -.64873312E+02 0.72702459E+03 0.73016576E+03 0.32000000E+00 0.0000E+00 0.9000E+01
        4  1    1    2  502    0 -.18815949E+03 0.58408014E+03 -.71137299E+02 0.61775119E+03 0.15500000E+01 0.0000E+00 0.9000E+01
#aMCatNLO 1  0  0  5  5 0.36256714D+03 0.00000000D+00  -5  6  0 0.00000000D+00 0.00000000D+00 0.00000000D+00 0.00000000D+00 0.00000000D+00
  <mgrwgt>
 0.1362352349D-02    3    2    0
 0.875242583301142D+03 0.000000000000000D+00 0.000000000000000D+00 0.875242583301142D+03
 0.875242583301142D+03 -.000000000000000D+00 -.000000000000000D+00 -.875242583301142D+03
 0.572978954829674D+03 0.207380397774925D+03 -.519286228498506D+03 -.388151880278969D+01
 0.432166214776937D+03 -.191950990206202D+02 -.648574330611280D+02 0.426840366817544D+03
 0.745339996995674D+03 -.188185298754305D+03 0.584143661559634D+03 -.422958848014754D+03
 0.000000000000000D+00 0.000000000000000D+00 0.000000000000000D+00 0.000000000000000D+00
 0.875242583301142D+03 0.000000000000000D+00 0.000000000000000D+00 0.875242583301142D+03
 0.875242583301142D+03 -.000000000000000D+00 -.000000000000000D+00 -.875242583301142D+03
 0.467964985033863D+03 0.171667591276067D+03 -.408430546939394D+03 -.841484025398235D+02
 0.368628245493374D+03 -.466688336856590D+02 0.204234473805835D+02 0.365091339441292D+03
 0.375248892918907D+03 -.336759523719012D+03 -.870293614092929D+02 -.140821323222372D+03
 0.538643043156141D+03 0.211760766128604D+03 0.475036460968104D+03 -.140121613679096D+03
0.193719111206D-02 0.000000000000D+00 0.000000000000D+00 0.924938114817D-06 0.000000000000D+00  6 2 4 25 2 4 21 0 0.22836445D+00 0.79396556D-01 0.39332472D+06 0.39332472D+06 0.39332472D+06 0.10759549D+01  1  2  2  4  6  5        4 0.205465769652D-02 0.100000000000D+01
0.586500689940D-03 0.000000000000D+00 -.743932394446D-05 0.924938114817D-06 0.000000000000D+00  6 2 4 25 2 4 21 2 0.22836445D+00 0.79396556D-01 0.39332472D+06 0.39332472D+06 0.39332472D+06 0.10759549D+01  1  2  3  4  6  5        4 0.720151175609D-03 0.100000000000D+01
-.115032336750D-02 0.000000000000D+00 0.000000000000D+00 0.924938114817D-06 0.000000000000D+00  6 2 4 25 2 4 21 2 0.22836445D+00 0.79396556D-01 0.39332472D+06 0.39332472D+06 0.39332472D+06 0.10759549D+01  1  2 15  4  6  5        4 -.141245652332D-02 0.100000000000D+01
  </mgrwgt>
  </event>
  <event>
  5     66 -.18046435E-05 0.29996066E+02 0.75467711E-02 0.92950376E-01
        2 -1    0    0  501    0 0.00000000E+00 0.00000000E+00 0.87250261E+03 0.87250267E+03 0.32000000E+00 0.0000E+00 0.9000E+01
        4 -1    0    0  502    0 0.00000000E+00 0.00000000E+00 -.10745878E+04 0.10745889E+04 0.15500000E+01 0.0000E+00 0.9000E+01
       25  1    1    2    0    0 -.54094695E+03 -.18450208E+03 -.18518463E+03 0.61366356E+03 0.12500000E+03 0.0000E+00 0.9000E+01
        2  1    1    2  501    0 0.17756079E+02 0.24179493E+02 0.54691043E+03 0.54773264E+03 0.32000000E+00 0.0000E+00 0.9000E+01
        4  1    1    2  502    0 0.52319087E+03 0.16032258E+03 -.56381100E+03 0.78569541E+03 0.15500000E+01 0.0000E+00 0.9000E+01
#aMCatNLO 1  0  0  2  5 0.10827231D+03 0.00000000D+00  -5  6  0 0.00000000D+00 0.00000000D+00 0.00000000D+00 0.00000000D+00 0.00000000D+00
  <mgrwgt>
 -.1802959852D-03    1    2    0
 0.968288091511888D+03 0.000000000000000D+00 0.000000000000000D+00 0.968288091511888D+03
 0.968288091511888D+03 0.000000000000000D+00 0.000000000000000D+00 -.968288091511888D+03
 0.597704082099522D+03 -.540988031350246D+03 -.184514068385675D+03 -.122113382812795D+03
 0.607722975186684D+03 0.177544778089152D+02 0.241773130776855D+02 0.606982249015431D+03
 0.731149125737570D+03 0.523233553541331D+03 0.160336755307990D+03 -.484868866202637D+03
 0.000000000000000D+00 -.000000000000000D+00 0.000000000000000D+00 -.000000000000000D+00
 0.133397509756895D+04 0.000000000000000D+00 0.000000000000000D+00 0.133397509756895D+04
 0.133441272112726D+04 0.000000000000000D+00 0.000000000000000D+00 -.133441272112726D+04
 0.455655753190823D+03 -.373818307482868D+03 -.193249476440574D+03 -.122113382812795D+03
 0.644584214930728D+03 0.216497433592260D+03 0.137920544516580D+02 0.606982249015431D+03
 0.936686710216070D+03 0.787921504241138D+03 0.146505559065707D+03 -.484868866202637D+03
 0.631461140358593D+03 -.630600630350530D+03 0.329518629232093D+02 -.437623558310703D+00
-.547572154967D-03 0.000000000000D+00 0.000000000000D+00 0.712015983432D-05 0.000000000000D+00  6 2 4 25 2 4 21 2 0.13423126D+00 0.16532129D+00 0.33775964D+06 0.33775964D+06 0.33775964D+06 0.10807631D+01  1  2 14  2  6  2        4 -.180295985178D-03 0.100000000000D+01
  </mgrwgt>
  </event>
  <event>
  5     66 0.18046435E-05 0.10700331E+03 0.75467711E-02 0.90323434E-01
        2 -1    0    0  501    0 0.00000000E+00 0.00000000E+00 0.28737358E+04 0.28737358E+04 0.32000000E+00 0.0000E+00 0.9000E+01
        4 -1    0    0  502    0 0.00000000E+00 0.00000000E+00 -.21948225E+03 0.21948772E+03 0.15500000E+01 0.0000E+00 0.9000E+01
       25  1    1    2    0    0 0.49967531E+03 0.18490213E+03 0.57050673E+03 0.79054863E+03 0.12500000E+03 0.0000E+00 0.9000E+01
        2  1    1    2  501    0 -.57691857E+03 -.25922269E+03 0.21009610E+04 0.21940986E+04 0.32000000E+00 0.0000E+00 0.9000E+01
        4  1    1    2  502    0 0.77243258E+02 0.74320563E+02 -.17214246E+02 0.10857624E+03 0.15500000E+01 0.0000E+00 0.9000E+01
#aMCatNLO 1  0  0  1  2 0.19601239D+03 0.00000000D+00  -5  6  0 0.00000000D+00 0.00000000D+00 0.00000000D+00 0.00000000D+00 0.00000000D+00
  <mgrwgt>
 0.6543268622D-04    4    2    0
 0.794192971632179D+03 0.000000000000000D+00 0.000000000000000D+00 0.794192971632179D+03
 0.794192971632179D+03 0.000000000000000D+00 0.000000000000000D+00 -.794192971632179D+03
 0.586610257037675D+03 0.499879764204607D+03 0.185082596271352D+03 -.210597358858105D+03
 0.762110080440388D+03 -.576999985008949D+03 -.259259269391761D+03 0.425049906767403D+03
 0.239665605786296D+03 0.771202208043418D+02 0.741766731204084D+02 -.214452547909298D+03
 0.000000000000000D+00 0.000000000000000D+00 0.000000000000000D+00 -.000000000000000D+00
 0.874941698417976D+03 0.000000000000000D+00 0.000000000000000D+00 0.874941698417976D+03
 0.928759119044991D+03 0.000000000000000D+00 0.000000000000000D+00 -.928759119044991D+03
 0.526318142208032D+03 0.440940123701276D+03 0.150354070678545D+03 -.210597358858105D+03
 0.845479115830760D+03 -.662136395733555D+03 -.309423505099343D+03 0.425049906767403D+03
 0.228637296577130D+03 0.523193398755469D+02 0.595634515142952D+02 -.214452547909298D+03
 0.203266262847045D+03 0.168876932156733D+03 0.995059829065032D+02 -.538174206270154D+02
0.144966099678D-03 0.000000000000D+00 0.000000000000D+00 0.681471815499D-07 0.000000000000D+00  6 2 4 25 2 4 21 0 0.44211361D+00 0.33766922D-01 0.41414160D+06 0.41414160D+06 0.41414160D+06 0.10743416D+01  1  2  2  1  6  1        2 0.177149748870D-03 0.100000000000D+01
0.181272007884D-04 0.000000000000D+00 -.556707993212D-06 0.681471815499D-07 0.000000000000D+00  6 2 4 25 2 4 21 2 0.44211361D+00 0.33766922D-01 0.41414160D+06 0.41414160D+06 0.41414160D+06 0.10743416D+01  1  2  3  1  6  1        2 0.255675780993D-04 0.100000000000D+01
-.953763677244D-04 0.000000000000D+00 0.000000000000D+00 0.681471815499D-07 0.000000000000D+00  6 2 4 25 2 4 21 2 0.44211361D+00 0.33766922D-01 0.41414160D+06 0.41414160D+06 0.41414160D+06 0.10743416D+01  1  2 15  1  6  1        2 -.134523954310D-03 0.100000000000D+01
-.195730378338D-05 0.000000000000D+00 0.000000000000D+00 0.681471815499D-07 0.000000000000D+00  6 2 4 25 2 4 21 2 0.44211361D+00 0.33766922D-01 0.41414160D+06 0.41414160D+06 0.41414160D+06 0.10743416D+01  1  2  4  1  6  1        2 -.276068643636D-05 0.100000000000D+01
  </mgrwgt>
  </event>
  <event>
  6     66 0.18046435E-05 0.49849696E+02 0.75467711E-02 0.93041090E-01
        2 -1    0    0  501    0 0.00000000E+00 0.00000000E+00 0.15418492E+04 0.15418492E+04 0.32000000E+00 0.0000E+00 0.9000E+01
        4 -1    0    0  502    0 0.00000000E+00 0.00000000E+00 -.12530919E+04 0.12530928E+04 0.15500000E+01 0.0000E+00 0.9000E+01
       25  1    1    2    0    0 -.30654978E+03 -.40795672E+03 -.55777584E+03 0.76625084E+03 0.12500000E+03 0.0000E+00 0.9000E+01
        2  1    1    2  501    0 -.58429691E+02 -.22459382E+02 0.12997495E+04 0.13012561E+04 0.32000000E+00 0.0000E+00 0.9000E+01
        4  1    1    2  503    0 0.33088422E+03 0.37831872E+03 -.37302145E+03 0.62590481E+03 0.15500000E+01 0.0000E+00 0.9000E+01
       21  1    1    2  502  503 0.34095257E+02 0.52097377E+02 -.80194918E+02 0.10153034E+03 0.75000000E+00 0.0000E+00 0.9000E+01
#aMCatNLO 2  0  0  5  2 0.25282713D+02 0.00000000D+00  -5  6  0 0.00000000D+00 0.00000000D+00 0.00000000D+00 0.00000000D+00 0.00000000D+00
  <mgrwgt>
 0.2677709631D-02    5    2    0
 0.138999283543262D+04 0.000000000000000D+00 0.000000000000000D+00 0.138999283543262D+04
 0.138999283543262D+04 -.000000000000000D+00 -.000000000000000D+00 -.138999283543262D+04
 0.828206723198753D+03 -.306996682800843D+03 -.408482238670405D+03 -.639684823793490D+03
 0.117432391277251D+04 -.591083544288440D+02 -.232581689987837D+02 0.117260475528666D+04
 0.777455034893975D+03 0.366105037229688D+03 0.431740407669189D+03 -.532919931493168D+03
 0.000000000000000D+00 0.000000000000000D+00 0.000000000000000D+00 -.000000000000000D+00
 0.138999283543262D+04 0.000000000000000D+00 0.000000000000000D+00 0.138999283543262D+04
 0.138999283543262D+04 -.000000000000000D+00 -.000000000000000D+00 -.138999283543262D+04
 0.828289592500979D+03 -.306518455141273D+03 -.407918274278481D+03 -.640380954754989D+03
 0.117328927156053D+04 -.584306025086743D+02 -.224589096044665D+02 0.117161818730715D+04
 0.667780095865066D+03 0.330784178796689D+03 0.378176827314086D+03 -.439879950411483D+03
 0.110626710938662D+03 0.341648788532585D+02 0.522003565688621D+02 -.913572821406818D+02
-.444806703206D-01 0.000000000000D+00 0.000000000000D+00 0.866809037881D-05 0.000000000000D+00  6 2 4 25 2 4 21 2 0.23720764D+00 0.19278344D+00 0.33220762D+06 0.33220762D+06 0.33220762D+06 0.10812904D+01  1  2 13  4  6  5        4 -.341726065234D-02 0.100000000000D+01
-.659297258595D-02 0.000000000000D+00 0.000000000000D+00 0.866809037881D-05 0.000000000000D+00  6 2 4 25 2 4 21 2 0.23720764D+00 0.19278344D+00 0.33387502D+06 0.33387502D+06 0.33387502D+06 0.10811310D+01  1  2  8  4  6  5        4 -.506219968754D-03 0.100000000000D+01
-.225742707314D-02 0.000000000000D+00 0.000000000000D+00 0.866809037881D-05 0.000000000000D+00  6 2 4 25 2 4 21 2 0.23720764D+00 0.19278344D+00 0.33387502D+06 0.33387502D+06 0.33387502D+06 0.10811310D+01  1  2  9  4  6  5        4 -.173329199770D-03 0.100000000000D+01
0.260123094479D-02 0.000000000000D+00 0.000000000000D+00 0.866809037881D-05 0.000000000000D+00  6 2 4 25 2 4 21 2 0.23720764D+00 0.19278344D+00 0.33387502D+06 0.33387502D+06 0.33387502D+06 0.10811310D+01  1  2 10  4  6  5        4 0.199727062479D-03 0.100000000000D+01
0.855805870371D-01 0.000000000000D+00 0.000000000000D+00 0.866809037881D-05 0.114662422486D-06  6 2 4 25 2 4 21 2 0.23720764D+00 0.19278344D+00 0.33220762D+06 0.33220762D+06 0.33220762D+06 0.10812904D+01  1  2  1  4  6  5        4 0.657479238910D-02 0.100000000000D+01
  </mgrwgt>
  </event>
  <event>
  6     66 0.18046435E-05 0.48184286E+02 0.75467711E-02 0.93889612E-01
        2 -1    0    0  501    0 0.00000000E+00 0.00000000E+00 0.18966141E+04 0.18966141E+04 0.32000000E+00 0.0000E+00 0.9000E+01
       21 -1    0    0  502  503 0.00000000E+00 0.00000000E+00 -.51709203E+03 0.51709258E+03 0.75000000E+00 0.0000E+00 0.9000E+01
       25  1    1    2    0    0 0.36886973E+03 -.29955580E+03 0.20787826E+03 0.53351375E+03 0.12500000E+03 0.0000E+00 0.9000E+01
        2  1    1    2  501    0 -.99482667E+01 -.62350223E+02 0.13357216E+04 0.13372131E+04 0.32000000E+00 0.0000E+00 0.9000E+01
        4  1    1    2  502    0 -.17869637E+03 0.13826208E+03 -.10757400E+03 0.25024661E+03 0.15500000E+01 0.0000E+00 0.9000E+01
       -4  1    1    2    0  503 -.18022509E+03 0.22364394E+03 -.56503773E+02 0.29273328E+03 0.15500000E+01 0.0000E+00 0.9000E+01
#aMCatNLO 2  0  0  2  1 0.15966707D+02 0.00000000D+00  -5  6  0 0.00000000D+00 0.00000000D+00 0.00000000D+00 0.00000000D+00 0.00000000D+00
  <mgrwgt>
 0.9558363464D-03    1    2    0
 0.767114781824080D+03 0.000000000000000D+00 0.000000000000000D+00 0.767114781824080D+03
 0.767114781824080D+03 0.000000000000000D+00 0.000000000000000D+00 -.767114781824080D+03
 0.455973884478541D+03 0.311225201369193D+03 -.228029162263446D+03 -.208395677778082D+03
 0.590493021042739D+03 -.785824384691436D+02 0.228155673003817D+02 0.584795911539389D+03
 0.487762658126880D+03 -.232642762900049D+03 0.205213594963064D+03 -.376400233761307D+03
 0.000000000000000D+00 -.000000000000000D+00 0.000000000000000D+00 -.000000000000000D+00
 0.832271756862409D+03 0.000000000000000D+00 0.000000000000000D+00 0.832271756862409D+03
 0.117836718968150D+04 0.000000000000000D+00 0.000000000000000D+00 -.117836718968150D+04
 0.533694678699975D+03 0.368852529501842D+03 -.299539752013278D+03 -.208395677778082D+03
 0.588194808622138D+03 -.994872325047959D+01 -.623530082877675D+02 0.584795911539389D+03
 0.438994253018762D+03 -.178678712100794D+03 0.138248819343731D+03 -.376400233761307D+03
 0.449755206203037D+03 -.180225094150569D+03 0.223643940957314D+03 -.346095432819094D+03
0.595527189473D-04 0.000000000000D+00 0.000000000000D+00 0.721815872099D-05 0.786356417178D-10  6 2 21 25 2 4 -4 2 0.29178638D+00 0.79552543D-01 0.28494755D+06 0.28494755D+06 0.28494755D+06 0.10862098D+01  1  2  1  6  6  2        4 0.955836346406D-03 0.100000000000D+01
  </mgrwgt>
  </event>
  <event>
  6     66 0.18046435E-05 0.23613955E+03 0.75467711E-02 0.90352854E-01
        4 -1    0    0  501    0 0.00000000E+00 0.00000000E+00 0.18708553E+04 0.18708560E+04 0.15500000E+01 0.0000E+00 0.9000E+01
        2 -1    0    0  502    0 -.00000000E+00 -.00000000E+00 -.25335816E+04 0.25335816E+04 0.32000000E+00 0.0000E+00 0.9000E+01
       25  1    1    2    0    0 0.61297547E+03 0.18913752E+03 -.36426502E+03 0.74821517E+03 0.12500000E+03 0.0000E+00 0.9000E+01
        4  1    1    2  503    0 -.35002419E+03 -.29467903E+03 0.91807979E+03 0.10257805E+04 0.15500000E+01 0.0000E+00 0.9000E+01
        2  1    1    2  502    0 0.39691041E+02 0.52808851E+02 -.18895135E+04 0.18906680E+04 0.32000000E+00 0.0000E+00 0.9000E+01
       21  1    1    2  501  503 -.30264232E+03 0.52732668E+02 0.67297241E+03 0.73977398E+03 0.75000000E+00 0.0000E+00 0.9000E+01
#aMCatNLO 2  0  0  4  2 0.15695732D+03 0.00000000D+00  -5  6  0 0.00000000D+00 0.00000000D+00 0.00000000D+00 0.00000000D+00 0.00000000D+00
  <mgrwgt>
 0.6402999032D-03    1    2    0
 0.217714631214530D+04 0.000000000000000D+00 0.000000000000000D+00 0.217714631214530D+04
 0.217714631214530D+04 -.000000000000000D+00 -.000000000000000D+00 -.217714631214530D+04
 0.703772460102494D+03 0.614227586265200D+03 0.189582334942201D+03 -.257786124815525D+03
 0.201626307949917D+04 -.657009633057768D+03 -.243556379423726D+03 0.189059129318390D+04
 0.163425708468893D+04 0.427820467925678D+02 0.539740444815246D+02 -.163280516836838D+04
 0.000000000000000D+00 0.000000000000000D+00 0.000000000000000D+00 0.000000000000000D+00
 0.217714631214530D+04 0.000000000000000D+00 0.000000000000000D+00 0.217714631214530D+04
 0.217714631214530D+04 -.000000000000000D+00 -.000000000000000D+00 -.217714631214530D+04
 0.701096103583714D+03 0.612903733128107D+03 0.189091576723850D+03 -.253976644575803D+03
 0.117669495333861D+04 -.349814161233558D+03 -.294614108252511D+03 0.108417876433344D+04
 0.162531088648286D+04 0.397104503487845D+02 0.528353900824758D+02 -.162396643419980D+04
 0.851190680885414D+03 -.302800022243334D+03 0.526871414461853D+02 0.793764314442166D+03
0.182975544216D+00 0.000000000000D+00 0.000000000000D+00 0.107249650388D-03 0.970650956577D-08  6 4 2 25 4 2 21 2 0.28782395D+00 0.38978183D+00 0.55076365D+06 0.55076365D+06 0.55076365D+06 0.10655550D+01  1  2  1  3  6  4        4 0.640299903190D-03 0.100000000000D+01
  </mgrwgt>
  </event>
  <event>
  5     66 0.18046435E-05 0.86001450E+02 0.75467711E-02 0.95043747E-01
        2 -1    0    0  501    0 0.00000000E+00 0.00000000E+00 0.70624350E+03 0.70624357E+03 0.32000000E+00 0.0000E+00 0.9000E+01
        4 -1    0    0  502    0 -.00000000E+00 -.00000000E+00 -.14890325E+04 0.14890333E+04 0.15500000E+01 0.0000E+00 0.9000E+01
       25  1    1    2    0    0 0.41337891E+03 -.22798232E+03 0.63053906E+02 0.49240111E+03 0.12500000E+03 0.0000E+00 0.9000E+01
        2  1    1    2  501    0 -.81855248E+02 0.26421316E+02 0.39423958E+03 0.40351371E+03 0.32000000E+00 0.0000E+00 0.9000E+01
        4  1    1    2  502    0 -.33152366E+03 0.20156100E+03 -.12400825E+04 0.12993621E+04 0.15500000E+01 0.0000E+00 0.9000E+01
#aMCatNLO 1  0  0  4  1 0.44536133D+01 0.00000000D+00  -5  6  0 0.00000000D+00 0.00000000D+00 0.00000000D+00 0.00000000D+00 0.00000000D+00
  <mgrwgt>
 0.4419008947D-04    8    2    0
 0.102548549218519D+04 0.000000000000000D+00 0.000000000000000D+00 0.102548549218519D+04
 0.102548549218519D+04 -.000000000000000D+00 -.000000000000000D+00 -.102548549218519D+04
 0.551175919558393D+03 0.413401373840569D+03 -.227998754019327D+03 0.255510795414606D+03
 0.582289835600944D+03 -.818435298396466D+02 0.264175331005512D+02 0.575903814202027D+03
 0.917505229211050D+03 -.331557844000923D+03 0.201581220918776D+03 -.831414609616632D+03
 0.000000000000000D+00 0.000000000000000D+00 0.000000000000000D+00 0.000000000000000D+00
 0.102548549218519D+04 0.000000000000000D+00 0.000000000000000D+00 0.102548549218519D+04
 0.102548549218519D+04 -.000000000000000D+00 -.000000000000000D+00 -.102548549218519D+04
 0.551203161813401D+03 0.413389922297312D+03 -.227995057679205D+03 0.255591375852099D+03
 0.547438794668859D+03 -.775913933632298D+02 0.204308570202515D+02 0.541526905763567D+03
 0.917391931947259D+03 -.331576904961503D+03 0.201587373433923D+03 -.831280484415511D+03
 0.349370959408684D+02 -.422162397257964D+01 0.597682722503065D+01 0.341622027998447D+02
0.108673465205D-04 0.000000000000D+00 0.000000000000D+00 0.154811099607D-04 0.000000000000D+00  6 2 4 25 2 4 21 0 0.10865291D+00 0.22908199D+00 0.23155500D+06 0.23155500D+06 0.23155500D+06 0.10929721D+01  1  2  2  3  6  4        2 0.118896219820D-05 0.100000000000D+01
0.232975165774D-05 0.000000000000D+00 -.417334720766D-07 0.154811099607D-04 0.000000000000D+00  6 2 4 25 2 4 21 2 0.10865291D+00 0.22908199D+00 0.23155500D+06 0.23155500D+06 0.23155500D+06 0.10929721D+01  1  2  3  3  6  4        2 0.304489471824D-06 0.100000000000D+01
-.651076640898D-05 0.000000000000D+00 0.000000000000D+00 0.154811099607D-04 0.000000000000D+00  6 2 4 25 2 4 21 2 0.10865291D+00 0.22908199D+00 0.23155500D+06 0.23155500D+06 0.23155500D+06 0.10929721D+01  1  2 15  3  6  4        2 -.850931822906D-06 0.100000000000D+01
0.209339405928D-03 0.000000000000D+00 0.000000000000D+00 0.154811099607D-04 0.000000000000D+00  6 2 4 25 2 4 21 2 0.10865291D+00 0.22908199D+00 0.23230638D+06 0.23230638D+06 0.23230638D+06 0.10928655D+01  1  2 12  3  6  4        2 0.273509162092D-04 0.100000000000D+01
-.226827487829D-02 0.000000000000D+00 0.000000000000D+00 0.154811099607D-04 0.000000000000D+00  6 2 4 25 2 4 21 2 0.10865291D+00 0.22908199D+00 0.23155500D+06 0.23155500D+06 0.23155500D+06 0.10929721D+01  1  2  4  3  6  4        2 -.296454696082D-03 0.100000000000D+01
-.504666342452D-02 0.000000000000D+00 0.000000000000D+00 0.154811099607D-04 0.000000000000D+00  6 2 4 25 2 4 21 2 0.10865291D+00 0.22908199D+00 0.23155500D+06 0.23155500D+06 0.23155500D+06 0.10929721D+01  1  2  5  3  6  4        2 -.659579262665D-03 0.100000000000D+01
0.535852716036D-02 0.000000000000D+00 -.000000000000D+00 0.154811099607D-04 0.000000000000D+00  6 2 4 25 2 4 21 2 0.10865291D+00 0.22908199D+00 0.23155500D+06 0.23155500D+06 0.23155500D+06 0.10929721D+01  1  2  6  3  6  4        2 0.700338638837D-03 0.100000000000D+01
0.208101636288D-02 0.000000000000D+00 0.000000000000D+00 0.154811099607D-04 0.210640916043D-05  6 2 4 25 2 4 21 2 0.10865291D+00 0.22908199D+00 0.23230638D+06 0.23230638D+06 0.23230638D+06 0.10928655D+01  1  2 11  3  6  4        2 0.271891973319D-03 0.100000000000D+01
  </mgrwgt>
  </event>
  <event>
  5     66 0.18046435E-05 0.13806092E+03 0.75467711E-02 0.90600471E-01
        4 -1    0    0  501    0 0.00000000E+00 0.00000000E+00 0.20461078E+03 0.20461665E+03 0.15500000E+01 0.0000E+00 0.9000E+01
        2 -1    0    0  502    0 0.00000000E+00 0.00000000E+00 -.34935923E+04 0.34935923E+04 0.32000000E+00 0.0000E+00 0.9000E+01
       25  1    1    2    0    0 -.51933720E+03 -.73109680E+02 -.10520396E+04 0.11821457E+04 0.12500000E+03 0.0000E+00 0.9000E+01
        4  1    1    2  501    0 0.16691547E+02 -.13726080E+03 0.63359961E+02 0.15210530E+03 0.15500000E+01 0.0000E+00 0.9000E+01
        2  1    1    2  502    0 0.50264565E+03 0.21037048E+03 -.23003019E+04 0.23639579E+04 0.32000000E+00 0.0000E+00 0.9000E+01
#aMCatNLO 1  0  0  2  1 0.58418486D+02 0.00000000D+00  -5  6  0 0.00000000D+00 0.00000000D+00 0.00000000D+00 0.00000000D+00 0.00000000D+00
  <mgrwgt>
 0.1789256400D-02    7    2    0
 0.845480647610177D+03 0.000000000000000D+00 0.000000000000000D+00 0.845480647610177D+03
 0.845480647610177D+03 0.000000000000000D+00 0.000000000000000D+00 -.845480647610177D+03
 0.539621565565375D+03 -.519785765208340D+03 -.734028186707999D+02 -.110386647204126D+01
 0.455200148394508D+03 0.166660711206714D+02 -.137051298804220D+03 0.433758410486597D+03
 0.696139581260470D+03 0.503119694087669D+03 0.210454117475020D+03 -.432654544014556D+03
 0.000000000000000D+00 -.000000000000000D+00 -.000000000000000D+00 -.000000000000000D+00
 0.928129156233489D+03 0.000000000000000D+00 0.000000000000000D+00 0.928129156233489D+03
 0.971967103223917D+03 0.000000000000000D+00 0.000000000000000D+00 -.971967103223917D+03
 0.483151309961316D+03 -.462050579791300D+03 -.657132521693456D+02 -.110386647204126D+01
 0.457982470428322D+03 0.682149233428271D+02 -.130185670429206D+03 0.433758410486597D+03
 0.760831080429553D+03 0.585365198747287D+03 0.221408135773524D+03 -.432654544014556D+03
 0.198131398638214D+03 -.191529542298814D+03 -.255092131749722D+02 -.438379469904276D+02
0.139542892127D-02 0.000000000000D+00 0.000000000000D+00 0.211565649974D-06 0.000000000000D+00  6 4 2 25 4 2 21 0 0.31479034D-01 0.53747619D+00 0.37395913D+06 0.37395913D+06 0.37395913D+06 0.10775416D+01  1  2  2  2  6  2        2 0.769212351959D-03 0.100000000000D+01
0.189453425696D-03 0.000000000000D+00 -.535881448255D-05 0.211565649974D-06 0.000000000000D+00  6 4 2 25 4 2 21 2 0.31479034D-01 0.53747619D+00 0.37395913D+06 0.37395913D+06 0.37395913D+06 0.10775416D+01  1  2  3  2  6  2        2 0.121257625454D-03 0.100000000000D+01
-.829486109321D-03 0.000000000000D+00 0.000000000000D+00 0.211565649974D-06 0.000000000000D+00  6 4 2 25 4 2 21 2 0.31479034D-01 0.53747619D+00 0.37395913D+06 0.37395913D+06 0.37395913D+06 0.10775416D+01  1  2 15  2  6  2        2 -.530903653993D-03 0.100000000000D+01
-.868418363090D-04 0.000000000000D+00 0.000000000000D+00 0.211565649974D-06 0.000000000000D+00  6 4 2 25 4 2 21 2 0.31479034D-01 0.53747619D+00 0.37395913D+06 0.37395913D+06 0.37395913D+06 0.10775416D+01  1  2  4  2  6  2        2 -.555821823872D-04 0.100000000000D+01
-.328697540386D-02 0.000000000000D+00 -.923412990356D-03 0.211565649974D-06 0.000000000000D+00  6 4 2 25 4 2 21 2 0.31479034D-01 0.63065810D+00 0.37395913D+06 0.37395913D+06 0.37395913D+06 0.10775416D+01  1  2  5  2  6  2        2 -.712253148437D-03 0.100000000000D+01
0.343383662452D-02 0.000000000000D+00 0.934427158125D-03 0.211565649974D-06 0.000000000000D+00  6 4 2 25 4 2 21 2 0.31479034D-01 0.53747619D+00 0.37395913D+06 0.37395913D+06 0.37395913D+06 0.10775416D+01  1  2  6  2  6  2        2 0.219779016271D-02 0.100000000000D+01
-.717450035028D-04 0.000000000000D+00 -.221735010412D-04 0.211565649974D-06 0.000000000000D+00  6 4 21 25 4 2 -2 2 0.31479034D-01 0.63065810D+00 0.37395913D+06 0.37395913D+06 0.37395913D+06 0.10775416D+01  1  2  5  6  6  2        2 -.264754836240D-06 0.100000000000D+01
  </mgrwgt>
  </event>
  <event>
  5     66 0.18046435E-05 0.28788971E+02 0.75467711E-02 0.93915463E-01
        2 -1    0    0  501    0 0.00000000E+00 0.00000000E+00 0.27664507E+04 0.27664507E+04 0.32000000E+00 0.0000E+00 0.9000E+01
        4 -1    0    0  502    0 0.00000000E+00 0.00000000E+00 -.33432460E+03 0.33432819E+03 0.15500000E+01 0.0000E+00 0.9000E+01
       25  1    1    2    0    0 -.35087136E+03 0.29237617E+03 0.13327665E+04 0.14143854E+04 0.12500000E+03 0.0000E+00 0.9000E+01
        2  1    1    2  501    0 0.33116803E+03 -.27139062E+03 0.13591564E+04 0.14250022E+04 0.32000000E+00 0.0000E+00 0.9000E+01
        4  1    1    2  502    0 0.19703328E+02 -.20985550E+02 -.25979681E+03 0.26139127E+03 0.15500000E+01 0.0000E+00 0.9000E+01
#aMCatNLO 1  0  0  1  4 0.17164846D+02 0.00000000D+00  -5  6  0 0.00000000D+00 0.00000000D+00 0.00000000D+00 0.00000000D+00 0.00000000D+00
  <mgrwgt>
 0.3273806590D-02    7    2    0
 0.961716240902539D+03 0.000000000000000D+00 0.000000000000000D+00 0.961716240902539D+03
 0.961716240902539D+03 0.000000000000000D+00 0.000000000000000D+00 -.961716240902539D+03
 0.594915222310347D+03 -.350836285999285D+03 0.292347861033112D+03 0.360202374106782D+03
 0.578575666799498D+03 0.331130622663371D+03 -.271359966775669D+03 0.389186435244807D+03
 0.749941592695232D+03 0.197056633359136D+02 -.209878942574429D+02 -.749388809351589D+03
 0.000000000000000D+00 -.000000000000000D+00 -.000000000000000D+00 0.000000000000000D+00
 0.115362563951929D+04 0.000000000000000D+00 0.000000000000000D+00 0.115362563951929D+04
 0.983917301065657D+03 0.000000000000000D+00 0.000000000000000D+00 -.983917301065657D+03
 0.612407509339175D+03 -.346606796250721D+03 0.330962136770448D+03 0.360202374106782D+03
 0.564721226508977D+03 0.335135817267142D+03 -.234793454499754D+03 0.389186435244807D+03
 0.750290184800949D+03 0.249612712666287D+02 0.269946062020688D+02 -.749388809351589D+03
 0.210124019935851D+03 -.134902922830504D+02 -.123163288472763D+03 0.169708338453638D+03
0.225741428455D-02 0.000000000000D+00 0.000000000000D+00 0.126563211132D-04 0.000000000000D+00  6 2 4 25 2 4 21 0 0.42560808D+00 0.51434832D-01 0.21640185D+06 0.21640185D+06 0.21640185D+06 0.10952060D+01  1  2  2  1  6  1        2 0.133661022892D-02 0.100000000000D+01
0.144370707500D-02 0.000000000000D+00 -.866906524350D-05 0.126563211132D-04 0.000000000000D+00  6 2 4 25 2 4 21 2 0.42560808D+00 0.51434832D-01 0.21640185D+06 0.21640185D+06 0.21640185D+06 0.10952060D+01  1  2  3  1  6  1        2 0.102533131258D-02 0.100000000000D+01
-.131785137619D-02 0.000000000000D+00 0.000000000000D+00 0.126563211132D-04 0.000000000000D+00  6 2 4 25 2 4 21 2 0.42560808D+00 0.51434832D-01 0.21640185D+06 0.21640185D+06 0.21640185D+06 0.10952060D+01  1  2 15  1  6  1        2 -.935947675767D-03 0.100000000000D+01
-.396897877602D-02 0.000000000000D+00 0.000000000000D+00 0.126563211132D-04 0.000000000000D+00  6 2 4 25 2 4 21 2 0.42560808D+00 0.51434832D-01 0.21640185D+06 0.21640185D+06 0.21640185D+06 0.10952060D+01  1  2  4  1  6  1        2 -.281879772461D-02 0.100000000000D+01
-.112379198453D-01 0.000000000000D+00 -.197466875002D-02 0.126563211132D-04 0.000000000000D+00  6 2 4 25 2 4 21 2 0.51332299D+00 0.51434832D-01 0.21640185D+06 0.21640185D+06 0.21640185D+06 0.10952060D+01  1  2  5  1  6  1        2 -.345471574836D-02 0.100000000000D+01
0.114406644830D-01 0.000000000000D+00 0.194049993700D-02 0.126563211132D-04 0.000000000000D+00  6 2 4 25 2 4 21 2 0.42560808D+00 0.51434832D-01 0.21640185D+06 0.21640185D+06 0.21640185D+06 0.10952060D+01  1  2  6  1  6  1        2 0.812524350282D-02 0.100000000000D+01
-.285507833078D-03 0.000000000000D+00 -.537380805705D-04 0.126563211132D-04 0.000000000000D+00  6 21 4 25 2 4 -2 2 0.51332299D+00 0.51434832D-01 0.21640185D+06 0.21640185D+06 0.21640185D+06 0.10952060D+01  1  2  5  5  6  1        2 -.391730607328D-05 0.100000000000D+01
  </mgrwgt>
  </event>
  <event>
  6     66 0.18046435E-05 0.92472681E+01 0.75467711E-02 0.93739320E-01
        2 -1    0    0  501    0 0.00000000E+00 0.00000000E+00 0.16144244E+04 0.16144244E+04 0.32000000E+00 0.0000E+00 0.9000E+01
        4 -1    0    0  502    0 0.00000000E+00 0.00000000E+00 -.41830837E+03 0.41831124E+03 0.15500000E+01 0.0000E+00 0.9000E+01
       25  1    1    2    0    0 0.22982137E+03 -.46517370E+03 0.12817949E+04 0.13884623E+04 0.12500000E+03 0.0000E+00 0.9000E+01
        2  1    1    2  501    0 0.92469651E+01 -.11344933E+02 0.82164383E+02 0.83458385E+02 0.32000000E+00 0.0000E+00 0.9000E+01
        4  1    1    2  503    0 -.23154824E+03 0.45055768E+03 -.14962347E+03 0.52821056E+03 0.15500000E+01 0.0000E+00 0.9000E+01
       21  1    1    2  502  503 -.75200927E+01 0.25960952E+02 -.18219797E+02 0.32604392E+02 0.75000000E+00 0.0000E+00 0.9000E+01
#aMCatNLO 2  0  0  5  2 0.11333106D+02 0.00000000D+00  -5  6  0 0.00000000D+00 0.00000000D+00 0.00000000D+00 0.00000000D+00 0.00000000D+00
  <mgrwgt>
 0.4112603092D-02    5    2    0
 0.821784748351944D+03 0.000000000000000D+00 0.000000000000000D+00 0.821784748351944D+03
 0.821784748351944D+03 -.000000000000000D+00 -.000000000000000D+00 -.821784748351944D+03
 0.785284500636447D+03 0.230103433547252D+03 -.465694472242823D+03 0.575523948530449D+03
 0.431622116700137D+02 0.919469525295078D+01 -.112884617273381D+02 0.406325574789829D+02
 0.815122784397426D+03 -.239298128800203D+03 0.476982933970161D+03 -.616156506009432D+03
 0.000000000000000D+00 0.000000000000000D+00 0.000000000000000D+00 -.000000000000000D+00
 0.821784748351944D+03 0.000000000000000D+00 0.000000000000000D+00 0.821784748351944D+03
 0.821784748351944D+03 -.000000000000000D+00 -.000000000000000D+00 -.821784748351944D+03
 0.784672503131854D+03 0.229921405726608D+03 -.465331643814576D+03 0.575055254410161D+03
 0.431306144477370D+02 0.918469007762577D+01 -.112685188305619D+02 0.406067956650432D+02
 0.762236967086703D+03 -.231611225237232D+03 0.450672569079937D+03 -.569434517584360D+03
 0.535294120375933D+02 -.749487056700192D+01 0.259275935652016D+02 -.462275324908440D+02
-.418703651041D-02 0.000000000000D+00 0.000000000000D+00 0.592544461585D-06 0.000000000000D+00  6 2 4 25 2 4 21 2 0.24837320D+00 0.64355357D-01 0.29273838D+06 0.29273838D+06 0.29273838D+06 0.10853401D+01  1  2 13  4  6  5        4 -.757169132688D-02 0.100000000000D+01
-.205473788266D-02 0.000000000000D+00 0.000000000000D+00 0.592544461585D-06 0.000000000000D+00  6 2 4 25 2 4 21 2 0.24837320D+00 0.64355357D-01 0.29293703D+06 0.29293703D+06 0.29293703D+06 0.10853182D+01  1  2  8  4  6  5        4 -.371548504247D-02 0.100000000000D+01
-.110998270512D-02 0.000000000000D+00 0.000000000000D+00 0.592544461585D-06 0.000000000000D+00  6 2 4 25 2 4 21 2 0.24837320D+00 0.64355357D-01 0.29293703D+06 0.29293703D+06 0.29293703D+06 0.10853182D+01  1  2  9  4  6  5        4 -.200712907134D-02 0.100000000000D+01
0.118526361927D-02 0.000000000000D+00 0.000000000000D+00 0.592544461585D-06 0.000000000000D+00  6 2 4 25 2 4 21 2 0.24837320D+00 0.64355357D-01 0.29293703D+06 0.29293703D+06 0.29293703D+06 0.10853182D+01  1  2 10  4  6  5        4 0.214325597729D-02 0.100000000000D+01
0.844058054817D-02 0.000000000000D+00 0.000000000000D+00 0.592544461585D-06 0.449167662976D-07  6 2 4 25 2 4 21 2 0.24837320D+00 0.64355357D-01 0.29273838D+06 0.29273838D+06 0.29273838D+06 0.10853401D+01  1  2  1  4  6  5        4 0.152636525551D-01 0.100000000000D+01
  </mgrwgt>
  </event>
  <event>
  5     66 0.18046435E-05 0.32493642E+02 0.75467711E-02 0.93692488E-01
        4 -1    0    0  501    0 0.00000000E+00 0.00000000E+00 0.11378123E+04 0.11378134E+04 0.15500000E+01 0.0000E+00 0.9000E+01
        2 -1    0    0  502    0 -.00000000E+00 -.00000000E+00 -.24601159E+04 0.24601159E+04 0.32000000E+00 0.0000E+00 0.9000E+01
       25  1    1    2    0    0 0.75938221E+02 0.47193171E+03 -.95744428E+03 0.10774092E+04 0.12500000E+03 0.0000E+00 0.9000E+01
        4  1    1    2  501    0 -.96870703E+02 -.44709503E+03 0.10290906E+04 0.11261917E+04 0.15500000E+01 0.0000E+00 0.9000E+01
        2  1    1    2  502    0 0.20932483E+02 -.24836680E+02 -.13939499E+04 0.13943283E+04 0.32000000E+00 0.0000E+00 0.9000E+01
#aMCatNLO 1  0  0  5  2 0.59872184D+02 0.00000000D+00  -5  6  0 0.00000000D+00 0.00000000D+00 0.00000000D+00 0.00000000D+00 0.00000000D+00
  <mgrwgt>
 0.1369422222D-02    6    2    0
 0.167306668654177D+04 0.000000000000000D+00 0.000000000000000D+00 0.167306668654177D+04
 0.167306668654177D+04 -.000000000000000D+00 -.000000000000000D+00 -.167306668654177D+04
 0.779869767114558D+03 0.759283737424772D+02 0.471931220194598D+03 -.603396767579820D+03
 0.161756881392117D+04 -.968684672682422D+02 -.447084705973374D+03 0.155153492822564D+04
 0.948694792047820D+03 0.209400935257657D+02 -.248465142212251D+02 -.948138160645822D+03
 0.000000000000000D+00 0.000000000000000D+00 0.000000000000000D+00 -.000000000000000D+00
 0.167306668654177D+04 0.000000000000000D+00 0.000000000000000D+00 0.167306668654177D+04
 0.167306668654177D+04 -.000000000000000D+00 -.000000000000000D+00 -.167306668654177D+04
 0.781729638854007D+03 0.759823737803443D+02 0.471867146330403D+03 -.605841813802516D+03
 0.161274815568505D+04 -.967567630513896D+02 -.447217248858590D+03 0.154647711744878D+04
 0.395648968110643D+03 0.742807100218145D+02 -.323696912186127D+02 -.387263069729200D+03
 0.556006610433853D+03 -.535063207507685D+02 0.771979374679924D+01 -.553372233917067D+03
0.672328782828D-02 0.000000000000D+00 0.000000000000D+00 0.359561627895D-03 0.000000000000D+00  6 4 2 25 4 2 21 0 0.17504814D+00 0.37847945D+00 0.24207688D+06 0.24207688D+06 0.24207688D+06 0.10915129D+01  1  2  2  4  6  5        2 0.198909555364D-03 0.100000000000D+01
0.341618723581D-02 0.000000000000D+00 -.258191955429D-04 0.359561627895D-03 0.000000000000D+00  6 4 2 25 4 2 21 2 0.17504814D+00 0.37847945D+00 0.24207688D+06 0.24207688D+06 0.24207688D+06 0.10915129D+01  1  2  3  4  6  5        2 0.120412990150D-03 0.100000000000D+01
-.413048395347D-02 0.000000000000D+00 0.000000000000D+00 0.359561627895D-03 0.000000000000D+00  6 4 2 25 4 2 21 2 0.17504814D+00 0.37847945D+00 0.24207688D+06 0.24207688D+06 0.24207688D+06 0.10915129D+01  1  2 15  4  6  5        2 -.145590358277D-03 0.100000000000D+01
-.871537891050D-03 0.000000000000D+00 0.000000000000D+00 0.359561627895D-03 0.000000000000D+00  6 4 2 25 4 2 21 2 0.17504814D+00 0.37847945D+00 0.24207688D+06 0.24207688D+06 0.24207688D+06 0.10915129D+01  1  2  4  4  6  5        2 -.307197692182D-04 0.100000000000D+01
-.491818477239D-01 0.000000000000D+00 0.000000000000D+00 0.359561627895D-03 0.000000000000D+00  6 4 2 25 4 2 21 2 0.17504814D+00 0.37847945D+00 0.24207688D+06 0.24207688D+06 0.24207688D+06 0.10915129D+01  1  2  5  4  6  5        2 -.173355057459D-02 0.100000000000D+01
0.839758139890D-01 0.000000000000D+00 -.000000000000D+00 0.359561627895D-03 0.000000000000D+00  6 4 2 25 4 2 21 2 0.17504814D+00 0.37847945D+00 0.24207688D+06 0.24207688D+06 0.24207688D+06 0.10915129D+01  1  2  6  4  6  5        2 0.295996037825D-02 0.100000000000D+01
  </mgrwgt>
  </event>
  <event>
  5     66 0.18046435E-05 0.61547938E+02 0.75467711E-02 0.88011848E-01
        2 -1    0    0  501    0 0.00000000E+00 0.00000000E+00 0.11362774E+04 0.11362775E+04 0.32000000E+00 0.0000E+00 0.9000E+01
        4 -1    0    0  502    0 -.00000000E+00 -.00000000E+00 -.17637683E+04 0.17637690E+04 0.15500000E+01 0.0000E+00 0.9000E+01
       25  1    1    2    0    0 0.84189286E+02 -.52530924E+03 -.87799692E+03 0.10341863E+04 0.12500000E+03 0.0000E+00 0.9000E+01
        2  1    1    2  501    0 0.38368486E+02 -.48124486E+02 0.95062514E+03 0.95261554E+03 0.32000000E+00 0.0000E+00 0.9000E+01
        4  1    1    2  502    0 -.12255777E+03 0.57343373E+03 -.70011908E+03 0.91324465E+03 0.15500000E+01 0.0000E+00 0.9000E+01
#aMCatNLO 1  0  0  4  1 0.11178182D+02 0.00000000D+00  -5  6  0 0.00000000D+00 0.00000000D+00 0.00000000D+00 0.00000000D+00 0.00000000D+00
  <mgrwgt>
 0.3405372115D-03    4    2    0
 0.141567339541711D+04 0.000000000000000D+00 0.000000000000000D+00 0.141567339541711D+04
 0.141567339541711D+04 -.000000000000000D+00 -.000000000000000D+00 -.141567339541711D+04
 0.864693413875907D+03 0.841878888980731D+02 -.525302181729995D+03 -.670104258479951D+03
 0.118641642190445D+04 0.383686974332029D+02 -.481247516854269D+02 0.118481887961707D+04
 0.780236955053859D+03 -.122556586331277D+03 0.573426933415422D+03 -.514714621137118D+03
 0.000000000000000D+00 0.000000000000000D+00 0.000000000000000D+00 0.000000000000000D+00
 0.141567339541711D+04 0.000000000000000D+00 0.000000000000000D+00 0.141567339541711D+04
 0.141567339541711D+04 -.000000000000000D+00 -.000000000000000D+00 -.141567339541711D+04
 0.801759790100538D+03 0.870068316347362D+02 -.528837900383294D+03 -.583055784114293D+03
 0.477513220914811D+03 0.596672617382465D+02 -.388167610782982D+03 0.271633208507590D+03
 0.727741746725398D+03 -.120005716256869D+03 0.570227450578499D+03 -.435944185188143D+03
 0.824332033093466D+03 -.266683771161137D+02 0.346778060587777D+03 0.747366760794846D+03
0.280255957669D-01 0.000000000000D+00 0.000000000000D+00 0.765644486301D-05 0.000000000000D+00  6 2 4 25 2 4 21 0 0.17481197D+00 0.27134902D+00 0.35665906D+06 0.35665906D+06 0.35665906D+06 0.10790367D+01  1  2  2  3  6  4        2 0.731530409616D-03 0.100000000000D+01
0.126833803485D-01 0.000000000000D+00 -.107625667054D-03 0.765644486301D-05 0.000000000000D+00  6 2 4 25 2 4 21 2 0.17481197D+00 0.27134902D+00 0.35665906D+06 0.35665906D+06 0.35665906D+06 0.10790367D+01  1  2  3  3  6  4        2 0.385464993061D-03 0.100000000000D+01
-.168982855558D-01 0.000000000000D+00 0.000000000000D+00 0.765644486301D-05 0.000000000000D+00  6 2 4 25 2 4 21 2 0.17481197D+00 0.27134902D+00 0.35665906D+06 0.35665906D+06 0.35665906D+06 0.10790367D+01  1  2 15  3  6  4        2 -.513561633064D-03 0.100000000000D+01
-.865037577573D-02 0.000000000000D+00 0.000000000000D+00 0.765644486301D-05 0.000000000000D+00  6 2 4 25 2 4 21 2 0.17481197D+00 0.27134902D+00 0.35665906D+06 0.35665906D+06 0.35665906D+06 0.10790367D+01  1  2  5  3  6  4        2 -.262896558075D-03 0.100000000000D+01
  </mgrwgt>
  </event>
  <event>
  5     66 0.18046435E-05 0.17078142E+03 0.75467711E-02 0.94760123E-01
        4 -1    0    0  501    0 0.00000000E+00 0.00000000E+00 0.53505592E+03 0.53505816E+03 0.15500000E+01 0.0000E+00 0.9000E+01
        2 -1    0    0  502    0 0.00000000E+00 0.00000000E+00 -.38420694E+04 0.38420695E+04 0.32000000E+00 0.0000E+00 0.9000E+01
       25  1    1    2    0    0 -.38469780E+03 0.25193875E+03 -.18360524E+04 0.18968867E+04 0.12500000E+03 0.0000E+00 0.9000E+01
        4  1    1    2  501    0 0.21925768E+03 -.20994004E+03 0.45486928E+03 0.54686124E+03 0.15500000E+01 0.0000E+00 0.9000E+01
        2  1    1    2  502    0 0.16544013E+03 -.41998717E+02 -.19258304E+04 0.19333797E+04 0.32000000E+00 0.0000E+00 0.9000E+01
#aMCatNLO 1  0  0  2  5 0.35977884D+02 0.00000000D+00  -5  6  0 0.00000000D+00 0.00000000D+00 0.00000000D+00 0.00000000D+00 0.00000000D+00
  <mgrwgt>
 0.1827077206D-02    7    2    0
 0.143378064259543D+04 0.000000000000000D+00 0.000000000000000D+00 0.143378064259543D+04
 0.143378064259543D+04 0.000000000000000D+00 0.000000000000000D+00 -.143378064259543D+04
 0.777828323106813D+03 -.384776253530621D+03 0.251959616300722D+03 -.614699509272367D+03
 0.135925750654189D+04 0.219247351839225D+03 -.209930149826637D+03 0.132493052647893D+04
 0.730475455542156D+03 0.165528901691396D+03 -.420294664740857D+02 -.710231017206560D+03
 0.000000000000000D+00 -.000000000000000D+00 -.000000000000000D+00 -.000000000000000D+00
 0.144145554908715D+04 0.000000000000000D+00 0.000000000000000D+00 0.144145554908715D+04
 0.147668631953303D+04 0.000000000000000D+00 0.000000000000000D+00 -.147668631953303D+04
 0.777649715841181D+03 -.379096235812103D+03 0.259893512503249D+03 -.614699509272367D+03
 0.135882413546334D+04 0.229172758370460D+03 -.196066259062710D+03 0.132493052647893D+04
 0.731313123433509D+03 0.170866800923277D+03 -.345734442318977D+02 -.710231017206560D+03
 0.503548938821481D+02 -.209433234816336D+02 -.292538092086408D+02 -.352307704458829D+02
0.981198436010D-02 0.000000000000D+00 0.000000000000D+00 0.181608274774D-04 0.000000000000D+00  6 4 2 25 4 2 21 0 0.82316469D-01 0.59108778D+00 0.22607257D+06 0.22607257D+06 0.22607257D+06 0.10937614D+01  1  2  2  2  6  2        2 0.344358531047D-03 0.100000000000D+01
0.799861484971D-03 0.000000000000D+00 -.376806034976D-04 0.181608274774D-04 0.000000000000D+00  6 4 2 25 4 2 21 2 0.82316469D-01 0.59108778D+00 0.22607257D+06 0.22607257D+06 0.22607257D+06 0.10937614D+01  1  2  3  2  6  2        2 0.335825703266D-04 0.100000000000D+01
-.657719752919D-02 0.000000000000D+00 0.000000000000D+00 0.181608274774D-04 0.000000000000D+00  6 4 2 25 4 2 21 2 0.82316469D-01 0.59108778D+00 0.22607257D+06 0.22607257D+06 0.22607257D+06 0.10937614D+01  1  2 15  2  6  2        2 -.276146811324D-03 0.100000000000D+01
-.475164744350D-03 0.000000000000D+00 0.000000000000D+00 0.181608274774D-04 0.000000000000D+00  6 4 2 25 4 2 21 2 0.82316469D-01 0.59108778D+00 0.22607257D+06 0.22607257D+06 0.22607257D+06 0.10937614D+01  1  2  4  2  6  2        2 -.199500210270D-04 0.100000000000D+01
-.204173195681D+00 0.000000000000D+00 -.278302971418D-01 0.181608274774D-04 0.000000000000D+00  6 4 2 25 4 2 21 2 0.82316469D-01 0.60943473D+00 0.22607257D+06 0.22607257D+06 0.22607257D+06 0.10937614D+01  1  2  5  2  6  2        2 -.689226214636D-02 0.100000000000D+01
0.205743715215D+00 0.000000000000D+00 0.282291607981D-01 0.181608274774D-04 0.000000000000D+00  6 4 2 25 4 2 21 2 0.82316469D-01 0.59108778D+00 0.22607257D+06 0.22607257D+06 0.22607257D+06 0.10937614D+01  1  2  6  2  6  2        2 0.863824914100D-02 0.100000000000D+01
-.110896463784D-02 0.000000000000D+00 -.152438933562D-03 0.181608274774D-04 0.000000000000D+00  6 4 21 25 4 2 -2 2 0.82316469D-01 0.60943473D+00 0.22607257D+06 0.22607257D+06 0.22607257D+06 0.10937614D+01  1  2  5  6  6  2        2 -.754057542365D-06 0.100000000000D+01
  </mgrwgt>
  </event>
  <event>
  5     66 -.18046435E-05 0.12366437E+03 0.75467711E-02 0.94929773E-01
        2 -1    0    0  501    0 0.00000000E+00 0.00000000E+00 0.22773183E+04 0.22773183E+04 0.32000000E+00 0.0000E+00 0.9000E+01
        4 -1    0    0  502    0 0.00000000E+00 0.00000000E+00 -.36269269E+03 0.36269600E+03 0.15500000E+01 0.0000E+00 0.9000E+01
       25  1    1    2    0    0 -.40210199E+03 -.25734103E+03 0.50247793E+03 0.70428650E+03 0.12500000E+03 0.0000E+00 0.9000E+01
        2  1    1    2  501    0 0.11438936E+03 0.47001612E+02 0.15490175E+04 0.15539464E+04 0.32000000E+00 0.0000E+00 0.9000E+01
        4  1    1    2  502    0 0.28771262E+03 0.21033941E+03 -.13686990E+03 0.38178134E+03 0.15500000E+01 0.0000E+00 0.9000E+01
#aMCatNLO 1  0  0  4  1 0.90865078D+01 0.00000000D+00  -5  6  0 0.00000000D+00 0.00000000D+00 0.00000000D+00 0.00000000D+00 0.00000000D+00
  <mgrwgt>
 -.2308717031D-01    8    2    0
 0.908829515847614D+03 0.000000000000000D+00 0.000000000000000D+00 0.908829515847614D+03
 0.908829515847614D+03 -.000000000000000D+00 -.000000000000000D+00 -.908829515847614D+03
 0.493652913955067D+03 -.402112941039194D+03 -.257349877125123D+03 -.120176057857866D+02
 0.625313860555239D+03 0.114384869309386D+03 0.469997655699830D+02 0.612963741107039D+03
 0.698692257184923D+03 0.287728071729807D+03 0.210350111555140D+03 -.600946135321253D+03
 0.000000000000000D+00 0.000000000000000D+00 0.000000000000000D+00 0.000000000000000D+00
 0.908829515847614D+03 0.000000000000000D+00 0.000000000000000D+00 0.908829515847614D+03
 0.908829515847614D+03 -.000000000000000D+00 -.000000000000000D+00 -.908829515847614D+03
 0.493629434626399D+03 -.402092676492088D+03 -.257341550595845D+03 -.119090124667515D+02
 0.498272834588443D+03 0.986921967346727D+02 0.421617303936394D+02 0.486577903816748D+03
 0.698575435719151D+03 0.287756751465673D+03 0.210361895813587D+03 -.600792446828218D+03
 0.127181326761236D+03 0.156437282917421D+02 0.481792438861866D+01 0.126123555478222D+03
0.345674163111D-04 0.000000000000D+00 0.000000000000D+00 0.455251778257D-05 0.000000000000D+00  6 2 4 25 2 4 21 0 0.35035691D+00 0.55799132D-01 0.23696944D+06 0.23696944D+06 0.23696944D+06 0.10922123D+01  1  2  2  3  6  4        2 0.324708374532D-04 0.100000000000D+01
0.585806020405D-05 0.000000000000D+00 -.132747980444D-06 0.455251778257D-05 0.000000000000D+00  6 2 4 25 2 4 21 2 0.35035691D+00 0.55799132D-01 0.23696944D+06 0.23696944D+06 0.23696944D+06 0.10922123D+01  1  2  3  3  6  4        2 0.656439279499D-05 0.100000000000D+01
-.192282411939D-04 0.000000000000D+00 0.000000000000D+00 0.455251778257D-05 0.000000000000D+00  6 2 4 25 2 4 21 2 0.35035691D+00 0.55799132D-01 0.23696944D+06 0.23696944D+06 0.23696944D+06 0.10922123D+01  1  2 15  3  6  4        2 -.215466764692D-04 0.100000000000D+01
0.105801269733D-01 0.000000000000D+00 0.000000000000D+00 0.455251778257D-05 0.000000000000D+00  6 2 4 25 2 4 21 2 0.35035691D+00 0.55799132D-01 0.23698626D+06 0.23698626D+06 0.23698626D+06 0.10922100D+01  1  2 12  3  6  4        2 0.118557328046D-01 0.100000000000D+01
-.337154340916D-01 0.000000000000D+00 0.000000000000D+00 0.455251778257D-05 0.000000000000D+00  6 2 4 25 2 4 21 2 0.35035691D+00 0.55799132D-01 0.23696944D+06 0.23696944D+06 0.23696944D+06 0.10922123D+01  1  2  4  3  6  4        2 -.377806551864D-01 0.100000000000D+01
-.112449373430D-01 0.000000000000D+00 0.000000000000D+00 0.455251778257D-05 0.000000000000D+00  6 2 4 25 2 4 21 2 0.35035691D+00 0.55799132D-01 0.23696944D+06 0.23696944D+06 0.23696944D+06 0.10922123D+01  1  2  5  3  6  4        2 -.126007898696D-01 0.100000000000D+01
0.137587193393D-01 0.000000000000D+00 -.000000000000D+00 0.455251778257D-05 0.000000000000D+00  6 2 4 25 2 4 21 2 0.35035691D+00 0.55799132D-01 0.23696944D+06 0.23696944D+06 0.23696944D+06 0.10922123D+01  1  2  6  3  6  4        2 0.154176698349D-01 0.100000000000D+01
0.301950126959D-05 0.000000000000D+00 0.000000000000D+00 0.455251778257D-05 0.543663504565D-06  6 2 4 25 2 4 21 2 0.35035691D+00 0.55799132D-01 0.23698626D+06 0.23698626D+06 0.23698626D+06 0.10922100D+01  1  2 11  3  6  4        2 0.338355109967D-05 0.100000000000D+01
  </mgrwgt>
  </event>
  <event>
  5     66 0.18046435E-05 0.13301407E+03 0.75467711E-02 0.93837533E-01
        4 -1    0    0  501    0 0.00000000E+00 0.00000000E+00 0.34128724E+03 0.34129076E+03 0.15500000E+01 0.0000E+00 0.9000E+01
        2 -1    0    0  502    0 -.00000000E+00 -.00000000E+00 -.20873676E+04 0.20873676E+04 0.32000000E+00 0.0000E+00 0.9000E+01
       25  1    1    2    0    0 0.49051618E+03 -.88921834E+02 -.20291559E+03 0.55255131E+03 0.12500000E+03 0.0000E+00 0.9000E+01
        4  1    1    2  501    0 -.64596803E+02 0.11665021E+03 0.10741667E+03 0.17123306E+03 0.15500000E+01 0.0000E+00 0.9000E+01
        2  1    1    2  502    0 -.42591937E+03 -.27728379E+02 -.16505814E+04 0.17048740E+04 0.32000000E+00 0.0000E+00 0.9000E+01
#aMCatNLO 1  0  0  5  2 0.19812149D+02 0.00000000D+00  -5  6  0 0.00000000D+00 0.00000000D+00 0.00000000D+00 0.00000000D+00 0.00000000D+00
  <mgrwgt>
 0.1151874987D-02    7    2    0
 0.844035667595136D+03 0.000000000000000D+00 0.000000000000000D+00 0.844035667595136D+03
 0.844035667595136D+03 -.000000000000000D+00 -.000000000000000D+00 -.844035667595136D+03
 0.585674025332050D+03 0.490779509231392D+03 -.886623288623620D+02 0.280470192191509D+03
 0.356582222749105D+03 -.644380637762257D+02 0.116363557246100D+03 0.330844585965219D+03
 0.745815087109117D+03 -.426341445455167D+03 -.277012283837382D+02 -.611314778156729D+03
 0.000000000000000D+00 0.000000000000000D+00 -.000000000000000D+00 0.000000000000000D+00
 0.844035667595136D+03 0.000000000000000D+00 0.000000000000000D+00 0.844035667595136D+03
 0.844035667595136D+03 -.000000000000000D+00 -.000000000000000D+00 -.844035667595136D+03
 0.584485893210086D+03 0.489994889705416D+03 -.887133089510095D+02 0.279345156104652D+03
 0.356023305434319D+03 -.649158824084245D+02 0.116332511324580D+03 0.330159460007479D+03
 0.692277154774436D+03 -.379388110275171D+03 -.243865890646597D+02 -.578547850292622D+03
 0.552849817714307D+02 -.456908970218198D+02 -.323261330891048D+01 -.309567658195094D+02
0.288302684061D-04 0.000000000000D+00 0.000000000000D+00 0.503684313890D-06 0.000000000000D+00  6 4 2 25 4 2 21 0 0.52506001D-01 0.32113374D+00 0.28858642D+06 0.28858642D+06 0.28858642D+06 0.10858004D+01  1  2  2  4  6  5        2 0.393972947989D-04 0.100000000000D+01
0.293498609906D-05 0.000000000000D+00 -.110715821863D-06 0.503684313890D-06 0.000000000000D+00  6 4 2 25 4 2 21 2 0.52506001D-01 0.32113374D+00 0.28858642D+06 0.28858642D+06 0.28858642D+06 0.10858004D+01  1  2  3  4  6  5        2 0.472850367528D-05 0.100000000000D+01
-.174808691318D-04 0.000000000000D+00 0.000000000000D+00 0.503684313890D-06 0.000000000000D+00  6 4 2 25 4 2 21 2 0.52506001D-01 0.32113374D+00 0.28858642D+06 0.28858642D+06 0.28858642D+06 0.10858004D+01  1  2 15  4  6  5        2 -.281631159899D-04 0.100000000000D+01
0.104887864144D-02 0.000000000000D+00 0.000000000000D+00 0.503684313890D-06 0.000000000000D+00  6 4 2 25 4 2 21 2 0.52506001D-01 0.32113374D+00 0.28762063D+06 0.28762063D+06 0.28762063D+06 0.10859085D+01  1  2 12  4  6  5        2 0.169038881451D-02 0.100000000000D+01
-.460838142825D-03 0.000000000000D+00 0.000000000000D+00 0.503684313890D-06 0.000000000000D+00  6 4 2 25 4 2 21 2 0.52506001D-01 0.32113374D+00 0.28858642D+06 0.28858642D+06 0.28858642D+06 0.10858004D+01  1  2  4  4  6  5        2 -.742448099756D-03 0.100000000000D+01
-.151788585990D-02 0.000000000000D+00 0.000000000000D+00 0.503684313890D-06 0.000000000000D+00  6 4 2 25 4 2 21 2 0.52506001D-01 0.32113374D+00 0.28858642D+06 0.28858642D+06 0.28858642D+06 0.10858004D+01  1  2  5  4  6  5        2 -.244543879425D-02 0.100000000000D+01
0.163455997958D-02 0.000000000000D+00 -.000000000000D+00 0.503684313890D-06 0.000000000000D+00  6 4 2 25 4 2 21 2 0.52506001D-01 0.32113374D+00 0.28858642D+06 0.28858642D+06 0.28858642D+06 0.10858004D+01  1  2  6  4  6  5        2 0.263341038425D-02 0.100000000000D+01
  </mgrwgt>
  </event>
  <event>
  5     66 0.18046435E-05 0.21791508E+02 0.75467711E-02 0.94217618E-01
        4 -1    0    0  501    0 0.00000000E+00 0.00000000E+00 0.29305899E+03 0.29306309E+03 0.15500000E+01 0.0000E+00 0.9000E+01
        2 -1    0    0  502    0 -.00000000E+00 -.00000000E+00 -.21675419E+04 0.21675419E+04 0.32000000E+00 0.0000E+00 0.9000E+01
       25  1    1    2    0    0 0.44445917E+03 0.18769240E+03 -.21739131E+03 0.54374293E+03 0.12500000E+03 0.0000E+00 0.9000E+01
        4  1    1    2  501    0 0.20179722E+01 -.21781391E+02 0.96899093E+02 0.99349574E+02 0.15500000E+01 0.0000E+00 0.9000E+01
        2  1    1    2  502    0 -.44647714E+03 -.16591101E+03 -.17539907E+04 0.18175125E+04 0.32000000E+00 0.0000E+00 0.9000E+01
#aMCatNLO 1  0  0  4  1 0.90865078D+01 0.00000000D+00  -5  6  0 0.00000000D+00 0.00000000D+00 0.00000000D+00 0.00000000D+00 0.00000000D+00
  <mgrwgt>
 0.1873733129D-02    6    2    0
 0.797008604279964D+03 0.000000000000000D+00 0.000000000000000D+00 0.797008604279964D+03
 0.797008604279964D+03 -.000000000000000D+00 -.000000000000000D+00 -.797008604279964D+03
 0.584532360928187D+03 0.444902980110158D+03 0.187789153852936D+03 0.304712410243789D+03
 0.266288647219836D+03 0.201030024235567D+01 -.216985831583764D+02 0.265395504521130D+03
 0.743196200411905D+03 -.446913280352514D+03 -.166090570694559D+03 -.570107914764919D+03
 0.000000000000000D+00 0.000000000000000D+00 0.000000000000000D+00 0.000000000000000D+00
 0.797008604279964D+03 0.000000000000000D+00 0.000000000000000D+00 0.797008604279964D+03
 0.797008604279964D+03 -.000000000000000D+00 -.000000000000000D+00 -.797008604279964D+03
 0.585678041031238D+03 0.444920258327768D+03 0.187602657908827D+03 0.306993443287123D+03
 0.142589553026007D+03 -.260927483654342D+02 -.203818162667745D+02 0.138692215645154D+03
 0.741019053884598D+03 -.446891365836884D+03 -.166327109461132D+03 -.567214807651188D+03
 0.124730560618085D+03 0.280638558745501D+02 -.893732180920802D+00 0.121529148718911D+03
0.196005022344D-03 0.000000000000D+00 0.000000000000D+00 0.671312071382D-05 0.000000000000D+00  6 4 2 25 4 2 21 0 0.45086316D-01 0.33346830D+00 0.24870013D+06 0.24870013D+06 0.24870013D+06 0.10906295D+01  1  2  2  3  6  4        4 0.342062511679D-03 0.100000000000D+01
0.995104326180D-04 0.000000000000D+00 -.752710895108D-06 0.671312071382D-05 0.000000000000D+00  6 4 2 25 4 2 21 2 0.45086316D-01 0.33346830D+00 0.24870013D+06 0.24870013D+06 0.24870013D+06 0.10906295D+01  1  2  3  3  6  4        4 0.206567194226D-03 0.100000000000D+01
-.105481207136D-03 0.000000000000D+00 0.000000000000D+00 0.671312071382D-05 0.000000000000D+00  6 4 2 25 4 2 21 2 0.45086316D-01 0.33346830D+00 0.24870013D+06 0.24870013D+06 0.24870013D+06 0.10906295D+01  1  2 15  3  6  4        4 -.218961534269D-03 0.100000000000D+01
-.635713020424D-04 0.000000000000D+00 0.000000000000D+00 0.671312071382D-05 0.000000000000D+00  6 4 2 25 4 2 21 2 0.45086316D-01 0.33346830D+00 0.24870013D+06 0.24870013D+06 0.24870013D+06 0.10906295D+01  1  2  4  3  6  4        4 -.131963505240D-03 0.100000000000D+01
-.945664942228D-03 0.000000000000D+00 0.000000000000D+00 0.671312071382D-05 0.000000000000D+00  6 4 2 25 4 2 21 2 0.45086316D-01 0.33346830D+00 0.24870013D+06 0.24870013D+06 0.24870013D+06 0.10906295D+01  1  2  5  3  6  4        4 -.196304396087D-02 0.100000000000D+01
0.175306477163D-02 0.000000000000D+00 -.000000000000D+00 0.671312071382D-05 0.000000000000D+00  6 4 2 25 4 2 21 2 0.45086316D-01 0.33346830D+00 0.24870013D+06 0.24870013D+06 0.24870013D+06 0.10906295D+01  1  2  6  3  6  4        4 0.363907242333D-02 0.100000000000D+01
  </mgrwgt>
  </event>
  <event>
  6     66 0.18046435E-05 0.40285269E+02 0.75467711E-02 0.93445049E-01
        2 -1    0    0  503    0 0.00000000E+00 0.00000000E+00 0.17826558E+04 0.17826559E+04 0.32000000E+00 0.0000E+00 0.9000E+01
        4 -1    0    0  502    0 0.00000000E+00 0.00000000E+00 -.36749479E+03 0.36749806E+03 0.15500000E+01 0.0000E+00 0.9000E+01
       25  1    1    2    0    0 0.29346044E+02 0.49797529E+03 0.75220524E+03 0.91119608E+03 0.12500000E+03 0.0000E+00 0.9000E+01
        2  1    1    2  501    0 -.99293430E+01 -.52100376E+03 0.72697502E+03 0.89444747E+03 0.32000000E+00 0.0000E+00 0.9000E+01
        4  1    1    2  502    0 -.24021935E+02 0.46271197E+02 -.19989208E+03 0.20658490E+03 0.15500000E+01 0.0000E+00 0.9000E+01
       21  1    1    2  503  501 0.46052346E+01 -.23242723E+02 0.13587287E+03 0.13792546E+03 0.75000000E+00 0.0000E+00 0.9000E+01
#aMCatNLO 2  0  0  1  4 0.23694563D+02 0.00000000D+00  -5  6  0 0.00000000D+00 0.00000000D+00 0.00000000D+00 0.00000000D+00 0.00000000D+00
  <mgrwgt>
 0.3903526428D-03    5    2    0
 0.776518463969609D+03 0.000000000000000D+00 0.000000000000000D+00 0.776518463969609D+03
 0.776518463969609D+03 0.000000000000000D+00 0.000000000000000D+00 -.776518463969609D+03
 0.553634343541659D+03 0.309982398267328D+02 0.489645570342674D+03 0.223991765295614D+03
 0.567853993371364D+03 -.825733108506975D+01 -.529450484655299D+03 0.205114988651305D+03
 0.431548591026195D+03 -.227409087416631D+02 0.398049143126252D+02 -.429106753946919D+03
 0.000000000000000D+00 0.000000000000000D+00 -.000000000000000D+00 0.000000000000000D+00
 0.841207242395939D+03 0.000000000000000D+00 0.000000000000000D+00 0.841207242395939D+03
 0.778781614577404D+03 0.000000000000000D+00 0.000000000000000D+00 -.778781614577404D+03
 0.560934882922369D+03 0.293458148210072D+02 0.497985396484051D+03 0.223991765295614D+03
 0.560020819423351D+03 -.992948253133100D+01 -.521011098725196D+03 0.205114988651305D+03
 0.432261968130809D+03 -.240215668957459D+02 0.462684247984745D+02 -.429106753946919D+03
 0.667711864968132D+02 0.460523460606967D+01 -.232427225573294D+02 0.624256278185352D+02
-.505916566259D-03 0.000000000000D+00 0.000000000000D+00 0.102325563147D-05 0.000000000000D+00  6 2 4 25 2 4 21 2 0.27585538D+00 0.56373461D-01 0.30869401D+06 0.30869401D+06 0.30869401D+06 0.10836351D+01  1  2 13  1  6  1        2 -.996034692121D-03 0.100000000000D+01
-.571142691746D-04 0.000000000000D+00 0.000000000000D+00 0.102325563147D-05 0.000000000000D+00  6 2 4 25 2 4 21 2 0.25316412D+00 0.56373461D-01 0.29249539D+06 0.29249539D+06 0.29249539D+06 0.10853668D+01  1  2  8  1  6  1        2 -.135962530523D-03 0.100000000000D+01
-.535252734581D-05 0.000000000000D+00 0.000000000000D+00 0.102325563147D-05 0.000000000000D+00  6 2 4 25 2 4 21 2 0.27454255D+00 0.56373461D-01 0.29249539D+06 0.29249539D+06 0.29249539D+06 0.10853668D+01  1  2  9  1  6  1        2 -.107049578105D-04 0.100000000000D+01
0.533498680217D-05 0.000000000000D+00 0.000000000000D+00 0.102325563147D-05 0.000000000000D+00  6 2 4 25 2 4 21 2 0.25316412D+00 0.56373461D-01 0.29249539D+06 0.29249539D+06 0.29249539D+06 0.10853668D+01  1  2 10  1  6  1        2 0.127001240918D-04 0.100000000000D+01
0.767408102943D-03 0.000000000000D+00 0.000000000000D+00 0.102325563147D-05 0.177635471512D-07  6 2 4 25 2 4 21 2 0.27425426D+00 0.56537761D-01 0.30869401D+06 0.30869401D+06 0.30869401D+06 0.10836351D+01  1  2  1  1  6  1        2 0.152035469915D-02 0.100000000000D+01
  </mgrwgt>
  </event>
  <event>
  5     66 0.18046435E-05 0.49465017E+02 0.75467711E-02 0.94052280E-01
        2 -1    0    0  501    0 0.00000000E+00 0.00000000E+00 0.25398429E+04 0.25398429E+04 0.32000000E+00 0.0000E+00 0.9000E+01
        4 -1    0    0  502    0 0.00000000E+00 0.00000000E+00 -.16822236E+03 0.16822950E+03 0.15500000E+01 0.0000E+00 0.9000E+01
       25  1    1    2    0    0 -.41655844E+03 -.23295006E+03 0.14241475E+04 0.15071854E+04 0.12500000E+03 0.0000E+00 0.9000E+01
        2  1    1    2  501    0 0.36319603E+02 0.33653701E+02 0.70717257E+03 0.70890397E+03 0.32000000E+00 0.0000E+00 0.9000E+01
        4  1    1    2  502    0 0.38023884E+03 0.19929636E+03 0.24030045E+03 0.49198305E+03 0.15500000E+01 0.0000E+00 0.9000E+01
#aMCatNLO 1  0  0  1  2 0.87257175D+02 0.00000000D+00  -5  6  0 0.00000000D+00 0.00000000D+00 0.00000000D+00 0.00000000D+00 0.00000000D+00
  <mgrwgt>
 0.5415315639D-02    7    2    0
 0.653657443453870D+03 0.000000000000000D+00 0.000000000000000D+00 0.653657443453870D+03
 0.653657443453870D+03 0.000000000000000D+00 0.000000000000000D+00 -.653657443453870D+03
 0.538647398007216D+03 -.416609055503295D+03 -.232965511379752D+03 0.216055513144579D+03
 0.185399465137508D+03 0.362833105719268D+02 0.336200719303032D+02 0.178678968573854D+03
 0.583268023763016D+03 0.380325744931368D+03 0.199345439449449D+03 -.394734481718433D+03
 0.000000000000000D+00 0.000000000000000D+00 0.000000000000000D+00 0.000000000000000D+00
 0.829691559217603D+03 0.000000000000000D+00 0.000000000000000D+00 0.829691559217603D+03
 0.666014890089439D+03 0.000000000000000D+00 0.000000000000000D+00 -.666014890089439D+03
 0.558508354258602D+03 -.420841121921866D+03 -.269294164652763D+03 0.216055513144579D+03
 0.183302844873206D+03 0.348611126192446D+02 0.214117247073357D+02 0.178678968573854D+03
 0.568412456662498D+03 0.375883359904386D+03 0.161211381665705D+03 -.394734481718433D+03
 0.185482793512736D+03 0.100966493982352D+02 0.866710582797222D+02 0.163676669128164D+03
0.311525180513D-03 0.000000000000D+00 0.000000000000D+00 0.857213613585D-06 0.000000000000D+00  6 2 4 25 2 4 21 0 0.39074561D+00 0.25880913D-01 0.23633451D+06 0.23633451D+06 0.23633451D+06 0.10923004D+01  1  2  2  1  6  1        2 0.105242409185D-02 0.100000000000D+01
0.707755875848D-04 0.000000000000D+00 -.119633871963D-05 0.857213613585D-06 0.000000000000D+00  6 2 4 25 2 4 21 2 0.39074561D+00 0.25880913D-01 0.23633451D+06 0.23633451D+06 0.23633451D+06 0.10923004D+01  1  2  3  1  6  1        2 0.285276061087D-03 0.100000000000D+01
-.183766152009D-03 0.000000000000D+00 0.000000000000D+00 0.857213613585D-06 0.000000000000D+00  6 2 4 25 2 4 21 2 0.39074561D+00 0.25880913D-01 0.23633451D+06 0.23633451D+06 0.23633451D+06 0.10923004D+01  1  2 15  1  6  1        2 -.740708566261D-03 0.100000000000D+01
-.405681128280D-04 0.000000000000D+00 0.000000000000D+00 0.857213613585D-06 0.000000000000D+00  6 2 4 25 2 4 21 2 0.39074561D+00 0.25880913D-01 0.23633451D+06 0.23633451D+06 0.23633451D+06 0.10923004D+01  1  2  4  1  6  1        2 -.163518408370D-03 0.100000000000D+01
-.195582172692D-02 0.000000000000D+00 -.231781169327D-03 0.857213613585D-06 0.000000000000D+00  6 2 4 25 2 4 21 2 0.49815355D+00 0.25880913D-01 0.23633451D+06 0.23633451D+06 0.23633451D+06 0.10923004D+01  1  2  5  1  6  1        2 -.291649267847D-02 0.100000000000D+01
0.196067889547D-02 0.000000000000D+00 0.225110324415D-03 0.857213613585D-06 0.000000000000D+00  6 2 4 25 2 4 21 2 0.39074561D+00 0.25880913D-01 0.23633451D+06 0.23633451D+06 0.23633451D+06 0.10923004D+01  1  2  6  1  6  1        2 0.790293336226D-02 0.100000000000D+01
-.610832892740D-04 0.000000000000D+00 -.767776544191D-05 0.857213613585D-06 0.000000000000D+00  6 21 4 25 2 4 -2 2 0.49815355D+00 0.25880913D-01 0.23633451D+06 0.23633451D+06 0.23633451D+06 0.10923004D+01  1  2  5  5  6  1        2 -.459822272545D-05 0.100000000000D+01
  </mgrwgt>
  </event>
  <event>
  5     66 0.18046435E-05 0.56361885E+02 0.75467711E-02 0.93552105E-01
        2 -1    0    0  501    0 0.00000000E+00 0.00000000E+00 0.20144138E+04 0.20144139E+04 0.32000000E+00 0.0000E+00 0.9000E+01
        4 -1    0    0  502    0 0.00000000E+00 0.00000000E+00 -.35598705E+03 0.35599042E+03 0.15500000E+01 0.0000E+00 0.9000E+01
       25  1    1    2    0    0 0.45253959E+03 -.13117550E+03 0.17630514E+03 0.51837013E+03 0.12500000E+03 0.0000E+00 0.9000E+01
        2  1    1    2  501    0 -.40043721E+03 0.10961480E+03 0.16361496E+04 0.16880021E+04 0.32000000E+00 0.0000E+00 0.9000E+01
        4  1    1    2  502    0 -.52102380E+02 0.21560702E+02 -.15402794E+03 0.16403210E+03 0.15500000E+01 0.0000E+00 0.9000E+01
#aMCatNLO 1  0  0  1  4 0.17844396D+03 0.00000000D+00  -5  6  0 0.00000000D+00 0.00000000D+00 0.00000000D+00 0.00000000D+00 0.00000000D+00
  <mgrwgt>
 0.8283776795D-03    7    2    0
 0.846823041018808D+03 0.000000000000000D+00 0.000000000000000D+00 0.846823041018808D+03
 0.846823041018808D+03 0.000000000000000D+00 0.000000000000000D+00 -.846823041018808D+03
 0.553004118576007D+03 0.452554574524112D+03 -.131176246430481D+03 -.261104777075672D+03
 0.760451888031870D+03 -.400475605232329D+03 0.109625306530420D+03 0.637093914421686D+03
 0.380190075429739D+03 -.520789692917831D+02 0.215509399000618D+02 -.375989137346014D+03
 0.000000000000000D+00 -.000000000000000D+00 0.000000000000000D+00 0.000000000000000D+00
 0.103062159635818D+04 0.000000000000000D+00 0.000000000000000D+00 0.103062159635818D+04
 0.895955103329105D+03 0.000000000000000D+00 0.000000000000000D+00 -.895955103329105D+03
 0.595740109352456D+03 0.488779444338809D+03 -.179444219944207D+03 -.261104777075672D+03
 0.730095760482190D+03 -.353472196460131D+03 0.469954254217569D+02 0.637093914421686D+03
 0.377184769753616D+03 -.281956674212104D+02 -.102724617575859D+02 -.375989137346014D+03
 0.223556060099023D+03 -.107111580457468D+03 0.142721256280036D+03 0.134666493029075D+03
0.291837132947D-03 0.000000000000D+00 0.000000000000D+00 0.761328939086D-05 0.000000000000D+00  6 2 4 25 2 4 21 0 0.30991008D+00 0.54767499D-01 0.22994514D+06 0.22994514D+06 0.22994514D+06 0.10932017D+01  1  2  2  1  6  1        2 0.400501884313D-03 0.100000000000D+01
0.785095572722D-04 0.000000000000D+00 -.112073143300D-05 0.761328939086D-05 0.000000000000D+00  6 2 4 25 2 4 21 2 0.30991008D+00 0.54767499D-01 0.22994514D+06 0.22994514D+06 0.22994514D+06 0.10932017D+01  1  2  3  1  6  1        2 0.128761827761D-03 0.100000000000D+01
-.208782410952D-03 0.000000000000D+00 0.000000000000D+00 0.761328939086D-05 0.000000000000D+00  6 2 4 25 2 4 21 2 0.30991008D+00 0.54767499D-01 0.22994514D+06 0.22994514D+06 0.22994514D+06 0.10932017D+01  1  2 15  1  6  1        2 -.342419519005D-03 0.100000000000D+01
-.857281594021D-04 0.000000000000D+00 0.000000000000D+00 0.761328939086D-05 0.000000000000D+00  6 2 4 25 2 4 21 2 0.30991008D+00 0.54767499D-01 0.22994514D+06 0.22994514D+06 0.22994514D+06 0.10932017D+01  1  2  4  1  6  1        2 -.140600901071D-03 0.100000000000D+01
-.938112622898D-03 0.000000000000D+00 -.271238890862D-03 0.761328939086D-05 0.000000000000D+00  6 2 4 25 2 4 21 2 0.38465953D+00 0.54767499D-01 0.22994514D+06 0.22994514D+06 0.22994514D+06 0.10932017D+01  1  2  5  1  6  1        2 -.822499117798D-03 0.100000000000D+01
0.979966030454D-03 0.000000000000D+00 0.265027837631D-03 0.761328939086D-05 0.000000000000D+00  6 2 4 25 2 4 21 2 0.30991008D+00 0.54767499D-01 0.22994514D+06 0.22994514D+06 0.22994514D+06 0.10932017D+01  1  2  6  1  6  1        2 0.160722110287D-02 0.100000000000D+01
-.249091909173D-04 0.000000000000D+00 -.823268319555D-05 0.761328939086D-05 0.000000000000D+00  6 21 4 25 2 4 -2 2 0.38465953D+00 0.54767499D-01 0.22994514D+06 0.22994514D+06 0.22994514D+06 0.10932017D+01  1  2  5  5  6  1        2 -.258759759569D-05 0.100000000000D+01
  </mgrwgt>
  </event>
  <event>
  5     66 0.18046435E-05 0.27223942E+03 0.75467711E-02 0.93219775E-01
        4 -1    0    0  501    0 0.00000000E+00 0.00000000E+00 0.39696208E+03 0.39696511E+03 0.15500000E+01 0.0000E+00 0.9000E+01
        2 -1    0    0  502    0 -.00000000E+00 -.00000000E+00 -.20360144E+04 0.20360144E+04 0.32000000E+00 0.0000E+00 0.9000E+01
       25  1    1    2    0    0 -.44277610E+03 -.18064009E+03 -.11369994E+04 0.12397879E+04 0.12500000E+03 0.0000E+00 0.9000E+01
        4  1    1    2  501    0 0.24135501E+03 -.12618977E+03 0.24148523E+03 0.36399673E+03 0.15500000E+01 0.0000E+00 0.9000E+01
        2  1    1    2  502    0 0.20142109E+03 0.30682987E+03 -.74353813E+03 0.82919484E+03 0.32000000E+00 0.0000E+00 0.9000E+01
#aMCatNLO 1  0  0  4  2 0.36237618D+03 0.00000000D+00  -5  6  0 0.00000000D+00 0.00000000D+00 0.00000000D+00 0.00000000D+00 0.00000000D+00
  <mgrwgt>
 0.1065537614D-03    3    2    0
 0.899012912576554D+03 0.000000000000000D+00 0.000000000000000D+00 0.899012912576554D+03
 0.899012912576554D+03 -.000000000000000D+00 -.000000000000000D+00 -.899012912576554D+03
 0.641169387486679D+03 -.442977648357031D+03 -.180879869157298D+03 -.408076536252400D+03
 0.712373853583978D+03 0.241254452025854D+03 -.126137195360550D+03 0.658302517536099D+03
 0.444482584082451D+03 0.201723196331177D+03 0.307017064517848D+03 -.250225981283698D+03
 0.000000000000000D+00 -.000000000000000D+00 0.000000000000000D+00 0.000000000000000D+00
 0.899012912576554D+03 0.000000000000000D+00 0.000000000000000D+00 0.899012912576554D+03
 0.899012912576554D+03 -.000000000000000D+00 -.000000000000000D+00 -.899012912576554D+03
 0.510810323892009D+03 -.379661677810703D+03 -.213983917099962D+03 -.235308479700961D+03
 0.362398133372681D+03 0.341609427927590D+03 -.521107664021245D+00 -.120975759017213D+03
 0.396096742698939D+03 0.247923746020240D+03 0.282861623186264D+03 -.124160170201372D+03
 0.528720625189478D+03 -.209871496137127D+03 -.683565984222804D+02 0.480444408919546D+03
0.243167532030D-03 0.000000000000D+00 0.000000000000D+00 0.625844302773D-07 0.000000000000D+00  6 4 2 25 4 2 21 0 0.61071324D-01 0.31323322D+00 0.32156788D+06 0.32156788D+06 0.32156788D+06 0.10823282D+01  1  2  2  3  6  4        4 0.248262642095D-03 0.100000000000D+01
0.113925570598D-04 0.000000000000D+00 -.933827350475D-06 0.625844302773D-07 0.000000000000D+00  6 4 2 25 4 2 21 2 0.61071324D-01 0.31323322D+00 0.32156788D+06 0.32156788D+06 0.32156788D+06 0.10823282D+01  1  2  3  3  6  4        4 0.136252635643D-04 0.100000000000D+01
-.129880284020D-03 0.000000000000D+00 0.000000000000D+00 0.625844302773D-07 0.000000000000D+00  6 4 2 25 4 2 21 2 0.61071324D-01 0.31323322D+00 0.32156788D+06 0.32156788D+06 0.32156788D+06 0.10823282D+01  1  2 15  3  6  4        4 -.155334144239D-03 0.100000000000D+01
  </mgrwgt>
  </event>
  <event>
  5     66 0.18046435E-05 0.88717401E+02 0.75467711E-02 0.94040814E-01
        2 -1    0    0  501    0 0.00000000E+00 0.00000000E+00 0.16728376E+04 0.16728376E+04 0.32000000E+00 0.0000E+00 0.9000E+01
        4 -1    0    0  502    0 0.00000000E+00 0.00000000E+00 -.22163724E+03 0.22164266E+03 0.15500000E+01 0.0000E+00 0.9000E+01
       25  1    1    2    0    0 0.40804277E+03 -.22162927E+03 0.11458649E+04 0.12426784E+04 0.12500000E+03 0.0000E+00 0.9000E+01
        2  1    1    2  501    0 0.52642839E+02 0.71635608E+02 0.26326168E+02 0.92715146E+02 0.32000000E+00 0.0000E+00 0.9000E+01
        4  1    1    2  502    0 -.46068561E+03 0.14999367E+03 0.27900934E+03 0.55908671E+03 0.15500000E+01 0.0000E+00 0.9000E+01
#aMCatNLO 1  0  0  5  2 0.40042823D+02 0.00000000D+00  -5  6  0 0.00000000D+00 0.00000000D+00 0.00000000D+00 0.00000000D+00 0.00000000D+00
  <mgrwgt>
 0.6845778756D-03    7    2    0
 0.608907439919211D+03 0.000000000000000D+00 0.000000000000000D+00 0.608907439919211D+03
 0.608907439919211D+03 -.000000000000000D+00 -.000000000000000D+00 -.608907439919211D+03
 0.567790567159092D+03 0.408229488220703D+03 -.221561780800248D+03 0.301695525970355D+03
 0.112629644698305D+03 0.525356457610696D+02 0.714897418025286D+02 -.693877482437755D+02
 0.537394667981025D+03 -.460765133981773D+03 0.150072038997719D+03 -.232307777726579D+03
 0.000000000000000D+00 0.000000000000000D+00 0.000000000000000D+00 0.000000000000000D+00
 0.608907439919211D+03 0.000000000000000D+00 0.000000000000000D+00 0.608907439919211D+03
 0.608907439919211D+03 -.000000000000000D+00 -.000000000000000D+00 -.608907439919211D+03
 0.562720267359705D+03 0.403675950156666D+03 -.220078685202240D+03 0.299399730931983D+03
 0.112680796310902D+03 0.516281271084092D+02 0.717853222720321D+02 -.698452994469733D+02
 0.454266680019057D+03 -.392023630614449D+03 0.897242930966519D+02 -.211246871796268D+03
 0.881471361487575D+02 -.632804466506263D+02 0.585690698335562D+02 -.183075596887416D+02
0.141580053941D-04 0.000000000000D+00 0.000000000000D+00 0.536608143759D-09 0.000000000000D+00  6 2 4 25 2 4 21 0 0.25736005D+00 0.34098456D-01 0.27789300D+06 0.27789300D+06 0.27789300D+06 0.10870200D+01  1  2  2  4  6  5        4 0.830555201033D-04 0.100000000000D+01
0.456584693339D-06 0.000000000000D+00 -.543704686019D-07 0.536608143759D-09 0.000000000000D+00  6 2 4 25 2 4 21 2 0.25736005D+00 0.34098456D-01 0.27789300D+06 0.27789300D+06 0.27789300D+06 0.10870200D+01  1  2  3  4  6  5        4 0.316492066744D-05 0.100000000000D+01
-.828529099473D-05 0.000000000000D+00 0.000000000000D+00 0.536608143759D-09 0.000000000000D+00  6 2 4 25 2 4 21 2 0.25736005D+00 0.34098456D-01 0.27789300D+06 0.27789300D+06 0.27789300D+06 0.10870200D+01  1  2 15  4  6  5        4 -.574313792984D-04 0.100000000000D+01
0.153582477407D-03 0.000000000000D+00 0.000000000000D+00 0.536608143759D-09 0.000000000000D+00  6 2 4 25 2 4 21 2 0.25736005D+00 0.34098456D-01 0.27734335D+06 0.27734335D+06 0.27734335D+06 0.10870840D+01  1  2 12  4  6  5        4 0.106476509877D-02 0.100000000000D+01
-.870699894101D-04 0.000000000000D+00 0.000000000000D+00 0.536608143759D-09 0.000000000000D+00  6 2 4 25 2 4 21 2 0.25736005D+00 0.34098456D-01 0.27789300D+06 0.27789300D+06 0.27789300D+06 0.10870200D+01  1  2  4  4  6  5        4 -.603545438597D-03 0.100000000000D+01
-.158345838799D-03 0.000000000000D+00 0.000000000000D+00 0.536608143759D-09 0.000000000000D+00  6 2 4 25 2 4 21 2 0.25736005D+00 0.34098456D-01 0.27789300D+06 0.27789300D+06 0.27789300D+06 0.10870200D+01  1  2  5  4  6  5        4 -.109761020273D-02 0.100000000000D+01
0.186415198776D-03 0.000000000000D+00 -.000000000000D+00 0.536608143759D-09 0.000000000000D+00  6 2 4 25 2 4 21 2 0.25736005D+00 0.34098456D-01 0.27789300D+06 0.27789300D+06 0.27789300D+06 0.10870200D+01  1  2  6  4  6  5        4 0.129217935673D-02 0.100000000000D+01
  </mgrwgt>
  </event>
  <event>
  5     66 -.18046435E-05 0.44777429E+02 0.75467711E-02 0.92699244E-01
        4 -1    0    0  501    0 0.00000000E+00 0.00000000E+00 0.47823871E+03 0.47824123E+03 0.15500000E+01 0.0000E+00 0.9000E+01
        2 -1    0    0  502    0 -.00000000E+00 -.00000000E+00 -.23640351E+04 0.23640352E+04 0.32000000E+00 0.0000E+00 0.9000E+01
       25  1    1    2    0    0 0.28666099E+03 -.49615112E+03 -.84436736E+03 0.10280670E+04 0.12500000E+03 0.0000E+00 0.9000E+01
        4  1    1    2  501    0 -.24243075E+03 0.50292888E+03 0.18408598E+03 0.58787769E+03 0.15500000E+01 0.0000E+00 0.9000E+01
        2  1    1    2  502    0 -.44230240E+02 -.67777631E+01 -.12255151E+04 0.12263317E+04 0.32000000E+00 0.0000E+00 0.9000E+01
#aMCatNLO 1  0  0  5  5 0.55178427D-01 0.00000000D+00  -5  6  0 0.00000000D+00 0.00000000D+00 0.00000000D+00 0.00000000D+00 0.00000000D+00
  <mgrwgt>
 -.7882125286D-03    7    2    0
 0.106328581564100D+04 0.000000000000000D+00 0.000000000000000D+00 0.106328581564100D+04
 0.106328581564100D+04 -.000000000000000D+00 -.000000000000000D+00 -.106328581564100D+04
 0.625061055269036D+03 0.286654932557091D+03 -.496071847288337D+03 -.216374662986836D+03
 0.948827547293831D+03 -.242393853428776D+03 0.502852337779295D+03 0.767240810119921D+03
 0.552683028719131D+03 -.442610791283152D+02 -.678049049095820D+01 -.550866147133086D+03
 0.000000000000000D+00 0.000000000000000D+00 0.000000000000000D+00 -.000000000000000D+00
 0.106328581564100D+04 0.000000000000000D+00 0.000000000000000D+00 0.106328581564100D+04
 0.106328581564100D+04 -.000000000000000D+00 -.000000000000000D+00 -.106328581564100D+04
 0.625061130052362D+03 0.286654913726146D+03 -.496071850173107D+03 -.216374897353695D+03
 0.948827264598447D+03 -.242393882013689D+03 0.502852333400285D+03 0.767240454356778D+03
 0.550773301279503D+03 -.441581990395139D+02 -.677987056969853D+01 -.548958392061700D+03
 0.190993535168381D+01 -.102832672943740D+00 -.612657479003926D-03 -.190716494138227D+01
0.777228666525D-06 0.000000000000D+00 0.000000000000D+00 0.107586732257D-04 0.000000000000D+00  6 4 2 25 4 2 21 0 0.73575382D-01 0.36369791D+00 0.35367890D+06 0.35367890D+06 0.35367890D+06 0.10793022D+01  1  2  2  4  6  5        2 0.328160554426D-06 0.100000000000D+01
0.342467063329D-06 0.000000000000D+00 -.298476272846D-08 0.107586732257D-04 0.000000000000D+00  6 4 2 25 4 2 21 2 0.73575382D-01 0.36369791D+00 0.35367890D+06 0.35367890D+06 0.35367890D+06 0.10793022D+01  1  2  3  4  6  5        2 0.168438931569D-06 0.100000000000D+01
-.491980043297D-06 0.000000000000D+00 0.000000000000D+00 0.107586732257D-04 0.000000000000D+00  6 4 2 25 4 2 21 2 0.73575382D-01 0.36369791D+00 0.35367890D+06 0.35367890D+06 0.35367890D+06 0.10793022D+01  1  2 15  4  6  5        2 -.241975365574D-06 0.100000000000D+01
-.378908331071D+00 0.000000000000D+00 0.000000000000D+00 0.107586732257D-04 0.000000000000D+00  6 4 2 25 4 2 21 2 0.73575382D-01 0.36369791D+00 0.35367890D+06 0.35367890D+06 0.35367890D+06 0.10793022D+01  1  2  4  4  6  5        2 -.186362197368D+00 0.100000000000D+01
-.175801922657D+00 0.000000000000D+00 0.000000000000D+00 0.107586732257D-04 0.000000000000D+00  6 4 2 25 4 2 21 2 0.73575382D-01 0.36369791D+00 0.35367890D+06 0.35367890D+06 0.35367890D+06 0.10793022D+01  1  2  5  4  6  5        2 -.864663822916D-01 0.100000000000D+01
0.176410500188D+00 0.000000000000D+00 -.000000000000D+00 0.107586732257D-04 0.000000000000D+00  6 4 2 25 4 2 21 2 0.73575382D-01 0.36369791D+00 0.35367890D+06 0.35367890D+06 0.35367890D+06 0.10793022D+01  1  2  6  4  6  5        2 0.867657049420D-01 0.100000000000D+01
0.376696729067D+00 0.000000000000D+00 0.000000000000D+00 0.107586732257D-04 0.494227389991D-01  6 4 2 25 4 2 21 2 0.73575382D-01 0.36369791D+00 0.35367953D+06 0.35367953D+06 0.35367953D+06 0.10793021D+01  1  2 11  4  6  5        2 0.185274407565D+00 0.100000000000D+01
  </mgrwgt>
  </event>
  <event>
  6     66 -.18046435E-05 0.44092002E+02 0.75467711E-02 0.94513028E-01
        2 -1    0    0  501    0 0.00000000E+00 0.00000000E+00 0.10217911E+04 0.10217912E+04 0.32000000E+00 0.0000E+00 0.9000E+01
        4 -1    0    0  502    0 0.00000000E+00 0.00000000E+00 -.40631867E+03 0.40632162E+03 0.15500000E+01 0.0000E+00 0.9000E+01
       25  1    1    2    0    0 -.88315758E+02 0.45393647E+03 0.37372660E+03 0.60758092E+03 0.12500000E+03 0.0000E+00 0.9000E+01
        2  1    1    2  501    0 0.69948025E+02 0.48304882E+00 0.32844388E+03 0.33581013E+03 0.32000000E+00 0.0000E+00 0.9000E+01
        4  1    1    2  503    0 0.40018697E+02 -.40480908E+03 -.11621857E+03 0.42306151E+03 0.15500000E+01 0.0000E+00 0.9000E+01
       21  1    1    2  502  503 -.21650964E+02 -.49610444E+02 0.29520559E+02 0.61660249E+02 0.75000000E+00 0.0000E+00 0.9000E+01
#aMCatNLO 2  0  0  5  2 0.39156349D+02 0.00000000D+00  -5  6  0 0.00000000D+00 0.00000000D+00 0.00000000D+00 0.00000000D+00 0.00000000D+00
  <mgrwgt>
 -.1793324473D-02    3    2    0
 0.644340714912015D+03 0.000000000000000D+00 0.000000000000000D+00 0.644340714912015D+03
 0.644340714912015D+03 -.000000000000000D+00 -.000000000000000D+00 -.644340714912015D+03
 0.501236882507749D+03 -.885213986528429D+02 0.459720885014127D+03 0.128195484508851D+03
 0.216820970546687D+03 0.698046034238053D+02 0.295746202411346D+01 0.205255704008509D+03
 0.570623576769593D+03 0.187167952290376D+02 -.462678347038241D+03 -.333451188517360D+03
 0.000000000000000D+00 0.000000000000000D+00 -.000000000000000D+00 0.000000000000000D+00
 0.644340714912015D+03 0.000000000000000D+00 0.000000000000000D+00 0.644340714912015D+03
 0.644340714912015D+03 -.000000000000000D+00 -.000000000000000D+00 -.644340714912015D+03
 0.494905745011038D+03 -.882900301289489D+02 0.454001465376204D+03 0.124073512326440D+03
 0.215142426390074D+03 0.699049331665194D+02 0.477315238850295D+00 0.203468268096417D+03
 0.524283738683168D+03 0.400813903654848D+02 -.404755413767064D+03 -.330817133504634D+03
 0.543495197397503D+02 -.216962934030553D+02 -.497233668479896D+02 0.327535308177627D+01
-.546862396530D-03 0.000000000000D+00 0.000000000000D+00 0.349752006468D-06 0.000000000000D+00  6 2 4 25 2 4 21 2 0.15719887D+00 0.62510795D-01 0.25502152D+06 0.25502152D+06 0.25502152D+06 0.10898100D+01  1  2 13  4  6  5        4 -.233258088053D-02 0.100000000000D+01
-.436774701557D-05 0.000000000000D+00 0.000000000000D+00 0.349752006468D-06 0.000000000000D+00  6 2 4 25 2 4 21 2 0.15719887D+00 0.62510795D-01 0.25882154D+06 0.25882154D+06 0.25882154D+06 0.10893279D+01  1  2  8  4  6  5        4 -.186088103635D-04 0.100000000000D+01
0.130788823825D-03 0.000000000000D+00 0.000000000000D+00 0.349752006468D-06 0.394914944053D-09  6 2 4 25 2 4 21 2 0.15719887D+00 0.62510795D-01 0.25502152D+06 0.25502152D+06 0.25502152D+06 0.10898100D+01  1  2  1  4  6  5        4 0.557865217606D-03 0.100000000000D+01
  </mgrwgt>
  </event>
  <event>
  5     66 0.18046435E-05 0.14938705E+03 0.75467711E-02 0.84343585E-01
        4 -1    0    0  501    0 0.00000000E+00 0.00000000E+00 0.83665422E+03 0.83665565E+03 0.15500000E+01 0.0000E+00 0.9000E+01
        2 -1    0    0  502    0 0.00000000E+00 0.00000000E+00 -.77229357E+03 0.77229364E+03 0.32000000E+00 0.0000E+00 0.9000E+01
       25  1    1    2    0    0 0.43154925E+03 -.18994116E+03 -.37069500E+03 0.61265993E+03 0.12500000E+03 0.0000E+00 0.9000E+01
        4  1    1    2  501    0 -.10912380E+03 0.10215728E+03 0.60373548E+03 0.62196708E+03 0.15500000E+01 0.0000E+00 0.9000E+01
        2  1    1    2  502    0 -.32242546E+03 0.87783880E+02 -.16867983E+03 0.37432228E+03 0.32000000E+00 0.0000E+00 0.9000E+01
#aMCatNLO 1  0  0  1  4 0.43455306D+01 0.00000000D+00  -5  6  0 0.00000000D+00 0.00000000D+00 0.00000000D+00 0.00000000D+00 0.00000000D+00
  <mgrwgt>
 0.3418673165D-03    3    2    0
 0.803830752411614D+03 0.000000000000000D+00 0.000000000000000D+00 0.803830752411614D+03
 0.803830752411614D+03 0.000000000000000D+00 0.000000000000000D+00 -.803830752411614D+03
 0.627992064320625D+03 0.431863212446247D+03 -.190032480807836D+03 -.395133970728040D+03
 0.597923574732095D+03 -.109056324285762D+03 0.102094115383018D+03 0.578961234417163D+03
 0.381745865770508D+03 -.322806888160485D+03 0.879383654248179D+02 -.183827263689123D+03
 0.000000000000000D+00 -.000000000000000D+00 -.000000000000000D+00 -.000000000000000D+00
 0.147141859946720D+04 0.000000000000000D+00 0.000000000000000D+00 0.147141859946720D+04
 0.173319817028121D+04 0.000000000000000D+00 0.000000000000000D+00 -.173319817028121D+04
 0.729916995824442D+03 0.551351789689058D+03 0.238818278146261D+03 -.395133970728040D+03
 0.792684240670182D+03 0.133095647432128D+02 0.541271696964995D+03 0.578961234417163D+03
 0.472273116664213D+03 -.247657884339437D+03 0.357652074190565D+03 -.183827263689123D+03
 0.120974241658957D+04 -.317003470092834D+03 -.113774204930182D+04 -.261779570814005D+03
0.108981118966D-02 0.000000000000D+00 0.000000000000D+00 0.283089703129D-06 0.000000000000D+00  6 4 2 25 4 2 21 0 0.12871615D+00 0.11881451D+00 0.23622477D+06 0.23622477D+06 0.23622477D+06 0.10923157D+01  1  2  2  1  6  1        4 0.816415150733D-03 0.100000000000D+01
0.125788169081D-03 0.000000000000D+00 -.418516192219D-05 0.283089703129D-06 0.000000000000D+00  6 4 2 25 4 2 21 2 0.12871615D+00 0.11881451D+00 0.23622477D+06 0.23622477D+06 0.23622477D+06 0.10923157D+01  1  2  3  1  6  1        4 0.112433554084D-03 0.100000000000D+01
-.656701771350D-03 0.000000000000D+00 0.000000000000D+00 0.283089703129D-06 0.000000000000D+00  6 4 2 25 4 2 21 2 0.12871615D+00 0.11881451D+00 0.23622477D+06 0.23622477D+06 0.23622477D+06 0.10923157D+01  1  2 15  1  6  1        4 -.586981388356D-03 0.100000000000D+01
  </mgrwgt>
  </event>
  <event>
  5     66 0.18046435E-05 0.96866262E+02 0.75467711E-02 0.93370083E-01
        2 -1    0    0  501    0 0.00000000E+00 0.00000000E+00 0.24034528E+04 0.24034528E+04 0.32000000E+00 0.0000E+00 0.9000E+01
        4 -1    0    0  502    0 0.00000000E+00 0.00000000E+00 -.18264324E+03 0.18264982E+03 0.15500000E+01 0.0000E+00 0.9000E+01
       25  1    1    2    0    0 -.16355137E+03 -.42466603E+03 0.13695281E+04 0.14485588E+04 0.12500000E+03 0.0000E+00 0.9000E+01
        2  1    1    2  501    0 -.11878226E+02 -.96285537E+02 0.44118244E+03 0.45172341E+03 0.32000000E+00 0.0000E+00 0.9000E+01
        4  1    1    2  502    0 0.17542959E+03 0.52095157E+03 0.41009900E+03 0.68582044E+03 0.15500000E+01 0.0000E+00 0.9000E+01
#aMCatNLO 1  0  0  1  1 0.20169360D+03 0.00000000D+00  -5  6  0 0.00000000D+00 0.00000000D+00 0.00000000D+00 0.00000000D+00 0.00000000D+00
  <mgrwgt>
 0.8416946952D-03    7    2    0
 0.662557877759855D+03 0.000000000000000D+00 0.000000000000000D+00 0.662557877759855D+03
 0.662557877759855D+03 0.000000000000000D+00 0.000000000000000D+00 -.662557877759855D+03
 0.531986380858205D+03 -.163601868323440D+03 -.424879846083073D+03 0.245144966279372D+03
 0.141973044205162D+03 -.118599606371052D+02 -.961374743048348D+02 0.103794376768949D+03
 0.651156330456343D+03 0.175461828960546D+03 0.521017320387908D+03 -.348939343048321D+03
 0.000000000000000D+00 -.000000000000000D+00 -.000000000000000D+00 0.000000000000000D+00
 0.964550271434506D+03 0.000000000000000D+00 0.000000000000000D+00 0.964550271434506D+03
 0.704738412260638D+03 0.000000000000000D+00 0.000000000000000D+00 -.704738412260638D+03
 0.469071721372731D+03 -.142567019898976D+03 -.352110593615966D+03 0.245144966279372D+03
 0.129049506746066D+03 -.616506813669419D+01 -.764362118201726D+02 0.103794376768949D+03
 0.742256358029477D+03 0.204741073221897D+03 0.622307744483496D+03 -.348939343048321D+03
 0.328911097546869D+03 -.560089851862262D+02 -.193760939047358D+03 0.259811859173867D+03
0.883297669399D-04 0.000000000000D+00 0.000000000000D+00 0.293267985676D-07 0.000000000000D+00  6 2 4 25 2 4 21 0 0.36976248D+00 0.28099468D-01 0.31291288D+06 0.31291288D+06 0.31291288D+06 0.10832004D+01  1  2  2  1  6  1        2 0.301226151867D-03 0.100000000000D+01
0.866289475778D-05 0.000000000000D+00 -.339209562811D-06 0.293267985676D-07 0.000000000000D+00  6 2 4 25 2 4 21 2 0.36976248D+00 0.28099468D-01 0.31291288D+06 0.31291288D+06 0.31291288D+06 0.10832004D+01  1  2  3  1  6  1        2 0.346630071484D-04 0.100000000000D+01
-.461918186622D-04 0.000000000000D+00 0.000000000000D+00 0.293267985676D-07 0.000000000000D+00  6 2 4 25 2 4 21 2 0.36976248D+00 0.28099468D-01 0.31291288D+06 0.31291288D+06 0.31291288D+06 0.10832004D+01  1  2 15  1  6  1        2 -.184828211037D-03 0.100000000000D+01
-.226340696851D-05 0.000000000000D+00 0.000000000000D+00 0.293267985676D-07 0.000000000000D+00  6 2 4 25 2 4 21 2 0.36976248D+00 0.28099468D-01 0.31291288D+06 0.31291288D+06 0.31291288D+06 0.10832004D+01  1  2  4  1  6  1        2 -.905661376743D-05 0.100000000000D+01
-.208753457438D-03 0.000000000000D+00 -.475838468881D-04 0.293267985676D-07 0.000000000000D+00  6 2 4 25 2 4 21 2 0.54542437D+00 0.28099468D-01 0.31291288D+06 0.31291288D+06 0.31291288D+06 0.10832004D+01  1  2  5  1  6  1        2 -.157353742429D-03 0.100000000000D+01
0.214241286245D-03 0.000000000000D+00 0.442023203140D-04 0.293267985676D-07 0.000000000000D+00  6 2 4 25 2 4 21 2 0.36976248D+00 0.28099468D-01 0.31291288D+06 0.31291288D+06 0.31291288D+06 0.10832004D+01  1  2  6  1  6  1        2 0.857247772741D-03 0.100000000000D+01
-.816870444699D-05 0.000000000000D+00 -.221798072803D-05 0.293267985676D-07 0.000000000000D+00  6 21 4 25 2 4 -2 2 0.54542437D+00 0.28099468D-01 0.31291288D+06 0.31291288D+06 0.31291288D+06 0.10832004D+01  1  2  5  5  6  1        2 -.203669307209D-06 0.100000000000D+01
  </mgrwgt>
  </event>
</LesHouchesEvents>
