<event>
 5    0  0.1911311E+001  0.2353949E+03  0.7546771E-02  0.1122899E+00
         21   -1    0    0  504  501  0.00000000000E+00  0.00000000000E+00  0.32793179642E+03  0.32793179642E+03  0.00000000000E+00 0. -1.
         21   -1    0    0  503  502 -0.00000000000E+00 -0.00000000000E+00 -0.84251676583E+03  0.84251676583E+03  0.00000000000E+00 0. -1.
         25    1    1    2    0    0  0.22482187622E+03 -0.62426009035E+02  0.21665267095E+03  0.34206031992E+03  0.12500000000E+03 0.  0.
         21    1    1    2  503  501 -0.18667371182E+03  0.65839545658E+02 -0.75685410837E+03  0.78231071948E+03  0.00000000000E+00 0. -1.
         21    1    1    2  504  502 -0.38148164400E+02 -0.34135366227E+01  0.25616468005E+02  0.46077522854E+02  0.00000000000E+00 0. -1.
<mgrwt>
<rscale>  4 0.23539493E+03</rscale>
<asrwt>0</asrwt>
<pdfrwt beam="1">  1       21 0.50451046E-01 0.23539493E+03</pdfrwt>
<pdfrwt beam="2">  1       21 0.12961796E+00 0.23539493E+03</pdfrwt>
<totfact> 0.15674380E+03</totfact>
</mgrwt>
</event>
<event>
 5    0  0.1911311E+001  0.2744485E+03  0.7546771E-02  0.1098760E+00
         21   -1    0    0  502  501  0.00000000000E+00  0.00000000000E+00  0.25336018630E+04  0.25336018630E+04  0.00000000000E+00 0. -1.
         21   -1    0    0  504  502 -0.00000000000E+00 -0.00000000000E+00 -0.36740726042E+02  0.36740726042E+02  0.00000000000E+00 0. -1.
         25    1    1    2    0    0 -0.14123149973E+03  0.19937562492E+03  0.19548818471E+04  0.19740529407E+04  0.12500000000E+03 0.  0.
         21    1    1    2  503  501  0.10394632720E+03 -0.17591184719E+03  0.45580272953E+03  0.49950570083E+03  0.00000000000E+00 0. -1.
         21    1    1    2  504  503  0.37285172530E+02 -0.23463777734E+02  0.86176560307E+02  0.96783947546E+02  0.00000000000E+00 0. -1.
<mgrwt>
<rscale>  4 0.27444849E+03</rscale>
<asrwt>0</asrwt>
<pdfrwt beam="1">  1       21 0.38978477E+00 0.27444849E+03</pdfrwt>
<pdfrwt beam="2">  1       21 0.56524213E-02 0.27444849E+03</pdfrwt>
<totfact> 0.19938245E+03</totfact>
</mgrwt>
</event>
<event>
 5    0  0.1911311E+001  0.3943981E+03  0.7546771E-02  0.1045737E+00
         21   -1    0    0  502  501  0.00000000000E+00  0.00000000000E+00  0.16022392048E+03  0.16022392048E+03  0.00000000000E+00 0.  1.
         21   -1    0    0  504  502 -0.00000000000E+00 -0.00000000000E+00 -0.15990226296E+04  0.15990226296E+04  0.00000000000E+00 0. -1.
         25    1    1    2    0    0  0.30377644604E+03  0.12350208447E+03 -0.11097412490E+04  0.11639087308E+04  0.12500000000E+03 0.  0.
         21    1    1    2  503  501 -0.37142993660E+03 -0.10690323523E+03 -0.17106894706E+03  0.42267373251E+03  0.00000000000E+00 0.  1.
         21    1    1    2  504  503  0.67653490561E+02 -0.16598849241E+02 -0.15798851310E+03  0.17266408675E+03  0.00000000000E+00 0.  1.
<mgrwt>
<rscale>  4 0.39439808E+03</rscale>
<asrwt>0</asrwt>
<pdfrwt beam="1">  1       21 0.24649834E-01 0.39439808E+03</pdfrwt>
<pdfrwt beam="2">  1       21 0.24600348E+00 0.39439808E+03</pdfrwt>
<totfact> 0.92362644E+02</totfact>
</mgrwt>
</event>
<event>
 5    0  0.1911311E+001  0.2531316E+03  0.7546771E-02  0.1111342E+00
         21   -1    0    0  502  501  0.00000000000E+00  0.00000000000E+00  0.19115617129E+03  0.19115617129E+03  0.00000000000E+00 0.  1.
         21   -1    0    0  504  502 -0.00000000000E+00 -0.00000000000E+00 -0.60196714162E+03  0.60196714162E+03  0.00000000000E+00 0.  1.
         25    1    1    2    0    0  0.34560948661E+02  0.24577255103E+03 -0.33052369706E+03  0.43182116708E+03  0.12500000000E+03 0.  0.
         21    1    1    2  503  501 -0.62135653069E+02 -0.20521454459E+03  0.51646582675E+02  0.22054754181E+03  0.00000000000E+00 0.  1.
         21    1    1    2  504  503  0.27574704408E+02 -0.40558006440E+02 -0.13193385595E+03  0.14075460403E+03  0.00000000000E+00 0.  1.
<mgrwt>
<rscale>  4 0.25313158E+03</rscale>
<asrwt>0</asrwt>
<pdfrwt beam="1">  1       21 0.29408642E-01 0.25313158E+03</pdfrwt>
<pdfrwt beam="2">  1       21 0.92610329E-01 0.25313158E+03</pdfrwt>
<totfact> 0.10486923E+04</totfact>
</mgrwt>
</event>
<event>
 5    0  0.1911311E+001  0.2975733E+03  0.7546771E-02  0.1086460E+00
         21   -1    0    0  502  501  0.00000000000E+00  0.00000000000E+00  0.38226240056E+03  0.38226240056E+03  0.00000000000E+00 0. -1.
         21   -1    0    0  504  502 -0.00000000000E+00 -0.00000000000E+00 -0.32530482607E+03  0.32530482607E+03  0.00000000000E+00 0. -1.
         25    1    1    2    0    0  0.26937216035E+03  0.10224417811E+03 -0.13873059407E+03  0.34334590497E+03  0.12500000000E+03 0.  0.
         21    1    1    2  503  501 -0.24231459459E+03 -0.10790491635E+03  0.20479862950E+03  0.33511537172E+03  0.00000000000E+00 0. -1.
         21    1    1    2  504  503 -0.27057565766E+02  0.56607382384E+01 -0.91104609438E+01  0.29105949927E+02  0.00000000000E+00 0.  1.
<mgrwt>
<rscale>  4 0.29757332E+03</rscale>
<asrwt>0</asrwt>
<pdfrwt beam="1">  1       21 0.58809601E-01 0.29757332E+03</pdfrwt>
<pdfrwt beam="2">  1       21 0.50046896E-01 0.29757332E+03</pdfrwt>
<totfact> 0.96918555E+03</totfact>
</mgrwt>
</event>
