<event>
 5    0  0.3229500E+000  0.2383341E+03  0.7546771E-02  0.1120908E+00
         21   -1    0    0  502  501  0.00000000000E+00  0.00000000000E+00  0.42372630787E+03  0.42372630787E+03  0.00000000000E+00 0. -1.
         21   -1    0    0  503  502 -0.00000000000E+00 -0.00000000000E+00 -0.11665620578E+03  0.11665620578E+03  0.00000000000E+00 0. -1.
         25    1    1    2    0    0 -0.46124918547E+02  0.19761239353E+03  0.17207234911E+03  0.29395928207E+03  0.12500000000E+03 0.  0.
         21    1    1    2  503  504  0.23156151250E+02 -0.36510695833E+02  0.32717156669E+02  0.54218544718E+02  0.00000000000E+00 0.  1.
         21    1    1    2  504  501  0.22968767297E+02 -0.16110169769E+03  0.10228059631E+03  0.19220468686E+03  0.00000000000E+00 0. -1.
<mgrwt>
<rscale>  4 0.23833415E+03</rscale>
<asrwt>0</asrwt>
<pdfrwt beam="1">  1       21 0.65188662E-01 0.23833415E+03</pdfrwt>
<pdfrwt beam="2">  1       21 0.17947109E-01 0.23833415E+03</pdfrwt>
<totfact> 0.59919141E+04</totfact>
</mgrwt>
</event>
<event>
 5    0  0.2159162E+000  0.3075641E+03  0.7546771E-02  0.1081519E+00
         21   -1    0    0  502  501  0.00000000000E+00  0.00000000000E+00  0.12154061094E+04  0.12154061094E+04  0.00000000000E+00 0. -1.
         21   -1    0    0  503  502 -0.00000000000E+00 -0.00000000000E+00 -0.78948295989E+02  0.78948295989E+02  0.00000000000E+00 0. -1.
         25    1    1    2    0    0  0.26167268468E+03  0.10246028475E+03  0.75454642230E+03  0.81482268456E+03  0.12500000000E+03 0.  0.
         21    1    1    2  503  504 -0.93156259168E+02 -0.74025527360E+02  0.16312814825E+03  0.20191250599E+03  0.00000000000E+00 0. -1.
         21    1    1    2  504  501 -0.16851642552E+03 -0.28434757388E+02  0.21878324288E+03  0.27761921486E+03  0.00000000000E+00 0. -1.
<mgrwt>
<rscale>  4 0.30756415E+03</rscale>
<asrwt>0</asrwt>
<pdfrwt beam="1">  1       21 0.18698554E+00 0.30756415E+03</pdfrwt>
<pdfrwt beam="2">  1       21 0.12145893E-01 0.30756415E+03</pdfrwt>
<totfact> 0.86859369E+03</totfact>
</mgrwt>
</event>
<event>
 5    0  0.2159162E+000  0.2591086E+03  0.7546771E-02  0.1107680E+00
         21   -1    0    0  502  501  0.00000000000E+00  0.00000000000E+00  0.44937255411E+02  0.44937255411E+02  0.00000000000E+00 0. -1.
         21   -1    0    0  503  502 -0.00000000000E+00 -0.00000000000E+00 -0.22763668366E+04  0.22763668366E+04  0.00000000000E+00 0. -1.
         25    1    1    2    0    0 -0.81596241992E+02 -0.21408915525E+03 -0.48748626510E+03  0.55295566889E+03  0.12500000000E+03 0.  0.
         21    1    1    2  503  504 -0.50882473725E+02  0.30477697567E+02 -0.22791971336E+03  0.23551074693E+03  0.00000000000E+00 0. -1.
         21    1    1    2  504  501  0.13247871572E+03  0.18361145768E+03 -0.15160236027E+04  0.15328376762E+04  0.00000000000E+00 0. -1.
<mgrwt>
<rscale>  4 0.25910858E+03</rscale>
<asrwt>0</asrwt>
<pdfrwt beam="1">  1       21 0.69134242E-02 0.25910858E+03</pdfrwt>
<pdfrwt beam="2">  1       21 0.35021027E+00 0.25910858E+03</pdfrwt>
<totfact> 0.24946794E+03</totfact>
</mgrwt>
</event>
<event>
 5    0  0.4481508E+000  0.2372051E+03  0.7546771E-02  0.1121669E+00
         21   -1    0    0  502  501  0.00000000000E+00  0.00000000000E+00  0.45737901277E+03  0.45737901277E+03  0.00000000000E+00 0. -1.
         21   -1    0    0  503  502 -0.00000000000E+00 -0.00000000000E+00 -0.14993902995E+03  0.14993902995E+03  0.00000000000E+00 0.  1.
         25    1    1    2    0    0 -0.47180690654E+02  0.19599805806E+03  0.32440431852E+03  0.40187612296E+03  0.12500000000E+03 0.  0.
         21    1    1    2  503  504  0.32334024510E+02 -0.17873261574E+03 -0.18760972569E+02  0.18260014009E+03  0.00000000000E+00 0.  1.
         21    1    1    2  504  501  0.14846666144E+02 -0.17265442319E+02  0.17966368660E+01  0.22841779661E+02  0.00000000000E+00 0. -1.
<mgrwt>
<rscale>  4 0.23720509E+03</rscale>
<asrwt>0</asrwt>
<pdfrwt beam="1">  1       21 0.70366001E-01 0.23720509E+03</pdfrwt>
<pdfrwt beam="2">  1       21 0.23067543E-01 0.23720509E+03</pdfrwt>
<totfact> 0.31597886E+04</totfact>
</mgrwt>
</event>
<event>
 5    0  0.2159162E+000  0.2417905E+03  0.7546771E-02  0.1118606E+00
         21   -1    0    0  502  501  0.00000000000E+00  0.00000000000E+00  0.46117456204E+03  0.46117456204E+03  0.00000000000E+00 0. -1.
         21   -1    0    0  503  502 -0.00000000000E+00 -0.00000000000E+00 -0.37127321386E+03  0.37127321386E+03  0.00000000000E+00 0. -1.
         25    1    1    2    0    0  0.21857955256E+03  0.29683085513E+02  0.37323829759E+03  0.45120941164E+03  0.12500000000E+03 0.  0.
         21    1    1    2  503  504 -0.96016608866E+02  0.48720580790E+02 -0.97798039939E+02  0.14545563168E+03  0.00000000000E+00 0. -1.
         21    1    1    2  504  501 -0.12256294370E+03 -0.78403666303E+02 -0.18553890947E+03  0.23578273258E+03  0.00000000000E+00 0. -1.
<mgrwt>
<rscale>  4 0.24179046E+03</rscale>
<asrwt>0</asrwt>
<pdfrwt beam="1">  1       21 0.70949932E-01 0.24179046E+03</pdfrwt>
<pdfrwt beam="2">  1       21 0.57118956E-01 0.24179046E+03</pdfrwt>
<totfact> 0.49986876E+03</totfact>
</mgrwt>
</event>
<event>
 5    0  0.2114012E+001  0.2560049E+03  0.7546771E-02  0.1109568E+00
         21   -1    0    0  502  501  0.00000000000E+00  0.00000000000E+00  0.12422138980E+04  0.12422138980E+04  0.00000000000E+00 0. -1.
         21   -1    0    0  503  502 -0.00000000000E+00 -0.00000000000E+00 -0.53403554405E+02  0.53403554405E+02  0.00000000000E+00 0. -1.
         25    1    1    2    0    0 -0.64060927938E+02  0.21403204421E+03  0.40328171355E+03  0.47767631187E+03  0.12500000000E+03 0.  0.
         21    1    1    2  503  504  0.97071557206E+01 -0.17553365167E+02  0.12718932599E+03  0.12876130687E+03  0.00000000000E+00 0.  1.
         21    1    1    2  504  501  0.54353772218E+02 -0.19647867904E+03  0.65833930404E+03  0.68917983366E+03  0.00000000000E+00 0. -1.
<mgrwt>
<rscale>  4 0.25600492E+03</rscale>
<asrwt>0</asrwt>
<pdfrwt beam="1">  1       21 0.19110981E+00 0.25600492E+03</pdfrwt>
<pdfrwt beam="2">  1       21 0.82159324E-02 0.25600492E+03</pdfrwt>
<totfact> 0.16830042E+04</totfact>
</mgrwt>
</event>
<event>
 5    0  0.2159162E+000  0.1958906E+03  0.7546771E-02  0.1153253E+00
         21   -1    0    0  502  501  0.00000000000E+00  0.00000000000E+00  0.97422256019E+03  0.97422256019E+03  0.00000000000E+00 0. -1.
         21   -1    0    0  503  502 -0.00000000000E+00 -0.00000000000E+00 -0.88383598385E+02  0.88383598385E+02  0.00000000000E+00 0.  1.
         25    1    1    2    0    0  0.17677507138E+02 -0.22665596784E+03  0.66091205272E+03  0.71001067841E+03  0.12500000000E+03 0.  0.
         21    1    1    2  503  504  0.34956312869E+02  0.13663058516E+03  0.51325670256E+02  0.15008059514E+03  0.00000000000E+00 0.  1.
         21    1    1    2  504  501 -0.52633820007E+02  0.90025382684E+02  0.17360123883E+03  0.20251488503E+03  0.00000000000E+00 0. -1.
<mgrwt>
<rscale>  4 0.19589057E+03</rscale>
<asrwt>0</asrwt>
<pdfrwt beam="1">  1       21 0.14988039E+00 0.19589057E+03</pdfrwt>
<pdfrwt beam="2">  1       21 0.13597477E-01 0.19589057E+03</pdfrwt>
<totfact> 0.14007638E+04</totfact>
</mgrwt>
</event>
<event>
 5    0  0.3591311E+000  0.2509331E+03  0.7546771E-02  0.1112717E+00
         21   -1    0    0  502  501  0.00000000000E+00  0.00000000000E+00  0.21158044391E+03  0.21158044391E+03  0.00000000000E+00 0. -1.
         21   -1    0    0  503  502 -0.00000000000E+00 -0.00000000000E+00 -0.28126786608E+03  0.28126786608E+03  0.00000000000E+00 0. -1.
         25    1    1    2    0    0 -0.37251337532E+02 -0.21437065174E+03  0.17639573271E+02  0.25155236635E+03  0.12500000000E+03 0.  0.
         21    1    1    2  503  504  0.13674916752E+02  0.19181657912E+03 -0.75408158772E+02  0.20655990362E+03  0.00000000000E+00 0. -1.
         21    1    1    2  504  501  0.23576420779E+02  0.22554072619E+02 -0.11918836669E+02  0.34736040016E+02  0.00000000000E+00 0. -1.
<mgrwt>
<rscale>  4 0.25093314E+03</rscale>
<asrwt>0</asrwt>
<pdfrwt beam="1">  1       21 0.32550838E-01 0.25093314E+03</pdfrwt>
<pdfrwt beam="2">  1       21 0.43271979E-01 0.25093314E+03</pdfrwt>
<totfact> 0.45415638E+04</totfact>
</mgrwt>
</event>
<event>
 5    0  0.2159162E+000  0.2601044E+03  0.7546771E-02  0.1107081E+00
         21   -1    0    0  502  501  0.00000000000E+00  0.00000000000E+00  0.84987167876E+03  0.84987167876E+03  0.00000000000E+00 0. -1.
         21   -1    0    0  503  502 -0.00000000000E+00 -0.00000000000E+00 -0.86658575713E+02  0.86658575713E+02  0.00000000000E+00 0.  1.
         25    1    1    2    0    0  0.12858275519E+03 -0.18840318885E+03  0.60148086442E+03  0.65531177066E+03  0.12500000000E+03 0.  0.
         21    1    1    2  503  504 -0.12916319085E+02  0.20367191121E+02  0.29540473211E+02  0.38135198051E+02  0.00000000000E+00 0.  1.
         21    1    1    2  504  501 -0.11566643611E+03  0.16803599773E+03  0.13219176541E+03  0.24308328576E+03  0.00000000000E+00 0.  1.
<mgrwt>
<rscale>  4 0.26010438E+03</rscale>
<asrwt>0</asrwt>
<pdfrwt beam="1">  1       21 0.13074948E+00 0.26010438E+03</pdfrwt>
<pdfrwt beam="2">  1       21 0.13332089E-01 0.26010438E+03</pdfrwt>
<totfact> 0.19902362E+04</totfact>
</mgrwt>
</event>
<event>
 5    0  0.3192894E+000  0.2471440E+03  0.7546771E-02  0.1115123E+00
         21   -1    0    0  502  501  0.00000000000E+00  0.00000000000E+00  0.71299580055E+03  0.71299580055E+03  0.00000000000E+00 0.  1.
         21   -1    0    0  503  502 -0.00000000000E+00 -0.00000000000E+00 -0.16078245946E+03  0.16078245946E+03  0.00000000000E+00 0.  1.
         25    1    1    2    0    0  0.26967881043E+03  0.13202842642E+02  0.44599409135E+03  0.53613123894E+03  0.12500000000E+03 0.  0.
         21    1    1    2  503  504 -0.73759223867E+02  0.37796177113E+02  0.10681496230E+03  0.13519767114E+03  0.00000000000E+00 0.  1.
         21    1    1    2  504  501 -0.19591958656E+03 -0.50999019755E+02 -0.59571256128E+00  0.20244934993E+03  0.00000000000E+00 0.  1.
<mgrwt>
<rscale>  4 0.24714403E+03</rscale>
<asrwt>0</asrwt>
<pdfrwt beam="1">  1       21 0.10969166E+00 0.24714403E+03</pdfrwt>
<pdfrwt beam="2">  1       21 0.24735763E-01 0.24714403E+03</pdfrwt>
<totfact> 0.98096796E+03</totfact>
</mgrwt>
</event>
<event>
 5    0  0.6588603E+000  0.2538561E+03  0.7546771E-02  0.1110892E+00
         21   -1    0    0  502  501  0.00000000000E+00  0.00000000000E+00  0.10470530738E+04  0.10470530738E+04  0.00000000000E+00 0.  1.
         21   -1    0    0  503  502 -0.00000000000E+00 -0.00000000000E+00 -0.98007970900E+02  0.98007970900E+02  0.00000000000E+00 0.  1.
         25    1    1    2    0    0 -0.19715194156E+03  0.99744847334E+02  0.87402185660E+03  0.91014126840E+03  0.12500000000E+03 0.  0.
         21    1    1    2  503  504  0.15738748019E+02 -0.15078377009E+02  0.22767609059E+01  0.21914590634E+02  0.00000000000E+00 0. -1.
         21    1    1    2  504  501  0.18141319354E+03 -0.84666470325E+02  0.72746485412E+02  0.21300518568E+03  0.00000000000E+00 0.  1.
<mgrwt>
<rscale>  4 0.25385611E+03</rscale>
<asrwt>0</asrwt>
<pdfrwt beam="1">  1       21 0.16108508E+00 0.25385611E+03</pdfrwt>
<pdfrwt beam="2">  1       21 0.15078150E-01 0.25385611E+03</pdfrwt>
<totfact> 0.92007749E+03</totfact>
</mgrwt>
</event>
<event>
 5    0  0.2159162E+000  0.2375233E+03  0.7546771E-02  0.1121454E+00
         21   -1    0    0  502  501  0.00000000000E+00  0.00000000000E+00  0.14780869481E+04  0.14780869481E+04  0.00000000000E+00 0.  1.
         21   -1    0    0  503  502 -0.00000000000E+00 -0.00000000000E+00 -0.44887499072E+02  0.44887499072E+02  0.00000000000E+00 0. -1.
         25    1    1    2    0    0 -0.24905094100E+02  0.20042968896E+03  0.10921981230E+04  0.11177271867E+04  0.12500000000E+03 0.  0.
         21    1    1    2  503  504  0.53552027149E+02 -0.13837245368E+03  0.20529204244E+03  0.25329741064E+03  0.00000000000E+00 0. -1.
         21    1    1    2  504  501 -0.28646933049E+02 -0.62057235278E+02  0.13570928365E+03  0.15194984992E+03  0.00000000000E+00 0. -1.
<mgrwt>
<rscale>  4 0.23752331E+03</rscale>
<asrwt>0</asrwt>
<pdfrwt beam="1">  1       21 0.22739795E+00 0.23752331E+03</pdfrwt>
<pdfrwt beam="2">  1       21 0.69057702E-02 0.23752331E+03</pdfrwt>
<totfact> 0.13546456E+04</totfact>
</mgrwt>
</event>
<event>
 5    0  0.2159162E+000  0.2756597E+03  0.7546771E-02  0.1098083E+00
         21   -1    0    0  502  501  0.00000000000E+00  0.00000000000E+00  0.17019219260E+03  0.17019219260E+03  0.00000000000E+00 0.  1.
         21   -1    0    0  503  502 -0.00000000000E+00 -0.00000000000E+00 -0.40622733004E+03  0.40622733004E+03  0.00000000000E+00 0. -1.
         25    1    1    2    0    0 -0.15384540883E+03  0.19155905038E+03 -0.12211952075E+03  0.30149868482E+03  0.12500000000E+03 0.  0.
         21    1    1    2  503  504  0.11356780953E+03 -0.11510373914E+03 -0.57024970228E+02  0.17145951520E+03  0.00000000000E+00 0. -1.
         21    1    1    2  504  501  0.40277599304E+02 -0.76455311240E+02 -0.56890646458E+02  0.10346132261E+03  0.00000000000E+00 0. -1.
<mgrwt>
<rscale>  4 0.27565972E+03</rscale>
<asrwt>0</asrwt>
<pdfrwt beam="1">  1       21 0.26183415E-01 0.27565972E+03</pdfrwt>
<pdfrwt beam="2">  1       21 0.62496511E-01 0.27565972E+03</pdfrwt>
<totfact> 0.31639238E+04</totfact>
</mgrwt>
</event>
<event>
 5    0  0.2602903E+000  0.2443387E+03  0.7546771E-02  0.1116936E+00
         21   -1    0    0  502  501  0.00000000000E+00  0.00000000000E+00  0.12038852787E+04  0.12038852787E+04  0.00000000000E+00 0. -1.
         21   -1    0    0  503  502 -0.00000000000E+00 -0.00000000000E+00 -0.48633588768E+02  0.48633588768E+02  0.00000000000E+00 0. -1.
         25    1    1    2    0    0  0.12394977946E+03 -0.17513940307E+03  0.48793288017E+03  0.54748593944E+03  0.12500000000E+03 0.  0.
         21    1    1    2  503  504 -0.10168989336E+03  0.17800085602E+03  0.59657005198E+03  0.63080977012E+03  0.00000000000E+00 0. -1.
         21    1    1    2  504  501 -0.22259886101E+02 -0.28614529491E+01  0.70748757737E+02  0.74223157866E+02  0.00000000000E+00 0. -1.
<mgrwt>
<rscale>  4 0.24433874E+03</rscale>
<asrwt>0</asrwt>
<pdfrwt beam="1">  1       21 0.18521310E+00 0.24433874E+03</pdfrwt>
<pdfrwt beam="2">  1       21 0.74820915E-02 0.24433874E+03</pdfrwt>
<totfact> 0.21860507E+04</totfact>
</mgrwt>
</event>
<event>
 5    0  0.2374192E+000  0.2946018E+03  0.7546771E-02  0.1087971E+00
         21   -1    0    0  502  501  0.00000000000E+00  0.00000000000E+00  0.95104526945E+03  0.95104526945E+03  0.00000000000E+00 0.  1.
         21   -1    0    0  503  502 -0.00000000000E+00 -0.00000000000E+00 -0.13657588002E+03  0.13657588002E+03  0.00000000000E+00 0. -1.
         25    1    1    2    0    0 -0.22110647392E+03 -0.16515655917E+03  0.70007922759E+03  0.76282415192E+03  0.12500000000E+03 0.  0.
         21    1    1    2  503  504  0.16541527012E+03  0.17822762800E+03  0.71995717410E+02  0.25359550921E+03  0.00000000000E+00 0. -1.
         21    1    1    2  504  501  0.55691203809E+02 -0.13071068823E+02  0.42394444433E+02  0.71201488331E+02  0.00000000000E+00 0. -1.
<mgrwt>
<rscale>  4 0.29460179E+03</rscale>
<asrwt>0</asrwt>
<pdfrwt beam="1">  1       21 0.14631465E+00 0.29460179E+03</pdfrwt>
<pdfrwt beam="2">  1       21 0.21011674E-01 0.29460179E+03</pdfrwt>
<totfact> 0.62751782E+03</totfact>
</mgrwt>
</event>
<event>
 5    0  0.2159162E+000  0.2751890E+03  0.7546771E-02  0.1098346E+00
         21   -1    0    0  502  501  0.00000000000E+00  0.00000000000E+00  0.78437184199E+03  0.78437184199E+03  0.00000000000E+00 0. -1.
         21   -1    0    0  503  502 -0.00000000000E+00 -0.00000000000E+00 -0.53331334556E+03  0.53331334556E+03  0.00000000000E+00 0.  1.
         25    1    1    2    0    0 -0.29964426436E+02  0.24332306783E+03  0.72225759790E+03  0.77290686367E+03  0.12500000000E+03 0.  0.
         21    1    1    2  503  504  0.55291488710E+02 -0.82480194294E+02 -0.25846671179E+03  0.27688476354E+03  0.00000000000E+00 0.  1.
         21    1    1    2  504  501 -0.25327062275E+02 -0.16084287354E+03 -0.21273238968E+03  0.26789356033E+03  0.00000000000E+00 0.  1.
<mgrwt>
<rscale>  4 0.27518899E+03</rscale>
<asrwt>0</asrwt>
<pdfrwt beam="1">  1       21 0.12067259E+00 0.27518899E+03</pdfrwt>
<pdfrwt beam="2">  1       21 0.82048207E-01 0.27518899E+03</pdfrwt>
<totfact> 0.62736046E+02</totfact>
</mgrwt>
</event>
