<event>
 5    0  0.1615618E+000  0.3293929E+03  0.7546771E-02  0.1071406E+00
         21   -1    0    0  503  501  0.00000000000E+00  0.00000000000E+00  0.14402657907E+04  0.14402657907E+04  0.00000000000E+00 0.  1.
         21   -1    0    0  501  502 -0.00000000000E+00 -0.00000000000E+00 -0.47414620693E+03  0.47414620693E+03  0.00000000000E+00 0.  1.
         25    1    1    2    0    0 -0.13854496444E+03 -0.27522491823E+03 -0.26764487405E+03  0.42685154491E+03  0.12500000000E+03 0.  0.
         21    1    1    2  503  504  0.29196005108E+02 -0.21712288872E+01  0.11850796499E+04  0.11854412248E+04  0.00000000000E+00 0.  1.
         21    1    1    2  504  502  0.10934895933E+03  0.27739614712E+03  0.48684807941E+02  0.30211922790E+03  0.00000000000E+00 0.  1.
<mgrwt>
<rscale>  4 0.32939291E+03</rscale>
<asrwt>0</asrwt>
<pdfrwt beam="1">  1       21 0.22157935E+00 0.32939291E+03</pdfrwt>
<pdfrwt beam="2">  1       21 0.72945571E-01 0.32939291E+03</pdfrwt>
<totfact> 0.14382272E+02</totfact>
</mgrwt>
</event>
<event>
 5    0  0.1615618E+000  0.2535486E+03  0.7546771E-02  0.1111083E+00
         21   -1    0    0  503  501  0.00000000000E+00  0.00000000000E+00  0.84229136765E+03  0.84229136765E+03  0.00000000000E+00 0. -1.
         21   -1    0    0  501  502 -0.00000000000E+00 -0.00000000000E+00 -0.32277319828E+03  0.32277319828E+03  0.00000000000E+00 0. -1.
         25    1    1    2    0    0 -0.11652220881E+03  0.21377346829E+03 -0.23589371922E+03  0.36131339258E+03  0.12500000000E+03 0.  0.
         21    1    1    2  503  504  0.36199653162E+02 -0.10778731929E+03  0.52979025623E+03  0.54185444234E+03  0.00000000000E+00 0. -1.
         21    1    1    2  504  502  0.80322555645E+02 -0.10598614899E+03  0.22562163236E+03  0.26189673101E+03  0.00000000000E+00 0. -1.
<mgrwt>
<rscale>  4 0.25354855E+03</rscale>
<asrwt>0</asrwt>
<pdfrwt beam="1">  1       21 0.12958329E+00 0.25354855E+03</pdfrwt>
<pdfrwt beam="2">  1       21 0.49657415E-01 0.25354855E+03</pdfrwt>
<totfact> 0.15990905E+03</totfact>
</mgrwt>
</event>
<event>
 5    0  0.1615618E+000  0.4959550E+03  0.7546771E-02  0.1014840E+00
         21   -1    0    0  503  501  0.00000000000E+00  0.00000000000E+00  0.83467721688E+03  0.83467721688E+03  0.00000000000E+00 0.  1.
         21   -1    0    0  504  502 -0.00000000000E+00 -0.00000000000E+00 -0.78886045188E+03  0.78886045188E+03  0.00000000000E+00 0.  1.
         25    1    1    2    0    0  0.44524199981E+03 -0.21664359531E+03  0.22824728898E+03  0.55937171068E+03  0.12500000000E+03 0.  0.
         21    1    1    2  503  502 -0.42409825921E+03  0.21711980670E+03 -0.53188377670E+03  0.71407331265E+03  0.00000000000E+00 0.  1.
         21    1    1    2  504  501 -0.21143740607E+02 -0.47621139250E+00  0.34945325272E+03  0.35009264543E+03  0.00000000000E+00 0.  1.
<mgrwt>
<rscale>  4 0.49595503E+03</rscale>
<asrwt>0</asrwt>
<pdfrwt beam="1">  1       21 0.12841188E+00 0.49595503E+03</pdfrwt>
<pdfrwt beam="2">  1       21 0.12136315E+00 0.49595503E+03</pdfrwt>
<totfact> 0.18268582E+02</totfact>
</mgrwt>
</event>
<event>
 5    0  0.1615618E+000  0.3011812E+03  0.7546771E-02  0.1084652E+00
         21   -1    0    0  502  501  0.00000000000E+00  0.00000000000E+00  0.62163058130E+02  0.62163058130E+02  0.00000000000E+00 0. -1.
         21   -1    0    0  503  502 -0.00000000000E+00 -0.00000000000E+00 -0.16082788410E+04  0.16082788410E+04  0.00000000000E+00 0. -1.
         25    1    1    2    0    0 -0.25996844155E+03 -0.44446769867E+02 -0.94798938080E+03  0.99190119067E+03  0.12500000000E+03 0.  0.
         21    1    1    2  503  504 -0.26314367944E+02 -0.36276391168E+01 -0.27014589269E+02  0.37886590758E+02  0.00000000000E+00 0.  1.
         21    1    1    2  504  501  0.28628280949E+03  0.48074408984E+02 -0.57111181284E+03  0.64065411774E+03  0.00000000000E+00 0. -1.
<mgrwt>
<rscale>  4 0.30118116E+03</rscale>
<asrwt>0</asrwt>
<pdfrwt beam="1">  1       21 0.95635487E-02 0.30118116E+03</pdfrwt>
<pdfrwt beam="2">  1       21 0.24742748E+00 0.30118116E+03</pdfrwt>
<totfact> 0.55335589E+03</totfact>
</mgrwt>
</event>
<event>
 5    0  0.1615618E+000  0.2569308E+03  0.7546771E-02  0.1109001E+00
         21   -1    0    0  502  501  0.00000000000E+00  0.00000000000E+00  0.33416066148E+04  0.33416066148E+04  0.00000000000E+00 0. -1.
         21   -1    0    0  504  502 -0.00000000000E+00 -0.00000000000E+00 -0.24950661211E+02  0.24950661211E+02  0.00000000000E+00 0. -1.
         25    1    1    2    0    0  0.19255534933E+03  0.10345098396E+03  0.97790425792E+03  0.10098026571E+04  0.12500000000E+03 0.  0.
         21    1    1    2  503  501 -0.95004594624E+01  0.48927342896E+02  0.54166738809E+03  0.54395560750E+03  0.00000000000E+00 0. -1.
         21    1    1    2  504  503 -0.18305488987E+03 -0.15237832685E+03  0.17970843076E+04  0.18127990114E+04  0.00000000000E+00 0. -1.
<mgrwt>
<rscale>  4 0.25693080E+03</rscale>
<asrwt>0</asrwt>
<pdfrwt beam="1">  1       21 0.51409297E+00 0.25693080E+03</pdfrwt>
<pdfrwt beam="2">  1       21 0.38385659E-02 0.25693080E+03</pdfrwt>
<totfact> 0.57633867E+02</totfact>
</mgrwt>
</event>
<event>
 5    0  0.1615618E+000  0.2452456E+03  0.7546771E-02  0.1116347E+00
         21   -1    0    0  503  501  0.00000000000E+00  0.00000000000E+00  0.49545209755E+03  0.49545209755E+03  0.00000000000E+00 0.  1.
         21   -1    0    0  501  502 -0.00000000000E+00 -0.00000000000E+00 -0.63379025766E+03  0.63379025766E+03  0.00000000000E+00 0.  1.
         25    1    1    2    0    0 -0.12210195722E+03  0.20049905799E+03 -0.53897300044E+03  0.60102051164E+03  0.12500000000E+03 0.  0.
         21    1    1    2  503  504  0.16240473333E+02 -0.10183841216E+03  0.36486396352E+03  0.37915765460E+03  0.00000000000E+00 0.  1.
         21    1    1    2  504  502  0.10586148389E+03 -0.98660645825E+02  0.35770876808E+02  0.14906418897E+03  0.00000000000E+00 0.  1.
<mgrwt>
<rscale>  4 0.24524565E+03</rscale>
<asrwt>0</asrwt>
<pdfrwt beam="1">  1       21 0.76223400E-01 0.24524565E+03</pdfrwt>
<pdfrwt beam="2">  1       21 0.97506193E-01 0.24524565E+03</pdfrwt>
<totfact> 0.12759633E+03</totfact>
</mgrwt>
</event>
<event>
 5    0  0.1615618E+000  0.3055032E+03  0.7546771E-02  0.1082522E+00
         21   -1    0    0  503  501  0.00000000000E+00  0.00000000000E+00  0.43117010270E+03  0.43117010270E+03  0.00000000000E+00 0. -1.
         21   -1    0    0  501  502 -0.00000000000E+00 -0.00000000000E+00 -0.61152869893E+03  0.61152869893E+03  0.00000000000E+00 0. -1.
         25    1    1    2    0    0  0.24666813747E+03  0.13132374946E+03 -0.44488376803E+03  0.54003487320E+03  0.12500000000E+03 0.  0.
         21    1    1    2  503  504 -0.28691665916E+03 -0.39094496002E+02  0.27766287601E+03  0.40118103350E+03  0.00000000000E+00 0. -1.
         21    1    1    2  504  502  0.40248521688E+02 -0.92229253462E+02 -0.13137704215E+02  0.10148289493E+03  0.00000000000E+00 0. -1.
<mgrwt>
<rscale>  4 0.30550317E+03</rscale>
<asrwt>0</asrwt>
<pdfrwt beam="1">  1       21 0.66333862E-01 0.30550317E+03</pdfrwt>
<pdfrwt beam="2">  1       21 0.94081338E-01 0.30550317E+03</pdfrwt>
<totfact> 0.18187250E+03</totfact>
</mgrwt>
</event>
<event>
 5    0  0.1615618E+000  0.2204536E+03  0.7546771E-02  0.1133545E+00
         21   -1    0    0  502  501  0.00000000000E+00  0.00000000000E+00  0.33506041173E+03  0.33506041173E+03  0.00000000000E+00 0.  1.
         21   -1    0    0  504  502 -0.00000000000E+00 -0.00000000000E+00 -0.26468056113E+03  0.26468056113E+03  0.00000000000E+00 0. -1.
         25    1    1    2    0    0 -0.13523066493E+02 -0.23470864367E+03 -0.99301795859E+02  0.28417752797E+03  0.12500000000E+03 0.  0.
         21    1    1    2  503  501  0.23703877009E+02  0.17045606924E+03  0.18074929487E+03  0.24957454382E+03  0.00000000000E+00 0.  1.
         21    1    1    2  504  503 -0.10180810516E+02  0.64252574434E+02 -0.11067648414E+02  0.65988901079E+02  0.00000000000E+00 0.  1.
<mgrwt>
<rscale>  4 0.22045363E+03</rscale>
<asrwt>0</asrwt>
<pdfrwt beam="1">  1       21 0.51547755E-01 0.22045363E+03</pdfrwt>
<pdfrwt beam="2">  1       21 0.40720086E-01 0.22045363E+03</pdfrwt>
<totfact> 0.20440150E+04</totfact>
</mgrwt>
</event>
<event>
 5    0  0.1615618E+000  0.2544714E+03  0.7546771E-02  0.1110511E+00
         21   -1    0    0  502  501  0.00000000000E+00  0.00000000000E+00  0.18204692756E+03  0.18204692756E+03  0.00000000000E+00 0.  1.
         21   -1    0    0  504  502 -0.00000000000E+00 -0.00000000000E+00 -0.66052564648E+03  0.66052564648E+03  0.00000000000E+00 0.  1.
         25    1    1    2    0    0  0.89790738182E+02 -0.20343875120E+03 -0.44249450091E+03  0.51076030140E+03  0.12500000000E+03 0.  0.
         21    1    1    2  503  501  0.25911432011E+00  0.23453698514E+03 -0.22975986490E+02  0.23565984065E+03  0.00000000000E+00 0.  1.
         21    1    1    2  504  503 -0.90049852502E+02 -0.31098233948E+02 -0.13008231515E+02  0.96152431989E+02  0.00000000000E+00 0.  1.
<mgrwt>
<rscale>  4 0.25447145E+03</rscale>
<asrwt>0</asrwt>
<pdfrwt beam="1">  1       21 0.28007220E-01 0.25447145E+03</pdfrwt>
<pdfrwt beam="2">  1       21 0.10161933E+00 0.25447145E+03</pdfrwt>
<totfact> 0.92481545E+03</totfact>
</mgrwt>
</event>
<event>
 5    0  0.1615618E+000  0.2905246E+03  0.7546771E-02  0.1090076E+00
         21   -1    0    0  503  501  0.00000000000E+00  0.00000000000E+00  0.17169542749E+03  0.17169542749E+03  0.00000000000E+00 0.  1.
         21   -1    0    0  504  502 -0.00000000000E+00 -0.00000000000E+00 -0.74189932975E+03  0.74189932975E+03  0.00000000000E+00 0.  1.
         25    1    1    2    0    0  0.17780043037E+03 -0.20872870905E+03 -0.99398526481E+02  0.31731015441E+03  0.12500000000E+03 0.  0.
         21    1    1    2  503  502 -0.72973681276E+02  0.24438696133E+03 -0.33593296122E+03  0.42178323753E+03  0.00000000000E+00 0.  1.
         21    1    1    2  504  501 -0.10482674909E+03 -0.35658252280E+02 -0.13487241457E+03  0.17450136530E+03  0.00000000000E+00 0.  1.
<mgrwt>
<rscale>  4 0.29052459E+03</rscale>
<asrwt>0</asrwt>
<pdfrwt beam="1">  1       21 0.26414681E-01 0.29052459E+03</pdfrwt>
<pdfrwt beam="2">  1       21 0.11413836E+00 0.29052459E+03</pdfrwt>
<totfact> 0.76586993E+03</totfact>
</mgrwt>
</event>
<event>
 5    0  0.1615618E+000  0.5399105E+03  0.7546771E-02  0.1003857E+00
         21   -1    0    0  503  501  0.00000000000E+00  0.00000000000E+00  0.60551142568E+03  0.60551142568E+03  0.00000000000E+00 0.  1.
         21   -1    0    0  501  502 -0.00000000000E+00 -0.00000000000E+00 -0.58609976854E+03  0.58609976854E+03  0.00000000000E+00 0. -1.
         25    1    1    2    0    0  0.21478865953E+03  0.50107869897E+03  0.15162722397E+03  0.57950827938E+03  0.12500000000E+03 0.  0.
         21    1    1    2  503  504 -0.60625741559E+02 -0.87184428306E+01  0.34005980100E+02  0.70056394908E+02  0.00000000000E+00 0.  1.
         21    1    1    2  504  502 -0.15416291797E+03 -0.49236025614E+03 -0.16622154694E+03  0.54204651993E+03  0.00000000000E+00 0. -1.
<mgrwt>
<rscale>  4 0.53991048E+03</rscale>
<asrwt>0</asrwt>
<pdfrwt beam="1">  1       21 0.93155604E-01 0.53991048E+03</pdfrwt>
<pdfrwt beam="2">  1       21 0.90169195E-01 0.53991048E+03</pdfrwt>
<totfact> 0.83070153E+02</totfact>
</mgrwt>
</event>
<event>
 5    0  0.1615618E+000  0.2422383E+03  0.7546771E-02  0.1118311E+00
         21   -1    0    0  503  501  0.00000000000E+00  0.00000000000E+00  0.51610411915E+02  0.51610411915E+02  0.00000000000E+00 0. -1.
         21   -1    0    0  504  502 -0.00000000000E+00 -0.00000000000E+00 -0.16145121508E+04  0.16145121508E+04  0.00000000000E+00 0. -1.
         25    1    1    2    0    0  0.86335472603E+02 -0.19287591246E+03 -0.10045116362E+04  0.10340810213E+04  0.12500000000E+03 0.  0.
         21    1    1    2  503  502 -0.38415260809E+02  0.20217453837E+03 -0.54326733380E+03  0.58093861311E+03  0.00000000000E+00 0. -1.
         21    1    1    2  504  501 -0.47920211794E+02 -0.92986259111E+01 -0.15122768935E+02  0.51102928316E+02  0.00000000000E+00 0. -1.
<mgrwt>
<rscale>  4 0.24223830E+03</rscale>
<asrwt>0</asrwt>
<pdfrwt beam="1">  1       21 0.79400626E-02 0.24223830E+03</pdfrwt>
<pdfrwt beam="2">  1       21 0.24838651E+00 0.24223830E+03</pdfrwt>
<totfact> 0.79073009E+03</totfact>
</mgrwt>
</event>
<event>
 5    0  0.1615618E+000  0.2778720E+03  0.7546771E-02  0.1096857E+00
         21   -1    0    0  503  501  0.00000000000E+00  0.00000000000E+00  0.15694026068E+03  0.15694026068E+03  0.00000000000E+00 0.  1.
         21   -1    0    0  504  502 -0.00000000000E+00 -0.00000000000E+00 -0.16443010177E+04  0.16443010177E+04  0.00000000000E+00 0.  1.
         25    1    1    2    0    0  0.17747080206E+03 -0.10232075059E+03 -0.49330094281E+03  0.54857655962E+03  0.12500000000E+03 0.  0.
         21    1    1    2  503  502 -0.11256383592E+03  0.28823583296E+03 -0.10088031493E+04  0.10551939664E+04  0.00000000000E+00 0.  1.
         21    1    1    2  504  501 -0.64906966144E+02 -0.18591508237E+03  0.14743335149E+02  0.19747075236E+03  0.00000000000E+00 0.  1.
<mgrwt>
<rscale>  4 0.27787202E+03</rscale>
<asrwt>0</asrwt>
<pdfrwt beam="1">  1       21 0.24144656E-01 0.27787202E+03</pdfrwt>
<pdfrwt beam="2">  1       21 0.25296938E+00 0.27787202E+03</pdfrwt>
<totfact> 0.94626195E+02</totfact>
</mgrwt>
</event>
<event>
 5    0  0.1615618E+000  0.2488320E+03  0.7546771E-02  0.1114045E+00
         21   -1    0    0  503  501  0.00000000000E+00  0.00000000000E+00  0.36696402773E+03  0.36696402773E+03  0.00000000000E+00 0. -1.
         21   -1    0    0  504  502 -0.00000000000E+00 -0.00000000000E+00 -0.18330357025E+03  0.18330357025E+03  0.00000000000E+00 0. -1.
         25    1    1    2    0    0 -0.16853986363E+03 -0.14286931821E+03  0.48840186224E+02  0.25851052495E+03  0.12500000000E+03 0.  0.
         21    1    1    2  503  502  0.14900024227E+03  0.14810294401E+03  0.66276903049E+02  0.22029113033E+03  0.00000000000E+00 0. -1.
         21    1    1    2  504  501  0.19539621359E+02 -0.52336258028E+01  0.68543368208E+02  0.71465942709E+02  0.00000000000E+00 0. -1.
<mgrwt>
<rscale>  4 0.24883198E+03</rscale>
<asrwt>0</asrwt>
<pdfrwt beam="1">  1       21 0.56456004E-01 0.24883198E+03</pdfrwt>
<pdfrwt beam="2">  1       21 0.28200549E-01 0.24883198E+03</pdfrwt>
<totfact> 0.34503878E+04</totfact>
</mgrwt>
</event>
<event>
 5    0  0.1615618E+000  0.2773630E+03  0.7546771E-02  0.1097138E+00
         21   -1    0    0  503  501  0.00000000000E+00  0.00000000000E+00  0.33819046069E+03  0.33819046069E+03  0.00000000000E+00 0.  1.
         21   -1    0    0  501  502 -0.00000000000E+00 -0.00000000000E+00 -0.41203341789E+03  0.41203341789E+03  0.00000000000E+00 0. -1.
         25    1    1    2    0    0 -0.17465752852E+03 -0.16862789332E+03 -0.27228615645E+03  0.38562335208E+03  0.12500000000E+03 0.  0.
         21    1    1    2  503  504 -0.17056679572E+02 -0.16121298342E+02  0.60180913042E+02  0.64595424550E+02  0.00000000000E+00 0. -1.
         21    1    1    2  504  502  0.19171420810E+03  0.18474919166E+03  0.13826228622E+03  0.30000510195E+03  0.00000000000E+00 0.  1.
<mgrwt>
<rscale>  4 0.27736297E+03</rscale>
<asrwt>0</asrwt>
<pdfrwt beam="1">  1       21 0.52029302E-01 0.27736297E+03</pdfrwt>
<pdfrwt beam="2">  1       21 0.63389756E-01 0.27736297E+03</pdfrwt>
<totfact> 0.76588202E+03</totfact>
</mgrwt>
</event>
<event>
 5    0  0.1615618E+000  0.2632483E+03  0.7546771E-02  0.1105207E+00
         21   -1    0    0  503  501  0.00000000000E+00  0.00000000000E+00  0.13258776972E+04  0.13258776972E+04  0.00000000000E+00 0.  1.
         21   -1    0    0  504  502 -0.00000000000E+00 -0.00000000000E+00 -0.94402358370E+02  0.94402358370E+02  0.00000000000E+00 0.  1.
         25    1    1    2    0    0 -0.17007821429E+03 -0.11780504566E+03  0.13953277834E+03  0.27910396628E+03  0.12500000000E+03 0.  0.
         21    1    1    2  503  502  0.16852454065E+03  0.16643820586E+03  0.10516723660E+04  0.10780152886E+04  0.00000000000E+00 0.  1.
         21    1    1    2  504  501  0.15536736411E+01 -0.48633160198E+02  0.40270194501E+02  0.63160800643E+02  0.00000000000E+00 0.  1.
<mgrwt>
<rscale>  4 0.26324827E+03</rscale>
<asrwt>0</asrwt>
<pdfrwt beam="1">  1       21 0.20398117E+00 0.26324827E+03</pdfrwt>
<pdfrwt beam="2">  1       21 0.14523441E-01 0.26324827E+03</pdfrwt>
<totfact> 0.49746014E+03</totfact>
</mgrwt>
</event>
<event>
 5    0  0.1615618E+000  0.3301922E+03  0.7546771E-02  0.1071052E+00
         21   -1    0    0  502  501  0.00000000000E+00  0.00000000000E+00  0.94277874974E+03  0.94277874974E+03  0.00000000000E+00 0.  1.
         21   -1    0    0  503  502 -0.00000000000E+00 -0.00000000000E+00 -0.18824909915E+03  0.18824909915E+03  0.00000000000E+00 0. -1.
         25    1    1    2    0    0 -0.12822553206E+03  0.27741678608E+03  0.16605412026E+02  0.33060943722E+03  0.12500000000E+03 0.  0.
         21    1    1    2  503  504  0.87251807155E+01 -0.41068824898E+02  0.66453103455E+02  0.78605293179E+02  0.00000000000E+00 0. -1.
         21    1    1    2  504  501  0.11950035134E+03 -0.23634796118E+03  0.67147113512E+03  0.72181311849E+03  0.00000000000E+00 0.  1.
<mgrwt>
<rscale>  4 0.33019216E+03</rscale>
<asrwt>0</asrwt>
<pdfrwt beam="1">  1       21 0.14504288E+00 0.33019216E+03</pdfrwt>
<pdfrwt beam="2">  1       21 0.28961400E-01 0.33019216E+03</pdfrwt>
<totfact> 0.33943378E+03</totfact>
</mgrwt>
</event>
<event>
 5    0  0.1615618E+000  0.2820425E+03  0.7546771E-02  0.1094579E+00
         21   -1    0    0  503  501  0.00000000000E+00  0.00000000000E+00  0.19017853036E+03  0.19017853036E+03  0.00000000000E+00 0. -1.
         21   -1    0    0  504  502 -0.00000000000E+00 -0.00000000000E+00 -0.67000300263E+03  0.67000300263E+03  0.00000000000E+00 0. -1.
         25    1    1    2    0    0  0.18010800584E+03  0.16520224633E+03 -0.44570644751E+03  0.52345956225E+03  0.12500000000E+03 0.  0.
         21    1    1    2  503  502 -0.21878677480E+03 -0.17000065552E+03 -0.67760019185E+02  0.28523550954E+03  0.00000000000E+00 0. -1.
         21    1    1    2  504  501  0.38678768957E+02  0.47984091930E+01  0.33641994424E+02  0.51486461207E+02  0.00000000000E+00 0. -1.
<mgrwt>
<rscale>  4 0.28204252E+03</rscale>
<asrwt>0</asrwt>
<pdfrwt beam="1">  1       21 0.29258236E-01 0.28204252E+03</pdfrwt>
<pdfrwt beam="2">  1       21 0.10307738E+00 0.28204252E+03</pdfrwt>
<totfact> 0.80834734E+03</totfact>
</mgrwt>
</event>
<event>
 5    0  0.1615618E+000  0.3062533E+03  0.7546771E-02  0.1082156E+00
         21   -1    0    0  503  501  0.00000000000E+00  0.00000000000E+00  0.11262978922E+04  0.11262978922E+04  0.00000000000E+00 0.  1.
         21   -1    0    0  501  502 -0.00000000000E+00 -0.00000000000E+00 -0.39273506448E+03  0.39273506448E+03  0.00000000000E+00 0.  1.
         25    1    1    2    0    0 -0.12777191090E+02 -0.38524381093E+03  0.72859351750E+02  0.41171535751E+03  0.12500000000E+03 0.  0.
         21    1    1    2  503  504 -0.94972628772E+02  0.15595729944E+03  0.79837124095E+03  0.81898664082E+03  0.00000000000E+00 0.  1.
         21    1    1    2  504  502  0.10774981986E+03  0.22928651149E+03 -0.13766776498E+03  0.28833095836E+03  0.00000000000E+00 0.  1.
<mgrwt>
<rscale>  4 0.30625325E+03</rscale>
<asrwt>0</asrwt>
<pdfrwt beam="1">  1       21 0.17327660E+00 0.30625325E+03</pdfrwt>
<pdfrwt beam="2">  1       21 0.60420780E-01 0.30625325E+03</pdfrwt>
<totfact> 0.46488673E+02</totfact>
</mgrwt>
</event>
<event>
 5    0  0.1615618E+000  0.2212867E+03  0.7546771E-02  0.1132927E+00
         21   -1    0    0  503  501  0.00000000000E+00  0.00000000000E+00  0.13748997697E+03  0.13748997697E+03  0.00000000000E+00 0. -1.
         21   -1    0    0  501  502 -0.00000000000E+00 -0.00000000000E+00 -0.83619648292E+03  0.83619648292E+03  0.00000000000E+00 0.  1.
         25    1    1    2    0    0 -0.16872142606E+03  0.11710568458E+03 -0.68692235260E+03  0.72778292057E+03  0.12500000000E+03 0.  0.
         21    1    1    2  503  504  0.15559294515E+03 -0.91187750597E+02  0.41640490872E+02  0.18508998060E+03  0.00000000000E+00 0. -1.
         21    1    1    2  504  502  0.13128480910E+02 -0.25917933986E+02 -0.53424644227E+02  0.60813558717E+02  0.00000000000E+00 0. -1.
<mgrwt>
<rscale>  4 0.22128671E+03</rscale>
<asrwt>0</asrwt>
<pdfrwt beam="1">  1       21 0.21152304E-01 0.22128671E+03</pdfrwt>
<pdfrwt beam="2">  1       21 0.12864561E+00 0.22128671E+03</pdfrwt>
<totfact> 0.90371115E+03</totfact>
</mgrwt>
</event>
<event>
 5    0  0.1615618E+000  0.2904480E+03  0.7546771E-02  0.1090115E+00
         21   -1    0    0  503  501  0.00000000000E+00  0.00000000000E+00  0.81427048791E+03  0.81427048791E+03  0.00000000000E+00 0.  1.
         21   -1    0    0  504  502 -0.00000000000E+00 -0.00000000000E+00 -0.11600296801E+03  0.11600296801E+03  0.00000000000E+00 0.  1.
         25    1    1    2    0    0 -0.23718788657E+03  0.11170025446E+03  0.17963766126E+03  0.34151095111E+03  0.12500000000E+03 0.  0.
         21    1    1    2  503  502  0.19423352496E+03 -0.11231863261E+03  0.35810508224E+03  0.42258891062E+03  0.00000000000E+00 0.  1.
         21    1    1    2  504  501  0.42954361609E+02  0.61837814092E+00  0.16052477640E+03  0.16617359420E+03  0.00000000000E+00 0.  1.
<mgrwt>
<rscale>  4 0.29044800E+03</rscale>
<asrwt>0</asrwt>
<pdfrwt beam="1">  1       21 0.12527238E+00 0.29044800E+03</pdfrwt>
<pdfrwt beam="2">  1       21 0.17846611E-01 0.29044800E+03</pdfrwt>
<totfact> 0.12784883E+04</totfact>
</mgrwt>
</event>
<event>
 5    0  0.1615618E+000  0.2900407E+03  0.7546771E-02  0.1090328E+00
         21   -1    0    0  502  501  0.00000000000E+00  0.00000000000E+00  0.17744972446E+03  0.17744972446E+03  0.00000000000E+00 0. -1.
         21   -1    0    0  503  502 -0.00000000000E+00 -0.00000000000E+00 -0.78653395112E+03  0.78653395112E+03  0.00000000000E+00 0. -1.
         25    1    1    2    0    0  0.22226546087E+03 -0.13819068131E+03 -0.62608820411E+03  0.69000727447E+03  0.12500000000E+03 0.  0.
         21    1    1    2  503  504 -0.87299689873E+01  0.31928951725E+02  0.12611080226E+02  0.35421881108E+02  0.00000000000E+00 0.  1.
         21    1    1    2  504  501 -0.21353549188E+03  0.10626172958E+03  0.43928972335E+01  0.23855452000E+03  0.00000000000E+00 0. -1.
<mgrwt>
<rscale>  4 0.29004069E+03</rscale>
<asrwt>0</asrwt>
<pdfrwt beam="1">  1       21 0.27299958E-01 0.29004069E+03</pdfrwt>
<pdfrwt beam="2">  1       21 0.12100522E+00 0.29004069E+03</pdfrwt>
<totfact> 0.62131742E+03</totfact>
</mgrwt>
</event>
<event>
 5    0  0.1615618E+000  0.2676144E+03  0.7546771E-02  0.1102653E+00
         21   -1    0    0  503  501  0.00000000000E+00  0.00000000000E+00  0.80672802253E+02  0.80672802253E+02  0.00000000000E+00 0.  1.
         21   -1    0    0  504  502 -0.00000000000E+00 -0.00000000000E+00 -0.15681486289E+04  0.15681486289E+04  0.00000000000E+00 0.  1.
         25    1    1    2    0    0  0.22786541891E+03 -0.12208673303E+03 -0.29496440022E+03  0.41165132930E+03  0.12500000000E+03 0.  0.
         21    1    1    2  503  502 -0.21722020975E+03  0.83305823486E+02 -0.11660449614E+04  0.11890270525E+04  0.00000000000E+00 0.  1.
         21    1    1    2  504  501 -0.10645209158E+02  0.38780909545E+02 -0.26466465041E+02  0.48143049289E+02  0.00000000000E+00 0. -1.
<mgrwt>
<rscale>  4 0.26761436E+03</rscale>
<asrwt>0</asrwt>
<pdfrwt beam="1">  1       21 0.12411201E-01 0.26761436E+03</pdfrwt>
<pdfrwt beam="2">  1       21 0.24125362E+00 0.26761436E+03</pdfrwt>
<totfact> 0.38686859E+03</totfact>
</mgrwt>
</event>
<event>
 5    0  0.1615618E+000  0.2535221E+03  0.7546771E-02  0.1111099E+00
         21   -1    0    0  503  501  0.00000000000E+00  0.00000000000E+00  0.25097246744E+03  0.25097246744E+03  0.00000000000E+00 0. -1.
         21   -1    0    0  501  502 -0.00000000000E+00 -0.00000000000E+00 -0.77674883369E+03  0.77674883369E+03  0.00000000000E+00 0.  1.
         25    1    1    2    0    0 -0.24303093466E+03 -0.73918505106E+02 -0.30508681014E+03  0.41621021410E+03  0.12500000000E+03 0.  0.
         21    1    1    2  503  504  0.34060697300E+02  0.91644056527E+02  0.15383004665E+03  0.18227025937E+03  0.00000000000E+00 0. -1.
         21    1    1    2  504  502  0.20897023736E+03 -0.17725551421E+02 -0.37451960276E+03  0.42924082766E+03  0.00000000000E+00 0.  1.
<mgrwt>
<rscale>  4 0.25352210E+03</rscale>
<asrwt>0</asrwt>
<pdfrwt beam="1">  1       21 0.38611150E-01 0.25352210E+03</pdfrwt>
<pdfrwt beam="2">  1       21 0.11949982E+00 0.25352210E+03</pdfrwt>
<totfact> 0.32941221E+03</totfact>
</mgrwt>
</event>
<event>
 5    0  0.1615618E+000  0.3955916E+03  0.7546771E-02  0.1045317E+00
         21   -1    0    0  503  501  0.00000000000E+00  0.00000000000E+00  0.38972057575E+03  0.38972057575E+03  0.00000000000E+00 0.  1.
         21   -1    0    0  504  502 -0.00000000000E+00 -0.00000000000E+00 -0.60148748744E+03  0.60148748744E+03  0.00000000000E+00 0.  1.
         25    1    1    2    0    0  0.26069820257E+03 -0.27152145521E+03 -0.34959340411E+03  0.52870407760E+03  0.12500000000E+03 0.  0.
         21    1    1    2  503  502 -0.27253975715E+03  0.25477423276E+03  0.54921793357E+02  0.37709976438E+03  0.00000000000E+00 0.  1.
         21    1    1    2  504  501  0.11841554574E+02  0.16747222447E+02  0.82904699063E+02  0.85404221214E+02  0.00000000000E+00 0. -1.
<mgrwt>
<rscale>  4 0.39559159E+03</rscale>
<asrwt>0</asrwt>
<pdfrwt beam="1">  1       21 0.59957012E-01 0.39559159E+03</pdfrwt>
<pdfrwt beam="2">  1       21 0.92536536E-01 0.39559159E+03</pdfrwt>
<totfact> 0.22586046E+03</totfact>
</mgrwt>
</event>
<event>
 5    0  0.1615618E+000  0.2450601E+03  0.7546771E-02  0.1116467E+00
         21   -1    0    0  503  501  0.00000000000E+00  0.00000000000E+00  0.71398927126E+03  0.71398927126E+03  0.00000000000E+00 0. -1.
         21   -1    0    0  504  502 -0.00000000000E+00 -0.00000000000E+00 -0.37322013431E+03  0.37322013431E+03  0.00000000000E+00 0. -1.
         25    1    1    2    0    0  0.17098482070E+03  0.14079063751E+03 -0.76383937178E+02  0.26555097134E+03  0.12500000000E+03 0.  0.
         21    1    1    2  503  502 -0.16954388403E+03 -0.11558714900E+03 -0.14985377215E+03  0.25408988696E+03  0.00000000000E+00 0. -1.
         21    1    1    2  504  501 -0.14409366613E+01 -0.25203488508E+02  0.56700684627E+03  0.56756854727E+03  0.00000000000E+00 0. -1.
<mgrwt>
<rscale>  4 0.24506011E+03</rscale>
<asrwt>0</asrwt>
<pdfrwt beam="1">  1       21 0.10984450E+00 0.24506011E+03</pdfrwt>
<pdfrwt beam="2">  1       21 0.57418482E-01 0.24506011E+03</pdfrwt>
<totfact> 0.17849432E+03</totfact>
</mgrwt>
</event>
<event>
 5    0  0.1615618E+000  0.2369582E+03  0.7546771E-02  0.1121836E+00
         21   -1    0    0  503  501  0.00000000000E+00  0.00000000000E+00  0.31075315729E+03  0.31075315729E+03  0.00000000000E+00 0.  1.
         21   -1    0    0  501  502 -0.00000000000E+00 -0.00000000000E+00 -0.28663207557E+03  0.28663207557E+03  0.00000000000E+00 0. -1.
         25    1    1    2    0    0 -0.10549794726E+02  0.20102963428E+03 -0.17978206418E+03  0.29744041862E+03  0.12500000000E+03 0.  0.
         21    1    1    2  503  504  0.42294135943E+02 -0.66161099463E+02  0.97846104727E+02  0.12545893841E+03  0.00000000000E+00 0.  1.
         21    1    1    2  504  502 -0.31744341216E+02 -0.13486853482E+03  0.10605704116E+03  0.17448587583E+03  0.00000000000E+00 0.  1.
<mgrwt>
<rscale>  4 0.23695825E+03</rscale>
<asrwt>0</asrwt>
<pdfrwt beam="1">  1       21 0.47808178E-01 0.23695825E+03</pdfrwt>
<pdfrwt beam="2">  1       21 0.44097242E-01 0.23695825E+03</pdfrwt>
<totfact> 0.20153752E+04</totfact>
</mgrwt>
</event>
<event>
 5    0  0.1615618E+000  0.2790511E+03  0.7546771E-02  0.1096208E+00
         21   -1    0    0  503  501  0.00000000000E+00  0.00000000000E+00  0.66564056748E+02  0.66564056748E+02  0.00000000000E+00 0. -1.
         21   -1    0    0  504  502 -0.00000000000E+00 -0.00000000000E+00 -0.21709263154E+04  0.21709263154E+04  0.00000000000E+00 0. -1.
         25    1    1    2    0    0 -0.47623600811E+02 -0.24475445990E+03 -0.16591823474E+04  0.16824636148E+04  0.12500000000E+03 0.  0.
         21    1    1    2  503  502  0.13208430869E+02  0.25134716515E+03 -0.45381348103E+03  0.51893789189E+03  0.00000000000E+00 0. -1.
         21    1    1    2  504  501  0.34415169942E+02 -0.65927052555E+01  0.86335698070E+01  0.36088865490E+02  0.00000000000E+00 0. -1.
<mgrwt>
<rscale>  4 0.27905114E+03</rscale>
<asrwt>0</asrwt>
<pdfrwt beam="1">  1       21 0.10240624E-01 0.27905114E+03</pdfrwt>
<pdfrwt beam="2">  1       21 0.33398865E+00 0.27905114E+03</pdfrwt>
<totfact> 0.15310362E+03</totfact>
</mgrwt>
</event>
<event>
 5    0  0.1615618E+000  0.3496000E+03  0.7546771E-02  0.1062779E+00
         21   -1    0    0  502  501  0.00000000000E+00  0.00000000000E+00  0.60370390403E+03  0.60370390403E+03  0.00000000000E+00 0. -1.
         21   -1    0    0  503  502 -0.00000000000E+00 -0.00000000000E+00 -0.29049769142E+03  0.29049769142E+03  0.00000000000E+00 0. -1.
         25    1    1    2    0    0 -0.22822204298E+03 -0.26127959040E+03 -0.49350590000E+02  0.37203871572E+03  0.12500000000E+03 0.  0.
         21    1    1    2  503  504  0.94175289851E+01  0.26730762972E+02 -0.10448660218E+02  0.30205927259E+02  0.00000000000E+00 0. -1.
         21    1    1    2  504  501  0.21880451400E+03  0.23454882742E+03  0.37300546282E+03  0.49195695248E+03  0.00000000000E+00 0. -1.
<mgrwt>
<rscale>  4 0.34960002E+03</rscale>
<asrwt>0</asrwt>
<pdfrwt beam="1">  1       21 0.92877524E-01 0.34960002E+03</pdfrwt>
<pdfrwt beam="2">  1       21 0.44691952E-01 0.34960002E+03</pdfrwt>
<totfact> 0.42719793E+03</totfact>
</mgrwt>
</event>
<event>
 5    0  0.1615618E+000  0.3544714E+03  0.7546771E-02  0.1060795E+00
         21   -1    0    0  503  501  0.00000000000E+00  0.00000000000E+00  0.14485860043E+04  0.14485860043E+04  0.00000000000E+00 0. -1.
         21   -1    0    0  504  502 -0.00000000000E+00 -0.00000000000E+00 -0.42147749395E+03  0.42147749395E+03  0.00000000000E+00 0.  1.
         25    1    1    2    0    0 -0.27032967403E+03 -0.17814290222E+03 -0.20255629314E+03  0.40182966312E+03  0.12500000000E+03 0.  0.
         21    1    1    2  503  502 -0.57518639926E+02  0.11492096197E+03 -0.55808300201E+02  0.14010634464E+03  0.00000000000E+00 0.  1.
         21    1    1    2  504  501  0.32784831396E+03  0.63221940250E+02  0.12854731037E+04  0.13281274905E+04  0.00000000000E+00 0. -1.
<mgrwt>
<rscale>  4 0.35447141E+03</rscale>
<asrwt>0</asrwt>
<pdfrwt beam="1">  1       21 0.22285938E+00 0.35447141E+03</pdfrwt>
<pdfrwt beam="2">  1       21 0.64842692E-01 0.35447141E+03</pdfrwt>
<totfact> 0.18009567E+02</totfact>
</mgrwt>
</event>
<event>
 5    0  0.1615618E+000  0.4853252E+03  0.7546771E-02  0.1017682E+00
         21   -1    0    0  503  501  0.00000000000E+00  0.00000000000E+00  0.16692176039E+04  0.16692176039E+04  0.00000000000E+00 0. -1.
         21   -1    0    0  504  502 -0.00000000000E+00 -0.00000000000E+00 -0.66414163240E+03  0.66414163240E+03  0.00000000000E+00 0. -1.
         25    1    1    2    0    0  0.31179756351E+03  0.35733960673E+03 -0.49690773431E+03  0.69817734965E+03  0.12500000000E+03 0.  0.
         21    1    1    2  503  502 -0.14286829373E+03 -0.42689424141E+03  0.90350721998E+03  0.10094430837E+04  0.00000000000E+00 0. -1.
         21    1    1    2  504  501 -0.16892926978E+03  0.69554634677E+02  0.59847648581E+03  0.62573880291E+03  0.00000000000E+00 0. -1.
<mgrwt>
<rscale>  4 0.48532516E+03</rscale>
<asrwt>0</asrwt>
<pdfrwt beam="1">  1       21 0.25680271E+00 0.48532516E+03</pdfrwt>
<pdfrwt beam="2">  1       21 0.10217564E+00 0.48532516E+03</pdfrwt>
<totfact> 0.35426638E+01</totfact>
</mgrwt>
</event>
<event>
 5    0  0.1615618E+000  0.3608462E+03  0.7546771E-02  0.1058249E+00
         21   -1    0    0  502  501  0.00000000000E+00  0.00000000000E+00  0.19529101537E+04  0.19529101537E+04  0.00000000000E+00 0. -1.
         21   -1    0    0  503  502 -0.00000000000E+00 -0.00000000000E+00 -0.12679184583E+03  0.12679184583E+03  0.00000000000E+00 0. -1.
         25    1    1    2    0    0  0.12458915729E+03 -0.25322302223E+03  0.38496668657E+03  0.49342548259E+03  0.12500000000E+03 0.  0.
         21    1    1    2  503  504 -0.18404312777E+03 -0.13681470727E+03  0.29203733900E+03  0.37131650162E+03  0.00000000000E+00 0. -1.
         21    1    1    2  504  501  0.59453970478E+02  0.39003772950E+03  0.11491142823E+04  0.12149600154E+04  0.00000000000E+00 0. -1.
<mgrwt>
<rscale>  4 0.36084625E+03</rscale>
<asrwt>0</asrwt>
<pdfrwt beam="1">  1       21 0.30044769E+00 0.36084625E+03</pdfrwt>
<pdfrwt beam="2">  1       21 0.19506439E-01 0.36084625E+03</pdfrwt>
<totfact> 0.69538084E+02</totfact>
</mgrwt>
</event>
<event>
 5    0  0.1615618E+000  0.2912617E+03  0.7546771E-02  0.1089692E+00
         21   -1    0    0  503  501  0.00000000000E+00  0.00000000000E+00  0.50876938110E+03  0.50876938110E+03  0.00000000000E+00 0. -1.
         21   -1    0    0  504  502 -0.00000000000E+00 -0.00000000000E+00 -0.59075121323E+03  0.59075121323E+03  0.00000000000E+00 0. -1.
         25    1    1    2    0    0  0.28858120905E+03  0.97604663545E+02 -0.19867654915E+03  0.38458179331E+03  0.12500000000E+03 0.  0.
         21    1    1    2  503  502 -0.19639480643E+03 -0.14647299601E+03 -0.24019984666E+03  0.34310526794E+03  0.00000000000E+00 0. -1.
         21    1    1    2  504  501 -0.92186402622E+02  0.48868332464E+02  0.35689456367E+03  0.37183353308E+03  0.00000000000E+00 0. -1.
<mgrwt>
<rscale>  4 0.29126169E+03</rscale>
<asrwt>0</asrwt>
<pdfrwt beam="1">  1       21 0.78272213E-01 0.29126169E+03</pdfrwt>
<pdfrwt beam="2">  1       21 0.90884802E-01 0.29126169E+03</pdfrwt>
<totfact> 0.13732491E+03</totfact>
</mgrwt>
</event>
<event>
 5    0  0.1615618E+000  0.2805680E+03  0.7546771E-02  0.1095379E+00
         21   -1    0    0  502  501  0.00000000000E+00  0.00000000000E+00  0.62093111797E+03  0.62093111797E+03  0.00000000000E+00 0. -1.
         21   -1    0    0  504  502 -0.00000000000E+00 -0.00000000000E+00 -0.36590596157E+03  0.36590596157E+03  0.00000000000E+00 0. -1.
         25    1    1    2    0    0 -0.26690120629E+02 -0.24976192670E+03 -0.27858934427E+03  0.39538640001E+03  0.12500000000E+03 0.  0.
         21    1    1    2  503  501  0.76136184789E+01  0.20107499970E+03  0.39495683522E+03  0.44326067316E+03  0.00000000000E+00 0. -1.
         21    1    1    2  504  503  0.19076502151E+02  0.48686927000E+02  0.13865766546E+03  0.14819000637E+03  0.00000000000E+00 0.  1.
<mgrwt>
<rscale>  4 0.28056796E+03</rscale>
<asrwt>0</asrwt>
<pdfrwt beam="1">  1       21 0.95527864E-01 0.28056796E+03</pdfrwt>
<pdfrwt beam="2">  1       21 0.56293225E-01 0.28056796E+03</pdfrwt>
<totfact> 0.25446145E+03</totfact>
</mgrwt>
</event>
<event>
 5    0  0.1615618E+000  0.2343418E+03  0.7546771E-02  0.1123621E+00
         21   -1    0    0  502  501  0.00000000000E+00  0.00000000000E+00  0.55678833585E+03  0.55678833585E+03  0.00000000000E+00 0.  1.
         21   -1    0    0  504  502 -0.00000000000E+00 -0.00000000000E+00 -0.18265876734E+03  0.18265876734E+03  0.00000000000E+00 0.  1.
         25    1    1    2    0    0 -0.20211267651E+03  0.79792748930E+02  0.13736225855E+01  0.25068566697E+03  0.12500000000E+03 0.  0.
         21    1    1    2  503  501  0.49041036388E+02  0.42744721379E+02 -0.27842559600E+01  0.65114411132E+02  0.00000000000E+00 0. -1.
         21    1    1    2  504  503  0.15307164012E+03 -0.12253747031E+03  0.37554020189E+03  0.42364702509E+03  0.00000000000E+00 0.  1.
<mgrwt>
<rscale>  4 0.23434180E+03</rscale>
<asrwt>0</asrwt>
<pdfrwt beam="1">  1       21 0.85659743E-01 0.23434180E+03</pdfrwt>
<pdfrwt beam="2">  1       21 0.28101349E-01 0.23434180E+03</pdfrwt>
<totfact> 0.13881500E+04</totfact>
</mgrwt>
</event>
<event>
 5    0  0.1615618E+000  0.3491259E+03  0.7546771E-02  0.1062974E+00
         21   -1    0    0  503  501  0.00000000000E+00  0.00000000000E+00  0.13174543932E+04  0.13174543932E+04  0.00000000000E+00 0.  1.
         21   -1    0    0  501  502 -0.00000000000E+00 -0.00000000000E+00 -0.15921272638E+03  0.15921272638E+03  0.00000000000E+00 0.  1.
         25    1    1    2    0    0  0.10437218878E+03  0.31706076612E+03  0.31695505884E+03  0.47697651150E+03  0.12500000000E+03 0.  0.
         21    1    1    2  503  504  0.26801533096E+02 -0.24793337367E+02  0.59367763725E+03  0.59479926759E+03  0.00000000000E+00 0.  1.
         21    1    1    2  504  502 -0.13117372187E+03 -0.29226742875E+03  0.24760897073E+03  0.40489134049E+03  0.00000000000E+00 0.  1.
<mgrwt>
<rscale>  4 0.34912593E+03</rscale>
<asrwt>0</asrwt>
<pdfrwt beam="1">  1       21 0.20268528E+00 0.34912593E+03</pdfrwt>
<pdfrwt beam="2">  1       21 0.24494266E-01 0.34912593E+03</pdfrwt>
<totfact> 0.18004873E+03</totfact>
</mgrwt>
</event>
<event>
 5    0  0.1615618E+000  0.3380144E+03  0.7546771E-02  0.1067645E+00
         21   -1    0    0  503  501  0.00000000000E+00  0.00000000000E+00  0.26965426116E+03  0.26965426116E+03  0.00000000000E+00 0.  1.
         21   -1    0    0  501  502 -0.00000000000E+00 -0.00000000000E+00 -0.11946189508E+04  0.11946189508E+04  0.00000000000E+00 0.  1.
         25    1    1    2    0    0  0.18384970355E+03  0.25778802376E+03 -0.10516185408E+04  0.11053424510E+04  0.12500000000E+03 0.  0.
         21    1    1    2  503  504  0.97195897696E+01 -0.34054775996E+02  0.33539783325E+02  0.48776175115E+02  0.00000000000E+00 0.  1.
         21    1    1    2  504  502 -0.19356929332E+03 -0.22373324777E+03  0.93114067832E+02  0.31015458582E+03  0.00000000000E+00 0.  1.
<mgrwt>
<rscale>  4 0.33801444E+03</rscale>
<asrwt>0</asrwt>
<pdfrwt beam="1">  1       21 0.41485271E-01 0.33801444E+03</pdfrwt>
<pdfrwt beam="2">  1       21 0.18378753E+00 0.33801444E+03</pdfrwt>
<totfact> 0.85017908E+02</totfact>
</mgrwt>
</event>
<event>
 5    0  0.1615618E+000  0.3150035E+03  0.7546771E-02  0.1078003E+00
         21   -1    0    0  502  501  0.00000000000E+00  0.00000000000E+00  0.15895125207E+03  0.15895125207E+03  0.00000000000E+00 0. -1.
         21   -1    0    0  503  502 -0.00000000000E+00 -0.00000000000E+00 -0.12029040288E+04  0.12029040288E+04  0.00000000000E+00 0. -1.
         25    1    1    2    0    0 -0.27911130325E+03 -0.74379487685E+02 -0.99434675185E+03  0.10429697458E+04  0.12500000000E+03 0.  0.
         21    1    1    2  503  504  0.96475209575E+02 -0.30599705790E+02  0.47675123195E+01  0.10132392230E+03  0.00000000000E+00 0.  1.
         21    1    1    2  504  501  0.18263609368E+03  0.10497919347E+03 -0.54373537152E+02  0.21756161270E+03  0.00000000000E+00 0. -1.
<mgrwt>
<rscale>  4 0.31493730E+03</rscale>
<asrwt>0</asrwt>
<pdfrwt beam="1">  1       21 0.24454038E-01 0.31500353E+03</pdfrwt>
<pdfrwt beam="2">  1       21 0.18506216E+00 0.31500353E+03</pdfrwt>
<totfact> 0.24177314E+03</totfact>
</mgrwt>
</event>
<event>
 5    0  0.1615618E+000  0.3756395E+03  0.7546771E-02  0.1052557E+00
         21   -1    0    0  503  501  0.00000000000E+00  0.00000000000E+00  0.53113425860E+03  0.53113425860E+03  0.00000000000E+00 0. -1.
         21   -1    0    0  501  502 -0.00000000000E+00 -0.00000000000E+00 -0.25518189091E+03  0.25518189091E+03  0.00000000000E+00 0.  1.
         25    1    1    2    0    0  0.11853831314E+03  0.33380938892E+03  0.13932498059E+03  0.40064509235E+03  0.12500000000E+03 0.  0.
         21    1    1    2  503  504 -0.23362938068E+00 -0.22799228350E+02  0.26971274772E+02  0.35317262902E+02  0.00000000000E+00 0. -1.
         21    1    1    2  504  502 -0.11830468376E+03 -0.31101016057E+03  0.10965611233E+03  0.35035379425E+03  0.00000000000E+00 0. -1.
<mgrwt>
<rscale>  4 0.37563951E+03</rscale>
<asrwt>0</asrwt>
<pdfrwt beam="1">  1       21 0.81712963E-01 0.37563951E+03</pdfrwt>
<pdfrwt beam="2">  1       21 0.39258753E-01 0.37563951E+03</pdfrwt>
<totfact> 0.74527644E+03</totfact>
</mgrwt>
</event>
<event>
 5    0  0.1615618E+000  0.2502257E+03  0.7546771E-02  0.1113162E+00
         21   -1    0    0  503  501  0.00000000000E+00  0.00000000000E+00  0.13638953219E+03  0.13638953219E+03  0.00000000000E+00 0.  1.
         21   -1    0    0  501  502 -0.00000000000E+00 -0.00000000000E+00 -0.51297387453E+03  0.51297387453E+03  0.00000000000E+00 0.  1.
         25    1    1    2    0    0  0.23118853052E+03  0.50506551661E+02 -0.22903464811E+03  0.35225121496E+03  0.12500000000E+03 0.  0.
         21    1    1    2  503  504 -0.41679646087E+02  0.17559626533E+02  0.35443258695E+01  0.45366238854E+02  0.00000000000E+00 0.  1.
         21    1    1    2  504  502 -0.18950888443E+03 -0.68066178194E+02 -0.15109402010E+03  0.25174595290E+03  0.00000000000E+00 0.  1.
<mgrwt>
<rscale>  4 0.25022568E+03</rscale>
<asrwt>0</asrwt>
<pdfrwt beam="1">  1       21 0.20983005E-01 0.25022568E+03</pdfrwt>
<pdfrwt beam="2">  1       21 0.78919057E-01 0.25022568E+03</pdfrwt>
<totfact> 0.29055885E+04</totfact>
</mgrwt>
</event>
<event>
 5    0  0.1615618E+000  0.3680165E+03  0.7546771E-02  0.1055454E+00
         21   -1    0    0  503  501  0.00000000000E+00  0.00000000000E+00  0.65148717630E+03  0.65148717630E+03  0.00000000000E+00 0. -1.
         21   -1    0    0  501  502 -0.00000000000E+00 -0.00000000000E+00 -0.12462349248E+04  0.12462349248E+04  0.00000000000E+00 0.  1.
         25    1    1    2    0    0  0.19566376430E+03  0.28514654824E+03 -0.11563576296E+04  0.12134170059E+04  0.12500000000E+03 0.  0.
         21    1    1    2  503  504  0.21653900617E+02 -0.75896573974E+01  0.10487025067E+03  0.10735112383E+03  0.00000000000E+00 0.  1.
         21    1    1    2  504  502 -0.21731766492E+03 -0.27755689084E+03  0.45673963041E+03  0.57695397141E+03  0.00000000000E+00 0. -1.
<mgrwt>
<rscale>  4 0.36801652E+03</rscale>
<asrwt>0</asrwt>
<pdfrwt beam="1">  1       21 0.10022880E+00 0.36801652E+03</pdfrwt>
<pdfrwt beam="2">  1       21 0.19172845E+00 0.36801652E+03</pdfrwt>
<totfact> 0.10421742E+02</totfact>
</mgrwt>
</event>
<event>
 5    0  0.1615618E+000  0.3961345E+03  0.7546771E-02  0.1045126E+00
         21   -1    0    0  503  501  0.00000000000E+00  0.00000000000E+00  0.18631152677E+03  0.18631152677E+03  0.00000000000E+00 0. -1.
         21   -1    0    0  501  502 -0.00000000000E+00 -0.00000000000E+00 -0.14597048132E+04  0.14597048132E+04  0.00000000000E+00 0. -1.
         25    1    1    2    0    0 -0.28769139207E+03  0.28593527555E+03 -0.20754552961E+03  0.47246742294E+03  0.12500000000E+03 0.  0.
         21    1    1    2  503  504  0.12675130390E+02 -0.39827018448E+02  0.38539033523E+01  0.41972644662E+02  0.00000000000E+00 0.  1.
         21    1    1    2  504  502  0.27501626168E+03 -0.24610825710E+03 -0.10697016602E+04  0.11315762724E+04  0.00000000000E+00 0. -1.
<mgrwt>
<rscale>  4 0.39613446E+03</rscale>
<asrwt>0</asrwt>
<pdfrwt beam="1">  1       21 0.28663313E-01 0.39613446E+03</pdfrwt>
<pdfrwt beam="2">  1       21 0.22456997E+00 0.39613446E+03</pdfrwt>
<totfact> 0.93365646E+02</totfact>
</mgrwt>
</event>
<event>
 5    0  0.1615618E+000  0.1674274E+03  0.7546771E-02  0.1180557E+00
         21   -1    0    0  503  501  0.00000000000E+00  0.00000000000E+00  0.10864160606E+04  0.10864160606E+04  0.00000000000E+00 0. -1.
         21   -1    0    0  501  502 -0.00000000000E+00 -0.00000000000E+00 -0.14795660204E+03  0.14795660204E+03  0.00000000000E+00 0.  1.
         25    1    1    2    0    0 -0.20475302348E+03  0.30105318741E+02 -0.18284170231E+01  0.24178187266E+03  0.12500000000E+03 0.  0.
         21    1    1    2  503  504  0.10798174409E+03  0.13594353983E+02  0.83839437849E+03  0.84542888371E+03  0.00000000000E+00 0. -1.
         21    1    1    2  504  502  0.96771279385E+02 -0.43699672724E+02  0.10189349714E+03  0.14716190631E+03  0.00000000000E+00 0.  1.
<mgrwt>
<rscale>  4 0.16742743E+03</rscale>
<asrwt>0</asrwt>
<pdfrwt beam="1">  1       21 0.16714093E+00 0.16742743E+03</pdfrwt>
<pdfrwt beam="2">  1       21 0.22762555E-01 0.16742743E+03</pdfrwt>
<totfact> 0.41433855E+03</totfact>
</mgrwt>
</event>
<event>
 5    0  0.1615618E+000  0.2401646E+03  0.7546771E-02  0.1119683E+00
         21   -1    0    0  503  501  0.00000000000E+00  0.00000000000E+00  0.11734502673E+04  0.11734502673E+04  0.00000000000E+00 0.  1.
         21   -1    0    0  504  502 -0.00000000000E+00 -0.00000000000E+00 -0.63134431613E+03  0.63134431613E+03  0.00000000000E+00 0. -1.
         25    1    1    2    0    0  0.14600022338E+03  0.14323527784E+03 -0.57447894691E+03  0.62248170294E+03  0.12500000000E+03 0.  0.
         21    1    1    2  503  502 -0.18861550436E+03 -0.11212796930E+03  0.34462576891E+03  0.40855282472E+03  0.00000000000E+00 0. -1.
         21    1    1    2  504  501  0.42615280984E+02 -0.31107308533E+02  0.77195912922E+03  0.77376005583E+03  0.00000000000E+00 0.  1.
<mgrwt>
<rscale>  4 0.24016462E+03</rscale>
<asrwt>0</asrwt>
<pdfrwt beam="1">  1       21 0.18053081E+00 0.24016462E+03</pdfrwt>
<pdfrwt beam="2">  1       21 0.97129895E-01 0.24016462E+03</pdfrwt>
<totfact> 0.14971622E+02</totfact>
</mgrwt>
</event>
<event>
 5    0  0.1615618E+000  0.3403714E+03  0.7546771E-02  0.1066638E+00
         21   -1    0    0  503  501  0.00000000000E+00  0.00000000000E+00  0.50165843811E+03  0.50165843811E+03  0.00000000000E+00 0. -1.
         21   -1    0    0  504  502 -0.00000000000E+00 -0.00000000000E+00 -0.70052424470E+03  0.70052424470E+03  0.00000000000E+00 0. -1.
         25    1    1    2    0    0 -0.54440457482E+02  0.27796696722E+03 -0.38000794971E+03  0.49016368706E+03  0.12500000000E+03 0.  0.
         21    1    1    2  503  502  0.11702596444E+03 -0.45838343303E+03  0.40426243612E+02  0.47481020335E+03  0.00000000000E+00 0. -1.
         21    1    1    2  504  501 -0.62585506958E+02  0.18041646581E+03  0.14071589950E+03  0.23720879240E+03  0.00000000000E+00 0. -1.
<mgrwt>
<rscale>  4 0.34037141E+03</rscale>
<asrwt>0</asrwt>
<pdfrwt beam="1">  1       21 0.77178221E-01 0.34037141E+03</pdfrwt>
<pdfrwt beam="2">  1       21 0.10777296E+00 0.34037141E+03</pdfrwt>
<totfact> 0.91440570E+02</totfact>
</mgrwt>
</event>
<event>
 5    0  0.1615618E+000  0.2439959E+03  0.7546771E-02  0.1117159E+00
         21   -1    0    0  503  501  0.00000000000E+00  0.00000000000E+00  0.48051125430E+03  0.48051125430E+03  0.00000000000E+00 0. -1.
         21   -1    0    0  501  502 -0.00000000000E+00 -0.00000000000E+00 -0.32915294831E+03  0.32915294831E+03  0.00000000000E+00 0.  1.
         25    1    1    2    0    0  0.56228771258E+02 -0.20685600518E+03 -0.23086915042E+03  0.33893457512E+03  0.12500000000E+03 0.  0.
         21    1    1    2  503  504  0.42070408675E+02  0.39450705598E+02  0.18584983141E+03  0.19459300422E+03  0.00000000000E+00 0. -1.
         21    1    1    2  504  502 -0.98299179932E+02  0.16740529959E+03  0.19637762501E+03  0.27613662326E+03  0.00000000000E+00 0. -1.
<mgrwt>
<rscale>  4 0.24399593E+03</rscale>
<asrwt>0</asrwt>
<pdfrwt beam="1">  1       21 0.73924809E-01 0.24399593E+03</pdfrwt>
<pdfrwt beam="2">  1       21 0.50638915E-01 0.24399593E+03</pdfrwt>
<totfact> 0.58795414E+03</totfact>
</mgrwt>
</event>
<event>
 5    0  0.1615618E+000  0.2578032E+03  0.7546771E-02  0.1108470E+00
         21   -1    0    0  503  501  0.00000000000E+00  0.00000000000E+00  0.84336428578E+03  0.84336428578E+03  0.00000000000E+00 0.  1.
         21   -1    0    0  501  502 -0.00000000000E+00 -0.00000000000E+00 -0.45741595042E+03  0.45741595042E+03  0.00000000000E+00 0.  1.
         25    1    1    2    0    0  0.26365711242E+03  0.16575386332E+02  0.49185507970E+03  0.57213305776E+03  0.12500000000E+03 0.  0.
         21    1    1    2  503  504 -0.41727439921E+02  0.81791003698E+01  0.27977273575E+03  0.28298561906E+03  0.00000000000E+00 0.  1.
         21    1    1    2  504  502 -0.22192967249E+03 -0.24754486702E+02 -0.38567948009E+03  0.44566155938E+03  0.00000000000E+00 0.  1.
<mgrwt>
<rscale>  4 0.25780323E+03</rscale>
<asrwt>0</asrwt>
<pdfrwt beam="1">  1       21 0.12974835E+00 0.25780323E+03</pdfrwt>
<pdfrwt beam="2">  1       21 0.70371684E-01 0.25780323E+03</pdfrwt>
<totfact> 0.74867112E+02</totfact>
</mgrwt>
</event>
<event>
 5    0  0.1615618E+000  0.2370511E+03  0.7546771E-02  0.1121773E+00
         21   -1    0    0  502  501  0.00000000000E+00  0.00000000000E+00  0.72198956597E+03  0.72198956597E+03  0.00000000000E+00 0. -1.
         21   -1    0    0  504  502 -0.00000000000E+00 -0.00000000000E+00 -0.89376683948E+02  0.89376683948E+02  0.00000000000E+00 0. -1.
         25    1    1    2    0    0 -0.20892209551E+02 -0.20032902024E+03  0.14259757374E+03  0.27663562462E+03  0.12500000000E+03 0.  0.
         21    1    1    2  503  501 -0.54413092553E+01  0.17988310919E+03  0.42859593254E+03  0.46484622641E+03  0.00000000000E+00 0. -1.
         21    1    1    2  504  503  0.26333518807E+02  0.20445911055E+02  0.61419375738E+02  0.69884398886E+02  0.00000000000E+00 0. -1.
<mgrwt>
<rscale>  4 0.23705105E+03</rscale>
<asrwt>0</asrwt>
<pdfrwt beam="1">  1       21 0.11107531E+00 0.23705105E+03</pdfrwt>
<pdfrwt beam="2">  1       21 0.13750260E-01 0.23705105E+03</pdfrwt>
<totfact> 0.28595362E+04</totfact>
</mgrwt>
</event>
<event>
 5    0  0.1615618E+000  0.3084849E+03  0.7546771E-02  0.1081074E+00
         21   -1    0    0  503  501  0.00000000000E+00  0.00000000000E+00  0.42127044339E+03  0.42127044339E+03  0.00000000000E+00 0.  1.
         21   -1    0    0  501  502 -0.00000000000E+00 -0.00000000000E+00 -0.15860664462E+04  0.15860664462E+04  0.00000000000E+00 0.  1.
         25    1    1    2    0    0  0.16159492104E+03 -0.23110766825E+03 -0.15013460047E+04  0.15327062663E+04  0.12500000000E+03 0.  0.
         21    1    1    2  503  504  0.16665215289E+02  0.11086142818E+02  0.11050017578E+03  0.11229835622E+03  0.00000000000E+00 0.  1.
         21    1    1    2  504  502 -0.17826013633E+03  0.22002152543E+03  0.22604982615E+03  0.36233226707E+03  0.00000000000E+00 0.  1.
<mgrwt>
<rscale>  4 0.30848492E+03</rscale>
<asrwt>0</asrwt>
<pdfrwt beam="1">  1       21 0.64810836E-01 0.30848492E+03</pdfrwt>
<pdfrwt beam="2">  1       21 0.24401023E+00 0.30848492E+03</pdfrwt>
<totfact> 0.13853582E+02</totfact>
</mgrwt>
</event>
<event>
 5    0  0.1615618E+000  0.2494240E+03  0.7546771E-02  0.1113669E+00
         21   -1    0    0  502  501  0.00000000000E+00  0.00000000000E+00  0.28116809709E+03  0.28116809709E+03  0.00000000000E+00 0.  1.
         21   -1    0    0  503  502 -0.00000000000E+00 -0.00000000000E+00 -0.30580066720E+03  0.30580066720E+03  0.00000000000E+00 0.  1.
         25    1    1    2    0    0  0.24021993862E+03 -0.26112989621E+02 -0.11481989009E+03  0.29528988180E+03  0.12500000000E+03 0.  0.
         21    1    1    2  503  504 -0.16750124275E+03  0.81206494693E+02  0.61372472928E+02  0.19600444264E+03  0.00000000000E+00 0.  1.
         21    1    1    2  504  501 -0.72718695870E+02 -0.55093505072E+02  0.28814847053E+02  0.95674439851E+02  0.00000000000E+00 0.  1.
<mgrwt>
<rscale>  4 0.24942399E+03</rscale>
<asrwt>0</asrwt>
<pdfrwt beam="1">  1       21 0.43256631E-01 0.24942399E+03</pdfrwt>
<pdfrwt beam="2">  1       21 0.47046256E-01 0.24942399E+03</pdfrwt>
<totfact> 0.21548776E+04</totfact>
</mgrwt>
</event>
<event>
 5    0  0.1615618E+000  0.2520448E+03  0.7546771E-02  0.1112019E+00
         21   -1    0    0  503  501  0.00000000000E+00  0.00000000000E+00  0.17933811228E+04  0.17933811228E+04  0.00000000000E+00 0.  1.
         21   -1    0    0  501  502 -0.00000000000E+00 -0.00000000000E+00 -0.13851350825E+03  0.13851350825E+03  0.00000000000E+00 0.  1.
         25    1    1    2    0    0  0.19970307164E+03 -0.89555895242E+02 -0.86663747848E+01  0.25219373753E+03  0.12500000000E+03 0.  0.
         21    1    1    2  503  504 -0.42162658324E+02 -0.92516752496E+01  0.21602298916E+03  0.22029347493E+03  0.00000000000E+00 0.  1.
         21    1    1    2  504  502 -0.15754041332E+03  0.98807570492E+02  0.14475110002E+04  0.14594074186E+04  0.00000000000E+00 0.  1.
<mgrwt>
<rscale>  4 0.25204479E+03</rscale>
<asrwt>0</asrwt>
<pdfrwt beam="1">  1       21 0.27590477E+00 0.25204479E+03</pdfrwt>
<pdfrwt beam="2">  1       21 0.21309772E-01 0.25204479E+03</pdfrwt>
<totfact> 0.89971903E+02</totfact>
</mgrwt>
</event>
<event>
 5    0  0.1615618E+000  0.2689334E+03  0.7546771E-02  0.1101892E+00
         21   -1    0    0  503  501  0.00000000000E+00  0.00000000000E+00  0.82519514671E+03  0.82519514671E+03  0.00000000000E+00 0. -1.
         21   -1    0    0  501  502 -0.00000000000E+00 -0.00000000000E+00 -0.36392738061E+03  0.36392738061E+03  0.00000000000E+00 0.  1.
         25    1    1    2    0    0  0.24652815193E+03 -0.56450486440E+02 -0.23039489360E+03  0.36423837539E+03  0.12500000000E+03 0.  0.
         21    1    1    2  503  504 -0.64876004292E+02  0.20451212009E+03  0.35154007377E+03  0.41184284219E+03  0.00000000000E+00 0. -1.
         21    1    1    2  504  502 -0.18165214763E+03 -0.14806163365E+03  0.34012258593E+03  0.41304130974E+03  0.00000000000E+00 0. -1.
<mgrwt>
<rscale>  4 0.26893337E+03</rscale>
<asrwt>0</asrwt>
<pdfrwt beam="1">  1       21 0.12695310E+00 0.26893337E+03</pdfrwt>
<pdfrwt beam="2">  1       21 0.55988828E-01 0.26893337E+03</pdfrwt>
<totfact> 0.12919656E+03</totfact>
</mgrwt>
</event>
<event>
 5    0  0.1615618E+000  0.4680619E+03  0.7546771E-02  0.1022469E+00
         21   -1    0    0  503  501  0.00000000000E+00  0.00000000000E+00  0.13974338990E+04  0.13974338990E+04  0.00000000000E+00 0.  1.
         21   -1    0    0  501  502 -0.00000000000E+00 -0.00000000000E+00 -0.17227732581E+03  0.17227732581E+03  0.00000000000E+00 0.  1.
         25    1    1    2    0    0  0.27312578689E+03 -0.37391816478E+03  0.71849421749E+03  0.86387003072E+03  0.12500000000E+03 0.  0.
         21    1    1    2  503  504  0.14412269137E+02  0.35940453705E+02  0.86363351289E+02  0.94647018759E+02  0.00000000000E+00 0.  1.
         21    1    1    2  504  502 -0.28753805603E+03  0.33797771107E+03  0.42029900438E+03  0.61119417531E+03  0.00000000000E+00 0.  1.
<mgrwt>
<rscale>  4 0.46806189E+03</rscale>
<asrwt>0</asrwt>
<pdfrwt beam="1">  1       21 0.21498982E+00 0.46806189E+03</pdfrwt>
<pdfrwt beam="2">  1       21 0.26504205E-01 0.46806189E+03</pdfrwt>
<totfact> 0.12100477E+03</totfact>
</mgrwt>
</event>
<event>
 5    0  0.1615618E+000  0.2614724E+03  0.7546771E-02  0.1106262E+00
         21   -1    0    0  502  501  0.00000000000E+00  0.00000000000E+00  0.14159269421E+04  0.14159269421E+04  0.00000000000E+00 0.  1.
         21   -1    0    0  504  502 -0.00000000000E+00 -0.00000000000E+00 -0.25458594559E+03  0.25458594559E+03  0.00000000000E+00 0.  1.
         25    1    1    2    0    0 -0.55083715976E+02 -0.26207633121E+03 -0.14040274891E+03  0.32719436280E+03  0.12500000000E+03 0.  0.
         21    1    1    2  503  501  0.41290238913E+02  0.22424092333E+03  0.12744111691E+04  0.12946477141E+04  0.00000000000E+00 0.  1.
         21    1    1    2  504  503  0.13793477063E+02  0.37835407885E+02  0.27332576260E+02  0.48670810804E+02  0.00000000000E+00 0. -1.
<mgrwt>
<rscale>  4 0.26147239E+03</rscale>
<asrwt>0</asrwt>
<pdfrwt beam="1">  1       21 0.21783491E+00 0.26147239E+03</pdfrwt>
<pdfrwt beam="2">  1       21 0.39167069E-01 0.26147239E+03</pdfrwt>
<totfact> 0.60614774E+02</totfact>
</mgrwt>
</event>
<event>
 5    0  0.1615618E+000  0.2467269E+03  0.7546771E-02  0.1115391E+00
         21   -1    0    0  503  501  0.00000000000E+00  0.00000000000E+00  0.15434050866E+04  0.15434050866E+04  0.00000000000E+00 0.  1.
         21   -1    0    0  501  502 -0.00000000000E+00 -0.00000000000E+00 -0.10935949169E+03  0.10935949169E+03  0.00000000000E+00 0.  1.
         25    1    1    2    0    0 -0.44582160616E+02 -0.21008541831E+03  0.54464187465E+02  0.25439103708E+03  0.12500000000E+03 0.  0.
         21    1    1    2  503  504  0.11846509552E+02  0.17725464185E+02  0.47349361311E+02  0.51927775667E+02  0.00000000000E+00 0.  1.
         21    1    1    2  504  502  0.32735651064E+02  0.19235995412E+03  0.13322320461E+04  0.13464457655E+04  0.00000000000E+00 0.  1.
<mgrwt>
<rscale>  4 0.24672688E+03</rscale>
<asrwt>0</asrwt>
<pdfrwt beam="1">  1       21 0.23744692E+00 0.24672688E+03</pdfrwt>
<pdfrwt beam="2">  1       21 0.16824538E-01 0.24672688E+03</pdfrwt>
<totfact> 0.23792077E+03</totfact>
</mgrwt>
</event>
<event>
 5    0  0.1615618E+000  0.4322960E+03  0.7546771E-02  0.1033137E+00
         21   -1    0    0  503  501  0.00000000000E+00  0.00000000000E+00  0.66747056610E+03  0.66747056610E+03  0.00000000000E+00 0. -1.
         21   -1    0    0  501  502 -0.00000000000E+00 -0.00000000000E+00 -0.51238803235E+03  0.51238803235E+03  0.00000000000E+00 0. -1.
         25    1    1    2    0    0  0.37204073527E+03  0.18267188669E+03 -0.29625065059E+03  0.52456913259E+03  0.12500000000E+03 0.  0.
         21    1    1    2  503  504 -0.25190321729E+02  0.42845915108E+02  0.10335933149E+03  0.11468860517E+03  0.00000000000E+00 0. -1.
         21    1    1    2  504  502 -0.34685041354E+03 -0.22551780180E+03  0.34797385285E+03  0.54060086068E+03  0.00000000000E+00 0. -1.
<mgrwt>
<rscale>  4 0.43229603E+03</rscale>
<asrwt>0</asrwt>
<pdfrwt beam="1">  1       21 0.10268778E+00 0.43229603E+03</pdfrwt>
<pdfrwt beam="2">  1       21 0.78828928E-01 0.43229603E+03</pdfrwt>
<totfact> 0.93701040E+02</totfact>
</mgrwt>
</event>
<event>
 5    0  0.1615618E+000  0.2626790E+03  0.7546771E-02  0.1105544E+00
         21   -1    0    0  502  501  0.00000000000E+00  0.00000000000E+00  0.10981979271E+03  0.10981979271E+03  0.00000000000E+00 0.  1.
         21   -1    0    0  504  502 -0.00000000000E+00 -0.00000000000E+00 -0.10527767913E+04  0.10527767913E+04  0.00000000000E+00 0.  1.
         25    1    1    2    0    0 -0.18139396569E+03 -0.14307856875E+03 -0.87383010192E+03  0.91245783171E+03  0.12500000000E+03 0.  0.
         21    1    1    2  503  501  0.10165388475E+03  0.57946003763E+02 -0.64028369282E+02  0.13338247152E+03  0.00000000000E+00 0. -1.
         21    1    1    2  504  503  0.79740080946E+02  0.85132564988E+02 -0.50985274306E+01  0.11675628083E+03  0.00000000000E+00 0.  1.
<mgrwt>
<rscale>  4 0.26267898E+03</rscale>
<asrwt>0</asrwt>
<pdfrwt beam="1">  1       21 0.16895353E-01 0.26267898E+03</pdfrwt>
<pdfrwt beam="2">  1       21 0.16196565E+00 0.26267898E+03</pdfrwt>
<totfact> 0.73103524E+03</totfact>
</mgrwt>
</event>
<event>
 5    0  0.1615618E+000  0.2509130E+03  0.7546771E-02  0.1112729E+00
         21   -1    0    0  503  501  0.00000000000E+00  0.00000000000E+00  0.61370632029E+03  0.61370632029E+03  0.00000000000E+00 0.  1.
         21   -1    0    0  504  502 -0.00000000000E+00 -0.00000000000E+00 -0.16400468339E+03  0.16400468339E+03  0.00000000000E+00 0.  1.
         25    1    1    2    0    0 -0.13125979758E+03 -0.16607782619E+03  0.22260071256E+02  0.24684304646E+03  0.12500000000E+03 0.  0.
         21    1    1    2  503  502  0.19853585542E+03  0.13743535344E+03  0.33668741379E+03  0.41432279308E+03  0.00000000000E+00 0.  1.
         21    1    1    2  504  501 -0.67276057837E+02  0.28642472752E+02  0.90754151863E+02  0.11654516414E+03  0.00000000000E+00 0.  1.
<mgrwt>
<rscale>  4 0.25091299E+03</rscale>
<asrwt>0</asrwt>
<pdfrwt beam="1">  1       21 0.94416356E-01 0.25091299E+03</pdfrwt>
<pdfrwt beam="2">  1       21 0.25231490E-01 0.25091299E+03</pdfrwt>
<totfact> 0.13505271E+04</totfact>
</mgrwt>
</event>
<event>
 5    0  0.1615618E+000  0.3425346E+03  0.7546771E-02  0.1065722E+00
         21   -1    0    0  503  501  0.00000000000E+00  0.00000000000E+00  0.73116266309E+03  0.73116266309E+03  0.00000000000E+00 0.  1.
         21   -1    0    0  504  502 -0.00000000000E+00 -0.00000000000E+00 -0.65457124458E+03  0.65457124458E+03  0.00000000000E+00 0.  1.
         25    1    1    2    0    0  0.39591264009E+02  0.33155352646E+03 -0.15122017575E+03  0.38728252045E+03  0.12500000000E+03 0.  0.
         21    1    1    2  503  502 -0.33480916168E+03 -0.18230300763E+03 -0.22119282876E+03  0.44074689883E+03  0.00000000000E+00 0.  1.
         21    1    1    2  504  501  0.29521789767E+03 -0.14925051883E+03  0.44900442301E+03  0.55770448838E+03  0.00000000000E+00 0.  1.
<mgrwt>
<rscale>  4 0.34253462E+03</rscale>
<asrwt>0</asrwt>
<pdfrwt beam="1">  1       21 0.11248656E+00 0.34253462E+03</pdfrwt>
<pdfrwt beam="2">  1       21 0.10070327E+00 0.34253462E+03</pdfrwt>
<totfact> 0.44066183E+02</totfact>
</mgrwt>
</event>
<event>
 5    0  0.1615618E+000  0.2810125E+03  0.7546771E-02  0.1095137E+00
         21   -1    0    0  503  501  0.00000000000E+00  0.00000000000E+00  0.42444105469E+03  0.42444105469E+03  0.00000000000E+00 0.  1.
         21   -1    0    0  504  502 -0.00000000000E+00 -0.00000000000E+00 -0.53269167647E+03  0.53269167647E+03  0.00000000000E+00 0. -1.
         25    1    1    2    0    0  0.29399444014E+02  0.23777673617E+03 -0.23448552190E+03  0.35778563911E+03  0.12500000000E+03 0.  0.
         21    1    1    2  503  502 -0.28314015084E+02 -0.26494969194E+03 -0.16067354108E+03  0.31115271092E+03  0.00000000000E+00 0. -1.
         21    1    1    2  504  501 -0.10854289301E+01  0.27172955775E+02  0.28690844120E+03  0.28819438113E+03  0.00000000000E+00 0.  1.
<mgrwt>
<rscale>  4 0.28101253E+03</rscale>
<asrwt>0</asrwt>
<pdfrwt beam="1">  1       21 0.65298623E-01 0.28101253E+03</pdfrwt>
<pdfrwt beam="2">  1       21 0.81952566E-01 0.28101253E+03</pdfrwt>
<totfact> 0.26347343E+03</totfact>
</mgrwt>
</event>
<event>
 5    0  0.1615618E+000  0.3358714E+03  0.7546771E-02  0.1068568E+00
         21   -1    0    0  502  501  0.00000000000E+00  0.00000000000E+00  0.33759310850E+03  0.33759310850E+03  0.00000000000E+00 0.  1.
         21   -1    0    0  504  502 -0.00000000000E+00 -0.00000000000E+00 -0.61510836650E+03  0.61510836650E+03  0.00000000000E+00 0.  1.
         25    1    1    2    0    0 -0.30715423726E+03 -0.13091664090E+02 -0.43804728748E+03  0.54956850638E+03  0.12500000000E+03 0.  0.
         21    1    1    2  503  501  0.33291359704E+03 -0.31301716770E+01  0.16629672843E+03  0.37215032306E+03  0.00000000000E+00 0.  1.
         21    1    1    2  504  503 -0.25759359779E+02  0.16221835767E+02 -0.57646989510E+01  0.30982645559E+02  0.00000000000E+00 0.  1.
<mgrwt>
<rscale>  4 0.33587145E+03</rscale>
<asrwt>0</asrwt>
<pdfrwt beam="1">  1       21 0.51937402E-01 0.33587145E+03</pdfrwt>
<pdfrwt beam="2">  1       21 0.94632056E-01 0.33587145E+03</pdfrwt>
<totfact> 0.29984386E+03</totfact>
</mgrwt>
</event>
<event>
 5    0  0.1615618E+000  0.2450514E+03  0.7546771E-02  0.1116473E+00
         21   -1    0    0  503  501  0.00000000000E+00  0.00000000000E+00  0.11682448866E+03  0.11682448866E+03  0.00000000000E+00 0. -1.
         21   -1    0    0  501  502 -0.00000000000E+00 -0.00000000000E+00 -0.52939587721E+03  0.52939587721E+03  0.00000000000E+00 0. -1.
         25    1    1    2    0    0 -0.15923234751E+03 -0.15181927960E+03 -0.27447347674E+03  0.37331584963E+03  0.12500000000E+03 0.  0.
         21    1    1    2  503  504  0.18376591698E+02  0.79528993332E+01  0.10553350664E+02  0.22634507736E+02  0.00000000000E+00 0.  1.
         21    1    1    2  504  502  0.14085575581E+03  0.14386638027E+03 -0.14865126247E+03  0.25027000850E+03  0.00000000000E+00 0. -1.
<mgrwt>
<rscale>  4 0.24505145E+03</rscale>
<asrwt>0</asrwt>
<pdfrwt beam="1">  1       21 0.17972998E-01 0.24505145E+03</pdfrwt>
<pdfrwt beam="2">  1       21 0.81445521E-01 0.24505145E+03</pdfrwt>
<totfact> 0.36230525E+04</totfact>
</mgrwt>
</event>
<event>
 5    0  0.1615618E+000  0.3450219E+03  0.7546771E-02  0.1064677E+00
         21   -1    0    0  503  501  0.00000000000E+00  0.00000000000E+00  0.43828602339E+03  0.43828602339E+03  0.00000000000E+00 0. -1.
         21   -1    0    0  504  502 -0.00000000000E+00 -0.00000000000E+00 -0.86776823686E+03  0.86776823686E+03  0.00000000000E+00 0.  1.
         25    1    1    2    0    0 -0.75327969201E+01 -0.32088227426E+03 -0.75126478178E+03  0.82646593959E+03  0.12500000000E+03 0.  0.
         21    1    1    2  503  502  0.32190956344E+02  0.32701799383E+03  0.30933673457E+03  0.45129396330E+03  0.00000000000E+00 0. -1.
         21    1    1    2  504  501 -0.24658159424E+02 -0.61357195667E+01  0.12445833734E+02  0.28294357354E+02  0.00000000000E+00 0.  1.
<mgrwt>
<rscale>  4 0.34502189E+03</rscale>
<asrwt>0</asrwt>
<pdfrwt beam="1">  1       21 0.67428619E-01 0.34502189E+03</pdfrwt>
<pdfrwt beam="2">  1       21 0.13350281E+00 0.34502189E+03</pdfrwt>
<totfact> 0.72072344E+02</totfact>
</mgrwt>
</event>
<event>
 5    0  0.1615618E+000  0.2468706E+03  0.7546771E-02  0.1115299E+00
         21   -1    0    0  503  501  0.00000000000E+00  0.00000000000E+00  0.11350601859E+04  0.11350601859E+04  0.00000000000E+00 0.  1.
         21   -1    0    0  501  502 -0.00000000000E+00 -0.00000000000E+00 -0.30799942506E+03  0.30799942506E+03  0.00000000000E+00 0.  1.
         25    1    1    2    0    0 -0.47716596621E+02 -0.20288619241E+03 -0.17211157815E+03  0.29780375417E+03  0.12500000000E+03 0.  0.
         21    1    1    2  503  504 -0.17251738894E+03  0.24790640936E+02  0.74362850207E+03  0.76378018727E+03  0.00000000000E+00 0.  1.
         21    1    1    2  504  502  0.22023398556E+03  0.17809555147E+03  0.25554383693E+03  0.38147566953E+03  0.00000000000E+00 0.  1.
<mgrwt>
<rscale>  4 0.24687060E+03</rscale>
<asrwt>0</asrwt>
<pdfrwt beam="1">  1       21 0.17462464E+00 0.24687060E+03</pdfrwt>
<pdfrwt beam="2">  1       21 0.47384528E-01 0.24687060E+03</pdfrwt>
<totfact> 0.79964473E+02</totfact>
</mgrwt>
</event>
<event>
 5    0  0.1615618E+000  0.2848805E+03  0.7546771E-02  0.1093053E+00
         21   -1    0    0  503  501  0.00000000000E+00  0.00000000000E+00  0.60608780645E+03  0.60608780645E+03  0.00000000000E+00 0.  1.
         21   -1    0    0  501  502 -0.00000000000E+00 -0.00000000000E+00 -0.92817377867E+03  0.92817377867E+03  0.00000000000E+00 0.  1.
         25    1    1    2    0    0  0.27616361652E+03  0.83026164530E+02 -0.61883138513E+03  0.69407274137E+03  0.12500000000E+03 0.  0.
         21    1    1    2  503  504 -0.73086991427E+02 -0.28031274367E+01  0.52163539351E+03  0.52673812241E+03  0.00000000000E+00 0.  1.
         21    1    1    2  504  502 -0.20307662510E+03 -0.80223037094E+02 -0.22488998059E+03  0.31345072134E+03  0.00000000000E+00 0.  1.
<mgrwt>
<rscale>  4 0.28488047E+03</rscale>
<asrwt>0</asrwt>
<pdfrwt beam="1">  1       21 0.93244278E-01 0.28488047E+03</pdfrwt>
<pdfrwt beam="2">  1       21 0.14279597E+00 0.28488047E+03</pdfrwt>
<totfact> 0.30015285E+02</totfact>
</mgrwt>
</event>
<event>
 5    0  0.1615618E+000  0.2516258E+03  0.7546771E-02  0.1112282E+00
         21   -1    0    0  503  501  0.00000000000E+00  0.00000000000E+00  0.16106405678E+04  0.16106405678E+04  0.00000000000E+00 0. -1.
         21   -1    0    0  504  502 -0.00000000000E+00 -0.00000000000E+00 -0.64782037407E+03  0.64782037407E+03  0.00000000000E+00 0. -1.
         25    1    1    2    0    0 -0.21103916065E+03  0.82887265047E+02 -0.48749472233E+03  0.55198182066E+03  0.12500000000E+03 0.  0.
         21    1    1    2  503  502  0.18799296924E+03 -0.63969804523E+02 -0.50875836771E+02  0.20499230020E+03  0.00000000000E+00 0. -1.
         21    1    1    2  504  501  0.23046191407E+02 -0.18917460524E+02  0.15011907528E+04  0.15014868210E+04  0.00000000000E+00 0. -1.
<mgrwt>
<rscale>  4 0.25162584E+03</rscale>
<asrwt>0</asrwt>
<pdfrwt beam="1">  1       21 0.24779086E+00 0.25162584E+03</pdfrwt>
<pdfrwt beam="2">  1       21 0.99664673E-01 0.25162584E+03</pdfrwt>
<totfact> 0.52141771E+01</totfact>
</mgrwt>
</event>
<event>
 5    0  0.1615618E+000  0.2513068E+03  0.7546771E-02  0.1112482E+00
         21   -1    0    0  502  501  0.00000000000E+00  0.00000000000E+00  0.11667510966E+04  0.11667510966E+04  0.00000000000E+00 0.  1.
         21   -1    0    0  503  502 -0.00000000000E+00 -0.00000000000E+00 -0.92589549190E+02  0.92589549190E+02  0.00000000000E+00 0.  1.
         25    1    1    2    0    0 -0.17122076454E+03 -0.13495765531E+03  0.12112086940E+03  0.27897201283E+03  0.12500000000E+03 0.  0.
         21    1    1    2  503  504  0.25445531524E+02  0.27103905622E+02  0.73937563944E+02  0.82757840332E+02  0.00000000000E+00 0. -1.
         21    1    1    2  504  501  0.14577523302E+03  0.10785374969E+03  0.87910311403E+03  0.89761079259E+03  0.00000000000E+00 0.  1.
<mgrwt>
<rscale>  4 0.25130682E+03</rscale>
<asrwt>0</asrwt>
<pdfrwt beam="1">  1       21 0.17950016E+00 0.25130682E+03</pdfrwt>
<pdfrwt beam="2">  1       21 0.14244547E-01 0.25130682E+03</pdfrwt>
<totfact> 0.75620978E+03</totfact>
</mgrwt>
</event>
<event>
 5    0  0.1615618E+000  0.3087398E+03  0.7546771E-02  0.1080951E+00
         21   -1    0    0  503  501  0.00000000000E+00  0.00000000000E+00  0.43071601216E+03  0.43071601216E+03  0.00000000000E+00 0.  1.
         21   -1    0    0  501  502 -0.00000000000E+00 -0.00000000000E+00 -0.87047790720E+03  0.87047790720E+03  0.00000000000E+00 0.  1.
         25    1    1    2    0    0 -0.19370345089E+03  0.20293819050E+03 -0.77393458452E+03  0.83264919214E+03  0.12500000000E+03 0.  0.
         21    1    1    2  503  504 -0.16951645292E+02  0.16745299717E+02  0.29069688815E+02  0.37587366874E+02  0.00000000000E+00 0.  1.
         21    1    1    2  504  502  0.21065509618E+03 -0.21968349021E+03  0.30510300067E+03  0.43095736035E+03  0.00000000000E+00 0.  1.
<mgrwt>
<rscale>  4 0.30873984E+03</rscale>
<asrwt>0</asrwt>
<pdfrwt beam="1">  1       21 0.66264002E-01 0.30873984E+03</pdfrwt>
<pdfrwt beam="2">  1       21 0.13391968E+00 0.30873984E+03</pdfrwt>
<totfact> 0.76013000E+02</totfact>
</mgrwt>
</event>
<event>
 5    0  0.1615618E+000  0.2232735E+03  0.7546771E-02  0.1131466E+00
         21   -1    0    0  503  501  0.00000000000E+00  0.00000000000E+00  0.72914796275E+03  0.72914796275E+03  0.00000000000E+00 0. -1.
         21   -1    0    0  504  502 -0.00000000000E+00 -0.00000000000E+00 -0.21271597271E+03  0.21271597271E+03  0.00000000000E+00 0.  1.
         25    1    1    2    0    0 -0.21041094276E+03 -0.14106686499E+03  0.14595700051E+03  0.31796394643E+03  0.12500000000E+03 0.  0.
         21    1    1    2  503  502  0.13291200252E+03  0.10294527284E+03 -0.64774644444E+02  0.18016404796E+03  0.00000000000E+00 0.  1.
         21    1    1    2  504  501  0.77498940240E+02  0.38121592149E+02  0.43524963397E+03  0.44373594107E+03  0.00000000000E+00 0. -1.
<mgrwt>
<rscale>  4 0.22327349E+03</rscale>
<asrwt>0</asrwt>
<pdfrwt beam="1">  1       21 0.11217661E+00 0.22327349E+03</pdfrwt>
<pdfrwt beam="2">  1       21 0.32725535E-01 0.22327349E+03</pdfrwt>
<totfact> 0.54691500E+03</totfact>
</mgrwt>
</event>
<event>
 5    0  0.1615618E+000  0.3359246E+03  0.7546771E-02  0.1069394E+00
         21   -1    0    0  503  501  0.00000000000E+00  0.00000000000E+00  0.70330166706E+03  0.70330166706E+03  0.00000000000E+00 0. -1.
         21   -1    0    0  501  502 -0.00000000000E+00 -0.00000000000E+00 -0.66422041205E+03  0.66422041205E+03  0.00000000000E+00 0. -1.
         25    1    1    2    0    0 -0.11864592595E+03 -0.27927931241E+03 -0.57815062019E+03  0.66479841284E+03  0.12500000000E+03 0.  0.
         21    1    1    2  503  504  0.92479125710E+02  0.16379042125E+03  0.22637116279E+03  0.29431886472E+03  0.00000000000E+00 0. -1.
         21    1    1    2  504  502  0.26166800236E+02  0.11548889116E+03  0.39086071242E+03  0.40840480155E+03  0.00000000000E+00 0. -1.
<mgrwt>
<rscale>  4 0.33397022E+03</rscale>
<asrwt>0</asrwt>
<pdfrwt beam="1">  1       21 0.10820026E+00 0.33592464E+03</pdfrwt>
<pdfrwt beam="2">  1       21 0.10218776E+00 0.33592464E+03</pdfrwt>
<totfact> 0.46994594E+02</totfact>
</mgrwt>
</event>
<event>
 5    0  0.1615618E+000  0.2762814E+03  0.7546771E-02  0.1097737E+00
         21   -1    0    0  503  501  0.00000000000E+00  0.00000000000E+00  0.10472495816E+04  0.10472495816E+04  0.00000000000E+00 0. -1.
         21   -1    0    0  501  502 -0.00000000000E+00 -0.00000000000E+00 -0.91889182924E+03  0.91889182924E+03  0.00000000000E+00 0. -1.
         25    1    1    2    0    0  0.12387499640E+03  0.20791961117E+03 -0.78705482598E+03  0.83286005940E+03  0.12500000000E+03 0.  0.
         21    1    1    2  503  504  0.18720571987E+02  0.34294397108E+02  0.84183222308E+03  0.84273842757E+03  0.00000000000E+00 0. -1.
         21    1    1    2  504  502 -0.14259556839E+03 -0.24221400828E+03  0.73580355258E+02  0.29054292387E+03  0.00000000000E+00 0.  1.
<mgrwt>
<rscale>  4 0.27628138E+03</rscale>
<asrwt>0</asrwt>
<pdfrwt beam="1">  1       21 0.16111532E+00 0.27628138E+03</pdfrwt>
<pdfrwt beam="2">  1       21 0.14136797E+00 0.27628138E+03</pdfrwt>
<totfact> 0.77929501E+01</totfact>
</mgrwt>
</event>
<event>
 5    0  0.1615618E+000  0.2513990E+03  0.7546771E-02  0.1112424E+00
         21   -1    0    0  503  501  0.00000000000E+00  0.00000000000E+00  0.35346552372E+03  0.35346552372E+03  0.00000000000E+00 0.  1.
         21   -1    0    0  501  502 -0.00000000000E+00 -0.00000000000E+00 -0.19061451114E+04  0.19061451114E+04  0.00000000000E+00 0.  1.
         25    1    1    2    0    0 -0.48218669379E+02 -0.21147662357E+03 -0.16994580815E+04  0.17177980595E+04  0.12500000000E+03 0.  0.
         21    1    1    2  503  504 -0.25804370468E+02 -0.41730188905E+01  0.27767953041E+03  0.27890715522E+03  0.00000000000E+00 0.  1.
         21    1    1    2  504  502  0.74023039847E+02  0.21564964246E+03 -0.13090103664E+03  0.26290542047E+03  0.00000000000E+00 0.  1.
<mgrwt>
<rscale>  4 0.25139896E+03</rscale>
<asrwt>0</asrwt>
<pdfrwt beam="1">  1       21 0.54379311E-01 0.25139896E+03</pdfrwt>
<pdfrwt beam="2">  1       21 0.29325309E+00 0.25139896E+03</pdfrwt>
<totfact> 0.10977434E+02</totfact>
</mgrwt>
</event>
<event>
 5    0  0.1615618E+000  0.2409015E+03  0.7546771E-02  0.1119194E+00
         21   -1    0    0  503  501  0.00000000000E+00  0.00000000000E+00  0.77894867367E+03  0.77894867367E+03  0.00000000000E+00 0. -1.
         21   -1    0    0  501  502 -0.00000000000E+00 -0.00000000000E+00 -0.99708112411E+02  0.99708112411E+02  0.00000000000E+00 0. -1.
         25    1    1    2    0    0  0.19623776198E+03 -0.50069994844E+02  0.34354842101E+03  0.41793155084E+03  0.12500000000E+03 0.  0.
         21    1    1    2  503  504 -0.37638140068E+01 -0.29172813989E+02  0.22123819252E+03  0.22318502907E+03  0.00000000000E+00 0. -1.
         21    1    1    2  504  502 -0.19247394797E+03  0.79242808832E+02  0.11445394774E+03  0.23754020618E+03  0.00000000000E+00 0. -1.
<mgrwt>
<rscale>  4 0.24090153E+03</rscale>
<asrwt>0</asrwt>
<pdfrwt beam="1">  1       21 0.11983825E+00 0.24090153E+03</pdfrwt>
<pdfrwt beam="2">  1       21 0.15339710E-01 0.24090153E+03</pdfrwt>
<totfact> 0.19390508E+04</totfact>
</mgrwt>
</event>
<event>
 5    0  0.1615618E+000  0.3681988E+03  0.7546771E-02  0.1055384E+00
         21   -1    0    0  503  501  0.00000000000E+00  0.00000000000E+00  0.54412556802E+03  0.54412556802E+03  0.00000000000E+00 0. -1.
         21   -1    0    0  501  502 -0.00000000000E+00 -0.00000000000E+00 -0.85815738468E+03  0.85815738468E+03  0.00000000000E+00 0.  1.
         25    1    1    2    0    0  0.46487248723E+02  0.40753972607E+03 -0.30541550004E+02  0.42989240386E+03  0.12500000000E+03 0.  0.
         21    1    1    2  503  504  0.23642891977E+02 -0.82550114892E+02  0.29386328433E+03  0.30615214793E+03  0.00000000000E+00 0. -1.
         21    1    1    2  504  502 -0.70130140699E+02 -0.32498961118E+03 -0.57735355098E+03  0.66623840091E+03  0.00000000000E+00 0.  1.
<mgrwt>
<rscale>  4 0.36819882E+03</rscale>
<asrwt>0</asrwt>
<pdfrwt beam="1">  1       21 0.83711626E-01 0.36819882E+03</pdfrwt>
<pdfrwt beam="2">  1       21 0.13202421E+00 0.36819882E+03</pdfrwt>
<totfact> 0.44794905E+02</totfact>
</mgrwt>
</event>
<event>
 5    0  0.1615618E+000  0.2666564E+03  0.7546771E-02  0.1103209E+00
         21   -1    0    0  503  501  0.00000000000E+00  0.00000000000E+00  0.14679289622E+03  0.14679289622E+03  0.00000000000E+00 0.  1.
         21   -1    0    0  504  502 -0.00000000000E+00 -0.00000000000E+00 -0.69353421128E+03  0.69353421128E+03  0.00000000000E+00 0.  1.
         25    1    1    2    0    0 -0.13777754509E+03 -0.20646292766E+03 -0.49494069158E+03  0.56762741354E+03  0.12500000000E+03 0.  0.
         21    1    1    2  503  502  0.10263874371E+03  0.18361148671E+03 -0.76755241617E+02  0.22391796909E+03  0.00000000000E+00 0.  1.
         21    1    1    2  504  501  0.35138801376E+02  0.22851440947E+02  0.24954618134E+02  0.48781724874E+02  0.00000000000E+00 0.  1.
<mgrwt>
<rscale>  4 0.26665639E+03</rscale>
<asrwt>0</asrwt>
<pdfrwt beam="1">  1       21 0.22583522E-01 0.26665639E+03</pdfrwt>
<pdfrwt beam="2">  1       21 0.10669757E+00 0.26665639E+03</pdfrwt>
<totfact> 0.12356015E+04</totfact>
</mgrwt>
</event>
