<event>
 5    0  0.1856407E+000  0.3464712E+03  0.7546771E-02  0.1064073E+00
         21   -1    0    0  502  501  0.00000000000E+00  0.00000000000E+00  0.85048923885E+02  0.85048923885E+02  0.00000000000E+00 0. -1.
         21   -1    0    0  503  502 -0.00000000000E+00 -0.00000000000E+00 -0.13663910545E+04  0.13663910545E+04  0.00000000000E+00 0. -1.
         25    1    1    2    0    0 -0.19182938722E+02  0.32256677224E+03 -0.74986948763E+03  0.82604270844E+03  0.12500000000E+03 0.  0.
         21    1    1    2  503  504 -0.13735775666E+02 -0.20265142918E+03 -0.36356689176E+03  0.41645787069E+03  0.00000000000E+00 0. -1.
         21    1    1    2  504  501  0.32918714389E+02 -0.11991534307E+03 -0.16790575119E+03  0.20893939921E+03  0.00000000000E+00 0. -1.
<mgrwt>
<rscale>  4 0.34647122E+03</rscale>
<asrwt>0</asrwt>
<pdfrwt beam="1">  1       21 0.13084450E-01 0.34647122E+03</pdfrwt>
<pdfrwt beam="2">  1       21 0.21021400E+00 0.34647122E+03</pdfrwt>
<totfact> 0.52208366E+03</totfact>
</mgrwt>
</event>
<event>
 5    0  0.1856407E+000  0.2375826E+03  0.7546771E-02  0.1121414E+00
         21   -1    0    0  502  501  0.00000000000E+00  0.00000000000E+00  0.14178544932E+04  0.14178544932E+04  0.00000000000E+00 0. -1.
         21   -1    0    0  503  502 -0.00000000000E+00 -0.00000000000E+00 -0.17963044848E+03  0.17963044848E+03  0.00000000000E+00 0. -1.
         25    1    1    2    0    0  0.10345271317E+03  0.17354543600E+03  0.13442852280E+04  0.13651184038E+04  0.12500000000E+03 0.  0.
         21    1    1    2  503  504 -0.55938614940E+02 -0.81547685751E+02 -0.75472843067E+02  0.12439977385E+03  0.00000000000E+00 0. -1.
         21    1    1    2  504  501 -0.47514098231E+02 -0.91997750246E+02 -0.30588340187E+02  0.10796676404E+03  0.00000000000E+00 0. -1.
<mgrwt>
<rscale>  4 0.23758258E+03</rscale>
<asrwt>0</asrwt>
<pdfrwt beam="1">  1       21 0.21813145E+00 0.23758258E+03</pdfrwt>
<pdfrwt beam="2">  1       21 0.27635455E-01 0.23758258E+03</pdfrwt>
<totfact> 0.12318016E+03</totfact>
</mgrwt>
</event>
<event>
 5    0  0.1856407E+000  0.2603967E+03  0.7546771E-02  0.1106905E+00
         21   -1    0    0  502  501  0.00000000000E+00  0.00000000000E+00  0.17939627783E+04  0.17939627783E+04  0.00000000000E+00 0.  1.
         21   -1    0    0  503  502 -0.00000000000E+00 -0.00000000000E+00 -0.14214677505E+03  0.14214677505E+03  0.00000000000E+00 0.  1.
         25    1    1    2    0    0  0.74771723844E+02 -0.21741976924E+03  0.16740053164E+04  0.16943379138E+04  0.12500000000E+03 0.  0.
         21    1    1    2  503  504 -0.57471608758E+01  0.19319407482E+02  0.19323472303E+02  0.27922498911E+02  0.00000000000E+00 0. -1.
         21    1    1    2  504  501 -0.69024562968E+02  0.19810036176E+03 -0.41512785424E+02  0.21384914069E+03  0.00000000000E+00 0.  1.
<mgrwt>
<rscale>  4 0.26039667E+03</rscale>
<asrwt>0</asrwt>
<pdfrwt beam="1">  1       21 0.27599426E+00 0.26039667E+03</pdfrwt>
<pdfrwt beam="2">  1       21 0.21868736E-01 0.26039667E+03</pdfrwt>
<totfact> 0.84862733E+02</totfact>
</mgrwt>
</event>
<event>
 5    0  0.1856407E+000  0.2505906E+03  0.7546771E-02  0.1112932E+00
         21   -1    0    0  502  501  0.00000000000E+00  0.00000000000E+00  0.39626292154E+03  0.39626292154E+03  0.00000000000E+00 0.  1.
         21   -1    0    0  503  502 -0.00000000000E+00 -0.00000000000E+00 -0.35469437598E+03  0.35469437598E+03  0.00000000000E+00 0.  1.
         25    1    1    2    0    0  0.16684520519E+03 -0.13462099281E+03  0.75239642217E+02  0.25931860319E+03  0.12500000000E+03 0.  0.
         21    1    1    2  503  504 -0.95402900601E+02 -0.80354553769E+02  0.15349475671E+03  0.19778576312E+03  0.00000000000E+00 0.  1.
         21    1    1    2  504  501 -0.71442304585E+02  0.21497554658E+03 -0.18716585337E+03  0.29385293121E+03  0.00000000000E+00 0.  1.
<mgrwt>
<rscale>  4 0.25059056E+03</rscale>
<asrwt>0</asrwt>
<pdfrwt beam="1">  1       21 0.60963526E-01 0.25059056E+03</pdfrwt>
<pdfrwt beam="2">  1       21 0.54568366E-01 0.25059056E+03</pdfrwt>
<totfact> 0.76469682E+03</totfact>
</mgrwt>
</event>
<event>
 5    0  0.1856407E+000  0.3486398E+03  0.7546771E-02  0.1063175E+00
         21   -1    0    0  502  501  0.00000000000E+00  0.00000000000E+00  0.87776690757E+02  0.87776690757E+02  0.00000000000E+00 0. -1.
         21   -1    0    0  503  502 -0.00000000000E+00 -0.00000000000E+00 -0.18409675055E+04  0.18409675055E+04  0.00000000000E+00 0. -1.
         25    1    1    2    0    0 -0.32185050943E+03 -0.63532182424E+02 -0.40447610708E+03  0.53558380280E+03  0.12500000000E+03 0.  0.
         21    1    1    2  503  504  0.31738218790E+03  0.36684120456E+02 -0.11907313143E+04  0.12328496424E+04  0.00000000000E+00 0. -1.
         21    1    1    2  504  501  0.44683215271E+01  0.26848061967E+02 -0.15798339335E+03  0.16031075105E+03  0.00000000000E+00 0. -1.
<mgrwt>
<rscale>  4 0.34863976E+03</rscale>
<asrwt>0</asrwt>
<pdfrwt beam="1">  1       21 0.13504107E-01 0.34863976E+03</pdfrwt>
<pdfrwt beam="2">  1       21 0.28322576E+00 0.34863976E+03</pdfrwt>
<totfact> 0.17582713E+03</totfact>
</mgrwt>
</event>
<event>
 5    0  0.1856407E+000  0.2430601E+03  0.7546771E-02  0.1117771E+00
         21   -1    0    0  502  501  0.00000000000E+00  0.00000000000E+00  0.33170947632E+03  0.33170947632E+03  0.00000000000E+00 0. -1.
         21   -1    0    0  503  502 -0.00000000000E+00 -0.00000000000E+00 -0.33177425678E+03  0.33177425678E+03  0.00000000000E+00 0.  1.
         25    1    1    2    0    0  0.18809514392E+03  0.13329140188E+03  0.20417586674E+03  0.33235397626E+03  0.12500000000E+03 0.  0.
         21    1    1    2  503  504 -0.12265428617E+03 -0.61682798319E+02 -0.18796794987E+03  0.23276767753E+03  0.00000000000E+00 0.  1.
         21    1    1    2  504  501 -0.65440857750E+02 -0.71608603561E+02 -0.16272697331E+02  0.98362079306E+02  0.00000000000E+00 0.  1.
<mgrwt>
<rscale>  4 0.24306005E+03</rscale>
<asrwt>0</asrwt>
<pdfrwt beam="1">  1       21 0.51032228E-01 0.24306005E+03</pdfrwt>
<pdfrwt beam="2">  1       21 0.51042193E-01 0.24306005E+03</pdfrwt>
<totfact> 0.12927178E+04</totfact>
</mgrwt>
</event>
<event>
 5    0  0.1856407E+000  0.2619239E+03  0.7546771E-02  0.1105993E+00
         21   -1    0    0  502  501  0.00000000000E+00  0.00000000000E+00  0.38353149295E+03  0.38353149295E+03  0.00000000000E+00 0. -1.
         21   -1    0    0  503  502 -0.00000000000E+00 -0.00000000000E+00 -0.47319554201E+03  0.47319554201E+03  0.00000000000E+00 0. -1.
         25    1    1    2    0    0  0.18258494022E+03 -0.14751256940E+03  0.26176476335E+03  0.37315279693E+03  0.12500000000E+03 0.  0.
         21    1    1    2  503  504 -0.10030474201E+03  0.19310412034E+03 -0.31467007122E+03  0.38258005213E+03  0.00000000000E+00 0. -1.
         21    1    1    2  504  501 -0.82280198212E+02 -0.45591550934E+02 -0.36758741178E+02  0.10099418591E+03  0.00000000000E+00 0.  1.
<mgrwt>
<rscale>  4 0.26192386E+03</rscale>
<asrwt>0</asrwt>
<pdfrwt beam="1">  1       21 0.59004845E-01 0.26192386E+03</pdfrwt>
<pdfrwt beam="2">  1       21 0.72799314E-01 0.26192386E+03</pdfrwt>
<totfact> 0.43469928E+03</totfact>
</mgrwt>
</event>
<event>
 5    0  0.1856407E+000  0.3567793E+03  0.7546771E-02  0.1059866E+00
         21   -1    0    0  502  501  0.00000000000E+00  0.00000000000E+00  0.50283363053E+03  0.50283363053E+03  0.00000000000E+00 0.  1.
         21   -1    0    0  503  502 -0.00000000000E+00 -0.00000000000E+00 -0.56384075957E+03  0.56384075957E+03  0.00000000000E+00 0.  1.
         25    1    1    2    0    0  0.45942328969E+02  0.33099208871E+03  0.36779968286E+03  0.51241396068E+03  0.12500000000E+03 0.  0.
         21    1    1    2  503  504 -0.57985553165E+02 -0.15907747490E+03 -0.14848722226E+03  0.22520306963E+03  0.00000000000E+00 0.  1.
         21    1    1    2  504  501  0.12043224196E+02 -0.17191461381E+03 -0.28031958964E+03  0.32905735978E+03  0.00000000000E+00 0.  1.
<mgrwt>
<rscale>  4 0.35677929E+03</rscale>
<asrwt>0</asrwt>
<pdfrwt beam="1">  1       21 0.77359020E-01 0.35677929E+03</pdfrwt>
<pdfrwt beam="2">  1       21 0.86744732E-01 0.35677929E+03</pdfrwt>
<totfact> 0.15160972E+03</totfact>
</mgrwt>
</event>
<event>
 5    0  0.1856407E+000  0.2404050E+03  0.7546771E-02  0.1119523E+00
         21   -1    0    0  502  501  0.00000000000E+00  0.00000000000E+00  0.22829569826E+03  0.22829569826E+03  0.00000000000E+00 0.  1.
         21   -1    0    0  503  502 -0.00000000000E+00 -0.00000000000E+00 -0.59302092731E+03  0.59302092731E+03  0.00000000000E+00 0.  1.
         25    1    1    2    0    0  0.47027492822E+02 -0.19487180438E+03  0.99646858237E+02  0.25640027609E+03  0.12500000000E+03 0.  0.
         21    1    1    2  503  504 -0.11951441211E+03  0.20856407631E+03 -0.40165100487E+03  0.46808781050E+03  0.00000000000E+00 0.  1.
         21    1    1    2  504  501  0.72486919290E+02 -0.13692271929E+02 -0.62721082418E+02  0.96828538966E+02  0.00000000000E+00 0.  1.
<mgrwt>
<rscale>  4 0.24040498E+03</rscale>
<asrwt>0</asrwt>
<pdfrwt beam="1">  1       21 0.35122415E-01 0.24040498E+03</pdfrwt>
<pdfrwt beam="2">  1       21 0.91233988E-01 0.24040498E+03</pdfrwt>
<totfact> 0.77025015E+03</totfact>
</mgrwt>
</event>
