<event>
 5    0  0.1038291E+002  0.2361998E+03  0.7546771E-02  0.1122351E+00
         21   -1    0    0  503  501  0.00000000000E+00  0.00000000000E+00  0.14053469716E+04  0.14053469716E+04  0.00000000000E+00 0.  1.
         21   -1    0    0  501  502 -0.00000000000E+00 -0.00000000000E+00 -0.13363660266E+03  0.13363660266E+03  0.00000000000E+00 0. -1.
         25    1    1    2    0    0  0.14303789723E+02  0.23702498179E+03  0.40340956849E+02  0.27136291786E+03  0.12500000000E+03 0.  0.
         21    1    1    2  503  504 -0.13904443442E+00 -0.39711223362E+02  0.29219197371E+02  0.49302759449E+02  0.00000000000E+00 0.  1.
         21    1    1    2  504  502 -0.14164745289E+02 -0.19731375843E+03  0.12021502147E+04  0.12183178969E+04  0.00000000000E+00 0.  1.
<mgrwt>
<rscale>  4 0.23619981E+03</rscale>
<asrwt>0</asrwt>
<pdfrwt beam="1">  1       21 0.21620722E+00 0.23619981E+03</pdfrwt>
<pdfrwt beam="2">  1       21 0.20559478E-01 0.23619981E+03</pdfrwt>
<totfact> 0.22304787E+03</totfact>
</mgrwt>
</event>
<event>
 5    0  0.1911311E+001  0.2405576E+03  0.7546771E-02  0.1119422E+00
         21   -1    0    0  504  501  0.00000000000E+00  0.00000000000E+00  0.95515691941E+03  0.95515691941E+03  0.00000000000E+00 0. -1.
         21   -1    0    0  503  502 -0.00000000000E+00 -0.00000000000E+00 -0.15356951018E+03  0.15356951018E+03  0.00000000000E+00 0. -1.
         25    1    1    2    0    0  0.14517899881E+03  0.21020589138E+03  0.48820972061E+03  0.56501078730E+03  0.12500000000E+03 0.  0.
         21    1    1    2  503  501 -0.65171823368E+01 -0.20217349647E+03  0.14738108157E+01  0.20228388087E+03  0.00000000000E+00 0. -1.
         21    1    1    2  504  502 -0.13866181648E+03 -0.80323949080E+01  0.31190387781E+03  0.34143176142E+03  0.00000000000E+00 0. -1.
<mgrwt>
<rscale>  4 0.24055764E+03</rscale>
<asrwt>0</asrwt>
<pdfrwt beam="1">  1       21 0.14694721E+00 0.24055764E+03</pdfrwt>
<pdfrwt beam="2">  1       21 0.23626079E-01 0.24055764E+03</pdfrwt>
<totfact> 0.51291687E+03</totfact>
</mgrwt>
</event>
<event>
 5    0  0.1911311E+001  0.2230027E+03  0.7546771E-02  0.1131664E+00
         21   -1    0    0  502  501  0.00000000000E+00  0.00000000000E+00  0.70568822855E+03  0.70568822855E+03  0.00000000000E+00 0. -1.
         21   -1    0    0  504  502 -0.00000000000E+00 -0.00000000000E+00 -0.23524445166E+04  0.23524445166E+04  0.00000000000E+00 0.  1.
         25    1    1    2    0    0  0.31496770459E+02  0.24482810291E+03 -0.80552384524E+03  0.85171973781E+03  0.12500000000E+03 0.  0.
         21    1    1    2  503  501 -0.11140709209E+03 -0.85772234701E+02  0.67007104223E+03  0.68466314202E+03  0.00000000000E+00 0. -1.
         21    1    1    2  504  503  0.79910321632E+02 -0.15905586821E+03 -0.15113034851E+04  0.15217498654E+04  0.00000000000E+00 0.  1.
<mgrwt>
<rscale>  4 0.22300267E+03</rscale>
<asrwt>0</asrwt>
<pdfrwt beam="1">  1       21 0.10856742E+00 0.22300267E+03</pdfrwt>
<pdfrwt beam="2">  1       21 0.36191454E+00 0.22300267E+03</pdfrwt>
<totfact> 0.94415139E+00</totfact>
</mgrwt>
</event>
