<event>
 5    0  0.1911311E+001  0.3262349E+03  0.7546771E-02  0.1072815E+00
         21   -1    0    0  504  501  0.00000000000E+00  0.00000000000E+00  0.92085792970E+03  0.92085792970E+03  0.00000000000E+00 0. -1.
         21   -1    0    0  503  502 -0.00000000000E+00 -0.00000000000E+00 -0.26907502288E+03  0.26907502288E+03  0.00000000000E+00 0. -1.
         25    1    1    2    0    0  0.30190028747E+03 -0.23303192341E+03  0.27533445198E+03  0.48670496335E+03  0.12500000000E+03 0.  0.
         21    1    1    2  503  501 -0.24241263164E+03  0.13301259359E+03 -0.32159795877E+02  0.27837113088E+03  0.00000000000E+00 0. -1.
         21    1    1    2  504  502 -0.59487655825E+02  0.10001932982E+03  0.40860825072E+03  0.42485685835E+03  0.00000000000E+00 0. -1.
<mgrwt>
<rscale>  4 0.32623490E+03</rscale>
<asrwt>0</asrwt>
<pdfrwt beam="1">  1       21 0.14167045E+00 0.32623490E+03</pdfrwt>
<pdfrwt beam="2">  1       21 0.41396158E-01 0.32623490E+03</pdfrwt>
<totfact> 0.17668819E+03</totfact>
</mgrwt>
</event>
<event>
 5    0  0.1911311E+001  0.1841762E+03  0.7546771E-02  0.1163821E+00
         21   -1    0    0  502  501  0.00000000000E+00  0.00000000000E+00  0.17314553832E+03  0.17314553832E+03  0.00000000000E+00 0. -1.
         21   -1    0    0  504  502 -0.00000000000E+00 -0.00000000000E+00 -0.31175606846E+04  0.31175606846E+04  0.00000000000E+00 0. -1.
         25    1    1    2    0    0  0.10867733022E+03  0.18397779871E+03 -0.54083176098E+02  0.25339412475E+03  0.12500000000E+03 0.  0.
         21    1    1    2  503  501 -0.91533847112E+02 -0.50765208353E+02  0.33881352442E+02  0.11001589699E+03  0.00000000000E+00 0. -1.
         21    1    1    2  504  503 -0.17143483105E+02 -0.13321259036E+03 -0.29242133226E+04  0.29272962012E+04  0.00000000000E+00 0. -1.
<mgrwt>
<rscale>  4 0.18417615E+03</rscale>
<asrwt>0</asrwt>
<pdfrwt beam="1">  1       21 0.26637778E-01 0.18417615E+03</pdfrwt>
<pdfrwt beam="2">  1       21 0.47962466E+00 0.18417615E+03</pdfrwt>
<totfact> 0.35837161E+01</totfact>
</mgrwt>
</event>
<event>
 5    0  0.1911311E+001  0.3369088E+03  0.7546771E-02  0.1068120E+00
         21   -1    0    0  502  501  0.00000000000E+00  0.00000000000E+00  0.42140229023E+03  0.42140229023E+03  0.00000000000E+00 0. -1.
         21   -1    0    0  504  502 -0.00000000000E+00 -0.00000000000E+00 -0.29044916748E+04  0.29044916748E+04  0.00000000000E+00 0. -1.
         25    1    1    2    0    0 -0.26373290221E+03 -0.12614176749E+03  0.32929251246E+03  0.45773938871E+03  0.12500000000E+03 0.  0.
         21    1    1    2  503  501 -0.21958157563E+02 -0.24931171924E+01  0.12876055305E+02  0.25576729993E+02  0.00000000000E+00 0.  1.
         21    1    1    2  504  503  0.28569105977E+03  0.12863488468E+03 -0.28252579524E+04  0.28425778464E+04  0.00000000000E+00 0. -1.
<mgrwt>
<rscale>  4 0.33690885E+03</rscale>
<asrwt>0</asrwt>
<pdfrwt beam="1">  1       21 0.64831120E-01 0.33690885E+03</pdfrwt>
<pdfrwt beam="2">  1       21 0.44684488E+00 0.33690885E+03</pdfrwt>
<totfact> 0.76077028E+00</totfact>
</mgrwt>
</event>
<event>
 5    0  0.2605666E+001  0.2379788E+03  0.7546771E-02  0.1121147E+00
         21   -1    0    0  502  501  0.00000000000E+00  0.00000000000E+00  0.73662528518E+02  0.73662528518E+02  0.00000000000E+00 0.  1.
         21   -1    0    0  504  502 -0.00000000000E+00 -0.00000000000E+00 -0.73395475885E+03  0.73395475885E+03  0.00000000000E+00 0.  1.
         25    1    1    2    0    0  0.16501617281E+03  0.12511792330E+03 -0.37173057283E+03  0.44350135377E+03  0.12500000000E+03 0.  0.
         21    1    1    2  503  501  0.46193838843E+01 -0.19720841552E+02 -0.43490113804E+02  0.47975413470E+02  0.00000000000E+00 0. -1.
         21    1    1    2  504  503 -0.16963555669E+03 -0.10539708174E+03 -0.24507154370E+03  0.31614052013E+03  0.00000000000E+00 0.  1.
<mgrwt>
<rscale>  4 0.23797878E+03</rscale>
<asrwt>0</asrwt>
<pdfrwt beam="1">  1       21 0.11332696E-01 0.23797878E+03</pdfrwt>
<pdfrwt beam="2">  1       21 0.11291612E+00 0.23797878E+03</pdfrwt>
<totfact> 0.38913748E+04</totfact>
</mgrwt>
</event>
<event>
 5    0  0.1911311E+001  0.2614844E+03  0.7546771E-02  0.1106255E+00
         21   -1    0    0  504  501  0.00000000000E+00  0.00000000000E+00  0.19168532747E+03  0.19168532747E+03  0.00000000000E+00 0.  1.
         21   -1    0    0  503  502 -0.00000000000E+00 -0.00000000000E+00 -0.46252990140E+03  0.46252990140E+03  0.00000000000E+00 0.  1.
         25    1    1    2    0    0  0.21891045039E+03  0.81595517179E+02 -0.22927574795E+03  0.35038833073E+03  0.12500000000E+03 0.  0.
         21    1    1    2  503  501 -0.31228261469E+02  0.51981429617E+02 -0.41467750084E+02  0.73463240034E+02  0.00000000000E+00 0.  1.
         21    1    1    2  504  502 -0.18768218893E+03 -0.13357694680E+03 -0.10107589101E+00  0.23036365810E+03  0.00000000000E+00 0.  1.
<mgrwt>
<rscale>  4 0.26148439E+03</rscale>
<asrwt>0</asrwt>
<pdfrwt beam="1">  1       21 0.29490051E-01 0.26148439E+03</pdfrwt>
<pdfrwt beam="2">  1       21 0.71158445E-01 0.26148439E+03</pdfrwt>
<totfact> 0.18968095E+04</totfact>
</mgrwt>
</event>
