<event>
 5    0  0.1283376E+001  0.3277101E+03  0.7546771E-02  0.1072155E+00
         21   -1    0    0  504  501  0.00000000000E+00  0.00000000000E+00  0.83610023439E+03  0.83610023439E+03  0.00000000000E+00 0. -1.
         21   -1    0    0  501  502 -0.00000000000E+00 -0.00000000000E+00 -0.16405483771E+03  0.16405483771E+03  0.00000000000E+00 0. -1.
         25    1    1    2    0    0  0.30944435602E+03  0.14209111238E+02  0.56136404966E+03  0.65323219804E+03  0.12500000000E+03 0.  0.
         21    1    1    2  503  502 -0.10709981374E+02  0.21710141129E+02  0.23314009687E+02  0.33609179945E+02  0.00000000000E+00 0.  1.
         21    1    1    2  504  503 -0.29873437464E+03 -0.35919252367E+02  0.87367337334E+02  0.31331369411E+03  0.00000000000E+00 0. -1.
<mgrwt>
<rscale>  4 0.32771007E+03</rscale>
<asrwt>0</asrwt>
<pdfrwt beam="1">  1       21 0.12863080E+00 0.32771007E+03</pdfrwt>
<pdfrwt beam="2">  1       21 0.25239206E-01 0.32771007E+03</pdfrwt>
<totfact> 0.60794993E+03</totfact>
</mgrwt>
</event>
<event>
 5    0  0.1283376E+001  0.1780973E+03  0.7546771E-02  0.1169657E+00
         21   -1    0    0  503  501  0.00000000000E+00  0.00000000000E+00  0.16153682832E+03  0.16153682832E+03  0.00000000000E+00 0.  1.
         21   -1    0    0  504  502 -0.00000000000E+00 -0.00000000000E+00 -0.23118634479E+04  0.23118634479E+04  0.00000000000E+00 0.  1.
         25    1    1    2    0    0 -0.21109767885E+03 -0.71364333036E+02  0.18108707146E+02  0.25614063192E+03  0.12500000000E+03 0.  0.
         21    1    1    2  503  502  0.11565492612E+03  0.48845937328E+02 -0.20842199398E+04  0.20879977838E+04  0.00000000000E+00 0.  1.
         21    1    1    2  504  501  0.95442752731E+02  0.22518395708E+02 -0.84215386932E+02  0.12926186054E+03  0.00000000000E+00 0.  1.
<mgrwt>
<rscale>  4 0.17809727E+03</rscale>
<asrwt>0</asrwt>
<pdfrwt beam="1">  1       21 0.24851820E-01 0.17809727E+03</pdfrwt>
<pdfrwt beam="2">  1       21 0.35567129E+00 0.17809727E+03</pdfrwt>
<totfact> 0.25428136E+02</totfact>
</mgrwt>
</event>
<event>
 5    0  0.1283376E+001  0.3979149E+03  0.7546771E-02  0.1044504E+00
         21   -1    0    0  503  501  0.00000000000E+00  0.00000000000E+00  0.35278402813E+03  0.35278402813E+03  0.00000000000E+00 0.  1.
         21   -1    0    0  504  502 -0.00000000000E+00 -0.00000000000E+00 -0.58300625112E+03  0.58300625112E+03  0.00000000000E+00 0.  1.
         25    1    1    2    0    0  0.18503843084E+03  0.32935089139E+03  0.11746396835E+03  0.41489036432E+03  0.12500000000E+03 0.  0.
         21    1    1    2  503  502  0.59557582783E+01 -0.23525879164E+02 -0.40535327097E+02  0.47244584769E+02  0.00000000000E+00 0. -1.
         21    1    1    2  504  501 -0.19099418912E+03 -0.30582501222E+03 -0.30715086425E+03  0.47365533016E+03  0.00000000000E+00 0.  1.
<mgrwt>
<rscale>  4 0.39791485E+03</rscale>
<asrwt>0</asrwt>
<pdfrwt beam="1">  1       21 0.54274466E-01 0.39791485E+03</pdfrwt>
<pdfrwt beam="2">  1       21 0.89693269E-01 0.39791485E+03</pdfrwt>
<totfact> 0.30142848E+03</totfact>
</mgrwt>
</event>
<event>
 5    0  0.1283376E+001  0.2411400E+03  0.7546771E-02  0.1119036E+00
         21   -1    0    0  504  501  0.00000000000E+00  0.00000000000E+00  0.13274552515E+04  0.13274552515E+04  0.00000000000E+00 0. -1.
         21   -1    0    0  501  502 -0.00000000000E+00 -0.00000000000E+00 -0.12165125247E+03  0.12165125247E+03  0.00000000000E+00 0.  1.
         25    1    1    2    0    0 -0.20605024049E+03  0.81732259780E+01  0.12093154130E+04  0.12331229749E+04  0.12500000000E+03 0.  0.
         21    1    1    2  503  502  0.27197127548E+02  0.94948192320E+01 -0.20651197160E+02  0.35444425277E+02  0.00000000000E+00 0. -1.
         21    1    1    2  504  503  0.17885311294E+03 -0.17668045210E+02  0.17139783237E+02  0.18053910380E+03  0.00000000000E+00 0.  1.
<mgrwt>
<rscale>  4 0.24114001E+03</rscale>
<asrwt>0</asrwt>
<pdfrwt beam="1">  1       21 0.20422388E+00 0.24114001E+03</pdfrwt>
<pdfrwt beam="2">  1       21 0.18715578E-01 0.24114001E+03</pdfrwt>
<totfact> 0.31547665E+03</totfact>
</mgrwt>
</event>
<event>
 5    0  0.1283376E+001  0.2884465E+03  0.7546771E-02  0.1091163E+00
         21   -1    0    0  503  501  0.00000000000E+00  0.00000000000E+00  0.77690701091E+03  0.77690701091E+03  0.00000000000E+00 0.  1.
         21   -1    0    0  504  502 -0.00000000000E+00 -0.00000000000E+00 -0.12768588153E+04  0.12768588153E+04  0.00000000000E+00 0.  1.
         25    1    1    2    0    0 -0.18677762508E+03  0.15559722111E+03  0.31178919719E+03  0.41464910459E+03  0.12500000000E+03 0.  0.
         21    1    1    2  503  502  0.34931495154E+02  0.81603455441E+02 -0.11756254734E+04  0.11789718347E+04  0.00000000000E+00 0.  1.
         21    1    1    2  504  501  0.15184612993E+03 -0.23720067655E+03  0.36388447182E+03  0.46014488692E+03  0.00000000000E+00 0.  1.
<mgrwt>
<rscale>  4 0.28844650E+03</rscale>
<asrwt>0</asrwt>
<pdfrwt beam="1">  1       21 0.11952416E+00 0.28844650E+03</pdfrwt>
<pdfrwt beam="2">  1       21 0.19643982E+00 0.28844650E+03</pdfrwt>
<totfact> 0.67192472E+01</totfact>
</mgrwt>
</event>
<event>
 5    0  0.1283376E+001  0.2504457E+03  0.7546771E-02  0.1113023E+00
         21   -1    0    0  503  501  0.00000000000E+00  0.00000000000E+00  0.10785478262E+04  0.10785478262E+04  0.00000000000E+00 0. -1.
         21   -1    0    0  504  502 -0.00000000000E+00 -0.00000000000E+00 -0.63979917304E+03  0.63979917304E+03  0.00000000000E+00 0. -1.
         25    1    1    2    0    0 -0.14917571174E+03 -0.27137476132E+03  0.16617305340E+03  0.37300956788E+03  0.12500000000E+03 0.  0.
         21    1    1    2  503  502 -0.35847873446E+02  0.16600392773E+03  0.77830187624E+03  0.79661545592E+03  0.00000000000E+00 0. -1.
         21    1    1    2  504  501  0.18502358518E+03  0.10537083359E+03 -0.50572627646E+03  0.54872197546E+03  0.00000000000E+00 0. -1.
<mgrwt>
<rscale>  4 0.25044568E+03</rscale>
<asrwt>0</asrwt>
<pdfrwt beam="1">  1       21 0.16593043E+00 0.25044568E+03</pdfrwt>
<pdfrwt beam="2">  1       21 0.98430643E-01 0.25044568E+03</pdfrwt>
<totfact> 0.18180284E+02</totfact>
</mgrwt>
</event>
<event>
 5    0  0.1283376E+001  0.3174518E+03  0.7546771E-02  0.1076828E+00
         21   -1    0    0  504  501  0.00000000000E+00  0.00000000000E+00  0.62999974927E+03  0.62999974927E+03  0.00000000000E+00 0.  1.
         21   -1    0    0  503  502 -0.00000000000E+00 -0.00000000000E+00 -0.89185903338E+03  0.89185903338E+03  0.00000000000E+00 0. -1.
         25    1    1    2    0    0  0.14944601862E+03  0.26116787037E+03  0.14731475785E+03  0.35758832039E+03  0.12500000000E+03 0.  0.
         21    1    1    2  503  501 -0.17840128977E+03 -0.22628543527E+03  0.32176235941E+03  0.43192954789E+03  0.00000000000E+00 0.  1.
         21    1    1    2  504  502  0.28955271157E+02 -0.34882435103E+02 -0.73093640137E+03  0.73234091437E+03  0.00000000000E+00 0. -1.
<mgrwt>
<rscale>  4 0.31745176E+03</rscale>
<asrwt>0</asrwt>
<pdfrwt beam="1">  1       21 0.96923039E-01 0.31745176E+03</pdfrwt>
<pdfrwt beam="2">  1       21 0.13720908E+00 0.31745176E+03</pdfrwt>
<totfact> 0.29667944E+02</totfact>
</mgrwt>
</event>
<event>
 5    0  0.1283376E+001  0.2997627E+03  0.7546771E-02  0.1085359E+00
         21   -1    0    0  503  501  0.00000000000E+00  0.00000000000E+00  0.60142281208E+03  0.60142281208E+03  0.00000000000E+00 0.  1.
         21   -1    0    0  504  502 -0.00000000000E+00 -0.00000000000E+00 -0.52271935380E+03  0.52271935380E+03  0.00000000000E+00 0.  1.
         25    1    1    2    0    0  0.13045546226E+03  0.25579678984E+03  0.19835008140E+03  0.37069985179E+03  0.12500000000E+03 0.  0.
         21    1    1    2  503  502  0.16199523810E+02 -0.36495215866E+02 -0.38040995886E+03  0.38249975445E+03  0.00000000000E+00 0.  1.
         21    1    1    2  504  501 -0.14665498607E+03 -0.21930157398E+03  0.26076333575E+03  0.37094255965E+03  0.00000000000E+00 0.  1.
<mgrwt>
<rscale>  4 0.29976269E+03</rscale>
<asrwt>0</asrwt>
<pdfrwt beam="1">  1       21 0.92526587E-01 0.29976269E+03</pdfrwt>
<pdfrwt beam="2">  1       21 0.80418362E-01 0.29976269E+03</pdfrwt>
<totfact> 0.12312267E+03</totfact>
</mgrwt>
</event>
<event>
 5    0  0.1283376E+001  0.2883989E+03  0.7546771E-02  0.1091188E+00
         21   -1    0    0  503  501  0.00000000000E+00  0.00000000000E+00  0.38197497601E+04  0.38197497601E+04  0.00000000000E+00 0.  1.
         21   -1    0    0  504  502 -0.00000000000E+00 -0.00000000000E+00 -0.44853442658E+02  0.44853442658E+02  0.00000000000E+00 0.  1.
         25    1    1    2    0    0 -0.23670348130E+03 -0.14717526340E+03  0.30833296075E+04  0.30984246909E+04  0.12500000000E+03 0.  0.
         21    1    1    2  503  502  0.49049755489E+01  0.35459299465E+02  0.26944517344E+03  0.27181266011E+03  0.00000000000E+00 0. -1.
         21    1    1    2  504  501  0.23179850575E+03  0.11171596394E+03  0.42212153644E+03  0.49436585177E+03  0.00000000000E+00 0.  1.
<mgrwt>
<rscale>  4 0.28839887E+03</rscale>
<asrwt>0</asrwt>
<pdfrwt beam="1">  1       21 0.58765355E+00 0.28839887E+03</pdfrwt>
<pdfrwt beam="2">  1       21 0.69005327E-02 0.28839887E+03</pdfrwt>
<totfact> 0.57362901E+01</totfact>
</mgrwt>
</event>
<event>
 5    0  0.1283376E+001  0.2423595E+03  0.7546771E-02  0.1118231E+00
         21   -1    0    0  504  501  0.00000000000E+00  0.00000000000E+00  0.59426249623E+03  0.59426249623E+03  0.00000000000E+00 0.  1.
         21   -1    0    0  503  502 -0.00000000000E+00 -0.00000000000E+00 -0.13272602457E+03  0.13272602457E+03  0.00000000000E+00 0.  1.
         25    1    1    2    0    0 -0.13904566488E+03  0.15107149827E+03  0.40102856363E+03  0.46755235360E+03  0.12500000000E+03 0.  0.
         21    1    1    2  503  501  0.12632985592E+03 -0.17237578304E+03  0.79678840994E+02  0.22808191681E+03  0.00000000000E+00 0.  1.
         21    1    1    2  504  502  0.12715808952E+02  0.21304284768E+02 -0.19170932963E+02  0.31354250389E+02  0.00000000000E+00 0.  1.
<mgrwt>
<rscale>  4 0.24235947E+03</rscale>
<asrwt>0</asrwt>
<pdfrwt beam="1">  1       21 0.91424998E-01 0.24235947E+03</pdfrwt>
<pdfrwt beam="2">  1       21 0.20419389E-01 0.24235947E+03</pdfrwt>
<totfact> 0.21877856E+04</totfact>
</mgrwt>
</event>
<event>
 5    0  0.1283376E+001  0.3624861E+03  0.7546771E-02  0.1057604E+00
         21   -1    0    0  503  501  0.00000000000E+00  0.00000000000E+00  0.27906756934E+03  0.27906756934E+03  0.00000000000E+00 0.  1.
         21   -1    0    0  504  502 -0.00000000000E+00 -0.00000000000E+00 -0.48753026123E+03  0.48753026123E+03  0.00000000000E+00 0.  1.
         25    1    1    2    0    0 -0.12717002501E+03 -0.31559299701E+03 -0.47763177710E+01  0.36251754197E+03  0.12500000000E+03 0.  0.
         21    1    1    2  503  502  0.12869993300E+03  0.26014097161E+03 -0.19015345826E+03  0.34698031004E+03  0.00000000000E+00 0.  1.
         21    1    1    2  504  501 -0.15299079820E+01  0.55452025400E+02 -0.13532915858E+02  0.57099978555E+02  0.00000000000E+00 0. -1.
<mgrwt>
<rscale>  4 0.36248608E+03</rscale>
<asrwt>0</asrwt>
<pdfrwt beam="1">  1       21 0.42933472E-01 0.36248608E+03</pdfrwt>
<pdfrwt beam="2">  1       21 0.75004655E-01 0.36248608E+03</pdfrwt>
<totfact> 0.75796657E+03</totfact>
</mgrwt>
</event>
<event>
 5    0  0.1283376E+001  0.3004493E+03  0.7546771E-02  0.1085016E+00
         21   -1    0    0  504  501  0.00000000000E+00  0.00000000000E+00  0.23148773270E+03  0.23148773270E+03  0.00000000000E+00 0.  1.
         21   -1    0    0  501  502 -0.00000000000E+00 -0.00000000000E+00 -0.57315122226E+03  0.57315122226E+03  0.00000000000E+00 0.  1.
         25    1    1    2    0    0  0.25444273636E+03  0.14333242840E+02 -0.73201634177E+01  0.28394565101E+03  0.12500000000E+03 0.  0.
         21    1    1    2  503  502  0.59176135401E+02 -0.52117403676E+02 -0.10011840757E+03  0.12744306298E+03  0.00000000000E+00 0.  1.
         21    1    1    2  504  503 -0.31361887176E+03  0.37784160835E+02 -0.23422491858E+03  0.39325024096E+03  0.00000000000E+00 0.  1.
<mgrwt>
<rscale>  4 0.30044928E+03</rscale>
<asrwt>0</asrwt>
<pdfrwt beam="1">  1       21 0.35613498E-01 0.30044928E+03</pdfrwt>
<pdfrwt beam="2">  1       21 0.88177110E-01 0.30044928E+03</pdfrwt>
<totfact> 0.78549747E+03</totfact>
</mgrwt>
</event>
<event>
 5    0  0.1283376E+001  0.2833791E+03  0.7546771E-02  0.1093858E+00
         21   -1    0    0  503  501  0.00000000000E+00  0.00000000000E+00  0.18633799130E+03  0.18633799130E+03  0.00000000000E+00 0. -1.
         21   -1    0    0  504  502 -0.00000000000E+00 -0.00000000000E+00 -0.57155306036E+03  0.57155306036E+03  0.00000000000E+00 0. -1.
         25    1    1    2    0    0 -0.94633644873E+02  0.23605761824E+03  0.87864260095E+01  0.28351530321E+03  0.12500000000E+03 0.  0.
         21    1    1    2  503  502  0.30358287426E+02 -0.40370436280E+02 -0.13042925789E+03  0.13986847055E+03  0.00000000000E+00 0. -1.
         21    1    1    2  504  501  0.64275357447E+02 -0.19568718196E+03 -0.26357223718E+03  0.33450727790E+03  0.00000000000E+00 0. -1.
<mgrwt>
<rscale>  4 0.28337912E+03</rscale>
<asrwt>0</asrwt>
<pdfrwt beam="1">  1       21 0.28667384E-01 0.28337912E+03</pdfrwt>
<pdfrwt beam="2">  1       21 0.87931239E-01 0.28337912E+03</pdfrwt>
<totfact> 0.12254695E+04</totfact>
</mgrwt>
</event>
<event>
 5    0  0.1283376E+001  0.2400579E+03  0.7546771E-02  0.1119754E+00
         21   -1    0    0  504  501  0.00000000000E+00  0.00000000000E+00  0.12693018518E+03  0.12693018518E+03  0.00000000000E+00 0.  1.
         21   -1    0    0  501  502 -0.00000000000E+00 -0.00000000000E+00 -0.94101703404E+03  0.94101703404E+03  0.00000000000E+00 0.  1.
         25    1    1    2    0    0 -0.15044512252E+03  0.14585487630E+03 -0.35310033794E+02  0.24653433496E+03  0.12500000000E+03 0.  0.
         21    1    1    2  503  502 -0.12229395627E+02 -0.42372334048E+02 -0.33055727853E+03  0.33348626238E+03  0.00000000000E+00 0.  1.
         21    1    1    2  504  503  0.16267451815E+03 -0.10348254225E+03 -0.44821953654E+03  0.48792662188E+03  0.00000000000E+00 0.  1.
<mgrwt>
<rscale>  4 0.24005791E+03</rscale>
<asrwt>0</asrwt>
<pdfrwt beam="1">  1       21 0.19527721E-01 0.24005791E+03</pdfrwt>
<pdfrwt beam="2">  1       21 0.14477185E+00 0.24005791E+03</pdfrwt>
<totfact> 0.76503011E+03</totfact>
</mgrwt>
</event>
<event>
 5    0  0.1283376E+001  0.4020329E+03  0.7546771E-02  0.1043078E+00
         21   -1    0    0  503  501  0.00000000000E+00  0.00000000000E+00  0.17349647858E+03  0.17349647858E+03  0.00000000000E+00 0.  1.
         21   -1    0    0  504  502 -0.00000000000E+00 -0.00000000000E+00 -0.14552672221E+04  0.14552672221E+04  0.00000000000E+00 0.  1.
         25    1    1    2    0    0 -0.30543227307E+03  0.25907735353E+03 -0.49487515298E+03  0.64879608937E+03  0.12500000000E+03 0.  0.
         21    1    1    2  503  502  0.20631521348E+02 -0.21922960702E+02 -0.52570131628E+03  0.52656257920E+03  0.00000000000E+00 0.  1.
         21    1    1    2  504  501  0.28480075172E+03 -0.23715439283E+03 -0.26119427423E+03  0.45340503207E+03  0.00000000000E+00 0.  1.
<mgrwt>
<rscale>  4 0.40203295E+03</rscale>
<asrwt>0</asrwt>
<pdfrwt beam="1">  1       21 0.26691766E-01 0.40203295E+03</pdfrwt>
<pdfrwt beam="2">  1       21 0.22388726E+00 0.40203295E+03</pdfrwt>
<totfact> 0.10810408E+03</totfact>
</mgrwt>
</event>
<event>
 5    0  0.1283376E+001  0.2989389E+03  0.7546771E-02  0.1085772E+00
         21   -1    0    0  503  501  0.00000000000E+00  0.00000000000E+00  0.92824457735E+03  0.92824457735E+03  0.00000000000E+00 0.  1.
         21   -1    0    0  504  502 -0.00000000000E+00 -0.00000000000E+00 -0.16532901914E+03  0.16532901914E+03  0.00000000000E+00 0.  1.
         25    1    1    2    0    0  0.22363195372E+03  0.88418339185E+02  0.35401106320E+03  0.44584513713E+03  0.12500000000E+03 0.  0.
         21    1    1    2  503  502 -0.26470005010E+03 -0.14777002973E+03  0.46584278022E+03  0.55579815949E+03  0.00000000000E+00 0.  1.
         21    1    1    2  504  501  0.41068096383E+02  0.59351690541E+02 -0.56938285222E+02  0.91930299873E+02  0.00000000000E+00 0.  1.
<mgrwt>
<rscale>  4 0.29893892E+03</rscale>
<asrwt>0</asrwt>
<pdfrwt beam="1">  1       21 0.14280685E+00 0.29893892E+03</pdfrwt>
<pdfrwt beam="2">  1       21 0.25435234E-01 0.29893892E+03</pdfrwt>
<totfact> 0.46318797E+03</totfact>
</mgrwt>
</event>
<event>
 5    0  0.1283376E+001  0.3466034E+03  0.7546771E-02  0.1064018E+00
         21   -1    0    0  504  501  0.00000000000E+00  0.00000000000E+00  0.21999538117E+03  0.21999538117E+03  0.00000000000E+00 0. -1.
         21   -1    0    0  503  502 -0.00000000000E+00 -0.00000000000E+00 -0.10102405587E+04  0.10102405587E+04  0.00000000000E+00 0. -1.
         25    1    1    2    0    0  0.26404486827E+03  0.80791030939E+02 -0.41828118854E+03  0.51655690473E+03  0.12500000000E+03 0.  0.
         21    1    1    2  503  501 -0.34794310065E+03  0.31508576502E+02 -0.37925030089E+02  0.35141926468E+03  0.00000000000E+00 0. -1.
         21    1    1    2  504  502  0.83898232378E+02 -0.11229960744E+03 -0.33403895888E+03  0.36225977044E+03  0.00000000000E+00 0. -1.
<mgrwt>
<rscale>  4 0.34660337E+03</rscale>
<asrwt>0</asrwt>
<pdfrwt beam="1">  1       21 0.33845443E-01 0.34660337E+03</pdfrwt>
<pdfrwt beam="2">  1       21 0.15542163E+00 0.34660337E+03</pdfrwt>
<totfact> 0.20509994E+03</totfact>
</mgrwt>
</event>
<event>
 5    0  0.1283376E+001  0.2349667E+03  0.7546771E-02  0.1123192E+00
         21   -1    0    0  503  501  0.00000000000E+00  0.00000000000E+00  0.29216994039E+03  0.29216994039E+03  0.00000000000E+00 0. -1.
         21   -1    0    0  504  502 -0.00000000000E+00 -0.00000000000E+00 -0.31705889582E+03  0.31705889582E+03  0.00000000000E+00 0. -1.
         25    1    1    2    0    0 -0.40931513857E+02 -0.22100449605E+03  0.13938670665E+03  0.29252697328E+03  0.12500000000E+03 0.  0.
         21    1    1    2  503  502  0.33606349631E+02  0.54994407284E+02 -0.13274737337E+03  0.14756570301E+03  0.00000000000E+00 0.  1.
         21    1    1    2  504  501  0.73251642263E+01  0.16601008877E+03 -0.31528288718E+02  0.16913615992E+03  0.00000000000E+00 0. -1.
<mgrwt>
<rscale>  4 0.23496669E+03</rscale>
<asrwt>0</asrwt>
<pdfrwt beam="1">  1       21 0.44949221E-01 0.23496669E+03</pdfrwt>
<pdfrwt beam="2">  1       21 0.48778292E-01 0.23496669E+03</pdfrwt>
<totfact> 0.18598570E+04</totfact>
</mgrwt>
</event>
