<event>
 5    0  0.1856407E+000  0.2819917E+03  0.7546771E-02  0.1094606E+00
         21   -1    0    0  502  501  0.00000000000E+00  0.00000000000E+00  0.43229543295E+03  0.43229543295E+03  0.00000000000E+00 0.  1.
         21   -1    0    0  503  502 -0.00000000000E+00 -0.00000000000E+00 -0.20349241410E+03  0.20349241410E+03  0.00000000000E+00 0.  1.
         25    1    1    2    0    0 -0.99061082846E+02 -0.23255367059E+03 -0.14831806899E+02  0.28238146245E+03  0.12500000000E+03 0.  0.
         21    1    1    2  503  504  0.76466648151E+02  0.20278639413E+03  0.22189315469E+03  0.31017098836E+03  0.00000000000E+00 0.  1.
         21    1    1    2  504  501  0.22594434695E+02  0.29767276462E+02  0.21741671055E+02  0.43235396233E+02  0.00000000000E+00 0.  1.
<mgrwt>
<rscale>  4 0.28199168E+03</rscale>
<asrwt>0</asrwt>
<pdfrwt beam="1">  1       21 0.66506990E-01 0.28199168E+03</pdfrwt>
<pdfrwt beam="2">  1       21 0.31306525E-01 0.28199168E+03</pdfrwt>
<totfact> 0.19410950E+04</totfact>
</mgrwt>
</event>
<event>
 5    0  0.1962440E+000  0.2819366E+03  0.7546771E-02  0.1094636E+00
         21   -1    0    0  502  501  0.00000000000E+00  0.00000000000E+00  0.79571524149E+03  0.79571524149E+03  0.00000000000E+00 0. -1.
         21   -1    0    0  503  502 -0.00000000000E+00 -0.00000000000E+00 -0.94919074370E+02  0.94919074370E+02  0.00000000000E+00 0. -1.
         25    1    1    2    0    0 -0.51627978038E+02 -0.24738184809E+03  0.30931117154E+03  0.41852315075E+03  0.12500000000E+03 0.  0.
         21    1    1    2  503  504 -0.18729940523E+02  0.46416240060E+02  0.90601264158E+02  0.10350781169E+03  0.00000000000E+00 0. -1.
         21    1    1    2  504  501  0.70357918561E+02  0.20096560803E+03  0.30088373143E+03  0.36860335342E+03  0.00000000000E+00 0. -1.
<mgrwt>
<rscale>  4 0.28193657E+03</rscale>
<asrwt>0</asrwt>
<pdfrwt beam="1">  1       21 0.12241773E+00 0.28193657E+03</pdfrwt>
<pdfrwt beam="2">  1       21 0.14602935E-01 0.28193657E+03</pdfrwt>
<totfact> 0.19714243E+04</totfact>
</mgrwt>
</event>
<event>
 5    0  0.1856407E+000  0.5516244E+03  0.7546771E-02  0.1001119E+00
         21   -1    0    0  502  501  0.00000000000E+00  0.00000000000E+00  0.24764972249E+03  0.24764972249E+03  0.00000000000E+00 0.  1.
         21   -1    0    0  503  502 -0.00000000000E+00 -0.00000000000E+00 -0.16710592268E+04  0.16710592268E+04  0.00000000000E+00 0.  1.
         25    1    1    2    0    0  0.59340648497E+03 -0.13627169050E+03 -0.76121632048E+03  0.98273929228E+03  0.12500000000E+03 0.  0.
         21    1    1    2  503  504 -0.10129355933E+03  0.64280444706E+02 -0.29286748544E+03  0.31648653172E+03  0.00000000000E+00 0.  1.
         21    1    1    2  504  501 -0.49211292564E+03  0.71991245790E+02 -0.36932569844E+03  0.61948312534E+03  0.00000000000E+00 0.  1.
<mgrwt>
<rscale>  4 0.55162435E+03</rscale>
<asrwt>0</asrwt>
<pdfrwt beam="1">  1       21 0.38099959E-01 0.55162435E+03</pdfrwt>
<pdfrwt beam="2">  1       21 0.25708602E+00 0.55162435E+03</pdfrwt>
<totfact> 0.30607031E+02</totfact>
</mgrwt>
</event>
<event>
 5    0  0.1856407E+000  0.2732544E+03  0.7546771E-02  0.1099431E+00
         21   -1    0    0  502  501  0.00000000000E+00  0.00000000000E+00  0.56989047288E+03  0.56989047288E+03  0.00000000000E+00 0.  1.
         21   -1    0    0  503  502 -0.00000000000E+00 -0.00000000000E+00 -0.83815386989E+03  0.83815386989E+03  0.00000000000E+00 0.  1.
         25    1    1    2    0    0  0.13619293903E+03 -0.15262050534E+03  0.48768418186E+03  0.54341733182E+03  0.12500000000E+03 0.  0.
         21    1    1    2  503  504 -0.15063155149E+03  0.19245938674E+03 -0.77896471662E+03  0.81640462370E+03  0.00000000000E+00 0.  1.
         21    1    1    2  504  501  0.14438612468E+02 -0.39838881402E+02  0.23017137759E+02  0.48222387249E+02  0.00000000000E+00 0. -1.
<mgrwt>
<rscale>  4 0.27325441E+03</rscale>
<asrwt>0</asrwt>
<pdfrwt beam="1">  1       21 0.87675457E-01 0.27325441E+03</pdfrwt>
<pdfrwt beam="2">  1       21 0.12894675E+00 0.27325441E+03</pdfrwt>
<totfact> 0.45578102E+02</totfact>
</mgrwt>
</event>
<event>
 5    0  0.1856407E+000  0.3386122E+03  0.7546771E-02  0.1067389E+00
         21   -1    0    0  502  501  0.00000000000E+00  0.00000000000E+00  0.40502189953E+03  0.40502189953E+03  0.00000000000E+00 0. -1.
         21   -1    0    0  503  502 -0.00000000000E+00 -0.00000000000E+00 -0.11712423505E+04  0.11712423505E+04  0.00000000000E+00 0. -1.
         25    1    1    2    0    0  0.21446597644E+03 -0.23029889758E+03 -0.10786958233E+04  0.11305940547E+04  0.12500000000E+03 0.  0.
         21    1    1    2  503  504 -0.17871884190E+03  0.20511164040E+03  0.25044571637E+03  0.36977596775E+03  0.00000000000E+00 0. -1.
         21    1    1    2  504  501 -0.35747134536E+02  0.25187257181E+02  0.62029656003E+02  0.75894227552E+02  0.00000000000E+00 0.  1.
<mgrwt>
<rscale>  4 0.33861222E+03</rscale>
<asrwt>0</asrwt>
<pdfrwt beam="1">  1       21 0.62311063E-01 0.33861222E+03</pdfrwt>
<pdfrwt beam="2">  1       21 0.18019113E+00 0.33861222E+03</pdfrwt>
<totfact> 0.37977372E+02</totfact>
</mgrwt>
</event>
<event>
 5    0  0.1856407E+000  0.4062560E+03  0.7546771E-02  0.1043434E+00
         21   -1    0    0  502  501  0.00000000000E+00  0.00000000000E+00  0.90991583081E+02  0.90991583081E+02  0.00000000000E+00 0. -1.
         21   -1    0    0  503  502 -0.00000000000E+00 -0.00000000000E+00 -0.19735644517E+04  0.19735644517E+04  0.00000000000E+00 0.  1.
         25    1    1    2    0    0  0.76312259162E+02  0.35674092722E+03 -0.55212580359E+03  0.67346533173E+03  0.12500000000E+03 0.  0.
         21    1    1    2  503  504 -0.86946354839E+02 -0.10337277788E+03 -0.28592578328E+03  0.31622642737E+03  0.00000000000E+00 0. -1.
         21    1    1    2  504  501  0.10634095677E+02 -0.25336814934E+03 -0.10445212818E+04  0.10748642757E+04  0.00000000000E+00 0.  1.
<mgrwt>
<rscale>  4 0.40099905E+03</rscale>
<asrwt>0</asrwt>
<pdfrwt beam="1">  1       21 0.13998704E-01 0.40625602E+03</pdfrwt>
<pdfrwt beam="2">  1       21 0.30362532E+00 0.40625602E+03</pdfrwt>
<totfact> 0.11993306E+03</totfact>
</mgrwt>
</event>
<event>
 5    0  0.1856407E+000  0.2606176E+03  0.7546771E-02  0.1106773E+00
         21   -1    0    0  502  501  0.00000000000E+00  0.00000000000E+00  0.86787266557E+03  0.86787266557E+03  0.00000000000E+00 0. -1.
         21   -1    0    0  503  502 -0.00000000000E+00 -0.00000000000E+00 -0.20469876721E+03  0.20469876721E+03  0.00000000000E+00 0. -1.
         25    1    1    2    0    0 -0.18413240251E+03 -0.13561639475E+03  0.77098322874E+03  0.81384070135E+03  0.12500000000E+03 0.  0.
         21    1    1    2  503  504  0.15874865992E+03  0.12746380092E+03 -0.76204890403E+02  0.21738294067E+03  0.00000000000E+00 0. -1.
         21    1    1    2  504  501  0.25383742591E+02  0.81525938269E+01 -0.31604439979E+02  0.41347790756E+02  0.00000000000E+00 0.  1.
<mgrwt>
<rscale>  4 0.26061763E+03</rscale>
<asrwt>0</asrwt>
<pdfrwt beam="1">  1       21 0.13351887E+00 0.26061763E+03</pdfrwt>
<pdfrwt beam="2">  1       21 0.31492118E-01 0.26061763E+03</pdfrwt>
<totfact> 0.37200793E+03</totfact>
</mgrwt>
</event>
<event>
 5    0  0.1856407E+000  0.3416548E+03  0.7546771E-02  0.1066093E+00
         21   -1    0    0  502  501  0.00000000000E+00  0.00000000000E+00  0.33209665508E+03  0.33209665508E+03  0.00000000000E+00 0. -1.
         21   -1    0    0  503  502 -0.00000000000E+00 -0.00000000000E+00 -0.35499991398E+03  0.35499991398E+03  0.00000000000E+00 0. -1.
         25    1    1    2    0    0 -0.18756202488E+03 -0.25675564597E+03  0.63078151189E+02  0.34742888203E+03  0.12500000000E+03 0.  0.
         21    1    1    2  503  504  0.15038006629E+03  0.19540089797E+03 -0.10086033211E+03  0.26639910258E+03  0.00000000000E+00 0. -1.
         21    1    1    2  504  501  0.37181958583E+02  0.61354748003E+02  0.14878922020E+02  0.73268584449E+02  0.00000000000E+00 0. -1.
<mgrwt>
<rscale>  4 0.34165476E+03</rscale>
<asrwt>0</asrwt>
<pdfrwt beam="1">  1       21 0.51091793E-01 0.34165476E+03</pdfrwt>
<pdfrwt beam="2">  1       21 0.54615372E-01 0.34165476E+03</pdfrwt>
<totfact> 0.10678819E+04</totfact>
</mgrwt>
</event>
