<event>
 5    0  0.2159162E+000  0.2587658E+03  0.7546771E-02  0.1107887E+00
         21   -1    0    0  502  501  0.00000000000E+00  0.00000000000E+00  0.38782071847E+02  0.38782071847E+02  0.00000000000E+00 0. -1.
         21   -1    0    0  503  502 -0.00000000000E+00 -0.00000000000E+00 -0.16735276426E+04  0.16735276426E+04  0.00000000000E+00 0. -1.
         25    1    1    2    0    0  0.22621902521E+03  0.12635998243E+02 -0.92387061137E+03  0.95942515204E+03  0.12500000000E+03 0.  0.
         21    1    1    2  503  504 -0.12297223861E+03  0.14802130580E+02 -0.51590364932E+03  0.53056370958E+03  0.00000000000E+00 0. -1.
         21    1    1    2  504  501 -0.10324678660E+03 -0.27438128822E+02 -0.19497131010E+03  0.22232085287E+03  0.00000000000E+00 0. -1.
<mgrwt>
<rscale>  4 0.25876575E+03</rscale>
<asrwt>0</asrwt>
<pdfrwt beam="1">  1       21 0.59664741E-02 0.25876575E+03</pdfrwt>
<pdfrwt beam="2">  1       21 0.25746573E+00 0.25876575E+03</pdfrwt>
<totfact> 0.11324251E+04</totfact>
</mgrwt>
</event>
<event>
 5    0  0.2159162E+000  0.2605427E+03  0.7546771E-02  0.1106818E+00
         21   -1    0    0  502  501  0.00000000000E+00  0.00000000000E+00  0.70767883108E+03  0.70767883108E+03  0.00000000000E+00 0. -1.
         21   -1    0    0  503  502 -0.00000000000E+00 -0.00000000000E+00 -0.13171520543E+03  0.13171520543E+03  0.00000000000E+00 0. -1.
         25    1    1    2    0    0  0.22856526801E+03  0.39257362397E+01  0.54603563881E+03  0.60501025776E+03  0.12500000000E+03 0.  0.
         21    1    1    2  503  504 -0.41889333940E+02 -0.81029607026E+01  0.20728477301E+02  0.47434629136E+02  0.00000000000E+00 0. -1.
         21    1    1    2  504  501 -0.18667593407E+03  0.41772244628E+01  0.91995095394E+01  0.18694914961E+03  0.00000000000E+00 0. -1.
<mgrwt>
<rscale>  4 0.26054269E+03</rscale>
<asrwt>0</asrwt>
<pdfrwt beam="1">  1       21 0.10887366E+00 0.26054269E+03</pdfrwt>
<pdfrwt beam="2">  1       21 0.20263878E-01 0.26054269E+03</pdfrwt>
<totfact> 0.14488451E+04</totfact>
</mgrwt>
</event>
<event>
 5    0  0.2823863E+000  0.2481549E+03  0.7546771E-02  0.1114476E+00
         21   -1    0    0  502  501  0.00000000000E+00  0.00000000000E+00  0.20303949754E+03  0.20303949754E+03  0.00000000000E+00 0. -1.
         21   -1    0    0  503  502 -0.00000000000E+00 -0.00000000000E+00 -0.46135283884E+03  0.46135283884E+03  0.00000000000E+00 0. -1.
         25    1    1    2    0    0  0.12772890371E+02  0.22645788763E+03  0.53086987748E+02  0.26436631757E+03  0.12500000000E+03 0.  0.
         21    1    1    2  503  504 -0.39040695619E+02 -0.17534774689E+03 -0.28475382666E+03  0.33668345675E+03  0.00000000000E+00 0. -1.
         21    1    1    2  504  501  0.26267805248E+02 -0.51110140742E+02 -0.26646502385E+02  0.63342562062E+02  0.00000000000E+00 0. -1.
<mgrwt>
<rscale>  4 0.24815486E+03</rscale>
<asrwt>0</asrwt>
<pdfrwt beam="1">  1       21 0.31236846E-01 0.24815486E+03</pdfrwt>
<pdfrwt beam="2">  1       21 0.70977360E-01 0.24815486E+03</pdfrwt>
<totfact> 0.17147118E+04</totfact>
</mgrwt>
</event>
<event>
 5    0  0.2159162E+000  0.3564820E+03  0.7546771E-02  0.1059986E+00
         21   -1    0    0  502  501  0.00000000000E+00  0.00000000000E+00  0.10985232615E+04  0.10985232615E+04  0.00000000000E+00 0.  1.
         21   -1    0    0  503  502 -0.00000000000E+00 -0.00000000000E+00 -0.12306552011E+03  0.12306552011E+03  0.00000000000E+00 0. -1.
         25    1    1    2    0    0 -0.32771164584E+03  0.63714103053E+02  0.31779994562E+03  0.47757325635E+03  0.12500000000E+03 0.  0.
         21    1    1    2  503  504  0.55496886077E+02 -0.50780735347E+02  0.15203093423E+03  0.16962308925E+03  0.00000000000E+00 0. -1.
         21    1    1    2  504  501  0.27221475976E+03 -0.12933367706E+02  0.50562686158E+03  0.57439243605E+03  0.00000000000E+00 0.  1.
<mgrwt>
<rscale>  4 0.35648199E+03</rscale>
<asrwt>0</asrwt>
<pdfrwt beam="1">  1       21 0.16900357E+00 0.35648199E+03</pdfrwt>
<pdfrwt beam="2">  1       21 0.18933158E-01 0.35648199E+03</pdfrwt>
<totfact> 0.49946838E+03</totfact>
</mgrwt>
</event>
<event>
 5    0  0.2159162E+000  0.2387375E+03  0.7546771E-02  0.1120637E+00
         21   -1    0    0  502  501  0.00000000000E+00  0.00000000000E+00  0.12997152622E+04  0.12997152622E+04  0.00000000000E+00 0. -1.
         21   -1    0    0  503  502 -0.00000000000E+00 -0.00000000000E+00 -0.98648593076E+02  0.98648593076E+02  0.00000000000E+00 0.  1.
         25    1    1    2    0    0  0.11005605020E+03  0.17343564326E+03  0.11462831866E+04  0.11712311473E+04  0.12500000000E+03 0.  0.
         21    1    1    2  503  504 -0.87682957545E+02 -0.17179306456E+03  0.63507969464E+02  0.20306260182E+03  0.00000000000E+00 0.  1.
         21    1    1    2  504  501 -0.22373092653E+02 -0.16425787012E+01 -0.87244869072E+01  0.24070106179E+02  0.00000000000E+00 0.  1.
<mgrwt>
<rscale>  4 0.23873746E+03</rscale>
<asrwt>0</asrwt>
<pdfrwt beam="1">  1       21 0.19995618E+00 0.23873746E+03</pdfrwt>
<pdfrwt beam="2">  1       21 0.15176708E-01 0.23873746E+03</pdfrwt>
<totfact> 0.49605606E+03</totfact>
</mgrwt>
</event>
<event>
 5    0  0.2159162E+000  0.2659106E+03  0.7546771E-02  0.1103643E+00
         21   -1    0    0  502  501  0.00000000000E+00  0.00000000000E+00  0.38451032477E+03  0.38451032477E+03  0.00000000000E+00 0.  1.
         21   -1    0    0  503  502 -0.00000000000E+00 -0.00000000000E+00 -0.52062840079E+03  0.52062840079E+03  0.00000000000E+00 0. -1.
         25    1    1    2    0    0  0.21274070493E+03 -0.99120315916E+02  0.30248175814E+03  0.40274515337E+03  0.12500000000E+03 0.  0.
         21    1    1    2  503  504 -0.26229102679E+02  0.25001243162E+02 -0.12435034983E+03  0.12952234359E+03  0.00000000000E+00 0. -1.
         21    1    1    2  504  501 -0.18651160225E+03  0.74119072754E+02 -0.31424948432E+03  0.37287122860E+03  0.00000000000E+00 0. -1.
<mgrwt>
<rscale>  4 0.26591060E+03</rscale>
<asrwt>0</asrwt>
<pdfrwt beam="1">  1       21 0.59155435E-01 0.26591060E+03</pdfrwt>
<pdfrwt beam="2">  1       21 0.80096677E-01 0.26591060E+03</pdfrwt>
<totfact> 0.34755193E+03</totfact>
</mgrwt>
</event>
<event>
 5    0  0.2159162E+000  0.4878424E+03  0.7546771E-02  0.1017002E+00
         21   -1    0    0  502  501  0.00000000000E+00  0.00000000000E+00  0.46019976431E+03  0.46019976431E+03  0.00000000000E+00 0.  1.
         21   -1    0    0  503  502 -0.00000000000E+00 -0.00000000000E+00 -0.10069647672E+04  0.10069647672E+04  0.00000000000E+00 0. -1.
         25    1    1    2    0    0 -0.27749854045E+03 -0.39282663131E+03  0.20760741313E+03  0.53855736946E+03  0.12500000000E+03 0.  0.
         21    1    1    2  503  504  0.23691722328E+03  0.40607165374E+03 -0.75069909864E+03  0.88576130834E+03  0.00000000000E+00 0. -1.
         21    1    1    2  504  501  0.40581317170E+02 -0.13245022431E+02 -0.36733174205E+01  0.42845853747E+02  0.00000000000E+00 0. -1.
<mgrwt>
<rscale>  4 0.48784242E+03</rscale>
<asrwt>0</asrwt>
<pdfrwt beam="1">  1       21 0.70799964E-01 0.48784242E+03</pdfrwt>
<pdfrwt beam="2">  1       21 0.15491765E+00 0.48784242E+03</pdfrwt>
<totfact> 0.40396316E+02</totfact>
</mgrwt>
</event>
<event>
 5    0  0.2159162E+000  0.2447093E+03  0.7546771E-02  0.1116695E+00
         21   -1    0    0  502  501  0.00000000000E+00  0.00000000000E+00  0.15487249158E+03  0.15487249158E+03  0.00000000000E+00 0. -1.
         21   -1    0    0  503  502 -0.00000000000E+00 -0.00000000000E+00 -0.54688147390E+03  0.54688147390E+03  0.00000000000E+00 0. -1.
         25    1    1    2    0    0  0.87412299033E+02  0.19135499546E+03  0.70726557284E+01  0.24481149231E+03  0.12500000000E+03 0.  0.
         21    1    1    2  503  504 -0.53504059945E+02 -0.94540653028E+02 -0.27667029527E+03  0.29723235320E+03  0.00000000000E+00 0. -1.
         21    1    1    2  504  501 -0.33908239087E+02 -0.96814342431E+02 -0.12241134278E+03  0.15971011997E+03  0.00000000000E+00 0. -1.
<mgrwt>
<rscale>  4 0.24470931E+03</rscale>
<asrwt>0</asrwt>
<pdfrwt beam="1">  1       21 0.23826537E-01 0.24470931E+03</pdfrwt>
<pdfrwt beam="2">  1       21 0.84135613E-01 0.24470931E+03</pdfrwt>
<totfact> 0.19772647E+04</totfact>
</mgrwt>
</event>
<event>
 5    0  0.2159162E+000  0.2418601E+03  0.7546771E-02  0.1118560E+00
         21   -1    0    0  502  501  0.00000000000E+00  0.00000000000E+00  0.10585516617E+04  0.10585516617E+04  0.00000000000E+00 0. -1.
         21   -1    0    0  503  502 -0.00000000000E+00 -0.00000000000E+00 -0.20406685154E+03  0.20406685154E+03  0.00000000000E+00 0.  1.
         25    1    1    2    0    0  0.13689352949E+03  0.15534305957E+03  0.97995210497E+03  0.10093574355E+04  0.12500000000E+03 0.  0.
         21    1    1    2  503  504 -0.13816582890E+03 -0.11751814783E+03 -0.11152945713E+03  0.21292987379E+03  0.00000000000E+00 0.  1.
         21    1    1    2  504  501  0.12722994132E+01 -0.37824911732E+02 -0.13937837673E+02  0.40331203953E+02  0.00000000000E+00 0.  1.
<mgrwt>
<rscale>  4 0.24186009E+03</rscale>
<asrwt>0</asrwt>
<pdfrwt beam="1">  1       21 0.16285410E+00 0.24186009E+03</pdfrwt>
<pdfrwt beam="2">  1       21 0.31394901E-01 0.24186009E+03</pdfrwt>
<totfact> 0.22408459E+03</totfact>
</mgrwt>
</event>
<event>
 5    0  0.2159162E+000  0.4258990E+03  0.7546771E-02  0.1035163E+00
         21   -1    0    0  502  501  0.00000000000E+00  0.00000000000E+00  0.30082920337E+03  0.30082920337E+03  0.00000000000E+00 0. -1.
         21   -1    0    0  503  502 -0.00000000000E+00 -0.00000000000E+00 -0.70571829924E+03  0.70571829924E+03  0.00000000000E+00 0. -1.
         25    1    1    2    0    0 -0.40728863159E+03  0.73614161170E+02 -0.47843108534E+02  0.43499084724E+03  0.12500000000E+03 0.  0.
         21    1    1    2  503  504  0.38798410118E+03 -0.83639579028E+02 -0.26561989654E+03  0.47757844527E+03  0.00000000000E+00 0. -1.
         21    1    1    2  504  501  0.19304530403E+02  0.10025417858E+02 -0.91426090797E+02  0.93978210111E+02  0.00000000000E+00 0. -1.
<mgrwt>
<rscale>  4 0.42589898E+03</rscale>
<asrwt>0</asrwt>
<pdfrwt beam="1">  1       21 0.46281417E-01 0.42589898E+03</pdfrwt>
<pdfrwt beam="2">  1       21 0.10857204E+00 0.42589898E+03</pdfrwt>
<totfact> 0.26355410E+03</totfact>
</mgrwt>
</event>
