<event>
 5    0  0.1856407E+000  0.1711914E+03  0.7546771E-02  0.1176611E+00
         21   -1    0    0  502  501  0.00000000000E+00  0.00000000000E+00  0.15226500467E+03  0.15226500467E+03  0.00000000000E+00 0.  1.
         21   -1    0    0  503  502 -0.00000000000E+00 -0.00000000000E+00 -0.95922512519E+03  0.95922512519E+03  0.00000000000E+00 0.  1.
         25    1    1    2    0    0  0.23765177232E+02  0.20149322694E+03 -0.55130430192E+01  0.23836882723E+03  0.12500000000E+03 0.  0.
         21    1    1    2  503  504  0.12989393234E+02 -0.93586548958E+02 -0.39027477906E+02  0.10222676026E+03  0.00000000000E+00 0. -1.
         21    1    1    2  504  501 -0.36754570466E+02 -0.10790667798E+03 -0.76241959960E+03  0.77089454237E+03  0.00000000000E+00 0.  1.
<mgrwt>
<rscale>  4 0.17119143E+03</rscale>
<asrwt>0</asrwt>
<pdfrwt beam="1">  1       21 0.23425385E-01 0.17119143E+03</pdfrwt>
<pdfrwt beam="2">  1       21 0.14757310E+00 0.17119143E+03</pdfrwt>
<totfact> 0.54482250E+03</totfact>
</mgrwt>
</event>
<event>
 5    0  0.1856407E+000  0.3359327E+03  0.7546771E-02  0.1068542E+00
         21   -1    0    0  502  501  0.00000000000E+00  0.00000000000E+00  0.12289867685E+03  0.12289867685E+03  0.00000000000E+00 0. -1.
         21   -1    0    0  503  502 -0.00000000000E+00 -0.00000000000E+00 -0.14769666151E+04  0.14769666151E+04  0.00000000000E+00 0. -1.
         25    1    1    2    0    0  0.28812154850E+03 -0.11921318891E+03 -0.18372444699E+03  0.38289095516E+03  0.12500000000E+03 0.  0.
         21    1    1    2  503  504 -0.11190172319E+03  0.11011192840E+03 -0.57226280200E+03  0.59340656129E+03  0.00000000000E+00 0. -1.
         21    1    1    2  504  501 -0.17621982531E+03  0.91012605087E+01 -0.59808068922E+03  0.62356777546E+03  0.00000000000E+00 0. -1.
<mgrwt>
<rscale>  4 0.33593275E+03</rscale>
<asrwt>0</asrwt>
<pdfrwt beam="1">  1       21 0.18907490E-01 0.33593275E+03</pdfrwt>
<pdfrwt beam="2">  1       21 0.22722562E+00 0.33593275E+03</pdfrwt>
<totfact> 0.20723209E+03</totfact>
</mgrwt>
</event>
<event>
 5    0  0.1856407E+000  0.2734463E+03  0.7546771E-02  0.1099323E+00
         21   -1    0    0  502  501  0.00000000000E+00  0.00000000000E+00  0.71999784284E+03  0.71999784284E+03  0.00000000000E+00 0.  1.
         21   -1    0    0  503  502 -0.00000000000E+00 -0.00000000000E+00 -0.13577883113E+03  0.13577883113E+03  0.00000000000E+00 0. -1.
         25    1    1    2    0    0 -0.58838615874E+02  0.23597860125E+03  0.52686879957E+03  0.59360223628E+03  0.12500000000E+03 0.  0.
         21    1    1    2  503  504  0.54215050171E+02 -0.12879796307E+03 -0.16244248063E+01  0.13975273061E+03  0.00000000000E+00 0. -1.
         21    1    1    2  504  501  0.46235657036E+01 -0.10718063818E+03  0.58974636949E+02  0.12242170707E+03  0.00000000000E+00 0. -1.
<mgrwt>
<rscale>  4 0.27344631E+03</rscale>
<asrwt>0</asrwt>
<pdfrwt beam="1">  1       21 0.11076890E+00 0.27344631E+03</pdfrwt>
<pdfrwt beam="2">  1       21 0.20889051E-01 0.27344631E+03</pdfrwt>
<totfact> 0.13030824E+04</totfact>
</mgrwt>
</event>
<event>
 5    0  0.2313435E+000  0.2623561E+03  0.7546771E-02  0.1105736E+00
         21   -1    0    0  502  501  0.00000000000E+00  0.00000000000E+00  0.94063405268E+02  0.94063405268E+02  0.00000000000E+00 0.  1.
         21   -1    0    0  503  502 -0.00000000000E+00 -0.00000000000E+00 -0.72920897396E+03  0.72920897396E+03  0.00000000000E+00 0.  1.
         25    1    1    2    0    0  0.19436028195E+03 -0.12421681560E+03 -0.20175418061E+03  0.33096145678E+03  0.12500000000E+03 0.  0.
         21    1    1    2  503  504 -0.15811092371E+02  0.13093567058E+02 -0.20865396194E+02  0.29271093226E+02  0.00000000000E+00 0.  1.
         21    1    1    2  504  501 -0.17854918958E+03  0.11112324854E+03 -0.41252599189E+03  0.46303982923E+03  0.00000000000E+00 0.  1.
<mgrwt>
<rscale>  4 0.26235613E+03</rscale>
<asrwt>0</asrwt>
<pdfrwt beam="1">  1       21 0.14471294E-01 0.26235613E+03</pdfrwt>
<pdfrwt beam="2">  1       21 0.11218599E+00 0.26235613E+03</pdfrwt>
<totfact> 0.25119575E+04</totfact>
</mgrwt>
</event>
<event>
 5    0  0.1910343E+000  0.2715273E+03  0.7546771E-02  0.1100409E+00
         21   -1    0    0  502  501  0.00000000000E+00  0.00000000000E+00  0.67216071315E+03  0.67216071315E+03  0.00000000000E+00 0.  1.
         21   -1    0    0  503  502 -0.00000000000E+00 -0.00000000000E+00 -0.10981103176E+03  0.10981103176E+03  0.00000000000E+00 0.  1.
         25    1    1    2    0    0 -0.16319291134E+03  0.17739834791E+03  0.38266711464E+03  0.46921340644E+03  0.12500000000E+03 0.  0.
         21    1    1    2  503  504  0.92736431116E+02 -0.13857919640E+03  0.15736504942E+03  0.22927712077E+03  0.00000000000E+00 0.  1.
         21    1    1    2  504  501  0.70456480228E+02 -0.38819151512E+02  0.22317517332E+02  0.83481217709E+02  0.00000000000E+00 0.  1.
<mgrwt>
<rscale>  4 0.27152735E+03</rscale>
<asrwt>0</asrwt>
<pdfrwt beam="1">  1       21 0.10340934E+00 0.27152735E+03</pdfrwt>
<pdfrwt beam="2">  1       21 0.16894005E-01 0.27152735E+03</pdfrwt>
<totfact> 0.22940886E+04</totfact>
</mgrwt>
</event>
<event>
 5    0  0.1856407E+000  0.2533672E+03  0.7546771E-02  0.1111195E+00
         21   -1    0    0  502  501  0.00000000000E+00  0.00000000000E+00  0.13119268320E+04  0.13119268320E+04  0.00000000000E+00 0.  1.
         21   -1    0    0  503  502 -0.00000000000E+00 -0.00000000000E+00 -0.46955694942E+02  0.46955694942E+02  0.00000000000E+00 0.  1.
         25    1    1    2    0    0 -0.21858606128E+03  0.28108282444E+02  0.81637603187E+03  0.85478931154E+03  0.12500000000E+03 0.  0.
         21    1    1    2  503  504  0.48376577318E+02 -0.34306977851E+02  0.10467335836E+03  0.12030699860E+03  0.00000000000E+00 0.  1.
         21    1    1    2  504  501  0.17020948396E+03  0.61986954069E+01  0.34392174680E+03  0.38378621676E+03  0.00000000000E+00 0.  1.
<mgrwt>
<rscale>  4 0.25336721E+03</rscale>
<asrwt>0</asrwt>
<pdfrwt beam="1">  1       21 0.20183487E+00 0.25336721E+03</pdfrwt>
<pdfrwt beam="2">  1       21 0.72239541E-02 0.25336721E+03</pdfrwt>
<totfact> 0.17947322E+04</totfact>
</mgrwt>
</event>
<event>
 5    0  0.1856407E+000  0.3317098E+03  0.7546771E-02  0.1070383E+00
         21   -1    0    0  502  501  0.00000000000E+00  0.00000000000E+00  0.25394849105E+03  0.25394849105E+03  0.00000000000E+00 0. -1.
         21   -1    0    0  503  502 -0.00000000000E+00 -0.00000000000E+00 -0.97696896731E+03  0.97696896731E+03  0.00000000000E+00 0. -1.
         25    1    1    2    0    0 -0.32013274482E+03  0.51235235113E+02  0.83006706597E+02  0.35724660525E+03  0.12500000000E+03 0.  0.
         21    1    1    2  503  504  0.20345983760E+02  0.53696388281E+01 -0.14976433623E+02  0.25828001091E+02  0.00000000000E+00 0. -1.
         21    1    1    2  504  501  0.29978676106E+03 -0.56604873941E+02 -0.79105074924E+03  0.84784285202E+03  0.00000000000E+00 0. -1.
<mgrwt>
<rscale>  4 0.33170978E+03</rscale>
<asrwt>0</asrwt>
<pdfrwt beam="1">  1       21 0.39068998E-01 0.33170978E+03</pdfrwt>
<pdfrwt beam="2">  1       21 0.15030292E+00 0.33170978E+03</pdfrwt>
<totfact> 0.16937540E+03</totfact>
</mgrwt>
</event>
<event>
 5    0  0.1856407E+000  0.2424264E+03  0.7546771E-02  0.1118187E+00
         21   -1    0    0  502  501  0.00000000000E+00  0.00000000000E+00  0.11962735488E+03  0.11962735488E+03  0.00000000000E+00 0. -1.
         21   -1    0    0  503  502 -0.00000000000E+00 -0.00000000000E+00 -0.52543041327E+03  0.52543041327E+03  0.00000000000E+00 0. -1.
         25    1    1    2    0    0  0.15294518311E+03 -0.14541569061E+03 -0.26467342995E+03  0.36085312335E+03  0.12500000000E+03 0.  0.
         21    1    1    2  503  504  0.17086145827E+02  0.30066141467E+02  0.61863708590E+00  0.34587453705E+02  0.00000000000E+00 0. -1.
         21    1    1    2  504  501 -0.17003132894E+03  0.11534954914E+03 -0.14174826553E+03  0.24961719109E+03  0.00000000000E+00 0. -1.
<mgrwt>
<rscale>  4 0.24242642E+03</rscale>
<asrwt>0</asrwt>
<pdfrwt beam="1">  1       21 0.18404208E-01 0.24242642E+03</pdfrwt>
<pdfrwt beam="2">  1       21 0.80835450E-01 0.24242642E+03</pdfrwt>
<totfact> 0.35307692E+04</totfact>
</mgrwt>
</event>
<event>
 5    0  0.1856407E+000  0.3594814E+03  0.7546771E-02  0.1058789E+00
         21   -1    0    0  502  501  0.00000000000E+00  0.00000000000E+00  0.27229139505E+03  0.27229139505E+03  0.00000000000E+00 0.  1.
         21   -1    0    0  503  502 -0.00000000000E+00 -0.00000000000E+00 -0.64117113832E+03  0.64117113832E+03  0.00000000000E+00 0.  1.
         25    1    1    2    0    0 -0.21335329347E+03 -0.30595623041E+03 -0.73061137897E+02  0.40011469934E+03  0.12500000000E+03 0.  0.
         21    1    1    2  503  504  0.21921525137E+03  0.20963833560E+03 -0.14972330476E+03  0.33826118041E+03  0.00000000000E+00 0.  1.
         21    1    1    2  504  501 -0.58619578978E+01  0.96317894808E+02 -0.14609530061E+03  0.17508665361E+03  0.00000000000E+00 0.  1.
<mgrwt>
<rscale>  4 0.35948144E+03</rscale>
<asrwt>0</asrwt>
<pdfrwt beam="1">  1       21 0.41890985E-01 0.35948144E+03</pdfrwt>
<pdfrwt beam="2">  1       21 0.98641711E-01 0.35948144E+03</pdfrwt>
<totfact> 0.42132175E+03</totfact>
</mgrwt>
</event>
<event>
 5    0  0.1856407E+000  0.3780779E+03  0.7546771E-02  0.1051646E+00
         21   -1    0    0  502  501  0.00000000000E+00  0.00000000000E+00  0.40989443873E+03  0.40989443873E+03  0.00000000000E+00 0. -1.
         21   -1    0    0  503  502 -0.00000000000E+00 -0.00000000000E+00 -0.22122652873E+04  0.22122652873E+04  0.00000000000E+00 0.  1.
         25    1    1    2    0    0 -0.63314668054E+02  0.35115406290E+03  0.30294206850E+03  0.48447581978E+03  0.12500000000E+03 0.  0.
         21    1    1    2  503  504  0.63260102071E+02 -0.20037094834E+03 -0.97691933530E+03  0.99926059921E+03  0.00000000000E+00 0.  1.
         21    1    1    2  504  501  0.54565982512E-01 -0.15078311456E+03 -0.11283935818E+04  0.11384233070E+04  0.00000000000E+00 0.  1.
<mgrwt>
<rscale>  4 0.37807793E+03</rscale>
<asrwt>0</asrwt>
<pdfrwt beam="1">  1       21 0.63060685E-01 0.37807793E+03</pdfrwt>
<pdfrwt beam="2">  1       21 0.34034849E+00 0.37807793E+03</pdfrwt>
<totfact> 0.36730084E+01</totfact>
</mgrwt>
</event>
<event>
 5    0  0.1856407E+000  0.2957639E+03  0.7546771E-02  0.1087378E+00
         21   -1    0    0  502  501  0.00000000000E+00  0.00000000000E+00  0.66124386730E+03  0.66124386730E+03  0.00000000000E+00 0.  1.
         21   -1    0    0  503  502 -0.00000000000E+00 -0.00000000000E+00 -0.27177330110E+03  0.27177330110E+03  0.00000000000E+00 0. -1.
         25    1    1    2    0    0  0.83519931909E+02 -0.25928577755E+03  0.53212286716E+03  0.61072451991E+03  0.12500000000E+03 0.  0.
         21    1    1    2  503  504  0.52343291920E+00  0.30648664205E+02  0.12912888464E+02  0.33261949553E+02  0.00000000000E+00 0. -1.
         21    1    1    2  504  501 -0.84043364829E+02  0.22863711334E+03 -0.15556518942E+03  0.28903069894E+03  0.00000000000E+00 0. -1.
<mgrwt>
<rscale>  4 0.29576393E+03</rscale>
<asrwt>0</asrwt>
<pdfrwt beam="1">  1       21 0.10172983E+00 0.29576393E+03</pdfrwt>
<pdfrwt beam="2">  1       21 0.41811277E-01 0.29576393E+03</pdfrwt>
<totfact> 0.40497353E+03</totfact>
</mgrwt>
</event>
<event>
 5    0  0.1856407E+000  0.2501928E+03  0.7546771E-02  0.1113183E+00
         21   -1    0    0  502  501  0.00000000000E+00  0.00000000000E+00  0.14465096660E+03  0.14465096660E+03  0.00000000000E+00 0.  1.
         21   -1    0    0  503  502 -0.00000000000E+00 -0.00000000000E+00 -0.51010976977E+03  0.51010976977E+03  0.00000000000E+00 0.  1.
         25    1    1    2    0    0  0.74928433884E+02  0.20336462692E+03 -0.35068321959E+03  0.43078435694E+03  0.12500000000E+03 0.  0.
         21    1    1    2  503  504 -0.78722626296E+02 -0.16939350740E+03 -0.13969321599E+00  0.18679248313E+03  0.00000000000E+00 0.  1.
         21    1    1    2  504  501  0.37941924116E+01 -0.33971119521E+02 -0.14635890365E+02  0.37183896304E+02  0.00000000000E+00 0.  1.
<mgrwt>
<rscale>  4 0.25019281E+03</rscale>
<asrwt>0</asrwt>
<pdfrwt beam="1">  1       21 0.22253995E-01 0.25019281E+03</pdfrwt>
<pdfrwt beam="2">  1       21 0.78478426E-01 0.25019281E+03</pdfrwt>
<totfact> 0.26327103E+04</totfact>
</mgrwt>
</event>
<event>
 5    0  0.2287610E+000  0.3156138E+03  0.7546771E-02  0.1077686E+00
         21   -1    0    0  502  501  0.00000000000E+00  0.00000000000E+00  0.47087020567E+03  0.47087020567E+03  0.00000000000E+00 0.  1.
         21   -1    0    0  503  502 -0.00000000000E+00 -0.00000000000E+00 -0.25045226238E+03  0.25045226238E+03  0.00000000000E+00 0.  1.
         25    1    1    2    0    0 -0.29958650883E+03  0.75575817207E+02  0.12483201746E+03  0.35590983830E+03  0.12500000000E+03 0.  0.
         21    1    1    2  503  504  0.43738721992E+02  0.28957615172E+02 -0.31529903967E+02  0.61202566303E+02  0.00000000000E+00 0.  1.
         21    1    1    2  504  501  0.25584778684E+03 -0.10453343238E+03  0.12711582979E+03  0.30421006344E+03  0.00000000000E+00 0.  1.
<mgrwt>
<rscale>  4 0.31561377E+03</rscale>
<asrwt>0</asrwt>
<pdfrwt beam="1">  1       21 0.72441570E-01 0.31561377E+03</pdfrwt>
<pdfrwt beam="2">  1       21 0.38531118E-01 0.31561377E+03</pdfrwt>
<totfact> 0.10434101E+04</totfact>
</mgrwt>
</event>
